<event>
 6    1  0.6022095E-003  0.6323891E+03  0.7818608E-02  0.9840398E-01
          1   -1    0    0  502    0  0.00000000000E+00  0.00000000000E+00  0.10003844460E+03  0.10003844460E+03  0.00000000000E+00 0.  1.
         13   -1    0    0    0    0 -0.00000000000E+00 -0.00000000000E+00 -0.10000000000E+04  0.10000000000E+04  0.00000000000E+00 0.  1.
    9000005    2    1    2  501    0 -0.11560418002E-02 -0.21268973830E-03 -0.90002099399E+03  0.10999789944E+04  0.63238911952E+03 0.  0.
         13    1    3    3    0    0  0.14461358189E+03 -0.30864207986E+02  0.36130677420E+02  0.15222060719E+03  0.00000000000E+00 0.  1.
          3    1    3    3  501    0 -0.14461473793E+03  0.30863995297E+02 -0.93615167141E+03  0.94775838720E+03  0.00000000000E+00 0.  1.
         21    1    1    2  502  501  0.11560418002E-02  0.21268973830E-03  0.59438583207E-01  0.59450204737E-01  0.00000000000E+00 0.  1.
<mgrwt>
<rscale>  1 0.63238912E+03</rscale>
<asrwt>0</asrwt>
<pdfrwt beam="1">  1        1 0.36377693E+00 0.63238912E+03</pdfrwt>
<pdfrwt beam="2">0</pdfrwt>
<totfact> 0.19400428E+00</totfact>
</mgrwt>
</event>
<event>
 6    1  0.6022095E-003  0.6263663E+03  0.7818608E-02  0.9852165E-01
          1   -1    0    0  502    0  0.00000000000E+00  0.00000000000E+00  0.98893749697E+02  0.98893749697E+02  0.00000000000E+00 0.  1.
         13   -1    0    0    0    0 -0.00000000000E+00 -0.00000000000E+00 -0.10000000000E+04  0.10000000000E+04  0.00000000000E+00 0.  1.
    9000005    2    1    2  501    0 -0.29173003071E+00 -0.19664654723E+01 -0.90028182675E+03  0.10967415956E+04  0.62636315980E+03 0.  0.
         13    1    3    3    0    0  0.27890058596E+03 -0.49036470222E+02 -0.68447688861E+03  0.74074200860E+03  0.00000000000E+00 0.  1.
          1    1    3    3  501    0 -0.27919231599E+03  0.47070004749E+02 -0.21580493814E+03  0.35599958705E+03  0.00000000000E+00 0.  1.
         21    1    1    2  502  501  0.29173003071E+00  0.19664654723E+01 -0.82442355195E+00  0.21521540506E+01  0.00000000000E+00 0. -1.
<mgrwt>
<rscale>  1 0.62636631E+03</rscale>
<asrwt>0</asrwt>
<pdfrwt beam="1">  1        1 0.35961439E+00 0.62636631E+03</pdfrwt>
<pdfrwt beam="2">0</pdfrwt>
<totfact> 0.20253546E+00</totfact>
</mgrwt>
</event>
<event>
 6    1  0.6022095E-003  0.6498618E+03  0.7818608E-02  0.9807039E-01
          1   -1    0    0  502    0  0.00000000000E+00  0.00000000000E+00  0.10559542996E+03  0.10559542996E+03  0.00000000000E+00 0.  1.
         13   -1    0    0    0    0 -0.00000000000E+00 -0.00000000000E+00 -0.10000000000E+04  0.10000000000E+04  0.00000000000E+00 0.  1.
    9000005    2    1    2  501    0  0.30930971269E-03 -0.44665685000E-03 -0.89441992112E+03  0.11055800693E+04  0.64986175013E+03 0.  0.
         13    1    3    3    0    0  0.29464031756E+03  0.73492737027E+02 -0.25052542576E+03  0.39367129446E+03  0.00000000000E+00 0.  1.
          3    1    3    3  501    0 -0.29464000825E+03 -0.73493183684E+02 -0.64389449536E+03  0.71190877482E+03  0.00000000000E+00 0.  1.
         21    1    1    2  502  501 -0.30930971267E-03  0.44665685001E-03  0.15351076848E-01  0.15360687980E-01  0.00000000000E+00 0. -1.
<mgrwt>
<rscale>  1 0.64986175E+03</rscale>
<asrwt>0</asrwt>
<pdfrwt beam="1">  1        1 0.38398419E+00 0.64986175E+03</pdfrwt>
<pdfrwt beam="2">0</pdfrwt>
<totfact> 0.15758516E+00</totfact>
</mgrwt>
</event>
<event>
 6    1  0.6022095E-003  0.6694836E+03  0.7818608E-02  0.9770891E-01
          1   -1    0    0  502    0  0.00000000000E+00  0.00000000000E+00  0.11205207599E+03  0.11205207599E+03  0.00000000000E+00 0.  1.
         13   -1    0    0    0    0 -0.00000000000E+00 -0.00000000000E+00 -0.10000000000E+04  0.10000000000E+04  0.00000000000E+00 0.  1.
    9000005    2    1    2  501    0 -0.39773090066E-06 -0.50862986427E-05 -0.88794793279E+03  0.11120520658E+04  0.66948358141E+03 0.  0.
         13    1    3    3    0    0 -0.27492779989E+03  0.19089752543E+03 -0.43568442700E+03  0.54940702608E+03  0.00000000000E+00 0.  1.
          1    1    3    3  501    0  0.27492779950E+03 -0.19089753052E+03 -0.45226350579E+03  0.56264503976E+03  0.00000000000E+00 0.  1.
         21    1    1    2  502  501  0.39773094356E-06  0.50862986290E-05  0.87874696376E-05  0.10161114421E-04  0.00000000000E+00 0. -1.
<mgrwt>
<rscale>  1 0.66948358E+03</rscale>
<asrwt>0</asrwt>
<pdfrwt beam="1">  1        1 0.40746295E+00 0.66948358E+03</pdfrwt>
<pdfrwt beam="2">0</pdfrwt>
<totfact> 0.12344370E+00</totfact>
</mgrwt>
</event>
<event>
 6    1  0.6022095E-003  0.5968846E+03  0.7818608E-02  0.9911891E-01
          1   -1    0    0  502    0  0.00000000000E+00  0.00000000000E+00  0.89067895285E+02  0.89067895285E+02  0.00000000000E+00 0.  1.
         13   -1    0    0    0    0 -0.00000000000E+00 -0.00000000000E+00 -0.10000000000E+04  0.10000000000E+04  0.00000000000E+00 0.  1.
    9000005    2    1    2  501    0  0.19464022806E-04  0.17161367538E-04 -0.91093218828E+03  0.10890678078E+04  0.59688461054E+03 0.  0.
         13    1    3    3    0    0 -0.41411134147E+02  0.14547720005E+03  0.13950538236E+02  0.15189837156E+03  0.00000000000E+00 0.  1.
          3    1    3    3  501    0  0.41411153611E+02 -0.14547718289E+03 -0.92488272652E+03  0.93716943622E+03  0.00000000000E+00 0.  1.
         21    1    1    2  502  501 -0.19464022803E-04 -0.17161367536E-04  0.83565133851E-04  0.87501384646E-04  0.00000000000E+00 0.  1.
<mgrwt>
<rscale>  1 0.59688461E+03</rscale>
<asrwt>0</asrwt>
<pdfrwt beam="1">  1        1 0.32388394E+00 0.59688461E+03</pdfrwt>
<pdfrwt beam="2">0</pdfrwt>
<totfact> 0.29113109E+00</totfact>
</mgrwt>
</event>
<event>
 6    1  0.6022095E-003  0.6406003E+03  0.7818608E-02  0.9824579E-01
          1   -1    0    0  502    0  0.00000000000E+00  0.00000000000E+00  0.10261497690E+03  0.10261497690E+03  0.00000000000E+00 0.  1.
         13   -1    0    0    0    0 -0.00000000000E+00 -0.00000000000E+00 -0.10000000000E+04  0.10000000000E+04  0.00000000000E+00 0.  1.
    9000005    2    1    2  501    0  0.68456103173E-02  0.61267728642E-01 -0.89734658450E+03  0.11025423262E+04  0.64060025334E+03 0.  0.
         13    1    3    3    0    0 -0.13316049302E+03  0.86420185785E+02  0.30132967560E+02  0.16158020036E+03  0.00000000000E+00 0.  1.
          3    1    3    3  501    0  0.13316733863E+03 -0.86358918056E+02 -0.92747955206E+03  0.94096212586E+03  0.00000000000E+00 0.  1.
         21    1    1    2  502  501 -0.68456103173E-02 -0.61267728642E-01 -0.38438591535E-01  0.72650686664E-01  0.00000000000E+00 0. -1.
<mgrwt>
<rscale>  1 0.64060026E+03</rscale>
<asrwt>0</asrwt>
<pdfrwt beam="1">  1        1 0.37314616E+00 0.64060026E+03</pdfrwt>
<pdfrwt beam="2">0</pdfrwt>
<totfact> 0.17621453E+00</totfact>
</mgrwt>
</event>
<event>
 6    1  0.6022095E-003  0.6297213E+03  0.7818608E-02  0.9845593E-01
          1   -1    0    0  502    0  0.00000000000E+00  0.00000000000E+00  0.99138531328E+02  0.99138531328E+02  0.00000000000E+00 0.  1.
         13   -1    0    0    0    0 -0.00000000000E+00 -0.00000000000E+00 -0.10000000000E+04  0.10000000000E+04  0.00000000000E+00 0.  1.
    9000005    2    1    2  501    0 -0.20314963564E-03 -0.31233023468E-03 -0.90086272599E+03  0.10991372200E+04  0.62972134889E+03 0.  0.
         13    1    3    3    0    0  0.10204164275E+03  0.11669953827E+03 -0.92877547241E+03  0.94162368133E+03  0.00000000000E+00 0.  1.
          3    1    3    3  501    0 -0.10204184590E+03 -0.11669985060E+03  0.27912746420E+02  0.15751353864E+03  0.00000000000E+00 0.  1.
         21    1    1    2  502  501  0.20314963564E-03  0.31233023469E-03  0.12573165977E-02  0.13113599722E-02  0.00000000000E+00 0. -1.
<mgrwt>
<rscale>  1 0.62972135E+03</rscale>
<asrwt>0</asrwt>
<pdfrwt beam="1">  1        1 0.36050451E+00 0.62972135E+03</pdfrwt>
<pdfrwt beam="2">0</pdfrwt>
<totfact> 0.20060644E+00</totfact>
</mgrwt>
</event>
<event>
 6    1  0.6022095E-003  0.6476853E+03  0.7818608E-02  0.9811132E-01
          1   -1    0    0  502    0  0.00000000000E+00  0.00000000000E+00  0.10487535547E+03  0.10487535547E+03  0.00000000000E+00 0.  1.
         13   -1    0    0    0    0 -0.00000000000E+00 -0.00000000000E+00 -0.10000000000E+04  0.10000000000E+04  0.00000000000E+00 0.  1.
    9000005    2    1    2  501    0 -0.18394653821E-04 -0.31145394871E-04 -0.89512592472E+03  0.11048740748E+04  0.64768534025E+03 0.  0.
         13    1    3    3    0    0 -0.10476735657E+03 -0.28805358290E+03 -0.26927581796E+03  0.40799574969E+03  0.00000000000E+00 0.  1.
          3    1    3    3  501    0  0.10476733817E+03  0.28805355176E+03 -0.62585010676E+03  0.69687832508E+03  0.00000000000E+00 0.  1.
         21    1    1    2  502  501  0.18394653817E-04  0.31145394897E-04  0.12801967754E-02  0.12807076882E-02  0.00000000000E+00 0. -1.
<mgrwt>
<rscale>  1 0.64768534E+03</rscale>
<asrwt>0</asrwt>
<pdfrwt beam="1">  1        1 0.38136573E+00 0.64768534E+03</pdfrwt>
<pdfrwt beam="2">0</pdfrwt>
<totfact> 0.16190416E+00</totfact>
</mgrwt>
</event>
<event>
 6    1  0.6022095E-003  0.6443617E+03  0.7818608E-02  0.9817417E-01
          1   -1    0    0  502    0  0.00000000000E+00  0.00000000000E+00  0.10380468154E+03  0.10380468154E+03  0.00000000000E+00 0.  1.
         13   -1    0    0    0    0 -0.00000000000E+00 -0.00000000000E+00 -0.10000000000E+04  0.10000000000E+04  0.00000000000E+00 0.  1.
    9000005    2    1    2  501    0 -0.72569480443E-03  0.68052607084E-03 -0.89619944883E+03  0.11038004330E+04  0.64436165614E+03 0.  0.
         13    1    3    3    0    0  0.22314738093E+03 -0.11520971259E+03 -0.79382348516E+03  0.83260059878E+03  0.00000000000E+00 0.  1.
          3    1    3    3  501    0 -0.22314810662E+03  0.11521039312E+03 -0.10237596367E+03  0.27119983427E+03  0.00000000000E+00 0.  1.
         21    1    1    2  502  501  0.72569480443E-03 -0.68052607083E-03  0.41303668413E-02  0.42484913706E-02  0.00000000000E+00 0. -1.
<mgrwt>
<rscale>  1 0.64436166E+03</rscale>
<asrwt>0</asrwt>
<pdfrwt beam="1">  1        1 0.37747237E+00 0.64436166E+03</pdfrwt>
<pdfrwt beam="2">0</pdfrwt>
<totfact> 0.16853763E+00</totfact>
</mgrwt>
</event>
<event>
 6    1  0.6022095E-003  0.6512103E+03  0.7818608E-02  0.9804511E-01
          1   -1    0    0  502    0  0.00000000000E+00  0.00000000000E+00  0.10601891770E+03  0.10601891770E+03  0.00000000000E+00 0.  1.
         13   -1    0    0    0    0 -0.00000000000E+00 -0.00000000000E+00 -0.10000000000E+04  0.10000000000E+04  0.00000000000E+00 0.  1.
    9000005    2    1    2  501    0 -0.19541810440E-03  0.44024918677E-03 -0.89398088062E+03  0.11060183955E+04  0.65121031648E+03 0.  0.
         13    1    3    3    0    0 -0.28107631352E+03 -0.13357837385E+03 -0.28433650275E+03  0.42153804429E+03  0.00000000000E+00 0.  1.
          1    1    3    3  501    0  0.28107611811E+03  0.13357881409E+03 -0.60964437786E+03  0.68448035122E+03  0.00000000000E+00 0.  1.
         21    1    1    2  502  501  0.19541810439E-03 -0.44024918679E-03 -0.20168450014E-03  0.52219174600E-03  0.00000000000E+00 0.  1.
<mgrwt>
<rscale>  1 0.65121032E+03</rscale>
<asrwt>0</asrwt>
<pdfrwt beam="1">  1        1 0.38552415E+00 0.65121032E+03</pdfrwt>
<pdfrwt beam="2">0</pdfrwt>
<totfact> 0.15509451E+00</totfact>
</mgrwt>
</event>
<event>
 6    1  0.6022095E-003  0.6410555E+03  0.7818608E-02  0.9823709E-01
          1   -1    0    0  502    0  0.00000000000E+00  0.00000000000E+00  0.10335308019E+03  0.10335308019E+03  0.00000000000E+00 0.  1.
         13   -1    0    0    0    0 -0.00000000000E+00 -0.00000000000E+00 -0.10000000000E+04  0.10000000000E+04  0.00000000000E+00 0.  1.
    9000005    2    1    2  501    0  0.58583035960E+00  0.19696700534E+00 -0.89708606087E+03  0.11025948994E+04  0.64105516893E+03 0.  0.
         13    1    3    3    0    0  0.28748020042E+03  0.13579714831E+03 -0.37504281451E+03  0.49167351346E+03  0.00000000000E+00 0.  1.
          1    1    3    3  501    0 -0.28689437007E+03 -0.13560018130E+03 -0.52204324636E+03  0.61092138596E+03  0.00000000000E+00 0.  1.
         21    1    1    2  502  501 -0.58583035960E+00 -0.19696700534E+00  0.43914106266E+00  0.75818077286E+00  0.00000000000E+00 0. -1.
<mgrwt>
<rscale>  1 0.64105547E+03</rscale>
<asrwt>0</asrwt>
<pdfrwt beam="1">  1        1 0.37583018E+00 0.64105547E+03</pdfrwt>
<pdfrwt beam="2">0</pdfrwt>
<totfact> 0.17147237E+00</totfact>
</mgrwt>
</event>
<event>
 6    1  0.6022095E-003  0.5789108E+03  0.7818608E-02  0.9950152E-01
          1   -1    0    0  502    0  0.00000000000E+00  0.00000000000E+00  0.83835747893E+02  0.83835747893E+02  0.00000000000E+00 0.  1.
         13   -1    0    0    0    0 -0.00000000000E+00 -0.00000000000E+00 -0.10000000000E+04  0.10000000000E+04  0.00000000000E+00 0.  1.
    9000005    2    1    2  501    0 -0.68266887106E-02 -0.20209699727E-01 -0.91621315872E+03  0.10837823916E+04  0.57891080464E+03 0.  0.
         13    1    3    3    0    0 -0.18549539246E+03 -0.20402354639E+03 -0.29325188371E+03  0.40253051487E+03  0.00000000000E+00 0.  1.
          3    1    3    3  501    0  0.18548856577E+03  0.20400333669E+03 -0.62296127501E+03  0.68125187675E+03  0.00000000000E+00 0.  1.
         21    1    1    2  502  501  0.68266887106E-02  0.20209699727E-01  0.48906608482E-01  0.53356274186E-01  0.00000000000E+00 0.  1.
<mgrwt>
<rscale>  1 0.57891081E+03</rscale>
<asrwt>0</asrwt>
<pdfrwt beam="1">  1        1 0.30485791E+00 0.57891081E+03</pdfrwt>
<pdfrwt beam="2">0</pdfrwt>
<totfact> 0.35291658E+00</totfact>
</mgrwt>
</event>
<event>
 6    1  0.6022095E-003  0.6241874E+03  0.7818608E-02  0.9856458E-01
          1   -1    0    0  502    0  0.00000000000E+00  0.00000000000E+00  0.97402517026E+02  0.97402517026E+02  0.00000000000E+00 0.  1.
         13   -1    0    0    0    0 -0.00000000000E+00 -0.00000000000E+00 -0.10000000000E+04  0.10000000000E+04  0.00000000000E+00 0.  1.
    9000005    2    1    2  501    0 -0.10889368903E-03  0.12341695191E-03 -0.90259729420E+03  0.10974022666E+04  0.62418735904E+03 0.  0.
         13    1    3    3    0    0  0.22495084711E+03  0.25952058825E+02 -0.73705524408E+02  0.23813629984E+03  0.00000000000E+00 0.  1.
          3    1    3    3  501    0 -0.22495095601E+03 -0.25951935408E+02 -0.82889176979E+03  0.85926596674E+03  0.00000000000E+00 0.  1.
         21    1    1    2  502  501  0.10889368902E-03 -0.12341695191E-03 -0.18877082173E-03  0.25044760463E-03  0.00000000000E+00 0.  1.
<mgrwt>
<rscale>  1 0.62418736E+03</rscale>
<asrwt>0</asrwt>
<pdfrwt beam="1">  1        1 0.35419172E+00 0.62418736E+03</pdfrwt>
<pdfrwt beam="2">0</pdfrwt>
<totfact> 0.21397268E+00</totfact>
</mgrwt>
</event>
<event>
 6    1  0.6022095E-003  0.6729944E+03  0.7818608E-02  0.9764563E-01
          1   -1    0    0  502    0  0.00000000000E+00  0.00000000000E+00  0.11342727012E+03  0.11342727012E+03  0.00000000000E+00 0.  1.
         13   -1    0    0    0    0 -0.00000000000E+00 -0.00000000000E+00 -0.10000000000E+04  0.10000000000E+04  0.00000000000E+00 0.  1.
    9000005    2    1    2  501    0  0.88125384256E-01 -0.48070920608E-01 -0.88675528378E+03  0.11132189367E+04  0.67299439640E+03 0.  0.
         13    1    3    3    0    0 -0.23618502145E+03  0.23915997796E+03 -0.41893664204E+03  0.53711150561E+03  0.00000000000E+00 0.  1.
          1    1    3    3  501    0  0.23627314684E+03 -0.23920804888E+03 -0.46781864174E+03  0.57610743107E+03  0.00000000000E+00 0.  1.
         21    1    1    2  502  501 -0.88125384256E-01  0.48070920607E-01  0.18255390081E+00  0.20833344297E+00  0.00000000000E+00 0.  1.
<mgrwt>
<rscale>  1 0.67299440E+03</rscale>
<asrwt>0</asrwt>
<pdfrwt beam="1">  1        1 0.41246367E+00 0.67299440E+03</pdfrwt>
<pdfrwt beam="2">0</pdfrwt>
<totfact> 0.11715180E+00</totfact>
</mgrwt>
</event>
<event>
 6    1  0.6022095E-003  0.6596666E+03  0.7818608E-02  0.9788808E-01
          1   -1    0    0  502    0  0.00000000000E+00  0.00000000000E+00  0.10885685454E+03  0.10885685454E+03  0.00000000000E+00 0.  1.
         13   -1    0    0    0    0 -0.00000000000E+00 -0.00000000000E+00 -0.10000000000E+04  0.10000000000E+04  0.00000000000E+00 0.  1.
    9000005    2    1    2  501    0  0.10799487393E-02 -0.16332398502E-04 -0.89120998859E+03  0.11087900027E+04  0.65966660236E+03 0.  0.
         13    1    3    3    0    0  0.17738999438E+03  0.26759323502E+03 -0.57269292081E+03  0.65654438622E+03  0.00000000000E+00 0.  1.
          3    1    3    3  501    0 -0.17738891443E+03 -0.26759325135E+03 -0.31851706779E+03  0.45224561646E+03  0.00000000000E+00 0.  1.
         21    1    1    2  502  501 -0.10799487393E-02  0.16332398487E-04  0.66843137038E-01  0.66851862541E-01  0.00000000000E+00 0.  1.
<mgrwt>
<rscale>  1 0.65966660E+03</rscale>
<asrwt>0</asrwt>
<pdfrwt beam="1">  1        1 0.39584394E+00 0.65966660E+03</pdfrwt>
<pdfrwt beam="2">0</pdfrwt>
<totfact> 0.13935783E+00</totfact>
</mgrwt>
</event>
<event>
 6    1  0.6022095E-003  0.6476986E+03  0.7818608E-02  0.9811107E-01
          1   -1    0    0  502    0  0.00000000000E+00  0.00000000000E+00  0.10490726933E+03  0.10490726933E+03  0.00000000000E+00 0.  1.
         13   -1    0    0    0    0 -0.00000000000E+00 -0.00000000000E+00 -0.10000000000E+04  0.10000000000E+04  0.00000000000E+00 0.  1.
    9000005    2    1    2  501    0  0.78861761972E-02  0.30604908522E-03 -0.89512102479E+03  0.11048778951E+04  0.64769862908E+03 0.  0.
         13    1    3    3    0    0 -0.20120336649E+03 -0.23381092339E+03 -0.61579217492E+03  0.68873096727E+03  0.00000000000E+00 0.  1.
          1    1    3    3  501    0  0.20121125267E+03  0.23381122944E+03 -0.27932884987E+03  0.41614692788E+03  0.00000000000E+00 0.  1.
         21    1    1    2  502  501 -0.78861761972E-02 -0.30604908523E-03  0.28294117878E-01  0.29374181649E-01  0.00000000000E+00 0.  1.
<mgrwt>
<rscale>  1 0.64769863E+03</rscale>
<asrwt>0</asrwt>
<pdfrwt beam="1">  1        1 0.38148178E+00 0.64769863E+03</pdfrwt>
<pdfrwt beam="2">0</pdfrwt>
<totfact> 0.16171286E+00</totfact>
</mgrwt>
</event>
<event>
 6    1  0.6022095E-003  0.6016422E+03  0.7818608E-02  0.9902005E-01
          1   -1    0    0  502    0  0.00000000000E+00  0.00000000000E+00  0.90493428032E+02  0.90493428032E+02  0.00000000000E+00 0.  1.
         13   -1    0    0    0    0 -0.00000000000E+00 -0.00000000000E+00 -0.10000000000E+04  0.10000000000E+04  0.00000000000E+00 0.  1.
    9000005    2    1    2  501    0 -0.18180352924E-04  0.45443530186E-04 -0.90950664603E+03  0.10904933393E+04  0.60164223902E+03 0.  0.
         13    1    3    3    0    0  0.25727676568E+03 -0.42624209583E+01 -0.17230214730E+03  0.30967326710E+03  0.00000000000E+00 0.  1.
          3    1    3    3  501    0 -0.25727678386E+03  0.42624664019E+01 -0.73720449873E+03  0.78082007216E+03  0.00000000000E+00 0.  1.
         21    1    1    2  502  501  0.18180352952E-04 -0.45443530186E-04  0.74066426626E-04  0.88777672995E-04  0.00000000000E+00 0. -1.
<mgrwt>
<rscale>  1 0.60164224E+03</rscale>
<asrwt>0</asrwt>
<pdfrwt beam="1">  1        1 0.32906770E+00 0.60164224E+03</pdfrwt>
<pdfrwt beam="2">0</pdfrwt>
<totfact> 0.27624164E+00</totfact>
</mgrwt>
</event>
<event>
 6    1  0.6022095E-003  0.6116972E+03  0.7818608E-02  0.9881431E-01
          1   -1    0    0  502    0  0.00000000000E+00  0.00000000000E+00  0.93543372354E+02  0.93543372354E+02  0.00000000000E+00 0.  1.
         13   -1    0    0    0    0 -0.00000000000E+00 -0.00000000000E+00 -0.10000000000E+04  0.10000000000E+04  0.00000000000E+00 0.  1.
    9000005    2    1    2  501    0 -0.16912759406E-05 -0.56059370763E-05 -0.90645663005E+03  0.10935433660E+04  0.61169720551E+03 0.  0.
         13    1    3    3    0    0  0.13988816888E+03 -0.19070940121E+03 -0.10655536320E+03  0.25940859841E+03  0.00000000000E+00 0.  1.
          1    1    3    3  501    0 -0.13988817057E+03  0.19070939561E+03 -0.79990126685E+03  0.83413476761E+03  0.00000000000E+00 0.  1.
         21    1    1    2  502  501  0.16912759504E-05  0.56059370793E-05  0.24001384496E-05  0.63283180589E-05  0.00000000000E+00 0. -1.
<mgrwt>
<rscale>  1 0.61169721E+03</rscale>
<asrwt>0</asrwt>
<pdfrwt beam="1">  1        1 0.34015843E+00 0.61169721E+03</pdfrwt>
<pdfrwt beam="2">0</pdfrwt>
<totfact> 0.24684117E+00</totfact>
</mgrwt>
</event>
<event>
 6    1  0.6022095E-003  0.6375557E+03  0.7818608E-02  0.9830414E-01
          1   -1    0    0  502    0  0.00000000000E+00  0.00000000000E+00  0.10255242083E+03  0.10255242083E+03  0.00000000000E+00 0.  1.
         13   -1    0    0    0    0 -0.00000000000E+00 -0.00000000000E+00 -0.10000000000E+04  0.10000000000E+04  0.00000000000E+00 0.  1.
    9000005    2    1    2  501    0  0.66681820870E+00  0.82181545174E+00 -0.89803854198E+03  0.11013402887E+04  0.63755477309E+03 0.  0.
         13    1    3    3    0    0 -0.54123508195E+02 -0.15395531140E+03 -0.92118468741E+03  0.93552809705E+03  0.00000000000E+00 0.  1.
          1    1    3    3  501    0  0.54790326403E+02  0.15477712686E+03  0.23146145428E+02  0.16581219169E+03  0.00000000000E+00 0.  1.
         21    1    1    2  502  501 -0.66681820870E+00 -0.82181545174E+00  0.59096281560E+00  0.12121320925E+01  0.00000000000E+00 0.  1.
<mgrwt>
<rscale>  1 0.63755565E+03</rscale>
<asrwt>0</asrwt>
<pdfrwt beam="1">  1        1 0.37291868E+00 0.63755565E+03</pdfrwt>
<pdfrwt beam="2">0</pdfrwt>
<totfact> 0.17671932E+00</totfact>
</mgrwt>
</event>
<event>
 6    1  0.6022095E-003  0.6706767E+03  0.7818608E-02  0.9768736E-01
          1   -1    0    0  502    0  0.00000000000E+00  0.00000000000E+00  0.11345087774E+03  0.11345087774E+03  0.00000000000E+00 0.  1.
         13   -1    0    0    0    0 -0.00000000000E+00 -0.00000000000E+00 -0.10000000000E+04  0.10000000000E+04  0.00000000000E+00 0.  1.
    9000005    2    1    2  501    0 -0.16220452928E+00  0.15642081369E+00 -0.88753402022E+03  0.11124405304E+04  0.67067670737E+03 0.  0.
         13    1    3    3    0    0  0.32603599284E+03 -0.77278965358E+02 -0.42582597395E+03  0.54184801116E+03  0.00000000000E+00 0.  1.
          3    1    3    3  501    0 -0.32619819736E+03  0.77435386172E+02 -0.46170804628E+03  0.57059251922E+03  0.00000000000E+00 0.  1.
         21    1    1    2  502  501  0.16220452928E+00 -0.15642081369E+00  0.98489796360E+00  0.10103473556E+01  0.00000000000E+00 0.  1.
<mgrwt>
<rscale>  1 0.67067675E+03</rscale>
<asrwt>0</asrwt>
<pdfrwt beam="1">  1        1 0.41254952E+00 0.67067675E+03</pdfrwt>
<pdfrwt beam="2">0</pdfrwt>
<totfact> 0.11709919E+00</totfact>
</mgrwt>
</event>
<event>
 6    1  0.6022095E-003  0.6460817E+03  0.7818608E-02  0.9814160E-01
          1   -1    0    0  502    0  0.00000000000E+00  0.00000000000E+00  0.10478158657E+03  0.10478158657E+03  0.00000000000E+00 0.  1.
         13   -1    0    0    0    0 -0.00000000000E+00 -0.00000000000E+00 -0.10000000000E+04  0.10000000000E+04  0.00000000000E+00 0.  1.
    9000005    2    1    2  501    0 -0.34256506196E+00 -0.51947550295E+00 -0.89537801642E+03  0.11041391858E+04  0.64608138973E+03 0.  0.
         13    1    3    3    0    0 -0.77938450207E+01  0.20876330665E+03 -0.26738670966E+02  0.21061295959E+03  0.00000000000E+00 0.  1.
          1    1    3    3  501    0  0.74512799587E+01 -0.20928278215E+03 -0.86863934545E+03  0.89352622622E+03  0.00000000000E+00 0.  1.
         21    1    1    2  502  501  0.34256506196E+00  0.51947550295E+00  0.15960298180E+00  0.64240075626E+00  0.00000000000E+00 0.  1.
<mgrwt>
<rscale>  1 0.64608169E+03</rscale>
<asrwt>0</asrwt>
<pdfrwt beam="1">  1        1 0.38102475E+00 0.64608169E+03</pdfrwt>
<pdfrwt beam="2">0</pdfrwt>
<totfact> 0.16251429E+00</totfact>
</mgrwt>
</event>
<event>
 6    1  0.6022095E-003  0.6462147E+03  0.7818608E-02  0.9813908E-01
          1   -1    0    0  502    0  0.00000000000E+00  0.00000000000E+00  0.10476727948E+03  0.10476727948E+03  0.00000000000E+00 0.  1.
         13   -1    0    0    0    0 -0.00000000000E+00 -0.00000000000E+00 -0.10000000000E+04  0.10000000000E+04  0.00000000000E+00 0.  1.
    9000005    2    1    2  501    0 -0.19456796444E+00 -0.18663330653E+00 -0.89554644542E+03  0.11043536226E+04  0.64621468199E+03 0.  0.
         13    1    3    3    0    0  0.10223951747E+03  0.27014784018E+03 -0.20058922424E+03  0.35166576655E+03  0.00000000000E+00 0.  1.
          1    1    3    3  501    0 -0.10243408543E+03 -0.27033447348E+03 -0.69495722118E+03  0.75268785607E+03  0.00000000000E+00 0.  1.
         21    1    1    2  502  501  0.19456796444E+00  0.18663330653E+00  0.31372489706E+00  0.41365685650E+00  0.00000000000E+00 0.  1.
<mgrwt>
<rscale>  1 0.64621474E+03</rscale>
<asrwt>0</asrwt>
<pdfrwt beam="1">  1        1 0.38097273E+00 0.64621474E+03</pdfrwt>
<pdfrwt beam="2">0</pdfrwt>
<totfact> 0.16259627E+00</totfact>
</mgrwt>
</event>
<event>
 6    1  0.6022095E-003  0.6495163E+03  0.7818608E-02  0.9807687E-01
          3   -1    0    0  502    0  0.00000000000E+00  0.00000000000E+00  0.10547294764E+03  0.10547294764E+03  0.00000000000E+00 0.  1.
         13   -1    0    0    0    0 -0.00000000000E+00 -0.00000000000E+00 -0.10000000000E+04  0.10000000000E+04  0.00000000000E+00 0.  1.
    9000005    2    1    2  501    0 -0.11920803005E-01  0.44722323915E-02 -0.89452105669E+03  0.11054588745E+04  0.64951628317E+03 0.  0.
         13    1    3    3    0    0  0.85274009293E+01  0.42291773691E+02 -0.99509134968E+03  0.99602615673E+03  0.00000000000E+00 0.  1.
          3    1    3    3  501    0 -0.85393217323E+01 -0.42287301459E+02  0.10057029298E+03  0.10943271774E+03  0.00000000000E+00 0.  1.
         21    1    1    2  502  501  0.11920803005E-01 -0.44722323915E-02 -0.59956610919E-02  0.14073178702E-01  0.00000000000E+00 0.  1.
<mgrwt>
<rscale>  1 0.64951628E+03</rscale>
<asrwt>0</asrwt>
<pdfrwt beam="1">  1        3 0.38353880E+00 0.64951628E+03</pdfrwt>
<pdfrwt beam="2">0</pdfrwt>
<totfact> 0.72307169E-02</totfact>
</mgrwt>
</event>
<event>
 6    1  0.6022095E-003  0.6449699E+03  0.7818608E-02  0.9816264E-01
          1   -1    0    0  502    0  0.00000000000E+00  0.00000000000E+00  0.10399658749E+03  0.10399658749E+03  0.00000000000E+00 0.  1.
         13   -1    0    0    0    0 -0.00000000000E+00 -0.00000000000E+00 -0.10000000000E+04  0.10000000000E+04  0.00000000000E+00 0.  1.
    9000005    2    1    2  501    0 -0.86513330757E-05  0.93760478990E-05 -0.89600344669E+03  0.11039965510E+04  0.64496992810E+03 0.  0.
         13    1    3    3    0    0  0.23315860404E+03 -0.86783123948E+02 -0.96780145713E+02  0.26694688956E+03  0.00000000000E+00 0.  1.
          3    1    3    3  501    0 -0.23315861269E+03  0.86783133324E+02 -0.79922330098E+03  0.83704966145E+03  0.00000000000E+00 0.  1.
         21    1    1    2  502  501  0.86513330702E-05 -0.93760479050E-05  0.34176929218E-04  0.36480382797E-04  0.00000000000E+00 0. -1.
<mgrwt>
<rscale>  1 0.64496993E+03</rscale>
<asrwt>0</asrwt>
<pdfrwt beam="1">  1        1 0.37817021E+00 0.64496993E+03</pdfrwt>
<pdfrwt beam="2">0</pdfrwt>
<totfact> 0.16732953E+00</totfact>
</mgrwt>
</event>
<event>
 6    1  0.6022095E-003  0.6460215E+03  0.7818608E-02  0.9814273E-01
          1   -1    0    0  502    0  0.00000000000E+00  0.00000000000E+00  0.10433594975E+03  0.10433594975E+03  0.00000000000E+00 0.  1.
         13   -1    0    0    0    0 -0.00000000000E+00 -0.00000000000E+00 -0.10000000000E+04  0.10000000000E+04  0.00000000000E+00 0.  1.
    9000005    2    1    2  501    0 -0.18656879490E-05 -0.94769013117E-05 -0.89566406151E+03  0.11043359349E+04  0.64602147492E+03 0.  0.
         13    1    3    3    0    0  0.19487207988E+03  0.25611603845E+03 -0.40053943427E+03  0.51381162996E+03  0.00000000000E+00 0.  1.
          3    1    3    3  501    0 -0.19487208174E+03 -0.25611604793E+03 -0.49512462724E+03  0.59052430496E+03  0.00000000000E+00 0.  1.
         21    1    1    2  502  501  0.18656879613E-05  0.94769013090E-05  0.11266571220E-04  0.14840083458E-04  0.00000000000E+00 0.  1.
<mgrwt>
<rscale>  1 0.64602147E+03</rscale>
<asrwt>0</asrwt>
<pdfrwt beam="1">  1        1 0.37940425E+00 0.64602147E+03</pdfrwt>
<pdfrwt beam="2">0</pdfrwt>
<totfact> 0.16521407E+00</totfact>
</mgrwt>
</event>
<event>
 6    1  0.6022095E-003  0.6393834E+03  0.7818608E-02  0.9826907E-01
          1   -1    0    0  502    0  0.00000000000E+00  0.00000000000E+00  0.11012504660E+03  0.11012504660E+03  0.00000000000E+00 0.  1.
         13   -1    0    0    0    0 -0.00000000000E+00 -0.00000000000E+00 -0.10000000000E+04  0.10000000000E+04  0.00000000000E+00 0.  1.
    9000005    2    1    2  501    0 -0.13379075844E+02  0.26706681558E+00 -0.89102553033E+03  0.10966939326E+04  0.63924331453E+03 0.  0.
         13    1    3    3    0    0 -0.11689098468E+03  0.22277721163E+03 -0.79382406140E+03  0.83273635010E+03  0.00000000000E+00 0.  1.
          3    1    3    3  501    0  0.10351190883E+03 -0.22251014481E+03 -0.97201468934E+02  0.26395758253E+03  0.00000000000E+00 0.  1.
         21    1    1    2  502  501  0.13379075844E+02 -0.26706681558E+00  0.11505769341E+01  0.13431113967E+02  0.00000000000E+00 0.  1.
<mgrwt>
<rscale>  1 0.63938336E+03</rscale>
<asrwt>0</asrwt>
<pdfrwt beam="1">  1        1 0.40045556E+00 0.63938336E+03</pdfrwt>
<pdfrwt beam="2">0</pdfrwt>
<totfact> 0.13343467E+00</totfact>
</mgrwt>
</event>
<event>
 6    1  0.6022095E-003  0.6589639E+03  0.7818608E-02  0.9790103E-01
          1   -1    0    0  502    0  0.00000000000E+00  0.00000000000E+00  0.10855863444E+03  0.10855863444E+03  0.00000000000E+00 0.  1.
         13   -1    0    0    0    0 -0.00000000000E+00 -0.00000000000E+00 -0.10000000000E+04  0.10000000000E+04  0.00000000000E+00 0.  1.
    9000005    2    1    2  501    0 -0.29430826487E-04  0.12859604522E-03 -0.89144162391E+03  0.11085583444E+04  0.65896390948E+03 0.  0.
         13    1    3    3    0    0  0.10049696777E+03 -0.23582112910E+03 -0.79394381340E+03  0.83430091952E+03  0.00000000000E+00 0.  1.
          3    1    3    3  501    0 -0.10049699720E+03  0.23582125769E+03 -0.97497810507E+02  0.27425742484E+03  0.00000000000E+00 0.  1.
         21    1    1    2  502  501  0.29430826480E-04 -0.12859604522E-03  0.25835450203E-03  0.29008647868E-03  0.00000000000E+00 0. -1.
<mgrwt>
<rscale>  1 0.65896391E+03</rscale>
<asrwt>0</asrwt>
<pdfrwt beam="1">  1        1 0.39475950E+00 0.65896391E+03</pdfrwt>
<pdfrwt beam="2">0</pdfrwt>
<totfact> 0.14093256E+00</totfact>
</mgrwt>
</event>
<event>
 6    1  0.6022095E-003  0.6337460E+03  0.7818608E-02  0.9837766E-01
          1   -1    0    0  502    0  0.00000000000E+00  0.00000000000E+00  0.10040927372E+03  0.10040927372E+03  0.00000000000E+00 0.  1.
         13   -1    0    0    0    0 -0.00000000000E+00 -0.00000000000E+00 -0.10000000000E+04  0.10000000000E+04  0.00000000000E+00 0.  1.
    9000005    2    1    2  501    0  0.38219712962E-04 -0.49303219214E-04 -0.89959149611E+03  0.11004085014E+04  0.63374601379E+03 0.  0.
         13    1    3    3    0    0  0.20110095078E+03 -0.19672302111E+03 -0.70301205990E+03  0.75721033789E+03  0.00000000000E+00 0.  1.
          3    1    3    3  501    0 -0.20110091256E+03  0.19672297181E+03 -0.19657943621E+03  0.34319816347E+03  0.00000000000E+00 0.  1.
         21    1    1    2  502  501 -0.38219712979E-04  0.49303219200E-04  0.76983430823E-03  0.77235769953E-03  0.00000000000E+00 0.  1.
<mgrwt>
<rscale>  1 0.63374601E+03</rscale>
<asrwt>0</asrwt>
<pdfrwt beam="1">  1        1 0.36512540E+00 0.63374601E+03</pdfrwt>
<pdfrwt beam="2">0</pdfrwt>
<totfact> 0.19133587E+00</totfact>
</mgrwt>
</event>
<event>
 6    1  0.6022095E-003  0.6460580E+03  0.7818608E-02  0.9814204E-01
          1   -1    0    0  502    0  0.00000000000E+00  0.00000000000E+00  0.10440275405E+03  0.10440275405E+03  0.00000000000E+00 0.  1.
         13   -1    0    0    0    0 -0.00000000000E+00 -0.00000000000E+00 -0.10000000000E+04  0.10000000000E+04  0.00000000000E+00 0.  1.
    9000005    2    1    2  501    0 -0.86291573586E-01  0.34944501897E-01 -0.89560495264E+03  0.11043093370E+04  0.64605794779E+03 0.  0.
         13    1    3    3    0    0  0.67114345135E+02 -0.27354209009E+03 -0.17748996819E+03  0.33291485275E+03  0.00000000000E+00 0.  1.
          1    1    3    3  501    0 -0.67200636708E+02  0.27357703459E+03 -0.71811498445E+03  0.77139448425E+03  0.00000000000E+00 0.  1.
         21    1    1    2  502  501  0.86291573586E-01 -0.34944501897E-01  0.77066932395E-02  0.93417059499E-01  0.00000000000E+00 0.  1.
<mgrwt>
<rscale>  1 0.64605795E+03</rscale>
<asrwt>0</asrwt>
<pdfrwt beam="1">  1        1 0.37964718E+00 0.64605795E+03</pdfrwt>
<pdfrwt beam="2">0</pdfrwt>
<totfact> 0.16480581E+00</totfact>
</mgrwt>
</event>
<event>
 6    1  0.6022095E-003  0.6492938E+03  0.7818608E-02  0.9808105E-01
          1   -1    0    0  502    0  0.00000000000E+00  0.00000000000E+00  0.10539563270E+03  0.10539563270E+03  0.00000000000E+00 0.  1.
         13   -1    0    0    0    0 -0.00000000000E+00 -0.00000000000E+00 -0.10000000000E+04  0.10000000000E+04  0.00000000000E+00 0.  1.
    9000005    2    1    2  501    0 -0.38933933624E-05 -0.45597983913E-05 -0.89460437471E+03  0.11053956232E+04  0.64929384448E+03 0.  0.
         13    1    3    3    0    0  0.35761697529E+02 -0.61621136599E+02  0.91921877312E+02  0.11630002156E+03  0.00000000000E+00 0.  1.
          1    1    3    3  501    0 -0.35761701422E+02  0.61621132039E+02 -0.98652625202E+03  0.98909560161E+03  0.00000000000E+00 0.  1.
         21    1    1    2  502  501  0.38933933572E-05  0.45597983883E-05  0.74094522665E-05  0.95315400678E-05  0.00000000000E+00 0.  1.
<mgrwt>
<rscale>  1 0.64929384E+03</rscale>
<asrwt>0</asrwt>
<pdfrwt beam="1">  1        1 0.38325765E+00 0.64929384E+03</pdfrwt>
<pdfrwt beam="2">0</pdfrwt>
<totfact> 0.15877138E+00</totfact>
</mgrwt>
</event>
<event>
 6    1  0.6022095E-003  0.6135168E+03  0.7818608E-02  0.9877753E-01
          1   -1    0    0  502    0  0.00000000000E+00  0.00000000000E+00  0.10727644248E+03  0.10727644248E+03  0.00000000000E+00 0.  1.
         13   -1    0    0    0    0 -0.00000000000E+00 -0.00000000000E+00 -0.10000000000E+04  0.10000000000E+04  0.00000000000E+00 0.  1.
    9000005    2    1    2  501    0  0.51329835837E+01  0.46383189554E+01 -0.90489908902E+03  0.10932726898E+04  0.61347775129E+03 0.  0.
         13    1    3    3    0    0 -0.14447963447E+03  0.10834773138E+03 -0.10893045810E+02  0.18092057406E+03  0.00000000000E+00 0.  1.
          3    1    3    3  501    0  0.14961261806E+03 -0.10370941243E+03 -0.89400604321E+03  0.91235211569E+03  0.00000000000E+00 0.  1.
         21    1    1    2  502  501 -0.51329835837E+01 -0.46383189554E+01  0.12175531500E+02  0.14003752729E+02  0.00000000000E+00 0.  1.
<mgrwt>
<rscale>  1 0.61351676E+03</rscale>
<asrwt>0</asrwt>
<pdfrwt beam="1">  1        1 0.39009698E+00 0.61351676E+03</pdfrwt>
<pdfrwt beam="2">0</pdfrwt>
<totfact> 0.14909820E+00</totfact>
</mgrwt>
</event>
<event>
 6    1  0.6022095E-003  0.6495152E+03  0.7818608E-02  0.9807689E-01
          1   -1    0    0  502    0  0.00000000000E+00  0.00000000000E+00  0.10546823700E+03  0.10546823700E+03  0.00000000000E+00 0.  1.
         13   -1    0    0    0    0 -0.00000000000E+00 -0.00000000000E+00 -0.10000000000E+04  0.10000000000E+04  0.00000000000E+00 0.  1.
    9000005    2    1    2  501    0 -0.14668109981E-03  0.24259244822E-03 -0.89453248467E+03  0.11054674616E+04  0.64951515965E+03 0.  0.
         13    1    3    3    0    0 -0.29270103073E+03 -0.13161294367E+03 -0.53188157710E+03  0.62120356759E+03  0.00000000000E+00 0.  1.
          1    1    3    3  501    0  0.29270088405E+03  0.13161318626E+03 -0.36265090757E+03  0.48426389405E+03  0.00000000000E+00 0.  1.
         21    1    1    2  502  501  0.14668109981E-03 -0.24259244822E-03  0.72166915790E-03  0.77535334812E-03  0.00000000000E+00 0.  1.
<mgrwt>
<rscale>  1 0.64951516E+03</rscale>
<asrwt>0</asrwt>
<pdfrwt beam="1">  1        1 0.38352167E+00 0.64951516E+03</pdfrwt>
<pdfrwt beam="2">0</pdfrwt>
<totfact> 0.15833890E+00</totfact>
</mgrwt>
</event>
<event>
 6    1  0.6022095E-003  0.6448958E+03  0.7818608E-02  0.9816404E-01
          1   -1    0    0  502    0  0.00000000000E+00  0.00000000000E+00  0.10420189088E+03  0.10420189088E+03  0.00000000000E+00 0.  1.
         13   -1    0    0    0    0 -0.00000000000E+00 -0.00000000000E+00 -0.10000000000E+04  0.10000000000E+04  0.00000000000E+00 0.  1.
    9000005    2    1    2  501    0 -0.16071317665E-01 -0.56941294095E-01 -0.89602313347E+03  0.11039692182E+04  0.64489578663E+03 0.  0.
         13    1    3    3    0    0 -0.25212332332E+03  0.19816909606E+03 -0.39049567611E+03  0.50529598639E+03  0.00000000000E+00 0.  1.
          1    1    3    3  501    0  0.25210725200E+03 -0.19822603736E+03 -0.50552745735E+03  0.59867323185E+03  0.00000000000E+00 0.  1.
         21    1    1    2  502  501  0.16071317665E-01  0.56941294095E-01  0.22502435158E+00  0.23267263919E+00  0.00000000000E+00 0.  1.
<mgrwt>
<rscale>  1 0.64489579E+03</rscale>
<asrwt>0</asrwt>
<pdfrwt beam="1">  1        1 0.37891677E+00 0.64489579E+03</pdfrwt>
<pdfrwt beam="2">0</pdfrwt>
<totfact> 0.16606835E+00</totfact>
</mgrwt>
</event>
<event>
 6    1  0.6022095E-003  0.6498740E+03  0.7818608E-02  0.9807016E-01
          1   -1    0    0  502    0  0.00000000000E+00  0.00000000000E+00  0.10558524015E+03  0.10558524015E+03  0.00000000000E+00 0.  1.
         13   -1    0    0    0    0 -0.00000000000E+00 -0.00000000000E+00 -0.10000000000E+04  0.10000000000E+04  0.00000000000E+00 0.  1.
    9000005    2    1    2  501    0  0.23116799457E-03  0.25075909376E-03 -0.89441593529E+03  0.11055840162E+04  0.64987395060E+03 0.  0.
         13    1    3    3    0    0  0.16163397249E+03 -0.97759860314E+02 -0.89699399138E+03  0.91666828893E+03  0.00000000000E+00 0.  1.
          1    1    3    3  501    0 -0.16163374132E+03  0.97760111073E+02  0.25780560937E+01  0.18891572731E+03  0.00000000000E+00 0.  1.
         21    1    1    2  502  501 -0.23116799458E-03 -0.25075909377E-03  0.11754348328E-02  0.12239141355E-02  0.00000000000E+00 0. -1.
<mgrwt>
<rscale>  1 0.64987395E+03</rscale>
<asrwt>0</asrwt>
<pdfrwt beam="1">  1        1 0.38394714E+00 0.64987395E+03</pdfrwt>
<pdfrwt beam="2">0</pdfrwt>
<totfact> 0.15764425E+00</totfact>
</mgrwt>
</event>
<event>
 6    1  0.6022095E-003  0.6651244E+03  0.7818608E-02  0.9778806E-01
          1   -1    0    0  502    0  0.00000000000E+00  0.00000000000E+00  0.11079084928E+03  0.11079084928E+03  0.00000000000E+00 0.  1.
         13   -1    0    0    0    0 -0.00000000000E+00 -0.00000000000E+00 -0.10000000000E+04  0.10000000000E+04  0.00000000000E+00 0.  1.
    9000005    2    1    2  501    0 -0.64791046959E-01 -0.11215465880E+00 -0.88937796542E+03  0.11105780702E+04  0.66512440024E+03 0.  0.
         13    1    3    3    0    0 -0.92379718906E+02  0.81888369328E+02  0.70922617917E+02  0.14237182035E+03  0.00000000000E+00 0.  1.
          1    1    3    3  501    0  0.92314927859E+02 -0.82000523987E+02 -0.96030058334E+03  0.96820624982E+03  0.00000000000E+00 0.  1.
         21    1    1    2  502  501  0.64791046959E-01  0.11215465880E+00  0.16881469542E+00  0.21277910763E+00  0.00000000000E+00 0. -1.
<mgrwt>
<rscale>  1 0.66512441E+03</rscale>
<asrwt>0</asrwt>
<pdfrwt beam="1">  1        1 0.40287667E+00 0.66512441E+03</pdfrwt>
<pdfrwt beam="2">0</pdfrwt>
<totfact> 0.12952043E+00</totfact>
</mgrwt>
</event>
<event>
 6    1  0.6022095E-003  0.6438644E+03  0.7818608E-02  0.9818361E-01
          1   -1    0    0  502    0  0.00000000000E+00  0.00000000000E+00  0.10455704176E+03  0.10455704176E+03  0.00000000000E+00 0.  1.
         13   -1    0    0    0    0 -0.00000000000E+00 -0.00000000000E+00 -0.10000000000E+04  0.10000000000E+04  0.00000000000E+00 0.  1.
    9000005    2    1    2  501    0  0.12848354471E+00  0.40192026706E-01 -0.89635420058E+03  0.11036359087E+04  0.64386438639E+03 0.  0.
         13    1    3    3    0    0 -0.17171385555E+03 -0.67104371657E+01  0.18426757060E+02  0.17283004233E+03  0.00000000000E+00 0.  1.
          1    1    3    3  501    0  0.17184233910E+03  0.67506291924E+01 -0.91478095764E+03  0.93080586642E+03  0.00000000000E+00 0.  1.
         21    1    1    2  502  501 -0.12848354471E+00 -0.40192026706E-01  0.91124233997E+00  0.92113301017E+00  0.00000000000E+00 0.  1.
<mgrwt>
<rscale>  1 0.64386440E+03</rscale>
<asrwt>0</asrwt>
<pdfrwt beam="1">  1        1 0.38020823E+00 0.64386440E+03</pdfrwt>
<pdfrwt beam="2">0</pdfrwt>
<totfact> 0.16393537E+00</totfact>
</mgrwt>
</event>
<event>
 6    1  0.6022095E-003  0.6629706E+03  0.7818608E-02  0.9782741E-01
          1   -1    0    0  502    0  0.00000000000E+00  0.00000000000E+00  0.14702607123E+03  0.14702607123E+03  0.00000000000E+00 0.  1.
         13   -1    0    0    0    0 -0.00000000000E+00 -0.00000000000E+00 -0.10000000000E+04  0.10000000000E+04  0.00000000000E+00 0.  1.
    9000005    2    1    2  501    0  0.53639617309E+00  0.17272467720E+01 -0.89009306526E+03  0.11098628987E+04  0.66296811226E+03 0.  0.
         13    1    3    3    0    0  0.23014694526E+03  0.23808966168E+03 -0.49233458176E+03  0.59333602942E+03  0.00000000000E+00 0.  1.
          3    1    3    3  501    0 -0.22961054909E+03 -0.23636241491E+03 -0.39775848350E+03  0.51652686923E+03  0.00000000000E+00 0.  1.
         21    1    1    2  502  501 -0.53639617309E+00 -0.17272467720E+01  0.37119136493E+02  0.37163172580E+02  0.00000000000E+00 0. -1.
<mgrwt>
<rscale>  1 0.66297058E+03</rscale>
<asrwt>0</asrwt>
<pdfrwt beam="1">  1        1 0.53464139E+00 0.66297058E+03</pdfrwt>
<pdfrwt beam="2">0</pdfrwt>
<totfact> 0.31190086E-01</totfact>
</mgrwt>
</event>
<event>
 6    1  0.6022095E-003  0.6552138E+03  0.7818608E-02  0.9797045E-01
          1   -1    0    0  502    0  0.00000000000E+00  0.00000000000E+00  0.10782098657E+03  0.10782098657E+03  0.00000000000E+00 0.  1.
         13   -1    0    0    0    0 -0.00000000000E+00 -0.00000000000E+00 -0.10000000000E+04  0.10000000000E+04  0.00000000000E+00 0.  1.
    9000005    2    1    2  501    0 -0.65105865050E-02 -0.17638335088E-01 -0.89267351352E+03  0.11073261292E+04  0.65521382333E+03 0.  0.
         13    1    3    3    0    0  0.16414869561E+03  0.28302761862E+03 -0.47413519656E+03  0.57606736740E+03  0.00000000000E+00 0.  1.
          3    1    3    3  501    0 -0.16415520619E+03 -0.28304525696E+03 -0.41853831696E+03  0.53125876178E+03  0.00000000000E+00 0.  1.
         21    1    1    2  502  501  0.65105865050E-02  0.17638335088E-01  0.49450008692E+00  0.49485738811E+00  0.00000000000E+00 0. -1.
<mgrwt>
<rscale>  1 0.65521382E+03</rscale>
<asrwt>0</asrwt>
<pdfrwt beam="1">  1        1 0.39207714E+00 0.65521382E+03</pdfrwt>
<pdfrwt beam="2">0</pdfrwt>
<totfact> 0.14495454E+00</totfact>
</mgrwt>
</event>
<event>
 6    1  0.6022095E-003  0.6513837E+03  0.7818608E-02  0.9804186E-01
          1   -1    0    0  502    0  0.00000000000E+00  0.00000000000E+00  0.10607521886E+03  0.10607521886E+03  0.00000000000E+00 0.  1.
         13   -1    0    0    0    0 -0.00000000000E+00 -0.00000000000E+00 -0.10000000000E+04  0.10000000000E+04  0.00000000000E+00 0.  1.
    9000005    2    1    2  501    0 -0.21568642950E-04 -0.58517235345E-04 -0.89392473051E+03  0.11060751385E+04  0.65138374883E+03 0.  0.
         13    1    3    3    0    0  0.24186442898E+03  0.13924608489E+03 -0.16187723429E+03  0.32263309369E+03  0.00000000000E+00 0.  1.
          3    1    3    3  501    0 -0.24186445055E+03 -0.13924614341E+03 -0.73204749623E+03  0.78344204484E+03  0.00000000000E+00 0.  1.
         21    1    1    2  502  501  0.21568642932E-04  0.58517235325E-04 -0.50628838794E-04  0.80329026545E-04  0.00000000000E+00 0.  1.
<mgrwt>
<rscale>  1 0.65138375E+03</rscale>
<asrwt>0</asrwt>
<pdfrwt beam="1">  1        1 0.38572888E+00 0.65138375E+03</pdfrwt>
<pdfrwt beam="2">0</pdfrwt>
<totfact> 0.15476638E+00</totfact>
</mgrwt>
</event>
<event>
 6    1  0.6022095E-003  0.6638167E+03  0.7818608E-02  0.9781193E-01
          3   -1    0    0  502    0  0.00000000000E+00  0.00000000000E+00  0.11143100965E+03  0.11143100965E+03  0.00000000000E+00 0.  1.
         13   -1    0    0    0    0 -0.00000000000E+00 -0.00000000000E+00 -0.10000000000E+04  0.10000000000E+04  0.00000000000E+00 0.  1.
    9000005    2    1    2  501    0  0.50321183189E+00 -0.11309528455E+00 -0.88977833553E+03  0.11101162745E+04  0.66381653382E+03 0.  0.
         13    1    3    3    0    0 -0.92969741925E+02 -0.23435968307E+03 -0.80575580382E+03  0.84428090666E+03  0.00000000000E+00 0.  1.
          3    1    3    3  501    0  0.93472953757E+02  0.23424658778E+03 -0.84022531714E+02  0.26583536787E+03  0.00000000000E+00 0.  1.
         21    1    1    2  502  501 -0.50321183189E+00  0.11309528455E+00  0.12093451778E+01  0.13147351255E+01  0.00000000000E+00 0.  1.
<mgrwt>
<rscale>  1 0.66381673E+03</rscale>
<asrwt>0</asrwt>
<pdfrwt beam="1">  1        3 0.40520453E+00 0.66381673E+03</pdfrwt>
<pdfrwt beam="2">0</pdfrwt>
<totfact> 0.55506763E-02</totfact>
</mgrwt>
</event>
<event>
 6    1  0.6022095E-003  0.6494990E+03  0.7818608E-02  0.9807720E-01
          1   -1    0    0  502    0  0.00000000000E+00  0.00000000000E+00  0.10546440437E+03  0.10546440437E+03  0.00000000000E+00 0.  1.
         13   -1    0    0    0    0 -0.00000000000E+00 -0.00000000000E+00 -0.10000000000E+04  0.10000000000E+04  0.00000000000E+00 0.  1.
    9000005    2    1    2  501    0 -0.13478179602E-02  0.57745329796E-02 -0.89453171047E+03  0.11054573152E+04  0.64949895664E+03 0.  0.
         13    1    3    3    0    0  0.79184367727E+02  0.18897496464E+03 -0.87609989156E+03  0.89974036329E+03  0.00000000000E+00 0.  1.
          1    1    3    3  501    0 -0.79185715545E+02 -0.18896919011E+03 -0.18431818909E+02  0.20571695191E+03  0.00000000000E+00 0.  1.
         21    1    1    2  502  501  0.13478179602E-02 -0.57745329796E-02 -0.38851591679E-02  0.70891682267E-02  0.00000000000E+00 0.  1.
<mgrwt>
<rscale>  1 0.64949896E+03</rscale>
<asrwt>0</asrwt>
<pdfrwt beam="1">  1        1 0.38350773E+00 0.64949896E+03</pdfrwt>
<pdfrwt beam="2">0</pdfrwt>
<totfact> 0.15836183E+00</totfact>
</mgrwt>
</event>
<event>
 6    1  0.6022095E-003  0.6516808E+03  0.7818608E-02  0.9803630E-01
          1   -1    0    0  502    0  0.00000000000E+00  0.00000000000E+00  0.11001854844E+03  0.11001854844E+03  0.00000000000E+00 0.  1.
         13   -1    0    0    0    0 -0.00000000000E+00 -0.00000000000E+00 -0.10000000000E+04  0.10000000000E+04  0.00000000000E+00 0.  1.
    9000005    2    1    2  501    0 -0.62215466723E-01 -0.11680150865E+00 -0.89382676651E+03  0.11061709569E+04  0.65168081139E+03 0.  0.
         13    1    3    3    0    0  0.13173969211E+03 -0.11166690473E+02 -0.95238874903E+03  0.96152190341E+03  0.00000000000E+00 0.  1.
          3    1    3    3  501    0 -0.13180190758E+03  0.11049888964E+02  0.58561982527E+02  0.14464905352E+03  0.00000000000E+00 0.  1.
         21    1    1    2  502  501  0.62215466723E-01  0.11680150865E+00  0.38453149498E+01  0.38475915090E+01  0.00000000000E+00 0.  1.
<mgrwt>
<rscale>  1 0.65168082E+03</rscale>
<asrwt>0</asrwt>
<pdfrwt beam="1">  1        1 0.40006829E+00 0.65168082E+03</pdfrwt>
<pdfrwt beam="2">0</pdfrwt>
<totfact> 0.13365084E+00</totfact>
</mgrwt>
</event>
<event>
 6    1  0.6022095E-003  0.6589305E+03  0.7818608E-02  0.9790164E-01
          1   -1    0    0  502    0  0.00000000000E+00  0.00000000000E+00  0.10866573230E+03  0.10866573230E+03  0.00000000000E+00 0.  1.
         13   -1    0    0    0    0 -0.00000000000E+00 -0.00000000000E+00 -0.10000000000E+04  0.10000000000E+04  0.00000000000E+00 0.  1.
    9000005    2    1    2  501    0  0.91480927437E-02 -0.18171617431E-01 -0.89145167011E+03  0.11085465802E+04  0.65893052738E+03 0.  0.
         13    1    3    3    0    0 -0.31910465752E+03  0.16378544282E+02 -0.31062701216E+03  0.44562897106E+03  0.00000000000E+00 0.  1.
          3    1    3    3  501    0  0.31911380561E+03 -0.16396715899E+02 -0.58082465796E+03  0.66291760915E+03  0.00000000000E+00 0.  1.
         21    1    1    2  502  501 -0.91480927437E-02  0.18171617431E-01  0.11740241004E+00  0.11915209257E+00  0.00000000000E+00 0. -1.
<mgrwt>
<rscale>  1 0.65893053E+03</rscale>
<asrwt>0</asrwt>
<pdfrwt beam="1">  1        1 0.39514895E+00 0.65893053E+03</pdfrwt>
<pdfrwt beam="2">0</pdfrwt>
<totfact> 0.14037258E+00</totfact>
</mgrwt>
</event>
<event>
 6    1  0.6022095E-003  0.6359399E+03  0.7818608E-02  0.9833526E-01
          1   -1    0    0  502    0  0.00000000000E+00  0.00000000000E+00  0.10245783892E+03  0.10245783892E+03  0.00000000000E+00 0.  1.
         13   -1    0    0    0    0 -0.00000000000E+00 -0.00000000000E+00 -0.10000000000E+04  0.10000000000E+04  0.00000000000E+00 0.  1.
    9000005    2    1    2  501    0  0.33369161144E-02  0.41360742276E-01 -0.89889476932E+03  0.11011045943E+04  0.63593987110E+03 0.  0.
         13    1    3    3    0    0 -0.18930535872E+03  0.70703171721E+02 -0.24373827977E+02  0.20354247916E+03  0.00000000000E+00 0.  1.
          3    1    3    3  501    0  0.18930869563E+03 -0.70661810979E+02 -0.87452094134E+03  0.89756211519E+03  0.00000000000E+00 0.  1.
         21    1    1    2  502  501 -0.33369161144E-02 -0.41360742276E-01  0.13526082423E+01  0.13532445836E+01  0.00000000000E+00 0.  1.
<mgrwt>
<rscale>  1 0.63593987E+03</rscale>
<asrwt>0</asrwt>
<pdfrwt beam="1">  1        1 0.37257475E+00 0.63593987E+03</pdfrwt>
<pdfrwt beam="2">0</pdfrwt>
<totfact> 0.17738829E+00</totfact>
</mgrwt>
</event>
<event>
 6    1  0.6022095E-003  0.6383229E+03  0.7818608E-02  0.9828941E-01
          1   -1    0    0  502    0  0.00000000000E+00  0.00000000000E+00  0.10186567281E+03  0.10186567281E+03  0.00000000000E+00 0.  1.
         13   -1    0    0    0    0 -0.00000000000E+00 -0.00000000000E+00 -0.10000000000E+04  0.10000000000E+04  0.00000000000E+00 0.  1.
    9000005    2    1    2  501    0 -0.18041425477E-03 -0.26392766560E-03 -0.89813595739E+03  0.11018640116E+04  0.63832288226E+03 0.  0.
         13    1    3    3    0    0  0.30851107320E+03  0.19826947255E+02 -0.31214555272E+03  0.43932566076E+03  0.00000000000E+00 0.  1.
          1    1    3    3  501    0 -0.30851125361E+03 -0.19827211182E+02 -0.58599040467E+03  0.66253835080E+03  0.00000000000E+00 0.  1.
         21    1    1    2  502  501  0.18041425474E-03  0.26392766560E-03  0.16301945887E-02  0.16612469753E-02  0.00000000000E+00 0. -1.
<mgrwt>
<rscale>  1 0.63832288E+03</rscale>
<asrwt>0</asrwt>
<pdfrwt beam="1">  1        1 0.37042141E+00 0.63832288E+03</pdfrwt>
<pdfrwt beam="2">0</pdfrwt>
<totfact> 0.18121677E+00</totfact>
</mgrwt>
</event>
<event>
 6    1  0.6022095E-003  0.6473300E+03  0.7818608E-02  0.9811802E-01
          1   -1    0    0  502    0  0.00000000000E+00  0.00000000000E+00  0.10475925993E+03  0.10475925993E+03  0.00000000000E+00 0.  1.
         13   -1    0    0    0    0 -0.00000000000E+00 -0.00000000000E+00 -0.10000000000E+04  0.10000000000E+04  0.00000000000E+00 0.  1.
    9000005    2    1    2  501    0  0.17192735588E-03  0.13110311500E-04 -0.89524094611E+03  0.11047589913E+04  0.64732996005E+03 0.  0.
         13    1    3    3    0    0  0.57408844004E+02  0.29282918480E+03 -0.23368162200E+03  0.37901425739E+03  0.00000000000E+00 0.  1.
          1    1    3    3  501    0 -0.57408672077E+02 -0.29282917169E+03 -0.66155932411E+03  0.72574473387E+03  0.00000000000E+00 0.  1.
         21    1    1    2  502  501 -0.17192735587E-03 -0.13110311485E-04  0.20604358555E-03  0.26867239365E-03  0.00000000000E+00 0.  1.
<mgrwt>
<rscale>  1 0.64732996E+03</rscale>
<asrwt>0</asrwt>
<pdfrwt beam="1">  1        1 0.38094357E+00 0.64732996E+03</pdfrwt>
<pdfrwt beam="2">0</pdfrwt>
<totfact> 0.16261109E+00</totfact>
</mgrwt>
</event>
<event>
 6    1  0.6022095E-003  0.6508773E+03  0.7818608E-02  0.9805134E-01
          1   -1    0    0  502    0  0.00000000000E+00  0.00000000000E+00  0.10611441064E+03  0.10611441064E+03  0.00000000000E+00 0.  1.
         13   -1    0    0    0    0 -0.00000000000E+00 -0.00000000000E+00 -0.10000000000E+04  0.10000000000E+04  0.00000000000E+00 0.  1.
    9000005    2    1    2  501    0  0.44230578715E-03  0.30296550698E-02 -0.89408965705E+03  0.11059103200E+04  0.65087734711E+03 0.  0.
         13    1    3    3    0    0 -0.21615866156E+03  0.21465994620E+03 -0.25251919455E+03  0.39568851776E+03  0.00000000000E+00 0.  1.
          1    1    3    3  501    0  0.21615910386E+03 -0.21465691654E+03 -0.64157046250E+03  0.71022180222E+03  0.00000000000E+00 0.  1.
         21    1    1    2  502  501 -0.44230578716E-03 -0.30296550698E-02  0.20406768664E+00  0.20409065431E+00  0.00000000000E+00 0.  1.
<mgrwt>
<rscale>  1 0.65087735E+03</rscale>
<asrwt>0</asrwt>
<pdfrwt beam="1">  1        1 0.38587140E+00 0.65087735E+03</pdfrwt>
<pdfrwt beam="2">0</pdfrwt>
<totfact> 0.15455627E+00</totfact>
</mgrwt>
</event>
<event>
 6    1  0.6022095E-003  0.6541631E+03  0.7818608E-02  0.9798999E-01
          1   -1    0    0  502    0  0.00000000000E+00  0.00000000000E+00  0.10703336602E+03  0.10703336602E+03  0.00000000000E+00 0.  1.
         13   -1    0    0    0    0 -0.00000000000E+00 -0.00000000000E+00 -0.10000000000E+04  0.10000000000E+04  0.00000000000E+00 0.  1.
    9000005    2    1    2  501    0  0.67183119475E-02  0.25403797315E-02 -0.89301736392E+03  0.11069821301E+04  0.65416314795E+03 0.  0.
         13    1    3    3    0    0  0.16091456104E+03  0.69646951189E+02 -0.91375594719E+03  0.93042685085E+03  0.00000000000E+00 0.  1.
          3    1    3    3  501    0 -0.16090784273E+03 -0.69644410809E+02  0.20738583273E+02  0.17655527929E+03  0.00000000000E+00 0.  1.
         21    1    1    2  502  501 -0.67183119475E-02 -0.25403797315E-02  0.50729936423E-01  0.51235882876E-01  0.00000000000E+00 0. -1.
<mgrwt>
<rscale>  1 0.65416315E+03</rscale>
<asrwt>0</asrwt>
<pdfrwt beam="1">  1        1 0.38921306E+00 0.65416315E+03</pdfrwt>
<pdfrwt beam="2">0</pdfrwt>
<totfact> 0.14928708E+00</totfact>
</mgrwt>
</event>
<event>
 6    1  0.6022095E-003  0.6604809E+03  0.7818608E-02  0.9787309E-01
          1   -1    0    0  502    0  0.00000000000E+00  0.00000000000E+00  0.11127078357E+03  0.11127078357E+03  0.00000000000E+00 0.  1.
         13   -1    0    0    0    0 -0.00000000000E+00 -0.00000000000E+00 -0.10000000000E+04  0.10000000000E+04  0.00000000000E+00 0.  1.
    9000005    2    1    2  501    0 -0.92536681926E+00  0.23534168172E-01 -0.89083332646E+03  0.11089720586E+04  0.66048024519E+03 0.  0.
         13    1    3    3    0    0  0.17569014614E+03 -0.26215080725E+03 -0.28315444489E+03  0.42398881219E+03  0.00000000000E+00 0.  1.
          3    1    3    3  501    0 -0.17661551296E+03  0.26217434142E+03 -0.60767888157E+03  0.68498324638E+03  0.00000000000E+00 0.  1.
         21    1    1    2  502  501  0.92536681926E+00 -0.23534168172E-01  0.21041100311E+01  0.22987250010E+01  0.00000000000E+00 0.  1.
<mgrwt>
<rscale>  1 0.66048089E+03</rscale>
<asrwt>0</asrwt>
<pdfrwt beam="1">  1        1 0.40462188E+00 0.66048089E+03</pdfrwt>
<pdfrwt beam="2">0</pdfrwt>
<totfact> 0.12732678E+00</totfact>
</mgrwt>
</event>
<event>
 6    1  0.6022095E-003  0.6553046E+03  0.7818608E-02  0.9796876E-01
          1   -1    0    0  502    0  0.00000000000E+00  0.00000000000E+00  0.10735691933E+03  0.10735691933E+03  0.00000000000E+00 0.  1.
         13   -1    0    0    0    0 -0.00000000000E+00 -0.00000000000E+00 -0.10000000000E+04  0.10000000000E+04  0.00000000000E+00 0.  1.
    9000005    2    1    2  501    0 -0.36357803867E-03  0.15882287946E-03 -0.89264393314E+03  0.11073559791E+04  0.65530456506E+03 0.  0.
         13    1    3    3    0    0  0.10005430696E+03  0.30587169342E+02 -0.97101346748E+03  0.97663380717E+03  0.00000000000E+00 0.  1.
          1    1    3    3  501    0 -0.10005467054E+03 -0.30587010519E+02  0.78369534348E+02  0.13072217189E+03  0.00000000000E+00 0.  1.
         21    1    1    2  502  501  0.36357803867E-03 -0.15882287946E-03  0.85246563808E-03  0.94027196138E-03  0.00000000000E+00 0.  1.
<mgrwt>
<rscale>  1 0.65530457E+03</rscale>
<asrwt>0</asrwt>
<pdfrwt beam="1">  1        1 0.39038962E+00 0.65530457E+03</pdfrwt>
<pdfrwt beam="2">0</pdfrwt>
<totfact> 0.14747319E+00</totfact>
</mgrwt>
</event>
<event>
 6    1  0.6022095E-003  0.6398542E+03  0.7818608E-02  0.9826005E-01
          1   -1    0    0  502    0  0.00000000000E+00  0.00000000000E+00  0.10340624759E+03  0.10340624759E+03  0.00000000000E+00 0.  1.
         13   -1    0    0    0    0 -0.00000000000E+00 -0.00000000000E+00 -0.10000000000E+04  0.10000000000E+04  0.00000000000E+00 0.  1.
    9000005    2    1    2  501    0  0.21189786271E+01  0.21546366946E+01 -0.89421276706E+03  0.10995589601E+04  0.63984709224E+03 0.  0.
         13    1    3    3    0    0  0.18636735020E+03  0.25746667500E+03 -0.36713808035E+03  0.48560503292E+03  0.00000000000E+00 0.  1.
          3    1    3    3  501    0 -0.18424837157E+03 -0.25531203831E+03 -0.52707468672E+03  0.61395392719E+03  0.00000000000E+00 0.  1.
         21    1    1    2  502  501 -0.21189786271E+01 -0.21546366946E+01 -0.23809853463E+01  0.38472874765E+01  0.00000000000E+00 0. -1.
<mgrwt>
<rscale>  1 0.63985423E+03</rscale>
<asrwt>0</asrwt>
<pdfrwt beam="1">  1        1 0.37602351E+00 0.63985423E+03</pdfrwt>
<pdfrwt beam="2">0</pdfrwt>
<totfact> 0.17117435E+00</totfact>
</mgrwt>
</event>
<event>
 6    1  0.6022095E-003  0.5770900E+03  0.7818608E-02  0.9954111E-01
          1   -1    0    0  502    0  0.00000000000E+00  0.00000000000E+00  0.83258242569E+02  0.83258242569E+02  0.00000000000E+00 0.  1.
         13   -1    0    0    0    0 -0.00000000000E+00 -0.00000000000E+00 -0.10000000000E+04  0.10000000000E+04  0.00000000000E+00 0.  1.
    9000005    2    1    2  501    0 -0.12972157997E-04  0.32122074799E-04 -0.91674176413E+03  0.10832582073E+04  0.57709001166E+03 0.  0.
         13    1    3    3    0    0  0.19440471930E+02 -0.27259690630E+03 -0.28458701306E+03  0.39455896045E+03  0.00000000000E+00 0.  1.
          3    1    3    3  501    0 -0.19440484903E+02  0.27259693842E+03 -0.63215475107E+03  0.68869924683E+03  0.00000000000E+00 0.  1.
         21    1    1    2  502  501  0.12972157996E-04 -0.32122074766E-04  0.66977639634E-05  0.35284056066E-04  0.00000000000E+00 0.  1.
<mgrwt>
<rscale>  1 0.57709001E+03</rscale>
<asrwt>0</asrwt>
<pdfrwt beam="1">  1        1 0.30275788E+00 0.57709001E+03</pdfrwt>
<pdfrwt beam="2">0</pdfrwt>
<totfact> 0.36047279E+00</totfact>
</mgrwt>
</event>
<event>
 6    1  0.6022095E-003  0.6147530E+03  0.7818608E-02  0.9875262E-01
          1   -1    0    0  502    0  0.00000000000E+00  0.00000000000E+00  0.94547609107E+02  0.94547609107E+02  0.00000000000E+00 0.  1.
         13   -1    0    0    0    0 -0.00000000000E+00 -0.00000000000E+00 -0.10000000000E+04  0.10000000000E+04  0.00000000000E+00 0.  1.
    9000005    2    1    2  501    0 -0.22836995268E-01  0.72030103986E-03 -0.90551755252E+03  0.10944785578E+04  0.61475301951E+03 0.  0.
         13    1    3    3    0    0 -0.28083333336E+03  0.11834240517E+02 -0.23126960350E+03  0.36399593388E+03  0.00000000000E+00 0.  1.
          3    1    3    3  501    0  0.28081049636E+03 -0.11833520216E+02 -0.67424794902E+03  0.73048262391E+03  0.00000000000E+00 0.  1.
         21    1    1    2  502  501  0.22836995268E-01 -0.72030103986E-03  0.65161631267E-01  0.69051324215E-01  0.00000000000E+00 0.  1.
<mgrwt>
<rscale>  1 0.61475302E+03</rscale>
<asrwt>0</asrwt>
<pdfrwt beam="1">  1        1 0.34381021E+00 0.61475302E+03</pdfrwt>
<pdfrwt beam="2">0</pdfrwt>
<totfact> 0.23785460E+00</totfact>
</mgrwt>
</event>
<event>
 6    1  0.6022095E-003  0.6394918E+03  0.7818608E-02  0.9826699E-01
          3   -1    0    0  502    0  0.00000000000E+00  0.00000000000E+00  0.10338944606E+03  0.10338944606E+03  0.00000000000E+00 0.  1.
         13   -1    0    0    0    0 -0.00000000000E+00 -0.00000000000E+00 -0.10000000000E+04  0.10000000000E+04  0.00000000000E+00 0.  1.
    9000005    2    1    2  501    0 -0.68515500611E+00 -0.10155068223E+01 -0.89739256247E+03  0.11019360952E+04  0.63949061443E+03 0.  0.
         13    1    3    3    0    0 -0.28635924810E+03 -0.14218767894E+03 -0.41681100542E+03  0.52530978408E+03  0.00000000000E+00 0.  1.
          3    1    3    3  501    0  0.28567409309E+03  0.14117217212E+03 -0.48058155706E+03  0.57662631108E+03  0.00000000000E+00 0.  1.
         21    1    1    2  502  501  0.68515500611E+00  0.10155068223E+01  0.78200853581E+00  0.14533509000E+01  0.00000000000E+00 0. -1.
<mgrwt>
<rscale>  1 0.63949179E+03</rscale>
<asrwt>0</asrwt>
<pdfrwt beam="1">  1        3 0.37596241E+00 0.63949179E+03</pdfrwt>
<pdfrwt beam="2">0</pdfrwt>
<totfact> 0.79418543E-02</totfact>
</mgrwt>
</event>
<event>
 6    1  0.6022095E-003  0.6842292E+03  0.7818608E-02  0.9744589E-01
          1   -1    0    0  502    0  0.00000000000E+00  0.00000000000E+00  0.11705867727E+03  0.11705867727E+03  0.00000000000E+00 0.  1.
         13   -1    0    0    0    0 -0.00000000000E+00 -0.00000000000E+00 -0.10000000000E+04  0.10000000000E+04  0.00000000000E+00 0.  1.
    9000005    2    1    2  501    0 -0.40194234386E-02 -0.20196750519E-02 -0.88295725369E+03  0.11170421234E+04  0.68422919669E+03 0.  0.
         13    1    3    3    0    0  0.27583139361E+03  0.16513988076E+03 -0.25048213783E+03  0.40754808218E+03  0.00000000000E+00 0.  1.
          3    1    3    3  501    0 -0.27583541303E+03 -0.16514190043E+03 -0.63247511586E+03  0.70949404123E+03  0.00000000000E+00 0.  1.
         21    1    1    2  502  501  0.40194234385E-02  0.20196750519E-02  0.15930962079E-01  0.16553863744E-01  0.00000000000E+00 0. -1.
<mgrwt>
<rscale>  1 0.68422920E+03</rscale>
<asrwt>0</asrwt>
<pdfrwt beam="1">  1        1 0.42566881E+00 0.68422920E+03</pdfrwt>
<pdfrwt beam="2">0</pdfrwt>
<totfact> 0.10191551E+00</totfact>
</mgrwt>
</event>
<event>
 6    1  0.6022095E-003  0.6627370E+03  0.7818608E-02  0.9783168E-01
          1   -1    0    0  502    0  0.00000000000E+00  0.00000000000E+00  0.11096814459E+03  0.11096814459E+03  0.00000000000E+00 0.  1.
         13   -1    0    0    0    0 -0.00000000000E+00 -0.00000000000E+00 -0.10000000000E+04  0.10000000000E+04  0.00000000000E+00 0.  1.
    9000005    2    1    2  501    0  0.18117277463E+00  0.17592450647E+00 -0.89017967803E+03  0.11097928702E+04  0.66273697038E+03 0.  0.
         13    1    3    3    0    0  0.31160154917E+03 -0.37736894641E+02 -0.62347655667E+03  0.69802766090E+03  0.00000000000E+00 0.  1.
          3    1    3    3  501    0 -0.31142037639E+03  0.37912819147E+02 -0.26670312136E+03  0.41176520935E+03  0.00000000000E+00 0.  1.
         21    1    1    2  502  501 -0.18117277463E+00 -0.17592450647E+00  0.11478226227E+01  0.11752743422E+01  0.00000000000E+00 0. -1.
<mgrwt>
<rscale>  1 0.66273702E+03</rscale>
<asrwt>0</asrwt>
<pdfrwt beam="1">  1        1 0.40352138E+00 0.66273702E+03</pdfrwt>
<pdfrwt beam="2">0</pdfrwt>
<totfact> 0.12872208E+00</totfact>
</mgrwt>
</event>
<event>
 6    1  0.6022095E-003  0.6781820E+03  0.7818608E-02  0.9755289E-01
          1   -1    0    0  502    0  0.00000000000E+00  0.00000000000E+00  0.11764080922E+03  0.11764080922E+03  0.00000000000E+00 0.  1.
         13   -1    0    0    0    0 -0.00000000000E+00 -0.00000000000E+00 -0.10000000000E+04  0.10000000000E+04  0.00000000000E+00 0.  1.
    9000005    2    1    2  501    0  0.31841198338E+01  0.33003251201E+01 -0.88258053325E+03  0.11130495395E+04  0.67816653485E+03 0.  0.
         13    1    3    3    0    0 -0.15568123869E+03  0.27274477188E+03 -0.22963191774E+03  0.38904649634E+03  0.00000000000E+00 0.  1.
          1    1    3    3  501    0  0.15886535853E+03 -0.26944444676E+03 -0.65294861551E+03  0.72400304318E+03  0.00000000000E+00 0.  1.
         21    1    1    2  502  501 -0.31841198338E+01 -0.33003251201E+01  0.22134247307E+00  0.45912697050E+01  0.00000000000E+00 0. -1.
<mgrwt>
<rscale>  1 0.67818204E+03</rscale>
<asrwt>0</asrwt>
<pdfrwt beam="1">  1        1 0.42778566E+00 0.67818204E+03</pdfrwt>
<pdfrwt beam="2">0</pdfrwt>
<totfact> 0.99803603E-01</totfact>
</mgrwt>
</event>
<event>
 6    1  0.6022095E-003  0.6530591E+03  0.7818608E-02  0.9801056E-01
          1   -1    0    0  502    0  0.00000000000E+00  0.00000000000E+00  0.12772561370E+03  0.12772561370E+03  0.00000000000E+00 0.  1.
         13   -1    0    0    0    0 -0.00000000000E+00 -0.00000000000E+00 -0.10000000000E+04  0.10000000000E+04  0.00000000000E+00 0.  1.
    9000005    2    1    2  501    0 -0.53826881570E+00 -0.35015144468E+00 -0.89337304286E+03  0.11066171877E+04  0.65305879832E+03 0.  0.
         13    1    3    3    0    0  0.13891392956E+03  0.33859209961E+02 -0.94369683849E+03  0.95446699728E+03  0.00000000000E+00 0.  1.
          1    1    3    3  501    0 -0.13945219838E+03 -0.34209361405E+02  0.50323795624E+02  0.15215019042E+03  0.00000000000E+00 0.  1.
         21    1    1    2  502  501  0.53826881570E+00  0.35015144468E+00  0.21098656563E+02  0.21108425998E+02  0.00000000000E+00 0. -1.
<mgrwt>
<rscale>  1 0.65305911E+03</rscale>
<asrwt>0</asrwt>
<pdfrwt beam="1">  1        1 0.46445776E+00 0.65305911E+03</pdfrwt>
<pdfrwt beam="2">0</pdfrwt>
<totfact> 0.68052703E-01</totfact>
</mgrwt>
</event>
<event>
 6    1  0.6022095E-003  0.6590166E+03  0.7818608E-02  0.9790006E-01
          1   -1    0    0  502    0  0.00000000000E+00  0.00000000000E+00  0.10859132765E+03  0.10859132765E+03  0.00000000000E+00 0.  1.
         13   -1    0    0    0    0 -0.00000000000E+00 -0.00000000000E+00 -0.10000000000E+04  0.10000000000E+04  0.00000000000E+00 0.  1.
    9000005    2    1    2  501    0  0.37329049860E-05  0.30763490685E-03 -0.89142428024E+03  0.11085757167E+04  0.65901659488E+03 0.  0.
         13    1    3    3    0    0 -0.67416085253E+02 -0.33396326938E+02  0.93934337520E+02  0.12034908794E+03  0.00000000000E+00 0.  1.
          1    1    3    3  501    0  0.67416088986E+02  0.33396634573E+02 -0.98535861776E+03  0.98822662879E+03  0.00000000000E+00 0.  1.
         21    1    1    2  502  501 -0.37329049892E-05 -0.30763490686E-03  0.15607885075E-01  0.15610917003E-01  0.00000000000E+00 0. -1.
<mgrwt>
<rscale>  1 0.65901659E+03</rscale>
<asrwt>0</asrwt>
<pdfrwt beam="1">  1        1 0.39487839E+00 0.65901659E+03</pdfrwt>
<pdfrwt beam="2">0</pdfrwt>
<totfact> 0.14075975E+00</totfact>
</mgrwt>
</event>
<event>
 6    1  0.6022095E-003  0.6010969E+03  0.7818608E-02  0.9903133E-01
          1   -1    0    0  502    0  0.00000000000E+00  0.00000000000E+00  0.90964978929E+02  0.90964978929E+02  0.00000000000E+00 0.  1.
         13   -1    0    0    0    0 -0.00000000000E+00 -0.00000000000E+00 -0.10000000000E+04  0.10000000000E+04  0.00000000000E+00 0.  1.
    9000005    2    1    2  501    0 -0.44608360165E-01 -0.14190872671E-01 -0.90966967956E+03  0.10903285964E+04  0.60109693071E+03 0.  0.
         13    1    3    3    0    0 -0.15180891513E+03  0.13122130156E+02 -0.92477997617E+03  0.93724924184E+03  0.00000000000E+00 0.  1.
          3    1    3    3  501    0  0.15176430677E+03 -0.13136321029E+02  0.15110296611E+02  0.15307935459E+03  0.00000000000E+00 0.  1.
         21    1    1    2  502  501  0.44608360165E-01  0.14190872671E-01  0.63465848565E+00  0.63638249510E+00  0.00000000000E+00 0. -1.
<mgrwt>
<rscale>  1 0.60109693E+03</rscale>
<asrwt>0</asrwt>
<pdfrwt beam="1">  1        1 0.33078244E+00 0.60109693E+03</pdfrwt>
<pdfrwt beam="2">0</pdfrwt>
<totfact> 0.27158317E+00</totfact>
</mgrwt>
</event>
<event>
 6    1  0.6022095E-003  0.6424015E+03  0.7818608E-02  0.9821143E-01
          1   -1    0    0  502    0  0.00000000000E+00  0.00000000000E+00  0.10318792004E+03  0.10318792004E+03  0.00000000000E+00 0.  1.
         13   -1    0    0    0    0 -0.00000000000E+00 -0.00000000000E+00 -0.10000000000E+04  0.10000000000E+04  0.00000000000E+00 0.  1.
    9000005    2    1    2  501    0 -0.33311991065E-01 -0.29544412489E-01 -0.89679221597E+03  0.11031391641E+04  0.64240153708E+03 0.  0.
         13    1    3    3    0    0 -0.28012161831E+03 -0.15668200566E+03 -0.47058593727E+03  0.56962136222E+03  0.00000000000E+00 0.  1.
          1    1    3    3  501    0  0.28008830632E+03  0.15665246125E+03 -0.42620627870E+03  0.53351780191E+03  0.00000000000E+00 0.  1.
         21    1    1    2  502  501  0.33311991065E-01  0.29544412489E-01 -0.19863988106E-01  0.48755913298E-01  0.00000000000E+00 0. -1.
<mgrwt>
<rscale>  1 0.64240154E+03</rscale>
<asrwt>0</asrwt>
<pdfrwt beam="1">  1        1 0.37522959E+00 0.64240154E+03</pdfrwt>
<pdfrwt beam="2">0</pdfrwt>
<totfact> 0.17247701E+00</totfact>
</mgrwt>
</event>
<event>
 6    1  0.6022095E-003  0.6534605E+03  0.7818608E-02  0.9800307E-01
          1   -1    0    0  502    0  0.00000000000E+00  0.00000000000E+00  0.10675291210E+03  0.10675291210E+03  0.00000000000E+00 0.  1.
         13   -1    0    0    0    0 -0.00000000000E+00 -0.00000000000E+00 -0.10000000000E+04  0.10000000000E+04  0.00000000000E+00 0.  1.
    9000005    2    1    2  501    0  0.21353410290E-04  0.24889975256E-03 -0.89324728669E+03  0.11067525928E+04  0.65346047056E+03 0.  0.
         13    1    3    3    0    0 -0.20975378116E+03 -0.13590315793E+03 -0.80304669597E+03  0.84104120765E+03  0.00000000000E+00 0.  1.
          1    1    3    3  501    0  0.20975380251E+03  0.13590340683E+03 -0.90200590718E+02  0.26571138520E+03  0.00000000000E+00 0.  1.
         21    1    1    2  502  501 -0.21353410296E-04 -0.24889975255E-03  0.19878765346E-03  0.31925473547E-03  0.00000000000E+00 0. -1.
<mgrwt>
<rscale>  1 0.65346047E+03</rscale>
<asrwt>0</asrwt>
<pdfrwt beam="1">  1        1 0.38819323E+00 0.65346047E+03</pdfrwt>
<pdfrwt beam="2">0</pdfrwt>
<totfact> 0.15086844E+00</totfact>
</mgrwt>
</event>
<event>
 6    1  0.6022095E-003  0.6058765E+03  0.7818608E-02  0.9893289E-01
          1   -1    0    0  502    0  0.00000000000E+00  0.00000000000E+00  0.94323329185E+02  0.94323329185E+02  0.00000000000E+00 0.  1.
         13   -1    0    0    0    0 -0.00000000000E+00 -0.00000000000E+00 -0.10000000000E+04  0.10000000000E+04  0.00000000000E+00 0.  1.
    9000005    2    1    2  501    0  0.99952863616E+00  0.74314194502E+00 -0.90806156898E+03  0.10916327797E+04  0.60587520273E+03 0.  0.
         13    1    3    3    0    0 -0.15146487501E+02  0.30169123414E+03 -0.40576691992E+03  0.50585947667E+03  0.00000000000E+00 0.  1.
          1    1    3    3  501    0  0.16146016137E+02 -0.30094809219E+03 -0.50229464906E+03  0.58577330300E+03  0.00000000000E+00 0.  1.
         21    1    1    2  502  501 -0.99952863616E+00 -0.74314194502E+00  0.23848981629E+01  0.26905495150E+01  0.00000000000E+00 0.  1.
<mgrwt>
<rscale>  1 0.60587648E+03</rscale>
<asrwt>0</asrwt>
<pdfrwt beam="1">  1        1 0.34299465E+00 0.60587648E+03</pdfrwt>
<pdfrwt beam="2">0</pdfrwt>
<totfact> 0.24018510E+00</totfact>
</mgrwt>
</event>
<event>
 6    1  0.6022095E-003  0.6509292E+03  0.7818608E-02  0.9805037E-01
          1   -1    0    0  502    0  0.00000000000E+00  0.00000000000E+00  0.10593199789E+03  0.10593199789E+03  0.00000000000E+00 0.  1.
         13   -1    0    0    0    0 -0.00000000000E+00 -0.00000000000E+00 -0.10000000000E+04  0.10000000000E+04  0.00000000000E+00 0.  1.
    9000005    2    1    2  501    0  0.32861081763E-04 -0.57144609535E-04 -0.89407280181E+03  0.11059271977E+04  0.65092917567E+03 0.  0.
         13    1    3    3    0    0  0.24555478965E+03 -0.47865971790E+02 -0.93339113713E+02  0.26702152745E+03  0.00000000000E+00 0.  1.
          3    1    3    3  501    0 -0.24555475679E+03  0.47865914645E+02 -0.80073368810E+03  0.83890567028E+03  0.00000000000E+00 0.  1.
         21    1    1    2  502  501 -0.32861081764E-04  0.57144609530E-04  0.47997046714E-02  0.48001573193E-02  0.00000000000E+00 0.  1.
<mgrwt>
<rscale>  1 0.65092918E+03</rscale>
<asrwt>0</asrwt>
<pdfrwt beam="1">  1        1 0.38520808E+00 0.65092918E+03</pdfrwt>
<pdfrwt beam="2">0</pdfrwt>
<totfact> 0.15560276E+00</totfact>
</mgrwt>
</event>
<event>
 6    1  0.6022095E-003  0.6467016E+03  0.7818608E-02  0.9812988E-01
          1   -1    0    0  502    0  0.00000000000E+00  0.00000000000E+00  0.10508856468E+03  0.10508856468E+03  0.00000000000E+00 0.  1.
         13   -1    0    0    0    0 -0.00000000000E+00 -0.00000000000E+00 -0.10000000000E+04  0.10000000000E+04  0.00000000000E+00 0.  1.
    9000005    2    1    2  501    0  0.13843156284E-01  0.86517223349E-02 -0.89544410781E+03  0.11045556421E+04  0.64670164375E+03 0.  0.
         13    1    3    3    0    0 -0.24762812802E+03 -0.75451409288E+02 -0.11679151635E+03  0.28399447748E+03  0.00000000000E+00 0.  1.
          3    1    3    3  501    0  0.24764197118E+03  0.75460061010E+02 -0.77865259146E+03  0.82056116462E+03  0.00000000000E+00 0.  1.
         21    1    1    2  502  501 -0.13843156284E-01 -0.86517223349E-02  0.53267249339E+00  0.53292257457E+00  0.00000000000E+00 0. -1.
<mgrwt>
<rscale>  1 0.64670164E+03</rscale>
<asrwt>0</asrwt>
<pdfrwt beam="1">  1        1 0.38214104E+00 0.64670164E+03</pdfrwt>
<pdfrwt beam="2">0</pdfrwt>
<totfact> 0.16066194E+00</totfact>
</mgrwt>
</event>
<event>
 6    1  0.6022095E-003  0.6240742E+03  0.7818608E-02  0.9856681E-01
          3   -1    0    0  502    0  0.00000000000E+00  0.00000000000E+00  0.97371637812E+02  0.97371637812E+02  0.00000000000E+00 0.  1.
         13   -1    0    0    0    0 -0.00000000000E+00 -0.00000000000E+00 -0.10000000000E+04  0.10000000000E+04  0.00000000000E+00 0.  1.
    9000005    2    1    2  501    0  0.55303832774E-03 -0.56452965697E-03 -0.90263280172E+03  0.10973671285E+04  0.62407422631E+03 0.  0.
         13    1    3    3    0    0  0.12453702478E+03  0.25820276973E+03 -0.23460596654E+03  0.37042961595E+03  0.00000000000E+00 0.  1.
          1    1    3    3  501    0 -0.12453647174E+03 -0.25820333426E+03 -0.66802683518E+03  0.72693751254E+03  0.00000000000E+00 0.  1.
         21    1    1    2  502  501 -0.55303832775E-03  0.56452965694E-03  0.44395319623E-02  0.45093224735E-02  0.00000000000E+00 0. -1.
<mgrwt>
<rscale>  1 0.62407423E+03</rscale>
<asrwt>0</asrwt>
<pdfrwt beam="1">  1        3 0.35407943E+00 0.62407423E+03</pdfrwt>
<pdfrwt beam="2">0</pdfrwt>
<totfact> 0.10401435E-01</totfact>
</mgrwt>
</event>
<event>
 6    1  0.6022095E-003  0.6388559E+03  0.7818608E-02  0.9827918E-01
          1   -1    0    0  502    0  0.00000000000E+00  0.00000000000E+00  0.10203422156E+03  0.10203422156E+03  0.00000000000E+00 0.  1.
         13   -1    0    0    0    0 -0.00000000000E+00 -0.00000000000E+00 -0.10000000000E+04  0.10000000000E+04  0.00000000000E+00 0.  1.
    9000005    2    1    2  501    0 -0.25438997682E-05  0.10083032393E-04 -0.89796577618E+03  0.11020342109E+04  0.63885590459E+03 0.  0.
         13    1    3    3    0    0  0.27646005792E+03  0.11544642902E+03 -0.25785515587E+03  0.39528132135E+03  0.00000000000E+00 0.  1.
          1    1    3    3  501    0 -0.27646006046E+03 -0.11544641894E+03 -0.64011062031E+03  0.70675288957E+03  0.00000000000E+00 0.  1.
         21    1    1    2  502  501  0.25438997370E-05 -0.10083032390E-04 -0.22607728213E-05  0.10641901231E-04  0.00000000000E+00 0.  1.
<mgrwt>
<rscale>  1 0.63885590E+03</rscale>
<asrwt>0</asrwt>
<pdfrwt beam="1">  1        1 0.37103432E+00 0.63885590E+03</pdfrwt>
<pdfrwt beam="2">0</pdfrwt>
<totfact> 0.18007920E+00</totfact>
</mgrwt>
</event>
<event>
 6    1  0.6022095E-003  0.6531271E+03  0.7818608E-02  0.9800929E-01
          1   -1    0    0  502    0  0.00000000000E+00  0.00000000000E+00  0.10664390954E+03  0.10664390954E+03  0.00000000000E+00 0.  1.
         13   -1    0    0    0    0 -0.00000000000E+00 -0.00000000000E+00 -0.10000000000E+04  0.10000000000E+04  0.00000000000E+00 0.  1.
    9000005    2    1    2  501    0  0.18881940062E-03  0.10869840969E-03 -0.89335616646E+03  0.11066436788E+04  0.65312708691E+03 0.  0.
         13    1    3    3    0    0 -0.14628257063E+03  0.29170926610E+03 -0.42586650358E+03  0.53652135584E+03  0.00000000000E+00 0.  1.
          3    1    3    3  501    0  0.14628275945E+03 -0.29170915741E+03 -0.46748966288E+03  0.57012232295E+03  0.00000000000E+00 0.  1.
         21    1    1    2  502  501 -0.18881940061E-03 -0.10869840967E-03  0.76000499258E-04  0.23074701775E-03  0.00000000000E+00 0.  1.
<mgrwt>
<rscale>  1 0.65312709E+03</rscale>
<asrwt>0</asrwt>
<pdfrwt beam="1">  1        1 0.38779685E+00 0.65312709E+03</pdfrwt>
<pdfrwt beam="2">0</pdfrwt>
<totfact> 0.15148902E+00</totfact>
</mgrwt>
</event>
<event>
 6    1  0.6022095E-003  0.6490674E+03  0.7818608E-02  0.9808531E-01
          1   -1    0    0  502    0  0.00000000000E+00  0.00000000000E+00  0.10532217240E+03  0.10532217240E+03  0.00000000000E+00 0.  1.
         13   -1    0    0    0    0 -0.00000000000E+00 -0.00000000000E+00 -0.10000000000E+04  0.10000000000E+04  0.00000000000E+00 0.  1.
    9000005    2    1    2  501    0 -0.62577666910E-04 -0.93579872811E-04 -0.89467782945E+03  0.11053220598E+04  0.64906735966E+03 0.  0.
         13    1    3    3    0    0 -0.12318888323E+03  0.80050840704E+02  0.45450740149E+02  0.15378363967E+03  0.00000000000E+00 0.  1.
          1    1    3    3  501    0  0.12318882066E+03 -0.80050934284E+02 -0.94012856960E+03  0.95153842014E+03  0.00000000000E+00 0.  1.
         21    1    1    2  502  501  0.62577666908E-04  0.93579872814E-04  0.18515991517E-05  0.11259034333E-03  0.00000000000E+00 0. -1.
<mgrwt>
<rscale>  1 0.64906736E+03</rscale>
<asrwt>0</asrwt>
<pdfrwt beam="1">  1        1 0.38299053E+00 0.64906736E+03</pdfrwt>
<pdfrwt beam="2">0</pdfrwt>
<totfact> 0.15921017E+00</totfact>
</mgrwt>
</event>
<event>
 6    1  0.6022095E-003  0.6263569E+03  0.7818608E-02  0.9852184E-01
          1   -1    0    0  502    0  0.00000000000E+00  0.00000000000E+00  0.98829474717E+02  0.98829474717E+02  0.00000000000E+00 0.  1.
         13   -1    0    0    0    0 -0.00000000000E+00 -0.00000000000E+00 -0.10000000000E+04  0.10000000000E+04  0.00000000000E+00 0.  1.
    9000005    2    1    2  501    0  0.40670030660E+00 -0.19129194928E-01 -0.90185802938E+03  0.10980304547E+04  0.62635677419E+03 0.  0.
         13    1    3    3    0    0  0.57045079556E+02  0.25373548645E+03 -0.75694185428E+03  0.80037291868E+03  0.00000000000E+00 0.  1.
          1    1    3    3  501    0 -0.56638379249E+02 -0.25375461564E+03 -0.14491617510E+03  0.29765753605E+03  0.00000000000E+00 0.  1.
         21    1    1    2  502  501 -0.40670030660E+00  0.19129194928E-01  0.68750409626E+00  0.79901999215E+00  0.00000000000E+00 0. -1.
<mgrwt>
<rscale>  1 0.62635691E+03</rscale>
<asrwt>0</asrwt>
<pdfrwt beam="1">  1        1 0.35938067E+00 0.62635691E+03</pdfrwt>
<pdfrwt beam="2">0</pdfrwt>
<totfact> 0.20301293E+00</totfact>
</mgrwt>
</event>
<event>
 6    1  0.6022095E-003  0.6756759E+03  0.7818608E-02  0.9759758E-01
          1   -1    0    0  502    0  0.00000000000E+00  0.00000000000E+00  0.11413466390E+03  0.11413466390E+03  0.00000000000E+00 0.  1.
         13   -1    0    0    0    0 -0.00000000000E+00 -0.00000000000E+00 -0.10000000000E+04  0.10000000000E+04  0.00000000000E+00 0.  1.
    9000005    2    1    2  501    0  0.41758996680E-04  0.29276432116E-04 -0.88586550747E+03  0.11141344851E+04  0.67567592347E+03 0.  0.
         13    1    3    3    0    0  0.46318218594E+02  0.23740147141E+03 -0.54019842215E+02  0.24783659809E+03  0.00000000000E+00 0.  1.
          3    1    3    3  501    0 -0.46318176835E+02 -0.23740144213E+03 -0.83184566526E+03  0.86629788701E+03  0.00000000000E+00 0.  1.
         21    1    1    2  502  501 -0.41758996678E-04 -0.29276432093E-04  0.17137546784E-03  0.17880289220E-03  0.00000000000E+00 0.  1.
<mgrwt>
<rscale>  1 0.67567592E+03</rscale>
<asrwt>0</asrwt>
<pdfrwt beam="1">  1        1 0.41503602E+00 0.67567592E+03</pdfrwt>
<pdfrwt beam="2">0</pdfrwt>
<totfact> 0.11401502E+00</totfact>
</mgrwt>
</event>
<event>
 6    1  0.6022095E-003  0.6423532E+03  0.7818608E-02  0.9821235E-01
          1   -1    0    0  502    0  0.00000000000E+00  0.00000000000E+00  0.10344245557E+03  0.10344245557E+03  0.00000000000E+00 0.  1.
         13   -1    0    0    0    0 -0.00000000000E+00 -0.00000000000E+00 -0.10000000000E+04  0.10000000000E+04  0.00000000000E+00 0.  1.
    9000005    2    1    2  501    0  0.57259488847E-01 -0.29272056270E+00 -0.89675793688E+03  0.11030831213E+04  0.64235308531E+03 0.  0.
         13    1    3    3    0    0 -0.25122804903E+02  0.32433269613E+01  0.10144324048E+03  0.10455814428E+03  0.00000000000E+00 0.  1.
          3    1    3    3  501    0  0.25180064391E+02 -0.35360475240E+01 -0.99820117736E+03  0.99852497703E+03  0.00000000000E+00 0.  1.
         21    1    1    2  502  501 -0.57259488847E-01  0.29272056270E+00  0.20039244867E+00  0.35933425995E+00  0.00000000000E+00 0. -1.
<mgrwt>
<rscale>  1 0.64235315E+03</rscale>
<asrwt>0</asrwt>
<pdfrwt beam="1">  1        1 0.37615518E+00 0.64235315E+03</pdfrwt>
<pdfrwt beam="2">0</pdfrwt>
<totfact> 0.17086755E+00</totfact>
</mgrwt>
</event>
<event>
 6    1  0.6022095E-003  0.6465211E+03  0.7818608E-02  0.9813329E-01
          1   -1    0    0  502    0  0.00000000000E+00  0.00000000000E+00  0.10449740119E+03  0.10449740119E+03  0.00000000000E+00 0.  1.
         13   -1    0    0    0    0 -0.00000000000E+00 -0.00000000000E+00 -0.10000000000E+04  0.10000000000E+04  0.00000000000E+00 0.  1.
    9000005    2    1    2  501    0  0.15111818925E-05  0.25172378173E-05 -0.89550260076E+03  0.11044973977E+04  0.64652114697E+03 0.  0.
         13    1    3    3    0    0  0.19827283149E+03 -0.24044478275E+03 -0.30107413273E+03  0.43332602352E+03  0.00000000000E+00 0.  1.
          1    1    3    3  501    0 -0.19827282997E+03  0.24044478527E+03 -0.59442846803E+03  0.67117137415E+03  0.00000000000E+00 0.  1.
         21    1    1    2  502  501 -0.15111819133E-05 -0.25172378084E-05  0.19483856280E-05  0.35236860692E-05  0.00000000000E+00 0.  1.
<mgrwt>
<rscale>  1 0.64652115E+03</rscale>
<asrwt>0</asrwt>
<pdfrwt beam="1">  1        1 0.37999135E+00 0.64652115E+03</pdfrwt>
<pdfrwt beam="2">0</pdfrwt>
<totfact> 0.16421663E+00</totfact>
</mgrwt>
</event>
<event>
 6    1  0.6022095E-003  0.6490408E+03  0.7818608E-02  0.9808581E-01
          1   -1    0    0  502    0  0.00000000000E+00  0.00000000000E+00  0.10531357040E+03  0.10531357040E+03  0.00000000000E+00 0.  1.
         13   -1    0    0    0    0 -0.00000000000E+00 -0.00000000000E+00 -0.10000000000E+04  0.10000000000E+04  0.00000000000E+00 0.  1.
    9000005    2    1    2  501    0 -0.40261365335E-04  0.14715265860E-03 -0.89468637647E+03  0.11053134089E+04  0.64904084582E+03 0.  0.
         13    1    3    3    0    0  0.62189318581E+02 -0.26340850684E+03 -0.14240751394E+03  0.30582912361E+03  0.00000000000E+00 0.  1.
          1    1    3    3  501    0 -0.62189358843E+02  0.26340865399E+03 -0.75227886252E+03  0.79948428524E+03  0.00000000000E+00 0.  1.
         21    1    1    2  502  501  0.40261365339E-04 -0.14715265864E-03 -0.53133691730E-04  0.16154897611E-03  0.00000000000E+00 0.  1.
<mgrwt>
<rscale>  1 0.64904085E+03</rscale>
<asrwt>0</asrwt>
<pdfrwt beam="1">  1        1 0.38295925E+00 0.64904085E+03</pdfrwt>
<pdfrwt beam="2">0</pdfrwt>
<totfact> 0.15926162E+00</totfact>
</mgrwt>
</event>
<event>
 6    1  0.6022095E-003  0.6317402E+03  0.7818608E-02  0.9841659E-01
          1   -1    0    0  502    0  0.00000000000E+00  0.00000000000E+00  0.99947778506E+02  0.99947778506E+02  0.00000000000E+00 0.  1.
         13   -1    0    0    0    0 -0.00000000000E+00 -0.00000000000E+00 -0.10000000000E+04  0.10000000000E+04  0.00000000000E+00 0.  1.
    9000005    2    1    2  501    0 -0.59254472997E-01 -0.78088993385E-01 -0.90021077268E+03  0.10997613718E+04  0.63174016023E+03 0.  0.
         13    1    3    3    0    0  0.75567397553E+02 -0.25486721826E+03 -0.15306415610E+03  0.30675131035E+03  0.00000000000E+00 0.  1.
          1    1    3    3  501    0 -0.75626652026E+02  0.25478912927E+03 -0.74714661658E+03  0.79301006145E+03  0.00000000000E+00 0.  1.
         21    1    1    2  502  501  0.59254472997E-01  0.78088993385E-01  0.15855118433E+00  0.18640670994E+00  0.00000000000E+00 0. -1.
<mgrwt>
<rscale>  1 0.63174017E+03</rscale>
<asrwt>0</asrwt>
<pdfrwt beam="1">  1        1 0.36344723E+00 0.63174017E+03</pdfrwt>
<pdfrwt beam="2">0</pdfrwt>
<totfact> 0.19467329E+00</totfact>
</mgrwt>
</event>
<event>
 6    1  0.9028758E-003  0.6628395E+03  0.7818608E-02  0.9782981E-01
          1   -1    0    0  502    0  0.00000000000E+00  0.00000000000E+00  0.10983908047E+03  0.10983908047E+03  0.00000000000E+00 0.  1.
         13   -1    0    0    0    0 -0.00000000000E+00 -0.00000000000E+00 -0.10000000000E+04  0.10000000000E+04  0.00000000000E+00 0.  1.
    9000005    2    1    2  501    0  0.23284196345E-04  0.55577243074E-05 -0.89016092000E+03  0.11098390565E+04  0.66283954915E+03 0.  0.
         13    1    3    3    0    0 -0.14309454819E+03  0.29021815538E+03 -0.32508008007E+03  0.45867165368E+03  0.00000000000E+00 0.  1.
          1    1    3    3  501    0  0.14309457148E+03 -0.29021814983E+03 -0.56508083993E+03  0.65116740285E+03  0.00000000000E+00 0.  1.
         21    1    1    2  502  501 -0.23284196331E-04 -0.55577243042E-05  0.46731621073E-06  0.23942858698E-04  0.00000000000E+00 0. -1.
<mgrwt>
<rscale>  1 0.66283955E+03</rscale>
<asrwt>0</asrwt>
<pdfrwt beam="1">  1        1 0.39941568E+00 0.66283955E+03</pdfrwt>
<pdfrwt beam="2">0</pdfrwt>
<totfact> 0.13426659E+00</totfact>
</mgrwt>
</event>
<event>
 6    1  0.6022095E-003  0.6564939E+03  0.7818608E-02  0.9794670E-01
          1   -1    0    0  502    0  0.00000000000E+00  0.00000000000E+00  0.10779577196E+03  0.10779577196E+03  0.00000000000E+00 0.  1.
         13   -1    0    0    0    0 -0.00000000000E+00 -0.00000000000E+00 -0.10000000000E+04  0.10000000000E+04  0.00000000000E+00 0.  1.
    9000005    2    1    2  501    0 -0.99981113246E-01 -0.10719460332E+00 -0.89193438099E+03  0.11074886819E+04  0.65649388341E+03 0.  0.
         13    1    3    3    0    0 -0.22115949400E+03 -0.16055472031E+03 -0.13914875981E+03  0.30667852445E+03  0.00000000000E+00 0.  1.
          3    1    3    3  501    0  0.22105951289E+03  0.16044752571E+03 -0.75278562119E+03  0.80081015741E+03  0.00000000000E+00 0.  1.
         21    1    1    2  502  501  0.99981113246E-01  0.10719460332E+00 -0.26984704492E+00  0.30709010671E+00  0.00000000000E+00 0. -1.
<mgrwt>
<rscale>  1 0.65649390E+03</rscale>
<asrwt>0</asrwt>
<pdfrwt beam="1">  1        1 0.39198545E+00 0.65649390E+03</pdfrwt>
<pdfrwt beam="2">0</pdfrwt>
<totfact> 0.14505595E+00</totfact>
</mgrwt>
</event>
<event>
 6    1  0.8342772E-003  0.6447173E+03  0.7818608E-02  0.9816743E-01
          1   -1    0    0  502    0  0.00000000000E+00  0.00000000000E+00  0.10391509807E+03  0.10391509807E+03  0.00000000000E+00 0.  1.
         13   -1    0    0    0    0 -0.00000000000E+00 -0.00000000000E+00 -0.10000000000E+04  0.10000000000E+04  0.00000000000E+00 0.  1.
    9000005    2    1    2  501    0 -0.16423393845E-05  0.48432698634E-05 -0.89608488992E+03  0.11039150850E+04  0.64471729075E+03 0.  0.
         13    1    3    3    0    0 -0.25984826241E+03  0.13205584193E+03 -0.21230373461E+03  0.36060052773E+03  0.00000000000E+00 0.  1.
          3    1    3    3  501    0  0.25984826077E+03 -0.13205583709E+03 -0.68378115531E+03  0.74331455730E+03  0.00000000000E+00 0.  1.
         21    1    1    2  502  501  0.16423393958E-05 -0.48432698490E-05 -0.12006879184E-04  0.13050658576E-04  0.00000000000E+00 0.  1.
<mgrwt>
<rscale>  1 0.64471729E+03</rscale>
<asrwt>0</asrwt>
<pdfrwt beam="1">  1        1 0.37787388E+00 0.64471729E+03</pdfrwt>
<pdfrwt beam="2">0</pdfrwt>
<totfact> 0.16784134E+00</totfact>
</mgrwt>
</event>
<event>
 6    1  0.6022095E-003  0.6512882E+03  0.7818608E-02  0.9804365E-01
          1   -1    0    0  502    0  0.00000000000E+00  0.00000000000E+00  0.12774161443E+03  0.12774161443E+03  0.00000000000E+00 0.  1.
         13   -1    0    0    0    0 -0.00000000000E+00 -0.00000000000E+00 -0.10000000000E+04  0.10000000000E+04  0.00000000000E+00 0.  1.
    9000005    2    1    2  501    0  0.92606757585E+00  0.59843192223E+00 -0.89394042165E+03  0.11060315612E+04  0.65128728011E+03 0.  0.
         13    1    3    3    0    0 -0.11130112551E+03 -0.15239987174E+03  0.35032217648E+01  0.18874833512E+03  0.00000000000E+00 0.  1.
          1    1    3    3  501    0  0.11222719309E+03  0.15299830366E+03 -0.89744364341E+03  0.91728322610E+03  0.00000000000E+00 0.  1.
         21    1    1    2  502  501 -0.92606757585E+00 -0.59843192223E+00  0.21682036076E+02  0.21710053209E+02  0.00000000000E+00 0.  1.
<mgrwt>
<rscale>  1 0.65128821E+03</rscale>
<asrwt>0</asrwt>
<pdfrwt beam="1">  1        1 0.46451594E+00 0.65128821E+03</pdfrwt>
<pdfrwt beam="2">0</pdfrwt>
<totfact> 0.68035943E-01</totfact>
</mgrwt>
</event>
<event>
 6    1  0.6022095E-003  0.7119823E+03  0.7818608E-02  0.9696958E-01
          1   -1    0    0  502    0  0.00000000000E+00  0.00000000000E+00  0.12673018939E+03  0.12673018939E+03  0.00000000000E+00 0.  1.
         13   -1    0    0    0    0 -0.00000000000E+00 -0.00000000000E+00 -0.10000000000E+04  0.10000000000E+04  0.00000000000E+00 0.  1.
    9000005    2    1    2  501    0 -0.25766270458E-03 -0.12915814800E-03 -0.87327025809E+03  0.11267296571E+04  0.71198228671E+03 0.  0.
         13    1    3    3    0    0 -0.12296651089E+03  0.11953377590E+03  0.57053306910E+02  0.18073230539E+03  0.00000000000E+00 0.  1.
          1    1    3    3  501    0  0.12296625323E+03 -0.11953390506E+03 -0.93032356500E+03  0.94599735173E+03  0.00000000000E+00 0.  1.
         21    1    1    2  502  501  0.25766270459E-03  0.12915814801E-03  0.44747719600E-03  0.53226660376E-03  0.00000000000E+00 0. -1.
<mgrwt>
<rscale>  1 0.71198229E+03</rscale>
<asrwt>0</asrwt>
<pdfrwt beam="1">  1        1 0.46083802E+00 0.71198229E+03</pdfrwt>
<pdfrwt beam="2">0</pdfrwt>
<totfact> 0.69897692E-01</totfact>
</mgrwt>
</event>
<event>
 6    1  0.6022095E-003  0.6425895E+03  0.7818608E-02  0.9820785E-01
          1   -1    0    0  502    0  0.00000000000E+00  0.00000000000E+00  0.10323034959E+03  0.10323034959E+03  0.00000000000E+00 0.  1.
         13   -1    0    0    0    0 -0.00000000000E+00 -0.00000000000E+00 -0.10000000000E+04  0.10000000000E+04  0.00000000000E+00 0.  1.
    9000005    2    1    2  501    0 -0.67800660020E-05 -0.95117870273E-05 -0.89676966751E+03  0.11032303289E+04  0.64258954394E+03 0.  0.
         13    1    3    3    0    0  0.21481855772E+03  0.20001796225E+03 -0.22403421697E+03  0.36924995374E+03  0.00000000000E+00 0.  1.
          1    1    3    3  501    0 -0.21481856450E+03 -0.20001797176E+03 -0.67273545054E+03  0.73398037514E+03  0.00000000000E+00 0.  1.
         21    1    1    2  502  501  0.67800660033E-05  0.95117870254E-05  0.17101450391E-04  0.20709973272E-04  0.00000000000E+00 0.  1.
<mgrwt>
<rscale>  1 0.64258954E+03</rscale>
<asrwt>0</asrwt>
<pdfrwt beam="1">  1        1 0.37538388E+00 0.64258954E+03</pdfrwt>
<pdfrwt beam="2">0</pdfrwt>
<totfact> 0.17220154E+00</totfact>
</mgrwt>
</event>
<event>
 6    1  0.6022095E-003  0.6642779E+03  0.7818608E-02  0.9780351E-01
          1   -1    0    0  502    0  0.00000000000E+00  0.00000000000E+00  0.11032811583E+03  0.11032811583E+03  0.00000000000E+00 0.  1.
         13   -1    0    0    0    0 -0.00000000000E+00 -0.00000000000E+00 -0.10000000000E+04  0.10000000000E+04  0.00000000000E+00 0.  1.
    9000005    2    1    2  501    0  0.58939175022E-03 -0.38416429524E-03 -0.88968370480E+03  0.11103162743E+04  0.66427790445E+03 0.  0.
         13    1    3    3    0    0  0.11438447645E+03 -0.11917904747E+03  0.36785837113E+02  0.16923549161E+03  0.00000000000E+00 0.  1.
          1    1    3    3  501    0 -0.11438388706E+03  0.11917866331E+03 -0.92646954192E+03  0.94108078267E+03  0.00000000000E+00 0.  1.
         21    1    1    2  502  501 -0.58939175023E-03  0.38416429523E-03  0.11820632925E-01  0.11841550895E-01  0.00000000000E+00 0. -1.
<mgrwt>
<rscale>  1 0.66427790E+03</rscale>
<asrwt>0</asrwt>
<pdfrwt beam="1">  1        1 0.40119399E+00 0.66427790E+03</pdfrwt>
<pdfrwt beam="2">0</pdfrwt>
<totfact> 0.13180127E+00</totfact>
</mgrwt>
</event>
<event>
 6    1  0.6022095E-003  0.6568235E+03  0.7818608E-02  0.9794059E-01
          1   -1    0    0  502    0  0.00000000000E+00  0.00000000000E+00  0.10786121627E+03  0.10786121627E+03  0.00000000000E+00 0.  1.
         13   -1    0    0    0    0 -0.00000000000E+00 -0.00000000000E+00 -0.10000000000E+04  0.10000000000E+04  0.00000000000E+00 0.  1.
    9000005    2    1    2  501    0 -0.12187014048E-03 -0.42632125101E-03 -0.89214571664E+03  0.11078542692E+04  0.65682349384E+03 0.  0.
         13    1    3    3    0    0  0.21430017135E+03  0.23748212065E+03 -0.32062329125E+03  0.45290353936E+03  0.00000000000E+00 0.  1.
          1    1    3    3  501    0 -0.21430029322E+03 -0.23748254697E+03 -0.57152242539E+03  0.65495072984E+03  0.00000000000E+00 0.  1.
         21    1    1    2  502  501  0.12187014046E-03  0.42632125104E-03  0.69329044721E-02  0.69470689186E-02  0.00000000000E+00 0. -1.
<mgrwt>
<rscale>  1 0.65682349E+03</rscale>
<asrwt>0</asrwt>
<pdfrwt beam="1">  1        1 0.39222343E+00 0.65682349E+03</pdfrwt>
<pdfrwt beam="2">0</pdfrwt>
<totfact> 0.14469461E+00</totfact>
</mgrwt>
</event>
<event>
 6    1  0.6022095E-003  0.6173717E+03  0.7818608E-02  0.9870007E-01
          1   -1    0    0  502    0  0.00000000000E+00  0.00000000000E+00  0.95317102312E+02  0.95317102312E+02  0.00000000000E+00 0.  1.
         13   -1    0    0    0    0 -0.00000000000E+00 -0.00000000000E+00 -0.10000000000E+04  0.10000000000E+04  0.00000000000E+00 0.  1.
    9000005    2    1    2  501    0  0.15690648139E-01 -0.43726374326E-01 -0.90469219477E+03  0.10952697248E+04  0.61737168760E+03 0.  0.
         13    1    3    3    0    0  0.67792053979E+02  0.30075395952E+03 -0.47899695505E+03  0.56963741950E+03  0.00000000000E+00 0.  1.
          3    1    3    3  501    0 -0.67776363331E+02 -0.30079768589E+03 -0.42569523972E+03  0.52563230531E+03  0.00000000000E+00 0.  1.
         21    1    1    2  502  501 -0.15690648139E-01  0.43726374326E-01  0.92970798505E-02  0.47377504625E-01  0.00000000000E+00 0. -1.
<mgrwt>
<rscale>  1 0.61737169E+03</rscale>
<asrwt>0</asrwt>
<pdfrwt beam="1">  1        1 0.34660838E+00 0.61737169E+03</pdfrwt>
<pdfrwt beam="2">0</pdfrwt>
<totfact> 0.23117246E+00</totfact>
</mgrwt>
</event>
<event>
 6    1  0.6022095E-003  0.6608188E+03  0.7818608E-02  0.9786688E-01
          1   -1    0    0  502    0  0.00000000000E+00  0.00000000000E+00  0.10922062861E+03  0.10922062861E+03  0.00000000000E+00 0.  1.
         13   -1    0    0    0    0 -0.00000000000E+00 -0.00000000000E+00 -0.10000000000E+04  0.10000000000E+04  0.00000000000E+00 0.  1.
    9000005    2    1    2  501    0 -0.42446522455E-01 -0.16622663692E-01 -0.89081787912E+03  0.11091609556E+04  0.66081883269E+03 0.  0.
         13    1    3    3    0    0  0.25501537112E+03 -0.20807977318E+03 -0.39695094784E+03  0.51565500725E+03  0.00000000000E+00 0.  1.
          3    1    3    3  501    0 -0.25505781764E+03  0.20806315051E+03 -0.49386693128E+03  0.59350594837E+03  0.00000000000E+00 0.  1.
         21    1    1    2  502  501  0.42446522455E-01  0.16622663692E-01  0.38507730628E-01  0.59672988318E-01  0.00000000000E+00 0. -1.
<mgrwt>
<rscale>  1 0.66081883E+03</rscale>
<asrwt>0</asrwt>
<pdfrwt beam="1">  1        1 0.39716676E+00 0.66081883E+03</pdfrwt>
<pdfrwt beam="2">0</pdfrwt>
<totfact> 0.13745193E+00</totfact>
</mgrwt>
</event>
<event>
 6    1  0.6022095E-003  0.6538896E+03  0.7818608E-02  0.9799508E-01
          1   -1    0    0  502    0  0.00000000000E+00  0.00000000000E+00  0.10690689040E+03  0.10690689040E+03  0.00000000000E+00 0.  1.
         13   -1    0    0    0    0 -0.00000000000E+00 -0.00000000000E+00 -0.10000000000E+04  0.10000000000E+04  0.00000000000E+00 0.  1.
    9000005    2    1    2  501    0  0.49683440071E-02 -0.95627512309E-05 -0.89310660912E+03  0.11068925056E+04  0.65388959599E+03 0.  0.
         13    1    3    3    0    0  0.31023022005E+03 -0.95745265061E+02 -0.51177803213E+03  0.60607482986E+03  0.00000000000E+00 0.  1.
          3    1    3    3  501    0 -0.31022525170E+03  0.95745255498E+02 -0.38132857699E+03  0.50081767578E+03  0.00000000000E+00 0.  1.
         21    1    1    2  502  501 -0.49683440071E-02  0.95627512305E-05  0.13499523520E-01  0.14384772118E-01  0.00000000000E+00 0.  1.
<mgrwt>
<rscale>  1 0.65388960E+03</rscale>
<asrwt>0</asrwt>
<pdfrwt beam="1">  1        1 0.38875315E+00 0.65388960E+03</pdfrwt>
<pdfrwt beam="2">0</pdfrwt>
<totfact> 0.14999706E+00</totfact>
</mgrwt>
</event>
<event>
 6    1  0.6022095E-003  0.6706595E+03  0.7818608E-02  0.9768767E-01
          1   -1    0    0  502    0  0.00000000000E+00  0.00000000000E+00  0.11245962680E+03  0.11245962680E+03  0.00000000000E+00 0.  1.
         13   -1    0    0    0    0 -0.00000000000E+00 -0.00000000000E+00 -0.10000000000E+04  0.10000000000E+04  0.00000000000E+00 0.  1.
    9000005    2    1    2  501    0  0.45945726583E-04 -0.21798096511E-03 -0.88755394116E+03  0.11124460570E+04  0.67065954946E+03 0.  0.
         13    1    3    3    0    0 -0.32962662347E+03 -0.38439600194E+02 -0.36397239822E+03  0.49255174391E+03  0.00000000000E+00 0.  1.
          3    1    3    3  501    0  0.32962666942E+03  0.38439382213E+02 -0.52358154295E+03  0.61989431310E+03  0.00000000000E+00 0.  1.
         21    1    1    2  502  501 -0.45945726568E-04  0.21798096511E-03  0.13567968615E-01  0.13569797310E-01  0.00000000000E+00 0.  1.
<mgrwt>
<rscale>  1 0.67065955E+03</rscale>
<asrwt>0</asrwt>
<pdfrwt beam="1">  1        1 0.40894496E+00 0.67065955E+03</pdfrwt>
<pdfrwt beam="2">0</pdfrwt>
<totfact> 0.12154353E+00</totfact>
</mgrwt>
</event>
<event>
 6    1  0.6022095E-003  0.6850976E+03  0.7818608E-02  0.9743062E-01
          1   -1    0    0  502    0  0.00000000000E+00  0.00000000000E+00  0.12302701241E+03  0.12302701241E+03  0.00000000000E+00 0.  1.
         13   -1    0    0    0    0 -0.00000000000E+00 -0.00000000000E+00 -0.10000000000E+04  0.10000000000E+04  0.00000000000E+00 0.  1.
    9000005    2    1    2  501    0  0.19735977747E+00 -0.38997708650E+00 -0.88265094577E+03  0.11173322567E+04  0.68509743020E+03 0.  0.
         13    1    3    3    0    0  0.18327177691E+03 -0.28046926494E+03 -0.55958507427E+03  0.65221699466E+03  0.00000000000E+00 0.  1.
          1    1    3    3  501    0 -0.18307441713E+03  0.28007928785E+03 -0.32306587150E+03  0.46511526208E+03  0.00000000000E+00 0.  1.
         21    1    1    2  502  501 -0.19735977747E+00  0.38997708650E+00  0.56779581782E+01  0.56947556649E+01  0.00000000000E+00 0.  1.
<mgrwt>
<rscale>  1 0.68509757E+03</rscale>
<asrwt>0</asrwt>
<pdfrwt beam="1">  1        1 0.44737190E+00 0.68509757E+03</pdfrwt>
<pdfrwt beam="2">0</pdfrwt>
<totfact> 0.81110662E-01</totfact>
</mgrwt>
</event>
<event>
 6    1  0.6022095E-003  0.6554843E+03  0.7818608E-02  0.9796542E-01
          1   -1    0    0  502    0  0.00000000000E+00  0.00000000000E+00  0.10780363223E+03  0.10780363223E+03  0.00000000000E+00 0.  1.
         13   -1    0    0    0    0 -0.00000000000E+00 -0.00000000000E+00 -0.10000000000E+04  0.10000000000E+04  0.00000000000E+00 0.  1.
    9000005    2    1    2  501    0 -0.18682397413E+00 -0.46293650136E+00 -0.89239895826E+03  0.11072648778E+04  0.65548406521E+03 0.  0.
         13    1    3    3    0    0  0.14105168658E+03 -0.13324943523E+03 -0.89255962046E+03  0.91340772186E+03  0.00000000000E+00 0.  1.
          3    1    3    3  501    0 -0.14123851055E+03  0.13278649873E+03  0.16066219523E+00  0.19385715597E+03  0.00000000000E+00 0.  1.
         21    1    1    2  502  501  0.18682397413E+00  0.46293650136E+00  0.20259049671E+00  0.53875440690E+00  0.00000000000E+00 0. -1.
<mgrwt>
<rscale>  1 0.65548426E+03</rscale>
<asrwt>0</asrwt>
<pdfrwt beam="1">  1        1 0.39201403E+00 0.65548426E+03</pdfrwt>
<pdfrwt beam="2">0</pdfrwt>
<totfact> 0.14504078E+00</totfact>
</mgrwt>
</event>
<event>
 6    1  0.6022095E-003  0.6608386E+03  0.7818608E-02  0.9786651E-01
          1   -1    0    0  502    0  0.00000000000E+00  0.00000000000E+00  0.10917693049E+03  0.10917693049E+03  0.00000000000E+00 0.  1.
         13   -1    0    0    0    0 -0.00000000000E+00 -0.00000000000E+00 -0.10000000000E+04  0.10000000000E+04  0.00000000000E+00 0.  1.
    9000005    2    1    2  501    0  0.88656041726E-05 -0.28559896450E-04 -0.89082309291E+03  0.11091768925E+04  0.66083855518E+03 0.  0.
         13    1    3    3    0    0  0.30056261976E+03 -0.39632268812E+02 -0.66597330654E+03  0.73173017579E+03  0.00000000000E+00 0.  1.
          1    1    3    3  501    0 -0.30056261090E+03  0.39632240252E+02 -0.22484978637E+03  0.37744671673E+03  0.00000000000E+00 0.  1.
         21    1    1    2  502  501 -0.88656041699E-05  0.28559896451E-04  0.23400469428E-04  0.37971681449E-04  0.00000000000E+00 0. -1.
<mgrwt>
<rscale>  1 0.66083856E+03</rscale>
<asrwt>0</asrwt>
<pdfrwt beam="1">  1        1 0.39700786E+00 0.66083856E+03</pdfrwt>
<pdfrwt beam="2">0</pdfrwt>
<totfact> 0.13767550E+00</totfact>
</mgrwt>
</event>
<event>
 6    1  0.6022095E-003  0.6510478E+03  0.7818608E-02  0.9804815E-01
          1   -1    0    0  502    0  0.00000000000E+00  0.00000000000E+00  0.10596584987E+03  0.10596584987E+03  0.00000000000E+00 0.  1.
         13   -1    0    0    0    0 -0.00000000000E+00 -0.00000000000E+00 -0.10000000000E+04  0.10000000000E+04  0.00000000000E+00 0.  1.
    9000005    2    1    2  501    0 -0.85408670287E-05  0.23653360586E-04 -0.89403419626E+03  0.11059657973E+04  0.65104777151E+03 0.  0.
         13    1    3    3    0    0 -0.12233066418E+03  0.28439591190E+03 -0.27612630511E+03  0.41483920075E+03  0.00000000000E+00 0.  1.
          3    1    3    3  501    0  0.12233065564E+03 -0.28439588825E+03 -0.61790789115E+03  0.69112659658E+03  0.00000000000E+00 0.  1.
         21    1    1    2  502  501  0.85408670226E-05 -0.23653360588E-04  0.46128483531E-04  0.52538222938E-04  0.00000000000E+00 0.  1.
<mgrwt>
<rscale>  1 0.65104777E+03</rscale>
<asrwt>0</asrwt>
<pdfrwt beam="1">  1        1 0.38533118E+00 0.65104777E+03</pdfrwt>
<pdfrwt beam="2">0</pdfrwt>
<totfact> 0.15540437E+00</totfact>
</mgrwt>
</event>
<event>
 6    1  0.6022095E-003  0.6399452E+03  0.7818608E-02  0.9825831E-01
          1   -1    0    0  502    0  0.00000000000E+00  0.00000000000E+00  0.10678949976E+03  0.10678949976E+03  0.00000000000E+00 0.  1.
         13   -1    0    0    0    0 -0.00000000000E+00 -0.00000000000E+00 -0.10000000000E+04  0.10000000000E+04  0.00000000000E+00 0.  1.
    9000005    2    1    2  501    0  0.24776515523E+00 -0.46965741567E-01 -0.89761356745E+03  0.11023792170E+04  0.63994512106E+03 0.  0.
         13    1    3    3    0    0 -0.28112111469E+03  0.57000819280E+01 -0.18598463046E+03  0.33712290759E+03  0.00000000000E+00 0.  1.
          1    1    3    3  501    0  0.28136887984E+03 -0.57470476696E+01 -0.71162893699E+03  0.76525630939E+03  0.00000000000E+00 0.  1.
         21    1    1    2  502  501 -0.24776515523E+00  0.46965741567E-01  0.44030672104E+01  0.44102827815E+01  0.00000000000E+00 0.  1.
<mgrwt>
<rscale>  1 0.63994517E+03</rscale>
<asrwt>0</asrwt>
<pdfrwt beam="1">  1        1 0.38832627E+00 0.63994517E+03</pdfrwt>
<pdfrwt beam="2">0</pdfrwt>
<totfact> 0.15104470E+00</totfact>
</mgrwt>
</event>
<event>
 6    1  0.6022095E-003  0.6668412E+03  0.7818608E-02  0.9775681E-01
          1   -1    0    0  502    0  0.00000000000E+00  0.00000000000E+00  0.11116936000E+03  0.11116936000E+03  0.00000000000E+00 0.  1.
         13   -1    0    0    0    0 -0.00000000000E+00 -0.00000000000E+00 -0.10000000000E+04  0.10000000000E+04  0.00000000000E+00 0.  1.
    9000005    2    1    2  501    0  0.10217384613E-04 -0.29026918725E-04 -0.88883070848E+03  0.11111692849E+04  0.66684117407E+03 0.  0.
         13    1    3    3    0    0 -0.17960548625E+03 -0.24831855196E+03 -0.22556839998E+03  0.38052770860E+03  0.00000000000E+00 0.  1.
          1    1    3    3  501    0  0.17960549647E+03  0.24831852294E+03 -0.66326230849E+03  0.73064157633E+03  0.00000000000E+00 0.  1.
         21    1    1    2  502  501 -0.10217384615E-04  0.29026918732E-04  0.68476397132E-04  0.75073123843E-04  0.00000000000E+00 0.  1.
<mgrwt>
<rscale>  1 0.66684117E+03</rscale>
<asrwt>0</asrwt>
<pdfrwt beam="1">  1        1 0.40425307E+00 0.66684117E+03</pdfrwt>
<pdfrwt beam="2">0</pdfrwt>
<totfact> 0.12765794E+00</totfact>
</mgrwt>
</event>
