<event>
 6    1  0.2681891E-003  0.6677199E+03  0.7818608E-02  0.9774086E-01
          3   -1    0    0  502    0  0.00000000000E+00  0.00000000000E+00  0.11146249697E+03  0.11146249697E+03  0.00000000000E+00 0.  1.
         13   -1    0    0    0    0 -0.00000000000E+00 -0.00000000000E+00 -0.10000000000E+04  0.10000000000E+04  0.00000000000E+00 0.  1.
    9000005    2    1    2  501    0  0.96910668788E-05 -0.24947686157E-04 -0.88853752060E+03  0.11114624650E+04  0.66771991546E+03 0.  0.
         13    1    3    3    0    0  0.17149961664E+03  0.10339055008E+03  0.39339008364E+00  0.20025453580E+03  0.00000000000E+00 0.  1.
          1    1    3    3  501    0 -0.17149960695E+03 -0.10339057503E+03 -0.88893091068E+03  0.91120792915E+03  0.00000000000E+00 0.  1.
         21    1    1    2  502  501 -0.96910668807E-05  0.24947686158E-04  0.17567175104E-04  0.32014207206E-04  0.00000000000E+00 0. -1.
<mgrwt>
<rscale>  1 0.66771992E+03</rscale>
<asrwt>0</asrwt>
<pdfrwt beam="1">  1        3 0.40531903E+00 0.66771992E+03</pdfrwt>
<pdfrwt beam="2">0</pdfrwt>
<totfact> 0.55393503E-02</totfact>
</mgrwt>
</event>
<event>
 6    1  0.2339725E-003  0.6628692E+03  0.7818608E-02  0.9782926E-01
          1   -1    0    0  502    0  0.00000000000E+00  0.00000000000E+00  0.13198599894E+03  0.13198599894E+03  0.00000000000E+00 0.  1.
         13   -1    0    0    0    0 -0.00000000000E+00 -0.00000000000E+00 -0.10000000000E+04  0.10000000000E+04  0.00000000000E+00 0.  1.
    9000005    2    1    2  501    0 -0.37493680613E+02 -0.92647813576E+01 -0.86947685498E+03  0.10933369084E+04  0.66174313871E+03 0.  0.
         13    1    3    3    0    0  0.18485747340E+03  0.19726367186E+03 -0.14258384016E+03  0.30563931877E+03  0.00000000000E+00 0.  1.
          1    1    3    3  501    0 -0.22235115401E+03 -0.20652845322E+03 -0.72689301482E+03  0.78769758961E+03  0.00000000000E+00 0.  1.
         21    1    1    2  502  501  0.37493680613E+02  0.92647813576E+01  0.14628539172E+01  0.38649090560E+02  0.00000000000E+00 0.  1.
<mgrwt>
<rscale>  1 0.66286921E+03</rscale>
<asrwt>0</asrwt>
<pdfrwt beam="1">  1        1 0.47995010E+00 0.66286921E+03</pdfrwt>
<pdfrwt beam="2">0</pdfrwt>
<totfact> 0.57448582E-01</totfact>
</mgrwt>
</event>
<event>
 6    1  0.2339725E-003  0.6483139E+03  0.7818608E-02  0.9809948E-01
          1   -1    0    0  502    0  0.00000000000E+00  0.00000000000E+00  0.11209974666E+03  0.11209974666E+03  0.00000000000E+00 0.  1.
         13   -1    0    0    0    0 -0.00000000000E+00 -0.00000000000E+00 -0.10000000000E+04  0.10000000000E+04  0.00000000000E+00 0.  1.
    9000005    2    1    2  501    0  0.31336061968E+01 -0.17189112254E+01 -0.89441620330E+03  0.11046679402E+04  0.64830404842E+03 0.  0.
         13    1    3    3    0    0  0.32249591052E+03  0.14471152076E+02 -0.52250658567E+03  0.61418739698E+03  0.00000000000E+00 0.  1.
          3    1    3    3  501    0 -0.31936230432E+03 -0.16190063301E+02 -0.37190961763E+03  0.49048054320E+03  0.00000000000E+00 0.  1.
         21    1    1    2  502  501 -0.31336061968E+01  0.17189112254E+01  0.65159499580E+01  0.74318064730E+01  0.00000000000E+00 0.  1.
<mgrwt>
<rscale>  1 0.64831390E+03</rscale>
<asrwt>0</asrwt>
<pdfrwt beam="1">  1        1 0.40763630E+00 0.64831390E+03</pdfrwt>
<pdfrwt beam="2">0</pdfrwt>
<totfact> 0.12372208E+00</totfact>
</mgrwt>
</event>
<event>
 6    1  0.2339725E-003  0.6452768E+03  0.7818608E-02  0.9815682E-01
          1   -1    0    0  502    0  0.00000000000E+00  0.00000000000E+00  0.10409713081E+03  0.10409713081E+03  0.00000000000E+00 0.  1.
         13   -1    0    0    0    0 -0.00000000000E+00 -0.00000000000E+00 -0.10000000000E+04  0.10000000000E+04  0.00000000000E+00 0.  1.
    9000005    2    1    2  501    0 -0.27800086571E-04  0.44985942964E-04 -0.89590445845E+03  0.11040955407E+04  0.64527681212E+03 0.  0.
         13    1    3    3    0    0  0.29965531070E+03 -0.71236012359E+02 -0.28358836881E+03  0.41867676985E+03  0.00000000000E+00 0.  1.
          3    1    3    3  501    0 -0.29965533850E+03  0.71236057345E+02 -0.61231608964E+03  0.68541877082E+03  0.00000000000E+00 0.  1.
         21    1    1    2  502  501  0.27800086595E-04 -0.44985942977E-04  0.15892557368E-02  0.15901353329E-02  0.00000000000E+00 0.  1.
<mgrwt>
<rscale>  1 0.64527681E+03</rscale>
<asrwt>0</asrwt>
<pdfrwt beam="1">  1        1 0.37853582E+00 0.64527681E+03</pdfrwt>
<pdfrwt beam="2">0</pdfrwt>
<totfact> 0.16670025E+00</totfact>
</mgrwt>
</event>
<event>
 6    1  0.2339725E-003  0.5703967E+03  0.7818608E-02  0.9968801E-01
          1   -1    0    0  502    0  0.00000000000E+00  0.00000000000E+00  0.81490655358E+02  0.81490655358E+02  0.00000000000E+00 0.  1.
         13   -1    0    0    0    0 -0.00000000000E+00 -0.00000000000E+00 -0.10000000000E+04  0.10000000000E+04  0.00000000000E+00 0.  1.
    9000005    2    1    2  501    0 -0.16558492082E+00  0.52732438902E-01 -0.91860690736E+03  0.10812913627E+04  0.57039664325E+03 0.  0.
         13    1    3    3    0    0  0.13583011302E+03 -0.86788460156E+02 -0.13322360076E+02  0.16173911616E+03  0.00000000000E+00 0.  1.
          1    1    3    3  501    0 -0.13599569794E+03  0.86841192595E+02 -0.90528454728E+03  0.91955224655E+03  0.00000000000E+00 0.  1.
         21    1    1    2  502  501  0.16558492082E+00 -0.52732438902E-01  0.97562712971E-01  0.19929264683E+00  0.00000000000E+00 0. -1.
<mgrwt>
<rscale>  1 0.57039667E+03</rscale>
<asrwt>0</asrwt>
<pdfrwt beam="1">  1        1 0.29633028E+00 0.57039667E+03</pdfrwt>
<pdfrwt beam="2">0</pdfrwt>
<totfact> 0.38469063E+00</totfact>
</mgrwt>
</event>
<event>
 6    1  0.2339725E-003  0.6453951E+03  0.7818608E-02  0.9815459E-01
          1   -1    0    0  502    0  0.00000000000E+00  0.00000000000E+00  0.10413414357E+03  0.10413414357E+03  0.00000000000E+00 0.  1.
         13   -1    0    0    0    0 -0.00000000000E+00 -0.00000000000E+00 -0.10000000000E+04  0.10000000000E+04  0.00000000000E+00 0.  1.
    9000005    2    1    2  501    0  0.22150545001E-03  0.19263826590E-03 -0.89586624719E+03  0.11041336548E+04  0.64539506882E+03 0.  0.
         13    1    3    3    0    0  0.19559462153E+01  0.22567243663E+03 -0.84253536742E+03  0.87223719236E+03  0.00000000000E+00 0.  1.
          1    1    3    3  501    0 -0.19557247098E+01 -0.22567224399E+03 -0.53330879776E+02  0.23189646247E+03  0.00000000000E+00 0.  1.
         21    1    1    2  502  501 -0.22150545001E-03 -0.19263826588E-03  0.39075983861E-03  0.48874064424E-03  0.00000000000E+00 0. -1.
<mgrwt>
<rscale>  1 0.64539507E+03</rscale>
<asrwt>0</asrwt>
<pdfrwt beam="1">  1        1 0.37867041E+00 0.64539507E+03</pdfrwt>
<pdfrwt beam="2">0</pdfrwt>
<totfact> 0.16646900E+00</totfact>
</mgrwt>
</event>
<event>
 6    1  0.2339725E-003  0.6505256E+03  0.7818608E-02  0.9805793E-01
          1   -1    0    0  502    0  0.00000000000E+00  0.00000000000E+00  0.10783305984E+03  0.10783305984E+03  0.00000000000E+00 0.  1.
         13   -1    0    0    0    0 -0.00000000000E+00 -0.00000000000E+00 -0.10000000000E+04  0.10000000000E+04  0.00000000000E+00 0.  1.
    9000005    2    1    2  501    0 -0.74837923613E+00  0.38466748724E-02 -0.89412783244E+03  0.11057342066E+04  0.65052516852E+03 0.  0.
         13    1    3    3    0    0  0.29860129929E+03  0.66841179684E+02 -0.63234032237E+03  0.70248470626E+03  0.00000000000E+00 0.  1.
          3    1    3    3  501    0 -0.29934967852E+03 -0.66837333009E+02 -0.26178751007E+03  0.40324950036E+03  0.00000000000E+00 0.  1.
         21    1    1    2  502  501  0.74837923613E+00 -0.38466748724E-02  0.19608922788E+01  0.20988532124E+01  0.00000000000E+00 0.  1.
<mgrwt>
<rscale>  1 0.65052560E+03</rscale>
<asrwt>0</asrwt>
<pdfrwt beam="1">  1        1 0.39212104E+00 0.65052560E+03</pdfrwt>
<pdfrwt beam="2">0</pdfrwt>
<totfact> 0.14501636E+00</totfact>
</mgrwt>
</event>
<event>
 6    1  0.2339725E-003  0.6403732E+03  0.7818608E-02  0.9825013E-01
          1   -1    0    0  502    0  0.00000000000E+00  0.00000000000E+00  0.10251965379E+03  0.10251965379E+03  0.00000000000E+00 0.  1.
         13   -1    0    0    0    0 -0.00000000000E+00 -0.00000000000E+00 -0.10000000000E+04  0.10000000000E+04  0.00000000000E+00 0.  1.
    9000005    2    1    2  501    0 -0.13713065513E-04 -0.30743235300E-05 -0.89748052605E+03  0.11025194734E+04  0.64037324631E+03 0.  0.
         13    1    3    3    0    0  0.85004941376E+01  0.90349580669E+02 -0.97739542302E+03  0.98159926552E+03  0.00000000000E+00 0.  1.
          1    1    3    3  501    0 -0.85005078507E+01 -0.90349583743E+02  0.79914896972E+02  0.12092020788E+03  0.00000000000E+00 0.  1.
         21    1    1    2  502  501  0.13713065514E-04  0.30743235287E-05  0.17983569593E-03  0.18038397147E-03  0.00000000000E+00 0.  1.
<mgrwt>
<rscale>  1 0.64037325E+03</rscale>
<asrwt>0</asrwt>
<pdfrwt beam="1">  1        1 0.37279953E+00 0.64037325E+03</pdfrwt>
<pdfrwt beam="2">0</pdfrwt>
<totfact> 0.17684147E+00</totfact>
</mgrwt>
</event>
<event>
 6    1  0.2339725E-003  0.6500017E+03  0.7818608E-02  0.9806776E-01
          1   -1    0    0  502    0  0.00000000000E+00  0.00000000000E+00  0.10562557889E+03  0.10562557889E+03  0.00000000000E+00 0.  1.
         13   -1    0    0    0    0 -0.00000000000E+00 -0.00000000000E+00 -0.10000000000E+04  0.10000000000E+04  0.00000000000E+00 0.  1.
    9000005    2    1    2  501    0  0.48650068010E-05 -0.13393820552E-04 -0.89437445995E+03  0.11056255375E+04  0.65000165737E+03 0.  0.
         13    1    3    3    0    0 -0.92533693287E+02  0.31136861076E+03 -0.42913478466E+03  0.53820958703E+03  0.00000000000E+00 0.  1.
          3    1    3    3  501    0  0.92533698152E+02 -0.31136862415E+03 -0.46523967529E+03  0.56741595049E+03  0.00000000000E+00 0.  1.
         21    1    1    2  502  501 -0.48650068018E-05  0.13393820521E-04  0.38840846460E-04  0.41372382976E-04  0.00000000000E+00 0.  1.
<mgrwt>
<rscale>  1 0.65000166E+03</rscale>
<asrwt>0</asrwt>
<pdfrwt beam="1">  1        1 0.38409382E+00 0.65000166E+03</pdfrwt>
<pdfrwt beam="2">0</pdfrwt>
<totfact> 0.15740532E+00</totfact>
</mgrwt>
</event>
<event>
 6    1  0.2339725E-003  0.6114281E+03  0.7818608E-02  0.9881976E-01
          1   -1    0    0  502    0  0.00000000000E+00  0.00000000000E+00  0.93501345211E+02  0.93501345211E+02  0.00000000000E+00 0.  1.
         13   -1    0    0    0    0 -0.00000000000E+00 -0.00000000000E+00 -0.10000000000E+04  0.10000000000E+04  0.00000000000E+00 0.  1.
    9000005    2    1    2  501    0 -0.90374625609E-03  0.27296248439E-03 -0.90653892394E+03  0.10934610650E+04  0.61142806612E+03 0.  0.
         13    1    3    3    0    0 -0.52448609582E+02  0.16311995071E+03 -0.48223911142E+00  0.17134528743E+03  0.00000000000E+00 0.  1.
          1    1    3    3  501    0  0.52447705836E+02 -0.16311967775E+03 -0.90605668483E+03  0.92211577757E+03  0.00000000000E+00 0.  1.
         21    1    1    2  502  501  0.90374625609E-03 -0.27296248440E-03  0.40269151537E-01  0.40280216377E-01  0.00000000000E+00 0. -1.
<mgrwt>
<rscale>  1 0.61142807E+03</rscale>
<asrwt>0</asrwt>
<pdfrwt beam="1">  1        1 0.34000561E+00 0.61142807E+03</pdfrwt>
<pdfrwt beam="2">0</pdfrwt>
<totfact> 0.24723053E+00</totfact>
</mgrwt>
</event>
<event>
 6    1  0.2339725E-003  0.6526763E+03  0.7818608E-02  0.9801770E-01
          1   -1    0    0  502    0  0.00000000000E+00  0.00000000000E+00  0.10740384263E+03  0.10740384263E+03  0.00000000000E+00 0.  1.
         13   -1    0    0    0    0 -0.00000000000E+00 -0.00000000000E+00 -0.10000000000E+04  0.10000000000E+04  0.00000000000E+00 0.  1.
    9000005    2    1    2  501    0 -0.12170814374E-01  0.46197091865E-02 -0.89350334852E+03  0.11064965581E+04  0.65267633561E+03 0.  0.
         13    1    3    3    0    0 -0.20950829652E+03 -0.21172891273E+03 -0.22072770823E+03  0.37073383980E+03  0.00000000000E+00 0.  1.
          3    1    3    3  501    0  0.20949612570E+03  0.21173353244E+03 -0.67277564029E+03  0.73576271828E+03  0.00000000000E+00 0.  1.
         21    1    1    2  502  501  0.12170814374E-01 -0.46197091865E-02  0.90719114951E+00  0.90728454863E+00  0.00000000000E+00 0. -1.
<mgrwt>
<rscale>  1 0.65267634E+03</rscale>
<asrwt>0</asrwt>
<pdfrwt beam="1">  1        1 0.39056025E+00 0.65267634E+03</pdfrwt>
<pdfrwt beam="2">0</pdfrwt>
<totfact> 0.14728830E+00</totfact>
</mgrwt>
</event>
<event>
 6    1  0.2339725E-003  0.6161713E+03  0.7818608E-02  0.9872412E-01
          1   -1    0    0  502    0  0.00000000000E+00  0.00000000000E+00  0.94934380186E+02  0.94934380186E+02  0.00000000000E+00 0.  1.
         13   -1    0    0    0    0 -0.00000000000E+00 -0.00000000000E+00 -0.10000000000E+04  0.10000000000E+04  0.00000000000E+00 0.  1.
    9000005    2    1    2  501    0  0.40013452183E-01  0.40101837355E-01 -0.90496867811E+03  0.10948220996E+04  0.61617133837E+03 0.  0.
         13    1    3    3    0    0 -0.34803524620E+02  0.27883785622E+03 -0.67701105165E+03  0.73301145928E+03  0.00000000000E+00 0.  1.
          1    1    3    3  501    0  0.34843538073E+02 -0.27879775438E+03 -0.22795762646E+03  0.36181064033E+03  0.00000000000E+00 0.  1.
         21    1    1    2  502  501 -0.40013452183E-01 -0.40101837355E-01 -0.96941701843E-01  0.11228057388E+00  0.00000000000E+00 0.  1.
<mgrwt>
<rscale>  1 0.61617134E+03</rscale>
<asrwt>0</asrwt>
<pdfrwt beam="1">  1        1 0.34521666E+00 0.61617134E+03</pdfrwt>
<pdfrwt beam="2">0</pdfrwt>
<totfact> 0.23446867E+00</totfact>
</mgrwt>
</event>
<event>
 6    1  0.2339725E-003  0.6438153E+03  0.7818608E-02  0.9818454E-01
          1   -1    0    0  502    0  0.00000000000E+00  0.00000000000E+00  0.10362534372E+03  0.10362534372E+03  0.00000000000E+00 0.  1.
         13   -1    0    0    0    0 -0.00000000000E+00 -0.00000000000E+00 -0.10000000000E+04  0.10000000000E+04  0.00000000000E+00 0.  1.
    9000005    2    1    2  501    0 -0.11230882330E-03  0.70703361388E-04 -0.89637546522E+03  0.11036245240E+04  0.64381528037E+03 0.  0.
         13    1    3    3    0    0  0.23294637788E+03  0.17845101092E+03 -0.22131916643E+03  0.36754721016E+03  0.00000000000E+00 0.  1.
          1    1    3    3  501    0 -0.23294649019E+03 -0.17845094021E+03 -0.67505629879E+03  0.73607731380E+03  0.00000000000E+00 0.  1.
         21    1    1    2  502  501  0.11230882330E-03 -0.70703361386E-04  0.80894388501E-03  0.81975755331E-03  0.00000000000E+00 0. -1.
<mgrwt>
<rscale>  1 0.64381528E+03</rscale>
<asrwt>0</asrwt>
<pdfrwt beam="1">  1        1 0.37682023E+00 0.64381528E+03</pdfrwt>
<pdfrwt beam="2">0</pdfrwt>
<totfact> 0.16967342E+00</totfact>
</mgrwt>
</event>
<event>
 6    1  0.2339725E-003  0.6002846E+03  0.7818608E-02  0.9904816E-01
          1   -1    0    0  502    0  0.00000000000E+00  0.00000000000E+00  0.90116121099E+02  0.90116121099E+02  0.00000000000E+00 0.  1.
         13   -1    0    0    0    0 -0.00000000000E+00 -0.00000000000E+00 -0.10000000000E+04  0.10000000000E+04  0.00000000000E+00 0.  1.
    9000005    2    1    2  501    0 -0.22188452838E-02  0.20357778595E-02 -0.90991451201E+03  0.10900853403E+04  0.60028462420E+03 0.  0.
         13    1    3    3    0    0  0.27758401729E+03  0.72391636313E+02 -0.29466331190E+03  0.41124190331E+03  0.00000000000E+00 0.  1.
          1    1    3    3  501    0 -0.27758623613E+03 -0.72389600535E+02 -0.61525120011E+03  0.67884343703E+03  0.00000000000E+00 0.  1.
         21    1    1    2  502  501  0.22188452838E-02 -0.20357778595E-02  0.30633109278E-01  0.30780757787E-01  0.00000000000E+00 0.  1.
<mgrwt>
<rscale>  1 0.60028462E+03</rscale>
<asrwt>0</asrwt>
<pdfrwt beam="1">  1        1 0.32769568E+00 0.60028462E+03</pdfrwt>
<pdfrwt beam="2">0</pdfrwt>
<totfact> 0.28011334E+00</totfact>
</mgrwt>
</event>
<event>
 6    1  0.2339725E-003  0.6100845E+03  0.7818608E-02  0.9884702E-01
          1   -1    0    0  502    0  0.00000000000E+00  0.00000000000E+00  0.93096834586E+02  0.93096834586E+02  0.00000000000E+00 0.  1.
         13   -1    0    0    0    0 -0.00000000000E+00 -0.00000000000E+00 -0.10000000000E+04  0.10000000000E+04  0.00000000000E+00 0.  1.
    9000005    2    1    2  501    0 -0.14056521532E-02 -0.50166405288E-03 -0.90694921033E+03  0.10930507655E+04  0.61008450710E+03 0.  0.
         13    1    3    3    0    0 -0.14605001956E+02  0.30467305590E+03 -0.45959399570E+03  0.55160277189E+03  0.00000000000E+00 0.  1.
          1    1    3    3  501    0  0.14603596304E+02 -0.30467355757E+03 -0.44735521463E+03  0.54144799359E+03  0.00000000000E+00 0.  1.
         21    1    1    2  502  501  0.14056521532E-02  0.50166405285E-03  0.46044917953E-01  0.46069100210E-01  0.00000000000E+00 0.  1.
<mgrwt>
<rscale>  1 0.61008451E+03</rscale>
<asrwt>0</asrwt>
<pdfrwt beam="1">  1        1 0.33853466E+00 0.61008451E+03</pdfrwt>
<pdfrwt beam="2">0</pdfrwt>
<totfact> 0.25095333E+00</totfact>
</mgrwt>
</event>
<event>
 6    1  0.2339725E-003  0.6553144E+03  0.7818608E-02  0.9796858E-01
          1   -1    0    0  502    0  0.00000000000E+00  0.00000000000E+00  0.10779185711E+03  0.10779185711E+03  0.00000000000E+00 0.  1.
         13   -1    0    0    0    0 -0.00000000000E+00 -0.00000000000E+00 -0.10000000000E+04  0.10000000000E+04  0.00000000000E+00 0.  1.
    9000005    2    1    2  501    0 -0.45509367476E-01  0.34371892437E-01 -0.89263869265E+03  0.11073575466E+04  0.65531434984E+03 0.  0.
         13    1    3    3    0    0  0.20084878928E+03 -0.21409353487E+03 -0.69213049504E+03  0.75181174505E+03  0.00000000000E+00 0.  1.
          1    1    3    3  501    0 -0.20089429865E+03  0.21412790676E+03 -0.20050819761E+03  0.35554580154E+03  0.00000000000E+00 0.  1.
         21    1    1    2  502  501  0.45509367476E-01 -0.34371892437E-01  0.43054976184E+00  0.43431051903E+00  0.00000000000E+00 0. -1.
<mgrwt>
<rscale>  1 0.65531435E+03</rscale>
<asrwt>0</asrwt>
<pdfrwt beam="1">  1        1 0.39197122E+00 0.65531435E+03</pdfrwt>
<pdfrwt beam="2">0</pdfrwt>
<totfact> 0.14510886E+00</totfact>
</mgrwt>
</event>
<event>
 6    1  0.2339725E-003  0.6552172E+03  0.7818608E-02  0.9797038E-01
          1   -1    0    0  502    0  0.00000000000E+00  0.00000000000E+00  0.10743799552E+03  0.10743799552E+03  0.00000000000E+00 0.  1.
         13   -1    0    0    0    0 -0.00000000000E+00 -0.00000000000E+00 -0.10000000000E+04  0.10000000000E+04  0.00000000000E+00 0.  1.
    9000005    2    1    2  501    0  0.13921352062E-02 -0.36066391978E-02 -0.89267257865E+03  0.11073273538E+04  0.65521716687E+03 0.  0.
         13    1    3    3    0    0  0.10128211560E+03  0.27514652016E+03 -0.69334787635E+03  0.75279144000E+03  0.00000000000E+00 0.  1.
          1    1    3    3  501    0 -0.10128072346E+03 -0.27515012680E+03 -0.19932470230E+03  0.35453591379E+03  0.00000000000E+00 0.  1.
         21    1    1    2  502  501 -0.13921352062E-02  0.36066391978E-02  0.11057416906E+00  0.11064173150E+00  0.00000000000E+00 0. -1.
<mgrwt>
<rscale>  1 0.65521717E+03</rscale>
<asrwt>0</asrwt>
<pdfrwt beam="1">  1        1 0.39068444E+00 0.65521717E+03</pdfrwt>
<pdfrwt beam="2">0</pdfrwt>
<totfact> 0.14703213E+00</totfact>
</mgrwt>
</event>
<event>
 6    1  0.2339725E-003  0.6729371E+03  0.7818608E-02  0.9764666E-01
          1   -1    0    0  502    0  0.00000000000E+00  0.00000000000E+00  0.12346688578E+03  0.12346688578E+03  0.00000000000E+00 0.  1.
         13   -1    0    0    0    0 -0.00000000000E+00 -0.00000000000E+00 -0.10000000000E+04  0.10000000000E+04  0.00000000000E+00 0.  1.
    9000005    2    1    2  501    0 -0.11053875582E+02 -0.22262757430E+02 -0.86535449751E+03  0.10962128952E+04  0.67247787072E+03 0.  0.
         13    1    3    3    0    0  0.37642024832E+02  0.32167891208E+03 -0.37879289562E+03  0.49837566382E+03  0.00000000000E+00 0.  1.
          1    1    3    3  501    0 -0.48695900414E+02 -0.34394166951E+03 -0.48656160189E+03  0.59783723134E+03  0.00000000000E+00 0.  1.
         21    1    1    2  502  501  0.11053875582E+02  0.22262757430E+02 -0.11178616701E+02  0.27253990627E+02  0.00000000000E+00 0.  1.
<mgrwt>
<rscale>  1 0.67293707E+03</rscale>
<asrwt>0</asrwt>
<pdfrwt beam="1">  1        1 0.44897144E+00 0.67293707E+03</pdfrwt>
<pdfrwt beam="2">0</pdfrwt>
<totfact> 0.79941630E-01</totfact>
</mgrwt>
</event>
<event>
 6    1  0.2339725E-003  0.6535717E+03  0.7818608E-02  0.9800100E-01
          1   -1    0    0  502    0  0.00000000000E+00  0.00000000000E+00  0.10678935622E+03  0.10678935622E+03  0.00000000000E+00 0.  1.
         13   -1    0    0    0    0 -0.00000000000E+00 -0.00000000000E+00 -0.10000000000E+04  0.10000000000E+04  0.00000000000E+00 0.  1.
    9000005    2    1    2  501    0 -0.23273771831E-04  0.29875471363E-04 -0.89321100674E+03  0.11067889913E+04  0.65357170124E+03 0.  0.
         13    1    3    3    0    0  0.28461494906E+03  0.17602688312E+02 -0.17632445205E+03  0.33526979622E+03  0.00000000000E+00 0.  1.
          1    1    3    3  501    0 -0.28461497233E+03 -0.17602658436E+02 -0.71688655469E+03  0.77151919507E+03  0.00000000000E+00 0.  1.
         21    1    1    2  502  501  0.23273771870E-04 -0.29875471364E-04  0.36296371565E-03  0.36493406408E-03  0.00000000000E+00 0. -1.
<mgrwt>
<rscale>  1 0.65357170E+03</rscale>
<asrwt>0</asrwt>
<pdfrwt beam="1">  1        1 0.38832575E+00 0.65357170E+03</pdfrwt>
<pdfrwt beam="2">0</pdfrwt>
<totfact> 0.15066149E+00</totfact>
</mgrwt>
</event>
<event>
 6    1  0.2339725E-003  0.6484330E+03  0.7818608E-02  0.9809724E-01
          1   -1    0    0  502    0  0.00000000000E+00  0.00000000000E+00  0.10511635374E+03  0.10511635374E+03  0.00000000000E+00 0.  1.
         13   -1    0    0    0    0 -0.00000000000E+00 -0.00000000000E+00 -0.10000000000E+04  0.10000000000E+04  0.00000000000E+00 0.  1.
    9000005    2    1    2  501    0 -0.31436117993E-05 -0.47058623061E-05 -0.89488367035E+03  0.11051163290E+04  0.64843297045E+03 0.  0.
         13    1    3    3    0    0 -0.22188092646E+02 -0.27624912781E+02  0.10180670375E+03  0.10779634590E+03  0.00000000000E+00 0.  1.
          1    1    3    3  501    0  0.22188089502E+02  0.27624908075E+02 -0.99669037410E+03  0.99731998309E+03  0.00000000000E+00 0.  1.
         21    1    1    2  502  501  0.31436117967E-05  0.47058623049E-05  0.24090812444E-04  0.24746609452E-04  0.00000000000E+00 0. -1.
<mgrwt>
<rscale>  1 0.64843297E+03</rscale>
<asrwt>0</asrwt>
<pdfrwt beam="1">  1        1 0.38224209E+00 0.64843297E+03</pdfrwt>
<pdfrwt beam="2">0</pdfrwt>
<totfact> 0.16044570E+00</totfact>
</mgrwt>
</event>
<event>
 6    1  0.2339725E-003  0.6572888E+03  0.7818608E-02  0.9793198E-01
          1   -1    0    0  502    0  0.00000000000E+00  0.00000000000E+00  0.10809198601E+03  0.10809198601E+03  0.00000000000E+00 0.  1.
         13   -1    0    0    0    0 -0.00000000000E+00 -0.00000000000E+00 -0.10000000000E+04  0.10000000000E+04  0.00000000000E+00 0.  1.
    9000005    2    1    2  501    0  0.72423792237E-02 -0.99523476513E-02 -0.89199236258E+03  0.11080067441E+04  0.65728880250E+03 0.  0.
         13    1    3    3    0    0  0.53398439872E+01  0.25725399321E+03 -0.79062335180E+03  0.83144056635E+03  0.00000000000E+00 0.  1.
          1    1    3    3  501    0 -0.53326016080E+01 -0.25726394556E+03 -0.10136901078E+03  0.27656617774E+03  0.00000000000E+00 0.  1.
         21    1    1    2  502  501 -0.72423792237E-02  0.99523476513E-02  0.84348584392E-01  0.85241920260E-01  0.00000000000E+00 0. -1.
<mgrwt>
<rscale>  1 0.65728880E+03</rscale>
<asrwt>0</asrwt>
<pdfrwt beam="1">  1        1 0.39306260E+00 0.65728880E+03</pdfrwt>
<pdfrwt beam="2">0</pdfrwt>
<totfact> 0.14344586E+00</totfact>
</mgrwt>
</event>
<event>
 6    1  0.2339725E-003  0.6500818E+03  0.7818608E-02  0.9806626E-01
          1   -1    0    0  502    0  0.00000000000E+00  0.00000000000E+00  0.10565513350E+03  0.10565513350E+03  0.00000000000E+00 0.  1.
         13   -1    0    0    0    0 -0.00000000000E+00 -0.00000000000E+00 -0.10000000000E+04  0.10000000000E+04  0.00000000000E+00 0.  1.
    9000005    2    1    2  501    0  0.18507296625E-03  0.15187429157E-03 -0.89434840558E+03  0.11056515863E+04  0.65008181008E+03 0.  0.
         13    1    3    3    0    0  0.30993337981E+03 -0.61477978099E+02 -0.57685198756E+03  0.65772065291E+03  0.00000000000E+00 0.  1.
          3    1    3    3  501    0 -0.30993319474E+03  0.61478129974E+02 -0.31749641802E+03  0.44793093342E+03  0.00000000000E+00 0.  1.
         21    1    1    2  502  501 -0.18507296622E-03 -0.15187429157E-03  0.35390809887E-02  0.35471695826E-02  0.00000000000E+00 0.  1.
<mgrwt>
<rscale>  1 0.65008181E+03</rscale>
<asrwt>0</asrwt>
<pdfrwt beam="1">  1        1 0.38420130E+00 0.65008181E+03</pdfrwt>
<pdfrwt beam="2">0</pdfrwt>
<totfact> 0.15723087E+00</totfact>
</mgrwt>
</event>
<event>
 6    1  0.2339725E-003  0.6132093E+03  0.7818608E-02  0.9878374E-01
          3   -1    0    0  502    0  0.00000000000E+00  0.00000000000E+00  0.94239956207E+02  0.94239956207E+02  0.00000000000E+00 0.  1.
         13   -1    0    0    0    0 -0.00000000000E+00 -0.00000000000E+00 -0.10000000000E+04  0.10000000000E+04  0.00000000000E+00 0.  1.
    9000005    2    1    2  501    0 -0.42357210284E-02 -0.15756423310E-02 -0.90599356269E+03  0.10940063936E+04  0.61320930647E+03 0.  0.
         13    1    3    3    0    0 -0.29707817565E+03 -0.50423718892E+02 -0.35192419687E+03  0.46330188238E+03  0.00000000000E+00 0.  1.
          1    1    3    3  501    0  0.29707393993E+03  0.50422143250E+02 -0.55406936582E+03  0.63070451121E+03  0.00000000000E+00 0.  1.
         21    1    1    2  502  501  0.42357210284E-02  0.15756423310E-02  0.23351889694E+00  0.23356262374E+00  0.00000000000E+00 0.  1.
<mgrwt>
<rscale>  1 0.61320931E+03</rscale>
<asrwt>0</asrwt>
<pdfrwt beam="1">  1        3 0.34269147E+00 0.61320931E+03</pdfrwt>
<pdfrwt beam="2">0</pdfrwt>
<totfact> 0.11981516E-01</totfact>
</mgrwt>
</event>
<event>
 6    1  0.2339725E-003  0.6437504E+03  0.7818608E-02  0.9818577E-01
          1   -1    0    0  502    0  0.00000000000E+00  0.00000000000E+00  0.10755112826E+03  0.10755112826E+03  0.00000000000E+00 0.  1.
         13   -1    0    0    0    0 -0.00000000000E+00 -0.00000000000E+00 -0.10000000000E+04  0.10000000000E+04  0.00000000000E+00 0.  1.
    9000005    2    1    2  501    0 -0.38587468703E+01  0.24276534007E+01 -0.89488949654E+03  0.11023800473E+04  0.64373424202E+03 0.  0.
         13    1    3    3    0    0 -0.20441668025E+03  0.15819819572E+03 -0.78357868559E+03  0.82511114694E+03  0.00000000000E+00 0.  1.
          1    1    3    3  501    0  0.20055793338E+03 -0.15577054232E+03 -0.11131081094E+03  0.27726890040E+03  0.00000000000E+00 0.  1.
         21    1    1    2  502  501  0.38587468703E+01 -0.24276534007E+01  0.24406247998E+01  0.51710809176E+01  0.00000000000E+00 0.  1.
<mgrwt>
<rscale>  1 0.64375038E+03</rscale>
<asrwt>0</asrwt>
<pdfrwt beam="1">  1        1 0.39109584E+00 0.64375038E+03</pdfrwt>
<pdfrwt beam="2">0</pdfrwt>
<totfact> 0.14673002E+00</totfact>
</mgrwt>
</event>
<event>
 6    1  0.2339725E-003  0.6423410E+03  0.7818608E-02  0.9821258E-01
          1   -1    0    0  502    0  0.00000000000E+00  0.00000000000E+00  0.10316438356E+03  0.10316438356E+03  0.00000000000E+00 0.  1.
         13   -1    0    0    0    0 -0.00000000000E+00 -0.00000000000E+00 -0.10000000000E+04  0.10000000000E+04  0.00000000000E+00 0.  1.
    9000005    2    1    2  501    0 -0.48741483836E-02 -0.35976293983E-02 -0.89684877254E+03  0.11031498997E+04  0.64234101559E+03 0.  0.
         13    1    3    3    0    0 -0.17468149440E+02 -0.25973770334E+03 -0.77147261487E+03  0.81421054174E+03  0.00000000000E+00 0.  1.
          1    1    3    3  501    0  0.17463275291E+02  0.25973410571E+03 -0.12537615766E+03  0.28893935793E+03  0.00000000000E+00 0.  1.
         21    1    1    2  502  501  0.48741483836E-02  0.35976293983E-02  0.13156098726E-01  0.14483894278E-01  0.00000000000E+00 0. -1.
<mgrwt>
<rscale>  1 0.64234102E+03</rscale>
<asrwt>0</asrwt>
<pdfrwt beam="1">  1        1 0.37514400E+00 0.64234102E+03</pdfrwt>
<pdfrwt beam="2">0</pdfrwt>
<totfact> 0.17262862E+00</totfact>
</mgrwt>
</event>
<event>
 6    1  0.2339725E-003  0.6365526E+03  0.7818608E-02  0.9832345E-01
          1   -1    0    0  502    0  0.00000000000E+00  0.00000000000E+00  0.10254823978E+03  0.10254823978E+03  0.00000000000E+00 0.  1.
         13   -1    0    0    0    0 -0.00000000000E+00 -0.00000000000E+00 -0.10000000000E+04  0.10000000000E+04  0.00000000000E+00 0.  1.
    9000005    2    1    2  501    0  0.44025430949E+00  0.58281650700E+00 -0.89858151283E+03  0.11012029369E+04  0.63655214985E+03 0.  0.
         13    1    3    3    0    0  0.12499274903E+03  0.26757738876E+03 -0.24296035589E+03  0.38242722290E+03  0.00000000000E+00 0.  1.
          1    1    3    3  501    0 -0.12455249472E+03 -0.26699457225E+03 -0.65562115695E+03  0.71877571397E+03  0.00000000000E+00 0.  1.
         21    1    1    2  502  501 -0.44025430949E+00 -0.58281650700E+00  0.11297526143E+01  0.13453029054E+01  0.00000000000E+00 0.  1.
<mgrwt>
<rscale>  1 0.63655257E+03</rscale>
<asrwt>0</asrwt>
<pdfrwt beam="1">  1        1 0.37290348E+00 0.63655257E+03</pdfrwt>
<pdfrwt beam="2">0</pdfrwt>
<totfact> 0.17677905E+00</totfact>
</mgrwt>
</event>
<event>
 6    1  0.2339725E-003  0.6256164E+03  0.7818608E-02  0.9853641E-01
          1   -1    0    0  502    0  0.00000000000E+00  0.00000000000E+00  0.97849350748E+02  0.97849350748E+02  0.00000000000E+00 0.  1.
         13   -1    0    0    0    0 -0.00000000000E+00 -0.00000000000E+00 -0.10000000000E+04  0.10000000000E+04  0.00000000000E+00 0.  1.
    9000005    2    1    2  501    0  0.75095065739E-05  0.18335503881E-04 -0.90215102668E+03  0.10978489728E+04  0.62561640974E+03 0.  0.
         13    1    3    3    0    0  0.10967951065E+03 -0.22738940680E+03 -0.12696196342E+03  0.28258605333E+03  0.00000000000E+00 0.  1.
          3    1    3    3  501    0 -0.10967950314E+03  0.22738942513E+03 -0.77518906326E+03  0.81526291947E+03  0.00000000000E+00 0.  1.
         21    1    1    2  502  501 -0.75095065747E-05 -0.18335503888E-04  0.37742953030E-03  0.37794924756E-03  0.00000000000E+00 0.  1.
<mgrwt>
<rscale>  1 0.62561641E+03</rscale>
<asrwt>0</asrwt>
<pdfrwt beam="1">  1        1 0.35581657E+00 0.62561641E+03</pdfrwt>
<pdfrwt beam="2">0</pdfrwt>
<totfact> 0.21045247E+00</totfact>
</mgrwt>
</event>
<event>
 6    1  0.2339725E-003  0.6455600E+03  0.7818608E-02  0.9815146E-01
          1   -1    0    0  502    0  0.00000000000E+00  0.00000000000E+00  0.10418785541E+03  0.10418785541E+03  0.00000000000E+00 0.  1.
         13   -1    0    0    0    0 -0.00000000000E+00 -0.00000000000E+00 -0.10000000000E+04  0.10000000000E+04  0.00000000000E+00 0.  1.
    9000005    2    1    2  501    0  0.66081151800E-04  0.43933581992E-04 -0.89581306498E+03  0.11041869316E+04  0.64556001467E+03 0.  0.
         13    1    3    3    0    0 -0.18806659357E+03  0.23970530460E+03 -0.63020410539E+03  0.69998920787E+03  0.00000000000E+00 0.  1.
          1    1    3    3  501    0  0.18806665965E+03 -0.23970526067E+03 -0.26560895958E+03  0.40419772374E+03  0.00000000000E+00 0.  1.
         21    1    1    2  502  501 -0.66081151802E-04 -0.43933581992E-04  0.92038638771E-03  0.92380083402E-03  0.00000000000E+00 0. -1.
<mgrwt>
<rscale>  1 0.64556001E+03</rscale>
<asrwt>0</asrwt>
<pdfrwt beam="1">  1        1 0.37886573E+00 0.64556001E+03</pdfrwt>
<pdfrwt beam="2">0</pdfrwt>
<totfact> 0.16613417E+00</totfact>
</mgrwt>
</event>
<event>
 6    1  0.2339725E-003  0.6637904E+03  0.7818608E-02  0.9781241E-01
          1   -1    0    0  502    0  0.00000000000E+00  0.00000000000E+00  0.11170973048E+03  0.11170973048E+03  0.00000000000E+00 0.  1.
         13   -1    0    0    0    0 -0.00000000000E+00 -0.00000000000E+00 -0.10000000000E+04  0.10000000000E+04  0.00000000000E+00 0.  1.
    9000005    2    1    2  501    0  0.13033659742E+01  0.30537669420E+01 -0.88753738783E+03  0.11083051620E+04  0.66378211272E+03 0.  0.
         13    1    3    3    0    0  0.56596613167E+02  0.20541580647E+03 -0.18009667575E+02  0.21382978814E+03  0.00000000000E+00 0.  1.
          1    1    3    3  501    0 -0.55293247193E+02 -0.20236203953E+03 -0.86952772026E+03  0.89447537391E+03  0.00000000000E+00 0.  1.
         21    1    1    2  502  501 -0.13033659742E+01 -0.30537669420E+01 -0.75288168407E+00  0.34045684351E+01  0.00000000000E+00 0.  1.
<mgrwt>
<rscale>  1 0.66379042E+03</rscale>
<asrwt>0</asrwt>
<pdfrwt beam="1">  1        1 0.40621806E+00 0.66379042E+03</pdfrwt>
<pdfrwt beam="2">0</pdfrwt>
<totfact> 0.12517242E+00</totfact>
</mgrwt>
</event>
<event>
 6    1  0.2339725E-003  0.6481172E+03  0.7818608E-02  0.9810319E-01
          1   -1    0    0  502    0  0.00000000000E+00  0.00000000000E+00  0.10501742893E+03  0.10501742893E+03  0.00000000000E+00 0.  1.
         13   -1    0    0    0    0 -0.00000000000E+00 -0.00000000000E+00 -0.10000000000E+04  0.10000000000E+04  0.00000000000E+00 0.  1.
    9000005    2    1    2  501    0  0.66896737295E-03  0.11409931388E-03 -0.89498598762E+03  0.11050139456E+04  0.64811719773E+03 0.  0.
         13    1    3    3    0    0  0.24234446711E+03  0.39208274685E+02 -0.86838825442E+02  0.26040182631E+03  0.00000000000E+00 0.  1.
          1    1    3    3  501    0 -0.24234379814E+03 -0.39208160586E+02 -0.80814716218E+03  0.84461211932E+03  0.00000000000E+00 0.  1.
         21    1    1    2  502  501 -0.66896737294E-03 -0.11409931388E-03  0.34165564421E-02  0.34833021577E-02  0.00000000000E+00 0.  1.
<mgrwt>
<rscale>  1 0.64811720E+03</rscale>
<asrwt>0</asrwt>
<pdfrwt beam="1">  1        1 0.38188237E+00 0.64811720E+03</pdfrwt>
<pdfrwt beam="2">0</pdfrwt>
<totfact> 0.16104312E+00</totfact>
</mgrwt>
</event>
<event>
 6    1  0.2339725E-003  0.6493256E+03  0.7818608E-02  0.9808045E-01
          1   -1    0    0  502    0  0.00000000000E+00  0.00000000000E+00  0.10543455574E+03  0.10543455574E+03  0.00000000000E+00 0.  1.
         13   -1    0    0    0    0 -0.00000000000E+00 -0.00000000000E+00 -0.10000000000E+04  0.10000000000E+04  0.00000000000E+00 0.  1.
    9000005    2    1    2  501    0 -0.46759266671E-01  0.63767937718E-04 -0.89457119413E+03  0.11053874442E+04  0.64932563349E+03 0.  0.
         13    1    3    3    0    0 -0.15030822714E+03  0.10901036107E+03  0.61071551504E+01  0.18577706885E+03  0.00000000000E+00 0.  1.
          3    1    3    3  501    0  0.15026146787E+03 -0.10901029731E+03 -0.90067834928E+03  0.91961037538E+03  0.00000000000E+00 0.  1.
         21    1    1    2  502  501  0.46759266671E-01 -0.63767937716E-04  0.57498734548E-02  0.47111507413E-01  0.00000000000E+00 0.  1.
<mgrwt>
<rscale>  1 0.64932564E+03</rscale>
<asrwt>0</asrwt>
<pdfrwt beam="1">  1        1 0.38339919E+00 0.64932564E+03</pdfrwt>
<pdfrwt beam="2">0</pdfrwt>
<totfact> 0.15854193E+00</totfact>
</mgrwt>
</event>
<event>
 6    1  0.2339725E-003  0.6552732E+03  0.7818608E-02  0.9796934E-01
          1   -1    0    0  502    0  0.00000000000E+00  0.00000000000E+00  0.10752505958E+03  0.10752505958E+03  0.00000000000E+00 0.  1.
         13   -1    0    0    0    0 -0.00000000000E+00 -0.00000000000E+00 -0.10000000000E+04  0.10000000000E+04  0.00000000000E+00 0.  1.
    9000005    2    1    2  501    0 -0.94994219311E-01  0.98541601186E-02 -0.89264007486E+03  0.11073342969E+04  0.65527317416E+03 0.  0.
         13    1    3    3    0    0  0.18908813027E+03  0.21856946858E+03 -0.18556850735E+03  0.34345684521E+03  0.00000000000E+00 0.  1.
          3    1    3    3  501    0 -0.18918312448E+03 -0.21855961442E+03 -0.70707156752E+03  0.76387745171E+03  0.00000000000E+00 0.  1.
         21    1    1    2  502  501  0.94994219311E-01 -0.98541601185E-02  0.16513444296E+00  0.19076265469E+00  0.00000000000E+00 0.  1.
<mgrwt>
<rscale>  1 0.65527318E+03</rscale>
<asrwt>0</asrwt>
<pdfrwt beam="1">  1        1 0.39100104E+00 0.65527318E+03</pdfrwt>
<pdfrwt beam="2">0</pdfrwt>
<totfact> 0.14655583E+00</totfact>
</mgrwt>
</event>
<event>
 6    1  0.2339725E-003  0.6533686E+03  0.7818608E-02  0.9800479E-01
          1   -1    0    0  502    0  0.00000000000E+00  0.00000000000E+00  0.10672269183E+03  0.10672269183E+03  0.00000000000E+00 0.  1.
         13   -1    0    0    0    0 -0.00000000000E+00 -0.00000000000E+00 -0.10000000000E+04  0.10000000000E+04  0.00000000000E+00 0.  1.
    9000005    2    1    2  501    0 -0.10004425633E-04  0.14570255310E-04 -0.89327736177E+03  0.11067226354E+04  0.65336861467E+03 0.  0.
         13    1    3    3    0    0  0.30959021074E+03 -0.38963789072E+02 -0.28277588484E+03  0.42110150379E+03  0.00000000000E+00 0.  1.
          3    1    3    3  501    0 -0.30959022074E+03  0.38963803642E+02 -0.61050147693E+03  0.68562113161E+03  0.00000000000E+00 0.  1.
         21    1    1    2  502  501  0.10004425622E-04 -0.14570255308E-04  0.53600017276E-04  0.56438840560E-04  0.00000000000E+00 0.  1.
<mgrwt>
<rscale>  1 0.65336861E+03</rscale>
<asrwt>0</asrwt>
<pdfrwt beam="1">  1        1 0.38808333E+00 0.65336861E+03</pdfrwt>
<pdfrwt beam="2">0</pdfrwt>
<totfact> 0.15104023E+00</totfact>
</mgrwt>
</event>
<event>
 6    1  0.2339725E-003  0.6302760E+03  0.7818608E-02  0.9844510E-01
          1   -1    0    0  502    0  0.00000000000E+00  0.00000000000E+00  0.99311961816E+02  0.99311961816E+02  0.00000000000E+00 0.  1.
         13   -1    0    0    0    0 -0.00000000000E+00 -0.00000000000E+00 -0.10000000000E+04  0.10000000000E+04  0.00000000000E+00 0.  1.
    9000005    2    1    2  501    0  0.23727233156E-06  0.18448419361E-05 -0.90068804036E+03  0.10993119590E+04  0.63027600069E+03 0.  0.
         13    1    3    3    0    0  0.18245498484E+03  0.57848178536E+01 -0.89839236968E+03  0.91675085793E+03  0.00000000000E+00 0.  1.
          3    1    3    3  501    0 -0.18245498461E+03 -0.57848160087E+01 -0.22956706837E+01  0.18256110103E+03  0.00000000000E+00 0.  1.
         21    1    1    2  502  501 -0.23727235706E-06 -0.18448419354E-05  0.21780558073E-05  0.28642044336E-05  0.00000000000E+00 0. -1.
<mgrwt>
<rscale>  1 0.63027600E+03</rscale>
<asrwt>0</asrwt>
<pdfrwt beam="1">  1        1 0.36113517E+00 0.63027600E+03</pdfrwt>
<pdfrwt beam="2">0</pdfrwt>
<totfact> 0.19931607E+00</totfact>
</mgrwt>
</event>
<event>
 6    1  0.2339725E-003  0.6245863E+03  0.7818608E-02  0.9855671E-01
          1   -1    0    0  502    0  0.00000000000E+00  0.00000000000E+00  0.97527049685E+02  0.97527049685E+02  0.00000000000E+00 0.  1.
         13   -1    0    0    0    0 -0.00000000000E+00 -0.00000000000E+00 -0.10000000000E+04  0.10000000000E+04  0.00000000000E+00 0.  1.
    9000005    2    1    2  501    0 -0.37140054019E-05 -0.50474413342E-05 -0.90247298532E+03  0.10975270141E+04  0.62458630910E+03 0.  0.
         13    1    3    3    0    0 -0.24191842534E+03  0.19379945316E+03 -0.51801638417E+03  0.60367518322E+03  0.00000000000E+00 0.  1.
          1    1    3    3  501    0  0.24191842163E+03 -0.19379945821E+03 -0.38445660115E+03  0.49385183091E+03  0.00000000000E+00 0.  1.
         21    1    1    2  502  501  0.37140054088E-05  0.50474413099E-05  0.35001849414E-04  0.35558402134E-04  0.00000000000E+00 0.  1.
<mgrwt>
<rscale>  1 0.62458631E+03</rscale>
<asrwt>0</asrwt>
<pdfrwt beam="1">  1        1 0.35464456E+00 0.62458631E+03</pdfrwt>
<pdfrwt beam="2">0</pdfrwt>
<totfact> 0.21298592E+00</totfact>
</mgrwt>
</event>
<event>
 6    1  0.2339725E-003  0.6483646E+03  0.7818608E-02  0.9809853E-01
          1   -1    0    0  502    0  0.00000000000E+00  0.00000000000E+00  0.10509590927E+03  0.10509590927E+03  0.00000000000E+00 0.  1.
         13   -1    0    0    0    0 -0.00000000000E+00 -0.00000000000E+00 -0.10000000000E+04  0.10000000000E+04  0.00000000000E+00 0.  1.
    9000005    2    1    2  501    0 -0.16347316006E-03  0.26953674157E-03 -0.89490581668E+03  0.11050941548E+04  0.64836461207E+03 0.  0.
         13    1    3    3    0    0  0.18134409142E+03 -0.20878006972E+03 -0.15910975656E+03  0.31904656657E+03  0.00000000000E+00 0.  1.
          3    1    3    3  501    0 -0.18134425489E+03  0.20878033926E+03 -0.73579606011E+03  0.78604758820E+03  0.00000000000E+00 0.  1.
         21    1    1    2  502  501  0.16347316007E-03 -0.26953674156E-03  0.17259436841E-02  0.17544956910E-02  0.00000000000E+00 0.  1.
<mgrwt>
<rscale>  1 0.64836461E+03</rscale>
<asrwt>0</asrwt>
<pdfrwt beam="1">  1        1 0.38216775E+00 0.64836461E+03</pdfrwt>
<pdfrwt beam="2">0</pdfrwt>
<totfact> 0.16056909E+00</totfact>
</mgrwt>
</event>
<event>
 6    1  0.2339725E-003  0.5527239E+03  0.7818608E-02  0.1000865E+00
          1   -1    0    0  502    0  0.00000000000E+00  0.00000000000E+00  0.77218937023E+02  0.77218937023E+02  0.00000000000E+00 0.  1.
         13   -1    0    0    0    0 -0.00000000000E+00 -0.00000000000E+00 -0.10000000000E+04  0.10000000000E+04  0.00000000000E+00 0.  1.
    9000005    2    1    2  501    0 -0.92158106273E-02 -0.10997034972E-01 -0.92362401523E+03  0.10763758627E+04  0.55272386958E+03 0.  0.
         13    1    3    3    0    0  0.11587991619E+03 -0.15956108522E+03 -0.83887019391E+03  0.86173725527E+03  0.00000000000E+00 0.  1.
          1    1    3    3  501    0 -0.11588913200E+03  0.15955008818E+03 -0.84753821325E+02  0.21463860739E+03  0.00000000000E+00 0.  1.
         21    1    1    2  502  501  0.92158106273E-02  0.10997034972E-01  0.84295225684E+00  0.84307435808E+00  0.00000000000E+00 0. -1.
<mgrwt>
<rscale>  1 0.55272387E+03</rscale>
<asrwt>0</asrwt>
<pdfrwt beam="1">  1        1 0.28079673E+00 0.55272387E+03</pdfrwt>
<pdfrwt beam="2">0</pdfrwt>
<totfact> 0.45025721E+00</totfact>
</mgrwt>
</event>
<event>
 6    1  0.2339725E-003  0.6477271E+03  0.7818608E-02  0.9811054E-01
          1   -1    0    0  502    0  0.00000000000E+00  0.00000000000E+00  0.10488777287E+03  0.10488777287E+03  0.00000000000E+00 0.  1.
         13   -1    0    0    0    0 -0.00000000000E+00 -0.00000000000E+00 -0.10000000000E+04  0.10000000000E+04  0.00000000000E+00 0.  1.
    9000005    2    1    2  501    0  0.78244019335E-05  0.34784242558E-04 -0.89511241158E+03  0.11048875850E+04  0.64772706146E+03 0.  0.
         13    1    3    3    0    0  0.24370794290E+03  0.10004100675E+03 -0.76888787912E+03  0.81276708541E+03  0.00000000000E+00 0.  1.
          1    1    3    3  501    0 -0.24370793508E+03 -0.10004097196E+03 -0.12622453246E+03  0.29212049960E+03  0.00000000000E+00 0.  1.
         21    1    1    2  502  501 -0.78244019467E-05 -0.34784242562E-04  0.18444498511E-03  0.18785930195E-03  0.00000000000E+00 0. -1.
<mgrwt>
<rscale>  1 0.64772706E+03</rscale>
<asrwt>0</asrwt>
<pdfrwt beam="1">  1        1 0.38141089E+00 0.64772706E+03</pdfrwt>
<pdfrwt beam="2">0</pdfrwt>
<totfact> 0.16182861E+00</totfact>
</mgrwt>
</event>
<event>
 6    1  0.2339725E-003  0.6523304E+03  0.7818608E-02  0.9802416E-01
          1   -1    0    0  502    0  0.00000000000E+00  0.00000000000E+00  0.10957416133E+03  0.10957416133E+03  0.00000000000E+00 0.  1.
         13   -1    0    0    0    0 -0.00000000000E+00 -0.00000000000E+00 -0.10000000000E+04  0.10000000000E+04  0.00000000000E+00 0.  1.
    9000005    2    1    2  501    0 -0.19590329505E+00  0.91297631016E+00 -0.89354050609E+03  0.11063225376E+04  0.65232970900E+03 0.  0.
         13    1    3    3    0    0 -0.29100956772E+03 -0.99117503376E+01 -0.69639126644E+03  0.75481494903E+03  0.00000000000E+00 0.  1.
          1    1    3    3  501    0  0.29081366442E+03  0.10824726648E+02 -0.19714923965E+03  0.35150758856E+03  0.00000000000E+00 0.  1.
         21    1    1    2  502  501  0.19590329505E+00 -0.91297631016E+00  0.31146674187E+01  0.32516237441E+01  0.00000000000E+00 0.  1.
<mgrwt>
<rscale>  1 0.65233038E+03</rscale>
<asrwt>0</asrwt>
<pdfrwt beam="1">  1        1 0.39845234E+00 0.65233038E+03</pdfrwt>
<pdfrwt beam="2">0</pdfrwt>
<totfact> 0.13586844E+00</totfact>
</mgrwt>
</event>
<event>
 6    1  0.2339725E-003  0.6523914E+03  0.7818608E-02  0.9802302E-01
          1   -1    0    0  502    0  0.00000000000E+00  0.00000000000E+00  0.10641492399E+03  0.10641492399E+03  0.00000000000E+00 0.  1.
         13   -1    0    0    0    0 -0.00000000000E+00 -0.00000000000E+00 -0.10000000000E+04  0.10000000000E+04  0.00000000000E+00 0.  1.
    9000005    2    1    2  501    0 -0.30234758778E-03 -0.11521990413E-03 -0.89359635836E+03  0.11064036370E+04  0.65239141341E+03 0.  0.
         13    1    3    3    0    0  0.25004997740E+02 -0.78958973995E+02 -0.98187067044E+03  0.98535769290E+03  0.00000000000E+00 0.  1.
          1    1    3    3  501    0 -0.25005300088E+02  0.78958858775E+02  0.88274312077E+02  0.12104594411E+03  0.00000000000E+00 0.  1.
         21    1    1    2  502  501  0.30234758778E-03  0.11521990414E-03  0.11282348323E-01  0.11286986904E-01  0.00000000000E+00 0.  1.
<mgrwt>
<rscale>  1 0.65239141E+03</rscale>
<asrwt>0</asrwt>
<pdfrwt beam="1">  1        1 0.38696418E+00 0.65239141E+03</pdfrwt>
<pdfrwt beam="2">0</pdfrwt>
<totfact> 0.15280161E+00</totfact>
</mgrwt>
</event>
<event>
 6    1  0.2339725E-003  0.6431441E+03  0.7818608E-02  0.9819729E-01
          3   -1    0    0  502    0  0.00000000000E+00  0.00000000000E+00  0.10380401254E+03  0.10380401254E+03  0.00000000000E+00 0.  1.
         13   -1    0    0    0    0 -0.00000000000E+00 -0.00000000000E+00 -0.10000000000E+04  0.10000000000E+04  0.00000000000E+00 0.  1.
    9000005    2    1    2  501    0 -0.28473257981E+00  0.23475990426E+00 -0.89649416704E+03  0.11033295698E+04  0.64314400555E+03 0.  0.
         13    1    3    3    0    0 -0.73373807706E+02  0.14718642126E+03 -0.92259848311E+03  0.93714220868E+03  0.00000000000E+00 0.  1.
          3    1    3    3  501    0  0.73089075126E+02 -0.14695166136E+03  0.26104316067E+02  0.16618736112E+03  0.00000000000E+00 0.  1.
         21    1    1    2  502  501  0.28473257981E+00 -0.23475990426E+00  0.29817958244E+00  0.47444274474E+00  0.00000000000E+00 0. -1.
<mgrwt>
<rscale>  1 0.64314411E+03</rscale>
<asrwt>0</asrwt>
<pdfrwt beam="1">  1        3 0.37746993E+00 0.64314411E+03</pdfrwt>
<pdfrwt beam="2">0</pdfrwt>
<totfact> 0.77927158E-02</totfact>
</mgrwt>
</event>
<event>
 6    1  0.2339725E-003  0.5393563E+03  0.7818608E-02  0.1003988E+00
          3   -1    0    0  502    0  0.00000000000E+00  0.00000000000E+00  0.72826012018E+02  0.72826012018E+02  0.00000000000E+00 0.  1.
         13   -1    0    0    0    0 -0.00000000000E+00 -0.00000000000E+00 -0.10000000000E+04  0.10000000000E+04  0.00000000000E+00 0.  1.
    9000005    2    1    2  501    0  0.74479907034E-02 -0.43323376085E-02 -0.92727350723E+03  0.10727261205E+04  0.53935625725E+03 0.  0.
         13    1    3    3    0    0  0.16196891127E+03 -0.15311881937E+03 -0.76559468862E+03  0.79737978925E+03  0.00000000000E+00 0.  1.
          3    1    3    3  501    0 -0.16196146328E+03  0.15311448703E+03 -0.16167881861E+03  0.27534633121E+03  0.00000000000E+00 0.  1.
         21    1    1    2  502  501 -0.74479907034E-02  0.43323376085E-02  0.99519249122E-01  0.99891554500E-01  0.00000000000E+00 0. -1.
<mgrwt>
<rscale>  1 0.53935626E+03</rscale>
<asrwt>0</asrwt>
<pdfrwt beam="1">  1        3 0.26482242E+00 0.53935626E+03</pdfrwt>
<pdfrwt beam="2">0</pdfrwt>
<totfact> 0.31976354E-01</totfact>
</mgrwt>
</event>
<event>
 6    1  0.2420507E-003  0.6430745E+03  0.7818608E-02  0.9819862E-01
          1   -1    0    0  502    0  0.00000000000E+00  0.00000000000E+00  0.10338619268E+03  0.10338619268E+03  0.00000000000E+00 0.  1.
         13   -1    0    0    0    0 -0.00000000000E+00 -0.00000000000E+00 -0.10000000000E+04  0.10000000000E+04  0.00000000000E+00 0.  1.
    9000005    2    1    2  501    0 -0.13456413797E-05 -0.46394616504E-06 -0.89661380837E+03  0.11033861909E+04  0.64307446297E+03 0.  0.
         13    1    3    3    0    0 -0.94481784200E+02  0.23432371887E+02 -0.97410972630E+03  0.97896151225E+03  0.00000000000E+00 0.  1.
          1    1    3    3  501    0  0.94481782854E+02 -0.23432372351E+02  0.77495917925E+02  0.12442467866E+03  0.00000000000E+00 0.  1.
         21    1    1    2  502  501  0.13456413791E-05  0.46394616203E-06  0.10500895835E-05  0.17688088918E-05  0.00000000000E+00 0. -1.
<mgrwt>
<rscale>  1 0.64307446E+03</rscale>
<asrwt>0</asrwt>
<pdfrwt beam="1">  1        1 0.37595058E+00 0.64307446E+03</pdfrwt>
<pdfrwt beam="2">0</pdfrwt>
<totfact> 0.17119978E+00</totfact>
</mgrwt>
</event>
<event>
 6    1  0.2339725E-003  0.6515622E+03  0.7818608E-02  0.9803852E-01
          3   -1    0    0  502    0  0.00000000000E+00  0.00000000000E+00  0.10614273449E+03  0.10614273449E+03  0.00000000000E+00 0.  1.
         13   -1    0    0    0    0 -0.00000000000E+00 -0.00000000000E+00 -0.10000000000E+04  0.10000000000E+04  0.00000000000E+00 0.  1.
    9000005    2    1    2  501    0 -0.20987795422E-01  0.13435577438E-01 -0.89384244175E+03  0.11061137389E+04  0.65156219351E+03 0.  0.
         13    1    3    3    0    0 -0.84976549550E+01 -0.25547179839E+02  0.10424369694E+03  0.10766437150E+03  0.00000000000E+00 0.  1.
          1    1    3    3  501    0  0.84766671595E+01  0.25560615417E+02 -0.99808613869E+03  0.99844936737E+03  0.00000000000E+00 0.  1.
         21    1    1    2  502  501  0.20987795422E-01 -0.13435577438E-01 -0.14823761392E-01  0.28995623801E-01  0.00000000000E+00 0.  1.
<mgrwt>
<rscale>  1 0.65156219E+03</rscale>
<asrwt>0</asrwt>
<pdfrwt beam="1">  1        3 0.38597439E+00 0.65156219E+03</pdfrwt>
<pdfrwt beam="2">0</pdfrwt>
<totfact> 0.70176457E-02</totfact>
</mgrwt>
</event>
<event>
 6    1  0.2339725E-003  0.6527602E+03  0.7818608E-02  0.9801614E-01
          1   -1    0    0  502    0  0.00000000000E+00  0.00000000000E+00  0.10766586711E+03  0.10766586711E+03  0.00000000000E+00 0.  1.
         13   -1    0    0    0    0 -0.00000000000E+00 -0.00000000000E+00 -0.10000000000E+04  0.10000000000E+04  0.00000000000E+00 0.  1.
    9000005    2    1    2  501    0 -0.15236656330E+01 -0.21793303356E+00 -0.89287121865E+03  0.11060356791E+04  0.65275840964E+03 0.  0.
         13    1    3    3    0    0 -0.63105655545E+02  0.30323868730E+03 -0.62108357449E+03  0.69403229877E+03  0.00000000000E+00 0.  1.
          1    1    3    3  501    0  0.61581989912E+02 -0.30345662033E+03 -0.27178764416E+03  0.41200338035E+03  0.00000000000E+00 0.  1.
         21    1    1    2  502  501  0.15236656330E+01  0.21793303356E+00  0.53708575467E+00  0.16301879879E+01  0.00000000000E+00 0.  1.
<mgrwt>
<rscale>  1 0.65276022E+03</rscale>
<asrwt>0</asrwt>
<pdfrwt beam="1">  1        1 0.39151307E+00 0.65276022E+03</pdfrwt>
<pdfrwt beam="2">0</pdfrwt>
<totfact> 0.14585927E+00</totfact>
</mgrwt>
</event>
<event>
 6    1  0.2339725E-003  0.6496055E+03  0.7818608E-02  0.9807520E-01
          1   -1    0    0  502    0  0.00000000000E+00  0.00000000000E+00  0.10629526409E+03  0.10629526409E+03  0.00000000000E+00 0.  1.
         13   -1    0    0    0    0 -0.00000000000E+00 -0.00000000000E+00 -0.10000000000E+04  0.10000000000E+04  0.00000000000E+00 0.  1.
    9000005    2    1    2  501    0  0.15836223769E+00 -0.33361496001E+00 -0.89445570436E+03  0.11054584062E+04  0.64960537586E+03 0.  0.
         13    1    3    3    0    0 -0.21958002200E+03  0.16968822821E+03 -0.73379534782E+03  0.78451583371E+03  0.00000000000E+00 0.  1.
          1    1    3    3  501    0  0.21973838424E+03 -0.17002184317E+03 -0.16066035655E+03  0.32094257248E+03  0.00000000000E+00 0.  1.
         21    1    1    2  502  501 -0.15836223769E+00  0.33361496001E+00  0.75096845326E+00  0.83685790769E+00  0.00000000000E+00 0.  1.
<mgrwt>
<rscale>  1 0.64960548E+03</rscale>
<asrwt>0</asrwt>
<pdfrwt beam="1">  1        1 0.38652905E+00 0.64960548E+03</pdfrwt>
<pdfrwt beam="2">0</pdfrwt>
<totfact> 0.15356007E+00</totfact>
</mgrwt>
</event>
<event>
 6    1  0.2339725E-003  0.6414799E+03  0.7818608E-02  0.9822899E-01
          1   -1    0    0  502    0  0.00000000000E+00  0.00000000000E+00  0.10362114781E+03  0.10362114781E+03  0.00000000000E+00 0.  1.
         13   -1    0    0    0    0 -0.00000000000E+00 -0.00000000000E+00 -0.10000000000E+04  0.10000000000E+04  0.00000000000E+00 0.  1.
    9000005    2    1    2  501    0 -0.27818185543E-02 -0.11265183540E+00 -0.89712118727E+03  0.11028703086E+04  0.64147991410E+03 0.  0.
         13    1    3    3    0    0 -0.18705790276E+03 -0.21038604037E+03 -0.71298489586E+03  0.76655098114E+03  0.00000000000E+00 0.  1.
          3    1    3    3  501    0  0.18705512094E+03  0.21027338853E+03 -0.18413629142E+03  0.33631932744E+03  0.00000000000E+00 0.  1.
         21    1    1    2  502  501  0.27818185543E-02  0.11265183540E+00  0.74233508822E+00  0.75083923561E+00  0.00000000000E+00 0.  1.
<mgrwt>
<rscale>  1 0.64147992E+03</rscale>
<asrwt>0</asrwt>
<pdfrwt beam="1">  1        1 0.37680497E+00 0.64147992E+03</pdfrwt>
<pdfrwt beam="2">0</pdfrwt>
<totfact> 0.16977243E+00</totfact>
</mgrwt>
</event>
<event>
 6    1  0.2339725E-003  0.6287019E+03  0.7818608E-02  0.9847585E-01
          1   -1    0    0  502    0  0.00000000000E+00  0.00000000000E+00  0.98817568115E+02  0.98817568115E+02  0.00000000000E+00 0.  1.
         13   -1    0    0    0    0 -0.00000000000E+00 -0.00000000000E+00 -0.10000000000E+04  0.10000000000E+04  0.00000000000E+00 0.  1.
    9000005    2    1    2  501    0  0.31706727746E-03  0.33948844559E-03 -0.90118340950E+03  0.10988164857E+04  0.62870194194E+03 0.  0.
         13    1    3    3    0    0 -0.62346821624E+02 -0.73524810455E+02  0.72344715234E+02  0.12052709961E+03  0.00000000000E+00 0.  1.
          1    1    3    3  501    0  0.62347138691E+02  0.73525149944E+02 -0.97352812473E+03  0.97828938614E+03  0.00000000000E+00 0.  1.
         21    1    1    2  502  501 -0.31706727747E-03 -0.33948844558E-03  0.97761439410E-03  0.10823649877E-02  0.00000000000E+00 0. -1.
<mgrwt>
<rscale>  1 0.62870194E+03</rscale>
<asrwt>0</asrwt>
<pdfrwt beam="1">  1        1 0.35933737E+00 0.62870194E+03</pdfrwt>
<pdfrwt beam="2">0</pdfrwt>
<totfact> 0.20301542E+00</totfact>
</mgrwt>
</event>
<event>
 6    1  0.2339725E-003  0.5337934E+03  0.7818608E-02  0.1005316E+00
          1   -1    0    0  502    0  0.00000000000E+00  0.00000000000E+00  0.71543089297E+02  0.71543089297E+02  0.00000000000E+00 0.  1.
         13   -1    0    0    0    0 -0.00000000000E+00 -0.00000000000E+00 -0.10000000000E+04  0.10000000000E+04  0.00000000000E+00 0.  1.
    9000005    2    1    2  501    0  0.56446924829E-02  0.23380156644E-02 -0.92876611492E+03  0.10712338247E+04  0.53379341602E+03 0.  0.
         13    1    3    3    0    0 -0.58473486547E+02 -0.24286665589E+03 -0.27580629980E+03  0.37211890059E+03  0.00000000000E+00 0.  1.
          1    1    3    3  501    0  0.58479131240E+02  0.24286899390E+03 -0.65295981512E+03  0.69911492414E+03  0.00000000000E+00 0.  1.
         21    1    1    2  502  501 -0.56446924829E-02 -0.23380156644E-02  0.30920421218E+00  0.30926456910E+00  0.00000000000E+00 0. -1.
<mgrwt>
<rscale>  1 0.53379342E+03</rscale>
<asrwt>0</asrwt>
<pdfrwt beam="1">  1        1 0.26015724E+00 0.53379342E+03</pdfrwt>
<pdfrwt beam="2">0</pdfrwt>
<totfact> 0.55477680E+00</totfact>
</mgrwt>
</event>
<event>
 6    1  0.2339725E-003  0.6354586E+03  0.7818608E-02  0.9834454E-01
          1   -1    0    0  502    0  0.00000000000E+00  0.00000000000E+00  0.14070728620E+03  0.14070728620E+03  0.00000000000E+00 0.  1.
         13   -1    0    0    0    0 -0.00000000000E+00 -0.00000000000E+00 -0.10000000000E+04  0.10000000000E+04  0.00000000000E+00 0.  1.
    9000005    2    1    2  501    0 -0.54420082305E+01  0.66153204973E+01 -0.89853946149E+03  0.11005365864E+04  0.63540084688E+03 0.  0.
         13    1    3    3    0    0  0.55028706807E+02 -0.15492297480E+03 -0.91277638596E+03  0.92746429444E+03  0.00000000000E+00 0.  1.
          1    1    3    3  501    0 -0.60470715037E+02  0.16153829530E+03  0.14236924469E+02  0.17307229195E+03  0.00000000000E+00 0.  1.
         21    1    1    2  502  501  0.54420082305E+01 -0.66153204973E+01  0.39246747685E+02  0.40170699803E+02  0.00000000000E+00 0.  1.
<mgrwt>
<rscale>  1 0.63545859E+03</rscale>
<asrwt>0</asrwt>
<pdfrwt beam="1">  1        1 0.51166394E+00 0.63545859E+03</pdfrwt>
<pdfrwt beam="2">0</pdfrwt>
<totfact> 0.40741709E-01</totfact>
</mgrwt>
</event>
<event>
 6    1  0.2339725E-003  0.6472442E+03  0.7818608E-02  0.9811964E-01
          1   -1    0    0  502    0  0.00000000000E+00  0.00000000000E+00  0.10473154079E+03  0.10473154079E+03  0.00000000000E+00 0.  1.
         13   -1    0    0    0    0 -0.00000000000E+00 -0.00000000000E+00 -0.10000000000E+04  0.10000000000E+04  0.00000000000E+00 0.  1.
    9000005    2    1    2  501    0  0.15357044248E-04 -0.62537359526E-04 -0.89526873356E+03  0.11047312590E+04  0.64724419601E+03 0.  0.
         13    1    3    3    0    0 -0.17049931952E+03  0.16203597404E+03 -0.82701610738E+03  0.85981469905E+03  0.00000000000E+00 0.  1.
          1    1    3    3  501    0  0.17049933488E+03 -0.16203603658E+03 -0.68252626183E+02  0.24491655993E+03  0.00000000000E+00 0.  1.
         21    1    1    2  502  501 -0.15357044250E-04  0.62537359538E-04  0.27435674611E-03  0.28181267587E-03  0.00000000000E+00 0.  1.
<mgrwt>
<rscale>  1 0.64724420E+03</rscale>
<asrwt>0</asrwt>
<pdfrwt beam="1">  1        1 0.38084277E+00 0.64724420E+03</pdfrwt>
<pdfrwt beam="2">0</pdfrwt>
<totfact> 0.16278034E+00</totfact>
</mgrwt>
</event>
<event>
 6    1  0.2339725E-003  0.6512784E+03  0.7818608E-02  0.9804383E-01
          1   -1    0    0  502    0  0.00000000000E+00  0.00000000000E+00  0.10605477422E+03  0.10605477422E+03  0.00000000000E+00 0.  1.
         13   -1    0    0    0    0 -0.00000000000E+00 -0.00000000000E+00 -0.10000000000E+04  0.10000000000E+04  0.00000000000E+00 0.  1.
    9000005    2    1    2  501    0 -0.75701815119E-02  0.10985651034E-01 -0.89395546978E+03  0.11060379536E+04  0.65127841418E+03 0.  0.
         13    1    3    3    0    0 -0.87920393509E+01  0.30758629157E+03 -0.62797257638E+03  0.69931122071E+03  0.00000000000E+00 0.  1.
          3    1    3    3  501    0  0.87844691694E+01 -0.30757530592E+03 -0.26598289339E+03  0.40672673294E+03  0.00000000000E+00 0.  1.
         21    1    1    2  502  501  0.75701815119E-02 -0.10985651034E-01  0.10243994448E-01  0.16820570711E-01  0.00000000000E+00 0. -1.
<mgrwt>
<rscale>  1 0.65127841E+03</rscale>
<asrwt>0</asrwt>
<pdfrwt beam="1">  1        1 0.38565454E+00 0.65127841E+03</pdfrwt>
<pdfrwt beam="2">0</pdfrwt>
<totfact> 0.15488667E+00</totfact>
</mgrwt>
</event>
<event>
 6    1  0.2339725E-003  0.6533355E+03  0.7818608E-02  0.9800540E-01
          1   -1    0    0  502    0  0.00000000000E+00  0.00000000000E+00  0.10671384076E+03  0.10671384076E+03  0.00000000000E+00 0.  1.
         13   -1    0    0    0    0 -0.00000000000E+00 -0.00000000000E+00 -0.10000000000E+04  0.10000000000E+04  0.00000000000E+00 0.  1.
    9000005    2    1    2  501    0 -0.76818096971E-04 -0.16766820643E-04 -0.89328819365E+03  0.11067118048E+04  0.65333545904E+03 0.  0.
         13    1    3    3    0    0 -0.21601549053E+03  0.63372510142E+02 -0.45666209026E+02  0.22970452724E+03  0.00000000000E+00 0.  1.
          3    1    3    3  501    0  0.21601541371E+03 -0.63372526908E+02 -0.84762198462E+03  0.87700727759E+03  0.00000000000E+00 0.  1.
         21    1    1    2  502  501  0.76818096978E-04  0.16766820643E-04  0.20344110310E-02  0.20359298587E-02  0.00000000000E+00 0. -1.
<mgrwt>
<rscale>  1 0.65333546E+03</rscale>
<asrwt>0</asrwt>
<pdfrwt beam="1">  1        1 0.38805115E+00 0.65333546E+03</pdfrwt>
<pdfrwt beam="2">0</pdfrwt>
<totfact> 0.15109076E+00</totfact>
</mgrwt>
</event>
<event>
 6    1  0.2339725E-003  0.6343591E+03  0.7818608E-02  0.9836579E-01
          1   -1    0    0  502    0  0.00000000000E+00  0.00000000000E+00  0.10064944447E+03  0.10064944447E+03  0.00000000000E+00 0.  1.
         13   -1    0    0    0    0 -0.00000000000E+00 -0.00000000000E+00 -0.10000000000E+04  0.10000000000E+04  0.00000000000E+00 0.  1.
    9000005    2    1    2  501    0  0.24230024914E-01  0.21234420410E-01 -0.89939094199E+03  0.11005977815E+04  0.63435905379E+03 0.  0.
         13    1    3    3    0    0 -0.13984039944E+03  0.22128349712E+03 -0.76045987739E+03  0.80425179423E+03  0.00000000000E+00 0.  1.
          1    1    3    3  501    0  0.13986462946E+03 -0.22126226270E+03 -0.13893106460E+03  0.29634598728E+03  0.00000000000E+00 0.  1.
         21    1    1    2  502  501 -0.24230024914E-01 -0.21234420410E-01  0.40386454506E-01  0.51662950216E-01  0.00000000000E+00 0. -1.
<mgrwt>
<rscale>  1 0.63435905E+03</rscale>
<asrwt>0</asrwt>
<pdfrwt beam="1">  1        1 0.36599875E+00 0.63435905E+03</pdfrwt>
<pdfrwt beam="2">0</pdfrwt>
<totfact> 0.18963559E+00</totfact>
</mgrwt>
</event>
<event>
 6    1  0.2339725E-003  0.6719971E+03  0.7818608E-02  0.9766357E-01
          1   -1    0    0  502    0  0.00000000000E+00  0.00000000000E+00  0.11289515766E+03  0.11289515766E+03  0.00000000000E+00 0.  1.
         13   -1    0    0    0    0 -0.00000000000E+00 -0.00000000000E+00 -0.10000000000E+04  0.10000000000E+04  0.00000000000E+00 0.  1.
    9000005    2    1    2  501    0 -0.17869591733E-03 -0.35700578655E-03 -0.88710426351E+03  0.11128944545E+04  0.67199709265E+03 0.  0.
         13    1    3    3    0    0  0.30578729302E+03  0.10697213646E+03 -0.59117749425E+03  0.67412145512E+03  0.00000000000E+00 0.  1.
          3    1    3    3  501    0 -0.30578747172E+03 -0.10697249346E+03 -0.29592676926E+03  0.43877299938E+03  0.00000000000E+00 0.  1.
         21    1    1    2  502  501  0.17869591735E-03  0.35700578656E-03 -0.57883204921E-03  0.70315851962E-03  0.00000000000E+00 0. -1.
<mgrwt>
<rscale>  1 0.67199709E+03</rscale>
<asrwt>0</asrwt>
<pdfrwt beam="1">  1        1 0.41052871E+00 0.67199709E+03</pdfrwt>
<pdfrwt beam="2">0</pdfrwt>
<totfact> 0.11954154E+00</totfact>
</mgrwt>
</event>
<event>
 6    1  0.2339725E-003  0.6580281E+03  0.7818608E-02  0.9791831E-01
          1   -1    0    0  502    0  0.00000000000E+00  0.00000000000E+00  0.10825898143E+03  0.10825898143E+03  0.00000000000E+00 0.  1.
         13   -1    0    0    0    0 -0.00000000000E+00 -0.00000000000E+00 -0.10000000000E+04  0.10000000000E+04  0.00000000000E+00 0.  1.
    9000005    2    1    2  501    0 -0.19484125043E-01  0.17887699991E-01 -0.89170147568E+03  0.11082114079E+04  0.65802811655E+03 0.  0.
         13    1    3    3    0    0  0.29583771298E+03 -0.84893618302E+02 -0.64163168126E+03  0.71163058763E+03  0.00000000000E+00 0.  1.
          1    1    3    3  501    0 -0.29585719710E+03  0.84911506002E+02 -0.25006979441E+03  0.39658082027E+03  0.00000000000E+00 0.  1.
         21    1    1    2  502  501  0.19484125043E-01 -0.17887699991E-01 -0.39542891399E-01  0.47573534657E-01  0.00000000000E+00 0. -1.
<mgrwt>
<rscale>  1 0.65802812E+03</rscale>
<asrwt>0</asrwt>
<pdfrwt beam="1">  1        1 0.39366985E+00 0.65802812E+03</pdfrwt>
<pdfrwt beam="2">0</pdfrwt>
<totfact> 0.14253790E+00</totfact>
</mgrwt>
</event>
<event>
 6    1  0.2339725E-003  0.6355614E+03  0.7818608E-02  0.9834256E-01
          1   -1    0    0  502    0  0.00000000000E+00  0.00000000000E+00  0.10930591865E+03  0.10930591865E+03  0.00000000000E+00 0.  1.
         13   -1    0    0    0    0 -0.00000000000E+00 -0.00000000000E+00 -0.10000000000E+04  0.10000000000E+04  0.00000000000E+00 0.  1.
    9000005    2    1    2  501    0 -0.24713581291E+01  0.95692462043E+01 -0.89565910529E+03  0.10982456498E+04  0.63548453669E+03 0.  0.
         13    1    3    3    0    0  0.31297044211E+03  0.49660698996E+02 -0.42136576317E+03  0.52722460966E+03  0.00000000000E+00 0.  1.
          3    1    3    3  501    0 -0.31544180024E+03 -0.40091452791E+02 -0.47429334212E+03  0.57102104016E+03  0.00000000000E+00 0.  1.
         21    1    1    2  502  501  0.24713581291E+01 -0.95692462043E+01  0.49650239371E+01  0.11060268831E+02  0.00000000000E+00 0.  1.
<mgrwt>
<rscale>  1 0.63556139E+03</rscale>
<asrwt>0</asrwt>
<pdfrwt beam="1">  1        1 0.39747691E+00 0.63556139E+03</pdfrwt>
<pdfrwt beam="2">0</pdfrwt>
<totfact> 0.13767419E+00</totfact>
</mgrwt>
</event>
<event>
 6    1  0.2339725E-003  0.6614174E+03  0.7818608E-02  0.9785588E-01
          1   -1    0    0  502    0  0.00000000000E+00  0.00000000000E+00  0.10937450392E+03  0.10937450392E+03  0.00000000000E+00 0.  1.
         13   -1    0    0    0    0 -0.00000000000E+00 -0.00000000000E+00 -0.10000000000E+04  0.10000000000E+04  0.00000000000E+00 0.  1.
    9000005    2    1    2  501    0 -0.77743553874E-04  0.14756497148E-03 -0.89063175478E+03  0.11093682430E+04  0.66141739919E+03 0.  0.
         13    1    3    3    0    0  0.17046126279E+03 -0.27259119043E+03 -0.31533965773E+03  0.45033554040E+03  0.00000000000E+00 0.  1.
          1    1    3    3  501    0 -0.17046134053E+03  0.27259133799E+03 -0.57529209705E+03  0.65903270259E+03  0.00000000000E+00 0.  1.
         21    1    1    2  502  501  0.77743553879E-04 -0.14756497149E-03  0.62586983114E-02  0.62609203823E-02  0.00000000000E+00 0. -1.
<mgrwt>
<rscale>  1 0.66141740E+03</rscale>
<asrwt>0</asrwt>
<pdfrwt beam="1">  1        1 0.39772631E+00 0.66141740E+03</pdfrwt>
<pdfrwt beam="2">0</pdfrwt>
<totfact> 0.13665034E+00</totfact>
</mgrwt>
</event>
<event>
 6    1  0.2339725E-003  0.6294374E+03  0.7818608E-02  0.9846147E-01
          1   -1    0    0  502    0  0.00000000000E+00  0.00000000000E+00  0.99307613974E+02  0.99307613974E+02  0.00000000000E+00 0.  1.
         13   -1    0    0    0    0 -0.00000000000E+00 -0.00000000000E+00 -0.10000000000E+04  0.10000000000E+04  0.00000000000E+00 0.  1.
    9000005    2    1    2  501    0  0.62660966788E-01  0.10795640303E+00 -0.90093554875E+03  0.10990342843E+04  0.62943743100E+03 0.  0.
         13    1    3    3    0    0 -0.28805992734E+03 -0.10417561799E+03 -0.32464264397E+03  0.44634507660E+03  0.00000000000E+00 0.  1.
          1    1    3    3  501    0  0.28812258831E+03  0.10428357439E+03 -0.57629290479E+03  0.65268920773E+03  0.00000000000E+00 0.  1.
         21    1    1    2  502  501 -0.62660966788E-01 -0.10795640303E+00  0.24316272835E+00  0.27332964379E+00  0.00000000000E+00 0.  1.
<mgrwt>
<rscale>  1 0.62943744E+03</rscale>
<asrwt>0</asrwt>
<pdfrwt beam="1">  1        1 0.36111936E+00 0.62943744E+03</pdfrwt>
<pdfrwt beam="2">0</pdfrwt>
<totfact> 0.19937804E+00</totfact>
</mgrwt>
</event>
<event>
 6    1  0.2339725E-003  0.6506041E+03  0.7818608E-02  0.9805646E-01
          1   -1    0    0  502    0  0.00000000000E+00  0.00000000000E+00  0.10587104953E+03  0.10587104953E+03  0.00000000000E+00 0.  1.
         13   -1    0    0    0    0 -0.00000000000E+00 -0.00000000000E+00 -0.10000000000E+04  0.10000000000E+04  0.00000000000E+00 0.  1.
    9000005    2    1    2  501    0  0.13565509612E+00 -0.58304366201E-01 -0.89385449578E+03  0.11055593974E+04  0.65060410361E+03 0.  0.
         13    1    3    3    0    0  0.70924857433E+02 -0.15300469380E+02 -0.98583193046E+03  0.98849837373E+03  0.00000000000E+00 0.  1.
          3    1    3    3  501    0 -0.70789202337E+02  0.15242165013E+02  0.91977434671E+02  0.11706102362E+03  0.00000000000E+00 0.  1.
         21    1    1    2  502  501 -0.13565509612E+00  0.58304366201E-01 -0.27445468755E+00  0.31165217750E+00  0.00000000000E+00 0.  1.
<mgrwt>
<rscale>  1 0.65060412E+03</rscale>
<asrwt>0</asrwt>
<pdfrwt beam="1">  1        1 0.38498645E+00 0.65060412E+03</pdfrwt>
<pdfrwt beam="2">0</pdfrwt>
<totfact> 0.15596378E+00</totfact>
</mgrwt>
</event>
<event>
 6    1  0.2339725E-003  0.6476680E+03  0.7818608E-02  0.9811165E-01
          1   -1    0    0  502    0  0.00000000000E+00  0.00000000000E+00  0.10486902768E+03  0.10486902768E+03  0.00000000000E+00 0.  1.
         13   -1    0    0    0    0 -0.00000000000E+00 -0.00000000000E+00 -0.10000000000E+04  0.10000000000E+04  0.00000000000E+00 0.  1.
    9000005    2    1    2  501    0 -0.48839614351E-04  0.11756123700E-03 -0.89513154191E+03  0.11048684440E+04  0.64766797150E+03 0.  0.
         13    1    3    3    0    0 -0.26153316270E+03 -0.17998754209E+03 -0.55644197039E+03  0.64064247198E+03  0.00000000000E+00 0.  1.
          1    1    3    3  501    0  0.26153311386E+03  0.17998765965E+03 -0.33868957152E+03  0.46422597205E+03  0.00000000000E+00 0.  1.
         21    1    1    2  502  501  0.48839614357E-04 -0.11756123699E-03  0.56958872109E-03  0.58364138267E-03  0.00000000000E+00 0.  1.
<mgrwt>
<rscale>  1 0.64766797E+03</rscale>
<asrwt>0</asrwt>
<pdfrwt beam="1">  1        1 0.38134272E+00 0.64766797E+03</pdfrwt>
<pdfrwt beam="2">0</pdfrwt>
<totfact> 0.16194256E+00</totfact>
</mgrwt>
</event>
<event>
 6    1  0.2339725E-003  0.6497443E+03  0.7818608E-02  0.9807259E-01
          1   -1    0    0  502    0  0.00000000000E+00  0.00000000000E+00  0.10554304069E+03  0.10554304069E+03  0.00000000000E+00 0.  1.
         13   -1    0    0    0    0 -0.00000000000E+00 -0.00000000000E+00 -0.10000000000E+04  0.10000000000E+04  0.00000000000E+00 0.  1.
    9000005    2    1    2  501    0  0.59636165207E-03 -0.15344836137E-02 -0.89445737215E+03  0.11055413434E+04  0.64974431234E+03 0.  0.
         13    1    3    3    0    0  0.30270776751E+03  0.68470588708E+02 -0.28383343179E+03  0.42057297944E+03  0.00000000000E+00 0.  1.
          3    1    3    3  501    0 -0.30270717115E+03 -0.68472123192E+02 -0.61062394036E+03  0.68496836399E+03  0.00000000000E+00 0.  1.
         21    1    1    2  502  501 -0.59636165211E-03  0.15344836137E-02  0.41284430926E-03  0.16972706339E-02  0.00000000000E+00 0. -1.
<mgrwt>
<rscale>  1 0.64974431E+03</rscale>
<asrwt>0</asrwt>
<pdfrwt beam="1">  1        1 0.38379368E+00 0.64974431E+03</pdfrwt>
<pdfrwt beam="2">0</pdfrwt>
<totfact> 0.15789446E+00</totfact>
</mgrwt>
</event>
<event>
 6    1  0.2339725E-003  0.6480911E+03  0.7818608E-02  0.9810368E-01
          1   -1    0    0  502    0  0.00000000000E+00  0.00000000000E+00  0.10501190129E+03  0.10501190129E+03  0.00000000000E+00 0.  1.
         13   -1    0    0    0    0 -0.00000000000E+00 -0.00000000000E+00 -0.10000000000E+04  0.10000000000E+04  0.00000000000E+00 0.  1.
    9000005    2    1    2  501    0  0.13918754920E-01  0.50916656068E-02 -0.89498300143E+03  0.11049962284E+04  0.64809111376E+03 0.  0.
         13    1    3    3    0    0  0.10166620317E+03  0.83071997049E+02  0.57629435253E+02  0.14338104955E+03  0.00000000000E+00 0.  1.
          1    1    3    3  501    0 -0.10165228442E+03 -0.83066905384E+02 -0.95261243669E+03  0.96161517887E+03  0.00000000000E+00 0.  1.
         21    1    1    2  502  501 -0.13918754920E-01 -0.50916656068E-02 -0.50972777312E-02  0.15672875851E-01  0.00000000000E+00 0. -1.
<mgrwt>
<rscale>  1 0.64809111E+03</rscale>
<asrwt>0</asrwt>
<pdfrwt beam="1">  1        1 0.38186226E+00 0.64809111E+03</pdfrwt>
<pdfrwt beam="2">0</pdfrwt>
<totfact> 0.16107681E+00</totfact>
</mgrwt>
</event>
<event>
 6    1  0.2339725E-003  0.5962923E+03  0.7818608E-02  0.9913128E-01
          1   -1    0    0  502    0  0.00000000000E+00  0.00000000000E+00  0.93104689031E+02  0.93104689031E+02  0.00000000000E+00 0.  1.
         13   -1    0    0    0    0 -0.00000000000E+00 -0.00000000000E+00 -0.10000000000E+04  0.10000000000E+04  0.00000000000E+00 0.  1.
    9000005    2    1    2  501    0 -0.88445423899E-01  0.13222802709E-01 -0.91110834388E+03  0.10888907071E+04  0.59629233580E+03 0.  0.
         13    1    3    3    0    0  0.35347009334E+02  0.35773641808E+02  0.81088459879E+02  0.95417518531E+02  0.00000000000E+00 0.  1.
          3    1    3    3  501    0 -0.35435454758E+02 -0.35760419006E+02 -0.99219680376E+03  0.99347318857E+03  0.00000000000E+00 0.  1.
         21    1    1    2  502  501  0.88445423899E-01 -0.13222802709E-01  0.42130329080E+01  0.42139819315E+01  0.00000000000E+00 0. -1.
<mgrwt>
<rscale>  1 0.59629234E+03</rscale>
<asrwt>0</asrwt>
<pdfrwt beam="1">  1        1 0.33856322E+00 0.59629234E+03</pdfrwt>
<pdfrwt beam="2">0</pdfrwt>
<totfact> 0.25150079E+00</totfact>
</mgrwt>
</event>
<event>
 6    1  0.2339725E-003  0.6514321E+03  0.7818608E-02  0.9804096E-01
          1   -1    0    0  502    0  0.00000000000E+00  0.00000000000E+00  0.10609095578E+03  0.10609095578E+03  0.00000000000E+00 0.  1.
         13   -1    0    0    0    0 -0.00000000000E+00 -0.00000000000E+00 -0.10000000000E+04  0.10000000000E+04  0.00000000000E+00 0.  1.
    9000005    2    1    2  501    0 -0.45852998653E-04 -0.68423701549E-05 -0.89390902630E+03  0.11060909061E+04  0.65143207259E+03 0.  0.
         13    1    3    3    0    0 -0.14842154959E+03  0.73301517626E+02  0.29343025775E+02  0.16811627533E+03  0.00000000000E+00 0.  1.
          1    1    3    3  501    0  0.14842150374E+03 -0.73301524469E+02 -0.92325205207E+03  0.93797463074E+03  0.00000000000E+00 0.  1.
         21    1    1    2  502  501  0.45852998637E-04  0.68423701528E-05 -0.17927712750E-04  0.49706321507E-04  0.00000000000E+00 0.  1.
<mgrwt>
<rscale>  1 0.65143207E+03</rscale>
<asrwt>0</asrwt>
<pdfrwt beam="1">  1        1 0.38578611E+00 0.65143207E+03</pdfrwt>
<pdfrwt beam="2">0</pdfrwt>
<totfact> 0.15467479E+00</totfact>
</mgrwt>
</event>
<event>
 6    1  0.2339725E-003  0.6525004E+03  0.7818608E-02  0.9802099E-01
          1   -1    0    0  502    0  0.00000000000E+00  0.00000000000E+00  0.11746360793E+03  0.11746360793E+03  0.00000000000E+00 0.  1.
         13   -1    0    0    0    0 -0.00000000000E+00 -0.00000000000E+00 -0.10000000000E+04  0.10000000000E+04  0.00000000000E+00 0.  1.
    9000005    2    1    2  501    0  0.65974039851E-01  0.30102085934E+00 -0.89355841588E+03  0.11064372769E+04  0.65250035270E+03 0.  0.
         13    1    3    3    0    0 -0.25214353680E+03 -0.10876497690E+03 -0.74515321879E+03  0.79414073238E+03  0.00000000000E+00 0.  1.
          3    1    3    3  501    0  0.25220951084E+03  0.10906599776E+03 -0.14840519709E+03  0.31229654457E+03  0.00000000000E+00 0.  1.
         21    1    1    2  502  501 -0.65974039851E-01 -0.30102085934E+00  0.11022023806E+02  0.11026330981E+02  0.00000000000E+00 0. -1.
<mgrwt>
<rscale>  1 0.65250043E+03</rscale>
<asrwt>0</asrwt>
<pdfrwt beam="1">  1        1 0.42714129E+00 0.65250043E+03</pdfrwt>
<pdfrwt beam="2">0</pdfrwt>
<totfact> 0.10098537E+00</totfact>
</mgrwt>
</event>
<event>
 6    1  0.2339725E-003  0.6543501E+03  0.7818608E-02  0.9798651E-01
          1   -1    0    0  502    0  0.00000000000E+00  0.00000000000E+00  0.10973044145E+03  0.10973044145E+03  0.00000000000E+00 0.  1.
         13   -1    0    0    0    0 -0.00000000000E+00 -0.00000000000E+00 -0.10000000000E+04  0.10000000000E+04  0.00000000000E+00 0.  1.
    9000005    2    1    2  501    0  0.28700786845E+01 -0.74584648891E+00 -0.89201899302E+03  0.11062874544E+04  0.65434337643E+03 0.  0.
         13    1    3    3    0    0  0.83946573998E+02 -0.15705961926E+03  0.18364258811E+02  0.17903071605E+03  0.00000000000E+00 0.  1.
          3    1    3    3  501    0 -0.81076495313E+02  0.15631377277E+03 -0.91038325183E+03  0.92725673838E+03  0.00000000000E+00 0.  1.
         21    1    1    2  502  501 -0.28700786845E+01  0.74584648891E+00  0.17494344715E+01  0.34429870186E+01  0.00000000000E+00 0.  1.
<mgrwt>
<rscale>  1 0.65435010E+03</rscale>
<asrwt>0</asrwt>
<pdfrwt beam="1">  1        1 0.39902063E+00 0.65435010E+03</pdfrwt>
<pdfrwt beam="2">0</pdfrwt>
<totfact> 0.13502718E+00</totfact>
</mgrwt>
</event>
<event>
 6    1  0.2339725E-003  0.6581412E+03  0.7818608E-02  0.9791622E-01
          1   -1    0    0  502    0  0.00000000000E+00  0.00000000000E+00  0.10886570850E+03  0.10886570850E+03  0.00000000000E+00 0.  1.
         13   -1    0    0    0    0 -0.00000000000E+00 -0.00000000000E+00 -0.10000000000E+04  0.10000000000E+04  0.00000000000E+00 0.  1.
    9000005    2    1    2  501    0 -0.10863313839E+00 -0.46606922884E+00 -0.89160068944E+03  0.11081974655E+04  0.65814102142E+03 0.  0.
         13    1    3    3    0    0 -0.25607270553E+03  0.20650202531E+03 -0.44293823201E+03  0.55173417000E+03  0.00000000000E+00 0.  1.
          1    1    3    3  501    0  0.25596407239E+03 -0.20696809454E+03 -0.44866245743E+03  0.55646329549E+03  0.00000000000E+00 0.  1.
         21    1    1    2  502  501  0.10863313839E+00  0.46606922884E+00  0.46639793610E+00  0.66824300941E+00  0.00000000000E+00 0. -1.
<mgrwt>
<rscale>  1 0.65814120E+03</rscale>
<asrwt>0</asrwt>
<pdfrwt beam="1">  1        1 0.39587614E+00 0.65814120E+03</pdfrwt>
<pdfrwt beam="2">0</pdfrwt>
<totfact> 0.13935153E+00</totfact>
</mgrwt>
</event>
<event>
 6    1  0.2339725E-003  0.4623161E+03  0.7818608E-02  0.1024112E+00
          1   -1    0    0  502    0  0.00000000000E+00  0.00000000000E+00  0.54336064659E+02  0.54336064659E+02  0.00000000000E+00 0.  1.
         13   -1    0    0    0    0 -0.00000000000E+00 -0.00000000000E+00 -0.10000000000E+04  0.10000000000E+04  0.00000000000E+00 0.  1.
    9000005    2    1    2  501    0  0.45321768477E+00 -0.18392231459E-01 -0.94650569295E+03  0.10533798741E+04  0.46231582991E+03 0.  0.
         13    1    3    3    0    0  0.27168036845E+02  0.22340032373E+03 -0.35280175099E+03  0.41846730144E+03  0.00000000000E+00 0.  1.
          1    1    3    3  501    0 -0.26714819160E+02 -0.22341871596E+03 -0.59370394196E+03  0.63491257264E+03  0.00000000000E+00 0.  1.
         21    1    1    2  502  501 -0.45321768477E+00  0.18392231459E-01  0.84175761166E+00  0.95619057763E+00  0.00000000000E+00 0.  1.
<mgrwt>
<rscale>  1 0.46231605E+03</rscale>
<asrwt>0</asrwt>
<pdfrwt beam="1">  1        1 0.19758611E+00 0.46231605E+03</pdfrwt>
<pdfrwt beam="2">0</pdfrwt>
<totfact> 0.10605694E+01</totfact>
</mgrwt>
</event>
<event>
 6    1  0.2339725E-003  0.6565195E+03  0.7818608E-02  0.9794622E-01
          1   -1    0    0  502    0  0.00000000000E+00  0.00000000000E+00  0.10776332422E+03  0.10776332422E+03  0.00000000000E+00 0.  1.
         13   -1    0    0    0    0 -0.00000000000E+00 -0.00000000000E+00 -0.10000000000E+04  0.10000000000E+04  0.00000000000E+00 0.  1.
    9000005    2    1    2  501    0  0.88405859897E-02 -0.14778225303E-02 -0.89224296622E+03  0.11077523739E+04  0.65651946736E+03 0.  0.
         13    1    3    3    0    0 -0.12924158743E+03  0.20111403845E+03 -0.82568006015E+03  0.85959165079E+03  0.00000000000E+00 0.  1.
          3    1    3    3  501    0  0.12925042802E+03 -0.20111551627E+03 -0.66562906067E+02  0.24816072310E+03  0.00000000000E+00 0.  1.
         21    1    1    2  502  501 -0.88405859898E-02  0.14778225303E-02  0.62904372688E-02  0.10950320594E-01  0.00000000000E+00 0.  1.
<mgrwt>
<rscale>  1 0.65651947E+03</rscale>
<asrwt>0</asrwt>
<pdfrwt beam="1">  1        1 0.39186746E+00 0.65651947E+03</pdfrwt>
<pdfrwt beam="2">0</pdfrwt>
<totfact> 0.14523032E+00</totfact>
</mgrwt>
</event>
<event>
 6    1  0.2339725E-003  0.5490866E+03  0.7818608E-02  0.1001706E+00
          1   -1    0    0  502    0  0.00000000000E+00  0.00000000000E+00  0.75454305055E+02  0.75454305055E+02  0.00000000000E+00 0.  1.
         13   -1    0    0    0    0 -0.00000000000E+00 -0.00000000000E+00 -0.10000000000E+04  0.10000000000E+04  0.00000000000E+00 0.  1.
    9000005    2    1    2  501    0  0.11710879597E-02 -0.79330507319E-03 -0.92462596031E+03  0.10753740272E+04  0.54908663428E+03 0.  0.
         13    1    3    3    0    0 -0.88106440974E+02 -0.25454467075E+03 -0.56628609372E+03  0.62708506145E+03  0.00000000000E+00 0.  1.
          3    1    3    3  501    0  0.88107612062E+02  0.25454387745E+03 -0.35833986659E+03  0.44828896578E+03  0.00000000000E+00 0.  1.
         21    1    1    2  502  501 -0.11710879597E-02  0.79330507318E-03  0.80265366000E-01  0.80277828565E-01  0.00000000000E+00 0. -1.
<mgrwt>
<rscale>  1 0.54908663E+03</rscale>
<asrwt>0</asrwt>
<pdfrwt beam="1">  1        1 0.27437987E+00 0.54908663E+03</pdfrwt>
<pdfrwt beam="2">0</pdfrwt>
<totfact> 0.48022356E+00</totfact>
</mgrwt>
</event>
<event>
 6    1  0.2339725E-003  0.6521508E+03  0.7818608E-02  0.9802752E-01
          1   -1    0    0  502    0  0.00000000000E+00  0.00000000000E+00  0.10637140796E+03  0.10637140796E+03  0.00000000000E+00 0.  1.
         13   -1    0    0    0    0 -0.00000000000E+00 -0.00000000000E+00 -0.10000000000E+04  0.10000000000E+04  0.00000000000E+00 0.  1.
    9000005    2    1    2  501    0 -0.28077046431E-03  0.54164528602E-02 -0.89367464433E+03  0.11063250374E+04  0.65215084021E+03 0.  0.
         13    1    3    3    0    0  0.22599862824E+03 -0.16775589486E+03 -0.72613706156E+03  0.77877625310E+03  0.00000000000E+00 0.  1.
          1    1    3    3  501    0 -0.22599890901E+03  0.16776131131E+03 -0.16753758277E+03  0.32754878428E+03  0.00000000000E+00 0.  1.
         21    1    1    2  502  501  0.28077046432E-03 -0.54164528602E-02  0.46052288565E-01  0.46370573381E-01  0.00000000000E+00 0.  1.
<mgrwt>
<rscale>  1 0.65215084E+03</rscale>
<asrwt>0</asrwt>
<pdfrwt beam="1">  1        1 0.38680594E+00 0.65215084E+03</pdfrwt>
<pdfrwt beam="2">0</pdfrwt>
<totfact> 0.15305513E+00</totfact>
</mgrwt>
</event>
<event>
 6    1  0.2339725E-003  0.6535187E+03  0.7818608E-02  0.9800199E-01
          1   -1    0    0  502    0  0.00000000000E+00  0.00000000000E+00  0.10732058607E+03  0.10732058607E+03  0.00000000000E+00 0.  1.
         13   -1    0    0    0    0 -0.00000000000E+00 -0.00000000000E+00 -0.10000000000E+04  0.10000000000E+04  0.00000000000E+00 0.  1.
    9000005    2    1    2  501    0  0.18638847495E-01  0.72190624655E-02 -0.89322811182E+03  0.11067715242E+04  0.65351874245E+03 0.  0.
         13    1    3    3    0    0  0.97378626185E+02  0.15581263880E+03 -0.90423951395E+03  0.92271841525E+03  0.00000000000E+00 0.  1.
          3    1    3    3  501    0 -0.97359987337E+02 -0.15580541974E+03  0.11011402133E+02  0.18405310900E+03  0.00000000000E+00 0.  1.
         21    1    1    2  502  501 -0.18638847495E-01 -0.72190624654E-02  0.54869788259E+00  0.54906182516E+00  0.00000000000E+00 0. -1.
<mgrwt>
<rscale>  1 0.65351874E+03</rscale>
<asrwt>0</asrwt>
<pdfrwt beam="1">  1        1 0.39025750E+00 0.65351874E+03</pdfrwt>
<pdfrwt beam="2">0</pdfrwt>
<totfact> 0.14772128E+00</totfact>
</mgrwt>
</event>
<event>
 6    1  0.3042535E-003  0.6478045E+03  0.7818608E-02  0.9810908E-01
          1   -1    0    0  502    0  0.00000000000E+00  0.00000000000E+00  0.10491267652E+03  0.10491267652E+03  0.00000000000E+00 0.  1.
         13   -1    0    0    0    0 -0.00000000000E+00 -0.00000000000E+00 -0.10000000000E+04  0.10000000000E+04  0.00000000000E+00 0.  1.
    9000005    2    1    2  501    0  0.31839072108E-05 -0.55173876490E-05 -0.89508732140E+03  0.11049126698E+04  0.64780451913E+03 0.  0.
         13    1    3    3    0    0  0.24628458178E+03  0.74854394257E+02 -0.11220948141E+03  0.28080285483E+03  0.00000000000E+00 0.  1.
          3    1    3    3  501    0 -0.24628457859E+03 -0.74854399774E+02 -0.78287784000E+03  0.82410981500E+03  0.00000000000E+00 0.  1.
         21    1    1    2  502  501 -0.31839072089E-05  0.55173876609E-05 -0.20752183912E-05  0.66996539527E-05  0.00000000000E+00 0. -1.
<mgrwt>
<rscale>  1 0.64780452E+03</rscale>
<asrwt>0</asrwt>
<pdfrwt beam="1">  1        1 0.38150145E+00 0.64780452E+03</pdfrwt>
<pdfrwt beam="2">0</pdfrwt>
<totfact> 0.16167738E+00</totfact>
</mgrwt>
</event>
<event>
 6    1  0.2339725E-003  0.6517128E+03  0.7818608E-02  0.9803571E-01
          1   -1    0    0  502    0  0.00000000000E+00  0.00000000000E+00  0.10618784744E+03  0.10618784744E+03  0.00000000000E+00 0.  1.
         13   -1    0    0    0    0 -0.00000000000E+00 -0.00000000000E+00 -0.10000000000E+04  0.10000000000E+04  0.00000000000E+00 0.  1.
    9000005    2    1    2  501    0 -0.75091544483E-03  0.17916045097E-02 -0.89381742944E+03  0.11061822243E+04  0.65171275597E+03 0.  0.
         13    1    3    3    0    0  0.31804494346E+03  0.88613204060E+01 -0.32747671961E+03  0.45658746254E+03  0.00000000000E+00 0.  1.
          3    1    3    3  501    0 -0.31804569438E+03 -0.88595288014E+01 -0.56634070983E+03  0.64959476181E+03  0.00000000000E+00 0.  1.
         21    1    1    2  502  501  0.75091544480E-03 -0.17916045097E-02  0.52768712115E-02  0.56230854971E-02  0.00000000000E+00 0. -1.
<mgrwt>
<rscale>  1 0.65171276E+03</rscale>
<asrwt>0</asrwt>
<pdfrwt beam="1">  1        1 0.38613844E+00 0.65171276E+03</pdfrwt>
<pdfrwt beam="2">0</pdfrwt>
<totfact> 0.15411247E+00</totfact>
</mgrwt>
</event>
<event>
 6    1  0.2339725E-003  0.6376857E+03  0.7818608E-02  0.9830164E-01
          1   -1    0    0  502    0  0.00000000000E+00  0.00000000000E+00  0.10169665291E+03  0.10169665291E+03  0.00000000000E+00 0.  1.
         13   -1    0    0    0    0 -0.00000000000E+00 -0.00000000000E+00 -0.10000000000E+04  0.10000000000E+04  0.00000000000E+00 0.  1.
    9000005    2    1    2  501    0 -0.47948397064E-02 -0.36865612531E-02 -0.89833894761E+03  0.11016605423E+04  0.63768572634E+03 0.  0.
         13    1    3    3    0    0 -0.29091177732E+03  0.93690929957E+02 -0.60612773335E+03  0.67882139158E+03  0.00000000000E+00 0.  1.
          3    1    3    3  501    0  0.29090698248E+03 -0.93694616518E+02 -0.29221121426E+03  0.42283915069E+03  0.00000000000E+00 0.  1.
         21    1    1    2  502  501  0.47948397064E-02  0.36865612531E-02  0.35600521101E-01  0.36110640043E-01  0.00000000000E+00 0.  1.
<mgrwt>
<rscale>  1 0.63768573E+03</rscale>
<asrwt>0</asrwt>
<pdfrwt beam="1">  1        1 0.36980679E+00 0.63768573E+03</pdfrwt>
<pdfrwt beam="2">0</pdfrwt>
<totfact> 0.18236783E+00</totfact>
</mgrwt>
</event>
<event>
 6    1  0.2339725E-003  0.6489297E+03  0.7818608E-02  0.9808790E-01
          1   -1    0    0  502    0  0.00000000000E+00  0.00000000000E+00  0.10528230109E+03  0.10528230109E+03  0.00000000000E+00 0.  1.
         13   -1    0    0    0    0 -0.00000000000E+00 -0.00000000000E+00 -0.10000000000E+04  0.10000000000E+04  0.00000000000E+00 0.  1.
    9000005    2    1    2  501    0 -0.29617653438E-02 -0.32846387131E-03 -0.89472205492E+03  0.11052770233E+04  0.64892969013E+03 0.  0.
         13    1    3    3    0    0 -0.28427716540E+03 -0.15413150783E+03 -0.40203330630E+03  0.51594651646E+03  0.00000000000E+00 0.  1.
          3    1    3    3  501    0  0.28427420364E+03  0.15413117936E+03 -0.49268874862E+03  0.58933050687E+03  0.00000000000E+00 0.  1.
         21    1    1    2  502  501  0.29617653438E-02  0.32846387132E-03  0.43560056837E-02  0.52777578556E-02  0.00000000000E+00 0. -1.
<mgrwt>
<rscale>  1 0.64892969E+03</rscale>
<asrwt>0</asrwt>
<pdfrwt beam="1">  1        1 0.38284554E+00 0.64892969E+03</pdfrwt>
<pdfrwt beam="2">0</pdfrwt>
<totfact> 0.15944924E+00</totfact>
</mgrwt>
</event>
<event>
 6    1  0.2339725E-003  0.6492170E+03  0.7818608E-02  0.9808250E-01
          1   -1    0    0  502    0  0.00000000000E+00  0.00000000000E+00  0.10537068733E+03  0.10537068733E+03  0.00000000000E+00 0.  1.
         13   -1    0    0    0    0 -0.00000000000E+00 -0.00000000000E+00 -0.10000000000E+04  0.10000000000E+04  0.00000000000E+00 0.  1.
    9000005    2    1    2  501    0  0.48189983062E-05 -0.12992908012E-05 -0.89462931886E+03  0.11053706794E+04  0.64921700584E+03 0.  0.
         13    1    3    3    0    0  0.10604592221E+03 -0.24566165050E+03 -0.13440595960E+03  0.29943337509E+03  0.00000000000E+00 0.  1.
          1    1    3    3  501    0 -0.10604591739E+03  0.24566164920E+03 -0.76022335926E+03  0.80593730429E+03  0.00000000000E+00 0.  1.
         21    1    1    2  502  501 -0.48189983167E-05  0.12992908118E-05  0.61835748713E-05  0.79465401012E-05  0.00000000000E+00 0. -1.
<mgrwt>
<rscale>  1 0.64921701E+03</rscale>
<asrwt>0</asrwt>
<pdfrwt beam="1">  1        1 0.38316694E+00 0.64921701E+03</pdfrwt>
<pdfrwt beam="2">0</pdfrwt>
<totfact> 0.15892025E+00</totfact>
</mgrwt>
</event>
<event>
 6    1  0.2339725E-003  0.6528811E+03  0.7818608E-02  0.9801388E-01
          1   -1    0    0  502    0  0.00000000000E+00  0.00000000000E+00  0.11112192485E+03  0.11112192485E+03  0.00000000000E+00 0.  1.
         13   -1    0    0    0    0 -0.00000000000E+00 -0.00000000000E+00 -0.10000000000E+04  0.10000000000E+04  0.00000000000E+00 0.  1.
    9000005    2    1    2  501    0  0.95287101416E+00  0.58432009965E-01 -0.89338118329E+03  0.11065187346E+04  0.65288043316E+03 0.  0.
         13    1    3    3    0    0 -0.57337613522E+02 -0.32105646278E+03 -0.42760602469E+03  0.53778412636E+03  0.00000000000E+00 0.  1.
          3    1    3    3  501    0  0.58290484536E+02  0.32111489479E+03 -0.46577515860E+03  0.56873460825E+03  0.00000000000E+00 0.  1.
         21    1    1    2  502  501 -0.95287101416E+00 -0.58432009965E-01  0.45031081405E+01  0.46031902410E+01  0.00000000000E+00 0. -1.
<mgrwt>
<rscale>  1 0.65288113E+03</rscale>
<asrwt>0</asrwt>
<pdfrwt beam="1">  1        1 0.40408058E+00 0.65288113E+03</pdfrwt>
<pdfrwt beam="2">0</pdfrwt>
<totfact> 0.12822322E+00</totfact>
</mgrwt>
</event>
<event>
 6    1  0.2339725E-003  0.6500803E+03  0.7818608E-02  0.9806629E-01
          3   -1    0    0  502    0  0.00000000000E+00  0.00000000000E+00  0.10565116844E+03  0.10565116844E+03  0.00000000000E+00 0.  1.
         13   -1    0    0    0    0 -0.00000000000E+00 -0.00000000000E+00 -0.10000000000E+04  0.10000000000E+04  0.00000000000E+00 0.  1.
    9000005    2    1    2  501    0 -0.16166597138E-03  0.94229621062E-04 -0.89434876578E+03  0.11056509701E+04  0.65008026643E+03 0.  0.
         13    1    3    3    0    0 -0.17346105033E+03  0.45358276512E+02  0.13940859438E+02  0.17983452614E+03  0.00000000000E+00 0.  1.
          3    1    3    3  501    0  0.17346088867E+03 -0.45358182283E+02 -0.90828962522E+03  0.92581644395E+03  0.00000000000E+00 0.  1.
         21    1    1    2  502  501  0.16166597138E-03 -0.94229621059E-04 -0.65780061133E-04  0.19834849188E-03  0.00000000000E+00 0.  1.
<mgrwt>
<rscale>  1 0.65008027E+03</rscale>
<asrwt>0</asrwt>
<pdfrwt beam="1">  1        3 0.38418688E+00 0.65008027E+03</pdfrwt>
<pdfrwt beam="2">0</pdfrwt>
<totfact> 0.71733558E-02</totfact>
</mgrwt>
</event>
<event>
 6    1  0.2339725E-003  0.6534177E+03  0.7818608E-02  0.9800387E-01
          1   -1    0    0  502    0  0.00000000000E+00  0.00000000000E+00  0.10674008915E+03  0.10674008915E+03  0.00000000000E+00 0.  1.
         13   -1    0    0    0    0 -0.00000000000E+00 -0.00000000000E+00 -0.10000000000E+04  0.10000000000E+04  0.00000000000E+00 0.  1.
    9000005    2    1    2  501    0  0.98983586750E-03 -0.35989043431E-02 -0.89325769724E+03  0.11067357496E+04  0.65341771150E+03 0.  0.
         13    1    3    3    0    0 -0.21463607853E+03 -0.80318244338E+02 -0.84102195088E+03  0.87168663432E+03  0.00000000000E+00 0.  1.
          1    1    3    3  501    0  0.21463706836E+03  0.80314645434E+02 -0.52235746353E+02  0.23504911526E+03  0.00000000000E+00 0.  1.
         21    1    1    2  502  501 -0.98983586751E-03  0.35989043431E-02 -0.22136086635E-02  0.43395795683E-02  0.00000000000E+00 0. -1.
<mgrwt>
<rscale>  1 0.65341771E+03</rscale>
<asrwt>0</asrwt>
<pdfrwt beam="1">  1        1 0.38814660E+00 0.65341771E+03</pdfrwt>
<pdfrwt beam="2">0</pdfrwt>
<totfact> 0.15094142E+00</totfact>
</mgrwt>
</event>
<event>
 6    1  0.2339725E-003  0.6301597E+03  0.7818608E-02  0.9844737E-01
          1   -1    0    0  502    0  0.00000000000E+00  0.00000000000E+00  0.99783998709E+02  0.99783998709E+02  0.00000000000E+00 0.  1.
         13   -1    0    0    0    0 -0.00000000000E+00 -0.00000000000E+00 -0.10000000000E+04  0.10000000000E+04  0.00000000000E+00 0.  1.
    9000005    2    1    2  501    0 -0.14715215054E-01  0.10597614749E-01 -0.90072450898E+03  0.10992751678E+04  0.63015970444E+03 0.  0.
         13    1    3    3    0    0  0.22536111300E+03 -0.20164344836E+03 -0.60463314921E+03  0.67603916798E+03  0.00000000000E+00 0.  1.
          1    1    3    3  501    0 -0.22537582821E+03  0.20165404597E+03 -0.29609135977E+03  0.42323599980E+03  0.00000000000E+00 0.  1.
         21    1    1    2  502  501  0.14715215054E-01 -0.10597614749E-01  0.50850768694E+00  0.50883092936E+00  0.00000000000E+00 0.  1.
<mgrwt>
<rscale>  1 0.63015970E+03</rscale>
<asrwt>0</asrwt>
<pdfrwt beam="1">  1        1 0.36285167E+00 0.63015970E+03</pdfrwt>
<pdfrwt beam="2">0</pdfrwt>
<totfact> 0.19590190E+00</totfact>
</mgrwt>
</event>
<event>
 6    1  0.2339725E-003  0.6504778E+03  0.7818608E-02  0.9805883E-01
          3   -1    0    0  502    0  0.00000000000E+00  0.00000000000E+00  0.10578137164E+03  0.10578137164E+03  0.00000000000E+00 0.  1.
         13   -1    0    0    0    0 -0.00000000000E+00 -0.00000000000E+00 -0.10000000000E+04  0.10000000000E+04  0.00000000000E+00 0.  1.
    9000005    2    1    2  501    0 -0.14829360390E-03 -0.90375241683E-04 -0.89421963731E+03  0.11057803479E+04  0.65047783817E+03 0.  0.
         13    1    3    3    0    0 -0.25544700922E+03 -0.19966638928E+03 -0.40341859148E+03  0.51755811411E+03  0.00000000000E+00 0.  1.
          1    1    3    3  501    0  0.25544686093E+03  0.19966629891E+03 -0.49080104583E+03  0.58822223374E+03  0.00000000000E+00 0.  1.
         21    1    1    2  502  501  0.14829360391E-03  0.90375241674E-04  0.10089543194E-02  0.10237907481E-02  0.00000000000E+00 0. -1.
<mgrwt>
<rscale>  1 0.65047784E+03</rscale>
<asrwt>0</asrwt>
<pdfrwt beam="1">  1        3 0.38466034E+00 0.65047784E+03</pdfrwt>
<pdfrwt beam="2">0</pdfrwt>
<totfact> 0.71317629E-02</totfact>
</mgrwt>
</event>
<event>
 6    1  0.2339725E-003  0.6627196E+03  0.7818608E-02  0.9783200E-01
          1   -1    0    0  502    0  0.00000000000E+00  0.00000000000E+00  0.11797168733E+03  0.11797168733E+03  0.00000000000E+00 0.  1.
         13   -1    0    0    0    0 -0.00000000000E+00 -0.00000000000E+00 -0.10000000000E+04  0.10000000000E+04  0.00000000000E+00 0.  1.
    9000005    2    1    2  501    0 -0.11363040706E+00  0.18383000558E+00 -0.89019909870E+03  0.11097980437E+04  0.66271956049E+03 0.  0.
         13    1    3    3    0    0 -0.18828523948E+03 -0.37419989089E+02  0.72091740586E+01  0.19210299107E+03  0.00000000000E+00 0.  1.
          1    1    3    3  501    0  0.18817160907E+03  0.37603819095E+02 -0.89740827275E+03  0.91769505266E+03  0.00000000000E+00 0.  1.
         21    1    1    2  502  501  0.11363040706E+00 -0.18383000558E+00  0.81707860275E+01  0.81736435968E+01  0.00000000000E+00 0.  1.
<mgrwt>
<rscale>  1 0.66271960E+03</rscale>
<asrwt>0</asrwt>
<pdfrwt beam="1">  1        1 0.42898886E+00 0.66271960E+03</pdfrwt>
<pdfrwt beam="2">0</pdfrwt>
<totfact> 0.98855024E-01</totfact>
</mgrwt>
</event>
<event>
 6    1  0.2339725E-003  0.6476802E+03  0.7818608E-02  0.9811142E-01
          1   -1    0    0  502    0  0.00000000000E+00  0.00000000000E+00  0.10574454989E+03  0.10574454989E+03  0.00000000000E+00 0.  1.
         13   -1    0    0    0    0 -0.00000000000E+00 -0.00000000000E+00 -0.10000000000E+04  0.10000000000E+04  0.00000000000E+00 0.  1.
    9000005    2    1    2  501    0  0.21880503185E-01 -0.95593949043E-01 -0.89512455276E+03  0.11048699320E+04  0.64768016192E+03 0.  0.
         13    1    3    3    0    0 -0.50208718160E+02  0.27873254963E+03 -0.71523461245E+03  0.76926802901E+03  0.00000000000E+00 0.  1.
          3    1    3    3  501    0  0.50230598663E+02 -0.27882814358E+03 -0.17988994031E+03  0.33560190303E+03  0.00000000000E+00 0.  1.
         21    1    1    2  502  501 -0.21880503185E-01  0.95593949043E-01  0.86910265325E+00  0.87461784878E+00  0.00000000000E+00 0. -1.
<mgrwt>
<rscale>  1 0.64768017E+03</rscale>
<asrwt>0</asrwt>
<pdfrwt beam="1">  1        1 0.38452645E+00 0.64768017E+03</pdfrwt>
<pdfrwt beam="2">0</pdfrwt>
<totfact> 0.15678079E+00</totfact>
</mgrwt>
</event>
<event>
 6    1  0.2339725E-003  0.6546545E+03  0.7818608E-02  0.9798084E-01
          1   -1    0    0  502    0  0.00000000000E+00  0.00000000000E+00  0.10714431551E+03  0.10714431551E+03  0.00000000000E+00 0.  1.
         13   -1    0    0    0    0 -0.00000000000E+00 -0.00000000000E+00 -0.10000000000E+04  0.10000000000E+04  0.00000000000E+00 0.  1.
    9000005    2    1    2  501    0  0.17976683068E-04 -0.38783996580E-04 -0.89285686980E+03  0.11071431294E+04  0.65465450361E+03 0.  0.
         13    1    3    3    0    0  0.25260404742E+03 -0.54228013651E+02 -0.78632611361E+03  0.82768245069E+03  0.00000000000E+00 0.  1.
          1    1    3    3  501    0 -0.25260402944E+03  0.54227974867E+02 -0.10653075619E+03  0.27946067874E+03  0.00000000000E+00 0.  1.
         21    1    1    2  502  501 -0.17976683079E-04  0.38783996578E-04  0.11853044122E-02  0.11860750015E-02  0.00000000000E+00 0.  1.
<mgrwt>
<rscale>  1 0.65465450E+03</rscale>
<asrwt>0</asrwt>
<pdfrwt beam="1">  1        1 0.38961651E+00 0.65465450E+03</pdfrwt>
<pdfrwt beam="2">0</pdfrwt>
<totfact> 0.14865995E+00</totfact>
</mgrwt>
</event>
<event>
 6    1  0.2339725E-003  0.6513561E+03  0.7818608E-02  0.9804238E-01
          1   -1    0    0  502    0  0.00000000000E+00  0.00000000000E+00  0.11208571433E+03  0.11208571433E+03  0.00000000000E+00 0.  1.
         13   -1    0    0    0    0 -0.00000000000E+00 -0.00000000000E+00 -0.10000000000E+04  0.10000000000E+04  0.00000000000E+00 0.  1.
    9000005    2    1    2  501    0  0.12417798920E+00 -0.14850787381E+00 -0.89393208810E+03  0.11060647990E+04  0.65135606551E+03 0.  0.
         13    1    3    3    0    0 -0.30262505905E+03 -0.88117684131E+02 -0.30797088754E+03  0.44067303094E+03  0.00000000000E+00 0.  1.
          1    1    3    3  501    0  0.30274923704E+03  0.87969176257E+02 -0.58596120056E+03  0.66539176810E+03  0.00000000000E+00 0.  1.
         21    1    1    2  502  501 -0.12417798920E+00  0.14850787381E+00  0.60178024338E+01  0.60209152871E+01  0.00000000000E+00 0. -1.
<mgrwt>
<rscale>  1 0.65135609E+03</rscale>
<asrwt>0</asrwt>
<pdfrwt beam="1">  1        1 0.40758528E+00 0.65135609E+03</pdfrwt>
<pdfrwt beam="2">0</pdfrwt>
<totfact> 0.12371444E+00</totfact>
</mgrwt>
</event>
<event>
 6    1  0.2339725E-003  0.6472874E+03  0.7818608E-02  0.9811882E-01
          1   -1    0    0  502    0  0.00000000000E+00  0.00000000000E+00  0.10474594379E+03  0.10474594379E+03  0.00000000000E+00 0.  1.
         13   -1    0    0    0    0 -0.00000000000E+00 -0.00000000000E+00 -0.10000000000E+04  0.10000000000E+04  0.00000000000E+00 0.  1.
    9000005    2    1    2  501    0  0.60643931363E-04 -0.43389601956E-05 -0.89525474615E+03  0.11047452512E+04  0.64728742418E+03 0.  0.
         13    1    3    3    0    0  0.13338468159E+03 -0.28811621406E+03 -0.34045836053E+03  0.46552585464E+03  0.00000000000E+00 0.  1.
          3    1    3    3  501    0 -0.13338462095E+03  0.28811620972E+03 -0.55479638562E+03  0.63921939654E+03  0.00000000000E+00 0.  1.
         21    1    1    2  502  501 -0.60643931355E-04  0.43389601864E-05  0.68993471526E-03  0.69260842061E-03  0.00000000000E+00 0. -1.
<mgrwt>
<rscale>  1 0.64728742E+03</rscale>
<asrwt>0</asrwt>
<pdfrwt beam="1">  1        1 0.38089514E+00 0.64728742E+03</pdfrwt>
<pdfrwt beam="2">0</pdfrwt>
<totfact> 0.16269242E+00</totfact>
</mgrwt>
</event>
<event>
 6    1  0.3291128E-003  0.6404752E+03  0.7818608E-02  0.9824818E-01
          1   -1    0    0  502    0  0.00000000000E+00  0.00000000000E+00  0.10255213081E+03  0.10255213081E+03  0.00000000000E+00 0.  1.
         13   -1    0    0    0    0 -0.00000000000E+00 -0.00000000000E+00 -0.10000000000E+04  0.10000000000E+04  0.00000000000E+00 0.  1.
    9000005    2    1    2  501    0  0.44298237043E-05 -0.12872969251E-05 -0.89744786917E+03  0.11025521262E+04  0.64047522443E+03 0.  0.
         13    1    3    3    0    0  0.78190273879E+02  0.18379476179E+03 -0.17815796106E+02  0.20052839196E+03  0.00000000000E+00 0.  1.
          1    1    3    3  501    0 -0.78190269449E+02 -0.18379476308E+03 -0.87963207307E+03  0.90202373424E+03  0.00000000000E+00 0.  1.
         21    1    1    2  502  501 -0.44298237079E-05  0.12872969178E-05 -0.12075170998E-07  0.46130919401E-05  0.00000000000E+00 0. -1.
<mgrwt>
<rscale>  1 0.64047522E+03</rscale>
<asrwt>0</asrwt>
<pdfrwt beam="1">  1        1 0.37291763E+00 0.64047522E+03</pdfrwt>
<pdfrwt beam="2">0</pdfrwt>
<totfact> 0.17662684E+00</totfact>
</mgrwt>
</event>
<event>
 6    1  0.2339725E-003  0.6441560E+03  0.7818608E-02  0.9817807E-01
          1   -1    0    0  502    0  0.00000000000E+00  0.00000000000E+00  0.10390775356E+03  0.10390775356E+03  0.00000000000E+00 0.  1.
         13   -1    0    0    0    0 -0.00000000000E+00 -0.00000000000E+00 -0.10000000000E+04  0.10000000000E+04  0.00000000000E+00 0.  1.
    9000005    2    1    2  501    0  0.42815578805E-02  0.29508653967E-02 -0.89626571565E+03  0.11037342064E+04  0.64415601012E+03 0.  0.
         13    1    3    3    0    0  0.11588953104E+03 -0.28794981384E+03 -0.59541383450E+03  0.67146341152E+03  0.00000000000E+00 0.  1.
          1    1    3    3  501    0 -0.11588524948E+03  0.28795276470E+03 -0.30085188114E+03  0.43227079491E+03  0.00000000000E+00 0.  1.
         21    1    1    2  502  501 -0.42815578805E-02 -0.29508653967E-02  0.17346921024E+00  0.17354712976E+00  0.00000000000E+00 0.  1.
<mgrwt>
<rscale>  1 0.64415601E+03</rscale>
<asrwt>0</asrwt>
<pdfrwt beam="1">  1        1 0.37784717E+00 0.64415601E+03</pdfrwt>
<pdfrwt beam="2">0</pdfrwt>
<totfact> 0.16790413E+00</totfact>
</mgrwt>
</event>
<event>
 6    1  0.2339725E-003  0.6484481E+03  0.7818608E-02  0.9809696E-01
          1   -1    0    0  502    0  0.00000000000E+00  0.00000000000E+00  0.10512144337E+03  0.10512144337E+03  0.00000000000E+00 0.  1.
         13   -1    0    0    0    0 -0.00000000000E+00 -0.00000000000E+00 -0.10000000000E+04  0.10000000000E+04  0.00000000000E+00 0.  1.
    9000005    2    1    2  501    0 -0.11209767820E-04  0.73594715332E-04 -0.89487874733E+03  0.11051212387E+04  0.64844813185E+03 0.  0.
         13    1    3    3    0    0 -0.14224890367E+03  0.19202667703E+03 -0.82087076250E+03  0.85494900667E+03  0.00000000000E+00 0.  1.
          1    1    3    3  501    0  0.14224889246E+03 -0.19202660344E+03 -0.74007984832E+02  0.25017223198E+03  0.00000000000E+00 0.  1.
         21    1    1    2  502  501  0.11209767809E-04 -0.73594715323E-04  0.19070182663E-03  0.20471694531E-03  0.00000000000E+00 0. -1.
<mgrwt>
<rscale>  1 0.64844813E+03</rscale>
<asrwt>0</asrwt>
<pdfrwt beam="1">  1        1 0.38226060E+00 0.64844813E+03</pdfrwt>
<pdfrwt beam="2">0</pdfrwt>
<totfact> 0.16041506E+00</totfact>
</mgrwt>
</event>
<event>
 6    1  0.2339725E-003  0.6462394E+03  0.7818608E-02  0.9813861E-01
          1   -1    0    0  502    0  0.00000000000E+00  0.00000000000E+00  0.10441307103E+03  0.10441307103E+03  0.00000000000E+00 0.  1.
         13   -1    0    0    0    0 -0.00000000000E+00 -0.00000000000E+00 -0.10000000000E+04  0.10000000000E+04  0.00000000000E+00 0.  1.
    9000005    2    1    2  501    0  0.32915231132E-02  0.67142328828E-03 -0.89559320389E+03  0.11044059535E+04  0.64623936990E+03 0.  0.
         13    1    3    3    0    0  0.14302930028E+03 -0.28871545864E+02  0.44896362138E+02  0.15266509173E+03  0.00000000000E+00 0.  1.
          3    1    3    3  501    0 -0.14302600876E+03  0.28872217287E+02 -0.94048956603E+03  0.95174086175E+03  0.00000000000E+00 0.  1.
         21    1    1    2  502  501 -0.32915231132E-02 -0.67142328828E-03  0.62749236601E-02  0.71175558007E-02  0.00000000000E+00 0.  1.
<mgrwt>
<rscale>  1 0.64623937E+03</rscale>
<asrwt>0</asrwt>
<pdfrwt beam="1">  1        1 0.37968470E+00 0.64623937E+03</pdfrwt>
<pdfrwt beam="2">0</pdfrwt>
<totfact> 0.16473753E+00</totfact>
</mgrwt>
</event>
<event>
 6    1  0.2339725E-003  0.5983871E+03  0.7818608E-02  0.9908758E-01
          1   -1    0    0  502    0  0.00000000000E+00  0.00000000000E+00  0.90449032499E+02  0.90449032499E+02  0.00000000000E+00 0.  1.
         13   -1    0    0    0    0 -0.00000000000E+00 -0.00000000000E+00 -0.10000000000E+04  0.10000000000E+04  0.00000000000E+00 0.  1.
    9000005    2    1    2  501    0  0.78308400260E-01 -0.16793432529E-01 -0.91048135020E+03  0.10895152091E+04  0.59838707819E+03 0.  0.
         13    1    3    3    0    0  0.20313747145E+03 -0.32204793675E+01 -0.85525697797E+03  0.87905614278E+03  0.00000000000E+00 0.  1.
          1    1    3    3  501    0 -0.20305916305E+03  0.32036859349E+01 -0.55224372230E+02  0.21045906630E+03  0.00000000000E+00 0.  1.
         21    1    1    2  502  501 -0.78308400260E-01  0.16793432529E-01  0.93038269487E+00  0.93382342220E+00  0.00000000000E+00 0.  1.
<mgrwt>
<rscale>  1 0.59838708E+03</rscale>
<asrwt>0</asrwt>
<pdfrwt beam="1">  1        1 0.32890627E+00 0.59838708E+03</pdfrwt>
<pdfrwt beam="2">0</pdfrwt>
<totfact> 0.27684485E+00</totfact>
</mgrwt>
</event>
<event>
 6    1  0.2339725E-003  0.6470472E+03  0.7818608E-02  0.9812336E-01
          1   -1    0    0  502    0  0.00000000000E+00  0.00000000000E+00  0.10477153660E+03  0.10477153660E+03  0.00000000000E+00 0.  1.
         13   -1    0    0    0    0 -0.00000000000E+00 -0.00000000000E+00 -0.10000000000E+04  0.10000000000E+04  0.00000000000E+00 0.  1.
    9000005    2    1    2  501    0 -0.27218971342E-02 -0.17762673173E-02 -0.89533245496E+03  0.11046674943E+04  0.64704719145E+03 0.  0.
         13    1    3    3    0    0 -0.21787544449E+03 -0.12627817078E+03 -0.10091477013E+03  0.27129260321E+03  0.00000000000E+00 0.  1.
          3    1    3    3  501    0  0.21787272259E+03  0.12627639451E+03 -0.79441768483E+03  0.83337489105E+03  0.00000000000E+00 0.  1.
         21    1    1    2  502  501  0.27218971342E-02  0.17762673173E-02  0.10399156233E+00  0.10404234179E+00  0.00000000000E+00 0.  1.
<mgrwt>
<rscale>  1 0.64704719E+03</rscale>
<asrwt>0</asrwt>
<pdfrwt beam="1">  1        1 0.38098821E+00 0.64704719E+03</pdfrwt>
<pdfrwt beam="2">0</pdfrwt>
<totfact> 0.16254578E+00</totfact>
</mgrwt>
</event>
<event>
 6    1  0.2339725E-003  0.6377011E+03  0.7818608E-02  0.9830135E-01
          1   -1    0    0  502    0  0.00000000000E+00  0.00000000000E+00  0.10167592738E+03  0.10167592738E+03  0.00000000000E+00 0.  1.
         13   -1    0    0    0    0 -0.00000000000E+00 -0.00000000000E+00 -0.10000000000E+04  0.10000000000E+04  0.00000000000E+00 0.  1.
    9000005    2    1    2  501    0 -0.33420112877E-02 -0.34113259140E-02 -0.89833371452E+03  0.11016651676E+04  0.63770108898E+03 0.  0.
         13    1    3    3    0    0  0.43308305402E+01 -0.31855373083E+03 -0.42654505621E+03  0.53238700256E+03  0.00000000000E+00 0.  1.
          1    1    3    3  501    0 -0.43341725515E+01  0.31855031950E+03 -0.47178865831E+03  0.56927816506E+03  0.00000000000E+00 0.  1.
         21    1    1    2  502  501  0.33420112877E-02  0.34113259140E-02  0.96419026222E-02  0.10759761620E-01  0.00000000000E+00 0.  1.
<mgrwt>
<rscale>  1 0.63770109E+03</rscale>
<asrwt>0</asrwt>
<pdfrwt beam="1">  1        1 0.36973142E+00 0.63770109E+03</pdfrwt>
<pdfrwt beam="2">0</pdfrwt>
<totfact> 0.18250635E+00</totfact>
</mgrwt>
</event>
<event>
 6    1  0.2339725E-003  0.6444620E+03  0.7818608E-02  0.9817227E-01
          1   -1    0    0  502    0  0.00000000000E+00  0.00000000000E+00  0.10593081368E+03  0.10593081368E+03  0.00000000000E+00 0.  1.
         13   -1    0    0    0    0 -0.00000000000E+00 -0.00000000000E+00 -0.10000000000E+04  0.10000000000E+04  0.00000000000E+00 0.  1.
    9000005    2    1    2  501    0  0.28537465168E-01  0.81474212778E-02 -0.89616705342E+03  0.11038327367E+04  0.64446204081E+03 0.  0.
         13    1    3    3    0    0 -0.12875016620E+03 -0.13214190550E+03  0.44099661490E+01  0.18454684036E+03  0.00000000000E+00 0.  1.
          1    1    3    3  501    0  0.12877870366E+03  0.13215005292E+03 -0.90057701956E+03  0.91928589632E+03  0.00000000000E+00 0.  1.
         21    1    1    2  502  501 -0.28537465168E-01 -0.81474212778E-02  0.20978671003E+01  0.20980770095E+01  0.00000000000E+00 0.  1.
<mgrwt>
<rscale>  1 0.64446204E+03</rscale>
<asrwt>0</asrwt>
<pdfrwt beam="1">  1        1 0.38520377E+00 0.64446204E+03</pdfrwt>
<pdfrwt beam="2">0</pdfrwt>
<totfact> 0.15579628E+00</totfact>
</mgrwt>
</event>
<event>
 6    1  0.2339725E-003  0.6523125E+03  0.7818608E-02  0.9802450E-01
          1   -1    0    0  502    0  0.00000000000E+00  0.00000000000E+00  0.10649715915E+03  0.10649715915E+03  0.00000000000E+00 0.  1.
         13   -1    0    0    0    0 -0.00000000000E+00 -0.00000000000E+00 -0.10000000000E+04  0.10000000000E+04  0.00000000000E+00 0.  1.
    9000005    2    1    2  501    0  0.72047455063E-01 -0.16737262039E+00 -0.89353959365E+03  0.11063112689E+04  0.65231249028E+03 0.  0.
         13    1    3    3    0    0 -0.16332875953E+03  0.26863188798E+03 -0.59334871452E+03  0.67149242137E+03  0.00000000000E+00 0.  1.
          1    1    3    3  501    0  0.16340080698E+03 -0.26879926060E+03 -0.30019087913E+03  0.43481884749E+03  0.00000000000E+00 0.  1.
         21    1    1    2  502  501 -0.72047455063E-01  0.16737262039E+00  0.36752801992E-01  0.18589028563E+00  0.00000000000E+00 0. -1.
<mgrwt>
<rscale>  1 0.65231252E+03</rscale>
<asrwt>0</asrwt>
<pdfrwt beam="1">  1        1 0.38726321E+00 0.65231252E+03</pdfrwt>
<pdfrwt beam="2">0</pdfrwt>
<totfact> 0.15233866E+00</totfact>
</mgrwt>
</event>
<event>
 6    1  0.2339725E-003  0.8330235E+03  0.7818608E-02  0.9513410E-01
          1   -1    0    0  502    0  0.00000000000E+00  0.00000000000E+00  0.17362761802E+03  0.17362761802E+03  0.00000000000E+00 0.  1.
         13   -1    0    0    0    0 -0.00000000000E+00 -0.00000000000E+00 -0.10000000000E+04  0.10000000000E+04  0.00000000000E+00 0.  1.
    9000005    2    1    2  501    0 -0.38952381570E-02  0.29715408657E-02 -0.82651792209E+03  0.11734819955E+04  0.83302347993E+03 0.  0.
         13    1    3    3    0    0 -0.17462411873E+03 -0.42594218525E+01 -0.94591121655E+03  0.96190423385E+03  0.00000000000E+00 0.  1.
          3    1    3    3  501    0  0.17462022349E+03  0.42623933934E+01  0.11939329445E+03  0.21157776161E+03  0.00000000000E+00 0.  1.
         21    1    1    2  502  501  0.38952381570E-02 -0.29715408657E-02  0.14554011151E+00  0.14562254974E+00  0.00000000000E+00 0. -1.
<mgrwt>
<rscale>  1 0.83302348E+03</rscale>
<asrwt>0</asrwt>
<pdfrwt beam="1">  1        1 0.63137449E+00 0.83302348E+03</pdfrwt>
<pdfrwt beam="2">0</pdfrwt>
<totfact> 0.91282898E-02</totfact>
</mgrwt>
</event>
<event>
 6    1  0.2339725E-003  0.7421468E+03  0.7818608E-02  0.9647752E-01
          1   -1    0    0  502    0  0.00000000000E+00  0.00000000000E+00  0.14074083211E+03  0.14074083211E+03  0.00000000000E+00 0.  1.
         13   -1    0    0    0    0 -0.00000000000E+00 -0.00000000000E+00 -0.10000000000E+04  0.10000000000E+04  0.00000000000E+00 0.  1.
    9000005    2    1    2  501    0  0.54199231653E+00 -0.55346801505E+01 -0.85897278363E+03  0.11351723084E+04  0.74212600032E+03 0.  0.
         13    1    3    3    0    0  0.17192464149E+03 -0.84805263329E+02 -0.91763263969E+03  0.93744315906E+03  0.00000000000E+00 0.  1.
          1    1    3    3  501    0 -0.17138264918E+03  0.79270583178E+02  0.58659856058E+02  0.19772914936E+03  0.00000000000E+00 0.  1.
         21    1    1    2  502  501 -0.54199231653E+00  0.55346801505E+01 -0.28638426045E+00  0.55685236808E+01  0.00000000000E+00 0. -1.
<mgrwt>
<rscale>  1 0.74214684E+03</rscale>
<asrwt>0</asrwt>
<pdfrwt beam="1">  1        1 0.51178592E+00 0.74214684E+03</pdfrwt>
<pdfrwt beam="2">0</pdfrwt>
<totfact> 0.39748563E-01</totfact>
</mgrwt>
</event>
<event>
 6    1  0.2339725E-003  0.6531992E+03  0.7818608E-02  0.9800795E-01
          1   -1    0    0  502    0  0.00000000000E+00  0.00000000000E+00  0.11809190036E+03  0.11809190036E+03  0.00000000000E+00 0.  1.
         13   -1    0    0    0    0 -0.00000000000E+00 -0.00000000000E+00 -0.10000000000E+04  0.10000000000E+04  0.00000000000E+00 0.  1.
    9000005    2    1    2  501    0  0.24741189086E+00  0.11841750052E+00 -0.89333088960E+03  0.11066658177E+04  0.65319911088E+03 0.  0.
         13    1    3    3    0    0 -0.13060445002E+03  0.21346123687E+03 -0.91117811473E+02  0.26631875183E+03  0.00000000000E+00 0.  1.
          3    1    3    3  501    0  0.13085186191E+03 -0.21334281937E+03 -0.80221307812E+03  0.84034706583E+03  0.00000000000E+00 0.  1.
         21    1    1    2  502  501 -0.24741189086E+00 -0.11841750052E+00  0.11422789953E+02  0.11426082691E+02  0.00000000000E+00 0.  1.
<mgrwt>
<rscale>  1 0.65319917E+03</rscale>
<asrwt>0</asrwt>
<pdfrwt beam="1">  1        1 0.42942600E+00 0.65319917E+03</pdfrwt>
<pdfrwt beam="2">0</pdfrwt>
<totfact> 0.98591034E-01</totfact>
</mgrwt>
</event>
<event>
 6    1  0.2339725E-003  0.6466126E+03  0.7818608E-02  0.9813156E-01
          1   -1    0    0  502    0  0.00000000000E+00  0.00000000000E+00  0.10452696013E+03  0.10452696013E+03  0.00000000000E+00 0.  1.
         13   -1    0    0    0    0 -0.00000000000E+00 -0.00000000000E+00 -0.10000000000E+04  0.10000000000E+04  0.00000000000E+00 0.  1.
    9000005    2    1    2  501    0  0.40462281845E-05 -0.33449990724E-05 -0.89547304159E+03  0.11045269546E+04  0.64661257739E+03 0.  0.
         13    1    3    3    0    0 -0.18767338706E+03 -0.18887282519E+03 -0.76100241414E+03  0.80623750758E+03  0.00000000000E+00 0.  1.
          1    1    3    3  501    0  0.18767339111E+03  0.18887282184E+03 -0.13447062745E+03  0.29828944702E+03  0.00000000000E+00 0.  1.
         21    1    1    2  502  501 -0.40462281747E-05  0.33449990597E-05  0.17158926822E-05  0.55231575071E-05  0.00000000000E+00 0.  1.
<mgrwt>
<rscale>  1 0.64661258E+03</rscale>
<asrwt>0</asrwt>
<pdfrwt beam="1">  1        1 0.38009884E+00 0.64661258E+03</pdfrwt>
<pdfrwt beam="2">0</pdfrwt>
<totfact> 0.16403463E+00</totfact>
</mgrwt>
</event>
<event>
 6    1  0.2339725E-003  0.6586465E+03  0.7818608E-02  0.9790689E-01
          1   -1    0    0  502    0  0.00000000000E+00  0.00000000000E+00  0.10849434904E+03  0.10849434904E+03  0.00000000000E+00 0.  1.
         13   -1    0    0    0    0 -0.00000000000E+00 -0.00000000000E+00 -0.10000000000E+04  0.10000000000E+04  0.00000000000E+00 0.  1.
    9000005    2    1    2  501    0  0.42068801715E-03  0.33386452225E-02 -0.89154613357E+03  0.11084537268E+04  0.65864645766E+03 0.  0.
         13    1    3    3    0    0  0.30450669705E+02  0.32785905867E+03 -0.43566505315E+03  0.54609783389E+03  0.00000000000E+00 0.  1.
          1    1    3    3  501    0 -0.30450249017E+02 -0.32785572003E+03 -0.45588108042E+03  0.56235589293E+03  0.00000000000E+00 0.  1.
         21    1    1    2  502  501 -0.42068801716E-03 -0.33386452225E-02  0.40482614554E-01  0.40622230508E-01  0.00000000000E+00 0. -1.
<mgrwt>
<rscale>  1 0.65864646E+03</rscale>
<asrwt>0</asrwt>
<pdfrwt beam="1">  1        1 0.39452574E+00 0.65864646E+03</pdfrwt>
<pdfrwt beam="2">0</pdfrwt>
<totfact> 0.14127858E+00</totfact>
</mgrwt>
</event>
<event>
 6    1  0.2339725E-003  0.6215929E+03  0.7818608E-02  0.9861593E-01
          1   -1    0    0  502    0  0.00000000000E+00  0.00000000000E+00  0.96857201471E+02  0.96857201471E+02  0.00000000000E+00 0.  1.
         13   -1    0    0    0    0 -0.00000000000E+00 -0.00000000000E+00 -0.10000000000E+04  0.10000000000E+04  0.00000000000E+00 0.  1.
    9000005    2    1    2  501    0  0.22632421318E-01  0.19623972677E-01 -0.90340464289E+03  0.10965936492E+04  0.62159285854E+03 0.  0.
         13    1    3    3    0    0 -0.15204917643E+03  0.18974276624E+03 -0.79321142794E+03  0.82964187383E+03  0.00000000000E+00 0.  1.
          3    1    3    3  501    0  0.15207180885E+03 -0.18972314227E+03 -0.11019321495E+03  0.26695177538E+03  0.00000000000E+00 0.  1.
         21    1    1    2  502  501 -0.22632421318E-01 -0.19623972677E-01  0.26184435943E+00  0.26355226306E+00  0.00000000000E+00 0.  1.
<mgrwt>
<rscale>  1 0.62159286E+03</rscale>
<asrwt>0</asrwt>
<pdfrwt beam="1">  1        1 0.35220875E+00 0.62159286E+03</pdfrwt>
<pdfrwt beam="2">0</pdfrwt>
<totfact> 0.21837893E+00</totfact>
</mgrwt>
</event>
<event>
 6    1  0.2339725E-003  0.5035934E+03  0.7818608E-02  0.1012845E+00
          1   -1    0    0  502    0  0.00000000000E+00  0.00000000000E+00  0.63403067786E+02  0.63403067786E+02  0.00000000000E+00 0.  1.
         13   -1    0    0    0    0 -0.00000000000E+00 -0.00000000000E+00 -0.10000000000E+04  0.10000000000E+04  0.00000000000E+00 0.  1.
    9000005    2    1    2  501    0  0.29003330383E-03  0.17889313029E-02 -0.93659783224E+03  0.10634010443E+04  0.50359336937E+03 0.  0.
         13    1    3    3    0    0 -0.17698597851E+03 -0.77224431970E+00 -0.84649144706E+03  0.86479616262E+03  0.00000000000E+00 0.  1.
          1    1    3    3  501    0  0.17698626854E+03  0.77403325101E+00 -0.90106385187E+02  0.19860488169E+03  0.00000000000E+00 0.  1.
         21    1    1    2  502  501 -0.29003330384E-03 -0.17889313029E-02  0.90002872539E-03  0.20234738028E-02  0.00000000000E+00 0. -1.
<mgrwt>
<rscale>  1 0.50359337E+03</rscale>
<asrwt>0</asrwt>
<pdfrwt beam="1">  1        1 0.23055710E+00 0.50359337E+03</pdfrwt>
<pdfrwt beam="2">0</pdfrwt>
<totfact> 0.75067404E+00</totfact>
</mgrwt>
</event>
<event>
 6    1  0.2339725E-003  0.6464114E+03  0.7818608E-02  0.9813536E-01
          1   -1    0    0  502    0  0.00000000000E+00  0.00000000000E+00  0.10483125086E+03  0.10483125086E+03  0.00000000000E+00 0.  1.
         13   -1    0    0    0    0 -0.00000000000E+00 -0.00000000000E+00 -0.10000000000E+04  0.10000000000E+04  0.00000000000E+00 0.  1.
    9000005    2    1    2  501    0  0.42172868883E-01  0.31048183018E-01 -0.89553603753E+03  0.11044602478E+04  0.64641135635E+03 0.  0.
         13    1    3    3    0    0 -0.45281385738E+02 -0.12413283864E+03 -0.95171175623E+03  0.96084058640E+03  0.00000000000E+00 0.  1.
          3    1    3    3  501    0  0.45323558607E+02  0.12416388682E+03  0.56175718702E+02  0.14361966136E+03  0.00000000000E+00 0.  1.
         21    1    1    2  502  501 -0.42172868883E-01 -0.31048183018E-01  0.36728839583E+00  0.37100310814E+00  0.00000000000E+00 0. -1.
<mgrwt>
<rscale>  1 0.64641136E+03</rscale>
<asrwt>0</asrwt>
<pdfrwt beam="1">  1        1 0.38120535E+00 0.64641136E+03</pdfrwt>
<pdfrwt beam="2">0</pdfrwt>
<totfact> 0.16220638E+00</totfact>
</mgrwt>
</event>
<event>
 6    1  0.2339725E-003  0.6615719E+03  0.7818608E-02  0.9785304E-01
          1   -1    0    0  502    0  0.00000000000E+00  0.00000000000E+00  0.12266436962E+03  0.12266436962E+03  0.00000000000E+00 0.  1.
         13   -1    0    0    0    0 -0.00000000000E+00 -0.00000000000E+00 -0.10000000000E+04  0.10000000000E+04  0.00000000000E+00 0.  1.
    9000005    2    1    2  501    0 -0.11386456830E+02 -0.37849555142E+01 -0.88749374997E+03  0.11069428976E+04  0.66146310943E+03 0.  0.
         13    1    3    3    0    0 -0.96095519954E+02  0.23194200619E+03 -0.83107601524E+02  0.26445853479E+03  0.00000000000E+00 0.  1.
          1    1    3    3  501    0  0.84709063124E+02 -0.23572696171E+03 -0.80438614845E+03  0.84248436286E+03  0.00000000000E+00 0.  1.
         21    1    1    2  502  501  0.11386456830E+02  0.37849555142E+01  0.10158119590E+02  0.15721471973E+02  0.00000000000E+00 0.  1.
<mgrwt>
<rscale>  1 0.66157193E+03</rscale>
<asrwt>0</asrwt>
<pdfrwt beam="1">  1        1 0.44605319E+00 0.66157193E+03</pdfrwt>
<pdfrwt beam="2">0</pdfrwt>
<totfact> 0.82641088E-01</totfact>
</mgrwt>
</event>
<event>
 6    1  0.2339725E-003  0.6532143E+03  0.7818608E-02  0.9800766E-01
          1   -1    0    0  502    0  0.00000000000E+00  0.00000000000E+00  0.10667722294E+03  0.10667722294E+03  0.00000000000E+00 0.  1.
         13   -1    0    0    0    0 -0.00000000000E+00 -0.00000000000E+00 -0.10000000000E+04  0.10000000000E+04  0.00000000000E+00 0.  1.
    9000005    2    1    2  501    0 -0.29133939877E-03 -0.19594367265E-03 -0.89332777221E+03  0.11066722155E+04  0.65321427104E+03 0.  0.
         13    1    3    3    0    0 -0.10627319177E+03 -0.17292651877E+03 -0.13152997772E+02  0.20339757504E+03  0.00000000000E+00 0.  1.
          1    1    3    3  501    0  0.10627290043E+03  0.17292632282E+03 -0.88017477444E+03  0.90327464043E+03  0.00000000000E+00 0.  1.
         21    1    1    2  502  501  0.29133939876E-03  0.19594367265E-03  0.49951462900E-02  0.50074703221E-02  0.00000000000E+00 0. -1.
<mgrwt>
<rscale>  1 0.65321427E+03</rscale>
<asrwt>0</asrwt>
<pdfrwt beam="1">  1        1 0.38791799E+00 0.65321427E+03</pdfrwt>
<pdfrwt beam="2">0</pdfrwt>
<totfact> 0.15129952E+00</totfact>
</mgrwt>
</event>
<event>
 6    1  0.2339725E-003  0.6526086E+03  0.7818608E-02  0.9801897E-01
          1   -1    0    0  502    0  0.00000000000E+00  0.00000000000E+00  0.10714832867E+03  0.10714832867E+03  0.00000000000E+00 0.  1.
         13   -1    0    0    0    0 -0.00000000000E+00 -0.00000000000E+00 -0.10000000000E+04  0.10000000000E+04  0.00000000000E+00 0.  1.
    9000005    2    1    2  501    0  0.77022598765E-01 -0.76737320309E+00 -0.89327215811E+03  0.11062699192E+04  0.65260814492E+03 0.  0.
         13    1    3    3    0    0  0.60664910515E+02  0.30658640590E+03 -0.60306339560E+03  0.67923553703E+03  0.00000000000E+00 0.  1.
          1    1    3    3  501    0 -0.60587887916E+02 -0.30735377911E+03 -0.29020876251E+03  0.42703438214E+03  0.00000000000E+00 0.  1.
         21    1    1    2  502  501 -0.77022598765E-01  0.76737320309E+00  0.42048678195E+00  0.87840949866E+00  0.00000000000E+00 0.  1.
<mgrwt>
<rscale>  1 0.65260860E+03</rscale>
<asrwt>0</asrwt>
<pdfrwt beam="1">  1        1 0.38963111E+00 0.65260860E+03</pdfrwt>
<pdfrwt beam="2">0</pdfrwt>
<totfact> 0.14869425E+00</totfact>
</mgrwt>
</event>
<event>
 6    1  0.2339725E-003  0.6522805E+03  0.7818608E-02  0.9802509E-01
          1   -1    0    0  502    0  0.00000000000E+00  0.00000000000E+00  0.10637157397E+03  0.10637157397E+03  0.00000000000E+00 0.  1.
         13   -1    0    0    0    0 -0.00000000000E+00 -0.00000000000E+00 -0.10000000000E+04  0.10000000000E+04  0.00000000000E+00 0.  1.
    9000005    2    1    2  501    0  0.15537769629E-02  0.30759070546E-03 -0.89363237056E+03  0.11063673233E+04  0.65228049208E+03 0.  0.
         13    1    3    3    0    0  0.53910893052E+02  0.14913036045E+03 -0.93020909101E+03  0.94362874151E+03  0.00000000000E+00 0.  1.
          3    1    3    3  501    0 -0.53909339275E+02 -0.14913005286E+03  0.36576720450E+02  0.16273858180E+03  0.00000000000E+00 0.  1.
         21    1    1    2  502  501 -0.15537769629E-02 -0.30759070547E-03  0.39445298326E-02  0.42506647119E-02  0.00000000000E+00 0. -1.
<mgrwt>
<rscale>  1 0.65228049E+03</rscale>
<asrwt>0</asrwt>
<pdfrwt beam="1">  1        1 0.38680654E+00 0.65228049E+03</pdfrwt>
<pdfrwt beam="2">0</pdfrwt>
<totfact> 0.15305051E+00</totfact>
</mgrwt>
</event>
<event>
 6    1  0.2339725E-003  0.6313223E+03  0.7818608E-02  0.9842472E-01
          1   -1    0    0  502    0  0.00000000000E+00  0.00000000000E+00  0.10001881032E+03  0.10001881032E+03  0.00000000000E+00 0.  1.
         13   -1    0    0    0    0 -0.00000000000E+00 -0.00000000000E+00 -0.10000000000E+04  0.10000000000E+04  0.00000000000E+00 0.  1.
    9000005    2    1    2  501    0  0.49997747380E-02 -0.22776438533E-02 -0.90035802634E+03  0.10996419336E+04  0.63132226836E+03 0.  0.
         13    1    3    3    0    0  0.18656147299E+03  0.75594139202E+02 -0.87370530929E+03  0.89659390170E+03  0.00000000000E+00 0.  1.
          1    1    3    3  501    0 -0.18655647321E+03 -0.75596416846E+02 -0.26652717055E+02  0.20304803191E+03  0.00000000000E+00 0.  1.
         21    1    1    2  502  501 -0.49997747380E-02  0.22776438533E-02  0.37683665578E+00  0.37687670470E+00  0.00000000000E+00 0.  1.
<mgrwt>
<rscale>  1 0.63132227E+03</rscale>
<asrwt>0</asrwt>
<pdfrwt beam="1">  1        1 0.36370553E+00 0.63132227E+03</pdfrwt>
<pdfrwt beam="2">0</pdfrwt>
<totfact> 0.19418157E+00</totfact>
</mgrwt>
</event>
<event>
 6    1  0.2339725E-003  0.6278543E+03  0.7818608E-02  0.9849245E-01
          1   -1    0    0  502    0  0.00000000000E+00  0.00000000000E+00  0.98565686783E+02  0.98565686783E+02  0.00000000000E+00 0.  1.
         13   -1    0    0    0    0 -0.00000000000E+00 -0.00000000000E+00 -0.10000000000E+04  0.10000000000E+04  0.00000000000E+00 0.  1.
    9000005    2    1    2  501    0 -0.21998051834E-02  0.19118790998E-02 -0.90144960704E+03  0.10985501177E+04  0.62785425627E+03 0.  0.
         13    1    3    3    0    0 -0.28255094224E+03 -0.85918089674E+02 -0.63699793156E+03  0.70212770769E+03  0.00000000000E+00 0.  1.
          1    1    3    3  501    0  0.28254874243E+03  0.85920001553E+02 -0.26445167548E+03  0.39642241004E+03  0.00000000000E+00 0.  1.
         21    1    1    2  502  501  0.21998051833E-02 -0.19118790998E-02  0.15293823715E-01  0.15569054832E-01  0.00000000000E+00 0. -1.
<mgrwt>
<rscale>  1 0.62785426E+03</rscale>
<asrwt>0</asrwt>
<pdfrwt beam="1">  1        1 0.35842144E+00 0.62785426E+03</pdfrwt>
<pdfrwt beam="2">0</pdfrwt>
<totfact> 0.20492711E+00</totfact>
</mgrwt>
</event>
<event>
 6    1  0.2339725E-003  0.6410381E+03  0.7818608E-02  0.9823742E-01
          1   -1    0    0  502    0  0.00000000000E+00  0.00000000000E+00  0.10273397983E+03  0.10273397983E+03  0.00000000000E+00 0.  1.
         13   -1    0    0    0    0 -0.00000000000E+00 -0.00000000000E+00 -0.10000000000E+04  0.10000000000E+04  0.00000000000E+00 0.  1.
    9000005    2    1    2  501    0  0.49857315287E-03  0.54068223250E-04 -0.89726748736E+03  0.11027324293E+04  0.64103811646E+03 0.  0.
         13    1    3    3    0    0  0.27713227959E+03  0.11232319004E+03 -0.25014457808E+03  0.38986037161E+03  0.00000000000E+00 0.  1.
          1    1    3    3  501    0 -0.27713178102E+03 -0.11232313597E+03 -0.64712290928E+03  0.71287205769E+03  0.00000000000E+00 0.  1.
         21    1    1    2  502  501 -0.49857315282E-03 -0.54068223246E-04  0.14671898315E-02  0.15505304135E-02  0.00000000000E+00 0. -1.
<mgrwt>
<rscale>  1 0.64103812E+03</rscale>
<asrwt>0</asrwt>
<pdfrwt beam="1">  1        1 0.37357890E+00 0.64103812E+03</pdfrwt>
<pdfrwt beam="2">0</pdfrwt>
<totfact> 0.17542989E+00</totfact>
</mgrwt>
</event>
<event>
 6    1  0.2339725E-003  0.6475670E+03  0.7818608E-02  0.9811355E-01
          1   -1    0    0  502    0  0.00000000000E+00  0.00000000000E+00  0.10572327659E+03  0.10572327659E+03  0.00000000000E+00 0.  1.
         13   -1    0    0    0    0 -0.00000000000E+00 -0.00000000000E+00 -0.10000000000E+04  0.10000000000E+04  0.00000000000E+00 0.  1.
    9000005    2    1    2  501    0 -0.10353382807E+01  0.16288858447E+01 -0.89380788620E+03  0.11037370735E+04  0.64756410089E+03 0.  0.
         13    1    3    3    0    0 -0.40558204943E+02  0.52415058164E+02  0.93350043263E+02  0.11448378439E+03  0.00000000000E+00 0.  1.
          3    1    3    3  501    0  0.39522866663E+02 -0.50786172319E+02 -0.98715792946E+03  0.98925328910E+03  0.00000000000E+00 0.  1.
         21    1    1    2  502  501  0.10353382807E+01 -0.16288858447E+01 -0.46883720627E+00  0.19862031056E+01  0.00000000000E+00 0. -1.
<mgrwt>
<rscale>  1 0.64756698E+03</rscale>
<asrwt>0</asrwt>
<pdfrwt beam="1">  1        1 0.38444909E+00 0.64756698E+03</pdfrwt>
<pdfrwt beam="2">0</pdfrwt>
<totfact> 0.15690761E+00</totfact>
</mgrwt>
</event>
<event>
 6    1  0.2339725E-003  0.6515155E+03  0.7818608E-02  0.9803940E-01
          1   -1    0    0  502    0  0.00000000000E+00  0.00000000000E+00  0.10655764742E+03  0.10655764742E+03  0.00000000000E+00 0.  1.
         13   -1    0    0    0    0 -0.00000000000E+00 -0.00000000000E+00 -0.10000000000E+04  0.10000000000E+04  0.00000000000E+00 0.  1.
    9000005    2    1    2  501    0  0.11248435660E-01 -0.20896698664E-01 -0.89388153045E+03  0.11061178288E+04  0.65151551032E+03 0.  0.
         13    1    3    3    0    0 -0.15127618925E+03  0.28420544721E+03 -0.36283400987E+03  0.48508323036E+03  0.00000000000E+00 0.  1.
          3    1    3    3  501    0  0.15128743769E+03 -0.28422634390E+03 -0.53104752058E+03  0.62103459846E+03  0.00000000000E+00 0.  1.
         21    1    1    2  502  501 -0.11248435660E-01  0.20896698664E-01  0.43917787540E+00  0.43981860529E+00  0.00000000000E+00 0.  1.
<mgrwt>
<rscale>  1 0.65151551E+03</rscale>
<asrwt>0</asrwt>
<pdfrwt beam="1">  1        1 0.38748317E+00 0.65151551E+03</pdfrwt>
<pdfrwt beam="2">0</pdfrwt>
<totfact> 0.15201978E+00</totfact>
</mgrwt>
</event>
<event>
 6    1  0.2339725E-003  0.6453036E+03  0.7818608E-02  0.9815632E-01
          1   -1    0    0  502    0  0.00000000000E+00  0.00000000000E+00  0.10410694012E+03  0.10410694012E+03  0.00000000000E+00 0.  1.
         13   -1    0    0    0    0 -0.00000000000E+00 -0.00000000000E+00 -0.10000000000E+04  0.10000000000E+04  0.00000000000E+00 0.  1.
    9000005    2    1    2  501    0  0.15715184946E-03  0.90893426140E-04 -0.89589581692E+03  0.11041041771E+04  0.64530358679E+03 0.  0.
         13    1    3    3    0    0  0.16987289938E+03  0.40670177575E+02  0.16209390207E+02  0.17542408506E+03  0.00000000000E+00 0.  1.
          1    1    3    3  501    0 -0.16987274223E+03 -0.40670086681E+02 -0.91210520713E+03  0.92868009205E+03  0.00000000000E+00 0.  1.
         21    1    1    2  502  501 -0.15715184945E-03 -0.90893426136E-04  0.27570379877E-02  0.27630086471E-02  0.00000000000E+00 0. -1.
<mgrwt>
<rscale>  1 0.64530359E+03</rscale>
<asrwt>0</asrwt>
<pdfrwt beam="1">  1        1 0.37857149E+00 0.64530359E+03</pdfrwt>
<pdfrwt beam="2">0</pdfrwt>
<totfact> 0.16663907E+00</totfact>
</mgrwt>
</event>
<event>
 6    1  0.2339725E-003  0.6504051E+03  0.7818608E-02  0.9806019E-01
          1   -1    0    0  502    0  0.00000000000E+00  0.00000000000E+00  0.10575846473E+03  0.10575846473E+03  0.00000000000E+00 0.  1.
         13   -1    0    0    0    0 -0.00000000000E+00 -0.00000000000E+00 -0.10000000000E+04  0.10000000000E+04  0.00000000000E+00 0.  1.
    9000005    2    1    2  501    0 -0.10706794143E-04  0.38905622489E-04 -0.89424329759E+03  0.11057567019E+04  0.65040511115E+03 0.  0.
         13    1    3    3    0    0  0.21225254787E+03  0.14873980869E+03 -0.11318186056E+03  0.28281585586E+03  0.00000000000E+00 0.  1.
          1    1    3    3  501    0 -0.21225255858E+03 -0.14873976978E+03 -0.78106143704E+03  0.82294084609E+03  0.00000000000E+00 0.  1.
         21    1    1    2  502  501  0.10706794123E-04 -0.38905622487E-04  0.17623188096E-02  0.17627807208E-02  0.00000000000E+00 0.  1.
<mgrwt>
<rscale>  1 0.65040511E+03</rscale>
<asrwt>0</asrwt>
<pdfrwt beam="1">  1        1 0.38457705E+00 0.65040511E+03</pdfrwt>
<pdfrwt beam="2">0</pdfrwt>
<totfact> 0.15662114E+00</totfact>
</mgrwt>
</event>
<event>
 6    1  0.2339725E-003  0.6602694E+03  0.7818608E-02  0.9787698E-01
          1   -1    0    0  502    0  0.00000000000E+00  0.00000000000E+00  0.10898915520E+03  0.10898915520E+03  0.00000000000E+00 0.  1.
         13   -1    0    0    0    0 -0.00000000000E+00 -0.00000000000E+00 -0.10000000000E+04  0.10000000000E+04  0.00000000000E+00 0.  1.
    9000005    2    1    2  501    0 -0.65042740616E-03  0.59142187069E-04 -0.89101043794E+03  0.11089883857E+04  0.66026936863E+03 0.  0.
         13    1    3    3    0    0 -0.45396386858E+02 -0.22733149810E+03 -0.50715354597E+02  0.23730252666E+03  0.00000000000E+00 0.  1.
          1    1    3    3  501    0  0.45395736430E+02  0.22733155724E+03 -0.84029508334E+03  0.87168585906E+03  0.00000000000E+00 0.  1.
         21    1    1    2  502  501  0.65042740616E-03 -0.59142187083E-04 -0.40686498517E-03  0.76947561699E-03  0.00000000000E+00 0.  1.
<mgrwt>
<rscale>  1 0.66026937E+03</rscale>
<asrwt>0</asrwt>
<pdfrwt beam="1">  1        1 0.39632504E+00 0.66026937E+03</pdfrwt>
<pdfrwt beam="2">0</pdfrwt>
<totfact> 0.13865706E+00</totfact>
</mgrwt>
</event>
<event>
 6    1  0.2339725E-003  0.6515258E+03  0.7818608E-02  0.9803920E-01
          1   -1    0    0  502    0  0.00000000000E+00  0.00000000000E+00  0.10612700312E+03  0.10612700312E+03  0.00000000000E+00 0.  1.
         13   -1    0    0    0    0 -0.00000000000E+00 -0.00000000000E+00 -0.10000000000E+04  0.10000000000E+04  0.00000000000E+00 0.  1.
    9000005    2    1    2  501    0 -0.15511871154E-02  0.24089061525E-03 -0.89387840171E+03  0.11061213749E+04  0.65152582378E+03 0.  0.
         13    1    3    3    0    0 -0.22371994650E+03  0.55379223393E+02 -0.56074802773E+02  0.23719581858E+03  0.00000000000E+00 0.  1.
          3    1    3    3  501    0  0.22371839531E+03 -0.55378982503E+02 -0.83780359894E+03  0.86892555636E+03  0.00000000000E+00 0.  1.
         21    1    1    2  502  501  0.15511871154E-02 -0.24089061526E-03  0.54048293683E-02  0.56281782360E-02  0.00000000000E+00 0. -1.
<mgrwt>
<rscale>  1 0.65152582E+03</rscale>
<asrwt>0</asrwt>
<pdfrwt beam="1">  1        1 0.38591719E+00 0.65152582E+03</pdfrwt>
<pdfrwt beam="2">0</pdfrwt>
<totfact> 0.15446566E+00</totfact>
</mgrwt>
</event>
<event>
 6    1  0.2339725E-003  0.6450645E+03  0.7818608E-02  0.9816085E-01
          1   -1    0    0  502    0  0.00000000000E+00  0.00000000000E+00  0.10402707806E+03  0.10402707806E+03  0.00000000000E+00 0.  1.
         13   -1    0    0    0    0 -0.00000000000E+00 -0.00000000000E+00 -0.10000000000E+04  0.10000000000E+04  0.00000000000E+00 0.  1.
    9000005    2    1    2  501    0 -0.51418557518E-05 -0.40825959715E-05 -0.89597296201E+03  0.11040270375E+04  0.64506445475E+03 0.  0.
         13    1    3    3    0    0 -0.31618582540E+03 -0.62097703735E+02 -0.47203524063E+03  0.57153028737E+03  0.00000000000E+00 0.  1.
          3    1    3    3  501    0  0.31618582026E+03  0.62097699652E+02 -0.42393772138E+03  0.53249675008E+03  0.00000000000E+00 0.  1.
         21    1    1    2  502  501  0.51418557433E-05  0.40825959689E-05  0.40068897114E-04  0.40603236155E-04  0.00000000000E+00 0.  1.
<mgrwt>
<rscale>  1 0.64506445E+03</rscale>
<asrwt>0</asrwt>
<pdfrwt beam="1">  1        1 0.37828108E+00 0.64506445E+03</pdfrwt>
<pdfrwt beam="2">0</pdfrwt>
<totfact> 0.16713842E+00</totfact>
</mgrwt>
</event>
<event>
 6    1  0.2339725E-003  0.6592803E+03  0.7818608E-02  0.9789519E-01
          1   -1    0    0  502    0  0.00000000000E+00  0.00000000000E+00  0.10873893369E+03  0.10873893369E+03  0.00000000000E+00 0.  1.
         13   -1    0    0    0    0 -0.00000000000E+00 -0.00000000000E+00 -0.10000000000E+04  0.10000000000E+04  0.00000000000E+00 0.  1.
    9000005    2    1    2  501    0 -0.22081620158E-01  0.21979860656E-02 -0.89133557483E+03  0.11086611909E+04  0.65928031114E+03 0.  0.
         13    1    3    3    0    0 -0.26022578096E+03  0.16734772428E+03 -0.63701646754E+03  0.70817561227E+03  0.00000000000E+00 0.  1.
          3    1    3    3  501    0  0.26020369934E+03 -0.16734552629E+03 -0.25431910729E+03  0.40048557858E+03  0.00000000000E+00 0.  1.
         21    1    1    2  502  501  0.22081620158E-01 -0.21979860656E-02  0.74508524536E-01  0.77742840957E-01  0.00000000000E+00 0. -1.
<mgrwt>
<rscale>  1 0.65928031E+03</rscale>
<asrwt>0</asrwt>
<pdfrwt beam="1">  1        1 0.39541514E+00 0.65928031E+03</pdfrwt>
<pdfrwt beam="2">0</pdfrwt>
<totfact> 0.13998133E+00</totfact>
</mgrwt>
</event>
<event>
 6    1  0.2339725E-003  0.5794401E+03  0.7818608E-02  0.9949004E-01
          1   -1    0    0  502    0  0.00000000000E+00  0.00000000000E+00  0.83943031230E+02  0.83943031230E+02  0.00000000000E+00 0.  1.
         13   -1    0    0    0    0 -0.00000000000E+00 -0.00000000000E+00 -0.10000000000E+04  0.10000000000E+04  0.00000000000E+00 0.  1.
    9000005    2    1    2  501    0 -0.70925290373E-04  0.52383538281E-03 -0.91606228761E+03  0.10839376862E+04  0.57944006830E+03 0.  0.
         13    1    3    3    0    0 -0.19545585454E+03  0.17900337095E+03 -0.23913490640E+03  0.35697437071E+03  0.00000000000E+00 0.  1.
          3    1    3    3  501    0  0.19545578361E+03 -0.17900284711E+03 -0.67692738121E+03  0.72696331548E+03  0.00000000000E+00 0.  1.
         21    1    1    2  502  501  0.70925290377E-04 -0.52383538283E-03  0.53188405434E-02  0.53450443058E-02  0.00000000000E+00 0.  1.
<mgrwt>
<rscale>  1 0.57944007E+03</rscale>
<asrwt>0</asrwt>
<pdfrwt beam="1">  1        1 0.30524803E+00 0.57944007E+03</pdfrwt>
<pdfrwt beam="2">0</pdfrwt>
<totfact> 0.35151836E+00</totfact>
</mgrwt>
</event>
<event>
 6    1  0.2339725E-003  0.6504281E+03  0.7818608E-02  0.9805976E-01
          1   -1    0    0  502    0  0.00000000000E+00  0.00000000000E+00  0.10576419401E+03  0.10576419401E+03  0.00000000000E+00 0.  1.
         13   -1    0    0    0    0 -0.00000000000E+00 -0.00000000000E+00 -0.10000000000E+04  0.10000000000E+04  0.00000000000E+00 0.  1.
    9000005    2    1    2  501    0  0.97422872329E-05 -0.19406805734E-04 -0.89423580208E+03  0.11057641719E+04  0.65042811611E+03 0.  0.
         13    1    3    3    0    0 -0.59471667627E+02  0.70051548168E+02  0.83234386620E+02  0.12398411901E+03  0.00000000000E+00 0.  1.
          3    1    3    3  501    0  0.59471677369E+02 -0.70051567575E+02 -0.97747018870E+03  0.98178005293E+03  0.00000000000E+00 0.  1.
         21    1    1    2  502  501 -0.97422872366E-05  0.19406805743E-04 -0.39140554142E-05  0.22064815874E-04  0.00000000000E+00 0.  1.
<mgrwt>
<rscale>  1 0.65042812E+03</rscale>
<asrwt>0</asrwt>
<pdfrwt beam="1">  1        1 0.38459788E+00 0.65042812E+03</pdfrwt>
<pdfrwt beam="2">0</pdfrwt>
<totfact> 0.15658725E+00</totfact>
</mgrwt>
</event>
<event>
 6    1  0.2339725E-003  0.6514179E+03  0.7818608E-02  0.9804122E-01
          3   -1    0    0  502    0  0.00000000000E+00  0.00000000000E+00  0.10755328284E+03  0.10755328284E+03  0.00000000000E+00 0.  1.
         13   -1    0    0    0    0 -0.00000000000E+00 -0.00000000000E+00 -0.10000000000E+04  0.10000000000E+04  0.00000000000E+00 0.  1.
    9000005    2    1    2  501    0 -0.86629411971E-01 -0.67380954615E-02 -0.89391224777E+03  0.11060851786E+04  0.65141792121E+03 0.  0.
         13    1    3    3    0    0  0.14773744708E+03  0.26811575312E+03 -0.63569231077E+03  0.70556156663E+03  0.00000000000E+00 0.  1.
          3    1    3    3  501    0 -0.14782407649E+03 -0.26812249121E+03 -0.25821993700E+03  0.40052361198E+03  0.00000000000E+00 0.  1.
         21    1    1    2  502  501  0.86629411971E-01  0.67380954614E-02  0.14655306135E+01  0.14681042320E+01  0.00000000000E+00 0.  1.
<mgrwt>
<rscale>  1 0.65141793E+03</rscale>
<asrwt>0</asrwt>
<pdfrwt beam="1">  1        3 0.39110367E+00 0.65141793E+03</pdfrwt>
<pdfrwt beam="2">0</pdfrwt>
<totfact> 0.65947637E-02</totfact>
</mgrwt>
</event>
<event>
 6    1  0.2339725E-003  0.6492375E+03  0.7818608E-02  0.9808211E-01
          1   -1    0    0  502    0  0.00000000000E+00  0.00000000000E+00  0.10537748953E+03  0.10537748953E+03  0.00000000000E+00 0.  1.
         13   -1    0    0    0    0 -0.00000000000E+00 -0.00000000000E+00 -0.10000000000E+04  0.10000000000E+04  0.00000000000E+00 0.  1.
    9000005    2    1    2  501    0  0.24158328196E-03 -0.26014407374E-03 -0.89462245126E+03  0.11053771296E+04  0.64923745144E+03 0.  0.
         13    1    3    3    0    0 -0.21048270792E+03 -0.14406632924E+03 -0.78918278154E+03  0.82937780307E+03  0.00000000000E+00 0.  1.
          3    1    3    3  501    0  0.21048294950E+03  0.14406606909E+03 -0.10543966973E+03  0.27599932654E+03  0.00000000000E+00 0.  1.
         21    1    1    2  502  501 -0.24158328195E-03  0.26014407372E-03 -0.59209088090E-04  0.35992101539E-03  0.00000000000E+00 0.  1.
<mgrwt>
<rscale>  1 0.64923745E+03</rscale>
<asrwt>0</asrwt>
<pdfrwt beam="1">  1        1 0.38319168E+00 0.64923745E+03</pdfrwt>
<pdfrwt beam="2">0</pdfrwt>
<totfact> 0.15887965E+00</totfact>
</mgrwt>
</event>
<event>
 6    1  0.2339725E-003  0.6510961E+03  0.7818608E-02  0.9804725E-01
          1   -1    0    0  502    0  0.00000000000E+00  0.00000000000E+00  0.10598159448E+03  0.10598159448E+03  0.00000000000E+00 0.  1.
         13   -1    0    0    0    0 -0.00000000000E+00 -0.00000000000E+00 -0.10000000000E+04  0.10000000000E+04  0.00000000000E+00 0.  1.
    9000005    2    1    2  501    0 -0.65241852099E-05  0.93350725621E-05 -0.89401847298E+03  0.11059815261E+04  0.65109608043E+03 0.  0.
         13    1    3    3    0    0 -0.31209626353E+03 -0.83569215482E+02 -0.37919866940E+03  0.49817619610E+03  0.00000000000E+00 0.  1.
          3    1    3    3  501    0  0.31209625700E+03  0.83569224817E+02 -0.51481980358E+03  0.60780532996E+03  0.00000000000E+00 0.  1.
         21    1    1    2  502  501  0.65241852170E-05 -0.93350725751E-05  0.67463215378E-04  0.68417790097E-04  0.00000000000E+00 0.  1.
<mgrwt>
<rscale>  1 0.65109608E+03</rscale>
<asrwt>0</asrwt>
<pdfrwt beam="1">  1        1 0.38538843E+00 0.65109608E+03</pdfrwt>
<pdfrwt beam="2">0</pdfrwt>
<totfact> 0.15531237E+00</totfact>
</mgrwt>
</event>
<event>
 6    1  0.2339725E-003  0.6663637E+03  0.7818608E-02  0.9776549E-01
          1   -1    0    0  502    0  0.00000000000E+00  0.00000000000E+00  0.11126590386E+03  0.11126590386E+03  0.00000000000E+00 0.  1.
         13   -1    0    0    0    0 -0.00000000000E+00 -0.00000000000E+00 -0.10000000000E+04  0.10000000000E+04  0.00000000000E+00 0.  1.
    9000005    2    1    2  501    0  0.62839648234E-02 -0.16281897433E-01 -0.88898952788E+03  0.11110098766E+04  0.66636368816E+03 0.  0.
         13    1    3    3    0    0 -0.21649280171E+03 -0.13307252078E+03 -0.80376756795E+03  0.84298264055E+03  0.00000000000E+00 0.  1.
          3    1    3    3  501    0  0.21649908568E+03  0.13305623888E+03 -0.85221959928E+02  0.26802723604E+03  0.00000000000E+00 0.  1.
         21    1    1    2  502  501 -0.62839648235E-02  0.16281897433E-01  0.25543174258E+00  0.25602727104E+00  0.00000000000E+00 0. -1.
<mgrwt>
<rscale>  1 0.66636369E+03</rscale>
<asrwt>0</asrwt>
<pdfrwt beam="1">  1        1 0.40460414E+00 0.66636369E+03</pdfrwt>
<pdfrwt beam="2">0</pdfrwt>
<totfact> 0.12720881E+00</totfact>
</mgrwt>
</event>
<event>
 6    1  0.2339725E-003  0.7204375E+03  0.7818608E-02  0.9682906E-01
          1   -1    0    0  502    0  0.00000000000E+00  0.00000000000E+00  0.13170106406E+03  0.13170106406E+03  0.00000000000E+00 0.  1.
         13   -1    0    0    0    0 -0.00000000000E+00 -0.00000000000E+00 -0.10000000000E+04  0.10000000000E+04  0.00000000000E+00 0.  1.
    9000005    2    1    2  501    0 -0.10669883422E+00  0.50044569022E-01 -0.87024043567E+03  0.11297559907E+04  0.72043748431E+03 0.  0.
         13    1    3    3    0    0 -0.28827157657E+02 -0.74379274589E+02  0.11573256301E+03  0.14056069027E+03  0.00000000000E+00 0.  1.
          1    1    3    3  501    0  0.28720458823E+02  0.74429319159E+02 -0.98597299868E+03  0.98919530045E+03  0.00000000000E+00 0.  1.
         21    1    1    2  502  501  0.10669883422E+00 -0.50044569022E-01  0.19414997323E+01  0.19450733433E+01  0.00000000000E+00 0. -1.
<mgrwt>
<rscale>  1 0.72043749E+03</rscale>
<asrwt>0</asrwt>
<pdfrwt beam="1">  1        1 0.47891397E+00 0.72043749E+03</pdfrwt>
<pdfrwt beam="2">0</pdfrwt>
<totfact> 0.57408177E-01</totfact>
</mgrwt>
</event>
<event>
 6    1  0.2339725E-003  0.6451513E+03  0.7818608E-02  0.9815920E-01
          1   -1    0    0  502    0  0.00000000000E+00  0.00000000000E+00  0.10405573674E+03  0.10405573674E+03  0.00000000000E+00 0.  1.
         13   -1    0    0    0    0 -0.00000000000E+00 -0.00000000000E+00 -0.10000000000E+04  0.10000000000E+04  0.00000000000E+00 0.  1.
    9000005    2    1    2  501    0 -0.29116309085E-03  0.11834711887E-03 -0.89594491650E+03  0.11040550118E+04  0.64515128127E+03 0.  0.
         13    1    3    3    0    0  0.49025781361E+02  0.18977269581E+03 -0.88640858907E+03  0.90782013091E+03  0.00000000000E+00 0.  1.
          1    1    3    3  501    0 -0.49026072524E+02 -0.18977257746E+03 -0.95363274350E+01  0.19623488091E+03  0.00000000000E+00 0.  1.
         21    1    1    2  502  501  0.29116309084E-03 -0.11834711886E-03  0.65324440112E-03  0.72492084644E-03  0.00000000000E+00 0.  1.
<mgrwt>
<rscale>  1 0.64515128E+03</rscale>
<asrwt>0</asrwt>
<pdfrwt beam="1">  1        1 0.37838530E+00 0.64515128E+03</pdfrwt>
<pdfrwt beam="2">0</pdfrwt>
<totfact> 0.16695903E+00</totfact>
</mgrwt>
</event>
<event>
 6    1  0.2339725E-003  0.6558842E+03  0.7818608E-02  0.9795800E-01
          1   -1    0    0  502    0  0.00000000000E+00  0.00000000000E+00  0.10754602990E+03  0.10754602990E+03  0.00000000000E+00 0.  1.
         13   -1    0    0    0    0 -0.00000000000E+00 -0.00000000000E+00 -0.10000000000E+04  0.10000000000E+04  0.00000000000E+00 0.  1.
    9000005    2    1    2  501    0 -0.75745853678E-05  0.11699896646E-04 -0.89245397698E+03  0.11075460144E+04  0.65588419168E+03 0.  0.
         13    1    3    3    0    0  0.26506567803E+03 -0.19177399395E+03 -0.40813215254E+03  0.52307641159E+03  0.00000000000E+00 0.  1.
          3    1    3    3  501    0 -0.26506568561E+03  0.19177400565E+03 -0.48432182444E+03  0.58446960277E+03  0.00000000000E+00 0.  1.
         21    1    1    2  502  501  0.75745853607E-05 -0.11699896670E-04  0.68795144793E-05  0.15543154279E-04  0.00000000000E+00 0.  1.
<mgrwt>
<rscale>  1 0.65588419E+03</rscale>
<asrwt>0</asrwt>
<pdfrwt beam="1">  1        1 0.39107730E+00 0.65588419E+03</pdfrwt>
<pdfrwt beam="2">0</pdfrwt>
<totfact> 0.14642508E+00</totfact>
</mgrwt>
</event>
<event>
 6    1  0.2339725E-003  0.6604587E+03  0.7818608E-02  0.9787350E-01
          1   -1    0    0  502    0  0.00000000000E+00  0.00000000000E+00  0.10905614406E+03  0.10905614406E+03  0.00000000000E+00 0.  1.
         13   -1    0    0    0    0 -0.00000000000E+00 -0.00000000000E+00 -0.10000000000E+04  0.10000000000E+04  0.00000000000E+00 0.  1.
    9000005    2    1    2  501    0 -0.27084002565E-03  0.11096049047E-03 -0.89094857329E+03  0.11090514176E+04  0.66045869418E+03 0.  0.
         13    1    3    3    0    0  0.21012938655E+03 -0.24600626376E+03 -0.33436779338E+03  0.46526902126E+03  0.00000000000E+00 0.  1.
          3    1    3    3  501    0 -0.21012965739E+03  0.24600637472E+03 -0.55658077991E+03  0.64378239638E+03  0.00000000000E+00 0.  1.
         21    1    1    2  502  501  0.27084002566E-03 -0.11096049046E-03  0.47173511739E-02  0.47264223941E-02  0.00000000000E+00 0.  1.
<mgrwt>
<rscale>  1 0.66045869E+03</rscale>
<asrwt>0</asrwt>
<pdfrwt beam="1">  1        1 0.39656863E+00 0.66045869E+03</pdfrwt>
<pdfrwt beam="2">0</pdfrwt>
<totfact> 0.13830648E+00</totfact>
</mgrwt>
</event>
<event>
 6    1  0.2339725E-003  0.6472948E+03  0.7818608E-02  0.9811869E-01
          1   -1    0    0  502    0  0.00000000000E+00  0.00000000000E+00  0.10489336763E+03  0.10489336763E+03  0.00000000000E+00 0.  1.
         13   -1    0    0    0    0 -0.00000000000E+00 -0.00000000000E+00 -0.10000000000E+04  0.10000000000E+04  0.00000000000E+00 0.  1.
    9000005    2    1    2  501    0 -0.33526798729E+00 -0.24401359370E-01 -0.89499516429E+03  0.11045392135E+04  0.64729469098E+03 0.  0.
         13    1    3    3    0    0  0.23218040463E+02 -0.15464501873E+02 -0.99767611471E+03  0.99806605898E+03  0.00000000000E+00 0.  1.
          3    1    3    3  501    0 -0.23553308451E+02  0.15440100514E+02  0.10268095043E+03  0.10647315447E+03  0.00000000000E+00 0.  1.
         21    1    1    2  502  501  0.33526798729E+00  0.24401359370E-01 -0.11146807998E+00  0.35415417899E+00  0.00000000000E+00 0. -1.
<mgrwt>
<rscale>  1 0.64729478E+03</rscale>
<asrwt>0</asrwt>
<pdfrwt beam="1">  1        1 0.38143123E+00 0.64729478E+03</pdfrwt>
<pdfrwt beam="2">0</pdfrwt>
<totfact> 0.16180802E+00</totfact>
</mgrwt>
</event>
<event>
 6    1  0.2339725E-003  0.5735617E+03  0.7818608E-02  0.9961828E-01
          1   -1    0    0  502    0  0.00000000000E+00  0.00000000000E+00  0.82273322877E+02  0.82273322877E+02  0.00000000000E+00 0.  1.
         13   -1    0    0    0    0 -0.00000000000E+00 -0.00000000000E+00 -0.10000000000E+04  0.10000000000E+04  0.00000000000E+00 0.  1.
    9000005    2    1    2  501    0  0.26551945925E-02 -0.48546345128E-02 -0.91775647132E+03  0.10822430192E+04  0.57356168976E+03 0.  0.
         13    1    3    3    0    0  0.81738537684E+02 -0.15202080967E+02  0.59004662808E+02  0.10195019393E+03  0.00000000000E+00 0.  1.
          1    1    3    3  501    0 -0.81735882489E+02  0.15197226333E+02 -0.97676113413E+03  0.98029282529E+03  0.00000000000E+00 0.  1.
         21    1    1    2  502  501 -0.26551945925E-02  0.48546345128E-02  0.29794197550E-01  0.30303658892E-01  0.00000000000E+00 0. -1.
<mgrwt>
<rscale>  1 0.57356169E+03</rscale>
<asrwt>0</asrwt>
<pdfrwt beam="1">  1        1 0.29917635E+00 0.57356169E+03</pdfrwt>
<pdfrwt beam="2">0</pdfrwt>
<totfact> 0.37376059E+00</totfact>
</mgrwt>
</event>
<event>
 6    1  0.2339725E-003  0.6031848E+03  0.7818608E-02  0.9898821E-01
          3   -1    0    0  502    0  0.00000000000E+00  0.00000000000E+00  0.90961472115E+02  0.90961472115E+02  0.00000000000E+00 0.  1.
         13   -1    0    0    0    0 -0.00000000000E+00 -0.00000000000E+00 -0.10000000000E+04  0.10000000000E+04  0.00000000000E+00 0.  1.
    9000005    2    1    2  501    0 -0.88945406881E-03 -0.17218359041E-03 -0.90904195577E+03  0.10909579265E+04  0.60318481423E+03 0.  0.
         13    1    3    3    0    0 -0.21517841093E+03 -0.84968457435E+02 -0.10457072110E+03  0.25388269535E+03  0.00000000000E+00 0.  1.
          3    1    3    3  501    0  0.21517752147E+03  0.84968285252E+02 -0.80447123467E+03  0.83707523118E+03  0.00000000000E+00 0.  1.
         21    1    1    2  502  501  0.88945406880E-03  0.17218359041E-03  0.34278830059E-02  0.35455828338E-02  0.00000000000E+00 0. -1.
<mgrwt>
<rscale>  1 0.60318481E+03</rscale>
<asrwt>0</asrwt>
<pdfrwt beam="1">  1        3 0.33076969E+00 0.60318481E+03</pdfrwt>
<pdfrwt beam="2">0</pdfrwt>
<totfact> 0.13895688E-01</totfact>
</mgrwt>
</event>
<event>
 6    1  0.2339725E-003  0.6417815E+03  0.7818608E-02  0.9822324E-01
          1   -1    0    0  502    0  0.00000000000E+00  0.00000000000E+00  0.10321660137E+03  0.10321660137E+03  0.00000000000E+00 0.  1.
         13   -1    0    0    0    0 -0.00000000000E+00 -0.00000000000E+00 -0.10000000000E+04  0.10000000000E+04  0.00000000000E+00 0.  1.
    9000005    2    1    2  501    0 -0.39481385769E+00  0.13953366401E+00 -0.89681493792E+03  0.11027966700E+04  0.64178133905E+03 0.  0.
         13    1    3    3    0    0  0.18686308617E+03 -0.12753906121E+03 -0.83889887205E+03  0.86887015292E+03  0.00000000000E+00 0.  1.
          1    1    3    3  501    0 -0.18725790003E+03  0.12767859487E+03 -0.57916065873E+02  0.23392651709E+03  0.00000000000E+00 0.  1.
         21    1    1    2  502  501  0.39481385769E+00 -0.13953366401E+00  0.31539292027E-01  0.41993136648E+00  0.00000000000E+00 0. -1.
<mgrwt>
<rscale>  1 0.64178148E+03</rscale>
<asrwt>0</asrwt>
<pdfrwt beam="1">  1        1 0.37533389E+00 0.64178148E+03</pdfrwt>
<pdfrwt beam="2">0</pdfrwt>
<totfact> 0.17231432E+00</totfact>
</mgrwt>
</event>
<event>
 6    1  0.2339725E-003  0.6412030E+03  0.7818608E-02  0.9823428E-01
          3   -1    0    0  502    0  0.00000000000E+00  0.00000000000E+00  0.11005460244E+03  0.11005460244E+03  0.00000000000E+00 0.  1.
         13   -1    0    0    0    0 -0.00000000000E+00 -0.00000000000E+00 -0.10000000000E+04  0.10000000000E+04  0.00000000000E+00 0.  1.
    9000005    2    1    2  501    0 -0.19446185507E+02 -0.94782212320E+01 -0.86889265602E+03  0.10798683682E+04  0.64083793134E+03 0.  0.
         13    1    3    3    0    0  0.16044006789E+03 -0.18332076674E+03 -0.86595052111E+02  0.25854636326E+03  0.00000000000E+00 0.  1.
          3    1    3    3  501    0 -0.17988625340E+03  0.17384254551E+03 -0.78229760391E+03  0.82132200499E+03  0.00000000000E+00 0.  1.
         21    1    1    2  502  501  0.19446185507E+02  0.94782212320E+01 -0.21052741538E+02  0.30186234194E+02  0.00000000000E+00 0.  1.
<mgrwt>
<rscale>  1 0.64120297E+03</rscale>
<asrwt>0</asrwt>
<pdfrwt beam="1">  1        3 0.40019940E+00 0.64120297E+03</pdfrwt>
<pdfrwt beam="2">0</pdfrwt>
<totfact> 0.59186668E-02</totfact>
</mgrwt>
</event>
<event>
 6    1  0.2339725E-003  0.6707699E+03  0.7818608E-02  0.9768568E-01
          1   -1    0    0  502    0  0.00000000000E+00  0.00000000000E+00  0.11730458496E+03  0.11730458496E+03  0.00000000000E+00 0.  1.
         13   -1    0    0    0    0 -0.00000000000E+00 -0.00000000000E+00 -0.10000000000E+04  0.10000000000E+04  0.00000000000E+00 0.  1.
    9000005    2    1    2  501    0  0.26957867475E-01  0.45155840655E+00 -0.88750512380E+03  0.11124736503E+04  0.67076976163E+03 0.  0.
         13    1    3    3    0    0  0.47513425655E+01 -0.20205410322E+03  0.37089146496E-01  0.20210996329E+03  0.00000000000E+00 0.  1.
          3    1    3    3  501    0 -0.47243846980E+01  0.20250566163E+03 -0.88754221295E+03  0.91036368697E+03  0.00000000000E+00 0.  1.
         21    1    1    2  502  501 -0.26957867475E-01 -0.45155840655E+00  0.48097087588E+01  0.48309346990E+01  0.00000000000E+00 0.  1.
<mgrwt>
<rscale>  1 0.67076991E+03</rscale>
<asrwt>0</asrwt>
<pdfrwt beam="1">  1        1 0.42656303E+00 0.67076991E+03</pdfrwt>
<pdfrwt beam="2">0</pdfrwt>
<totfact> 0.10123132E+00</totfact>
</mgrwt>
</event>
<event>
 6    1  0.2339725E-003  0.6403839E+03  0.7818608E-02  0.9824992E-01
          1   -1    0    0  502    0  0.00000000000E+00  0.00000000000E+00  0.10252977981E+03  0.10252977981E+03  0.00000000000E+00 0.  1.
         13   -1    0    0    0    0 -0.00000000000E+00 -0.00000000000E+00 -0.10000000000E+04  0.10000000000E+04  0.00000000000E+00 0.  1.
    9000005    2    1    2  501    0  0.52709788366E-03 -0.16098242864E-03 -0.89747711316E+03  0.11025228648E+04  0.64038386836E+03 0.  0.
         13    1    3    3    0    0 -0.24832883063E+03  0.12927259168E+03 -0.71625612024E+03  0.76902629400E+03  0.00000000000E+00 0.  1.
          1    1    3    3  501    0  0.24832935773E+03 -0.12927275266E+03 -0.18122099292E+03  0.33349657084E+03  0.00000000000E+00 0.  1.
         21    1    1    2  502  501 -0.52709788366E-03  0.16098242864E-03  0.68929748731E-02  0.69149728938E-02  0.00000000000E+00 0.  1.
<mgrwt>
<rscale>  1 0.64038387E+03</rscale>
<asrwt>0</asrwt>
<pdfrwt beam="1">  1        1 0.37283635E+00 0.64038387E+03</pdfrwt>
<pdfrwt beam="2">0</pdfrwt>
<totfact> 0.17677520E+00</totfact>
</mgrwt>
</event>
<event>
 6    1  0.2339725E-003  0.6486730E+03  0.7818608E-02  0.9809272E-01
          1   -1    0    0  502    0  0.00000000000E+00  0.00000000000E+00  0.10528297022E+03  0.10528297022E+03  0.00000000000E+00 0.  1.
         13   -1    0    0    0    0 -0.00000000000E+00 -0.00000000000E+00 -0.10000000000E+04  0.10000000000E+04  0.00000000000E+00 0.  1.
    9000005    2    1    2  501    0 -0.13886150765E-02 -0.56856718817E-03 -0.89480582394E+03  0.11051941634E+04  0.64867301178E+03 0.  0.
         13    1    3    3    0    0  0.15551345877E+03 -0.26911419341E+03 -0.28951843034E+03  0.42476794425E+03  0.00000000000E+00 0.  1.
          1    1    3    3  501    0 -0.15551484739E+03  0.26911362484E+03 -0.60528739360E+03  0.68042621914E+03  0.00000000000E+00 0.  1.
         21    1    1    2  502  501  0.13886150765E-02  0.56856718818E-03  0.88794164149E-01  0.88806841558E-01  0.00000000000E+00 0.  1.
<mgrwt>
<rscale>  1 0.64867301E+03</rscale>
<asrwt>0</asrwt>
<pdfrwt beam="1">  1        1 0.38284797E+00 0.64867301E+03</pdfrwt>
<pdfrwt beam="2">0</pdfrwt>
<totfact> 0.15945283E+00</totfact>
</mgrwt>
</event>
<event>
 6    1  0.2339725E-003  0.6631257E+03  0.7818608E-02  0.9782457E-01
          1   -1    0    0  502    0  0.00000000000E+00  0.00000000000E+00  0.10993419175E+03  0.10993419175E+03  0.00000000000E+00 0.  1.
         13   -1    0    0    0    0 -0.00000000000E+00 -0.00000000000E+00 -0.10000000000E+04  0.10000000000E+04  0.00000000000E+00 0.  1.
    9000005    2    1    2  501    0 -0.22130714985E-04  0.66120128963E-05 -0.89006609148E+03  0.11099339076E+04  0.66312565325E+03 0.  0.
         13    1    3    3    0    0  0.27806726214E+02 -0.32053888995E+03 -0.31096757299E+03  0.44745862987E+03  0.00000000000E+00 0.  1.
          3    1    3    3  501    0 -0.27806748345E+02  0.32053889656E+03 -0.57909851849E+03  0.66247527771E+03  0.00000000000E+00 0.  1.
         21    1    1    2  502  501  0.22130714985E-04 -0.66120128980E-05  0.28322995795E-03  0.28417018905E-03  0.00000000000E+00 0.  1.
<mgrwt>
<rscale>  1 0.66312565E+03</rscale>
<asrwt>0</asrwt>
<pdfrwt beam="1">  1        1 0.39976154E+00 0.66312565E+03</pdfrwt>
<pdfrwt beam="2">0</pdfrwt>
<totfact> 0.13378357E+00</totfact>
</mgrwt>
</event>
<event>
 6    1  0.2339725E-003  0.6606769E+03  0.7818608E-02  0.9786949E-01
          1   -1    0    0  502    0  0.00000000000E+00  0.00000000000E+00  0.10912432562E+03  0.10912432562E+03  0.00000000000E+00 0.  1.
         13   -1    0    0    0    0 -0.00000000000E+00 -0.00000000000E+00 -0.10000000000E+04  0.10000000000E+04  0.00000000000E+00 0.  1.
    9000005    2    1    2  501    0 -0.68197496009E-03 -0.76943826457E-05 -0.89087636317E+03  0.11091233563E+04  0.66067686886E+03 0.  0.
         13    1    3    3    0    0  0.30340474093E+02 -0.14060196449E+03  0.53791536907E+02  0.15356752986E+03  0.00000000000E+00 0.  1.
          3    1    3    3  501    0 -0.30341156068E+02  0.14060195679E+03 -0.94466790007E+03  0.95555582644E+03  0.00000000000E+00 0.  1.
         21    1    1    2  502  501  0.68197496009E-03  0.76943826372E-05  0.68878557850E-03  0.96931657515E-03  0.00000000000E+00 0.  1.
<mgrwt>
<rscale>  1 0.66067687E+03</rscale>
<asrwt>0</asrwt>
<pdfrwt beam="1">  1        1 0.39681657E+00 0.66067687E+03</pdfrwt>
<pdfrwt beam="2">0</pdfrwt>
<totfact> 0.13794988E+00</totfact>
</mgrwt>
</event>
<event>
 6    1  0.2339725E-003  0.6357753E+03  0.7818608E-02  0.9833843E-01
          1   -1    0    0  502    0  0.00000000000E+00  0.00000000000E+00  0.10145381655E+03  0.10145381655E+03  0.00000000000E+00 0.  1.
         13   -1    0    0    0    0 -0.00000000000E+00 -0.00000000000E+00 -0.10000000000E+04  0.10000000000E+04  0.00000000000E+00 0.  1.
    9000005    2    1    2  501    0 -0.55443100041E-01 -0.77401460315E-01 -0.89894120768E+03  0.11010474804E+04  0.63577531423E+03 0.  0.
         13    1    3    3    0    0  0.28121708383E+03  0.13880924880E+03 -0.35983881775E+03  0.47732067895E+03  0.00000000000E+00 0.  1.
          1    1    3    3  501    0 -0.28127252693E+03 -0.13888665026E+03 -0.53910238993E+03  0.62372680146E+03  0.00000000000E+00 0.  1.
         21    1    1    2  502  501  0.55443100041E-01  0.77401460315E-01  0.39502422619E+00  0.40633614493E+00  0.00000000000E+00 0.  1.
<mgrwt>
<rscale>  1 0.63577532E+03</rscale>
<asrwt>0</asrwt>
<pdfrwt beam="1">  1        1 0.36892375E+00 0.63577532E+03</pdfrwt>
<pdfrwt beam="2">0</pdfrwt>
<totfact> 0.18406720E+00</totfact>
</mgrwt>
</event>
<event>
 6    1  0.2339725E-003  0.6562004E+03  0.7818608E-02  0.9795214E-01
          1   -1    0    0  502    0  0.00000000000E+00  0.00000000000E+00  0.13818634220E+03  0.13818634220E+03  0.00000000000E+00 0.  1.
         13   -1    0    0    0    0 -0.00000000000E+00 -0.00000000000E+00 -0.10000000000E+04  0.10000000000E+04  0.00000000000E+00 0.  1.
    9000005    2    1    2  501    0 -0.60952037777E+02  0.61857562326E+02 -0.77310242841E+03  0.10140445235E+04  0.65042864476E+03 0.  0.
         13    1    3    3    0    0 -0.36699362150E+02  0.18012361778E+03 -0.85082882076E+03  0.87046024785E+03  0.00000000000E+00 0.  1.
          1    1    3    3  501    0 -0.24252675627E+02 -0.11826605545E+03  0.77726392351E+02  0.14358427565E+03  0.00000000000E+00 0.  1.
         21    1    1    2  502  501  0.60952037777E+02 -0.61857562326E+02 -0.88711229398E+02  0.12414181869E+03  0.00000000000E+00 0.  1.
<mgrwt>
<rscale>  1 0.65620037E+03</rscale>
<asrwt>0</asrwt>
<pdfrwt beam="1">  1        1 0.50249685E+00 0.65620037E+03</pdfrwt>
<pdfrwt beam="2">0</pdfrwt>
<totfact> 0.44911203E-01</totfact>
</mgrwt>
</event>
<event>
 6    1  0.2339725E-003  0.6604037E+03  0.7818608E-02  0.9787451E-01
          1   -1    0    0  502    0  0.00000000000E+00  0.00000000000E+00  0.10903726512E+03  0.10903726512E+03  0.00000000000E+00 0.  1.
         13   -1    0    0    0    0 -0.00000000000E+00 -0.00000000000E+00 -0.10000000000E+04  0.10000000000E+04  0.00000000000E+00 0.  1.
    9000005    2    1    2  501    0 -0.59456649538E-03  0.36478242416E-03 -0.89096670742E+03  0.11090332318E+04  0.66040369133E+03 0.  0.
         13    1    3    3    0    0 -0.20057748493E+03  0.18387478483E+03 -0.75962180740E+03  0.80688695258E+03  0.00000000000E+00 0.  1.
          3    1    3    3  501    0  0.20057689036E+03 -0.18387442004E+03 -0.13134490001E+03  0.30214627923E+03  0.00000000000E+00 0.  1.
         21    1    1    2  502  501  0.59456649540E-03 -0.36478242414E-03  0.39725339900E-02  0.40333115223E-02  0.00000000000E+00 0.  1.
<mgrwt>
<rscale>  1 0.66040369E+03</rscale>
<asrwt>0</asrwt>
<pdfrwt beam="1">  1        1 0.39649998E+00 0.66040369E+03</pdfrwt>
<pdfrwt beam="2">0</pdfrwt>
<totfact> 0.13840524E+00</totfact>
</mgrwt>
</event>
<event>
 6    1  0.2339725E-003  0.6571864E+03  0.7818608E-02  0.9793387E-01
          1   -1    0    0  502    0  0.00000000000E+00  0.00000000000E+00  0.10797352043E+03  0.10797352043E+03  0.00000000000E+00 0.  1.
         13   -1    0    0    0    0 -0.00000000000E+00 -0.00000000000E+00 -0.10000000000E+04  0.10000000000E+04  0.00000000000E+00 0.  1.
    9000005    2    1    2  501    0  0.14092587293E-05 -0.34631377162E-05 -0.89202649281E+03  0.11079735067E+04  0.65718644814E+03 0.  0.
         13    1    3    3    0    0  0.45189412683E+02  0.31405745327E+03 -0.30197343398E+03  0.43802068650E+03  0.00000000000E+00 0.  1.
          3    1    3    3  501    0 -0.45189411273E+02 -0.31405745674E+03 -0.59005305883E+03  0.66995282017E+03  0.00000000000E+00 0.  1.
         21    1    1    2  502  501 -0.14092587308E-05  0.34631377415E-05  0.13240572012E-04  0.13758345845E-04  0.00000000000E+00 0.  1.
<mgrwt>
<rscale>  1 0.65718645E+03</rscale>
<asrwt>0</asrwt>
<pdfrwt beam="1">  1        1 0.39263181E+00 0.65718645E+03</pdfrwt>
<pdfrwt beam="2">0</pdfrwt>
<totfact> 0.14408197E+00</totfact>
</mgrwt>
</event>
<event>
 6    1  0.2339725E-003  0.6533731E+03  0.7818608E-02  0.9800470E-01
          1   -1    0    0  502    0  0.00000000000E+00  0.00000000000E+00  0.11057477883E+03  0.11057477883E+03  0.00000000000E+00 0.  1.
         13   -1    0    0    0    0 -0.00000000000E+00 -0.00000000000E+00 -0.10000000000E+04  0.10000000000E+04  0.00000000000E+00 0.  1.
    9000005    2    1    2  501    0 -0.28377955109E+00  0.30393323965E+00 -0.89326348404E+03  0.11067140576E+04  0.65337292609E+03 0.  0.
         13    1    3    3    0    0 -0.13370199766E+03 -0.15308980873E+03 -0.13429952467E+02  0.20369849616E+03  0.00000000000E+00 0.  1.
          1    1    3    3  501    0  0.13341821811E+03  0.15339374196E+03 -0.87983353157E+03  0.90301556148E+03  0.00000000000E+00 0.  1.
         21    1    1    2  502  501  0.28377955109E+00 -0.30393323965E+00  0.38382628734E+01  0.38607211934E+01  0.00000000000E+00 0.  1.
<mgrwt>
<rscale>  1 0.65337306E+03</rscale>
<asrwt>0</asrwt>
<pdfrwt beam="1">  1        1 0.40209095E+00 0.65337306E+03</pdfrwt>
<pdfrwt beam="2">0</pdfrwt>
<totfact> 0.13086103E+00</totfact>
</mgrwt>
</event>
<event>
 6    1  0.2339725E-003  0.6327815E+03  0.7818608E-02  0.9839636E-01
          1   -1    0    0  502    0  0.00000000000E+00  0.00000000000E+00  0.10010668161E+03  0.10010668161E+03  0.00000000000E+00 0.  1.
         13   -1    0    0    0    0 -0.00000000000E+00 -0.00000000000E+00 -0.10000000000E+04  0.10000000000E+04  0.00000000000E+00 0.  1.
    9000005    2    1    2  501    0 -0.64265517918E-02  0.86508036140E-02 -0.89988331914E+03  0.11000919805E+04  0.63278146104E+03 0.  0.
         13    1    3    3    0    0 -0.27639414733E+03  0.10114310916E+03 -0.24808592960E+03  0.38492893068E+03  0.00000000000E+00 0.  1.
          1    1    3    3  501    0  0.27638772078E+03 -0.10113445835E+03 -0.65179738954E+03  0.71516304985E+03  0.00000000000E+00 0.  1.
         21    1    1    2  502  501  0.64265517918E-02 -0.86508036140E-02 -0.99992433249E-02  0.14701082891E-01  0.00000000000E+00 0.  1.
<mgrwt>
<rscale>  1 0.63278146E+03</rscale>
<asrwt>0</asrwt>
<pdfrwt beam="1">  1        1 0.36402506E+00 0.63278146E+03</pdfrwt>
<pdfrwt beam="2">0</pdfrwt>
<totfact> 0.19350560E+00</totfact>
</mgrwt>
</event>
<event>
 6    1  0.2339725E-003  0.7437071E+03  0.7818608E-02  0.9645275E-01
          1   -1    0    0  502    0  0.00000000000E+00  0.00000000000E+00  0.13827518831E+03  0.13827518831E+03  0.00000000000E+00 0.  1.
         13   -1    0    0    0    0 -0.00000000000E+00 -0.00000000000E+00 -0.10000000000E+04  0.10000000000E+04  0.00000000000E+00 0.  1.
    9000005    2    1    2  501    0 -0.24673143400E-04 -0.10548321598E-04 -0.86172492449E+03  0.11382750724E+04  0.74370712977E+03 0.  0.
         13    1    3    3    0    0  0.26295642273E+03 -0.17167984153E+03 -0.73564800358E+03  0.79987376093E+03  0.00000000000E+00 0.  1.
          1    1    3    3  501    0 -0.26295644740E+03  0.17167983098E+03 -0.12607692091E+03  0.33840131143E+03  0.00000000000E+00 0.  1.
         21    1    1    2  502  501  0.24673143398E-04  0.10548321599E-04  0.11280582070E-03  0.11595337114E-03  0.00000000000E+00 0. -1.
<mgrwt>
<rscale>  1 0.74370713E+03</rscale>
<asrwt>0</asrwt>
<pdfrwt beam="1">  1        1 0.50281993E+00 0.74370713E+03</pdfrwt>
<pdfrwt beam="2">0</pdfrwt>
<totfact> 0.43928980E-01</totfact>
</mgrwt>
</event>
<event>
 6    1  0.2339725E-003  0.6610965E+03  0.7818608E-02  0.9786177E-01
          1   -1    0    0  502    0  0.00000000000E+00  0.00000000000E+00  0.11405659825E+03  0.11405659825E+03  0.00000000000E+00 0.  1.
         13   -1    0    0    0    0 -0.00000000000E+00 -0.00000000000E+00 -0.10000000000E+04  0.10000000000E+04  0.00000000000E+00 0.  1.
    9000005    2    1    2  501    0 -0.61439598943E+01 -0.38210051475E-02 -0.88844588090E+03  0.11074225452E+04  0.66106797086E+03 0.  0.
         13    1    3    3    0    0 -0.12777382922E+03 -0.15795457712E+03 -0.65446224520E+01  0.20326985007E+03  0.00000000000E+00 0.  1.
          3    1    3    3  501    0  0.12162986932E+03  0.15795075611E+03 -0.88190125845E+03  0.90415269514E+03  0.00000000000E+00 0.  1.
         21    1    1    2  502  501  0.61439598943E+01  0.38210051475E-02  0.25024791545E+01  0.66340530373E+01  0.00000000000E+00 0.  1.
<mgrwt>
<rscale>  1 0.66109652E+03</rscale>
<asrwt>0</asrwt>
<pdfrwt beam="1">  1        1 0.41475214E+00 0.66109652E+03</pdfrwt>
<pdfrwt beam="2">0</pdfrwt>
<totfact> 0.11466982E+00</totfact>
</mgrwt>
</event>
<event>
 6    1  0.2339725E-003  0.5909563E+03  0.7818608E-02  0.9924349E-01
          1   -1    0    0  502    0  0.00000000000E+00  0.00000000000E+00  0.87375098412E+02  0.87375098412E+02  0.00000000000E+00 0.  1.
         13   -1    0    0    0    0 -0.00000000000E+00 -0.00000000000E+00 -0.10000000000E+04  0.10000000000E+04  0.00000000000E+00 0.  1.
    9000005    2    1    2  501    0  0.12429884406E-01 -0.74727426795E-02 -0.91269183094E+03  0.10873066157E+04  0.59095625731E+03 0.  0.
         13    1    3    3    0    0 -0.20336629088E+03  0.12186830843E+03 -0.13189568236E+03  0.27130463301E+03  0.00000000000E+00 0.  1.
          1    1    3    3  501    0  0.20337872077E+03 -0.12187578118E+03 -0.78079614859E+03  0.81600198269E+03  0.00000000000E+00 0.  1.
         21    1    1    2  502  501 -0.12429884406E-01  0.74727426795E-02  0.66929356167E-01  0.68482717720E-01  0.00000000000E+00 0. -1.
<mgrwt>
<rscale>  1 0.59095626E+03</rscale>
<asrwt>0</asrwt>
<pdfrwt beam="1">  1        1 0.31772830E+00 0.59095626E+03</pdfrwt>
<pdfrwt beam="2">0</pdfrwt>
<totfact> 0.30986115E+00</totfact>
</mgrwt>
</event>
<event>
 6    1  0.2339725E-003  0.6362084E+03  0.7818608E-02  0.9833008E-01
          1   -1    0    0  502    0  0.00000000000E+00  0.00000000000E+00  0.10119030379E+03  0.10119030379E+03  0.00000000000E+00 0.  1.
         13   -1    0    0    0    0 -0.00000000000E+00 -0.00000000000E+00 -0.10000000000E+04  0.10000000000E+04  0.00000000000E+00 0.  1.
    9000005    2    1    2  501    0  0.78297925448E-04 -0.93508381269E-05 -0.89880967867E+03  0.11011902230E+04  0.63620835327E+03 0.  0.
         13    1    3    3    0    0  0.61236058322E+02 -0.31125340732E+03 -0.40838167864E+03  0.51711133603E+03  0.00000000000E+00 0.  1.
          1    1    3    3  501    0 -0.61235980024E+02  0.31125339796E+03 -0.49042800003E+03  0.58407888697E+03  0.00000000000E+00 0.  1.
         21    1    1    2  502  501 -0.78297925449E-04  0.93508381116E-05 -0.17542033693E-04  0.80781967351E-04  0.00000000000E+00 0. -1.
<mgrwt>
<rscale>  1 0.63620835E+03</rscale>
<asrwt>0</asrwt>
<pdfrwt beam="1">  1        1 0.36796552E+00 0.63620835E+03</pdfrwt>
<pdfrwt beam="2">0</pdfrwt>
<totfact> 0.18584360E+00</totfact>
</mgrwt>
</event>
<event>
 6    1  0.2339725E-003  0.6586972E+03  0.7818608E-02  0.9790595E-01
          1   -1    0    0  502    0  0.00000000000E+00  0.00000000000E+00  0.10926279055E+03  0.10926279055E+03  0.00000000000E+00 0.  1.
         13   -1    0    0    0    0 -0.00000000000E+00 -0.00000000000E+00 -0.10000000000E+04  0.10000000000E+04  0.00000000000E+00 0.  1.
    9000005    2    1    2  501    0  0.28686781113E-01  0.24969778686E-01 -0.89152901000E+03  0.11084700772E+04  0.65869714954E+03 0.  0.
         13    1    3    3    0    0 -0.30079882507E+03  0.11416143353E+03 -0.32733241898E+03  0.45897633772E+03  0.00000000000E+00 0.  1.
          1    1    3    3  501    0  0.30082751185E+03 -0.11413646375E+03 -0.56419659102E+03  0.64949373943E+03  0.00000000000E+00 0.  1.
         21    1    1    2  502  501 -0.28686781113E-01 -0.24969778686E-01  0.79180055079E+00  0.79271339934E+00  0.00000000000E+00 0. -1.
<mgrwt>
<rscale>  1 0.65869715E+03</rscale>
<asrwt>0</asrwt>
<pdfrwt beam="1">  1        1 0.39732008E+00 0.65869715E+03</pdfrwt>
<pdfrwt beam="2">0</pdfrwt>
<totfact> 0.13729047E+00</totfact>
</mgrwt>
</event>
<event>
 6    1  0.2339725E-003  0.6506412E+03  0.7818608E-02  0.9805577E-01
          1   -1    0    0  502    0  0.00000000000E+00  0.00000000000E+00  0.10583358505E+03  0.10583358505E+03  0.00000000000E+00 0.  1.
         13   -1    0    0    0    0 -0.00000000000E+00 -0.00000000000E+00 -0.10000000000E+04  0.10000000000E+04  0.00000000000E+00 0.  1.
    9000005    2    1    2  501    0 -0.20961263854E-03  0.10364501361E-03 -0.89416636055E+03  0.11058333450E+04  0.65064115033E+03 0.  0.
         13    1    3    3    0    0 -0.25528436910E+03  0.18871132744E+03 -0.32628602020E+03  0.45524129996E+03  0.00000000000E+00 0.  1.
          1    1    3    3  501    0  0.25528415949E+03 -0.18871122379E+03 -0.56788034035E+03  0.65059204501E+03  0.00000000000E+00 0.  1.
         21    1    1    2  502  501  0.20961263856E-03 -0.10364501362E-03 -0.54403069899E-04  0.24008215491E-03  0.00000000000E+00 0. -1.
<mgrwt>
<rscale>  1 0.65064115E+03</rscale>
<asrwt>0</asrwt>
<pdfrwt beam="1">  1        1 0.38485021E+00 0.65064115E+03</pdfrwt>
<pdfrwt beam="2">0</pdfrwt>
<totfact> 0.15617926E+00</totfact>
</mgrwt>
</event>
<event>
 6    1  0.2339725E-003  0.4796534E+03  0.7818608E-02  0.1019230E+00
          1   -1    0    0  502    0  0.00000000000E+00  0.00000000000E+00  0.57516863241E+02  0.57516863241E+02  0.00000000000E+00 0.  1.
         13   -1    0    0    0    0 -0.00000000000E+00 -0.00000000000E+00 -0.10000000000E+04  0.10000000000E+04  0.00000000000E+00 0.  1.
    9000005    2    1    2  501    0 -0.38431451443E-05  0.13157238499E-04 -0.94248314305E+03  0.10575168482E+04  0.47965342614E+03 0.  0.
         13    1    3    3    0    0 -0.35888230251E+02  0.20864416268E+03 -0.71967030950E+03  0.75016378616E+03  0.00000000000E+00 0.  1.
          3    1    3    3  501    0  0.35888226408E+02 -0.20864414952E+03 -0.22281283355E+03  0.30735306200E+03  0.00000000000E+00 0.  1.
         21    1    1    2  502  501  0.38431451446E-05 -0.13157238497E-04  0.62913300230E-05  0.15081893877E-04  0.00000000000E+00 0.  1.
<mgrwt>
<rscale>  1 0.47965343E+03</rscale>
<asrwt>0</asrwt>
<pdfrwt beam="1">  1        1 0.20915267E+00 0.47965343E+03</pdfrwt>
<pdfrwt beam="2">0</pdfrwt>
<totfact> 0.93787204E+00</totfact>
</mgrwt>
</event>
<event>
 6    1  0.2339725E-003  0.6181230E+03  0.7818608E-02  0.9868504E-01
          1   -1    0    0  502    0  0.00000000000E+00  0.00000000000E+00  0.95520651005E+02  0.95520651005E+02  0.00000000000E+00 0.  1.
         13   -1    0    0    0    0 -0.00000000000E+00 -0.00000000000E+00 -0.10000000000E+04  0.10000000000E+04  0.00000000000E+00 0.  1.
    9000005    2    1    2  501    0  0.54077804208E-04 -0.22667102655E-04 -0.90448100111E+03  0.10955189979E+04  0.61812295968E+03 0.  0.
         13    1    3    3    0    0 -0.12154576729E+03  0.46212971962E+02 -0.94915750725E+03  0.95802347878E+03  0.00000000000E+00 0.  1.
          1    1    3    3  501    0  0.12154582137E+03 -0.46212994629E+02  0.44676506138E+02  0.13749551907E+03  0.00000000000E+00 0.  1.
         21    1    1    2  502  501 -0.54077804210E-04  0.22667102658E-04  0.16521141073E-02  0.16531543273E-02  0.00000000000E+00 0. -1.
<mgrwt>
<rscale>  1 0.61812296E+03</rscale>
<asrwt>0</asrwt>
<pdfrwt beam="1">  1        1 0.34734855E+00 0.61812296E+03</pdfrwt>
<pdfrwt beam="2">0</pdfrwt>
<totfact> 0.22943307E+00</totfact>
</mgrwt>
</event>
<event>
 6    1  0.2339725E-003  0.6651539E+03  0.7818608E-02  0.9778752E-01
          1   -1    0    0  502    0  0.00000000000E+00  0.00000000000E+00  0.15592776581E+03  0.15592776581E+03  0.00000000000E+00 0.  1.
         13   -1    0    0    0    0 -0.00000000000E+00 -0.00000000000E+00 -0.10000000000E+04  0.10000000000E+04  0.00000000000E+00 0.  1.
    9000005    2    1    2  501    0  0.10680988524E+03  0.57204376253E+02 -0.67243262775E+03  0.94583053416E+03  0.65402528104E+03 0.  0.
         13    1    3    3    0    0  0.43283502975E+02  0.11559589369E+03  0.10595658139E+03  0.16267350555E+03  0.00000000000E+00 0.  1.
          1    1    3    3  501    0  0.63526382262E+02 -0.58391517440E+02 -0.77838920914E+03  0.78315702861E+03  0.00000000000E+00 0.  1.
         21    1    1    2  502  501 -0.10680988524E+03 -0.57204376253E+02 -0.17163960644E+03  0.21009723165E+03  0.00000000000E+00 0.  1.
<mgrwt>
<rscale>  1 0.66515394E+03</rscale>
<asrwt>0</asrwt>
<pdfrwt beam="1">  1        1 0.56701125E+00 0.66515394E+03</pdfrwt>
<pdfrwt beam="2">0</pdfrwt>
<totfact> 0.21327884E-01</totfact>
</mgrwt>
</event>
<event>
 6    1  0.2339725E-003  0.6509384E+03  0.7818608E-02  0.9805020E-01
          1   -1    0    0  502    0  0.00000000000E+00  0.00000000000E+00  0.10711797047E+03  0.10711797047E+03  0.00000000000E+00 0.  1.
         13   -1    0    0    0    0 -0.00000000000E+00 -0.00000000000E+00 -0.10000000000E+04  0.10000000000E+04  0.00000000000E+00 0.  1.
    9000005    2    1    2  501    0 -0.46915254707E+00  0.11591873020E+00 -0.89401520810E+03  0.11058860472E+04  0.65093818720E+03 0.  0.
         13    1    3    3    0    0  0.11612317391E+03 -0.20806933318E+03 -0.70487589351E+02  0.24848730185E+03  0.00000000000E+00 0.  1.
          1    1    3    3  501    0 -0.11659232646E+03  0.20818525191E+03 -0.82352761875E+03  0.85739874536E+03  0.00000000000E+00 0.  1.
         21    1    1    2  502  501  0.46915254707E+00 -0.11591873020E+00  0.11331785719E+01  0.12319232688E+01  0.00000000000E+00 0. -1.
<mgrwt>
<rscale>  1 0.65093837E+03</rscale>
<asrwt>0</asrwt>
<pdfrwt beam="1">  1        1 0.38952071E+00 0.65093837E+03</pdfrwt>
<pdfrwt beam="2">0</pdfrwt>
<totfact> 0.14890816E+00</totfact>
</mgrwt>
</event>
<event>
 6    1  0.2339725E-003  0.6411538E+03  0.7818608E-02  0.9823521E-01
          1   -1    0    0  502    0  0.00000000000E+00  0.00000000000E+00  0.10279885507E+03  0.10279885507E+03  0.00000000000E+00 0.  1.
         13   -1    0    0    0    0 -0.00000000000E+00 -0.00000000000E+00 -0.10000000000E+04  0.10000000000E+04  0.00000000000E+00 0.  1.
    9000005    2    1    2  501    0  0.62750048738E-03 -0.76204718675E-03 -0.89723042972E+03  0.11027695537E+04  0.64115383836E+03 0.  0.
         13    1    3    3    0    0 -0.89951874039E+02  0.30747904707E+03 -0.46856677656E+03  0.56761741352E+03  0.00000000000E+00 0.  1.
          3    1    3    3  501    0  0.89952501540E+02 -0.30747980912E+03 -0.42866365315E+03  0.53515214013E+03  0.00000000000E+00 0.  1.
         21    1    1    2  502  501 -0.62750048737E-03  0.76204718679E-03  0.29284783981E-01  0.29301417126E-01  0.00000000000E+00 0.  1.
<mgrwt>
<rscale>  1 0.64115384E+03</rscale>
<asrwt>0</asrwt>
<pdfrwt beam="1">  1        1 0.37381481E+00 0.64115384E+03</pdfrwt>
<pdfrwt beam="2">0</pdfrwt>
<totfact> 0.17500747E+00</totfact>
</mgrwt>
</event>
<event>
 6    1  0.2339725E-003  0.6636159E+03  0.7818608E-02  0.9781560E-01
          1   -1    0    0  502    0  0.00000000000E+00  0.00000000000E+00  0.11009849458E+03  0.11009849458E+03  0.00000000000E+00 0.  1.
         13   -1    0    0    0    0 -0.00000000000E+00 -0.00000000000E+00 -0.10000000000E+04  0.10000000000E+04  0.00000000000E+00 0.  1.
    9000005    2    1    2  501    0 -0.18135934145E-03 -0.54078868004E-04 -0.88990346299E+03  0.11100965279E+04  0.66361594900E+03 0.  0.
         13    1    3    3    0    0  0.91207775722E+02  0.29576039305E+03 -0.64501340552E+03  0.71542669907E+03  0.00000000000E+00 0.  1.
          1    1    3    3  501    0 -0.91207957082E+02 -0.29576044713E+03 -0.24489005747E+03  0.39466982881E+03  0.00000000000E+00 0.  1.
         21    1    1    2  502  501  0.18135934144E-03  0.54078868012E-04  0.19575782721E-02  0.19667049667E-02  0.00000000000E+00 0.  1.
<mgrwt>
<rscale>  1 0.66361595E+03</rscale>
<asrwt>0</asrwt>
<pdfrwt beam="1">  1        1 0.40035901E+00 0.66361595E+03</pdfrwt>
<pdfrwt beam="2">0</pdfrwt>
<totfact> 0.13295313E+00</totfact>
</mgrwt>
</event>
<event>
 6    1  0.2339725E-003  0.6494106E+03  0.7818608E-02  0.9807886E-01
          1   -1    0    0  502    0  0.00000000000E+00  0.00000000000E+00  0.10543359136E+03  0.10543359136E+03  0.00000000000E+00 0.  1.
         13   -1    0    0    0    0 -0.00000000000E+00 -0.00000000000E+00 -0.10000000000E+04  0.10000000000E+04  0.00000000000E+00 0.  1.
    9000005    2    1    2  501    0 -0.88471546391E-05 -0.63114258637E-05 -0.89456648017E+03  0.11054335190E+04  0.64941056158E+03 0.  0.
         13    1    3    3    0    0  0.53106231205E+02 -0.19210548684E+03 -0.88362303260E+03  0.90582252876E+03  0.00000000000E+00 0.  1.
          1    1    3    3  501    0 -0.53106240053E+02  0.19210548053E+03 -0.10943447571E+02  0.19961099024E+03  0.00000000000E+00 0.  1.
         21    1    1    2  502  501  0.88471546389E-05  0.63114258719E-05  0.71537523470E-04  0.72358299496E-04  0.00000000000E+00 0. -1.
<mgrwt>
<rscale>  1 0.64941056E+03</rscale>
<asrwt>0</asrwt>
<pdfrwt beam="1">  1        1 0.38339569E+00 0.64941056E+03</pdfrwt>
<pdfrwt beam="2">0</pdfrwt>
<totfact> 0.15854510E+00</totfact>
</mgrwt>
</event>
<event>
 6    1  0.2339725E-003  0.6374609E+03  0.7818608E-02  0.9830597E-01
          1   -1    0    0  502    0  0.00000000000E+00  0.00000000000E+00  0.10254303561E+03  0.10254303561E+03  0.00000000000E+00 0.  1.
         13   -1    0    0    0    0 -0.00000000000E+00 -0.00000000000E+00 -0.10000000000E+04  0.10000000000E+04  0.00000000000E+00 0.  1.
    9000005    2    1    2  501    0  0.32571606093E-03  0.25193102629E-01 -0.89841070302E+03  0.11015889642E+04  0.63746094326E+03 0.  0.
         13    1    3    3    0    0 -0.15208305002E+03 -0.27081631910E+03 -0.57273952769E+03  0.65153764233E+03  0.00000000000E+00 0.  1.
          1    1    3    3  501    0  0.15208337574E+03  0.27084151220E+03 -0.32567117533E+03  0.45005132191E+03  0.00000000000E+00 0.  1.
         21    1    1    2  502  501 -0.32571606093E-03 -0.25193102629E-01  0.95373863969E+00  0.95407137644E+00  0.00000000000E+00 0. -1.
<mgrwt>
<rscale>  1 0.63746094E+03</rscale>
<asrwt>0</asrwt>
<pdfrwt beam="1">  1        1 0.37288455E+00 0.63746094E+03</pdfrwt>
<pdfrwt beam="2">0</pdfrwt>
<totfact> 0.17678346E+00</totfact>
</mgrwt>
</event>
<event>
 6    1  0.2339725E-003  0.6517247E+03  0.7818608E-02  0.9803548E-01
          1   -1    0    0  502    0  0.00000000000E+00  0.00000000000E+00  0.10618650169E+03  0.10618650169E+03  0.00000000000E+00 0.  1.
         13   -1    0    0    0    0 -0.00000000000E+00 -0.00000000000E+00 -0.10000000000E+04  0.10000000000E+04  0.00000000000E+00 0.  1.
    9000005    2    1    2  501    0  0.20866407459E-03 -0.14864415265E-03 -0.89381366732E+03  0.11061861948E+04  0.65172465475E+03 0.  0.
         13    1    3    3    0    0 -0.29621520315E+03 -0.10420255346E+03 -0.59472570793E+03  0.67253274002E+03  0.00000000000E+00 0.  1.
          1    1    3    3  501    0  0.29621541181E+03  0.10420240482E+03 -0.29908795939E+03  0.43365345475E+03  0.00000000000E+00 0.  1.
         21    1    1    2  502  501 -0.20866407457E-03  0.14864415265E-03  0.16901454966E-03  0.30692295145E-03  0.00000000000E+00 0. -1.
<mgrwt>
<rscale>  1 0.65172465E+03</rscale>
<asrwt>0</asrwt>
<pdfrwt beam="1">  1        1 0.38613355E+00 0.65172465E+03</pdfrwt>
<pdfrwt beam="2">0</pdfrwt>
<totfact> 0.15411982E+00</totfact>
</mgrwt>
</event>
<event>
 6    1  0.2339725E-003  0.6597483E+03  0.7818608E-02  0.9788657E-01
          1   -1    0    0  502    0  0.00000000000E+00  0.00000000000E+00  0.10900765544E+03  0.10900765544E+03  0.00000000000E+00 0.  1.
         13   -1    0    0    0    0 -0.00000000000E+00 -0.00000000000E+00 -0.10000000000E+04  0.10000000000E+04  0.00000000000E+00 0.  1.
    9000005    2    1    2  501    0  0.11718904216E+00 -0.26872021800E+00 -0.89104883220E+03  0.11087091011E+04  0.65974825776E+03 0.  0.
         13    1    3    3    0    0 -0.22985958612E+03 -0.13555351059E+02 -0.84235458471E+03  0.87325850883E+03  0.00000000000E+00 0.  1.
          3    1    3    3  501    0  0.22997677516E+03  0.13286630841E+02 -0.48694247490E+02  0.23545059229E+03  0.00000000000E+00 0.  1.
         21    1    1    2  502  501 -0.11718904216E+00  0.26872021800E+00  0.56487638379E-01  0.29855431743E+00  0.00000000000E+00 0.  1.
<mgrwt>
<rscale>  1 0.65974832E+03</rscale>
<asrwt>0</asrwt>
<pdfrwt beam="1">  1        1 0.39639231E+00 0.65974832E+03</pdfrwt>
<pdfrwt beam="2">0</pdfrwt>
<totfact> 0.13857497E+00</totfact>
</mgrwt>
</event>
<event>
 6    1  0.2339725E-003  0.6602249E+03  0.7818608E-02  0.9787780E-01
          1   -1    0    0  502    0  0.00000000000E+00  0.00000000000E+00  0.10897873851E+03  0.10897873851E+03  0.00000000000E+00 0.  1.
         13   -1    0    0    0    0 -0.00000000000E+00 -0.00000000000E+00 -0.10000000000E+04  0.10000000000E+04  0.00000000000E+00 0.  1.
    9000005    2    1    2  501    0 -0.42601443141E-02  0.11349319612E-02 -0.89102455157E+03  0.11089732375E+04  0.66022487827E+03 0.  0.
         13    1    3    3    0    0 -0.24512170912E+03  0.21911781510E+03 -0.49529290546E+03  0.59448492948E+03  0.00000000000E+00 0.  1.
          1    1    3    3  501    0  0.24511744898E+03 -0.21911668017E+03 -0.39573164611E+03  0.51448830799E+03  0.00000000000E+00 0.  1.
         21    1    1    2  502  501  0.42601443141E-02 -0.11349319612E-02  0.32900841937E-02  0.55010502757E-02  0.00000000000E+00 0. -1.
<mgrwt>
<rscale>  1 0.66022488E+03</rscale>
<asrwt>0</asrwt>
<pdfrwt beam="1">  1        1 0.39628716E+00 0.66022488E+03</pdfrwt>
<pdfrwt beam="2">0</pdfrwt>
<totfact> 0.13871203E+00</totfact>
</mgrwt>
</event>
<event>
 6    1  0.2339725E-003  0.6535430E+03  0.7818608E-02  0.9800154E-01
          1   -1    0    0  502    0  0.00000000000E+00  0.00000000000E+00  0.10684244633E+03  0.10684244633E+03  0.00000000000E+00 0.  1.
         13   -1    0    0    0    0 -0.00000000000E+00 -0.00000000000E+00 -0.10000000000E+04  0.10000000000E+04  0.00000000000E+00 0.  1.
    9000005    2    1    2  501    0 -0.14280767408E+00  0.12764435877E+00 -0.89292355545E+03  0.11065400521E+04  0.65354293989E+03 0.  0.
         13    1    3    3    0    0  0.11075390629E+03  0.70197067274E+02 -0.95319920889E+03  0.96217606905E+03  0.00000000000E+00 0.  1.
          1    1    3    3  501    0 -0.11089671397E+03 -0.70069422915E+02  0.60275653444E+02  0.14436398302E+03  0.00000000000E+00 0.  1.
         21    1    1    2  502  501  0.14280767408E+00 -0.12764435877E+00 -0.23399822449E+00  0.30239425121E+00  0.00000000000E+00 0.  1.
<mgrwt>
<rscale>  1 0.65354297E+03</rscale>
<asrwt>0</asrwt>
<pdfrwt beam="1">  1        1 0.38851881E+00 0.65354297E+03</pdfrwt>
<pdfrwt beam="2">0</pdfrwt>
<totfact> 0.15036582E+00</totfact>
</mgrwt>
</event>
<event>
 6    1  0.2339725E-003  0.6667950E+03  0.7818608E-02  0.9775765E-01
          1   -1    0    0  502    0  0.00000000000E+00  0.00000000000E+00  0.11118368613E+03  0.11118368613E+03  0.00000000000E+00 0.  1.
         13   -1    0    0    0    0 -0.00000000000E+00 -0.00000000000E+00 -0.10000000000E+04  0.10000000000E+04  0.00000000000E+00 0.  1.
    9000005    2    1    2  501    0  0.36974023680E-02  0.84731440826E-02 -0.88884532473E+03  0.11111532379E+04  0.66679495103E+03 0.  0.
         13    1    3    3    0    0  0.20236188173E+03 -0.21394265210E+03 -0.70488739476E+03  0.76392933499E+03  0.00000000000E+00 0.  1.
          1    1    3    3  501    0 -0.20235818432E+03  0.21395112524E+03 -0.18395792996E+03  0.34722390291E+03  0.00000000000E+00 0.  1.
         21    1    1    2  502  501 -0.36974023680E-02 -0.84731440826E-02  0.29010854101E-01  0.30448228366E-01  0.00000000000E+00 0. -1.
<mgrwt>
<rscale>  1 0.66679495E+03</rscale>
<asrwt>0</asrwt>
<pdfrwt beam="1">  1        1 0.40430517E+00 0.66679495E+03</pdfrwt>
<pdfrwt beam="2">0</pdfrwt>
<totfact> 0.12759061E+00</totfact>
</mgrwt>
</event>
<event>
 6    1  0.2339725E-003  0.6537666E+03  0.7818608E-02  0.9799737E-01
          1   -1    0    0  502    0  0.00000000000E+00  0.00000000000E+00  0.10686830078E+03  0.10686830078E+03  0.00000000000E+00 0.  1.
         13   -1    0    0    0    0 -0.00000000000E+00 -0.00000000000E+00 -0.10000000000E+04  0.10000000000E+04  0.00000000000E+00 0.  1.
    9000005    2    1    2  501    0  0.19762889022E-02  0.22319695586E-03 -0.89314723154E+03  0.11068526416E+04  0.65376661976E+03 0.  0.
         13    1    3    3    0    0 -0.54946209061E+01 -0.31749661904E+03 -0.31523109119E+03  0.44744266092E+03  0.00000000000E+00 0.  1.
          1    1    3    3  501    0  0.54965971950E+01  0.31749684223E+03 -0.57791614035E+03  0.65940998073E+03  0.00000000000E+00 0.  1.
         21    1    1    2  502  501 -0.19762889022E-02 -0.22319695583E-03  0.15532318602E-01  0.15659133305E-01  0.00000000000E+00 0. -1.
<mgrwt>
<rscale>  1 0.65376662E+03</rscale>
<asrwt>0</asrwt>
<pdfrwt beam="1">  1        1 0.38861282E+00 0.65376662E+03</pdfrwt>
<pdfrwt beam="2">0</pdfrwt>
<totfact> 0.15021542E+00</totfact>
</mgrwt>
</event>
<event>
 6    1  0.2339725E-003  0.6482869E+03  0.7818608E-02  0.9809999E-01
          1   -1    0    0  502    0  0.00000000000E+00  0.00000000000E+00  0.10603056168E+03  0.10603056168E+03  0.00000000000E+00 0.  1.
         13   -1    0    0    0    0 -0.00000000000E+00 -0.00000000000E+00 -0.10000000000E+04  0.10000000000E+04  0.00000000000E+00 0.  1.
    9000005    2    1    2  501    0  0.16500891528E+00  0.22406023358E+00 -0.89490873766E+03  0.11050509116E+04  0.64828681242E+03 0.  0.
         13    1    3    3    0    0 -0.23593634059E+02  0.23243456595E+03 -0.64370904134E+02  0.24233468657E+03  0.00000000000E+00 0.  1.
          1    1    3    3  501    0  0.23758642974E+02 -0.23221050572E+03 -0.83053783353E+03  0.86271622507E+03  0.00000000000E+00 0.  1.
         21    1    1    2  502  501 -0.16500891528E+00 -0.22406023358E+00  0.93929934492E+00  0.97965003433E+00  0.00000000000E+00 0.  1.
<mgrwt>
<rscale>  1 0.64828687E+03</rscale>
<asrwt>0</asrwt>
<pdfrwt beam="1">  1        1 0.38556649E+00 0.64828687E+03</pdfrwt>
<pdfrwt beam="2">0</pdfrwt>
<totfact> 0.15511150E+00</totfact>
</mgrwt>
</event>
<event>
 6    1  0.2339725E-003  0.6133138E+03  0.7818608E-02  0.9878163E-01
          1   -1    0    0  502    0  0.00000000000E+00  0.00000000000E+00  0.94038880370E+02  0.94038880370E+02  0.00000000000E+00 0.  1.
         13   -1    0    0    0    0 -0.00000000000E+00 -0.00000000000E+00 -0.10000000000E+04  0.10000000000E+04  0.00000000000E+00 0.  1.
    9000005    2    1    2  501    0 -0.49294255751E-03 -0.44846010948E-03 -0.90596126541E+03  0.10940381982E+04  0.61331375714E+03 0.  0.
         13    1    3    3    0    0  0.29493035833E+03  0.44878704789E+02 -0.32633865904E+03  0.44214809148E+03  0.00000000000E+00 0.  1.
          3    1    3    3  501    0 -0.29493085128E+03 -0.44879153249E+02 -0.57962260637E+03  0.65189010672E+03  0.00000000000E+00 0.  1.
         21    1    1    2  502  501  0.49294255752E-03  0.44846010948E-03  0.14577706719E-03  0.68217284330E-03  0.00000000000E+00 0. -1.
<mgrwt>
<rscale>  1 0.61331376E+03</rscale>
<asrwt>0</asrwt>
<pdfrwt beam="1">  1        1 0.34196029E+00 0.61331376E+03</pdfrwt>
<pdfrwt beam="2">0</pdfrwt>
<totfact> 0.24236199E+00</totfact>
</mgrwt>
</event>
<event>
 6    1  0.2339725E-003  0.6558471E+03  0.7818608E-02  0.9795869E-01
          1   -1    0    0  502    0  0.00000000000E+00  0.00000000000E+00  0.10761706992E+03  0.10761706992E+03  0.00000000000E+00 0.  1.
         13   -1    0    0    0    0 -0.00000000000E+00 -0.00000000000E+00 -0.10000000000E+04  0.10000000000E+04  0.00000000000E+00 0.  1.
    9000005    2    1    2  501    0 -0.33935035142E-02 -0.66526825414E-02 -0.89246596345E+03  0.11075337014E+04  0.65584708867E+03 0.  0.
         13    1    3    3    0    0  0.29630948369E+03 -0.13896203449E+03 -0.48100594394E+03  0.58178731101E+03  0.00000000000E+00 0.  1.
          3    1    3    3  501    0 -0.29631287719E+03  0.13895538181E+03 -0.41146001951E+03  0.52574639036E+03  0.00000000000E+00 0.  1.
         21    1    1    2  502  501  0.33935035142E-02  0.66526825414E-02  0.83033361246E-01  0.83368538016E-01  0.00000000000E+00 0.  1.
<mgrwt>
<rscale>  1 0.65584709E+03</rscale>
<asrwt>0</asrwt>
<pdfrwt beam="1">  1        1 0.39133562E+00 0.65584709E+03</pdfrwt>
<pdfrwt beam="2">0</pdfrwt>
<totfact> 0.14604009E+00</totfact>
</mgrwt>
</event>
<event>
 6    1  0.2339725E-003  0.6532283E+03  0.7818608E-02  0.9800740E-01
          1   -1    0    0  502    0  0.00000000000E+00  0.00000000000E+00  0.10667730448E+03  0.10667730448E+03  0.00000000000E+00 0.  1.
         13   -1    0    0    0    0 -0.00000000000E+00 -0.00000000000E+00 -0.10000000000E+04  0.10000000000E+04  0.00000000000E+00 0.  1.
    9000005    2    1    2  501    0 -0.15835143714E-03 -0.11532481193E-03 -0.89332318957E+03  0.11066767730E+04  0.65322825942E+03 0.  0.
         13    1    3    3    0    0  0.22052503498E+03 -0.16203377774E+03 -0.14459352984E+03  0.30950529083E+03  0.00000000000E+00 0.  1.
          3    1    3    3  501    0 -0.22052519333E+03  0.16203366241E+03 -0.74872965973E+03  0.79717148218E+03  0.00000000000E+00 0.  1.
         21    1    1    2  502  501  0.15835143715E-03  0.11532481195E-03  0.49405046890E-03  0.53147046552E-03  0.00000000000E+00 0.  1.
<mgrwt>
<rscale>  1 0.65322826E+03</rscale>
<asrwt>0</asrwt>
<pdfrwt beam="1">  1        1 0.38791829E+00 0.65322826E+03</pdfrwt>
<pdfrwt beam="2">0</pdfrwt>
<totfact> 0.15129867E+00</totfact>
</mgrwt>
</event>
<event>
 6    1  0.2339725E-003  0.6715834E+03  0.7818608E-02  0.9767102E-01
          1   -1    0    0  502    0  0.00000000000E+00  0.00000000000E+00  0.11275973143E+03  0.11275973143E+03  0.00000000000E+00 0.  1.
         13   -1    0    0    0    0 -0.00000000000E+00 -0.00000000000E+00 -0.10000000000E+04  0.10000000000E+04  0.00000000000E+00 0.  1.
    9000005    2    1    2  501    0 -0.51771268733E-02  0.37986906677E-02 -0.88724049648E+03  0.11127533061E+04  0.67158336909E+03 0.  0.
         13    1    3    3    0    0  0.38076621072E+02 -0.28932302621E+03 -0.16836548807E+03  0.33690440802E+03  0.00000000000E+00 0.  1.
          1    1    3    3  501    0 -0.38081798199E+02  0.28932682490E+03 -0.71887500842E+03  0.77584889810E+03  0.00000000000E+00 0.  1.
         21    1    1    2  502  501  0.51771268733E-02 -0.37986906677E-02  0.22791911525E-03  0.64253124884E-02  0.00000000000E+00 0.  1.
<mgrwt>
<rscale>  1 0.67158337E+03</rscale>
<asrwt>0</asrwt>
<pdfrwt beam="1">  1        1 0.41003625E+00 0.67158337E+03</pdfrwt>
<pdfrwt beam="2">0</pdfrwt>
<totfact> 0.12016065E+00</totfact>
</mgrwt>
</event>
<event>
 6    1  0.3623852E-003  0.6354787E+03  0.7818608E-02  0.9834416E-01
          1   -1    0    0  502    0  0.00000000000E+00  0.00000000000E+00  0.10095828498E+03  0.10095828498E+03  0.00000000000E+00 0.  1.
         13   -1    0    0    0    0 -0.00000000000E+00 -0.00000000000E+00 -0.10000000000E+04  0.10000000000E+04  0.00000000000E+00 0.  1.
    9000005    2    1    2  501    0  0.28691033265E-05  0.18358302754E-05 -0.89904171567E+03  0.11009582815E+04  0.63547866299E+03 0.  0.
         13    1    3    3    0    0 -0.99289817029E+02 -0.23274048344E+02 -0.97087595016E+03  0.97621732196E+03  0.00000000000E+00 0.  1.
          3    1    3    3  501    0  0.99289819898E+02  0.23274050180E+02  0.71834234485E+02  0.12474095956E+03  0.00000000000E+00 0.  1.
         21    1    1    2  502  501 -0.28691033192E-05 -0.18358302753E-05  0.65393967371E-06  0.34683805663E-05  0.00000000000E+00 0. -1.
<mgrwt>
<rscale>  1 0.63547866E+03</rscale>
<asrwt>0</asrwt>
<pdfrwt beam="1">  1        1 0.36712181E+00 0.63547866E+03</pdfrwt>
<pdfrwt beam="2">0</pdfrwt>
<totfact> 0.18745915E+00</totfact>
</mgrwt>
</event>
<event>
 6    1  0.2339725E-003  0.6476037E+03  0.7818608E-02  0.9811286E-01
          1   -1    0    0  502    0  0.00000000000E+00  0.00000000000E+00  0.10485582897E+03  0.10485582897E+03  0.00000000000E+00 0.  1.
         13   -1    0    0    0    0 -0.00000000000E+00 -0.00000000000E+00 -0.10000000000E+04  0.10000000000E+04  0.00000000000E+00 0.  1.
    9000005    2    1    2  501    0 -0.13482673341E-02 -0.17889328061E-02 -0.89515220805E+03  0.11048474856E+04  0.64760365259E+03 0.  0.
         13    1    3    3    0    0 -0.24556002826E+03 -0.39782115158E+02 -0.80121086280E+03  0.83894051686E+03  0.00000000000E+00 0.  1.
          1    1    3    3  501    0  0.24555867999E+03  0.39780326226E+02 -0.93941345252E+02  0.26590696874E+03  0.00000000000E+00 0.  1.
         21    1    1    2  502  501  0.13482673341E-02  0.17889328060E-02  0.80370167543E-02  0.83433652502E-02  0.00000000000E+00 0.  1.
<mgrwt>
<rscale>  1 0.64760365E+03</rscale>
<asrwt>0</asrwt>
<pdfrwt beam="1">  1        1 0.38129473E+00 0.64760365E+03</pdfrwt>
<pdfrwt beam="2">0</pdfrwt>
<totfact> 0.16202351E+00</totfact>
</mgrwt>
</event>
<event>
 6    1  0.2339725E-003  0.6705988E+03  0.7818608E-02  0.9768877E-01
          1   -1    0    0  502    0  0.00000000000E+00  0.00000000000E+00  0.11242571128E+03  0.11242571128E+03  0.00000000000E+00 0.  1.
         13   -1    0    0    0    0 -0.00000000000E+00 -0.00000000000E+00 -0.10000000000E+04  0.10000000000E+04  0.00000000000E+00 0.  1.
    9000005    2    1    2  501    0  0.16778952705E-04  0.45634369599E-05 -0.88757430178E+03  0.11124256895E+04  0.67059881714E+03 0.  0.
         13    1    3    3    0    0 -0.36314540172E+01  0.28149500356E+03 -0.74592216866E+03  0.79727818619E+03  0.00000000000E+00 0.  1.
          3    1    3    3  501    0  0.36314707962E+01 -0.28149499900E+03 -0.14165213312E+03  0.31514750334E+03  0.00000000000E+00 0.  1.
         21    1    1    2  502  501 -0.16778952705E-04 -0.45634369321E-05  0.13060539446E-04  0.21747089486E-04  0.00000000000E+00 0. -1.
<mgrwt>
<rscale>  1 0.67059882E+03</rscale>
<asrwt>0</asrwt>
<pdfrwt beam="1">  1        1 0.40882163E+00 0.67059882E+03</pdfrwt>
<pdfrwt beam="2">0</pdfrwt>
<totfact> 0.12169975E+00</totfact>
</mgrwt>
</event>
<event>
 6    1  0.2339725E-003  0.6490043E+03  0.7818608E-02  0.9808649E-01
          1   -1    0    0  502    0  0.00000000000E+00  0.00000000000E+00  0.10530263278E+03  0.10530263278E+03  0.00000000000E+00 0.  1.
         13   -1    0    0    0    0 -0.00000000000E+00 -0.00000000000E+00 -0.10000000000E+04  0.10000000000E+04  0.00000000000E+00 0.  1.
    9000005    2    1    2  501    0 -0.15177612972E-02  0.12431553057E-02 -0.89469714271E+03  0.11053006581E+04  0.64900428933E+03 0.  0.
         13    1    3    3    0    0  0.26336338569E+03  0.18895687614E+03 -0.42115726915E+03  0.53144935725E+03  0.00000000000E+00 0.  1.
          1    1    3    3  501    0 -0.26336490345E+03 -0.18895563299E+03 -0.47353987356E+03  0.57385130083E+03  0.00000000000E+00 0.  1.
         21    1    1    2  502  501  0.15177612972E-02 -0.12431553057E-02 -0.22450656763E-03  0.19746993868E-02  0.00000000000E+00 0.  1.
<mgrwt>
<rscale>  1 0.64900429E+03</rscale>
<asrwt>0</asrwt>
<pdfrwt beam="1">  1        1 0.38291947E+00 0.64900429E+03</pdfrwt>
<pdfrwt beam="2">0</pdfrwt>
<totfact> 0.15932716E+00</totfact>
</mgrwt>
</event>
<event>
 6    1  0.2339725E-003  0.6444626E+03  0.7818608E-02  0.9817226E-01
          1   -1    0    0  502    0  0.00000000000E+00  0.00000000000E+00  0.10740887263E+03  0.10740887263E+03  0.00000000000E+00 0.  1.
         13   -1    0    0    0    0 -0.00000000000E+00 -0.00000000000E+00 -0.10000000000E+04  0.10000000000E+04  0.00000000000E+00 0.  1.
    9000005    2    1    2  501    0 -0.62375386900E-01  0.47340341866E-01 -0.89616651862E+03  0.11038326240E+04  0.64446258738E+03 0.  0.
         13    1    3    3    0    0  0.87634413657E+02 -0.26167776477E+03 -0.16318408384E+03  0.32059957619E+03  0.00000000000E+00 0.  1.
          1    1    3    3  501    0 -0.87696789044E+02  0.26172510511E+03 -0.73298243478E+03  0.78323304779E+03  0.00000000000E+00 0.  1.
         21    1    1    2  502  501  0.62375386900E-01 -0.47340341866E-01  0.35753912498E+01  0.35762486472E+01  0.00000000000E+00 0. -1.
<mgrwt>
<rscale>  1 0.64446259E+03</rscale>
<asrwt>0</asrwt>
<pdfrwt beam="1">  1        1 0.39057854E+00 0.64446259E+03</pdfrwt>
<pdfrwt beam="2">0</pdfrwt>
<totfact> 0.14748738E+00</totfact>
</mgrwt>
</event>
<event>
 6    1  0.2339725E-003  0.6483070E+03  0.7818608E-02  0.9809961E-01
          1   -1    0    0  502    0  0.00000000000E+00  0.00000000000E+00  0.10507796672E+03  0.10507796672E+03  0.00000000000E+00 0.  1.
         13   -1    0    0    0    0 -0.00000000000E+00 -0.00000000000E+00 -0.10000000000E+04  0.10000000000E+04  0.00000000000E+00 0.  1.
    9000005    2    1    2  501    0  0.81406070422E-04  0.83499917025E-04 -0.89492449456E+03  0.11050755027E+04  0.64830703809E+03 0.  0.
         13    1    3    3    0    0  0.80957647766E+02 -0.21251801709E+03 -0.53722959124E+02  0.23367542587E+03  0.00000000000E+00 0.  1.
          1    1    3    3  501    0 -0.80957566360E+02  0.21251810059E+03 -0.84120153544E+03  0.87140007680E+03  0.00000000000E+00 0.  1.
         21    1    1    2  502  501 -0.81406070418E-04 -0.83499917043E-04  0.24612791401E-02  0.24640402168E-02  0.00000000000E+00 0. -1.
<mgrwt>
<rscale>  1 0.64830704E+03</rscale>
<asrwt>0</asrwt>
<pdfrwt beam="1">  1        1 0.38210250E+00 0.64830704E+03</pdfrwt>
<pdfrwt beam="2">0</pdfrwt>
<totfact> 0.16067737E+00</totfact>
</mgrwt>
</event>
<event>
 6    1  0.2339725E-003  0.6532403E+03  0.7818608E-02  0.9800718E-01
          1   -1    0    0  502    0  0.00000000000E+00  0.00000000000E+00  0.10714623188E+03  0.10714623188E+03  0.00000000000E+00 0.  1.
         13   -1    0    0    0    0 -0.00000000000E+00 -0.00000000000E+00 -0.10000000000E+04  0.10000000000E+04  0.00000000000E+00 0.  1.
    9000005    2    1    2  501    0 -0.67408852538E+00  0.25084005666E-01 -0.89303170439E+03  0.11064486031E+04  0.65323994926E+03 0.  0.
         13    1    3    3    0    0 -0.20830710243E+03 -0.11840115204E+03 -0.70312666653E+02  0.24970893620E+03  0.00000000000E+00 0.  1.
          1    1    3    3  501    0  0.20763301390E+03  0.11842623604E+03 -0.82271903774E+03  0.85673966694E+03  0.00000000000E+00 0.  1.
         21    1    1    2  502  501  0.67408852538E+00 -0.25084005666E-01  0.17793627892E+00  0.69762874564E+00  0.00000000000E+00 0.  1.
<mgrwt>
<rscale>  1 0.65324030E+03</rscale>
<asrwt>0</asrwt>
<pdfrwt beam="1">  1        1 0.38962348E+00 0.65324030E+03</pdfrwt>
<pdfrwt beam="2">0</pdfrwt>
<totfact> 0.14868837E+00</totfact>
</mgrwt>
</event>
<event>
 6    1  0.2339725E-003  0.6437674E+03  0.7818608E-02  0.9818545E-01
          1   -1    0    0  502    0  0.00000000000E+00  0.00000000000E+00  0.10409972305E+03  0.10409972305E+03  0.00000000000E+00 0.  1.
         13   -1    0    0    0    0 -0.00000000000E+00 -0.00000000000E+00 -0.10000000000E+04  0.10000000000E+04  0.00000000000E+00 0.  1.
    9000005    2    1    2  501    0 -0.37721944583E+00  0.12380007065E-01 -0.89630949169E+03  0.11035430324E+04  0.64376733143E+03 0.  0.
         13    1    3    3    0    0 -0.17620803677E+03  0.42036282067E+01 -0.91020534615E+03  0.92711418653E+03  0.00000000000E+00 0.  1.
          3    1    3    3  501    0  0.17583081733E+03 -0.41912481996E+01  0.13895854453E+02  0.17642884587E+03  0.00000000000E+00 0.  1.
         21    1    1    2  502  501  0.37721944583E+00 -0.12380007065E-01  0.40921473946E+00  0.55669064828E+00  0.00000000000E+00 0. -1.
<mgrwt>
<rscale>  1 0.64376744E+03</rscale>
<asrwt>0</asrwt>
<pdfrwt beam="1">  1        1 0.37854525E+00 0.64376744E+03</pdfrwt>
<pdfrwt beam="2">0</pdfrwt>
<totfact> 0.16673052E+00</totfact>
</mgrwt>
</event>
<event>
 6    1  0.2339725E-003  0.6617987E+03  0.7818608E-02  0.9784888E-01
          1   -1    0    0  502    0  0.00000000000E+00  0.00000000000E+00  0.10985485749E+03  0.10985485749E+03  0.00000000000E+00 0.  1.
         13   -1    0    0    0    0 -0.00000000000E+00 -0.00000000000E+00 -0.10000000000E+04  0.10000000000E+04  0.00000000000E+00 0.  1.
    9000005    2    1    2  501    0 -0.12411090104E+00 -0.15780932736E+00 -0.89047434667E+03  0.11094692636E+04  0.66179864341E+03 0.  0.
         13    1    3    3    0    0 -0.26896768190E+03 -0.99447207134E+02 -0.72238221751E+03  0.77721903547E+03  0.00000000000E+00 0.  1.
          1    1    3    3  501    0  0.26884357100E+03  0.99289397807E+02 -0.16809212915E+03  0.33225022810E+03  0.00000000000E+00 0.  1.
         21    1    1    2  502  501  0.12411090104E+00  0.15780932736E+00  0.32920416089E+00  0.38559393033E+00  0.00000000000E+00 0. -1.
<mgrwt>
<rscale>  1 0.66179867E+03</rscale>
<asrwt>0</asrwt>
<pdfrwt beam="1">  1        1 0.39947305E+00 0.66179867E+03</pdfrwt>
<pdfrwt beam="2">0</pdfrwt>
<totfact> 0.13421367E+00</totfact>
</mgrwt>
</event>
<event>
 6    1  0.2339725E-003  0.6595370E+03  0.7818608E-02  0.9789046E-01
          1   -1    0    0  502    0  0.00000000000E+00  0.00000000000E+00  0.10874775048E+03  0.10874775048E+03  0.00000000000E+00 0.  1.
         13   -1    0    0    0    0 -0.00000000000E+00 -0.00000000000E+00 -0.10000000000E+04  0.10000000000E+04  0.00000000000E+00 0.  1.
    9000005    2    1    2  501    0  0.10744088252E-03 -0.73329095571E-04 -0.89125272855E+03  0.11087472541E+04  0.65953699467E+03 0.  0.
         13    1    3    3    0    0  0.27834870639E+03  0.11418315039E+03 -0.21863758774E+03  0.37191153378E+03  0.00000000000E+00 0.  1.
          1    1    3    3  501    0 -0.27834859895E+03 -0.11418322372E+03 -0.67261514080E+03  0.73683572033E+03  0.00000000000E+00 0.  1.
         21    1    1    2  502  501 -0.10744088250E-03  0.73329095562E-04  0.47902280620E-03  0.49637037416E-03  0.00000000000E+00 0.  1.
<mgrwt>
<rscale>  1 0.65953699E+03</rscale>
<asrwt>0</asrwt>
<pdfrwt beam="1">  1        1 0.39544720E+00 0.65953699E+03</pdfrwt>
<pdfrwt beam="2">0</pdfrwt>
<totfact> 0.13992869E+00</totfact>
</mgrwt>
</event>
<event>
 6    1  0.2339725E-003  0.6488801E+03  0.7818608E-02  0.9808883E-01
          1   -1    0    0  502    0  0.00000000000E+00  0.00000000000E+00  0.10526404348E+03  0.10526404348E+03  0.00000000000E+00 0.  1.
         13   -1    0    0    0    0 -0.00000000000E+00 -0.00000000000E+00 -0.10000000000E+04  0.10000000000E+04  0.00000000000E+00 0.  1.
    9000005    2    1    2  501    0 -0.88618047869E-05 -0.11729885097E-03 -0.89473866530E+03  0.11052613321E+04  0.64888006069E+03 0.  0.
         13    1    3    3    0    0  0.18257686259E+03  0.26153655923E+03 -0.34623036981E+03  0.47075593628E+03  0.00000000000E+00 0.  1.
          1    1    3    3  501    0 -0.18257687145E+03 -0.26153667653E+03 -0.54850829549E+03  0.63450539586E+03  0.00000000000E+00 0.  1.
         21    1    1    2  502  501  0.88618047951E-05  0.11729885098E-03  0.27087746457E-02  0.27113276514E-02  0.00000000000E+00 0. -1.
<mgrwt>
<rscale>  1 0.64888006E+03</rscale>
<asrwt>0</asrwt>
<pdfrwt beam="1">  1        1 0.38277915E+00 0.64888006E+03</pdfrwt>
<pdfrwt beam="2">0</pdfrwt>
<totfact> 0.15955844E+00</totfact>
</mgrwt>
</event>
<event>
 6    1  0.2339725E-003  0.6475463E+03  0.7818608E-02  0.9811394E-01
          1   -1    0    0  502    0  0.00000000000E+00  0.00000000000E+00  0.10696848039E+03  0.10696848039E+03  0.00000000000E+00 0.  1.
         13   -1    0    0    0    0 -0.00000000000E+00 -0.00000000000E+00 -0.10000000000E+04  0.10000000000E+04  0.00000000000E+00 0.  1.
    9000005    2    1    2  501    0 -0.66281499220E+00 -0.43140736150E+00 -0.89508989736E+03  0.11047634056E+04  0.64754585357E+03 0.  0.
         13    1    3    3    0    0  0.12011537000E+02 -0.24311803898E+03 -0.81236899048E+03  0.84805308477E+03  0.00000000000E+00 0.  1.
          3    1    3    3  501    0 -0.12674351993E+02  0.24268663162E+03 -0.82720906885E+02  0.25671032079E+03  0.00000000000E+00 0.  1.
         21    1    1    2  502  501  0.66281499220E+00  0.43140736150E+00  0.20583777548E+01  0.22050748302E+01  0.00000000000E+00 0. -1.
<mgrwt>
<rscale>  1 0.64754634E+03</rscale>
<asrwt>0</asrwt>
<pdfrwt beam="1">  1        1 0.38897711E+00 0.64754634E+03</pdfrwt>
<pdfrwt beam="2">0</pdfrwt>
<totfact> 0.14983133E+00</totfact>
</mgrwt>
</event>
<event>
 6    1  0.2339725E-003  0.6610827E+03  0.7818608E-02  0.9786203E-01
          1   -1    0    0  502    0  0.00000000000E+00  0.00000000000E+00  0.10933747991E+03  0.10933747991E+03  0.00000000000E+00 0.  1.
         13   -1    0    0    0    0 -0.00000000000E+00 -0.00000000000E+00 -0.10000000000E+04  0.10000000000E+04  0.00000000000E+00 0.  1.
    9000005    2    1    2  501    0  0.15533615995E+00  0.54034019751E-01 -0.89063404871E+03  0.11091705679E+04  0.66108268238E+03 0.  0.
         13    1    3    3    0    0 -0.18652474468E+03 -0.26489404845E+03 -0.33579817760E+03  0.46660556508E+03  0.00000000000E+00 0.  1.
          3    1    3    3  501    0  0.18668008084E+03  0.26494808247E+03 -0.55483587111E+03  0.64256500283E+03  0.00000000000E+00 0.  1.
         21    1    1    2  502  501 -0.15533615995E+00 -0.54034019751E-01 -0.28471377696E-01  0.16691200444E+00  0.00000000000E+00 0.  1.
<mgrwt>
<rscale>  1 0.66108270E+03</rscale>
<asrwt>0</asrwt>
<pdfrwt beam="1">  1        1 0.39759167E+00 0.66108270E+03</pdfrwt>
<pdfrwt beam="2">0</pdfrwt>
<totfact> 0.13684768E+00</totfact>
</mgrwt>
</event>
<event>
 6    1  0.2339725E-003  0.6419704E+03  0.7818608E-02  0.9821964E-01
          1   -1    0    0  502    0  0.00000000000E+00  0.00000000000E+00  0.10656644591E+03  0.10656644591E+03  0.00000000000E+00 0.  1.
         13   -1    0    0    0    0 -0.00000000000E+00 -0.00000000000E+00 -0.10000000000E+04  0.10000000000E+04  0.00000000000E+00 0.  1.
    9000005    2    1    2  501    0 -0.59586017306E+00  0.11238351057E+01 -0.89684184268E+03  0.11029285226E+04  0.64196917154E+03 0.  0.
         13    1    3    3    0    0  0.18439335252E+03  0.81614720249E+02 -0.19383966067E+02  0.20257741521E+03  0.00000000000E+00 0.  1.
          1    1    3    3  501    0 -0.18498921269E+03 -0.80490885143E+02 -0.87745787661E+03  0.90035110742E+03  0.00000000000E+00 0.  1.
         21    1    1    2  502  501  0.59586017306E+00 -0.11238351057E+01  0.34082885892E+01  0.36379232809E+01  0.00000000000E+00 0. -1.
<mgrwt>
<rscale>  1 0.64197043E+03</rscale>
<asrwt>0</asrwt>
<pdfrwt beam="1">  1        1 0.38751517E+00 0.64197043E+03</pdfrwt>
<pdfrwt beam="2">0</pdfrwt>
<totfact> 0.15224098E+00</totfact>
</mgrwt>
</event>
<event>
 6    1  0.2339725E-003  0.6406128E+03  0.7818608E-02  0.9824555E-01
          1   -1    0    0  502    0  0.00000000000E+00  0.00000000000E+00  0.10260468869E+03  0.10260468869E+03  0.00000000000E+00 0.  1.
         13   -1    0    0    0    0 -0.00000000000E+00 -0.00000000000E+00 -0.10000000000E+04  0.10000000000E+04  0.00000000000E+00 0.  1.
    9000005    2    1    2  501    0  0.13713258768E-02  0.25309917817E-03 -0.89740374699E+03  0.11025961385E+04  0.64061280005E+03 0.  0.
         13    1    3    3    0    0 -0.13610199130E+03  0.45121756146E+02 -0.94167531512E+03  0.95252932974E+03  0.00000000000E+00 0.  1.
          3    1    3    3  501    0  0.13610336263E+03 -0.45121503047E+02  0.44271568126E+02  0.15006680879E+03  0.00000000000E+00 0.  1.
         21    1    1    2  502  501 -0.13713258768E-02 -0.25309917817E-03  0.84356814322E-02  0.85501646230E-02  0.00000000000E+00 0.  1.
<mgrwt>
<rscale>  1 0.64061280E+03</rscale>
<asrwt>0</asrwt>
<pdfrwt beam="1">  1        1 0.37310875E+00 0.64061280E+03</pdfrwt>
<pdfrwt beam="2">0</pdfrwt>
<totfact> 0.17628090E+00</totfact>
</mgrwt>
</event>
<event>
 6    1  0.2339725E-003  0.6120055E+03  0.7818608E-02  0.9880807E-01
          1   -1    0    0  502    0  0.00000000000E+00  0.00000000000E+00  0.93908929763E+02  0.93908929763E+02  0.00000000000E+00 0.  1.
         13   -1    0    0    0    0 -0.00000000000E+00 -0.00000000000E+00 -0.10000000000E+04  0.10000000000E+04  0.00000000000E+00 0.  1.
    9000005    2    1    2  501    0 -0.46136792849E+00  0.42578953109E-02 -0.90613081834E+03  0.10934458332E+04  0.61200532463E+03 0.  0.
         13    1    3    3    0    0  0.75290778975E+02  0.87714798003E+01  0.76597760537E+02  0.10776296755E+03  0.00000000000E+00 0.  1.
          1    1    3    3  501    0 -0.75752146903E+02 -0.87672219050E+01 -0.98272857887E+03  0.98568286567E+03  0.00000000000E+00 0.  1.
         21    1    1    2  502  501  0.46136792849E+00 -0.42578953109E-02  0.39748099137E-01  0.46309654122E+00  0.00000000000E+00 0. -1.
<mgrwt>
<rscale>  1 0.61200550E+03</rscale>
<asrwt>0</asrwt>
<pdfrwt beam="1">  1        1 0.34148774E+00 0.61200550E+03</pdfrwt>
<pdfrwt beam="2">0</pdfrwt>
<totfact> 0.24356722E+00</totfact>
</mgrwt>
</event>
<event>
 6    1  0.2339725E-003  0.6497391E+03  0.7818608E-02  0.9807269E-01
          1   -1    0    0  502    0  0.00000000000E+00  0.00000000000E+00  0.10554407737E+03  0.10554407737E+03  0.00000000000E+00 0.  1.
         13   -1    0    0    0    0 -0.00000000000E+00 -0.00000000000E+00 -0.10000000000E+04  0.10000000000E+04  0.00000000000E+00 0.  1.
    9000005    2    1    2  501    0  0.11622239672E-01  0.13221618100E-02 -0.89444277705E+03  0.11055264810E+04  0.64973911590E+03 0.  0.
         13    1    3    3    0    0 -0.14756714661E+03 -0.56385785028E+02  0.35787716057E+02  0.16197586281E+03  0.00000000000E+00 0.  1.
          3    1    3    3  501    0  0.14757876885E+03  0.56387107190E+02 -0.93023049311E+03  0.94355061824E+03  0.00000000000E+00 0.  1.
         21    1    1    2  502  501 -0.11622239672E-01 -0.13221618100E-02 -0.13145575414E-01  0.17596326884E-01  0.00000000000E+00 0. -1.
<mgrwt>
<rscale>  1 0.64973912E+03</rscale>
<asrwt>0</asrwt>
<pdfrwt beam="1">  1        1 0.38379745E+00 0.64973912E+03</pdfrwt>
<pdfrwt beam="2">0</pdfrwt>
<totfact> 0.15788856E+00</totfact>
</mgrwt>
</event>
<event>
 6    1  0.2339725E-003  0.6063313E+03  0.7818608E-02  0.9892357E-01
          1   -1    0    0  502    0  0.00000000000E+00  0.00000000000E+00  0.95064916694E+02  0.95064916694E+02  0.00000000000E+00 0.  1.
         13   -1    0    0    0    0 -0.00000000000E+00 -0.00000000000E+00 -0.10000000000E+04  0.10000000000E+04  0.00000000000E+00 0.  1.
    9000005    2    1    2  501    0 -0.93279176631E+01  0.88845176533E+00 -0.89743008954E+03  0.10830597376E+04  0.60625888046E+03 0.  0.
         13    1    3    3    0    0 -0.26342864331E+03 -0.94186586519E+01 -0.17302168252E+03  0.31530915602E+03  0.00000000000E+00 0.  1.
          3    1    3    3  501    0  0.25410072565E+03  0.10307110417E+02 -0.72440840702E+03  0.76775058155E+03  0.00000000000E+00 0.  1.
         21    1    1    2  502  501  0.93279176631E+01 -0.88845176533E+00 -0.75049937674E+01  0.12005179129E+02  0.00000000000E+00 0. -1.
<mgrwt>
<rscale>  1 0.60633129E+03</rscale>
<asrwt>0</asrwt>
<pdfrwt beam="1">  1        1 0.34569134E+00 0.60633129E+03</pdfrwt>
<pdfrwt beam="2">0</pdfrwt>
<totfact> 0.23376876E+00</totfact>
</mgrwt>
</event>
<event>
 6    1  0.2339725E-003  0.6379456E+03  0.7818608E-02  0.9829665E-01
          1   -1    0    0  502    0  0.00000000000E+00  0.00000000000E+00  0.10174407157E+03  0.10174407157E+03  0.00000000000E+00 0.  1.
         13   -1    0    0    0    0 -0.00000000000E+00 -0.00000000000E+00 -0.10000000000E+04  0.10000000000E+04  0.00000000000E+00 0.  1.
    9000005    2    1    2  501    0  0.14489152068E-03 -0.20918103775E-03 -0.89825629322E+03  0.11017436268E+04  0.63794564886E+03 0.  0.
         13    1    3    3    0    0 -0.70913197072E+02 -0.28247025545E+03 -0.67381047566E+03  0.73405632199E+03  0.00000000000E+00 0.  1.
          1    1    3    3  501    0  0.70913341963E+02  0.28247004627E+03 -0.22444581755E+03  0.36768730482E+03  0.00000000000E+00 0.  1.
         21    1    1    2  502  501 -0.14489152068E-03  0.20918103777E-03  0.36478616673E-03  0.44476871154E-03  0.00000000000E+00 0. -1.
<mgrwt>
<rscale>  1 0.63794565E+03</rscale>
<asrwt>0</asrwt>
<pdfrwt beam="1">  1        1 0.36997922E+00 0.63794565E+03</pdfrwt>
<pdfrwt beam="2">0</pdfrwt>
<totfact> 0.18204151E+00</totfact>
</mgrwt>
</event>
<event>
 6    1  0.2339725E-003  0.5437361E+03  0.7818608E-02  0.1002954E+00
          1   -1    0    0  502    0  0.00000000000E+00  0.00000000000E+00  0.74086782184E+02  0.74086782184E+02  0.00000000000E+00 0.  1.
         13   -1    0    0    0    0 -0.00000000000E+00 -0.00000000000E+00 -0.10000000000E+04  0.10000000000E+04  0.00000000000E+00 0.  1.
    9000005    2    1    2  501    0 -0.16608242665E-01  0.19344626649E-01 -0.92608675457E+03  0.10739113825E+04  0.54373613066E+03 0.  0.
         13    1    3    3    0    0 -0.14653553188E+03  0.15818369659E+03 -0.79012831101E+03  0.81902227799E+03  0.00000000000E+00 0.  1.
          1    1    3    3  501    0  0.14651892364E+03 -0.15816435196E+03 -0.13595844356E+03  0.25488910450E+03  0.00000000000E+00 0.  1.
         21    1    1    2  502  501  0.16608242665E-01 -0.19344626649E-01  0.17353675783E+00  0.17539969961E+00  0.00000000000E+00 0.  1.
<mgrwt>
<rscale>  1 0.54373613E+03</rscale>
<asrwt>0</asrwt>
<pdfrwt beam="1">  1        1 0.26940705E+00 0.54373613E+03</pdfrwt>
<pdfrwt beam="2">0</pdfrwt>
<totfact> 0.50505178E+00</totfact>
</mgrwt>
</event>
<event>
 6    1  0.2339725E-003  0.6202861E+03  0.7818608E-02  0.9864190E-01
          1   -1    0    0  502    0  0.00000000000E+00  0.00000000000E+00  0.96188731428E+02  0.96188731428E+02  0.00000000000E+00 0.  1.
         13   -1    0    0    0    0 -0.00000000000E+00 -0.00000000000E+00 -0.10000000000E+04  0.10000000000E+04  0.00000000000E+00 0.  1.
    9000005    2    1    2  501    0 -0.70072127301E-05  0.26902662285E-05 -0.90381128117E+03  0.10961887168E+04  0.62028612010E+03 0.  0.
         13    1    3    3    0    0 -0.25180999345E+03  0.12308998947E+03 -0.21726090898E+03  0.35462899046E+03  0.00000000000E+00 0.  1.
          1    1    3    3  501    0  0.25180998644E+03 -0.12308998677E+03 -0.68655037219E+03  0.74155972630E+03  0.00000000000E+00 0.  1.
         21    1    1    2  502  501  0.70072127452E-05 -0.26902662261E-05  0.12598728607E-04  0.14665146619E-04  0.00000000000E+00 0.  1.
<mgrwt>
<rscale>  1 0.62028612E+03</rscale>
<asrwt>0</asrwt>
<pdfrwt beam="1">  1        1 0.34977794E+00 0.62028612E+03</pdfrwt>
<pdfrwt beam="2">0</pdfrwt>
<totfact> 0.22382457E+00</totfact>
</mgrwt>
</event>
<event>
 6    1  0.2339725E-003  0.6491936E+03  0.7818608E-02  0.9808294E-01
          1   -1    0    0  502    0  0.00000000000E+00  0.00000000000E+00  0.10536724094E+03  0.10536724094E+03  0.00000000000E+00 0.  1.
         13   -1    0    0    0    0 -0.00000000000E+00 -0.00000000000E+00 -0.10000000000E+04  0.10000000000E+04  0.00000000000E+00 0.  1.
    9000005    2    1    2  501    0  0.10311327341E-03 -0.28706362038E-03 -0.89463691608E+03  0.11053630727E+04  0.64919358514E+03 0.  0.
         13    1    3    3    0    0  0.21253225177E+03  0.70050365585E+02 -0.46969613999E+02  0.22865510360E+03  0.00000000000E+00 0.  1.
          1    1    3    3  501    0 -0.21253214866E+03 -0.70050652649E+02 -0.84766730208E+03  0.87670796915E+03  0.00000000000E+00 0.  1.
         21    1    1    2  502  501 -0.10311327341E-03  0.28706362038E-03  0.41570166324E-02  0.41681920723E-02  0.00000000000E+00 0.  1.
<mgrwt>
<rscale>  1 0.64919359E+03</rscale>
<asrwt>0</asrwt>
<pdfrwt beam="1">  1        1 0.38315441E+00 0.64919359E+03</pdfrwt>
<pdfrwt beam="2">0</pdfrwt>
<totfact> 0.15894120E+00</totfact>
</mgrwt>
</event>
<event>
 6    1  0.2339725E-003  0.6553423E+03  0.7818608E-02  0.9796806E-01
          1   -1    0    0  502    0  0.00000000000E+00  0.00000000000E+00  0.10737011562E+03  0.10737011562E+03  0.00000000000E+00 0.  1.
         13   -1    0    0    0    0 -0.00000000000E+00 -0.00000000000E+00 -0.10000000000E+04  0.10000000000E+04  0.00000000000E+00 0.  1.
    9000005    2    1    2  501    0 -0.78820208842E-04  0.10129288668E-04 -0.89263160802E+03  0.11073683901E+04  0.65534232570E+03 0.  0.
         13    1    3    3    0    0 -0.27851791901E+03 -0.64073354556E+02 -0.71715572200E+03  0.77200385722E+03  0.00000000000E+00 0.  1.
          1    1    3    3  501    0  0.27851784019E+03  0.64073364686E+02 -0.17547588603E+03  0.33536453292E+03  0.00000000000E+00 0.  1.
         21    1    1    2  502  501  0.78820208821E-04 -0.10129288667E-04  0.17236469663E-02  0.17254779315E-02  0.00000000000E+00 0. -1.
<mgrwt>
<rscale>  1 0.65534233E+03</rscale>
<asrwt>0</asrwt>
<pdfrwt beam="1">  1        1 0.39043761E+00 0.65534233E+03</pdfrwt>
<pdfrwt beam="2">0</pdfrwt>
<totfact> 0.14739990E+00</totfact>
</mgrwt>
</event>
<event>
 6    1  0.2339725E-003  0.6646379E+03  0.7818608E-02  0.9779693E-01
          1   -1    0    0  502    0  0.00000000000E+00  0.00000000000E+00  0.11043659718E+03  0.11043659718E+03  0.00000000000E+00 0.  1.
         13   -1    0    0    0    0 -0.00000000000E+00 -0.00000000000E+00 -0.10000000000E+04  0.10000000000E+04  0.00000000000E+00 0.  1.
    9000005    2    1    2  501    0  0.77955571669E-05 -0.16737986368E-03 -0.88956409204E+03  0.11104358879E+04  0.66463793696E+03 0.  0.
         13    1    3    3    0    0 -0.11637685062E+03  0.25613976119E+03 -0.14927045515E+03  0.31848519181E+03  0.00000000000E+00 0.  1.
          1    1    3    3  501    0  0.11637685841E+03 -0.25613992857E+03 -0.74029363689E+03  0.79195069607E+03  0.00000000000E+00 0.  1.
         21    1    1    2  502  501 -0.77955571646E-05  0.16737986367E-03  0.68921933317E-03  0.70929548052E-03  0.00000000000E+00 0. -1.
<mgrwt>
<rscale>  1 0.66463794E+03</rscale>
<asrwt>0</asrwt>
<pdfrwt beam="1">  1        1 0.40158847E+00 0.66463794E+03</pdfrwt>
<pdfrwt beam="2">0</pdfrwt>
<totfact> 0.13125921E+00</totfact>
</mgrwt>
</event>
<event>
 6    1  0.2339725E-003  0.6427771E+03  0.7818608E-02  0.9820428E-01
          1   -1    0    0  502    0  0.00000000000E+00  0.00000000000E+00  0.10329135157E+03  0.10329135157E+03  0.00000000000E+00 0.  1.
         13   -1    0    0    0    0 -0.00000000000E+00 -0.00000000000E+00 -0.10000000000E+04  0.10000000000E+04  0.00000000000E+00 0.  1.
    9000005    2    1    2  501    0  0.34650135206E-04 -0.86071584406E-04 -0.89670938709E+03  0.11032906071E+04  0.64277712998E+03 0.  0.
         13    1    3    3    0    0 -0.24822078105E+03  0.20410588992E+03 -0.44111029129E+03  0.54575732659E+03  0.00000000000E+00 0.  1.
          1    1    3    3  501    0  0.24822081570E+03 -0.20410597599E+03 -0.45559909580E+03  0.55753328051E+03  0.00000000000E+00 0.  1.
         21    1    1    2  502  501 -0.34650135183E-04  0.86071584407E-04  0.73865879170E-03  0.74446340411E-03  0.00000000000E+00 0.  1.
<mgrwt>
<rscale>  1 0.64277713E+03</rscale>
<asrwt>0</asrwt>
<pdfrwt beam="1">  1        1 0.37560571E+00 0.64277713E+03</pdfrwt>
<pdfrwt beam="2">0</pdfrwt>
<totfact> 0.17180882E+00</totfact>
</mgrwt>
</event>
<event>
 6    1  0.2339725E-003  0.6307471E+03  0.7818608E-02  0.9843592E-01
          1   -1    0    0  502    0  0.00000000000E+00  0.00000000000E+00  0.10211757706E+03  0.10211757706E+03  0.00000000000E+00 0.  1.
         13   -1    0    0    0    0 -0.00000000000E+00 -0.00000000000E+00 -0.10000000000E+04  0.10000000000E+04  0.00000000000E+00 0.  1.
    9000005    2    1    2  501    0 -0.29548793959E+01  0.62168916379E+01 -0.89430577620E+03  0.10943604219E+04  0.63070954542E+03 0.  0.
         13    1    3    3    0    0  0.35674972014E+02 -0.17249581955E+02 -0.98880995804E+03  0.98960365037E+03  0.00000000000E+00 0.  1.
          1    1    3    3  501    0 -0.38629851410E+02  0.23466473592E+02  0.94504181839E+02  0.10475677156E+03  0.00000000000E+00 0.  1.
         21    1    1    2  502  501  0.29548793959E+01 -0.62168916379E+01 -0.35766467393E+01  0.77571551344E+01  0.00000000000E+00 0.  1.
<mgrwt>
<rscale>  1 0.63074711E+03</rscale>
<asrwt>0</asrwt>
<pdfrwt beam="1">  1        1 0.37133743E+00 0.63074711E+03</pdfrwt>
<pdfrwt beam="2">0</pdfrwt>
<totfact> 0.17979499E+00</totfact>
</mgrwt>
</event>
<event>
 6    1  0.2339725E-003  0.6504104E+03  0.7818608E-02  0.9806009E-01
          1   -1    0    0  502    0  0.00000000000E+00  0.00000000000E+00  0.10603914019E+03  0.10603914019E+03  0.00000000000E+00 0.  1.
         13   -1    0    0    0    0 -0.00000000000E+00 -0.00000000000E+00 -0.10000000000E+04  0.10000000000E+04  0.00000000000E+00 0.  1.
    9000005    2    1    2  501    0 -0.60696248156E-02  0.79318696702E-03 -0.89424153664E+03  0.11057583966E+04  0.65041041336E+03 0.  0.
         13    1    3    3    0    0 -0.56441600570E+02  0.29886150111E+02 -0.98923530890E+03  0.99129477585E+03  0.00000000000E+00 0.  1.
          1    1    3    3  501    0  0.56435530945E+02 -0.29885356924E+02  0.94993772263E+02  0.11446362077E+03  0.00000000000E+00 0.  1.
         21    1    1    2  502  501  0.60696248156E-02 -0.79318696702E-03  0.28067683143E+00  0.28074357196E+00  0.00000000000E+00 0. -1.
<mgrwt>
<rscale>  1 0.65041041E+03</rscale>
<asrwt>0</asrwt>
<pdfrwt beam="1">  1        1 0.38559769E+00 0.65041041E+03</pdfrwt>
<pdfrwt beam="2">0</pdfrwt>
<totfact> 0.15500126E+00</totfact>
</mgrwt>
</event>
<event>
 6    1  0.2339725E-003  0.5555426E+03  0.7818608E-02  0.1000219E+00
          1   -1    0    0  502    0  0.00000000000E+00  0.00000000000E+00  0.77157131897E+02  0.77157131897E+02  0.00000000000E+00 0.  1.
         13   -1    0    0    0    0 -0.00000000000E+00 -0.00000000000E+00 -0.10000000000E+04  0.10000000000E+04  0.00000000000E+00 0.  1.
    9000005    2    1    2  501    0 -0.60940715713E-04 -0.10708559742E-03 -0.92284309092E+03  0.10771568773E+04  0.55554258866E+03 0.  0.
         13    1    3    3    0    0 -0.23151974875E+03 -0.15328078601E+03 -0.44633669808E+03  0.52565467892E+03  0.00000000000E+00 0.  1.
          1    1    3    3  501    0  0.23151968781E+03  0.15328067893E+03 -0.47650639284E+03  0.55150219836E+03  0.00000000000E+00 0.  1.
         21    1    1    2  502  501  0.60940715715E-04  0.10708559742E-03  0.22281804893E-03  0.25461535487E-03  0.00000000000E+00 0. -1.
<mgrwt>
<rscale>  1 0.55554259E+03</rscale>
<asrwt>0</asrwt>
<pdfrwt beam="1">  1        1 0.28057198E+00 0.55554259E+03</pdfrwt>
<pdfrwt beam="2">0</pdfrwt>
<totfact> 0.45104506E+00</totfact>
</mgrwt>
</event>
<event>
 6    1  0.2339725E-003  0.6548880E+03  0.7818608E-02  0.9797650E-01
          1   -1    0    0  502    0  0.00000000000E+00  0.00000000000E+00  0.10722361982E+03  0.10722361982E+03  0.00000000000E+00 0.  1.
         13   -1    0    0    0    0 -0.00000000000E+00 -0.00000000000E+00 -0.10000000000E+04  0.10000000000E+04  0.00000000000E+00 0.  1.
    9000005    2    1    2  501    0 -0.22649925599E-03  0.21271410075E-03 -0.89278040549E+03  0.11072195825E+04  0.65488804504E+03 0.  0.
         13    1    3    3    0    0  0.72679943965E+02 -0.11432122331E+03  0.57619687238E+02  0.14721326268E+03  0.00000000000E+00 0.  1.
          3    1    3    3  501    0 -0.72680170464E+02  0.11432143602E+03 -0.95040009272E+03  0.96000631986E+03  0.00000000000E+00 0.  1.
         21    1    1    2  502  501  0.22649925599E-03 -0.21271410076E-03  0.40253094294E-02  0.40372843849E-02  0.00000000000E+00 0.  1.
<mgrwt>
<rscale>  1 0.65488805E+03</rscale>
<asrwt>0</asrwt>
<pdfrwt beam="1">  1        1 0.38990489E+00 0.65488805E+03</pdfrwt>
<pdfrwt beam="2">0</pdfrwt>
<totfact> 0.14821646E+00</totfact>
</mgrwt>
</event>
<event>
 6    1  0.2339725E-003  0.6567371E+03  0.7818608E-02  0.9794219E-01
          1   -1    0    0  502    0  0.00000000000E+00  0.00000000000E+00  0.10782619253E+03  0.10782619253E+03  0.00000000000E+00 0.  1.
         13   -1    0    0    0    0 -0.00000000000E+00 -0.00000000000E+00 -0.10000000000E+04  0.10000000000E+04  0.00000000000E+00 0.  1.
    9000005    2    1    2  501    0  0.11502657225E-03  0.11352058971E-03 -0.89217406613E+03  0.11078258875E+04  0.65673711089E+03 0.  0.
         13    1    3    3    0    0 -0.17127455557E+03  0.27972379527E+03 -0.41965410348E+03  0.53262551722E+03  0.00000000000E+00 0.  1.
          1    1    3    3  501    0  0.17127467059E+03 -0.27972368174E+03 -0.47251996265E+03  0.57520037032E+03  0.00000000000E+00 0.  1.
         21    1    1    2  502  501 -0.11502657223E-03 -0.11352058974E-03  0.25865242009E-03  0.30499034580E-03  0.00000000000E+00 0. -1.
<mgrwt>
<rscale>  1 0.65673711E+03</rscale>
<asrwt>0</asrwt>
<pdfrwt beam="1">  1        1 0.39209607E+00 0.65673711E+03</pdfrwt>
<pdfrwt beam="2">0</pdfrwt>
<totfact> 0.14488546E+00</totfact>
</mgrwt>
</event>
<event>
 6    1  0.2339725E-003  0.5740772E+03  0.7818608E-02  0.9960697E-01
          1   -1    0    0  502    0  0.00000000000E+00  0.00000000000E+00  0.82391268277E+02  0.82391268277E+02  0.00000000000E+00 0.  1.
         13   -1    0    0    0    0 -0.00000000000E+00 -0.00000000000E+00 -0.10000000000E+04  0.10000000000E+04  0.00000000000E+00 0.  1.
    9000005    2    1    2  501    0  0.24031381415E-04  0.34252755711E-04 -0.91760882339E+03  0.10823911675E+04  0.57407724805E+03 0.  0.
         13    1    3    3    0    0  0.10110487592E+03  0.26813064720E+03 -0.49006779676E+03  0.56769946743E+03  0.00000000000E+00 0.  1.
          3    1    3    3  501    0 -0.10110485189E+03 -0.26813061295E+03 -0.42754102663E+03  0.51469170008E+03  0.00000000000E+00 0.  1.
         21    1    1    2  502  501 -0.24031381414E-04 -0.34252755730E-04  0.91669432945E-04  0.10076727397E-03  0.00000000000E+00 0. -1.
<mgrwt>
<rscale>  1 0.57407725E+03</rscale>
<asrwt>0</asrwt>
<pdfrwt beam="1">  1        1 0.29960524E+00 0.57407725E+03</pdfrwt>
<pdfrwt beam="2">0</pdfrwt>
<totfact> 0.37213794E+00</totfact>
</mgrwt>
</event>
<event>
 6    1  0.2339725E-003  0.6966222E+03  0.7818608E-02  0.9723026E-01
          1   -1    0    0  502    0  0.00000000000E+00  0.00000000000E+00  0.12145975060E+03  0.12145975060E+03  0.00000000000E+00 0.  1.
         13   -1    0    0    0    0 -0.00000000000E+00 -0.00000000000E+00 -0.10000000000E+04  0.10000000000E+04  0.00000000000E+00 0.  1.
    9000005    2    1    2  501    0 -0.23895224985E+00 -0.31147738845E+00 -0.87791970917E+03  0.11207254574E+04  0.69662212207E+03 0.  0.
         13    1    3    3    0    0 -0.29137102298E+02 -0.19935396065E+02 -0.99649078891E+03  0.99711598279E+03  0.00000000000E+00 0.  1.
          1    1    3    3  501    0  0.28898150048E+02  0.19623918676E+02  0.11857107974E+03  0.12360947460E+03  0.00000000000E+00 0.  1.
         21    1    1    2  502  501  0.23895224985E+00  0.31147738845E+00 -0.62054022981E+00  0.73429320985E+00  0.00000000000E+00 0.  1.
<mgrwt>
<rscale>  1 0.69662223E+03</rscale>
<asrwt>0</asrwt>
<pdfrwt beam="1">  1        1 0.44167275E+00 0.69662223E+03</pdfrwt>
<pdfrwt beam="2">0</pdfrwt>
<totfact> 0.85954680E-01</totfact>
</mgrwt>
</event>
<event>
 6    1  0.2339725E-003  0.6461914E+03  0.7818608E-02  0.9813952E-01
          1   -1    0    0  502    0  0.00000000000E+00  0.00000000000E+00  0.10439150926E+03  0.10439150926E+03  0.00000000000E+00 0.  1.
         13   -1    0    0    0    0 -0.00000000000E+00 -0.00000000000E+00 -0.10000000000E+04  0.10000000000E+04  0.00000000000E+00 0.  1.
    9000005    2    1    2  501    0 -0.65157475041E-03 -0.16863775842E-02 -0.89560382346E+03  0.11043865041E+04  0.64619141263E+03 0.  0.
         13    1    3    3    0    0 -0.27992280729E+03 -0.19963261676E+02 -0.17416031491E+03  0.33028340126E+03  0.00000000000E+00 0.  1.
          1    1    3    3  501    0  0.27992215571E+03  0.19961575299E+02 -0.72144350855E+03  0.77410310281E+03  0.00000000000E+00 0.  1.
         21    1    1    2  502  501  0.65157475039E-03  0.16863775842E-02 -0.46672781740E-02  0.50051877652E-02  0.00000000000E+00 0.  1.
<mgrwt>
<rscale>  1 0.64619141E+03</rscale>
<asrwt>0</asrwt>
<pdfrwt beam="1">  1        1 0.37960629E+00 0.64619141E+03</pdfrwt>
<pdfrwt beam="2">0</pdfrwt>
<totfact> 0.16487024E+00</totfact>
</mgrwt>
</event>
<event>
 6    1  0.2339725E-003  0.6463701E+03  0.7818608E-02  0.9813614E-01
          1   -1    0    0  502    0  0.00000000000E+00  0.00000000000E+00  0.10450040100E+03  0.10450040100E+03  0.00000000000E+00 0.  1.
         13   -1    0    0    0    0 -0.00000000000E+00 -0.00000000000E+00 -0.10000000000E+04  0.10000000000E+04  0.00000000000E+00 0.  1.
    9000005    2    1    2  501    0 -0.31361605238E-01  0.37539821865E-02 -0.89554605000E+03  0.11044442286E+04  0.64637011491E+03 0.  0.
         13    1    3    3    0    0 -0.69252362977E+02  0.86023088316E+02  0.71210424462E+02  0.13140314324E+03  0.00000000000E+00 0.  1.
          1    1    3    3  501    0  0.69221001372E+02 -0.86019334334E+02 -0.96675647446E+03  0.97304108537E+03  0.00000000000E+00 0.  1.
         21    1    1    2  502  501  0.31361605238E-01 -0.37539821865E-02  0.46450998070E-01  0.56172394351E-01  0.00000000000E+00 0. -1.
<mgrwt>
<rscale>  1 0.64637012E+03</rscale>
<asrwt>0</asrwt>
<pdfrwt beam="1">  1        1 0.38000226E+00 0.64637012E+03</pdfrwt>
<pdfrwt beam="2">0</pdfrwt>
<totfact> 0.16420298E+00</totfact>
</mgrwt>
</event>
<event>
 6    1  0.2339725E-003  0.6456866E+03  0.7818608E-02  0.9814907E-01
          1   -1    0    0  502    0  0.00000000000E+00  0.00000000000E+00  0.10422812244E+03  0.10422812244E+03  0.00000000000E+00 0.  1.
         13   -1    0    0    0    0 -0.00000000000E+00 -0.00000000000E+00 -0.10000000000E+04  0.10000000000E+04  0.00000000000E+00 0.  1.
    9000005    2    1    2  501    0 -0.34554075481E-03 -0.31012150725E-03 -0.89577198784E+03  0.11042276452E+04  0.64568664094E+03 0.  0.
         13    1    3    3    0    0 -0.15245813380E+03 -0.26741240687E+03 -0.61435321357E+03  0.68715554930E+03  0.00000000000E+00 0.  1.
          1    1    3    3  501    0  0.15245778826E+03  0.26741209675E+03 -0.28141877427E+03  0.41707209593E+03  0.00000000000E+00 0.  1.
         21    1    1    2  502  501  0.34554075478E-03  0.31012150724E-03  0.11027908510E-03  0.47721613456E-03  0.00000000000E+00 0.  1.
<mgrwt>
<rscale>  1 0.64568664E+03</rscale>
<asrwt>0</asrwt>
<pdfrwt beam="1">  1        1 0.37901215E+00 0.64568664E+03</pdfrwt>
<pdfrwt beam="2">0</pdfrwt>
<totfact> 0.16588347E+00</totfact>
</mgrwt>
</event>
<event>
 6    1  0.2339725E-003  0.6473414E+03  0.7818608E-02  0.9811781E-01
          1   -1    0    0  502    0  0.00000000000E+00  0.00000000000E+00  0.10488622120E+03  0.10488622120E+03  0.00000000000E+00 0.  1.
         13   -1    0    0    0    0 -0.00000000000E+00 -0.00000000000E+00 -0.10000000000E+04  0.10000000000E+04  0.00000000000E+00 0.  1.
    9000005    2    1    2  501    0  0.87391445306E-02  0.14073740478E-01 -0.89523665085E+03  0.11047622374E+04  0.64734143995E+03 0.  0.
         13    1    3    3    0    0 -0.30020149337E+03  0.12017651867E+03 -0.47165904038E+03  0.57186150652E+03  0.00000000000E+00 0.  1.
          1    1    3    3  501    0  0.30021023252E+03 -0.12016244493E+03 -0.42357761047E+03  0.53290073088E+03  0.00000000000E+00 0.  1.
         21    1    1    2  502  501 -0.87391445306E-02 -0.14073740478E-01  0.12287204725E+00  0.12398380061E+00  0.00000000000E+00 0.  1.
<mgrwt>
<rscale>  1 0.64734144E+03</rscale>
<asrwt>0</asrwt>
<pdfrwt beam="1">  1        1 0.38140524E+00 0.64734144E+03</pdfrwt>
<pdfrwt beam="2">0</pdfrwt>
<totfact> 0.16184938E+00</totfact>
</mgrwt>
</event>
<event>
 6    1  0.2339725E-003  0.6672534E+03  0.7818608E-02  0.9774932E-01
          1   -1    0    0  502    0  0.00000000000E+00  0.00000000000E+00  0.11185681531E+03  0.11185681531E+03  0.00000000000E+00 0.  1.
         13   -1    0    0    0    0 -0.00000000000E+00 -0.00000000000E+00 -0.10000000000E+04  0.10000000000E+04  0.00000000000E+00 0.  1.
    9000005    2    1    2  501    0 -0.40113403145E-01  0.88894100008E-01 -0.88868840591E+03  0.11113029404E+04  0.66725342489E+03 0.  0.
         13    1    3    3    0    0 -0.10026573155E+03 -0.60816248514E+02  0.75850027767E+02  0.13966051596E+03  0.00000000000E+00 0.  1.
          3    1    3    3  501    0  0.10022561815E+03  0.60905142614E+02 -0.96453843367E+03  0.97164242443E+03  0.00000000000E+00 0.  1.
         21    1    1    2  502  501  0.40113403145E-01 -0.88894100008E-01  0.54522121761E+00  0.55387491572E+00  0.00000000000E+00 0. -1.
<mgrwt>
<rscale>  1 0.66725343E+03</rscale>
<asrwt>0</asrwt>
<pdfrwt beam="1">  1        1 0.40675291E+00 0.66725343E+03</pdfrwt>
<pdfrwt beam="2">0</pdfrwt>
<totfact> 0.12440298E+00</totfact>
</mgrwt>
</event>
<event>
 6    1  0.2339725E-003  0.6478833E+03  0.7818608E-02  0.9810759E-01
          1   -1    0    0  502    0  0.00000000000E+00  0.00000000000E+00  0.10493820817E+03  0.10493820817E+03  0.00000000000E+00 0.  1.
         13   -1    0    0    0    0 -0.00000000000E+00 -0.00000000000E+00 -0.10000000000E+04  0.10000000000E+04  0.00000000000E+00 0.  1.
    9000005    2    1    2  501    0 -0.17441235229E-05 -0.15875812096E-05 -0.89506179634E+03  0.11049382031E+04  0.64788333314E+03 0.  0.
         13    1    3    3    0    0  0.64430388267E+02  0.31746931628E+03 -0.44821523943E+03  0.55302345572E+03  0.00000000000E+00 0.  1.
          1    1    3    3  501    0 -0.64430390011E+02 -0.31746931787E+03 -0.44684655690E+03  0.55191474737E+03  0.00000000000E+00 0.  1.
         21    1    1    2  502  501  0.17441235198E-05  0.15875811951E-05  0.45119994928E-05  0.50912199252E-05  0.00000000000E+00 0. -1.
<mgrwt>
<rscale>  1 0.64788333E+03</rscale>
<asrwt>0</asrwt>
<pdfrwt beam="1">  1        1 0.38159429E+00 0.64788333E+03</pdfrwt>
<pdfrwt beam="2">0</pdfrwt>
<totfact> 0.16152249E+00</totfact>
</mgrwt>
</event>
<event>
 6    1  0.2339725E-003  0.6422492E+03  0.7818608E-02  0.9821433E-01
          1   -1    0    0  502    0  0.00000000000E+00  0.00000000000E+00  0.10348124028E+03  0.10348124028E+03  0.00000000000E+00 0.  1.
         13   -1    0    0    0    0 -0.00000000000E+00 -0.00000000000E+00 -0.10000000000E+04  0.10000000000E+04  0.00000000000E+00 0.  1.
    9000005    2    1    2  501    0 -0.53884823560E-02 -0.18944457789E-01 -0.89687867929E+03  0.11031207822E+04  0.64224924631E+03 0.  0.
         13    1    3    3    0    0 -0.18200902588E+03  0.24442129952E+03 -0.27455296494E+03  0.41018092071E+03  0.00000000000E+00 0.  1.
          1    1    3    3  501    0  0.18200363740E+03 -0.24444024398E+03 -0.62232571435E+03  0.69293986149E+03  0.00000000000E+00 0.  1.
         21    1    1    2  502  501  0.53884823560E-02  0.18944457789E-01  0.35991956702E+00  0.36045807377E+00  0.00000000000E+00 0.  1.
<mgrwt>
<rscale>  1 0.64224925E+03</rscale>
<asrwt>0</asrwt>
<pdfrwt beam="1">  1        1 0.37629621E+00 0.64224925E+03</pdfrwt>
<pdfrwt beam="2">0</pdfrwt>
<totfact> 0.17062660E+00</totfact>
</mgrwt>
</event>
<event>
 6    1  0.2339725E-003  0.6468326E+03  0.7818608E-02  0.9812741E-01
          1   -1    0    0  502    0  0.00000000000E+00  0.00000000000E+00  0.10459907449E+03  0.10459907449E+03  0.00000000000E+00 0.  1.
         13   -1    0    0    0    0 -0.00000000000E+00 -0.00000000000E+00 -0.10000000000E+04  0.10000000000E+04  0.00000000000E+00 0.  1.
    9000005    2    1    2  501    0 -0.10953545201E-02  0.25117551407E-02 -0.89539877902E+03  0.11045955937E+04  0.64683263063E+03 0.  0.
         13    1    3    3    0    0  0.19593772509E+03 -0.13645238553E+03 -0.75174223762E+02  0.25032380939E+03  0.00000000000E+00 0.  1.
          1    1    3    3  501    0 -0.19593882044E+03  0.13645489728E+03 -0.82022455526E+03  0.85427178427E+03  0.00000000000E+00 0.  1.
         21    1    1    2  502  501  0.10953545200E-02 -0.25117551407E-02 -0.21464971443E-02  0.34808282638E-02  0.00000000000E+00 0. -1.
<mgrwt>
<rscale>  1 0.64683263E+03</rscale>
<asrwt>0</asrwt>
<pdfrwt beam="1">  1        1 0.38036107E+00 0.64683263E+03</pdfrwt>
<pdfrwt beam="2">0</pdfrwt>
<totfact> 0.16359153E+00</totfact>
</mgrwt>
</event>
<event>
 6    1  0.2339725E-003  0.6598196E+03  0.7818608E-02  0.9788526E-01
          1   -1    0    0  502    0  0.00000000000E+00  0.00000000000E+00  0.10884130659E+03  0.10884130659E+03  0.00000000000E+00 0.  1.
         13   -1    0    0    0    0 -0.00000000000E+00 -0.00000000000E+00 -0.10000000000E+04  0.10000000000E+04  0.00000000000E+00 0.  1.
    9000005    2    1    2  501    0 -0.13273742241E-03 -0.15546616333E-03 -0.89115952188E+03  0.11088404533E+04  0.65981956426E+03 0.  0.
         13    1    3    3    0    0  0.41416065188E+02 -0.28762302185E+03 -0.18308373886E+03  0.34345589031E+03  0.00000000000E+00 0.  1.
          3    1    3    3  501    0 -0.41416197926E+02  0.28762286639E+03 -0.70807578302E+03  0.76538456296E+03  0.00000000000E+00 0.  1.
         21    1    1    2  502  501  0.13273742241E-03  0.15546616332E-03  0.82847142159E-03  0.85331931165E-03  0.00000000000E+00 0.  1.
<mgrwt>
<rscale>  1 0.65981956E+03</rscale>
<asrwt>0</asrwt>
<pdfrwt beam="1">  1        1 0.39578740E+00 0.65981956E+03</pdfrwt>
<pdfrwt beam="2">0</pdfrwt>
<totfact> 0.13943460E+00</totfact>
</mgrwt>
</event>
<event>
 6    1  0.2339725E-003  0.5060219E+03  0.7818608E-02  0.1012219E+00
          1   -1    0    0  502    0  0.00000000000E+00  0.00000000000E+00  0.64024165957E+02  0.64024165957E+02  0.00000000000E+00 0.  1.
         13   -1    0    0    0    0 -0.00000000000E+00 -0.00000000000E+00 -0.10000000000E+04  0.10000000000E+04  0.00000000000E+00 0.  1.
    9000005    2    1    2  501    0 -0.55605763940E-02 -0.19517293622E-02 -0.93598449424E+03  0.10640136908E+04  0.50602189752E+03 0.  0.
         13    1    3    3    0    0 -0.83823034784E+01 -0.24391560524E+03 -0.60826157671E+03  0.65539852853E+03  0.00000000000E+00 0.  1.
          3    1    3    3  501    0  0.83767429020E+01  0.24391365351E+03 -0.32772291753E+03  0.40861516230E+03  0.00000000000E+00 0.  1.
         21    1    1    2  502  501  0.55605763940E-02  0.19517293623E-02  0.86601999853E-02  0.10475128692E-01  0.00000000000E+00 0.  1.
<mgrwt>
<rscale>  1 0.50602190E+03</rscale>
<asrwt>0</asrwt>
<pdfrwt beam="1">  1        1 0.23281564E+00 0.50602190E+03</pdfrwt>
<pdfrwt beam="2">0</pdfrwt>
<totfact> 0.73341614E+00</totfact>
</mgrwt>
</event>
<event>
 6    1  0.2339725E-003  0.6429531E+03  0.7818608E-02  0.9820093E-01
          1   -1    0    0  502    0  0.00000000000E+00  0.00000000000E+00  0.10354615454E+03  0.10354615454E+03  0.00000000000E+00 0.  1.
         13   -1    0    0    0    0 -0.00000000000E+00 -0.00000000000E+00 -0.10000000000E+04  0.10000000000E+04  0.00000000000E+00 0.  1.
    9000005    2    1    2  501    0  0.28456607539E-01  0.42813721568E+00 -0.89635614325E+03  0.11031060898E+04  0.64295297317E+03 0.  0.
         13    1    3    3    0    0  0.14392256388E+03 -0.73767851728E+02  0.28472803257E+02  0.16421358308E+03  0.00000000000E+00 0.  1.
          3    1    3    3  501    0 -0.14389410727E+03  0.74195988943E+02 -0.92482894651E+03  0.93889250672E+03  0.00000000000E+00 0.  1.
         21    1    1    2  502  501 -0.28456607539E-01 -0.42813721568E+00 -0.97702206239E-01  0.44006473963E+00  0.00000000000E+00 0. -1.
<mgrwt>
<rscale>  1 0.64295312E+03</rscale>
<asrwt>0</asrwt>
<pdfrwt beam="1">  1        1 0.37653227E+00 0.64295312E+03</pdfrwt>
<pdfrwt beam="2">0</pdfrwt>
<totfact> 0.17019664E+00</totfact>
</mgrwt>
</event>
<event>
 6    1  0.2339725E-003  0.6377762E+03  0.7818608E-02  0.9829991E-01
          1   -1    0    0  502    0  0.00000000000E+00  0.00000000000E+00  0.10168975478E+03  0.10168975478E+03  0.00000000000E+00 0.  1.
         13   -1    0    0    0    0 -0.00000000000E+00 -0.00000000000E+00 -0.10000000000E+04  0.10000000000E+04  0.00000000000E+00 0.  1.
    9000005    2    1    2  501    0 -0.12017538836E-04 -0.76963953859E-05 -0.89831038235E+03  0.11016896169E+04  0.63777619034E+03 0.  0.
         13    1    3    3    0    0 -0.28473446780E+03 -0.66479713903E+02 -0.22931882531E+03  0.37159170221E+03  0.00000000000E+00 0.  1.
          3    1    3    3  501    0  0.28473445578E+03  0.66479706207E+02 -0.66899155704E+03  0.73009791470E+03  0.00000000000E+00 0.  1.
         21    1    1    2  502  501  0.12017538816E-04  0.76963953828E-05  0.13713590056E-03  0.13787643368E-03  0.00000000000E+00 0. -1.
<mgrwt>
<rscale>  1 0.63777619E+03</rscale>
<asrwt>0</asrwt>
<pdfrwt beam="1">  1        1 0.36978171E+00 0.63777619E+03</pdfrwt>
<pdfrwt beam="2">0</pdfrwt>
<totfact> 0.18241109E+00</totfact>
</mgrwt>
</event>
<event>
 6    1  0.2339725E-003  0.6379162E+03  0.7818608E-02  0.9829722E-01
          1   -1    0    0  502    0  0.00000000000E+00  0.00000000000E+00  0.13508080425E+03  0.13508080425E+03  0.00000000000E+00 0.  1.
         13   -1    0    0    0    0 -0.00000000000E+00 -0.00000000000E+00 -0.10000000000E+04  0.10000000000E+04  0.00000000000E+00 0.  1.
    9000005    2    1    2  501    0 -0.28689569901E+01  0.38212876794E+01 -0.89807704103E+03  0.11015804183E+04  0.63789827813E+03 0.  0.
         13    1    3    3    0    0 -0.16031469224E+03 -0.11726202200E+03 -0.18077321785E+02  0.19944415738E+03  0.00000000000E+00 0.  1.
          3    1    3    3  501    0  0.15744573525E+03  0.12108330968E+03 -0.87999971925E+03  0.90213626094E+03  0.00000000000E+00 0.  1.
         21    1    1    2  502  501  0.28689569901E+01 -0.38212876794E+01  0.33157845280E+02  0.33500385929E+02  0.00000000000E+00 0. -1.
<mgrwt>
<rscale>  1 0.63791618E+03</rscale>
<asrwt>0</asrwt>
<pdfrwt beam="1">  1        1 0.49120396E+00 0.63791618E+03</pdfrwt>
<pdfrwt beam="2">0</pdfrwt>
<totfact> 0.51084845E-01</totfact>
</mgrwt>
</event>
<event>
 6    1  0.2339725E-003  0.5777520E+03  0.7818608E-02  0.9952670E-01
          1   -1    0    0  502    0  0.00000000000E+00  0.00000000000E+00  0.83449386707E+02  0.83449386707E+02  0.00000000000E+00 0.  1.
         13   -1    0    0    0    0 -0.00000000000E+00 -0.00000000000E+00 -0.10000000000E+04  0.10000000000E+04  0.00000000000E+00 0.  1.
    9000005    2    1    2  501    0  0.12109853067E-05 -0.46451561246E-04 -0.91655065055E+03  0.10834493271E+04  0.57775197921E+03 0.  0.
         13    1    3    3    0    0 -0.20773104558E+02  0.23805162848E+03 -0.15387077374E+03  0.28421174273E+03  0.00000000000E+00 0.  1.
          1    1    3    3  501    0  0.20773105769E+02 -0.23805167493E+03 -0.76267987681E+03  0.79923758442E+03  0.00000000000E+00 0.  1.
         21    1    1    2  502  501 -0.12109853082E-05  0.46451561251E-04  0.37254384796E-04  0.59557562195E-04  0.00000000000E+00 0.  1.
<mgrwt>
<rscale>  1 0.57775198E+03</rscale>
<asrwt>0</asrwt>
<pdfrwt beam="1">  1        1 0.30345296E+00 0.57775198E+03</pdfrwt>
<pdfrwt beam="2">0</pdfrwt>
<totfact> 0.35795047E+00</totfact>
</mgrwt>
</event>
<event>
 6    1  0.2339725E-003  0.6325117E+03  0.7818608E-02  0.9840160E-01
          1   -1    0    0  502    0  0.00000000000E+00  0.00000000000E+00  0.11161422059E+03  0.11161422059E+03  0.00000000000E+00 0.  1.
         13   -1    0    0    0    0 -0.00000000000E+00 -0.00000000000E+00 -0.10000000000E+04  0.10000000000E+04  0.00000000000E+00 0.  1.
    9000005    2    1    2  501    0 -0.26288098659E+02 -0.23705314827E+02 -0.83396729953E+03  0.10466959871E+04  0.63152040880E+03 0.  0.
         13    1    3    3    0    0  0.11128185524E+03  0.53839783106E+02  0.61035026352E+02  0.13786822691E+03  0.00000000000E+00 0.  1.
          3    1    3    3  501    0 -0.13756995390E+03 -0.77545097934E+02 -0.89500232588E+03  0.90882776023E+03  0.00000000000E+00 0.  1.
         21    1    1    2  502  501  0.26288098659E+02  0.23705314827E+02 -0.54418479876E+02  0.64918233450E+02  0.00000000000E+00 0.  1.
<mgrwt>
<rscale>  1 0.63251169E+03</rscale>
<asrwt>0</asrwt>
<pdfrwt beam="1">  1        1 0.40587075E+00 0.63251169E+03</pdfrwt>
<pdfrwt beam="2">0</pdfrwt>
<totfact> 0.12638174E+00</totfact>
</mgrwt>
</event>
<event>
 6    1  0.2339725E-003  0.6529329E+03  0.7818608E-02  0.9801291E-01
          1   -1    0    0  502    0  0.00000000000E+00  0.00000000000E+00  0.11408207199E+03  0.11408207199E+03  0.00000000000E+00 0.  1.
         13   -1    0    0    0    0 -0.00000000000E+00 -0.00000000000E+00 -0.10000000000E+04  0.10000000000E+04  0.00000000000E+00 0.  1.
    9000005    2    1    2  501    0  0.13760032119E+00 -0.19678365848E+00 -0.89341753113E+03  0.11065786258E+04  0.65293285452E+03 0.  0.
         13    1    3    3    0    0 -0.15980201317E+03 -0.17577092493E+02  0.34827516715E+02  0.16449496501E+03  0.00000000000E+00 0.  1.
          3    1    3    3  501    0  0.15993961349E+03  0.17380308835E+02 -0.92824504784E+03  0.94208366080E+03  0.00000000000E+00 0.  1.
         21    1    1    2  502  501 -0.13760032119E+00  0.19678365848E+00  0.74996031216E+01  0.75034461841E+01  0.00000000000E+00 0.  1.
<mgrwt>
<rscale>  1 0.65293290E+03</rscale>
<asrwt>0</asrwt>
<pdfrwt beam="1">  1        1 0.41484477E+00 0.65293290E+03</pdfrwt>
<pdfrwt beam="2">0</pdfrwt>
<totfact> 0.11474141E+00</totfact>
</mgrwt>
</event>
<event>
 6    1  0.2339725E-003  0.6453133E+03  0.7818608E-02  0.9815613E-01
          1   -1    0    0  502    0  0.00000000000E+00  0.00000000000E+00  0.10410776239E+03  0.10410776239E+03  0.00000000000E+00 0.  1.
         13   -1    0    0    0    0 -0.00000000000E+00 -0.00000000000E+00 -0.10000000000E+04  0.10000000000E+04  0.00000000000E+00 0.  1.
    9000005    2    1    2  501    0  0.31070541514E-04 -0.28225110668E-04 -0.89589267682E+03  0.11041073212E+04  0.64531332569E+03 0.  0.
         13    1    3    3    0    0  0.26018763362E+02 -0.16353998798E+03  0.25854608011E+02  0.16760299661E+03  0.00000000000E+00 0.  1.
          1    1    3    3  501    0 -0.26018732291E+02  0.16353995976E+03 -0.92174728483E+03  0.93650432458E+03  0.00000000000E+00 0.  1.
         21    1    1    2  502  501 -0.31070541513E-04  0.28225110683E-04  0.43920451812E-03  0.44120589770E-03  0.00000000000E+00 0. -1.
<mgrwt>
<rscale>  1 0.64531333E+03</rscale>
<asrwt>0</asrwt>
<pdfrwt beam="1">  1        1 0.37857448E+00 0.64531333E+03</pdfrwt>
<pdfrwt beam="2">0</pdfrwt>
<totfact> 0.16663372E+00</totfact>
</mgrwt>
</event>
<event>
 6    1  0.2339725E-003  0.6434261E+03  0.7818608E-02  0.9819193E-01
          1   -1    0    0  502    0  0.00000000000E+00  0.00000000000E+00  0.10350230858E+03  0.10350230858E+03  0.00000000000E+00 0.  1.
         13   -1    0    0    0    0 -0.00000000000E+00 -0.00000000000E+00 -0.10000000000E+04  0.10000000000E+04  0.00000000000E+00 0.  1.
    9000005    2    1    2  501    0 -0.35318163322E-03  0.89439544298E-03 -0.89650062083E+03  0.11034992254E+04  0.64342612417E+03 0.  0.
         13    1    3    3    0    0 -0.31210056138E+03  0.74329257086E+00 -0.31438877528E+03  0.44299843671E+03  0.00000000000E+00 0.  1.
          3    1    3    3  501    0  0.31210020820E+03 -0.74239817542E+00 -0.58211184555E+03  0.66050078867E+03  0.00000000000E+00 0.  1.
         21    1    1    2  502  501  0.35318163322E-03 -0.89439544298E-03  0.29294105673E-02  0.30832007307E-02  0.00000000000E+00 0.  1.
<mgrwt>
<rscale>  1 0.64342612E+03</rscale>
<asrwt>0</asrwt>
<pdfrwt beam="1">  1        1 0.37637282E+00 0.64342612E+03</pdfrwt>
<pdfrwt beam="2">0</pdfrwt>
<totfact> 0.17045730E+00</totfact>
</mgrwt>
</event>
<event>
 6    1  0.2339725E-003  0.6404356E+03  0.7818608E-02  0.9824894E-01
          1   -1    0    0  502    0  0.00000000000E+00  0.00000000000E+00  0.10255852255E+03  0.10255852255E+03  0.00000000000E+00 0.  1.
         13   -1    0    0    0    0 -0.00000000000E+00 -0.00000000000E+00 -0.10000000000E+04  0.10000000000E+04  0.00000000000E+00 0.  1.
    9000005    2    1    2  501    0 -0.20742027605E-01 -0.35880655088E-02 -0.89745396776E+03  0.11025340458E+04  0.64043555284E+03 0.  0.
         13    1    3    3    0    0  0.57299610070E+02  0.21278739594E+03 -0.84868212571E+03  0.87682556515E+03  0.00000000000E+00 0.  1.
          3    1    3    3  501    0 -0.57320352098E+02 -0.21279098401E+03 -0.48771842047E+02  0.22570848061E+03  0.00000000000E+00 0.  1.
         21    1    1    2  502  501  0.20742027605E-01  0.35880655088E-02  0.12490313474E-01  0.24476802363E-01  0.00000000000E+00 0. -1.
<mgrwt>
<rscale>  1 0.64043555E+03</rscale>
<asrwt>0</asrwt>
<pdfrwt beam="1">  1        1 0.37294087E+00 0.64043555E+03</pdfrwt>
<pdfrwt beam="2">0</pdfrwt>
<totfact> 0.17658655E+00</totfact>
</mgrwt>
</event>
<event>
 6    1  0.2339725E-003  0.6305309E+03  0.7818608E-02  0.9844013E-01
          1   -1    0    0  502    0  0.00000000000E+00  0.00000000000E+00  0.99393412913E+02  0.99393412913E+02  0.00000000000E+00 0.  1.
         13   -1    0    0    0    0 -0.00000000000E+00 -0.00000000000E+00 -0.10000000000E+04  0.10000000000E+04  0.00000000000E+00 0.  1.
    9000005    2    1    2  501    0 -0.27036268989E-04 -0.99745482942E-04 -0.90060770192E+03  0.10993922933E+04  0.63053087301E+03 0.  0.
         13    1    3    3    0    0  0.18407905148E+03  0.17898870114E+03 -0.76929273352E+03  0.81100762153E+03  0.00000000000E+00 0.  1.
          1    1    3    3  501    0 -0.18407907851E+03 -0.17898880089E+03 -0.13131496840E+03  0.28838467178E+03  0.00000000000E+00 0.  1.
         21    1    1    2  502  501  0.27036268979E-04  0.99745482960E-04  0.11148307186E-02  0.11196104914E-02  0.00000000000E+00 0. -1.
<mgrwt>
<rscale>  1 0.63053087E+03</rscale>
<asrwt>0</asrwt>
<pdfrwt beam="1">  1        1 0.36143135E+00 0.63053087E+03</pdfrwt>
<pdfrwt beam="2">0</pdfrwt>
<totfact> 0.19871301E+00</totfact>
</mgrwt>
</event>
<event>
 6    1  0.2339725E-003  0.6472331E+03  0.7818608E-02  0.9811985E-01
          3   -1    0    0  502    0  0.00000000000E+00  0.00000000000E+00  0.10473052503E+03  0.10473052503E+03  0.00000000000E+00 0.  1.
         13   -1    0    0    0    0 -0.00000000000E+00 -0.00000000000E+00 -0.10000000000E+04  0.10000000000E+04  0.00000000000E+00 0.  1.
    9000005    2    1    2  501    0  0.32905179745E-03  0.19974941802E-03 -0.89527231730E+03  0.11047276568E+04  0.64723309052E+03 0.  0.
         13    1    3    3    0    0  0.13446926102E+03  0.26499249237E+03 -0.22888838130E+03  0.37509051476E+03  0.00000000000E+00 0.  1.
          3    1    3    3  501    0 -0.13446893197E+03 -0.26499229262E+03 -0.66638393600E+03  0.72963714199E+03  0.00000000000E+00 0.  1.
         21    1    1    2  502  501 -0.32905179747E-03 -0.19974941801E-03  0.28423275040E-02  0.28682748396E-02  0.00000000000E+00 0.  1.
<mgrwt>
<rscale>  1 0.64723309E+03</rscale>
<asrwt>0</asrwt>
<pdfrwt beam="1">  1        3 0.38083908E+00 0.64723309E+03</pdfrwt>
<pdfrwt beam="2">0</pdfrwt>
<totfact> 0.74747119E-02</totfact>
</mgrwt>
</event>
<event>
 6    1  0.2339725E-003  0.6441369E+03  0.7818608E-02  0.9817843E-01
          1   -1    0    0  502    0  0.00000000000E+00  0.00000000000E+00  0.10372809164E+03  0.10372809164E+03  0.00000000000E+00 0.  1.
         13   -1    0    0    0    0 -0.00000000000E+00 -0.00000000000E+00 -0.10000000000E+04  0.10000000000E+04  0.00000000000E+00 0.  1.
    9000005    2    1    2  501    0  0.33105835371E-05 -0.73276378316E-05 -0.89627191075E+03  0.11037280833E+04  0.64413689830E+03 0.  0.
         13    1    3    3    0    0 -0.14106207616E+03  0.28951149353E+03 -0.45423493194E+03  0.55681665529E+03  0.00000000000E+00 0.  1.
          1    1    3    3  501    0  0.14106207947E+03 -0.28951150086E+03 -0.44203697881E+03  0.54691142796E+03  0.00000000000E+00 0.  1.
         21    1    1    2  502  501 -0.33105835480E-05  0.73276378318E-05  0.23897194131E-05  0.83883847369E-05  0.00000000000E+00 0. -1.
<mgrwt>
<rscale>  1 0.64413690E+03</rscale>
<asrwt>0</asrwt>
<pdfrwt beam="1">  1        1 0.37719386E+00 0.64413690E+03</pdfrwt>
<pdfrwt beam="2">0</pdfrwt>
<totfact> 0.16902154E+00</totfact>
</mgrwt>
</event>
<event>
 6    1  0.2339725E-003  0.6521106E+03  0.7818608E-02  0.9802827E-01
          1   -1    0    0  502    0  0.00000000000E+00  0.00000000000E+00  0.10636969694E+03  0.10636969694E+03  0.00000000000E+00 0.  1.
         13   -1    0    0    0    0 -0.00000000000E+00 -0.00000000000E+00 -0.10000000000E+04  0.10000000000E+04  0.00000000000E+00 0.  1.
    9000005    2    1    2  501    0  0.12529009968E-01 -0.65102718567E-02 -0.89368698543E+03  0.11063112825E+04  0.65211059308E+03 0.  0.
         13    1    3    3    0    0  0.21772029479E+03 -0.24141586525E+03 -0.48952264365E+03  0.58763608246E+03  0.00000000000E+00 0.  1.
          3    1    3    3  501    0 -0.21770776578E+03  0.24140935498E+03 -0.40416434177E+03  0.51867520001E+03  0.00000000000E+00 0.  1.
         21    1    1    2  502  501 -0.12529009968E-01  0.65102718567E-02  0.56682367814E-01  0.58414472106E-01  0.00000000000E+00 0.  1.
<mgrwt>
<rscale>  1 0.65211059E+03</rscale>
<asrwt>0</asrwt>
<pdfrwt beam="1">  1        1 0.38679971E+00 0.65211059E+03</pdfrwt>
<pdfrwt beam="2">0</pdfrwt>
<totfact> 0.15306597E+00</totfact>
</mgrwt>
</event>
<event>
 6    1  0.2339725E-003  0.5829983E+03  0.7818608E-02  0.9941321E-01
          1   -1    0    0  502    0  0.00000000000E+00  0.00000000000E+00  0.85753848244E+02  0.85753848244E+02  0.00000000000E+00 0.  1.
         13   -1    0    0    0    0 -0.00000000000E+00 -0.00000000000E+00 -0.10000000000E+04  0.10000000000E+04  0.00000000000E+00 0.  1.
    9000005    2    1    2  501    0 -0.69695172717E+00 -0.21070711821E+00 -0.91484086460E+03  0.10848137299E+04  0.58299784804E+03 0.  0.
         13    1    3    3    0    0  0.64997669751E+02  0.12465878997E+03  0.17666729500E+02  0.14169200514E+03  0.00000000000E+00 0.  1.
          3    1    3    3  501    0 -0.65694621478E+02 -0.12486949709E+03 -0.93250759410E+03  0.94312172472E+03  0.00000000000E+00 0.  1.
         21    1    1    2  502  501  0.69695172717E+00  0.21070711821E+00  0.59471284317E+00  0.94011837845E+00  0.00000000000E+00 0. -1.
<mgrwt>
<rscale>  1 0.58299830E+03</rscale>
<asrwt>0</asrwt>
<pdfrwt beam="1">  1        1 0.31183283E+00 0.58299830E+03</pdfrwt>
<pdfrwt beam="2">0</pdfrwt>
<totfact> 0.32904269E+00</totfact>
</mgrwt>
</event>
<event>
 6    1  0.2339725E-003  0.7088450E+03  0.7818608E-02  0.9702224E-01
          1   -1    0    0  502    0  0.00000000000E+00  0.00000000000E+00  0.12570105161E+03  0.12570105161E+03  0.00000000000E+00 0.  1.
         13   -1    0    0    0    0 -0.00000000000E+00 -0.00000000000E+00 -0.10000000000E+04  0.10000000000E+04  0.00000000000E+00 0.  1.
    9000005    2    1    2  501    0  0.39225673367E-03 -0.12671128387E-02 -0.87438466964E+03  0.11256153201E+04  0.70884504537E+03 0.  0.
         13    1    3    3    0    0  0.21906019755E+02 -0.53287759888E+02 -0.99251425099E+03  0.99418509216E+03  0.00000000000E+00 0.  1.
          3    1    3    3  501    0 -0.21905627498E+02  0.53286492775E+02  0.11812958135E+03  0.13143022795E+03  0.00000000000E+00 0.  1.
         21    1    1    2  502  501 -0.39225673366E-03  0.12671128387E-02  0.85721244259E-01  0.85731506213E-01  0.00000000000E+00 0.  1.
<mgrwt>
<rscale>  1 0.70884505E+03</rscale>
<asrwt>0</asrwt>
<pdfrwt beam="1">  1        1 0.45709570E+00 0.70884505E+03</pdfrwt>
<pdfrwt beam="2">0</pdfrwt>
<totfact> 0.72797840E-01</totfact>
</mgrwt>
</event>
<event>
 6    1  0.2339725E-003  0.6454489E+03  0.7818608E-02  0.9815357E-01
          1   -1    0    0  502    0  0.00000000000E+00  0.00000000000E+00  0.10415110030E+03  0.10415110030E+03  0.00000000000E+00 0.  1.
         13   -1    0    0    0    0 -0.00000000000E+00 -0.00000000000E+00 -0.10000000000E+04  0.10000000000E+04  0.00000000000E+00 0.  1.
    9000005    2    1    2  501    0 -0.23634449882E-05 -0.37452695381E-05 -0.89584891591E+03  0.11041510835E+04  0.64544894071E+03 0.  0.
         13    1    3    3    0    0  0.22579928055E+02 -0.25470578560E+03 -0.11110808706E+03  0.27880082026E+03  0.00000000000E+00 0.  1.
          1    1    3    3  501    0 -0.22579930418E+02  0.25470578185E+03 -0.78474082885E+03  0.82535026324E+03  0.00000000000E+00 0.  1.
         21    1    1    2  502  501  0.23634449875E-05  0.37452695545E-05  0.16207580692E-04  0.16801743604E-04  0.00000000000E+00 0.  1.
<mgrwt>
<rscale>  1 0.64544894E+03</rscale>
<asrwt>0</asrwt>
<pdfrwt beam="1">  1        1 0.37873207E+00 0.64544894E+03</pdfrwt>
<pdfrwt beam="2">0</pdfrwt>
<totfact> 0.16636317E+00</totfact>
</mgrwt>
</event>
