<event>
 6    1  0.8397183E-002  0.3000000E+03  0.7818608E-02  0.1093470E+00
         21   -1    0    0  501  502  0.00000000000E+00  0.00000000000E+00  0.11048335605E+01  0.11048335605E+01  0.00000000000E+00 0. -1.
         13   -1    0    0    0    0 -0.00000000000E+00 -0.00000000000E+00 -0.10000000000E+04  0.10000000000E+04  0.00000000000E+00 0.  1.
    9000005    2    1    2  501    0  0.31529159667E+02 -0.91491683605E+01 -0.55081566141E+03  0.55182425528E+03  0.58583847400E+01 0.  0.
         13    1    3    3    0    0  0.47288926059E+01 -0.22474204850E+01 -0.59559550001E+02  0.59789240842E+02  0.00000000000E+00 0.  1.
          1    1    3    3  501    0  0.26800267062E+02 -0.69017478754E+01 -0.49125611141E+03  0.49203501444E+03  0.00000000000E+00 0.  1.
         -1    1    1    2    0  502 -0.31529159667E+02  0.91491683605E+01 -0.44807950503E+03  0.44928057828E+03  0.00000000000E+00 0. -1.
<mgrwt>
<rscale>  1 0.30000000E+03</rscale>
<asrwt>0</asrwt>
<pdfrwt beam="1">  1       21 0.40175851E-02 0.30000000E+03</pdfrwt>
<pdfrwt beam="2">0</pdfrwt>
<totfact> 0.41737821E+04</totfact>
</mgrwt>
</event>
<event>
 6    1  0.8397183E-002  0.3000000E+03  0.7818608E-02  0.1093470E+00
         21   -1    0    0  501  502  0.00000000000E+00  0.00000000000E+00  0.13995017725E+01  0.13995017725E+01  0.00000000000E+00 0. -1.
         13   -1    0    0    0    0 -0.00000000000E+00 -0.00000000000E+00 -0.10000000000E+04  0.10000000000E+04  0.00000000000E+00 0.  1.
    9000005    2    1    2  501    0 -0.33944076964E+02  0.47757100822E+01 -0.30284750021E+03  0.30480260110E+03  0.36068670378E+01 0.  0.
         13    1    3    3    0    0 -0.32857399768E+02  0.52605783446E+01 -0.29180298984E+03  0.29369417305E+03  0.00000000000E+00 0.  1.
          3    1    3    3  501    0 -0.10866771957E+01 -0.48486826239E+00 -0.11044510363E+02  0.11108428049E+02  0.00000000000E+00 0.  1.
         -3    1    1    2    0  502  0.33944076964E+02 -0.47757100822E+01 -0.69575299802E+03  0.69659690067E+03  0.00000000000E+00 0. -1.
<mgrwt>
<rscale>  1 0.30000000E+03</rscale>
<asrwt>0</asrwt>
<pdfrwt beam="1">  1       21 0.50891081E-02 0.30000000E+03</pdfrwt>
<pdfrwt beam="2">0</pdfrwt>
<totfact> 0.27949803E+04</totfact>
</mgrwt>
</event>
<event>
 6    1  0.8397183E-002  0.3000000E+03  0.7818608E-02  0.1093470E+00
         21   -1    0    0  501  502  0.00000000000E+00  0.00000000000E+00  0.57577688905E+01  0.57577688905E+01  0.00000000000E+00 0. -1.
         13   -1    0    0    0    0 -0.00000000000E+00 -0.00000000000E+00 -0.10000000000E+04  0.10000000000E+04  0.00000000000E+00 0.  1.
    9000005    2    1    2  501    0  0.45410454672E+02 -0.29739533069E+02 -0.14616802726E+03  0.15594814053E+03  0.28602658487E+01 0.  0.
         13    1    3    3    0    0  0.28934334974E+02 -0.19538308343E+02 -0.97614291875E+02  0.10367010761E+03  0.00000000000E+00 0.  1.
          3    1    3    3  501    0  0.16476119698E+02 -0.10201224726E+02 -0.48553735382E+02  0.52278032918E+02  0.00000000000E+00 0.  1.
         -1    1    1    2    0  502 -0.45410454672E+02  0.29739533069E+02 -0.84807420385E+03  0.84980962836E+03  0.00000000000E+00 0. -1.
<mgrwt>
<rscale>  1 0.30000000E+03</rscale>
<asrwt>0</asrwt>
<pdfrwt beam="1">  1       21 0.20937386E-01 0.30000000E+03</pdfrwt>
<pdfrwt beam="2">0</pdfrwt>
<totfact> 0.21979663E+03</totfact>
</mgrwt>
</event>
<event>
 6    1  0.8397183E-002  0.3000000E+03  0.7818608E-02  0.1093470E+00
         21   -1    0    0  501  502  0.00000000000E+00  0.00000000000E+00  0.14502232878E+01  0.14502232878E+01  0.00000000000E+00 0. -1.
         13   -1    0    0    0    0 -0.00000000000E+00 -0.00000000000E+00 -0.10000000000E+04  0.10000000000E+04  0.00000000000E+00 0.  1.
    9000005    2    1    2  501    0 -0.69673496426E+01  0.33736327956E+02 -0.28868969493E+03  0.29075477551E+03  0.31489264501E+01 0.  0.
         13    1    3    3    0    0 -0.56231997268E+01  0.24697012886E+02 -0.22253421274E+03  0.22397106657E+03  0.00000000000E+00 0.  1.
          3    1    3    3  501    0 -0.13441499158E+01  0.90393150694E+01 -0.66155482187E+02  0.66783708936E+02  0.00000000000E+00 0.  1.
         -3    1    1    2    0  502  0.69673496426E+01 -0.33736327956E+02 -0.70986008179E+03  0.71069544778E+03  0.00000000000E+00 0. -1.
<mgrwt>
<rscale>  1 0.30000000E+03</rscale>
<asrwt>0</asrwt>
<pdfrwt beam="1">  1       21 0.52735503E-02 0.30000000E+03</pdfrwt>
<pdfrwt beam="2">0</pdfrwt>
<totfact> 0.26300919E+04</totfact>
</mgrwt>
</event>
<event>
 6    1  0.8397183E-002  0.3000000E+03  0.7818608E-02  0.1093470E+00
         21   -1    0    0  501  502  0.00000000000E+00  0.00000000000E+00  0.10834828955E+01  0.10834828955E+01  0.00000000000E+00 0. -1.
         13   -1    0    0    0    0 -0.00000000000E+00 -0.00000000000E+00 -0.10000000000E+04  0.10000000000E+04  0.00000000000E+00 0.  1.
    9000005    2    1    2  501    0 -0.32136401525E+02  0.36574318589E+01 -0.43214103330E+03  0.43338587488E+03  0.55963174010E+01 0.  0.
         13    1    3    3    0    0 -0.17965875512E+01 -0.82195991277E+00 -0.17223477819E+02  0.17336422154E+02  0.00000000000E+00 0.  1.
          3    1    3    3  501    0 -0.30339813974E+02  0.44793917717E+01 -0.41491755548E+03  0.41604945272E+03  0.00000000000E+00 0.  1.
         -3    1    1    2    0  502  0.32136401525E+02 -0.36574318589E+01 -0.56677548380E+03  0.56769760802E+03  0.00000000000E+00 0. -1.
<mgrwt>
<rscale>  1 0.30000000E+03</rscale>
<asrwt>0</asrwt>
<pdfrwt beam="1">  1       21 0.39399461E-02 0.30000000E+03</pdfrwt>
<pdfrwt beam="2">0</pdfrwt>
<totfact> 0.43131824E+04</totfact>
</mgrwt>
</event>
<event>
 6    1  0.8397183E-002  0.3000000E+03  0.7818608E-02  0.1093470E+00
         21   -1    0    0  501  502  0.00000000000E+00  0.00000000000E+00  0.10372760257E+01  0.10372760257E+01  0.00000000000E+00 0. -1.
         13   -1    0    0    0    0 -0.00000000000E+00 -0.00000000000E+00 -0.10000000000E+04  0.10000000000E+04  0.00000000000E+00 0.  1.
    9000005    2    1    2  501    0  0.13442141156E+02  0.28748214536E+02 -0.57835528154E+03  0.57923427505E+03  0.32191169640E+01 0.  0.
         13    1    3    3    0    0  0.10124479512E+02  0.22833194251E+02 -0.43119299084E+03  0.43191579641E+03  0.00000000000E+00 0.  1.
          1    1    3    3  501    0  0.33176616434E+01  0.59150202855E+01 -0.14716229070E+03  0.14731847864E+03  0.00000000000E+00 0.  1.
         -1    1    1    2    0  502 -0.13442141156E+02 -0.28748214536E+02 -0.42060744243E+03  0.42180300097E+03  0.00000000000E+00 0. -1.
<mgrwt>
<rscale>  1 0.30000000E+03</rscale>
<asrwt>0</asrwt>
<pdfrwt beam="1">  1       21 0.37719208E-02 0.30000000E+03</pdfrwt>
<pdfrwt beam="2">0</pdfrwt>
<totfact> 0.46410738E+04</totfact>
</mgrwt>
</event>
<event>
 6    1  0.8397183E-002  0.3000000E+03  0.7818608E-02  0.1093470E+00
         21   -1    0    0  501  502  0.00000000000E+00  0.00000000000E+00  0.64696714631E+01  0.64696714631E+01  0.00000000000E+00 0. -1.
         13   -1    0    0    0    0 -0.00000000000E+00 -0.00000000000E+00 -0.10000000000E+04  0.10000000000E+04  0.00000000000E+00 0.  1.
    9000005    2    1    2  501    0  0.74884081006E+02 -0.22529379954E+02 -0.38011871813E+03  0.38809357043E+03  0.33437980969E+01 0.  0.
         13    1    3    3    0    0  0.69407541689E+02 -0.20879619882E+02 -0.35634757664E+03  0.36364400276E+03  0.00000000000E+00 0.  1.
          1    1    3    3  501    0  0.54765393171E+01 -0.16497600721E+01 -0.23771141499E+02  0.24449567672E+02  0.00000000000E+00 0.  1.
         -1    1    1    2    0  502 -0.74884081006E+02  0.22529379954E+02 -0.61341161040E+03  0.61837610103E+03  0.00000000000E+00 0. -1.
<mgrwt>
<rscale>  1 0.30000000E+03</rscale>
<asrwt>0</asrwt>
<pdfrwt beam="1">  1       21 0.23526128E-01 0.30000000E+03</pdfrwt>
<pdfrwt beam="2">0</pdfrwt>
<totfact> 0.17556297E+03</totfact>
</mgrwt>
</event>
<event>
 6    1  0.8397183E-002  0.3000000E+03  0.7818608E-02  0.1093470E+00
         21   -1    0    0  501  502  0.00000000000E+00  0.00000000000E+00  0.11865981401E+01  0.11865981401E+01  0.00000000000E+00 0. -1.
         13   -1    0    0    0    0 -0.00000000000E+00 -0.00000000000E+00 -0.10000000000E+04  0.10000000000E+04  0.00000000000E+00 0.  1.
    9000005    2    1    2  501    0 -0.21672020705E+02 -0.25430269800E+02 -0.38323987040E+03  0.38470695717E+03  0.32046096294E+01 0.  0.
         13    1    3    3    0    0 -0.17275467110E+01 -0.30678722625E+01 -0.32825082212E+02  0.33013365173E+02  0.00000000000E+00 0.  1.
          3    1    3    3  501    0 -0.19944473994E+02 -0.22362397538E+02 -0.35041478819E+03  0.35169359199E+03  0.00000000000E+00 0.  1.
         -1    1    1    2    0  502  0.21672020705E+02  0.25430269800E+02 -0.61557353146E+03  0.61647964097E+03  0.00000000000E+00 0. -1.
<mgrwt>
<rscale>  1 0.30000000E+03</rscale>
<asrwt>0</asrwt>
<pdfrwt beam="1">  1       21 0.43149114E-02 0.30000000E+03</pdfrwt>
<pdfrwt beam="2">0</pdfrwt>
<totfact> 0.36999466E+04</totfact>
</mgrwt>
</event>
<event>
 6    1  0.8397183E-002  0.3000000E+03  0.7818608E-02  0.1093470E+00
         21   -1    0    0  501  502  0.00000000000E+00  0.00000000000E+00  0.26829341475E+01  0.26829341475E+01  0.00000000000E+00 0. -1.
         13   -1    0    0    0    0 -0.00000000000E+00 -0.00000000000E+00 -0.10000000000E+04  0.10000000000E+04  0.00000000000E+00 0.  1.
    9000005    2    1    2  501    0  0.27006262619E+02  0.38975606718E+02 -0.29879383169E+03  0.30255212865E+03  0.34059588719E+01 0.  0.
         13    1    3    3    0    0  0.60141195118E+01  0.65863354386E+01 -0.59910159063E+02  0.60570426835E+02  0.00000000000E+00 0.  1.
          1    1    3    3  501    0  0.20992143107E+02  0.32389271280E+02 -0.23888367263E+03  0.24198170182E+03  0.00000000000E+00 0.  1.
         -3    1    1    2    0  502 -0.27006262619E+02 -0.38975606718E+02 -0.69852323416E+03  0.70013080550E+03  0.00000000000E+00 0. -1.
<mgrwt>
<rscale>  1 0.30000000E+03</rscale>
<asrwt>0</asrwt>
<pdfrwt beam="1">  1       21 0.97561447E-02 0.30000000E+03</pdfrwt>
<pdfrwt beam="2">0</pdfrwt>
<totfact> 0.89909239E+03</totfact>
</mgrwt>
</event>
<event>
 6    1  0.8397183E-002  0.3000000E+03  0.7818608E-02  0.1093470E+00
         21   -1    0    0  501  502  0.00000000000E+00  0.00000000000E+00  0.12695113809E+01  0.12695113809E+01  0.00000000000E+00 0. -1.
         13   -1    0    0    0    0 -0.00000000000E+00 -0.00000000000E+00 -0.10000000000E+04  0.10000000000E+04  0.00000000000E+00 0.  1.
    9000005    2    1    2  501    0 -0.28409451057E+02  0.19697120052E+02 -0.57892342851E+03  0.58004149573E+03  0.10036296561E+02 0.  0.
         13    1    3    3    0    0 -0.15271668571E+02  0.10199463461E+02 -0.22554109805E+03  0.22628751584E+03  0.00000000000E+00 0.  1.
          1    1    3    3  501    0 -0.13137782487E+02  0.94976565910E+01 -0.35338233046E+03  0.35375397990E+03  0.00000000000E+00 0.  1.
         -3    1    1    2    0  502  0.28409451057E+02 -0.19697120052E+02 -0.41980706011E+03  0.42122801565E+03  0.00000000000E+00 0. -1.
<mgrwt>
<rscale>  1 0.30000000E+03</rscale>
<asrwt>0</asrwt>
<pdfrwt beam="1">  1       21 0.46164148E-02 0.30000000E+03</pdfrwt>
<pdfrwt beam="2">0</pdfrwt>
<totfact> 0.32995484E+04</totfact>
</mgrwt>
</event>
<event>
 6    1  0.1604459E-001  0.3000000E+03  0.7818608E-02  0.1093470E+00
         21   -1    0    0  501  502  0.00000000000E+00  0.00000000000E+00  0.25589150045E+01  0.25589150045E+01  0.00000000000E+00 0. -1.
         13   -1    0    0    0    0 -0.00000000000E+00 -0.00000000000E+00 -0.10000000000E+04  0.10000000000E+04  0.00000000000E+00 0.  1.
    9000005    2    1    2  501    0  0.24573995224E+02 -0.41347339273E+02 -0.64111125904E+03  0.64299747579E+03  0.10422269197E+02 0.  0.
         13    1    3    3    0    0  0.71757918308E+01 -0.46780012718E+01 -0.10004312551E+03  0.10040917610E+03  0.00000000000E+00 0.  1.
          1    1    3    3  501    0  0.17398203393E+02 -0.36669338001E+02 -0.54106813353E+03  0.54258829968E+03  0.00000000000E+00 0.  1.
         -1    1    1    2    0  502 -0.24573995224E+02  0.41347339273E+02 -0.35632982596E+03  0.35956143922E+03  0.00000000000E+00 0. -1.
<mgrwt>
<rscale>  1 0.30000000E+03</rscale>
<asrwt>0</asrwt>
<pdfrwt beam="1">  1       21 0.93051651E-02 0.30000000E+03</pdfrwt>
<pdfrwt beam="2">0</pdfrwt>
<totfact> 0.97818330E+03</totfact>
</mgrwt>
</event>
<event>
 6    1  0.8397183E-002  0.3000000E+03  0.7818608E-02  0.1093470E+00
         21   -1    0    0  501  502  0.00000000000E+00  0.00000000000E+00  0.38297482748E+01  0.38297482748E+01  0.00000000000E+00 0. -1.
         13   -1    0    0    0    0 -0.00000000000E+00 -0.00000000000E+00 -0.10000000000E+04  0.10000000000E+04  0.00000000000E+00 0.  1.
    9000005    2    1    2  501    0  0.48072719387E+02 -0.37675074540E+02 -0.41972638086E+03  0.42415920922E+03  0.32252728085E+01 0.  0.
         13    1    3    3    0    0  0.45616628204E+02 -0.35276190441E+02 -0.40022347859E+03  0.40435642594E+03  0.00000000000E+00 0.  1.
          3    1    3    3  501    0  0.24560911829E+01 -0.23988840988E+01 -0.19502902264E+02  0.19802783277E+02  0.00000000000E+00 0.  1.
         -3    1    1    2    0  502 -0.48072719387E+02  0.37675074540E+02 -0.57644387087E+03  0.57967053906E+03  0.00000000000E+00 0. -1.
<mgrwt>
<rscale>  1 0.30000000E+03</rscale>
<asrwt>0</asrwt>
<pdfrwt beam="1">  1       21 0.13926387E-01 0.30000000E+03</pdfrwt>
<pdfrwt beam="2">0</pdfrwt>
<totfact> 0.47221859E+03</totfact>
</mgrwt>
</event>
<event>
 6    1  0.8397183E-002  0.3000000E+03  0.7818608E-02  0.1093470E+00
         21   -1    0    0  501  502  0.00000000000E+00  0.00000000000E+00  0.22593882314E+01  0.22593882314E+01  0.00000000000E+00 0. -1.
         13   -1    0    0    0    0 -0.00000000000E+00 -0.00000000000E+00 -0.10000000000E+04  0.10000000000E+04  0.00000000000E+00 0.  1.
    9000005    2    1    2  501    0  0.36882921516E+02  0.29121170961E+02 -0.57025519404E+03  0.57219872406E+03  0.34642441581E+01 0.  0.
         13    1    3    3    0    0  0.14196429968E+02  0.12089572314E+02 -0.24522684047E+03  0.24593474677E+03  0.00000000000E+00 0.  1.
          1    1    3    3  501    0  0.22686491548E+02  0.17031598647E+02 -0.32502835357E+03  0.32626397728E+03  0.00000000000E+00 0.  1.
         -3    1    1    2    0  502 -0.36882921516E+02 -0.29121170961E+02 -0.42748541773E+03  0.43006066418E+03  0.00000000000E+00 0. -1.
<mgrwt>
<rscale>  1 0.30000000E+03</rscale>
<asrwt>0</asrwt>
<pdfrwt beam="1">  1       21 0.82159745E-02 0.30000000E+03</pdfrwt>
<pdfrwt beam="2">0</pdfrwt>
<totfact> 0.12189497E+04</totfact>
</mgrwt>
</event>
<event>
 6    1  0.8397183E-002  0.3000000E+03  0.7818608E-02  0.1093470E+00
         21   -1    0    0  501  502  0.00000000000E+00  0.00000000000E+00  0.10593383910E+01  0.10593383910E+01  0.00000000000E+00 0. -1.
         13   -1    0    0    0    0 -0.00000000000E+00 -0.00000000000E+00 -0.10000000000E+04  0.10000000000E+04  0.00000000000E+00 0.  1.
    9000005    2    1    2  501    0  0.85974601171E+01  0.31080768929E+02 -0.56109752371E+03  0.56203024605E+03  0.27633027831E+01 0.  0.
         13    1    3    3    0    0  0.43656306020E+01  0.13819999447E+02 -0.23014456755E+03  0.23060046203E+03  0.00000000000E+00 0.  1.
          1    1    3    3  501    0  0.42318295151E+01  0.17260769482E+02 -0.33095295616E+03  0.33142978402E+03  0.00000000000E+00 0.  1.
         -3    1    1    2    0  502 -0.85974601171E+01 -0.31080768929E+02 -0.43784313790E+03  0.43902909234E+03  0.00000000000E+00 0. -1.
<mgrwt>
<rscale>  1 0.30000000E+03</rscale>
<asrwt>0</asrwt>
<pdfrwt beam="1">  1       21 0.38521477E-02 0.30000000E+03</pdfrwt>
<pdfrwt beam="2">0</pdfrwt>
<totfact> 0.44798079E+04</totfact>
</mgrwt>
</event>
<event>
 6    1  0.8397183E-002  0.3000000E+03  0.7818608E-02  0.1093470E+00
         21   -1    0    0  501  502  0.00000000000E+00  0.00000000000E+00  0.83317060246E+01  0.83317060246E+01  0.00000000000E+00 0. -1.
         13   -1    0    0    0    0 -0.00000000000E+00 -0.00000000000E+00 -0.10000000000E+04  0.10000000000E+04  0.00000000000E+00 0.  1.
    9000005    2    1    2  501    0  0.40552856724E+02  0.22877839650E+02 -0.92945573576E+03  0.93062500017E+03  0.26450828448E+01 0.  0.
         13    1    3    3    0    0  0.87057193282E+01  0.40575933697E+01 -0.17668354371E+03  0.17694442130E+03  0.00000000000E+00 0.  1.
          3    1    3    3  501    0  0.31847137395E+02  0.18820246281E+02 -0.75277219205E+03  0.75368057886E+03  0.00000000000E+00 0.  1.
         -1    1    1    2    0  502 -0.40552856724E+02 -0.22877839650E+02 -0.62212558215E+02  0.77706705857E+02  0.00000000000E+00 0. -1.
<mgrwt>
<rscale>  1 0.30000000E+03</rscale>
<asrwt>0</asrwt>
<pdfrwt beam="1">  1       21 0.30297177E-01 0.30000000E+03</pdfrwt>
<pdfrwt beam="2">0</pdfrwt>
<totfact> 0.10660345E+03</totfact>
</mgrwt>
</event>
<event>
 6    1  0.8397183E-002  0.3000000E+03  0.7818608E-02  0.1093470E+00
         21   -1    0    0  501  502  0.00000000000E+00  0.00000000000E+00  0.13686059729E+01  0.13686059729E+01  0.00000000000E+00 0. -1.
         13   -1    0    0    0    0 -0.00000000000E+00 -0.00000000000E+00 -0.10000000000E+04  0.10000000000E+04  0.00000000000E+00 0.  1.
    9000005    2    1    2  501    0 -0.31954610010E+02  0.15061119747E+00 -0.75021554936E+03  0.75090593078E+03  0.39021263075E+01 0.  0.
         13    1    3    3    0    0 -0.24362402987E+02  0.17548312876E+01 -0.57594044575E+03  0.57645815387E+03  0.00000000000E+00 0.  1.
          1    1    3    3  501    0 -0.75922070233E+01 -0.16042200901E+01 -0.17427510361E+03  0.17444777691E+03  0.00000000000E+00 0.  1.
         -1    1    1    2    0  502  0.31954610010E+02 -0.15061119747E+00 -0.24841584467E+03  0.25046267520E+03  0.00000000000E+00 0. -1.
<mgrwt>
<rscale>  1 0.30000000E+03</rscale>
<asrwt>0</asrwt>
<pdfrwt beam="1">  1       21 0.49767595E-02 0.30000000E+03</pdfrwt>
<pdfrwt beam="2">0</pdfrwt>
<totfact> 0.29034312E+04</totfact>
</mgrwt>
</event>
<event>
 6    1  0.8397183E-002  0.3000000E+03  0.7818608E-02  0.1093470E+00
         21   -1    0    0  501  502  0.00000000000E+00  0.00000000000E+00  0.18721556378E+01  0.18721556378E+01  0.00000000000E+00 0. -1.
         13   -1    0    0    0    0 -0.00000000000E+00 -0.00000000000E+00 -0.10000000000E+04  0.10000000000E+04  0.00000000000E+00 0.  1.
    9000005    2    1    2  501    0  0.21388222063E+02  0.27172063659E+02 -0.20011346401E+03  0.20310890639E+03  0.34716413673E+01 0.  0.
         13    1    3    3    0    0  0.13353503231E+02  0.14248874659E+02 -0.11468901113E+03  0.11633965683E+03  0.00000000000E+00 0.  1.
          3    1    3    3  501    0  0.80347188315E+01  0.12923189000E+02 -0.85424452881E+02  0.86769249568E+02  0.00000000000E+00 0.  1.
         -3    1    1    2    0  502 -0.21388222063E+02 -0.27172063659E+02 -0.79801438036E+03  0.79876324924E+03  0.00000000000E+00 0. -1.
<mgrwt>
<rscale>  1 0.30000000E+03</rscale>
<asrwt>0</asrwt>
<pdfrwt beam="1">  1       21 0.68078530E-02 0.30000000E+03</pdfrwt>
<pdfrwt beam="2">0</pdfrwt>
<totfact> 0.16935218E+04</totfact>
</mgrwt>
</event>
<event>
 6    1  0.8397183E-002  0.3000000E+03  0.7818608E-02  0.1093470E+00
         21   -1    0    0  501  502  0.00000000000E+00  0.00000000000E+00  0.27873439351E+01  0.27873439351E+01  0.00000000000E+00 0. -1.
         13   -1    0    0    0    0 -0.00000000000E+00 -0.00000000000E+00 -0.10000000000E+04  0.10000000000E+04  0.00000000000E+00 0.  1.
    9000005    2    1    2  501    0 -0.32246342543E+02 -0.33031690480E+02 -0.25668074694E+03  0.26081805372E+03  0.31830984257E+01 0.  0.
         13    1    3    3    0    0 -0.29455281248E+02 -0.30267992267E+02 -0.23935712563E+03  0.24305472334E+03  0.00000000000E+00 0.  1.
          3    1    3    3  501    0 -0.27910612946E+01 -0.27636982130E+01 -0.17323621307E+02  0.17763330379E+02  0.00000000000E+00 0.  1.
         -1    1    1    2    0  502  0.32246342543E+02  0.33031690480E+02 -0.74053190913E+03  0.74196929021E+03  0.00000000000E+00 0. -1.
<mgrwt>
<rscale>  1 0.30000000E+03</rscale>
<asrwt>0</asrwt>
<pdfrwt beam="1">  1       21 0.10135818E-01 0.30000000E+03</pdfrwt>
<pdfrwt beam="2">0</pdfrwt>
<totfact> 0.83982141E+03</totfact>
</mgrwt>
</event>
<event>
 6    1  0.8397183E-002  0.3000000E+03  0.7818608E-02  0.1093470E+00
         21   -1    0    0  501  502  0.00000000000E+00  0.00000000000E+00  0.24103727988E+01  0.24103727988E+01  0.00000000000E+00 0. -1.
         13   -1    0    0    0    0 -0.00000000000E+00 -0.00000000000E+00 -0.10000000000E+04  0.10000000000E+04  0.00000000000E+00 0.  1.
    9000005    2    1    2  501    0  0.17030346066E+02 -0.45569837215E+02 -0.43819711133E+03  0.44090647293E+03  0.38944506604E+01 0.  0.
         13    1    3    3    0    0  0.19043105826E+01 -0.95141266928E+01 -0.88215513401E+02  0.88747517205E+02  0.00000000000E+00 0.  1.
          3    1    3    3  501    0  0.15126035483E+02 -0.36055710522E+02 -0.34998159793E+03  0.35215895573E+03  0.00000000000E+00 0.  1.
         -1    1    1    2    0  502 -0.17030346066E+02  0.45569837215E+02 -0.55939251587E+03  0.56150389986E+03  0.00000000000E+00 0. -1.
<mgrwt>
<rscale>  1 0.30000000E+03</rscale>
<asrwt>0</asrwt>
<pdfrwt beam="1">  1       21 0.87650105E-02 0.30000000E+03</pdfrwt>
<pdfrwt beam="2">0</pdfrwt>
<totfact> 0.10875522E+04</totfact>
</mgrwt>
</event>
<event>
 6    1  0.8397183E-002  0.3000000E+03  0.7818608E-02  0.1093470E+00
         21   -1    0    0  501  502  0.00000000000E+00  0.00000000000E+00  0.12331165578E+01  0.12331165578E+01  0.00000000000E+00 0. -1.
         13   -1    0    0    0    0 -0.00000000000E+00 -0.00000000000E+00 -0.10000000000E+04  0.10000000000E+04  0.00000000000E+00 0.  1.
    9000005    2    1    2  501    0  0.31272838577E+02  0.14493575148E+02 -0.41113162206E+03  0.41258784598E+03  0.33861246113E+01 0.  0.
         13    1    3    3    0    0  0.67414540345E+01  0.24551890501E+01 -0.71706645221E+02  0.72064680146E+02  0.00000000000E+00 0.  1.
          1    1    3    3  501    0  0.24531384542E+02  0.12038386098E+02 -0.33942497684E+03  0.34052316583E+03  0.00000000000E+00 0.  1.
         -1    1    1    2    0  502 -0.31272838577E+02 -0.14493575148E+02 -0.58763526138E+03  0.58864527058E+03  0.00000000000E+00 0. -1.
<mgrwt>
<rscale>  1 0.30000000E+03</rscale>
<asrwt>0</asrwt>
<pdfrwt beam="1">  1       21 0.44840697E-02 0.30000000E+03</pdfrwt>
<pdfrwt beam="2">0</pdfrwt>
<totfact> 0.34666148E+04</totfact>
</mgrwt>
</event>
<event>
 6    1  0.8397183E-002  0.3000000E+03  0.7818608E-02  0.1093470E+00
         21   -1    0    0  501  502  0.00000000000E+00  0.00000000000E+00  0.25870512385E+01  0.25870512385E+01  0.00000000000E+00 0. -1.
         13   -1    0    0    0    0 -0.00000000000E+00 -0.00000000000E+00 -0.10000000000E+04  0.10000000000E+04  0.00000000000E+00 0.  1.
    9000005    2    1    2  501    0  0.37890153151E+02  0.33427394445E+02 -0.45015610280E+03  0.45300256287E+03  0.42131546441E+01 0.  0.
         13    1    3    3    0    0  0.17764515096E+02  0.17808219563E+02 -0.21142850427E+03  0.21291952259E+03  0.00000000000E+00 0.  1.
          3    1    3    3  501    0  0.20125638055E+02  0.15619174883E+02 -0.23872759853E+03  0.24008304028E+03  0.00000000000E+00 0.  1.
         -1    1    1    2    0  502 -0.37890153151E+02 -0.33427394445E+02 -0.54725684596E+03  0.54958448837E+03  0.00000000000E+00 0. -1.
<mgrwt>
<rscale>  1 0.30000000E+03</rscale>
<asrwt>0</asrwt>
<pdfrwt beam="1">  1       21 0.94074789E-02 0.30000000E+03</pdfrwt>
<pdfrwt beam="2">0</pdfrwt>
<totfact> 0.95934363E+03</totfact>
</mgrwt>
</event>
<event>
 6    1  0.8397183E-002  0.3000000E+03  0.7818608E-02  0.1093470E+00
         21   -1    0    0  501  502  0.00000000000E+00  0.00000000000E+00  0.10148452741E+01  0.10148452741E+01  0.00000000000E+00 0. -1.
         13   -1    0    0    0    0 -0.00000000000E+00 -0.00000000000E+00 -0.10000000000E+04  0.10000000000E+04  0.00000000000E+00 0.  1.
    9000005    2    1    2  501    0 -0.21255489767E+02  0.23358017109E+02 -0.53991402272E+03  0.54085867933E+03  0.48545109230E+01 0.  0.
         13    1    3    3    0    0 -0.60567640503E+00  0.25987738615E+01 -0.42988659501E+02  0.43071397878E+02  0.00000000000E+00 0.  1.
          1    1    3    3  501    0 -0.20649813362E+02  0.20759243247E+02 -0.49692536322E+03  0.49778728146E+03  0.00000000000E+00 0.  1.
         -3    1    1    2    0  502  0.21255489767E+02 -0.23358017109E+02 -0.45907113201E+03  0.46015616594E+03  0.00000000000E+00 0. -1.
<mgrwt>
<rscale>  1 0.30000000E+03</rscale>
<asrwt>0</asrwt>
<pdfrwt beam="1">  1       21 0.36903542E-02 0.30000000E+03</pdfrwt>
<pdfrwt beam="2">0</pdfrwt>
<totfact> 0.48145914E+04</totfact>
</mgrwt>
</event>
<event>
 6    1  0.8397183E-002  0.3000000E+03  0.7818608E-02  0.1093470E+00
         21   -1    0    0  501  502  0.00000000000E+00  0.00000000000E+00  0.30300427547E+01  0.30300427547E+01  0.00000000000E+00 0. -1.
         13   -1    0    0    0    0 -0.00000000000E+00 -0.00000000000E+00 -0.10000000000E+04  0.10000000000E+04  0.00000000000E+00 0.  1.
    9000005    2    1    2  501    0 -0.27979546346E+02 -0.45760889304E+02 -0.39068292428E+03  0.39437506631E+03  0.46509787023E+01 0.  0.
         13    1    3    3    0    0 -0.24505623945E+02 -0.41967501911E+02 -0.35967907615E+03  0.36294742683E+03  0.00000000000E+00 0.  1.
          3    1    3    3  501    0 -0.34739224017E+01 -0.37933873927E+01 -0.31003848128E+02  0.31427639484E+02  0.00000000000E+00 0.  1.
         -1    1    1    2    0  502  0.27979546346E+02  0.45760889304E+02 -0.60628703297E+03  0.60865497644E+03  0.00000000000E+00 0. -1.
<mgrwt>
<rscale>  1 0.30000000E+03</rscale>
<asrwt>0</asrwt>
<pdfrwt beam="1">  1       21 0.11018361E-01 0.30000000E+03</pdfrwt>
<pdfrwt beam="2">0</pdfrwt>
<totfact> 0.72302941E+03</totfact>
</mgrwt>
</event>
<event>
 6    1  0.8397183E-002  0.3000000E+03  0.7818608E-02  0.1093470E+00
         21   -1    0    0  501  502  0.00000000000E+00  0.00000000000E+00  0.11580420255E+02  0.11580420255E+02  0.00000000000E+00 0. -1.
         13   -1    0    0    0    0 -0.00000000000E+00 -0.00000000000E+00 -0.10000000000E+04  0.10000000000E+04  0.00000000000E+00 0.  1.
    9000005    2    1    2  501    0  0.50666959881E+02  0.50110658220E+02 -0.11622074220E+03  0.13647526594E+03  0.63260102035E+01 0.  0.
         13    1    3    3    0    0  0.10701292913E+02  0.77410706040E+01 -0.24227096290E+02  0.27593369471E+02  0.00000000000E+00 0.  1.
          3    1    3    3  501    0  0.39965666967E+02  0.42369587616E+02 -0.91993645906E+02  0.10888189647E+03  0.00000000000E+00 0.  1.
         -3    1    1    2    0  502 -0.50666959881E+02 -0.50110658220E+02 -0.87219883755E+03  0.87510515432E+03  0.00000000000E+00 0. -1.
<mgrwt>
<rscale>  1 0.30000000E+03</rscale>
<asrwt>0</asrwt>
<pdfrwt beam="1">  1       21 0.42110708E-01 0.30000000E+03</pdfrwt>
<pdfrwt beam="2">0</pdfrwt>
<totfact> 0.54222292E+02</totfact>
</mgrwt>
</event>
<event>
 6    1  0.8397183E-002  0.3000000E+03  0.7818608E-02  0.1093470E+00
         21   -1    0    0  501  502  0.00000000000E+00  0.00000000000E+00  0.10840358246E+01  0.10840358246E+01  0.00000000000E+00 0. -1.
         13   -1    0    0    0    0 -0.00000000000E+00 -0.00000000000E+00 -0.10000000000E+04  0.10000000000E+04  0.00000000000E+00 0.  1.
    9000005    2    1    2  501    0 -0.84361888930E+01  0.29622691379E+02 -0.67400342411E+03  0.67471487089E+03  0.32966895612E+01 0.  0.
         13    1    3    3    0    0 -0.17718460789E+01  0.63581257810E+01 -0.17614829981E+03  0.17627191701E+03  0.00000000000E+00 0.  1.
          3    1    3    3  501    0 -0.66643428141E+01  0.23264565598E+02 -0.49785512430E+03  0.49844295388E+03  0.00000000000E+00 0.  1.
         -3    1    1    2    0  502  0.84361888930E+01 -0.29622691379E+02 -0.32491254007E+03  0.32636916494E+03  0.00000000000E+00 0. -1.
<mgrwt>
<rscale>  1 0.30000000E+03</rscale>
<asrwt>0</asrwt>
<pdfrwt beam="1">  1       21 0.39419568E-02 0.30000000E+03</pdfrwt>
<pdfrwt beam="2">0</pdfrwt>
<totfact> 0.43094809E+04</totfact>
</mgrwt>
</event>
<event>
 6    1  0.8397183E-002  0.3000000E+03  0.7818608E-02  0.1093470E+00
         21   -1    0    0  501  502  0.00000000000E+00  0.00000000000E+00  0.12648070616E+01  0.12648070616E+01  0.00000000000E+00 0. -1.
         13   -1    0    0    0    0 -0.00000000000E+00 -0.00000000000E+00 -0.10000000000E+04  0.10000000000E+04  0.00000000000E+00 0.  1.
    9000005    2    1    2  501    0  0.21986388225E+02 -0.22642907878E+02 -0.27011897773E+03  0.27196535443E+03  0.21884551592E+01 0.  0.
         13    1    3    3    0    0  0.20045445643E+02 -0.20682539983E+02 -0.24064102820E+03  0.24235860167E+03  0.00000000000E+00 0.  1.
          3    1    3    3  501    0  0.19409425818E+01 -0.19603678948E+01 -0.29477949525E+02  0.29606752753E+02  0.00000000000E+00 0.  1.
         -1    1    1    2    0  502 -0.21986388225E+02  0.22642907878E+02 -0.72861621521E+03  0.72929945264E+03  0.00000000000E+00 0. -1.
<mgrwt>
<rscale>  1 0.30000000E+03</rscale>
<asrwt>0</asrwt>
<pdfrwt beam="1">  1       21 0.45993081E-02 0.30000000E+03</pdfrwt>
<pdfrwt beam="2">0</pdfrwt>
<totfact> 0.33204269E+04</totfact>
</mgrwt>
</event>
<event>
 6    1  0.8397183E-002  0.3000000E+03  0.7818608E-02  0.1093470E+00
         21   -1    0    0  501  502  0.00000000000E+00  0.00000000000E+00  0.93259066607E+00  0.93259066607E+00  0.00000000000E+00 0. -1.
         13   -1    0    0    0    0 -0.00000000000E+00 -0.00000000000E+00 -0.10000000000E+04  0.10000000000E+04  0.00000000000E+00 0.  1.
    9000005    2    1    2  501    0  0.15737651037E+02  0.26072439817E+02 -0.51385536513E+03  0.51476577401E+03  0.30033381015E+01 0.  0.
         13    1    3    3    0    0  0.74543274749E+01  0.12444705534E+02 -0.21966715887E+03  0.22014562993E+03  0.00000000000E+00 0.  1.
          3    1    3    3  501    0  0.82833235617E+01  0.13627734284E+02 -0.29418820626E+03  0.29462014407E+03  0.00000000000E+00 0.  1.
         -1    1    1    2    0  502 -0.15737651037E+02 -0.26072439817E+02 -0.48521204421E+03  0.48616681666E+03  0.00000000000E+00 0. -1.
<mgrwt>
<rscale>  1 0.30000000E+03</rscale>
<asrwt>0</asrwt>
<pdfrwt beam="1">  1       21 0.33912459E-02 0.30000000E+03</pdfrwt>
<pdfrwt beam="2">0</pdfrwt>
<totfact> 0.55469460E+04</totfact>
</mgrwt>
</event>
<event>
 6    1  0.8397183E-002  0.3000000E+03  0.7818608E-02  0.1093470E+00
         21   -1    0    0  501  502  0.00000000000E+00  0.00000000000E+00  0.21118862890E+01  0.21118862890E+01  0.00000000000E+00 0. -1.
         13   -1    0    0    0    0 -0.00000000000E+00 -0.00000000000E+00 -0.10000000000E+04  0.10000000000E+04  0.00000000000E+00 0.  1.
    9000005    2    1    2  501    0  0.42181232754E+02  0.16108677371E+02 -0.41026989982E+03  0.41276147170E+03  0.34490485608E+01 0.  0.
         13    1    3    3    0    0  0.37065233589E+02  0.14599997697E+02 -0.37048552657E+03  0.37262114389E+03  0.00000000000E+00 0.  1.
          3    1    3    3  501    0  0.51159991643E+01  0.15086796736E+01 -0.39784373247E+02  0.40140327808E+02  0.00000000000E+00 0.  1.
         -3    1    1    2    0  502 -0.42181232754E+02 -0.16108677371E+02 -0.58761821389E+03  0.58935041459E+03  0.00000000000E+00 0. -1.
<mgrwt>
<rscale>  1 0.30000000E+03</rscale>
<asrwt>0</asrwt>
<pdfrwt beam="1">  1       21 0.76796027E-02 0.30000000E+03</pdfrwt>
<pdfrwt beam="2">0</pdfrwt>
<totfact> 0.13723587E+04</totfact>
</mgrwt>
</event>
<event>
 6    1  0.8397183E-002  0.3000000E+03  0.7818608E-02  0.1093470E+00
         21   -1    0    0  501  502  0.00000000000E+00  0.00000000000E+00  0.15014584258E+01  0.15014584258E+01  0.00000000000E+00 0. -1.
         13   -1    0    0    0    0 -0.00000000000E+00 -0.00000000000E+00 -0.10000000000E+04  0.10000000000E+04  0.00000000000E+00 0.  1.
    9000005    2    1    2  501    0  0.59576199091E+01  0.36490553960E+02 -0.64719456798E+03  0.64825715822E+03  0.30790583298E+01 0.  0.
         13    1    3    3    0    0  0.23155437435E+01  0.13500793990E+02 -0.21442441385E+03  0.21486149593E+03  0.00000000000E+00 0.  1.
          1    1    3    3  501    0  0.36420761656E+01  0.22989759970E+02 -0.43277015413E+03  0.43339566229E+03  0.00000000000E+00 0.  1.
         -1    1    1    2    0  502 -0.59576199091E+01 -0.36490553960E+02 -0.35130397359E+03  0.35324430020E+03  0.00000000000E+00 0. -1.
<mgrwt>
<rscale>  1 0.30000000E+03</rscale>
<asrwt>0</asrwt>
<pdfrwt beam="1">  1       21 0.54598603E-02 0.30000000E+03</pdfrwt>
<pdfrwt beam="2">0</pdfrwt>
<totfact> 0.24783395E+04</totfact>
</mgrwt>
</event>
<event>
 6    1  0.8423902E-002  0.3000000E+03  0.7818608E-02  0.1093470E+00
         21   -1    0    0  501  502  0.00000000000E+00  0.00000000000E+00  0.32617421956E+01  0.32617421956E+01  0.00000000000E+00 0. -1.
         13   -1    0    0    0    0 -0.00000000000E+00 -0.00000000000E+00 -0.10000000000E+04  0.10000000000E+04  0.00000000000E+00 0.  1.
    9000005    2    1    2  501    0  0.39422162840E+02 -0.37146603218E+02 -0.65411860275E+03  0.65638682946E+03  0.62085727376E+01 0.  0.
         13    1    3    3    0    0  0.16793562689E+02 -0.11865718340E+02 -0.25734888680E+03  0.25816906972E+03  0.00000000000E+00 0.  1.
          3    1    3    3  501    0  0.22628600151E+02 -0.25280884878E+02 -0.39676971594E+03  0.39821775974E+03  0.00000000000E+00 0.  1.
         -3    1    1    2    0  502 -0.39422162840E+02  0.37146603218E+02 -0.34261965506E+03  0.34687491274E+03  0.00000000000E+00 0. -1.
<mgrwt>
<rscale>  1 0.30000000E+03</rscale>
<asrwt>0</asrwt>
<pdfrwt beam="1">  1       21 0.11860906E-01 0.30000000E+03</pdfrwt>
<pdfrwt beam="2">0</pdfrwt>
<totfact> 0.63295583E+03</totfact>
</mgrwt>
</event>
<event>
 6    1  0.8397183E-002  0.3000000E+03  0.7818608E-02  0.1093470E+00
         21   -1    0    0  501  502  0.00000000000E+00  0.00000000000E+00  0.11055345842E+01  0.11055345842E+01  0.00000000000E+00 0. -1.
         13   -1    0    0    0    0 -0.00000000000E+00 -0.00000000000E+00 -0.10000000000E+04  0.10000000000E+04  0.00000000000E+00 0.  1.
    9000005    2    1    2  501    0 -0.28088443869E+02 -0.17467983157E+02 -0.53274702236E+03  0.53378601885E+03  0.37460614596E+01 0.  0.
         13    1    3    3    0    0 -0.36774561845E+01 -0.98795606531E+00 -0.54414675295E+02  0.54547746320E+02  0.00000000000E+00 0.  1.
          3    1    3    3  501    0 -0.24410987684E+02 -0.16480027091E+02 -0.47833234706E+03  0.47923827253E+03  0.00000000000E+00 0.  1.
         -1    1    1    2    0  502  0.28088443869E+02  0.17467983157E+02 -0.46614744306E+03  0.46731951573E+03  0.00000000000E+00 0. -1.
<mgrwt>
<rscale>  1 0.30000000E+03</rscale>
<asrwt>0</asrwt>
<pdfrwt beam="1">  1       21 0.40201342E-02 0.30000000E+03</pdfrwt>
<pdfrwt beam="2">0</pdfrwt>
<totfact> 0.41693250E+04</totfact>
</mgrwt>
</event>
<event>
 6    1  0.8397183E-002  0.3000000E+03  0.7818608E-02  0.1093470E+00
         21   -1    0    0  501  502  0.00000000000E+00  0.00000000000E+00  0.11317098749E+01  0.11317098749E+01  0.00000000000E+00 0. -1.
         13   -1    0    0    0    0 -0.00000000000E+00 -0.00000000000E+00 -0.10000000000E+04  0.10000000000E+04  0.00000000000E+00 0.  1.
    9000005    2    1    2  501    0  0.21844212175E+02  0.23461491262E+02 -0.64998180578E+03  0.65077561940E+03  0.22243596414E+01 0.  0.
         13    1    3    3    0    0  0.60905462634E+01  0.54434651799E+01 -0.15323894451E+03  0.15345650909E+03  0.00000000000E+00 0.  1.
          3    1    3    3  501    0  0.15753665912E+02  0.18018026082E+02 -0.49674286127E+03  0.49731911031E+03  0.00000000000E+00 0.  1.
         -3    1    1    2    0  502 -0.21844212175E+02 -0.23461491262E+02 -0.34888648434E+03  0.35035609048E+03  0.00000000000E+00 0. -1.
<mgrwt>
<rscale>  1 0.30000000E+03</rscale>
<asrwt>0</asrwt>
<pdfrwt beam="1">  1       21 0.41153173E-02 0.30000000E+03</pdfrwt>
<pdfrwt beam="2">0</pdfrwt>
<totfact> 0.40080789E+04</totfact>
</mgrwt>
</event>
<event>
 6    1  0.8397183E-002  0.3000000E+03  0.7818608E-02  0.1093470E+00
         21   -1    0    0  501  502  0.00000000000E+00  0.00000000000E+00  0.25357444903E+01  0.25357444903E+01  0.00000000000E+00 0. -1.
         13   -1    0    0    0    0 -0.00000000000E+00 -0.00000000000E+00 -0.10000000000E+04  0.10000000000E+04  0.00000000000E+00 0.  1.
    9000005    2    1    2  501    0 -0.49095034888E+02 -0.10976773712E+02 -0.50273904284E+03  0.50525931426E+03  0.31011995653E+01 0.  0.
         13    1    3    3    0    0 -0.19672079256E+02 -0.28785271629E+01 -0.20145566703E+03  0.20243434096E+03  0.00000000000E+00 0.  1.
          3    1    3    3  501    0 -0.29422955633E+02 -0.80982465487E+01 -0.30128337581E+03  0.30282497330E+03  0.00000000000E+00 0.  1.
         -3    1    1    2    0  502  0.49095034888E+02  0.10976773712E+02 -0.49472521267E+03  0.49727643023E+03  0.00000000000E+00 0. -1.
<mgrwt>
<rscale>  1 0.30000000E+03</rscale>
<asrwt>0</asrwt>
<pdfrwt beam="1">  1       21 0.92209085E-02 0.30000000E+03</pdfrwt>
<pdfrwt beam="2">0</pdfrwt>
<totfact> 0.99411908E+03</totfact>
</mgrwt>
</event>
<event>
 6    1  0.8397183E-002  0.3000000E+03  0.7818608E-02  0.1093470E+00
         21   -1    0    0  501  502  0.00000000000E+00  0.00000000000E+00  0.14512515368E+01  0.14512515368E+01  0.00000000000E+00 0. -1.
         13   -1    0    0    0    0 -0.00000000000E+00 -0.00000000000E+00 -0.10000000000E+04  0.10000000000E+04  0.00000000000E+00 0.  1.
    9000005    2    1    2  501    0 -0.24889367079E+02 -0.28663124922E+02 -0.53031181963E+03  0.53167803301E+03  0.31383785462E+01 0.  0.
         13    1    3    3    0    0 -0.17981228497E+02 -0.22676531016E+02 -0.39798879620E+03  0.39903963655E+03  0.00000000000E+00 0.  1.
          1    1    3    3  501    0 -0.69081385815E+01 -0.59865939061E+01 -0.13232302344E+03  0.13263839646E+03  0.00000000000E+00 0.  1.
         -3    1    1    2    0  502  0.24889367079E+02  0.28663124922E+02 -0.46823692883E+03  0.46977321853E+03  0.00000000000E+00 0. -1.
<mgrwt>
<rscale>  1 0.30000000E+03</rscale>
<asrwt>0</asrwt>
<pdfrwt beam="1">  1       21 0.52772894E-02 0.30000000E+03</pdfrwt>
<pdfrwt beam="2">0</pdfrwt>
<totfact> 0.26269064E+04</totfact>
</mgrwt>
</event>
<event>
 6    1  0.8397183E-002  0.3000000E+03  0.7818608E-02  0.1093470E+00
         21   -1    0    0  501  502  0.00000000000E+00  0.00000000000E+00  0.13711196612E+01  0.13711196612E+01  0.00000000000E+00 0. -1.
         13   -1    0    0    0    0 -0.00000000000E+00 -0.00000000000E+00 -0.10000000000E+04  0.10000000000E+04  0.00000000000E+00 0.  1.
    9000005    2    1    2  501    0 -0.36703066510E+02 -0.39662905468E+01 -0.52266905435E+03  0.52398175813E+03  0.33310541272E+01 0.  0.
         13    1    3    3    0    0 -0.14866379371E+01 -0.64227345744E+00 -0.30689800550E+02  0.30732498521E+02  0.00000000000E+00 0.  1.
          3    1    3    3  501    0 -0.35216428573E+02 -0.33240170894E+01 -0.49197925380E+03  0.49324925961E+03  0.00000000000E+00 0.  1.
         -3    1    1    2    0  502  0.36703066510E+02  0.39662905468E+01 -0.47595982598E+03  0.47738936153E+03  0.00000000000E+00 0. -1.
<mgrwt>
<rscale>  1 0.30000000E+03</rscale>
<asrwt>0</asrwt>
<pdfrwt beam="1">  1       21 0.49859002E-02 0.30000000E+03</pdfrwt>
<pdfrwt beam="2">0</pdfrwt>
<totfact> 0.28943647E+04</totfact>
</mgrwt>
</event>
<event>
 6    1  0.8397183E-002  0.3000000E+03  0.7818608E-02  0.1093470E+00
         21   -1    0    0  501  502  0.00000000000E+00  0.00000000000E+00  0.32057939215E+01  0.32057939215E+01  0.00000000000E+00 0. -1.
         13   -1    0    0    0    0 -0.00000000000E+00 -0.00000000000E+00 -0.10000000000E+04  0.10000000000E+04  0.00000000000E+00 0.  1.
    9000005    2    1    2  501    0 -0.32911713294E+02  0.41463571888E+01 -0.92784276488E+02  0.98587462277E+02  0.31925859185E+01 0.  0.
         13    1    3    3    0    0 -0.31647228935E+02  0.34416991257E+01 -0.87600608053E+02  0.93205466167E+02  0.00000000000E+00 0.  1.
          1    1    3    3  501    0 -0.12644843588E+01  0.70465806310E+00 -0.51836684351E+01  0.53819961097E+01  0.00000000000E+00 0.  1.
         -3    1    1    2    0  502  0.32911713294E+02 -0.41463571888E+01 -0.90400992959E+03  0.90461833164E+03  0.00000000000E+00 0. -1.
<mgrwt>
<rscale>  1 0.30000000E+03</rscale>
<asrwt>0</asrwt>
<pdfrwt beam="1">  1       21 0.11657457E-01 0.30000000E+03</pdfrwt>
<pdfrwt beam="2">0</pdfrwt>
<totfact> 0.65310007E+03</totfact>
</mgrwt>
</event>
<event>
 6    1  0.8397183E-002  0.3000000E+03  0.7818608E-02  0.1093470E+00
         21   -1    0    0  501  502  0.00000000000E+00  0.00000000000E+00  0.18107207111E+01  0.18107207111E+01  0.00000000000E+00 0. -1.
         13   -1    0    0    0    0 -0.00000000000E+00 -0.00000000000E+00 -0.10000000000E+04  0.10000000000E+04  0.00000000000E+00 0.  1.
    9000005    2    1    2  501    0 -0.19138382251E+02  0.36652526627E+02 -0.61526091378E+03  0.61665644189E+03  0.30805705733E+01 0.  0.
         13    1    3    3    0    0 -0.87802611279E+01  0.18921761772E+02 -0.32777185327E+03  0.32843494615E+03  0.00000000000E+00 0.  1.
          3    1    3    3  501    0 -0.10358121123E+02  0.17730764855E+02 -0.28748906050E+03  0.28822149574E+03  0.00000000000E+00 0.  1.
         -3    1    1    2    0  502  0.19138382251E+02 -0.36652526627E+02 -0.38292836551E+03  0.38515427882E+03  0.00000000000E+00 0. -1.
<mgrwt>
<rscale>  1 0.30000000E+03</rscale>
<asrwt>0</asrwt>
<pdfrwt beam="1">  1       21 0.65844528E-02 0.30000000E+03</pdfrwt>
<pdfrwt beam="2">0</pdfrwt>
<totfact> 0.17944304E+04</totfact>
</mgrwt>
</event>
<event>
 6    1  0.8397183E-002  0.3000000E+03  0.7818608E-02  0.1093470E+00
         21   -1    0    0  501  502  0.00000000000E+00  0.00000000000E+00  0.11266460320E+01  0.11266460320E+01  0.00000000000E+00 0. -1.
         13   -1    0    0    0    0 -0.00000000000E+00 -0.00000000000E+00 -0.10000000000E+04  0.10000000000E+04  0.00000000000E+00 0.  1.
    9000005    2    1    2  501    0 -0.12650142896E+01  0.32243706053E+02 -0.63533834283E+03  0.63616231741E+03  0.25352288588E+01 0.  0.
         13    1    3    3    0    0  0.43955091870E+00  0.18561565374E+02 -0.35554386264E+03  0.35602831794E+03  0.00000000000E+00 0.  1.
          1    1    3    3  501    0 -0.17045652083E+01  0.13682140678E+02 -0.27979448019E+03  0.28013399947E+03  0.00000000000E+00 0.  1.
         -1    1    1    2    0  502  0.12650142896E+01 -0.32243706053E+02 -0.36353501114E+03  0.36496432862E+03  0.00000000000E+00 0. -1.
<mgrwt>
<rscale>  1 0.30000000E+03</rscale>
<asrwt>0</asrwt>
<pdfrwt beam="1">  1       21 0.40969033E-02 0.30000000E+03</pdfrwt>
<pdfrwt beam="2">0</pdfrwt>
<totfact> 0.40385056E+04</totfact>
</mgrwt>
</event>
<event>
 6    1  0.8397183E-002  0.3000000E+03  0.7818608E-02  0.1093470E+00
         21   -1    0    0  501  502  0.00000000000E+00  0.00000000000E+00  0.12859747631E+01  0.12859747631E+01  0.00000000000E+00 0. -1.
         13   -1    0    0    0    0 -0.00000000000E+00 -0.00000000000E+00 -0.10000000000E+04  0.10000000000E+04  0.00000000000E+00 0.  1.
    9000005    2    1    2  501    0 -0.35721547339E+02  0.17836612813E+00 -0.47090726981E+03  0.47227176717E+03  0.33022037095E+01 0.  0.
         13    1    3    3    0    0 -0.63117638782E+01  0.12424523611E+01 -0.79813622016E+02  0.80072444139E+02  0.00000000000E+00 0.  1.
          1    1    3    3  501    0 -0.29409783461E+02 -0.10640862330E+01 -0.39109364779E+03  0.39219932303E+03  0.00000000000E+00 0.  1.
         -3    1    1    2    0  502  0.35721547339E+02 -0.17836612813E+00 -0.52780675543E+03  0.52901420759E+03  0.00000000000E+00 0. -1.
<mgrwt>
<rscale>  1 0.30000000E+03</rscale>
<asrwt>0</asrwt>
<pdfrwt beam="1">  1       21 0.46762817E-02 0.30000000E+03</pdfrwt>
<pdfrwt beam="2">0</pdfrwt>
<totfact> 0.32280790E+04</totfact>
</mgrwt>
</event>
<event>
 6    1  0.8397183E-002  0.3000000E+03  0.7818608E-02  0.1093470E+00
         21   -1    0    0  501  502  0.00000000000E+00  0.00000000000E+00  0.16091309130E+01  0.16091309130E+01  0.00000000000E+00 0. -1.
         13   -1    0    0    0    0 -0.00000000000E+00 -0.00000000000E+00 -0.10000000000E+04  0.10000000000E+04  0.00000000000E+00 0.  1.
    9000005    2    1    2  501    0 -0.26892040756E+02  0.29660303987E+02 -0.50003291258E+03  0.50164556394E+03  0.35274164319E+01 0.  0.
         13    1    3    3    0    0 -0.10344641082E+02  0.10480524747E+02 -0.16451149935E+03  0.16516926595E+03  0.00000000000E+00 0.  1.
          3    1    3    3  501    0 -0.16547399674E+02  0.19179779240E+02 -0.33552141323E+03  0.33647629799E+03  0.00000000000E+00 0.  1.
         -3    1    1    2    0  502  0.26892040756E+02 -0.29660303987E+02 -0.49835795651E+03  0.49996356698E+03  0.00000000000E+00 0. -1.
<mgrwt>
<rscale>  1 0.30000000E+03</rscale>
<asrwt>0</asrwt>
<pdfrwt beam="1">  1       21 0.58513975E-02 0.30000000E+03</pdfrwt>
<pdfrwt beam="2">0</pdfrwt>
<totfact> 0.22002607E+04</totfact>
</mgrwt>
</event>
<event>
 6    1  0.8397183E-002  0.3000000E+03  0.7818608E-02  0.1093470E+00
         21   -1    0    0  501  502  0.00000000000E+00  0.00000000000E+00  0.16926767797E+01  0.16926767797E+01  0.00000000000E+00 0. -1.
         13   -1    0    0    0    0 -0.00000000000E+00 -0.00000000000E+00 -0.10000000000E+04  0.10000000000E+04  0.00000000000E+00 0.  1.
    9000005    2    1    2  501    0 -0.19594436251E+02 -0.35953759907E+02 -0.47808715765E+03  0.47986355201E+03  0.50083392713E+01 0.  0.
         13    1    3    3    0    0 -0.19545782231E+02 -0.33425485506E+02 -0.44991870316E+03  0.45158181999E+03  0.00000000000E+00 0.  1.
          3    1    3    3  501    0 -0.48654019743E-01 -0.25282744007E+01 -0.28168454482E+02  0.28281732029E+02  0.00000000000E+00 0.  1.
         -3    1    1    2    0  502  0.19594436251E+02  0.35953759907E+02 -0.52022016557E+03  0.52182912477E+03  0.00000000000E+00 0. -1.
<mgrwt>
<rscale>  1 0.30000000E+03</rscale>
<asrwt>0</asrwt>
<pdfrwt beam="1">  1       21 0.61552013E-02 0.30000000E+03</pdfrwt>
<pdfrwt beam="2">0</pdfrwt>
<totfact> 0.20163259E+04</totfact>
</mgrwt>
</event>
<event>
 6    1  0.8397183E-002  0.3000000E+03  0.7818608E-02  0.1093470E+00
         21   -1    0    0  501  502  0.00000000000E+00  0.00000000000E+00  0.16905809120E+01  0.16905809120E+01  0.00000000000E+00 0. -1.
         13   -1    0    0    0    0 -0.00000000000E+00 -0.00000000000E+00 -0.10000000000E+04  0.10000000000E+04  0.00000000000E+00 0.  1.
    9000005    2    1    2  501    0 -0.31451402430E+02  0.25556107203E+02 -0.57719191697E+03  0.57862763533E+03  0.41383605146E+01 0.  0.
         13    1    3    3    0    0 -0.22543907173E+02  0.19562087080E+02 -0.44551378496E+03  0.44651252568E+03  0.00000000000E+00 0.  1.
          3    1    3    3  501    0 -0.89074952571E+01  0.59940201226E+01 -0.13167813200E+03  0.13211510965E+03  0.00000000000E+00 0.  1.
         -3    1    1    2    0  502  0.31451402430E+02 -0.25556107203E+02 -0.42111750212E+03  0.42306294558E+03  0.00000000000E+00 0. -1.
<mgrwt>
<rscale>  1 0.30000000E+03</rscale>
<asrwt>0</asrwt>
<pdfrwt beam="1">  1       21 0.61475799E-02 0.30000000E+03</pdfrwt>
<pdfrwt beam="2">0</pdfrwt>
<totfact> 0.20206435E+04</totfact>
</mgrwt>
</event>
<event>
 6    1  0.8397183E-002  0.3000000E+03  0.7818608E-02  0.1093470E+00
         21   -1    0    0  501  502  0.00000000000E+00  0.00000000000E+00  0.10760759107E+01  0.10760759107E+01  0.00000000000E+00 0. -1.
         13   -1    0    0    0    0 -0.00000000000E+00 -0.00000000000E+00 -0.10000000000E+04  0.10000000000E+04  0.00000000000E+00 0.  1.
    9000005    2    1    2  501    0 -0.32078597187E+02  0.66363503269E+00 -0.40169125472E+03  0.40298215505E+03  0.30457119037E+01 0.  0.
         13    1    3    3    0    0 -0.70324064741E+01 -0.57593265902E+00 -0.10182643502E+03  0.10207060942E+03  0.00000000000E+00 0.  1.
          3    1    3    3  501    0 -0.25046190712E+02  0.12395676917E+01 -0.29986481970E+03  0.30091154563E+03  0.00000000000E+00 0.  1.
         -1    1    1    2    0  502  0.32078597187E+02 -0.66363503269E+00 -0.59723266937E+03  0.59809392086E+03  0.00000000000E+00 0. -1.
<mgrwt>
<rscale>  1 0.30000000E+03</rscale>
<asrwt>0</asrwt>
<pdfrwt beam="1">  1       21 0.39130116E-02 0.30000000E+03</pdfrwt>
<pdfrwt beam="2">0</pdfrwt>
<totfact> 0.43632521E+04</totfact>
</mgrwt>
</event>
<event>
 6    1  0.8397183E-002  0.3000000E+03  0.7818608E-02  0.1093470E+00
         21   -1    0    0  501  502  0.00000000000E+00  0.00000000000E+00  0.17860438758E+01  0.17860438758E+01  0.00000000000E+00 0. -1.
         13   -1    0    0    0    0 -0.00000000000E+00 -0.00000000000E+00 -0.10000000000E+04  0.10000000000E+04  0.00000000000E+00 0.  1.
    9000005    2    1    2  501    0 -0.33431799824E+02  0.25144652736E+02 -0.56572716892E+03  0.56728085414E+03  0.32247510914E+01 0.  0.
         13    1    3    3    0    0 -0.25402782467E+02  0.20763240287E+02 -0.44080887159E+03  0.44202813799E+03  0.00000000000E+00 0.  1.
          3    1    3    3  501    0 -0.80290173569E+01  0.43814124486E+01 -0.12491829733E+03  0.12525271615E+03  0.00000000000E+00 0.  1.
         -3    1    1    2    0  502  0.33431799824E+02 -0.25144652736E+02 -0.43248678720E+03  0.43450518973E+03  0.00000000000E+00 0. -1.
<mgrwt>
<rscale>  1 0.30000000E+03</rscale>
<asrwt>0</asrwt>
<pdfrwt beam="1">  1       21 0.64947187E-02 0.30000000E+03</pdfrwt>
<pdfrwt beam="2">0</pdfrwt>
<totfact> 0.18375887E+04</totfact>
</mgrwt>
</event>
<event>
 6    1  0.8397183E-002  0.3000000E+03  0.7818608E-02  0.1093470E+00
         21   -1    0    0  501  502  0.00000000000E+00  0.00000000000E+00  0.15861290214E+01  0.15861290214E+01  0.00000000000E+00 0. -1.
         13   -1    0    0    0    0 -0.00000000000E+00 -0.00000000000E+00 -0.10000000000E+04  0.10000000000E+04  0.00000000000E+00 0.  1.
    9000005    2    1    2  501    0  0.16664062253E+02  0.25922361238E+02 -0.18528379851E+03  0.18787231291E+03  0.40323918185E+01 0.  0.
         13    1    3    3    0    0  0.34763830501E+01  0.31216191323E+01 -0.23769416410E+02  0.24224262663E+02  0.00000000000E+00 0.  1.
          3    1    3    3  501    0  0.13187679203E+02  0.22800742106E+02 -0.16151438210E+03  0.16364805024E+03  0.00000000000E+00 0.  1.
         -3    1    1    2    0  502 -0.16664062253E+02 -0.25922361238E+02 -0.81313007247E+03  0.81371381612E+03  0.00000000000E+00 0. -1.
<mgrwt>
<rscale>  1 0.30000000E+03</rscale>
<asrwt>0</asrwt>
<pdfrwt beam="1">  1       21 0.57677541E-02 0.30000000E+03</pdfrwt>
<pdfrwt beam="2">0</pdfrwt>
<totfact> 0.22555039E+04</totfact>
</mgrwt>
</event>
<event>
 6    1  0.8397183E-002  0.3000000E+03  0.7818608E-02  0.1093470E+00
         21   -1    0    0  501  502  0.00000000000E+00  0.00000000000E+00  0.96244014005E+01  0.96244014005E+01  0.00000000000E+00 0. -1.
         13   -1    0    0    0    0 -0.00000000000E+00 -0.00000000000E+00 -0.10000000000E+04  0.10000000000E+04  0.00000000000E+00 0.  1.
    9000005    2    1    2  501    0 -0.67861824444E+02 -0.68891596511E+02 -0.57952835124E+03  0.58755007151E+03  0.32706815488E+01 0.  0.
         13    1    3    3    0    0 -0.42959306367E+01 -0.33297821609E+01 -0.31343342126E+02  0.31811123289E+02  0.00000000000E+00 0.  1.
          3    1    3    3  501    0 -0.63565893807E+02 -0.65561814351E+02 -0.54818500911E+03  0.55573894822E+03  0.00000000000E+00 0.  1.
         -3    1    1    2    0  502  0.67861824444E+02  0.68891596511E+02 -0.41084724736E+03  0.42207432989E+03  0.00000000000E+00 0. -1.
<mgrwt>
<rscale>  1 0.30000000E+03</rscale>
<asrwt>0</asrwt>
<pdfrwt beam="1">  1       21 0.34997897E-01 0.30000000E+03</pdfrwt>
<pdfrwt beam="2">0</pdfrwt>
<totfact> 0.79589220E+02</totfact>
</mgrwt>
</event>
<event>
 6    1  0.8397183E-002  0.3000000E+03  0.7818608E-02  0.1093470E+00
         21   -1    0    0  501  502  0.00000000000E+00  0.00000000000E+00  0.88150121441E+01  0.88150121441E+01  0.00000000000E+00 0. -1.
         13   -1    0    0    0    0 -0.00000000000E+00 -0.00000000000E+00 -0.10000000000E+04  0.10000000000E+04  0.00000000000E+00 0.  1.
    9000005    2    1    2  501    0 -0.83617017300E+02  0.19522886004E+02 -0.29262099975E+03  0.30499359009E+03  0.45925856296E+01 0.  0.
         13    1    3    3    0    0 -0.19681743762E+02  0.65208216254E+01 -0.68516096495E+02  0.71584548829E+02  0.00000000000E+00 0.  1.
          3    1    3    3  501    0 -0.63935273538E+02  0.13002064379E+02 -0.22410490325E+03  0.23340904126E+03  0.00000000000E+00 0.  1.
         -3    1    1    2    0  502  0.83617017300E+02 -0.19522886004E+02 -0.69856398811E+03  0.70382142205E+03  0.00000000000E+00 0. -1.
<mgrwt>
<rscale>  1 0.30000000E+03</rscale>
<asrwt>0</asrwt>
<pdfrwt beam="1">  1       21 0.32054657E-01 0.30000000E+03</pdfrwt>
<pdfrwt beam="2">0</pdfrwt>
<totfact> 0.95167833E+02</totfact>
</mgrwt>
</event>
<event>
 6    1  0.8397183E-002  0.3000000E+03  0.7818608E-02  0.1093470E+00
         21   -1    0    0  501  502  0.00000000000E+00  0.00000000000E+00  0.95279049410E+00  0.95279049410E+00  0.00000000000E+00 0. -1.
         13   -1    0    0    0    0 -0.00000000000E+00 -0.00000000000E+00 -0.10000000000E+04  0.10000000000E+04  0.00000000000E+00 0.  1.
    9000005    2    1    2  501    0 -0.30016797630E+02  0.65890283881E+01 -0.52831940817E+03  0.52922290339E+03  0.33258067108E+01 0.  0.
         13    1    3    3    0    0 -0.14251172614E+02  0.45289798068E+01 -0.23992926224E+03  0.24039479707E+03  0.00000000000E+00 0.  1.
          3    1    3    3  501    0 -0.15765625016E+02  0.20600485813E+01 -0.28839014593E+03  0.28882810632E+03  0.00000000000E+00 0.  1.
         -1    1    1    2    0  502  0.30016797630E+02 -0.65890283881E+01 -0.47072780134E+03  0.47172988710E+03  0.00000000000E+00 0. -1.
<mgrwt>
<rscale>  1 0.30000000E+03</rscale>
<asrwt>0</asrwt>
<pdfrwt beam="1">  1       21 0.34647000E-02 0.30000000E+03</pdfrwt>
<pdfrwt beam="2">0</pdfrwt>
<totfact> 0.53517213E+04</totfact>
</mgrwt>
</event>
<event>
 6    1  0.8397183E-002  0.3000000E+03  0.7818608E-02  0.1093470E+00
         21   -1    0    0  501  502  0.00000000000E+00  0.00000000000E+00  0.25192381750E+01  0.25192381750E+01  0.00000000000E+00 0. -1.
         13   -1    0    0    0    0 -0.00000000000E+00 -0.00000000000E+00 -0.10000000000E+04  0.10000000000E+04  0.00000000000E+00 0.  1.
    9000005    2    1    2  501    0 -0.28495814430E+02 -0.21393285123E+02 -0.14801139447E+03  0.15230285974E+03  0.43708240643E+01 0.  0.
         13    1    3    3    0    0 -0.10730316479E+02 -0.88763289546E+01 -0.49411105521E+02  0.51336013249E+02  0.00000000000E+00 0.  1.
          3    1    3    3  501    0 -0.17765497950E+02 -0.12516956168E+02 -0.98600288948E+02  0.10096684649E+03  0.00000000000E+00 0.  1.
         -3    1    1    2    0  502  0.28495814430E+02  0.21393285123E+02 -0.84946936736E+03  0.85021637844E+03  0.00000000000E+00 0. -1.
<mgrwt>
<rscale>  1 0.30000000E+03</rscale>
<asrwt>0</asrwt>
<pdfrwt beam="1">  1       21 0.91608854E-02 0.30000000E+03</pdfrwt>
<pdfrwt beam="2">0</pdfrwt>
<totfact> 0.10057113E+04</totfact>
</mgrwt>
</event>
<event>
 6    1  0.8397183E-002  0.3000000E+03  0.7818608E-02  0.1093470E+00
         21   -1    0    0  501  502  0.00000000000E+00  0.00000000000E+00  0.11567769763E+01  0.11567769763E+01  0.00000000000E+00 0. -1.
         13   -1    0    0    0    0 -0.00000000000E+00 -0.00000000000E+00 -0.10000000000E+04  0.10000000000E+04  0.00000000000E+00 0.  1.
    9000005    2    1    2  501    0  0.19428820045E+02  0.24262468478E+02 -0.29950912227E+03  0.30113225533E+03  0.29621704836E+01 0.  0.
         13    1    3    3    0    0  0.13043087612E+02  0.18063285235E+02 -0.20664131712E+03  0.20783897216E+03  0.00000000000E+00 0.  1.
          3    1    3    3  501    0  0.63857324330E+01  0.61991832431E+01 -0.92867805150E+02  0.93293283171E+02  0.00000000000E+00 0.  1.
         -1    1    1    2    0  502 -0.19428820045E+02 -0.24262468478E+02 -0.69933410076E+03  0.70002452165E+03  0.00000000000E+00 0. -1.
<mgrwt>
<rscale>  1 0.30000000E+03</rscale>
<asrwt>0</asrwt>
<pdfrwt beam="1">  1       21 0.42064706E-02 0.30000000E+03</pdfrwt>
<pdfrwt beam="2">0</pdfrwt>
<totfact> 0.38625913E+04</totfact>
</mgrwt>
</event>
<event>
 6    1  0.8397183E-002  0.3000000E+03  0.7818608E-02  0.1093470E+00
         21   -1    0    0  501  502  0.00000000000E+00  0.00000000000E+00  0.10122019476E+01  0.10122019476E+01  0.00000000000E+00 0. -1.
         13   -1    0    0    0    0 -0.00000000000E+00 -0.00000000000E+00 -0.10000000000E+04  0.10000000000E+04  0.00000000000E+00 0.  1.
    9000005    2    1    2  501    0  0.18495384610E+02 -0.24401393111E+02 -0.39981586979E+03  0.40105844801E+03  0.75922165620E+01 0.  0.
         13    1    3    3    0    0  0.28141741568E+01 -0.90769172481E+01 -0.10561394351E+03  0.10604062932E+03  0.00000000000E+00 0.  1.
          1    1    3    3  501    0  0.15681210453E+02 -0.15324475863E+02 -0.29420192628E+03  0.29501781869E+03  0.00000000000E+00 0.  1.
         -1    1    1    2    0  502 -0.18495384610E+02  0.24401393111E+02 -0.59917192827E+03  0.59995375393E+03  0.00000000000E+00 0. -1.
<mgrwt>
<rscale>  1 0.30000000E+03</rscale>
<asrwt>0</asrwt>
<pdfrwt beam="1">  1       21 0.36807421E-02 0.30000000E+03</pdfrwt>
<pdfrwt beam="2">0</pdfrwt>
<totfact> 0.48357106E+04</totfact>
</mgrwt>
</event>
<event>
 6    1  0.8397183E-002  0.3000000E+03  0.7818608E-02  0.1093470E+00
         21   -1    0    0  501  502  0.00000000000E+00  0.00000000000E+00  0.18225227815E+01  0.18225227815E+01  0.00000000000E+00 0. -1.
         13   -1    0    0    0    0 -0.00000000000E+00 -0.00000000000E+00 -0.10000000000E+04  0.10000000000E+04  0.00000000000E+00 0.  1.
    9000005    2    1    2  501    0 -0.32987775778E+02 -0.25906044728E+02 -0.41156457745E+03  0.41371197987E+03  0.35894812185E+01 0.  0.
         13    1    3    3    0    0 -0.83393497297E+01 -0.49303752637E+01 -0.10303395107E+03  0.10348839755E+03  0.00000000000E+00 0.  1.
          1    1    3    3  501    0 -0.24648426049E+02 -0.20975669464E+02 -0.30853062638E+03  0.31022358233E+03  0.00000000000E+00 0.  1.
         -1    1    1    2    0  502  0.32987775778E+02  0.25906044728E+02 -0.58661289977E+03  0.58811054291E+03  0.00000000000E+00 0. -1.
<mgrwt>
<rscale>  1 0.30000000E+03</rscale>
<asrwt>0</asrwt>
<pdfrwt beam="1">  1       21 0.66273695E-02 0.30000000E+03</pdfrwt>
<pdfrwt beam="2">0</pdfrwt>
<totfact> 0.17743393E+04</totfact>
</mgrwt>
</event>
<event>
 6    1  0.8397183E-002  0.3000000E+03  0.7818608E-02  0.1093470E+00
         21   -1    0    0  501  502  0.00000000000E+00  0.00000000000E+00  0.21830747346E+01  0.21830747346E+01  0.00000000000E+00 0. -1.
         13   -1    0    0    0    0 -0.00000000000E+00 -0.00000000000E+00 -0.10000000000E+04  0.10000000000E+04  0.00000000000E+00 0.  1.
    9000005    2    1    2  501    0  0.27003730583E+02 -0.19049756738E+02 -0.14499104940E+03  0.14871715905E+03  0.15146918231E+01 0.  0.
         13    1    3    3    0    0  0.25071498001E+02 -0.18105604343E+02 -0.13620493887E+03  0.13967168036E+03  0.00000000000E+00 0.  1.
          1    1    3    3  501    0  0.19322325812E+01 -0.94415239516E+00 -0.87861105268E+01  0.90454786873E+01  0.00000000000E+00 0.  1.
         -1    1    1    2    0  502 -0.27003730583E+02  0.19049756738E+02 -0.85282587586E+03  0.85346591569E+03  0.00000000000E+00 0. -1.
<mgrwt>
<rscale>  1 0.30000000E+03</rscale>
<asrwt>0</asrwt>
<pdfrwt beam="1">  1       21 0.79384703E-02 0.30000000E+03</pdfrwt>
<pdfrwt beam="2">0</pdfrwt>
<totfact> 0.12948244E+04</totfact>
</mgrwt>
</event>
<event>
 6    1  0.8819193E-002  0.3000000E+03  0.7818608E-02  0.1093470E+00
         21   -1    0    0  501  502  0.00000000000E+00  0.00000000000E+00  0.10701269089E+01  0.10701269089E+01  0.00000000000E+00 0. -1.
         13   -1    0    0    0    0 -0.00000000000E+00 -0.00000000000E+00 -0.10000000000E+04  0.10000000000E+04  0.00000000000E+00 0.  1.
    9000005    2    1    2  501    0 -0.87594569843E+01  0.29959049453E+02 -0.63839431800E+03  0.63918594762E+03  0.60907845645E+01 0.  0.
         13    1    3    3    0    0 -0.52382033028E+01  0.15719404085E+02 -0.39776581994E+03  0.39811077096E+03  0.00000000000E+00 0.  1.
          3    1    3    3  501    0 -0.35212536815E+01  0.14239645367E+02 -0.24062849805E+03  0.24107517666E+03  0.00000000000E+00 0.  1.
         -1    1    1    2    0  502  0.87594569843E+01 -0.29959049453E+02 -0.36053555510E+03  0.36188417929E+03  0.00000000000E+00 0. -1.
<mgrwt>
<rscale>  1 0.30000000E+03</rscale>
<asrwt>0</asrwt>
<pdfrwt beam="1">  1       21 0.38913788E-02 0.30000000E+03</pdfrwt>
<pdfrwt beam="2">0</pdfrwt>
<totfact> 0.44041289E+04</totfact>
</mgrwt>
</event>
<event>
 6    1  0.8397183E-002  0.3000000E+03  0.7818608E-02  0.1093470E+00
         21   -1    0    0  501  502  0.00000000000E+00  0.00000000000E+00  0.10604362601E+01  0.10604362601E+01  0.00000000000E+00 0. -1.
         13   -1    0    0    0    0 -0.00000000000E+00 -0.00000000000E+00 -0.10000000000E+04  0.10000000000E+04  0.00000000000E+00 0.  1.
    9000005    2    1    2  501    0  0.27075848401E+02  0.17649789499E+02 -0.47207198384E+03  0.47320244078E+03  0.48964684800E+01 0.  0.
         13    1    3    3    0    0  0.24882040558E+02  0.17355085519E+02 -0.42712211686E+03  0.42819810561E+03  0.00000000000E+00 0.  1.
          3    1    3    3  501    0  0.21938078426E+01  0.29470397976E+00 -0.44949866979E+02  0.45004335177E+02  0.00000000000E+00 0.  1.
         -3    1    1    2    0  502 -0.27075848401E+02 -0.17649789499E+02 -0.52686757990E+03  0.52785799548E+03  0.00000000000E+00 0. -1.
<mgrwt>
<rscale>  1 0.30000000E+03</rscale>
<asrwt>0</asrwt>
<pdfrwt beam="1">  1       21 0.38561400E-02 0.30000000E+03</pdfrwt>
<pdfrwt beam="2">0</pdfrwt>
<totfact> 0.44720137E+04</totfact>
</mgrwt>
</event>
<event>
 6    1  0.8397183E-002  0.3000000E+03  0.7818608E-02  0.1093470E+00
         21   -1    0    0  501  502  0.00000000000E+00  0.00000000000E+00  0.14954003926E+01  0.14954003926E+01  0.00000000000E+00 0. -1.
         13   -1    0    0    0    0 -0.00000000000E+00 -0.00000000000E+00 -0.10000000000E+04  0.10000000000E+04  0.00000000000E+00 0.  1.
    9000005    2    1    2  501    0 -0.36744383623E+02  0.11835937035E+02 -0.49915673448E+03  0.50065757281E+03  0.32125533239E+01 0.  0.
         13    1    3    3    0    0 -0.20115713092E+01  0.13829436088E+01 -0.27430165622E+02  0.27538571826E+02  0.00000000000E+00 0.  1.
          3    1    3    3  501    0 -0.34732812314E+02  0.10452993426E+02 -0.47172656886E+03  0.47311900098E+03  0.00000000000E+00 0.  1.
         -1    1    1    2    0  502  0.36744383623E+02 -0.11835937035E+02 -0.49934786513E+03  0.50083782758E+03  0.00000000000E+00 0. -1.
<mgrwt>
<rscale>  1 0.30000000E+03</rscale>
<asrwt>0</asrwt>
<pdfrwt beam="1">  1       21 0.54378311E-02 0.30000000E+03</pdfrwt>
<pdfrwt beam="2">0</pdfrwt>
<totfact> 0.24955680E+04</totfact>
</mgrwt>
</event>
<event>
 6    1  0.8397183E-002  0.3000000E+03  0.7818608E-02  0.1093470E+00
         21   -1    0    0  501  502  0.00000000000E+00  0.00000000000E+00  0.14546954015E+01  0.14546954015E+01  0.00000000000E+00 0. -1.
         13   -1    0    0    0    0 -0.00000000000E+00 -0.00000000000E+00 -0.10000000000E+04  0.10000000000E+04  0.00000000000E+00 0.  1.
    9000005    2    1    2  501    0  0.37904035131E+02 -0.10691237415E+01 -0.52709850599E+03  0.52848541223E+03  0.51124376838E+01 0.  0.
         13    1    3    3    0    0  0.13287436703E+02 -0.16416252041E+01 -0.15781509997E+03  0.15838199609E+03  0.00000000000E+00 0.  1.
          1    1    3    3  501    0  0.24616598427E+02  0.57250146256E+00 -0.36928340602E+03  0.37010341614E+03  0.00000000000E+00 0.  1.
         -3    1    1    2    0  502 -0.37904035131E+02  0.10691237415E+01 -0.47144679861E+03  0.47296928317E+03  0.00000000000E+00 0. -1.
<mgrwt>
<rscale>  1 0.30000000E+03</rscale>
<asrwt>0</asrwt>
<pdfrwt beam="1">  1       21 0.52898126E-02 0.30000000E+03</pdfrwt>
<pdfrwt beam="2">0</pdfrwt>
<totfact> 0.26162810E+04</totfact>
</mgrwt>
</event>
<event>
 6    1  0.8397183E-002  0.3000000E+03  0.7818608E-02  0.1093470E+00
         21   -1    0    0  501  502  0.00000000000E+00  0.00000000000E+00  0.17237322804E+01  0.17237322804E+01  0.00000000000E+00 0. -1.
         13   -1    0    0    0    0 -0.00000000000E+00 -0.00000000000E+00 -0.10000000000E+04  0.10000000000E+04  0.00000000000E+00 0.  1.
    9000005    2    1    2  501    0  0.18411899604E+02 -0.30887871377E+02 -0.74862557670E+03  0.74949660017E+03  0.34410658861E+01 0.  0.
         13    1    3    3    0    0  0.11199727526E+02 -0.20761565120E+02 -0.46290053776E+03  0.46350122367E+03  0.00000000000E+00 0.  1.
          3    1    3    3  501    0  0.72121720783E+01 -0.10126306257E+02 -0.28572503893E+03  0.28599537650E+03  0.00000000000E+00 0.  1.
         -3    1    1    2    0  502 -0.18411899604E+02  0.30887871377E+02 -0.24965069102E+03  0.25222713211E+03  0.00000000000E+00 0. -1.
<mgrwt>
<rscale>  1 0.30000000E+03</rscale>
<asrwt>0</asrwt>
<pdfrwt beam="1">  1       21 0.62681306E-02 0.30000000E+03</pdfrwt>
<pdfrwt beam="2">0</pdfrwt>
<totfact> 0.19539922E+04</totfact>
</mgrwt>
</event>
<event>
 6    1  0.8397183E-002  0.3000000E+03  0.7818608E-02  0.1093470E+00
         21   -1    0    0  501  502  0.00000000000E+00  0.00000000000E+00  0.12736175312E+01  0.12736175312E+01  0.00000000000E+00 0. -1.
         13   -1    0    0    0    0 -0.00000000000E+00 -0.00000000000E+00 -0.10000000000E+04  0.10000000000E+04  0.00000000000E+00 0.  1.
    9000005    2    1    2  501    0 -0.30910491216E+02  0.12190013228E+02 -0.68055305994E+03  0.68137001009E+03  0.29271754859E+01 0.  0.
         13    1    3    3    0    0 -0.11711458814E+02  0.60666579389E+01 -0.25941229273E+03  0.25974737771E+03  0.00000000000E+00 0.  1.
          1    1    3    3  501    0 -0.19199032402E+02  0.61233552889E+01 -0.42114076722E+03  0.42162263238E+03  0.00000000000E+00 0.  1.
         -3    1    1    2    0  502  0.30910491216E+02 -0.12190013228E+02 -0.31817332252E+03  0.31990360744E+03  0.00000000000E+00 0. -1.
<mgrwt>
<rscale>  1 0.30000000E+03</rscale>
<asrwt>0</asrwt>
<pdfrwt beam="1">  1       21 0.46313462E-02 0.30000000E+03</pdfrwt>
<pdfrwt beam="2">0</pdfrwt>
<totfact> 0.32814925E+04</totfact>
</mgrwt>
</event>
<event>
 6    1  0.8397183E-002  0.3000000E+03  0.7818608E-02  0.1093470E+00
         21   -1    0    0  501  502  0.00000000000E+00  0.00000000000E+00  0.23717217545E+01  0.23717217545E+01  0.00000000000E+00 0. -1.
         13   -1    0    0    0    0 -0.00000000000E+00 -0.00000000000E+00 -0.10000000000E+04  0.10000000000E+04  0.00000000000E+00 0.  1.
    9000005    2    1    2  501    0 -0.33333631001E+02  0.35258971287E+02 -0.52636761137E+03  0.52861973795E+03  0.46517783898E+01 0.  0.
         13    1    3    3    0    0 -0.11987129655E+02  0.10424538498E+02 -0.18900506306E+03  0.18967149533E+03  0.00000000000E+00 0.  1.
          3    1    3    3  501    0 -0.21346501346E+02  0.24834432789E+02 -0.33736254831E+03  0.33894824262E+03  0.00000000000E+00 0.  1.
         -1    1    1    2    0  502  0.33333631001E+02 -0.35258971287E+02 -0.47126066688E+03  0.47375198380E+03  0.00000000000E+00 0. -1.
<mgrwt>
<rscale>  1 0.30000000E+03</rscale>
<asrwt>0</asrwt>
<pdfrwt beam="1">  1       21 0.86244609E-02 0.30000000E+03</pdfrwt>
<pdfrwt beam="2">0</pdfrwt>
<totfact> 0.11190548E+04</totfact>
</mgrwt>
</event>
<event>
 6    1  0.8397183E-002  0.3000000E+03  0.7818608E-02  0.1093470E+00
         21   -1    0    0  501  502  0.00000000000E+00  0.00000000000E+00  0.10509563387E+01  0.10509563387E+01  0.00000000000E+00 0. -1.
         13   -1    0    0    0    0 -0.00000000000E+00 -0.00000000000E+00 -0.10000000000E+04  0.10000000000E+04  0.00000000000E+00 0.  1.
    9000005    2    1    2  501    0  0.66378307015E+01  0.31560196771E+02 -0.53436799511E+03  0.53535185017E+03  0.35131840451E+01 0.  0.
         13    1    3    3    0    0  0.63070579009E+01  0.31339271777E+02 -0.53079817067E+03  0.53175993355E+03  0.00000000000E+00 0.  1.
          3    1    3    3  501    0  0.33077280068E+00  0.22092499406E+00 -0.35698244408E+01  0.35919166244E+01  0.00000000000E+00 0.  1.
         -3    1    1    2    0  502 -0.66378307015E+01 -0.31560196771E+02 -0.46458104855E+03  0.46569910617E+03  0.00000000000E+00 0. -1.
<mgrwt>
<rscale>  1 0.30000000E+03</rscale>
<asrwt>0</asrwt>
<pdfrwt beam="1">  1       21 0.38216675E-02 0.30000000E+03</pdfrwt>
<pdfrwt beam="2">0</pdfrwt>
<totfact> 0.45400249E+04</totfact>
</mgrwt>
</event>
<event>
 6    1  0.8397183E-002  0.3000000E+03  0.7818608E-02  0.1093470E+00
         21   -1    0    0  501  502  0.00000000000E+00  0.00000000000E+00  0.30043177818E+01  0.30043177818E+01  0.00000000000E+00 0. -1.
         13   -1    0    0    0    0 -0.00000000000E+00 -0.00000000000E+00 -0.10000000000E+04  0.10000000000E+04  0.00000000000E+00 0.  1.
    9000005    2    1    2  501    0  0.27083569079E+02  0.30812876033E+02 -0.83073563781E+03  0.83175784217E+03  0.40564808219E+01 0.  0.
         13    1    3    3    0    0  0.22334048865E+02  0.23925867873E+02 -0.68650075979E+03  0.68728054686E+03  0.00000000000E+00 0.  1.
          3    1    3    3  501    0  0.47495202142E+01  0.68870081599E+01 -0.14423487802E+03  0.14447729531E+03  0.00000000000E+00 0.  1.
         -1    1    1    2    0  502 -0.27083569079E+02 -0.30812876033E+02 -0.16626004440E+03  0.17124647561E+03  0.00000000000E+00 0. -1.
<mgrwt>
<rscale>  1 0.30000000E+03</rscale>
<asrwt>0</asrwt>
<pdfrwt beam="1">  1       21 0.10924815E-01 0.30000000E+03</pdfrwt>
<pdfrwt beam="2">0</pdfrwt>
<totfact> 0.73420355E+03</totfact>
</mgrwt>
</event>
<event>
 6    1  0.8397183E-002  0.3000000E+03  0.7818608E-02  0.1093470E+00
         21   -1    0    0  501  502  0.00000000000E+00  0.00000000000E+00  0.15018279173E+01  0.15018279173E+01  0.00000000000E+00 0. -1.
         13   -1    0    0    0    0 -0.00000000000E+00 -0.00000000000E+00 -0.10000000000E+04  0.10000000000E+04  0.00000000000E+00 0.  1.
    9000005    2    1    2  501    0  0.11988727484E+01 -0.38087952651E+02 -0.41281690082E+03  0.41458217333E+03  0.29078183205E+01 0.  0.
         13    1    3    3    0    0  0.11250482123E+01 -0.38085240514E+02 -0.41253290140E+03  0.41428872301E+03  0.00000000000E+00 0.  1.
          1    1    3    3  501    0  0.73824536088E-01 -0.27121372162E-02 -0.28399941967E+00  0.29345031639E+00  0.00000000000E+00 0.  1.
         -1    1    1    2    0  502 -0.11988727484E+01  0.38087952651E+02 -0.58568127126E+03  0.58691965459E+03  0.00000000000E+00 0. -1.
<mgrwt>
<rscale>  1 0.30000000E+03</rscale>
<asrwt>0</asrwt>
<pdfrwt beam="1">  1       21 0.54612039E-02 0.30000000E+03</pdfrwt>
<pdfrwt beam="2">0</pdfrwt>
<totfact> 0.24772946E+04</totfact>
</mgrwt>
</event>
<event>
 6    1  0.8397183E-002  0.3000000E+03  0.7818608E-02  0.1093470E+00
         21   -1    0    0  501  502  0.00000000000E+00  0.00000000000E+00  0.15357011969E+01  0.15357011969E+01  0.00000000000E+00 0. -1.
         13   -1    0    0    0    0 -0.00000000000E+00 -0.00000000000E+00 -0.10000000000E+04  0.10000000000E+04  0.00000000000E+00 0.  1.
    9000005    2    1    2  501    0  0.35786749958E+02 -0.85456219613E+01 -0.66981880340E+03  0.67083707590E+03  0.33814022243E+01 0.  0.
         13    1    3    3    0    0  0.16438818755E+02 -0.56387963082E+01 -0.31024961365E+03  0.31073598691E+03  0.00000000000E+00 0.  1.
          3    1    3    3  501    0  0.19347931203E+02 -0.29068256531E+01 -0.35956918975E+03  0.36010108899E+03  0.00000000000E+00 0.  1.
         -3    1    1    2    0  502 -0.35786749958E+02  0.85456219613E+01 -0.32864549540E+03  0.33069862530E+03  0.00000000000E+00 0. -1.
<mgrwt>
<rscale>  1 0.30000000E+03</rscale>
<asrwt>0</asrwt>
<pdfrwt beam="1">  1       21 0.55843798E-02 0.30000000E+03</pdfrwt>
<pdfrwt beam="2">0</pdfrwt>
<totfact> 0.23843128E+04</totfact>
</mgrwt>
</event>
<event>
 6    1  0.8397183E-002  0.3000000E+03  0.7818608E-02  0.1093470E+00
         21   -1    0    0  501  502  0.00000000000E+00  0.00000000000E+00  0.17763449756E+01  0.17763449756E+01  0.00000000000E+00 0. -1.
         13   -1    0    0    0    0 -0.00000000000E+00 -0.00000000000E+00 -0.10000000000E+04  0.10000000000E+04  0.00000000000E+00 0.  1.
    9000005    2    1    2  501    0 -0.25417150891E+01 -0.33228438846E+02 -0.80536394616E+03  0.80605854617E+03  0.29503601548E+01 0.  0.
         13    1    3    3    0    0 -0.13478698329E+01 -0.28838492859E+02 -0.68216724685E+03  0.68277787611E+03  0.00000000000E+00 0.  1.
          1    1    3    3  501    0 -0.11938452562E+01 -0.43899459877E+01 -0.12319669931E+03  0.12328067007E+03  0.00000000000E+00 0.  1.
         -3    1    1    2    0  502  0.25417150891E+01  0.33228438846E+02 -0.19285970887E+03  0.19571779880E+03  0.00000000000E+00 0. -1.
<mgrwt>
<rscale>  1 0.30000000E+03</rscale>
<asrwt>0</asrwt>
<pdfrwt beam="1">  1       21 0.64594499E-02 0.30000000E+03</pdfrwt>
<pdfrwt beam="2">0</pdfrwt>
<totfact> 0.18549914E+04</totfact>
</mgrwt>
</event>
<event>
 6    1  0.8397183E-002  0.3000000E+03  0.7818608E-02  0.1093470E+00
         21   -1    0    0  501  502  0.00000000000E+00  0.00000000000E+00  0.12070641299E+01  0.12070641299E+01  0.00000000000E+00 0. -1.
         13   -1    0    0    0    0 -0.00000000000E+00 -0.00000000000E+00 -0.10000000000E+04  0.10000000000E+04  0.00000000000E+00 0.  1.
    9000005    2    1    2  501    0 -0.22636756237E+02 -0.26192697270E+02 -0.52673654665E+03  0.52788295241E+03  0.32468068629E+01 0.  0.
         13    1    3    3    0    0 -0.62466245340E+01 -0.89855236210E+01 -0.15160723952E+03  0.15200169416E+03  0.00000000000E+00 0.  1.
          3    1    3    3  501    0 -0.16390131703E+02 -0.17207173649E+02 -0.37512930713E+03  0.37588125826E+03  0.00000000000E+00 0.  1.
         -3    1    1    2    0  502  0.22636756237E+02  0.26192697270E+02 -0.47205638922E+03  0.47332411172E+03  0.00000000000E+00 0. -1.
<mgrwt>
<rscale>  1 0.30000000E+03</rscale>
<asrwt>0</asrwt>
<pdfrwt beam="1">  1       21 0.43893334E-02 0.30000000E+03</pdfrwt>
<pdfrwt beam="2">0</pdfrwt>
<totfact> 0.35943873E+04</totfact>
</mgrwt>
</event>
<event>
 6    1  0.8397183E-002  0.3000000E+03  0.7818608E-02  0.1093470E+00
         21   -1    0    0  501  502  0.00000000000E+00  0.00000000000E+00  0.20625312040E+01  0.20625312040E+01  0.00000000000E+00 0. -1.
         13   -1    0    0    0    0 -0.00000000000E+00 -0.00000000000E+00 -0.10000000000E+04  0.10000000000E+04  0.00000000000E+00 0.  1.
    9000005    2    1    2  501    0 -0.34804315967E+02 -0.27574862411E+02 -0.39780654304E+03  0.40029111156E+03  0.33488602173E+01 0.  0.
         13    1    3    3    0    0 -0.27753317082E+01 -0.12183297828E+01 -0.30263225577E+02  0.30414628321E+02  0.00000000000E+00 0.  1.
          3    1    3    3  501    0 -0.32028984258E+02 -0.26356532629E+02 -0.36754331746E+03  0.36987648324E+03  0.00000000000E+00 0.  1.
         -3    1    1    2    0  502  0.34804315967E+02  0.27574862411E+02 -0.60013092576E+03  0.60177141964E+03  0.00000000000E+00 0. -1.
<mgrwt>
<rscale>  1 0.30000000E+03</rscale>
<asrwt>0</asrwt>
<pdfrwt beam="1">  1       21 0.75001293E-02 0.30000000E+03</pdfrwt>
<pdfrwt beam="2">0</pdfrwt>
<totfact> 0.14304031E+04</totfact>
</mgrwt>
</event>
<event>
 6    1  0.8397183E-002  0.3000000E+03  0.7818608E-02  0.1093470E+00
         21   -1    0    0  501  502  0.00000000000E+00  0.00000000000E+00  0.22437748507E+01  0.22437748507E+01  0.00000000000E+00 0. -1.
         13   -1    0    0    0    0 -0.00000000000E+00 -0.00000000000E+00 -0.10000000000E+04  0.10000000000E+04  0.00000000000E+00 0.  1.
    9000005    2    1    2  501    0 -0.17428571680E+02  0.43877920990E+02 -0.53300009542E+03  0.53509573924E+03  0.30530911354E+01 0.  0.
         13    1    3    3    0    0 -0.44378305109E+01  0.88567016414E+01 -0.10186303715E+03  0.10234360674E+03  0.00000000000E+00 0.  1.
          3    1    3    3  501    0 -0.12990741169E+02  0.35021219349E+02 -0.43113705827E+03  0.43275213249E+03  0.00000000000E+00 0.  1.
         -1    1    1    2    0  502  0.17428571680E+02 -0.43877920990E+02 -0.46475612973E+03  0.46714803561E+03  0.00000000000E+00 0. -1.
<mgrwt>
<rscale>  1 0.30000000E+03</rscale>
<asrwt>0</asrwt>
<pdfrwt beam="1">  1       21 0.81591985E-02 0.30000000E+03</pdfrwt>
<pdfrwt beam="2">0</pdfrwt>
<totfact> 0.12339082E+04</totfact>
</mgrwt>
</event>
<event>
 6    1  0.8397183E-002  0.3000000E+03  0.7818608E-02  0.1093470E+00
         21   -1    0    0  501  502  0.00000000000E+00  0.00000000000E+00  0.11272883954E+01  0.11272883954E+01  0.00000000000E+00 0. -1.
         13   -1    0    0    0    0 -0.00000000000E+00 -0.00000000000E+00 -0.10000000000E+04  0.10000000000E+04  0.00000000000E+00 0.  1.
    9000005    2    1    2  501    0 -0.15682906601E+02  0.29159059935E+02 -0.57008548080E+03  0.57106369584E+03  0.44816244916E+01 0.  0.
         13    1    3    3    0    0 -0.11655664269E+02  0.17091304478E+02 -0.35566054009E+03  0.35626168328E+03  0.00000000000E+00 0.  1.
          3    1    3    3  501    0 -0.40272423320E+01  0.12067755457E+02 -0.21442494071E+03  0.21480201256E+03  0.00000000000E+00 0.  1.
         -1    1    1    2    0  502  0.15682906601E+02 -0.29159059935E+02 -0.42878723081E+03  0.43006359255E+03  0.00000000000E+00 0. -1.
<mgrwt>
<rscale>  1 0.30000000E+03</rscale>
<asrwt>0</asrwt>
<pdfrwt beam="1">  1       21 0.40992392E-02 0.30000000E+03</pdfrwt>
<pdfrwt beam="2">0</pdfrwt>
<totfact> 0.40346260E+04</totfact>
</mgrwt>
</event>
<event>
 6    1  0.8397183E-002  0.3000000E+03  0.7818608E-02  0.1093470E+00
         21   -1    0    0  501  502  0.00000000000E+00  0.00000000000E+00  0.22304351397E+01  0.22304351397E+01  0.00000000000E+00 0. -1.
         13   -1    0    0    0    0 -0.00000000000E+00 -0.00000000000E+00 -0.10000000000E+04  0.10000000000E+04  0.00000000000E+00 0.  1.
    9000005    2    1    2  501    0  0.46899657174E+02  0.40501461184E+01 -0.47062956582E+03  0.47299271907E+03  0.37339709474E+01 0.  0.
         13    1    3    3    0    0  0.23552086837E+01  0.26036939395E+00 -0.16742279088E+02  0.16909130942E+02  0.00000000000E+00 0.  1.
          3    1    3    3  501    0  0.44544448490E+02  0.37897767245E+01 -0.45388728673E+03  0.45608358812E+03  0.00000000000E+00 0.  1.
         -1    1    1    2    0  502 -0.46899657174E+02 -0.40501461184E+01 -0.52713999904E+03  0.52923771607E+03  0.00000000000E+00 0. -1.
<mgrwt>
<rscale>  1 0.30000000E+03</rscale>
<asrwt>0</asrwt>
<pdfrwt beam="1">  1       21 0.81106903E-02 0.30000000E+03</pdfrwt>
<pdfrwt beam="2">0</pdfrwt>
<totfact> 0.12469126E+04</totfact>
</mgrwt>
</event>
<event>
 6    1  0.8397183E-002  0.3000000E+03  0.7818608E-02  0.1093470E+00
         21   -1    0    0  501  502  0.00000000000E+00  0.00000000000E+00  0.23220892017E+01  0.23220892017E+01  0.00000000000E+00 0. -1.
         13   -1    0    0    0    0 -0.00000000000E+00 -0.00000000000E+00 -0.10000000000E+04  0.10000000000E+04  0.00000000000E+00 0.  1.
    9000005    2    1    2  501    0 -0.36689318454E+02  0.23431677585E+02 -0.28591409649E+03  0.28922821252E+03  0.33073769786E+01 0.  0.
         13    1    3    3    0    0 -0.31846050942E+02  0.20172859422E+02 -0.23955268482E+03  0.24250072995E+03  0.00000000000E+00 0.  1.
          1    1    3    3  501    0 -0.48432675118E+01  0.32588181625E+01 -0.46361411665E+02  0.46727482572E+02  0.00000000000E+00 0.  1.
         -1    1    1    2    0  502  0.36689318454E+02 -0.23431677585E+02 -0.71176381431E+03  0.71309387668E+03  0.00000000000E+00 0. -1.
<mgrwt>
<rscale>  1 0.30000000E+03</rscale>
<asrwt>0</asrwt>
<pdfrwt beam="1">  1       21 0.84439785E-02 0.30000000E+03</pdfrwt>
<pdfrwt beam="2">0</pdfrwt>
<totfact> 0.11615889E+04</totfact>
</mgrwt>
</event>
<event>
 6    1  0.8397183E-002  0.3000000E+03  0.7818608E-02  0.1093470E+00
         21   -1    0    0  501  502  0.00000000000E+00  0.00000000000E+00  0.12956570852E+01  0.12956570852E+01  0.00000000000E+00 0. -1.
         13   -1    0    0    0    0 -0.00000000000E+00 -0.00000000000E+00 -0.10000000000E+04  0.10000000000E+04  0.00000000000E+00 0.  1.
    9000005    2    1    2  501    0  0.46074158878E+01 -0.29884945516E+02 -0.77003628623E+03  0.77063699500E+03  0.33403133036E+01 0.  0.
         13    1    3    3    0    0  0.29669978092E+01 -0.15642893031E+02 -0.36507951119E+03  0.36542653526E+03  0.00000000000E+00 0.  1.
          1    1    3    3  501    0  0.16404180785E+01 -0.14242052485E+02 -0.40495677504E+03  0.40521045974E+03  0.00000000000E+00 0.  1.
         -3    1    1    2    0  502 -0.46074158878E+01  0.29884945516E+02 -0.22866805668E+03  0.23065866209E+03  0.00000000000E+00 0. -1.
<mgrwt>
<rscale>  1 0.30000000E+03</rscale>
<asrwt>0</asrwt>
<pdfrwt beam="1">  1       21 0.47114902E-02 0.30000000E+03</pdfrwt>
<pdfrwt beam="2">0</pdfrwt>
<totfact> 0.31871736E+04</totfact>
</mgrwt>
</event>
<event>
 6    1  0.8397183E-002  0.3000000E+03  0.7818608E-02  0.1093470E+00
         21   -1    0    0  501  502  0.00000000000E+00  0.00000000000E+00  0.11249680473E+01  0.11249680473E+01  0.00000000000E+00 0. -1.
         13   -1    0    0    0    0 -0.00000000000E+00 -0.00000000000E+00 -0.10000000000E+04  0.10000000000E+04  0.00000000000E+00 0.  1.
    9000005    2    1    2  501    0  0.38321648886E+00 -0.32280729869E+02 -0.37480043984E+03  0.37621594356E+03  0.45688184751E+01 0.  0.
         13    1    3    3    0    0 -0.98261191225E+00 -0.22017236533E+02 -0.23415309809E+03  0.23518800475E+03  0.00000000000E+00 0.  1.
          3    1    3    3  501    0  0.13658284011E+01 -0.10263493336E+02 -0.14064734175E+03  0.14102793881E+03  0.00000000000E+00 0.  1.
         -1    1    1    2    0  502 -0.38321648886E+00  0.32280729869E+02 -0.62407459211E+03  0.62490902449E+03  0.00000000000E+00 0. -1.
<mgrwt>
<rscale>  1 0.30000000E+03</rscale>
<asrwt>0</asrwt>
<pdfrwt beam="1">  1       21 0.40908015E-02 0.30000000E+03</pdfrwt>
<pdfrwt beam="2">0</pdfrwt>
<totfact> 0.40486675E+04</totfact>
</mgrwt>
</event>
<event>
 6    1  0.8397183E-002  0.3000000E+03  0.7818608E-02  0.1093470E+00
         21   -1    0    0  501  502  0.00000000000E+00  0.00000000000E+00  0.10335339815E+01  0.10335339815E+01  0.00000000000E+00 0. -1.
         13   -1    0    0    0    0 -0.00000000000E+00 -0.00000000000E+00 -0.10000000000E+04  0.10000000000E+04  0.00000000000E+00 0.  1.
    9000005    2    1    2  501    0  0.24082042728E+02  0.18824788332E+02 -0.65204551358E+03  0.65276859937E+03  0.30290441967E+01 0.  0.
         13    1    3    3    0    0  0.22399443948E+01  0.24606037814E+01 -0.56275793808E+02  0.56374079954E+02  0.00000000000E+00 0.  1.
          1    1    3    3  501    0  0.21842098333E+02  0.16364184551E+02 -0.59576971977E+03  0.59639451942E+03  0.00000000000E+00 0.  1.
         -3    1    1    2    0  502 -0.24082042728E+02 -0.18824788332E+02 -0.34692095244E+03  0.34826493461E+03  0.00000000000E+00 0. -1.
<mgrwt>
<rscale>  1 0.30000000E+03</rscale>
<asrwt>0</asrwt>
<pdfrwt beam="1">  1       21 0.37583133E-02 0.30000000E+03</pdfrwt>
<pdfrwt beam="2">0</pdfrwt>
<totfact> 0.46693307E+04</totfact>
</mgrwt>
</event>
<event>
 6    1  0.8397183E-002  0.3000000E+03  0.7818608E-02  0.1093470E+00
         21   -1    0    0  501  502  0.00000000000E+00  0.00000000000E+00  0.11051269788E+01  0.11051269788E+01  0.00000000000E+00 0. -1.
         13   -1    0    0    0    0 -0.00000000000E+00 -0.00000000000E+00 -0.10000000000E+04  0.10000000000E+04  0.00000000000E+00 0.  1.
    9000005    2    1    2  501    0  0.14382711926E+02  0.29042115153E+02 -0.60706943279E+03  0.60794169726E+03  0.30828859813E+01 0.  0.
         13    1    3    3    0    0  0.59620256067E+01  0.15412366512E+02 -0.30140148671E+03  0.30185417503E+03  0.00000000000E+00 0.  1.
          1    1    3    3  501    0  0.84206863196E+01  0.13629748641E+02 -0.30566794608E+03  0.30608752223E+03  0.00000000000E+00 0.  1.
         -3    1    1    2    0  502 -0.14382711926E+02 -0.29042115153E+02 -0.39182544023E+03  0.39316342972E+03  0.00000000000E+00 0. -1.
<mgrwt>
<rscale>  1 0.30000000E+03</rscale>
<asrwt>0</asrwt>
<pdfrwt beam="1">  1       21 0.40186520E-02 0.30000000E+03</pdfrwt>
<pdfrwt beam="2">0</pdfrwt>
<totfact> 0.41719156E+04</totfact>
</mgrwt>
</event>
<event>
 6    1  0.8397183E-002  0.3000000E+03  0.7818608E-02  0.1093470E+00
         21   -1    0    0  501  502  0.00000000000E+00  0.00000000000E+00  0.17702292457E+01  0.17702292457E+01  0.00000000000E+00 0. -1.
         13   -1    0    0    0    0 -0.00000000000E+00 -0.00000000000E+00 -0.10000000000E+04  0.10000000000E+04  0.00000000000E+00 0.  1.
    9000005    2    1    2  501    0  0.25967738758E+02  0.32610324946E+02 -0.43981675521E+03  0.44180339747E+03  0.37023116270E+01 0.  0.
         13    1    3    3    0    0  0.10756071642E+02  0.11604390653E+02 -0.18113115298E+03  0.18182092712E+03  0.00000000000E+00 0.  1.
          3    1    3    3  501    0  0.15211667116E+02  0.21005934294E+02 -0.25868560223E+03  0.25998247035E+03  0.00000000000E+00 0.  1.
         -1    1    1    2    0  502 -0.25967738758E+02 -0.32610324946E+02 -0.55841301555E+03  0.55996683177E+03  0.00000000000E+00 0. -1.
<mgrwt>
<rscale>  1 0.30000000E+03</rscale>
<asrwt>0</asrwt>
<pdfrwt beam="1">  1       21 0.64372108E-02 0.30000000E+03</pdfrwt>
<pdfrwt beam="2">0</pdfrwt>
<totfact> 0.18660960E+04</totfact>
</mgrwt>
</event>
<event>
 6    1  0.8397183E-002  0.3000000E+03  0.7818608E-02  0.1093470E+00
         21   -1    0    0  501  502  0.00000000000E+00  0.00000000000E+00  0.15585024582E+01  0.15585024582E+01  0.00000000000E+00 0. -1.
         13   -1    0    0    0    0 -0.00000000000E+00 -0.00000000000E+00 -0.10000000000E+04  0.10000000000E+04  0.00000000000E+00 0.  1.
    9000005    2    1    2  501    0  0.34373195828E+02  0.19248573553E+02 -0.48910417247E+03  0.49069987731E+03  0.33843597402E+01 0.  0.
         13    1    3    3    0    0  0.30170351718E+02  0.17241349776E+02 -0.44312405443E+03  0.44448446754E+03  0.00000000000E+00 0.  1.
          1    1    3    3  501    0  0.42028441097E+01  0.20072237767E+01 -0.45980118035E+02  0.46215409772E+02  0.00000000000E+00 0.  1.
         -1    1    1    2    0  502 -0.34373195828E+02 -0.19248573553E+02 -0.50933732507E+03  0.51085862515E+03  0.00000000000E+00 0. -1.
<mgrwt>
<rscale>  1 0.30000000E+03</rscale>
<asrwt>0</asrwt>
<pdfrwt beam="1">  1       21 0.56672936E-02 0.30000000E+03</pdfrwt>
<pdfrwt beam="2">0</pdfrwt>
<totfact> 0.23247101E+04</totfact>
</mgrwt>
</event>
<event>
 6    1  0.8397183E-002  0.3000000E+03  0.7818608E-02  0.1093470E+00
         21   -1    0    0  501  502  0.00000000000E+00  0.00000000000E+00  0.12068361763E+01  0.12068361763E+01  0.00000000000E+00 0. -1.
         13   -1    0    0    0    0 -0.00000000000E+00 -0.00000000000E+00 -0.10000000000E+04  0.10000000000E+04  0.00000000000E+00 0.  1.
    9000005    2    1    2  501    0  0.13211885006E+02  0.31387039678E+02 -0.42413553139E+03  0.42554105234E+03  0.58769102737E+01 0.  0.
         13    1    3    3    0    0  0.31902456669E+01  0.14978667641E+02 -0.18156712108E+03  0.18221184815E+03  0.00000000000E+00 0.  1.
          1    1    3    3  501    0  0.10021639340E+02  0.16408372037E+02 -0.24256841031E+03  0.24332920418E+03  0.00000000000E+00 0.  1.
         -3    1    1    2    0  502 -0.13211885006E+02 -0.31387039678E+02 -0.57465763244E+03  0.57566578384E+03  0.00000000000E+00 0. -1.
<mgrwt>
<rscale>  1 0.30000000E+03</rscale>
<asrwt>0</asrwt>
<pdfrwt beam="1">  1       21 0.43885044E-02 0.30000000E+03</pdfrwt>
<pdfrwt beam="2">0</pdfrwt>
<totfact> 0.35955372E+04</totfact>
</mgrwt>
</event>
<event>
 6    1  0.8397183E-002  0.3000000E+03  0.7818608E-02  0.1093470E+00
         21   -1    0    0  501  502  0.00000000000E+00  0.00000000000E+00  0.14177910497E+01  0.14177910497E+01  0.00000000000E+00 0. -1.
         13   -1    0    0    0    0 -0.00000000000E+00 -0.00000000000E+00 -0.10000000000E+04  0.10000000000E+04  0.00000000000E+00 0.  1.
    9000005    2    1    2  501    0 -0.13183154864E+02  0.31948726714E+02 -0.30370873605E+03  0.30568532807E+03  0.31633415943E+01 0.  0.
         13    1    3    3    0    0 -0.12127678032E+02  0.26354813592E+02 -0.25518160700E+03  0.25682544524E+03  0.00000000000E+00 0.  1.
          1    1    3    3  501    0 -0.10554768319E+01  0.55939131214E+01 -0.48527129055E+02  0.48859882825E+02  0.00000000000E+00 0.  1.
         -3    1    1    2    0  502  0.13183154864E+02 -0.31948726714E+02 -0.69487347290E+03  0.69573246298E+03  0.00000000000E+00 0. -1.
<mgrwt>
<rscale>  1 0.30000000E+03</rscale>
<asrwt>0</asrwt>
<pdfrwt beam="1">  1       21 0.51556147E-02 0.30000000E+03</pdfrwt>
<pdfrwt beam="2">0</pdfrwt>
<totfact> 0.27337202E+04</totfact>
</mgrwt>
</event>
<event>
 6    1  0.8397183E-002  0.3000000E+03  0.7818608E-02  0.1093470E+00
         21   -1    0    0  501  502  0.00000000000E+00  0.00000000000E+00  0.12222458765E+01  0.12222458765E+01  0.00000000000E+00 0. -1.
         13   -1    0    0    0    0 -0.00000000000E+00 -0.00000000000E+00 -0.10000000000E+04  0.10000000000E+04  0.00000000000E+00 0.  1.
    9000005    2    1    2  501    0 -0.32716887870E+02 -0.10301020993E+02 -0.58838165329E+03  0.58939526114E+03  0.41591020437E+01 0.  0.
         13    1    3    3    0    0 -0.16094196381E+02 -0.50224454138E+01 -0.25381823074E+03  0.25437755870E+03  0.00000000000E+00 0.  1.
          3    1    3    3  501    0 -0.16622691489E+02 -0.52785755797E+01 -0.33456342255E+03  0.33501770243E+03  0.00000000000E+00 0.  1.
         -3    1    1    2    0  502  0.32716887870E+02  0.10301020993E+02 -0.41039610083E+03  0.41182698474E+03  0.00000000000E+00 0. -1.
<mgrwt>
<rscale>  1 0.30000000E+03</rscale>
<asrwt>0</asrwt>
<pdfrwt beam="1">  1       21 0.44445398E-02 0.30000000E+03</pdfrwt>
<pdfrwt beam="2">0</pdfrwt>
<totfact> 0.35190626E+04</totfact>
</mgrwt>
</event>
<event>
 6    1  0.8397183E-002  0.3000000E+03  0.7818608E-02  0.1093470E+00
         21   -1    0    0  501  502  0.00000000000E+00  0.00000000000E+00  0.10392049768E+01  0.10392049768E+01  0.00000000000E+00 0. -1.
         13   -1    0    0    0    0 -0.00000000000E+00 -0.00000000000E+00 -0.10000000000E+04  0.10000000000E+04  0.00000000000E+00 0.  1.
    9000005    2    1    2  501    0 -0.25422238946E+02 -0.18048264259E+02 -0.60216612858E+03  0.60302157045E+03  0.76771052111E+01 0.  0.
         13    1    3    3    0    0 -0.85580286877E+01 -0.55488898074E+01 -0.13536905845E+03  0.13575276063E+03  0.00000000000E+00 0.  1.
          1    1    3    3  501    0 -0.16864210258E+02 -0.12499374452E+02 -0.46679707013E+03  0.46726880982E+03  0.00000000000E+00 0.  1.
         -3    1    1    2    0  502  0.25422238946E+02  0.18048264259E+02 -0.39679466644E+03  0.39801763453E+03  0.00000000000E+00 0. -1.
<mgrwt>
<rscale>  1 0.30000000E+03</rscale>
<asrwt>0</asrwt>
<pdfrwt beam="1">  1       21 0.37789352E-02 0.30000000E+03</pdfrwt>
<pdfrwt beam="2">0</pdfrwt>
<totfact> 0.46266128E+04</totfact>
</mgrwt>
</event>
<event>
 6    1  0.8397183E-002  0.3000000E+03  0.7818608E-02  0.1093470E+00
         21   -1    0    0  501  502  0.00000000000E+00  0.00000000000E+00  0.29641339194E+02  0.29641339194E+02  0.00000000000E+00 0. -1.
         13   -1    0    0    0    0 -0.00000000000E+00 -0.00000000000E+00 -0.10000000000E+04  0.10000000000E+04  0.00000000000E+00 0.  1.
    9000005    2    1    2  501    0  0.15290676483E+03 -0.31526638550E+01 -0.72154713552E+03  0.73758382237E+03  0.30345042413E+01 0.  0.
         13    1    3    3    0    0  0.23296627091E+01 -0.37410675743E+00 -0.10285176798E+02  0.10552352627E+02  0.00000000000E+00 0.  1.
          1    1    3    3  501    0  0.15057710212E+03 -0.27785570976E+01 -0.71126195872E+03  0.72703146974E+03  0.00000000000E+00 0.  1.
         -3    1    1    2    0  502 -0.15290676483E+03  0.31526638550E+01 -0.24881152529E+03  0.29205751683E+03  0.00000000000E+00 0. -1.
<mgrwt>
<rscale>  1 0.30000000E+03</rscale>
<asrwt>0</asrwt>
<pdfrwt beam="1">  1       21 0.10778692E+00 0.30000000E+03</pdfrwt>
<pdfrwt beam="2">0</pdfrwt>
<totfact> 0.60608036E+01</totfact>
</mgrwt>
</event>
<event>
 6    1  0.8397183E-002  0.3000000E+03  0.7818608E-02  0.1093470E+00
         21   -1    0    0  501  502  0.00000000000E+00  0.00000000000E+00  0.15902431690E+01  0.15902431690E+01  0.00000000000E+00 0. -1.
         13   -1    0    0    0    0 -0.00000000000E+00 -0.00000000000E+00 -0.10000000000E+04  0.10000000000E+04  0.00000000000E+00 0.  1.
    9000005    2    1    2  501    0 -0.35158700011E+02 -0.15667508880E+02 -0.62783986204E+03  0.62902662183E+03  0.31612626471E+01 0.  0.
         13    1    3    3    0    0 -0.58093873628E+01 -0.19741329345E+01 -0.84588427299E+02  0.84810660976E+02  0.00000000000E+00 0.  1.
          1    1    3    3  501    0 -0.29349312648E+02 -0.13693375945E+02 -0.54325143474E+03  0.54421596085E+03  0.00000000000E+00 0.  1.
         -1    1    1    2    0  502  0.35158700011E+02  0.15667508880E+02 -0.37056989479E+03  0.37256362134E+03  0.00000000000E+00 0. -1.
<mgrwt>
<rscale>  1 0.30000000E+03</rscale>
<asrwt>0</asrwt>
<pdfrwt beam="1">  1       21 0.57827146E-02 0.30000000E+03</pdfrwt>
<pdfrwt beam="2">0</pdfrwt>
<totfact> 0.22454680E+04</totfact>
</mgrwt>
</event>
<event>
 6    1  0.8397183E-002  0.3000000E+03  0.7818608E-02  0.1093470E+00
         21   -1    0    0  501  502  0.00000000000E+00  0.00000000000E+00  0.11317923360E+01  0.11317923360E+01  0.00000000000E+00 0. -1.
         13   -1    0    0    0    0 -0.00000000000E+00 -0.00000000000E+00 -0.10000000000E+04  0.10000000000E+04  0.00000000000E+00 0.  1.
    9000005    2    1    2  501    0  0.27396224024E+02 -0.18054656086E+02 -0.40011510217E+03  0.40148038941E+03  0.42289946625E+01 0.  0.
         13    1    3    3    0    0  0.23821926461E+02 -0.15705898718E+02 -0.32809265727E+03  0.32933106624E+03  0.00000000000E+00 0.  1.
          3    1    3    3  501    0  0.35742975634E+01 -0.23487573687E+01 -0.72022444897E+02  0.72149323165E+02  0.00000000000E+00 0.  1.
         -1    1    1    2    0  502 -0.27396224024E+02  0.18054656086E+02 -0.59875310549E+03  0.59965140293E+03  0.00000000000E+00 0. -1.
<mgrwt>
<rscale>  1 0.30000000E+03</rscale>
<asrwt>0</asrwt>
<pdfrwt beam="1">  1       21 0.41156172E-02 0.30000000E+03</pdfrwt>
<pdfrwt beam="2">0</pdfrwt>
<totfact> 0.40075864E+04</totfact>
</mgrwt>
</event>
<event>
 6    1  0.8397183E-002  0.3000000E+03  0.7818608E-02  0.1093470E+00
         21   -1    0    0  501  502  0.00000000000E+00  0.00000000000E+00  0.57052626110E+01  0.57052626110E+01  0.00000000000E+00 0. -1.
         13   -1    0    0    0    0 -0.00000000000E+00 -0.00000000000E+00 -0.10000000000E+04  0.10000000000E+04  0.00000000000E+00 0.  1.
    9000005    2    1    2  501    0  0.11520269132E+02 -0.67680853342E+02 -0.28829216391E+03  0.29637244350E+03  0.32922612341E+01 0.  0.
         13    1    3    3    0    0  0.61615020188E+01 -0.39340567743E+02 -0.16051686809E+03  0.16538231259E+03  0.00000000000E+00 0.  1.
          3    1    3    3  501    0  0.53587671128E+01 -0.28340285599E+02 -0.12777529583E+03  0.13099013091E+03  0.00000000000E+00 0.  1.
         -3    1    1    2    0  502 -0.11520269132E+02  0.67680853342E+02 -0.70600257348E+03  0.70933281911E+03  0.00000000000E+00 0. -1.
<mgrwt>
<rscale>  1 0.30000000E+03</rscale>
<asrwt>0</asrwt>
<pdfrwt beam="1">  1       21 0.20746453E-01 0.30000000E+03</pdfrwt>
<pdfrwt beam="2">0</pdfrwt>
<totfact> 0.22368792E+03</totfact>
</mgrwt>
</event>
<event>
 6    1  0.8397183E-002  0.3000000E+03  0.7818608E-02  0.1093470E+00
         21   -1    0    0  501  502  0.00000000000E+00  0.00000000000E+00  0.18405468173E+01  0.18405468173E+01  0.00000000000E+00 0. -1.
         13   -1    0    0    0    0 -0.00000000000E+00 -0.00000000000E+00 -0.10000000000E+04  0.10000000000E+04  0.00000000000E+00 0.  1.
    9000005    2    1    2  501    0  0.36825095934E+02 -0.11721960766E+02 -0.71534485707E+03  0.71639775425E+03  0.37397462479E+01 0.  0.
         13    1    3    3    0    0  0.13284659667E+02 -0.34159556306E+01 -0.28423201840E+03  0.28456280716E+03  0.00000000000E+00 0.  1.
          1    1    3    3  501    0  0.23540436266E+02 -0.83060051357E+01 -0.43111283868E+03  0.43183494710E+03  0.00000000000E+00 0.  1.
         -3    1    1    2    0  502 -0.36825095934E+02  0.11721960766E+02 -0.28281459611E+03  0.28544279256E+03  0.00000000000E+00 0. -1.
<mgrwt>
<rscale>  1 0.30000000E+03</rscale>
<asrwt>0</asrwt>
<pdfrwt beam="1">  1       21 0.66929116E-02 0.30000000E+03</pdfrwt>
<pdfrwt beam="2">0</pdfrwt>
<totfact> 0.17443180E+04</totfact>
</mgrwt>
</event>
<event>
 6    1  0.8612703E-002  0.3000000E+03  0.7818608E-02  0.1093470E+00
         21   -1    0    0  501  502  0.00000000000E+00  0.00000000000E+00  0.28179574977E+01  0.28179574977E+01  0.00000000000E+00 0. -1.
         13   -1    0    0    0    0 -0.00000000000E+00 -0.00000000000E+00 -0.10000000000E+04  0.10000000000E+04  0.00000000000E+00 0.  1.
    9000005    2    1    2  501    0  0.45595951689E+02  0.22724126832E+02 -0.63597615166E+03  0.63803710228E+03  0.55046944557E+01 0.  0.
         13    1    3    3    0    0  0.32861546802E+02  0.14531198447E+02 -0.42297581022E+03  0.42449920262E+03  0.00000000000E+00 0.  1.
          1    1    3    3  501    0  0.12734404887E+02  0.81929283843E+01 -0.21300034143E+03  0.21353789966E+03  0.00000000000E+00 0.  1.
         -1    1    1    2    0  502 -0.45595951689E+02 -0.22724126832E+02 -0.36120589085E+03  0.36478085522E+03  0.00000000000E+00 0. -1.
<mgrwt>
<rscale>  1 0.30000000E+03</rscale>
<asrwt>0</asrwt>
<pdfrwt beam="1">  1       21 0.10247140E-01 0.30000000E+03</pdfrwt>
<pdfrwt beam="2">0</pdfrwt>
<totfact> 0.82356990E+03</totfact>
</mgrwt>
</event>
<event>
 6    1  0.8397183E-002  0.3000000E+03  0.7818608E-02  0.1093470E+00
         21   -1    0    0  501  502  0.00000000000E+00  0.00000000000E+00  0.18254593710E+01  0.18254593710E+01  0.00000000000E+00 0. -1.
         13   -1    0    0    0    0 -0.00000000000E+00 -0.00000000000E+00 -0.10000000000E+04  0.10000000000E+04  0.00000000000E+00 0.  1.
    9000005    2    1    2  501    0  0.24107483137E+02  0.29445666000E+02 -0.27268944391E+03  0.27534294509E+03  0.24467536772E+01 0.  0.
         13    1    3    3    0    0  0.89108110830E+01  0.12691510576E+02 -0.11355634347E+03  0.11461029682E+03  0.00000000000E+00 0.  1.
          1    1    3    3  501    0  0.15196672054E+02  0.16754155424E+02 -0.15913310044E+03  0.16073264828E+03  0.00000000000E+00 0.  1.
         -3    1    1    2    0  502 -0.24107483137E+02 -0.29445666000E+02 -0.72548509672E+03  0.72648251428E+03  0.00000000000E+00 0. -1.
<mgrwt>
<rscale>  1 0.30000000E+03</rscale>
<asrwt>0</asrwt>
<pdfrwt beam="1">  1       21 0.66380481E-02 0.30000000E+03</pdfrwt>
<pdfrwt beam="2">0</pdfrwt>
<totfact> 0.17693940E+04</totfact>
</mgrwt>
</event>
<event>
 6    1  0.8397183E-002  0.3000000E+03  0.7818608E-02  0.1093470E+00
         21   -1    0    0  501  502  0.00000000000E+00  0.00000000000E+00  0.16800635953E+01  0.16800635953E+01  0.00000000000E+00 0. -1.
         13   -1    0    0    0    0 -0.00000000000E+00 -0.00000000000E+00 -0.10000000000E+04  0.10000000000E+04  0.00000000000E+00 0.  1.
    9000005    2    1    2  501    0  0.95949914106E+01  0.39412245150E+02 -0.43392131574E+03  0.43582567249E+03  0.33044844546E+01 0.  0.
         13    1    3    3    0    0  0.34949622985E+00  0.62624893323E+01 -0.63372357425E+02  0.63681995932E+02  0.00000000000E+00 0.  1.
          3    1    3    3  501    0  0.92454951807E+01  0.33149755818E+02 -0.37054895832E+03  0.37214367656E+03  0.00000000000E+00 0.  1.
         -1    1    1    2    0  502 -0.95949914106E+01 -0.39412245150E+02 -0.56439862066E+03  0.56585439110E+03  0.00000000000E+00 0. -1.
<mgrwt>
<rscale>  1 0.30000000E+03</rscale>
<asrwt>0</asrwt>
<pdfrwt beam="1">  1       21 0.61093350E-02 0.30000000E+03</pdfrwt>
<pdfrwt beam="2">0</pdfrwt>
<totfact> 0.20425281E+04</totfact>
</mgrwt>
</event>
<event>
 6    1  0.8397183E-002  0.3000000E+03  0.7818608E-02  0.1093470E+00
         21   -1    0    0  501  502  0.00000000000E+00  0.00000000000E+00  0.70596562963E+01  0.70596562963E+01  0.00000000000E+00 0. -1.
         13   -1    0    0    0    0 -0.00000000000E+00 -0.00000000000E+00 -0.10000000000E+04  0.10000000000E+04  0.00000000000E+00 0.  1.
    9000005    2    1    2  501    0 -0.66505716768E+02  0.36523955065E+02 -0.71252069444E+03  0.71655631836E+03  0.31949532543E+01 0.  0.
         13    1    3    3    0    0 -0.14946222233E+02  0.91186286079E+01 -0.17481276741E+03  0.17568734330E+03  0.00000000000E+00 0.  1.
          3    1    3    3  501    0 -0.51559494535E+02  0.27405326457E+02 -0.53770792702E+03  0.54086897506E+03  0.00000000000E+00 0.  1.
         -1    1    1    2    0  502  0.66505716768E+02 -0.36523955065E+02 -0.28041964927E+03  0.29050333794E+03  0.00000000000E+00 0. -1.
<mgrwt>
<rscale>  1 0.30000000E+03</rscale>
<asrwt>0</asrwt>
<pdfrwt beam="1">  1       21 0.25671532E-01 0.30000000E+03</pdfrwt>
<pdfrwt beam="2">0</pdfrwt>
<totfact> 0.14805820E+03</totfact>
</mgrwt>
</event>
<event>
 6    1  0.8397183E-002  0.3000000E+03  0.7818608E-02  0.1093470E+00
         21   -1    0    0  501  502  0.00000000000E+00  0.00000000000E+00  0.15820486817E+01  0.15820486817E+01  0.00000000000E+00 0. -1.
         13   -1    0    0    0    0 -0.00000000000E+00 -0.00000000000E+00 -0.10000000000E+04  0.10000000000E+04  0.00000000000E+00 0.  1.
    9000005    2    1    2  501    0 -0.25814740701E+02  0.27654135796E+02 -0.65253788591E+03  0.65363927794E+03  0.27314931166E+01 0.  0.
         13    1    3    3    0    0 -0.12012204695E+02  0.14746417333E+02 -0.33544740663E+03  0.33598617903E+03  0.00000000000E+00 0.  1.
          1    1    3    3  501    0 -0.13802536006E+02  0.12907718463E+02 -0.31709047929E+03  0.31765309892E+03  0.00000000000E+00 0.  1.
         -3    1    1    2    0  502  0.25814740701E+02 -0.27654135796E+02 -0.34588006540E+03  0.34794277074E+03  0.00000000000E+00 0. -1.
<mgrwt>
<rscale>  1 0.30000000E+03</rscale>
<asrwt>0</asrwt>
<pdfrwt beam="1">  1       21 0.57529164E-02 0.30000000E+03</pdfrwt>
<pdfrwt beam="2">0</pdfrwt>
<totfact> 0.22655253E+04</totfact>
</mgrwt>
</event>
<event>
 6    1  0.8397183E-002  0.3000000E+03  0.7818608E-02  0.1093470E+00
         21   -1    0    0  501  502  0.00000000000E+00  0.00000000000E+00  0.15044488732E+01  0.15044488732E+01  0.00000000000E+00 0. -1.
         13   -1    0    0    0    0 -0.00000000000E+00 -0.00000000000E+00 -0.10000000000E+04  0.10000000000E+04  0.00000000000E+00 0.  1.
    9000005    2    1    2  501    0  0.67532288794E+00  0.37515041708E+02 -0.62402502046E+03  0.62515884606E+03  0.29192871585E+01 0.  0.
         13    1    3    3    0    0  0.17184173153E+01  0.22211059824E+02 -0.37889730228E+03  0.37955164314E+03  0.00000000000E+00 0.  1.
          3    1    3    3  501    0 -0.10430944274E+01  0.15303981884E+02 -0.24512771818E+03  0.24560720292E+03  0.00000000000E+00 0.  1.
         -1    1    1    2    0  502 -0.67532288794E+00 -0.37515041708E+02 -0.37447053067E+03  0.37634560281E+03  0.00000000000E+00 0. -1.
<mgrwt>
<rscale>  1 0.30000000E+03</rscale>
<asrwt>0</asrwt>
<pdfrwt beam="1">  1       21 0.54707347E-02 0.30000000E+03</pdfrwt>
<pdfrwt beam="2">0</pdfrwt>
<totfact> 0.24699024E+04</totfact>
</mgrwt>
</event>
<event>
 6    1  0.8397183E-002  0.3000000E+03  0.7818608E-02  0.1093470E+00
         21   -1    0    0  501  502  0.00000000000E+00  0.00000000000E+00  0.13465891371E+01  0.13465891371E+01  0.00000000000E+00 0. -1.
         13   -1    0    0    0    0 -0.00000000000E+00 -0.00000000000E+00 -0.10000000000E+04  0.10000000000E+04  0.00000000000E+00 0.  1.
    9000005    2    1    2  501    0  0.29009785954E+02  0.21083264326E+02 -0.60060594839E+03  0.60168691629E+03  0.36835149806E+01 0.  0.
         13    1    3    3    0    0  0.14557173601E+02  0.10949096873E+02 -0.33530177755E+03  0.33579618230E+03  0.00000000000E+00 0.  1.
          3    1    3    3  501    0  0.14452612353E+02  0.10134167453E+02 -0.26530417084E+03  0.26589073399E+03  0.00000000000E+00 0.  1.
         -1    1    1    2    0  502 -0.29009785954E+02 -0.21083264326E+02 -0.39804746248E+03  0.39965967285E+03  0.00000000000E+00 0. -1.
<mgrwt>
<rscale>  1 0.30000000E+03</rscale>
<asrwt>0</asrwt>
<pdfrwt beam="1">  1       21 0.48966981E-02 0.30000000E+03</pdfrwt>
<pdfrwt beam="2">0</pdfrwt>
<totfact> 0.29847720E+04</totfact>
</mgrwt>
</event>
<event>
 6    1  0.8397183E-002  0.3000000E+03  0.7818608E-02  0.1093470E+00
         21   -1    0    0  501  502  0.00000000000E+00  0.00000000000E+00  0.36685765991E+01  0.36685765991E+01  0.00000000000E+00 0. -1.
         13   -1    0    0    0    0 -0.00000000000E+00 -0.00000000000E+00 -0.10000000000E+04  0.10000000000E+04  0.00000000000E+00 0.  1.
    9000005    2    1    2  501    0  0.18401093364E+02 -0.57282160910E+02 -0.44417248024E+03  0.44824140341E+03  0.33641254527E+01 0.  0.
         13    1    3    3    0    0  0.19067489840E+01 -0.87401714710E+01 -0.60020861593E+02  0.60683853828E+02  0.00000000000E+00 0.  1.
          3    1    3    3  501    0  0.16494344380E+02 -0.48541989439E+02 -0.38415161864E+03  0.38755754959E+03  0.00000000000E+00 0.  1.
         -1    1    1    2    0  502 -0.18401093364E+02  0.57282160910E+02 -0.55215894316E+03  0.55542717319E+03  0.00000000000E+00 0. -1.
<mgrwt>
<rscale>  1 0.30000000E+03</rscale>
<asrwt>0</asrwt>
<pdfrwt beam="1">  1       21 0.13340307E-01 0.30000000E+03</pdfrwt>
<pdfrwt beam="2">0</pdfrwt>
<totfact> 0.51093967E+03</totfact>
</mgrwt>
</event>
<event>
 6    1  0.8397183E-002  0.3000000E+03  0.7818608E-02  0.1093470E+00
         21   -1    0    0  501  502  0.00000000000E+00  0.00000000000E+00  0.13395597267E+01  0.13395597267E+01  0.00000000000E+00 0. -1.
         13   -1    0    0    0    0 -0.00000000000E+00 -0.00000000000E+00 -0.10000000000E+04  0.10000000000E+04  0.00000000000E+00 0.  1.
    9000005    2    1    2  501    0 -0.31068575861E+02  0.18219596283E+02 -0.41727412074E+03  0.41883869052E+03  0.33085852140E+01 0.  0.
         13    1    3    3    0    0 -0.22124490554E+02  0.12093747497E+02 -0.30650442181E+03  0.30753977369E+03  0.00000000000E+00 0.  1.
          3    1    3    3  501    0 -0.89440853073E+01  0.61258487861E+01 -0.11076969894E+03  0.11129891683E+03  0.00000000000E+00 0.  1.
         -3    1    1    2    0  502  0.31068575861E+02 -0.18219596283E+02 -0.58138631953E+03  0.58250086921E+03  0.00000000000E+00 0. -1.
<mgrwt>
<rscale>  1 0.30000000E+03</rscale>
<asrwt>0</asrwt>
<pdfrwt beam="1">  1       21 0.48711366E-02 0.30000000E+03</pdfrwt>
<pdfrwt beam="2">0</pdfrwt>
<totfact> 0.30114925E+04</totfact>
</mgrwt>
</event>
<event>
 6    1  0.8397183E-002  0.3000000E+03  0.7818608E-02  0.1093470E+00
         21   -1    0    0  501  502  0.00000000000E+00  0.00000000000E+00  0.10879306819E+01  0.10879306819E+01  0.00000000000E+00 0. -1.
         13   -1    0    0    0    0 -0.00000000000E+00 -0.00000000000E+00 -0.10000000000E+04  0.10000000000E+04  0.00000000000E+00 0.  1.
    9000005    2    1    2  501    0  0.12408509951E+02 -0.29030702271E+02 -0.64082146589E+03  0.64160826080E+03  0.35009127735E+01 0.  0.
         13    1    3    3    0    0  0.73063113034E+01 -0.20543032076E+02 -0.42224974995E+03  0.42281231023E+03  0.00000000000E+00 0.  1.
          3    1    3    3  501    0  0.51021986475E+01 -0.84876701954E+01 -0.21857171595E+03  0.21879595057E+03  0.00000000000E+00 0.  1.
         -1    1    1    2    0  502 -0.12408509951E+02  0.29030702271E+02 -0.35809060343E+03  0.35947966988E+03  0.00000000000E+00 0. -1.
<mgrwt>
<rscale>  1 0.30000000E+03</rscale>
<asrwt>0</asrwt>
<pdfrwt beam="1">  1       21 0.39561199E-02 0.30000000E+03</pdfrwt>
<pdfrwt beam="2">0</pdfrwt>
<totfact> 0.42835474E+04</totfact>
</mgrwt>
</event>
<event>
 6    1  0.8397183E-002  0.3000000E+03  0.7818608E-02  0.1093470E+00
         21   -1    0    0  501  502  0.00000000000E+00  0.00000000000E+00  0.14594352848E+01  0.14594352848E+01  0.00000000000E+00 0. -1.
         13   -1    0    0    0    0 -0.00000000000E+00 -0.00000000000E+00 -0.10000000000E+04  0.10000000000E+04  0.00000000000E+00 0.  1.
    9000005    2    1    2  501    0 -0.36033510551E+02  0.34249460587E+00 -0.33759881414E+03  0.33953607957E+03  0.36412685865E+01 0.  0.
         13    1    3    3    0    0 -0.27693165140E+02 -0.53793891071E+00 -0.24614798343E+03  0.24770149478E+03  0.00000000000E+00 0.  1.
          3    1    3    3  501    0 -0.83403454111E+01  0.88043351658E+00 -0.91450830715E+02  0.91834584788E+02  0.00000000000E+00 0.  1.
         -1    1    1    2    0  502  0.36033510551E+02 -0.34249460587E+00 -0.66094175058E+03  0.66192335571E+03  0.00000000000E+00 0. -1.
<mgrwt>
<rscale>  1 0.30000000E+03</rscale>
<asrwt>0</asrwt>
<pdfrwt beam="1">  1       21 0.53070486E-02 0.30000000E+03</pdfrwt>
<pdfrwt beam="2">0</pdfrwt>
<totfact> 0.26017654E+04</totfact>
</mgrwt>
</event>
<event>
 6    1  0.8397183E-002  0.3000000E+03  0.7818608E-02  0.1093470E+00
         21   -1    0    0  501  502  0.00000000000E+00  0.00000000000E+00  0.12718533776E+01  0.12718533776E+01  0.00000000000E+00 0. -1.
         13   -1    0    0    0    0 -0.00000000000E+00 -0.00000000000E+00 -0.10000000000E+04  0.10000000000E+04  0.00000000000E+00 0.  1.
    9000005    2    1    2  501    0  0.26910811995E+02  0.23085963688E+02 -0.45032941345E+03  0.45172811166E+03  0.21337102289E+01 0.  0.
         13    1    3    3    0    0  0.67757593577E+01  0.46300651857E+01 -0.10348485058E+03  0.10380974289E+03  0.00000000000E+00 0.  1.
          1    1    3    3  501    0  0.20135052637E+02  0.18455898502E+02 -0.34684456287E+03  0.34791836877E+03  0.00000000000E+00 0.  1.
         -3    1    1    2    0  502 -0.26910811995E+02 -0.23085963688E+02 -0.54839873317E+03  0.54954374172E+03  0.00000000000E+00 0. -1.
<mgrwt>
<rscale>  1 0.30000000E+03</rscale>
<asrwt>0</asrwt>
<pdfrwt beam="1">  1       21 0.46249311E-02 0.30000000E+03</pdfrwt>
<pdfrwt beam="2">0</pdfrwt>
<totfact> 0.32892309E+04</totfact>
</mgrwt>
</event>
<event>
 6    1  0.8397183E-002  0.3000000E+03  0.7818608E-02  0.1093470E+00
         21   -1    0    0  501  502  0.00000000000E+00  0.00000000000E+00  0.22486921551E+01  0.22486921551E+01  0.00000000000E+00 0. -1.
         13   -1    0    0    0    0 -0.00000000000E+00 -0.00000000000E+00 -0.10000000000E+04  0.10000000000E+04  0.00000000000E+00 0.  1.
    9000005    2    1    2  501    0 -0.26421784275E+01  0.46218965194E+02 -0.60478572234E+03  0.60656558000E+03  0.35859515588E+01 0.  0.
         13    1    3    3    0    0 -0.22618712845E+01  0.45783964860E+02 -0.59880898376E+03  0.60056097653E+03  0.00000000000E+00 0.  1.
          1    1    3    3  501    0 -0.38030714294E+00  0.43500033363E+00 -0.59767385769E+01  0.60046034698E+01  0.00000000000E+00 0.  1.
         -3    1    1    2    0  502  0.26421784275E+01 -0.46218965194E+02 -0.39296558551E+03  0.39568311215E+03  0.00000000000E+00 0. -1.
<mgrwt>
<rscale>  1 0.30000000E+03</rscale>
<asrwt>0</asrwt>
<pdfrwt beam="1">  1       21 0.81770796E-02 0.30000000E+03</pdfrwt>
<pdfrwt beam="2">0</pdfrwt>
<totfact> 0.12291670E+04</totfact>
</mgrwt>
</event>
<event>
 6    1  0.8397183E-002  0.3000000E+03  0.7818608E-02  0.1093470E+00
         21   -1    0    0  501  502  0.00000000000E+00  0.00000000000E+00  0.12068469495E+01  0.12068469495E+01  0.00000000000E+00 0. -1.
         13   -1    0    0    0    0 -0.00000000000E+00 -0.00000000000E+00 -0.10000000000E+04  0.10000000000E+04  0.00000000000E+00 0.  1.
    9000005    2    1    2  501    0  0.27549446958E+02 -0.20508735390E+02 -0.46167942147E+03  0.46299616245E+03  0.61626278012E+01 0.  0.
         13    1    3    3    0    0  0.27800038831E+02 -0.20580788821E+02 -0.45973100426E+03  0.46103037569E+03  0.00000000000E+00 0.  1.
          1    1    3    3  501    0 -0.25059187337E+00  0.72053431377E-01 -0.19484172087E+01  0.19657867645E+01  0.00000000000E+00 0.  1.
         -1    1    1    2    0  502 -0.27549446958E+02  0.20508735390E+02 -0.53711373158E+03  0.53821068450E+03  0.00000000000E+00 0. -1.
<mgrwt>
<rscale>  1 0.30000000E+03</rscale>
<asrwt>0</asrwt>
<pdfrwt beam="1">  1       21 0.43885436E-02 0.30000000E+03</pdfrwt>
<pdfrwt beam="2">0</pdfrwt>
<totfact> 0.35954829E+04</totfact>
</mgrwt>
</event>
<event>
 6    1  0.8397183E-002  0.3000000E+03  0.7818608E-02  0.1093470E+00
         21   -1    0    0  501  502  0.00000000000E+00  0.00000000000E+00  0.12075082320E+01  0.12075082320E+01  0.00000000000E+00 0. -1.
         13   -1    0    0    0    0 -0.00000000000E+00 -0.00000000000E+00 -0.10000000000E+04  0.10000000000E+04  0.00000000000E+00 0.  1.
    9000005    2    1    2  501    0  0.51110519285E+01 -0.33892033306E+02 -0.43580850902E+03  0.43718112799E+03  0.48465829729E+01 0.  0.
         13    1    3    3    0    0  0.37077530832E+01 -0.32219353981E+02 -0.40905476454E+03  0.41033843910E+03  0.00000000000E+00 0.  1.
          3    1    3    3  501    0  0.14032988453E+01 -0.16726793251E+01 -0.26753744473E+02  0.26842688895E+02  0.00000000000E+00 0.  1.
         -1    1    1    2    0  502 -0.51110519285E+01  0.33892033306E+02 -0.56298398275E+03  0.56402638024E+03  0.00000000000E+00 0. -1.
<mgrwt>
<rscale>  1 0.30000000E+03</rscale>
<asrwt>0</asrwt>
<pdfrwt beam="1">  1       21 0.43909483E-02 0.30000000E+03</pdfrwt>
<pdfrwt beam="2">0</pdfrwt>
<totfact> 0.35921486E+04</totfact>
</mgrwt>
</event>
<event>
 6    1  0.8397183E-002  0.3000000E+03  0.7818608E-02  0.1093470E+00
         21   -1    0    0  501  502  0.00000000000E+00  0.00000000000E+00  0.44974963125E+01  0.44974963125E+01  0.00000000000E+00 0. -1.
         13   -1    0    0    0    0 -0.00000000000E+00 -0.00000000000E+00 -0.10000000000E+04  0.10000000000E+04  0.00000000000E+00 0.  1.
    9000005    2    1    2  501    0  0.54245745953E+02  0.36231928261E+02 -0.61385946646E+03  0.61731955086E+03  0.21516816172E+01 0.  0.
         13    1    3    3    0    0  0.78282368126E+01  0.47616290358E+01 -0.92429454748E+02  0.92882498392E+02  0.00000000000E+00 0.  1.
          3    1    3    3  501    0  0.46417509141E+02  0.31470299225E+02 -0.52143001171E+03  0.52443705246E+03  0.00000000000E+00 0.  1.
         -1    1    1    2    0  502 -0.54245745953E+02 -0.36231928261E+02 -0.38164303723E+03  0.38717794546E+03  0.00000000000E+00 0. -1.
<mgrwt>
<rscale>  1 0.30000000E+03</rscale>
<asrwt>0</asrwt>
<pdfrwt beam="1">  1       21 0.16354567E-01 0.30000000E+03</pdfrwt>
<pdfrwt beam="2">0</pdfrwt>
<totfact> 0.35063299E+03</totfact>
</mgrwt>
</event>
<event>
 6    1  0.8397183E-002  0.3000000E+03  0.7818608E-02  0.1093470E+00
         21   -1    0    0  501  502  0.00000000000E+00  0.00000000000E+00  0.29441877396E+01  0.29441877396E+01  0.00000000000E+00 0. -1.
         13   -1    0    0    0    0 -0.00000000000E+00 -0.00000000000E+00 -0.10000000000E+04  0.10000000000E+04  0.00000000000E+00 0.  1.
    9000005    2    1    2  501    0  0.50368594005E+02  0.19312207483E+02 -0.45250776748E+03  0.45573076531E+03  0.41586289308E+01 0.  0.
         13    1    3    3    0    0  0.49437495948E+02  0.18665918169E+02 -0.43740737149E+03  0.44058789264E+03  0.00000000000E+00 0.  1.
          1    1    3    3  501    0  0.93109805783E+00  0.64628931403E+00 -0.15100395990E+02  0.15142872664E+02  0.00000000000E+00 0.  1.
         -3    1    1    2    0  502 -0.50368594005E+02 -0.19312207483E+02 -0.54454804478E+03  0.54721342243E+03  0.00000000000E+00 0. -1.
<mgrwt>
<rscale>  1 0.30000000E+03</rscale>
<asrwt>0</asrwt>
<pdfrwt beam="1">  1       21 0.10706160E-01 0.30000000E+03</pdfrwt>
<pdfrwt beam="2">0</pdfrwt>
<totfact> 0.76136231E+03</totfact>
</mgrwt>
</event>
<event>
 6    1  0.8397183E-002  0.3000000E+03  0.7818608E-02  0.1093470E+00
         21   -1    0    0  501  502  0.00000000000E+00  0.00000000000E+00  0.10725844312E+01  0.10725844312E+01  0.00000000000E+00 0. -1.
         13   -1    0    0    0    0 -0.00000000000E+00 -0.00000000000E+00 -0.10000000000E+04  0.10000000000E+04  0.00000000000E+00 0.  1.
    9000005    2    1    2  501    0 -0.45040918444E+01 -0.32352272760E+02 -0.49973522545E+03  0.50081285282E+03  0.33558304703E+01 0.  0.
         13    1    3    3    0    0 -0.32768690905E+01 -0.16130594481E+02 -0.23102013039E+03  0.23160577410E+03  0.00000000000E+00 0.  1.
          1    1    3    3  501    0 -0.12272227539E+01 -0.16221678279E+02 -0.26871509506E+03  0.26920707872E+03  0.00000000000E+00 0.  1.
         -1    1    1    2    0  502  0.45040918444E+01  0.32352272760E+02 -0.49919219012E+03  0.50025973161E+03  0.00000000000E+00 0. -1.
<mgrwt>
<rscale>  1 0.30000000E+03</rscale>
<asrwt>0</asrwt>
<pdfrwt beam="1">  1       21 0.39003152E-02 0.30000000E+03</pdfrwt>
<pdfrwt beam="2">0</pdfrwt>
<totfact> 0.43871703E+04</totfact>
</mgrwt>
</event>
<event>
 6    1  0.8397183E-002  0.3000000E+03  0.7818608E-02  0.1093470E+00
         21   -1    0    0  501  502  0.00000000000E+00  0.00000000000E+00  0.12395228518E+01  0.12395228518E+01  0.00000000000E+00 0. -1.
         13   -1    0    0    0    0 -0.00000000000E+00 -0.00000000000E+00 -0.10000000000E+04  0.10000000000E+04  0.00000000000E+00 0.  1.
    9000005    2    1    2  501    0  0.13738002846E+02  0.26912257970E+02 -0.75558978687E+03  0.75619873653E+03  0.27569466559E+01 0.  0.
         13    1    3    3    0    0  0.59340102089E+01  0.10777060025E+02 -0.27571000112E+03  0.27598435140E+03  0.00000000000E+00 0.  1.
          1    1    3    3  501    0  0.78039926375E+01  0.16135197945E+02 -0.47987978575E+03  0.48021438513E+03  0.00000000000E+00 0.  1.
         -3    1    1    2    0  502 -0.13738002846E+02 -0.26912257970E+02 -0.24317069028E+03  0.24504078633E+03  0.00000000000E+00 0. -1.
<mgrwt>
<rscale>  1 0.30000000E+03</rscale>
<asrwt>0</asrwt>
<pdfrwt beam="1">  1       21 0.45073653E-02 0.30000000E+03</pdfrwt>
<pdfrwt beam="2">0</pdfrwt>
<totfact> 0.34362690E+04</totfact>
</mgrwt>
</event>
<event>
 6    1  0.8397183E-002  0.3000000E+03  0.7818608E-02  0.1093470E+00
         21   -1    0    0  501  502  0.00000000000E+00  0.00000000000E+00  0.91666730757E+01  0.91666730757E+01  0.00000000000E+00 0. -1.
         13   -1    0    0    0    0 -0.00000000000E+00 -0.00000000000E+00 -0.10000000000E+04  0.10000000000E+04  0.00000000000E+00 0.  1.
    9000005    2    1    2  501    0  0.90054891254E+02  0.20550526815E+02 -0.36369663783E+03  0.37526397202E+03  0.39492708232E+01 0.  0.
         13    1    3    3    0    0  0.59558647854E+02  0.12738429075E+02 -0.23287409058E+03  0.24070696328E+03  0.00000000000E+00 0.  1.
          3    1    3    3  501    0  0.30496243399E+02  0.78120977398E+01 -0.13082254725E+03  0.13455700874E+03  0.00000000000E+00 0.  1.
         -1    1    1    2    0  502 -0.90054891254E+02 -0.20550526815E+02 -0.62713668910E+03  0.63390270105E+03  0.00000000000E+00 0. -1.
<mgrwt>
<rscale>  1 0.30000000E+03</rscale>
<asrwt>0</asrwt>
<pdfrwt beam="1">  1       21 0.33333427E-01 0.30000000E+03</pdfrwt>
<pdfrwt beam="2">0</pdfrwt>
<totfact> 0.87906326E+02</totfact>
</mgrwt>
</event>
<event>
 6    1  0.8397183E-002  0.3000000E+03  0.7818608E-02  0.1093470E+00
         21   -1    0    0  501  502  0.00000000000E+00  0.00000000000E+00  0.17313436339E+01  0.17313436339E+01  0.00000000000E+00 0. -1.
         13   -1    0    0    0    0 -0.00000000000E+00 -0.00000000000E+00 -0.10000000000E+04  0.10000000000E+04  0.00000000000E+00 0.  1.
    9000005    2    1    2  501    0  0.33184918538E+02  0.21826606464E+02 -0.35183806924E+03  0.35408163620E+03  0.24776115190E+01 0.  0.
         13    1    3    3    0    0  0.11264850631E+02  0.85642391157E+01 -0.13138919751E+03  0.13214902298E+03  0.00000000000E+00 0.  1.
          3    1    3    3  501    0  0.21920067907E+02  0.13262367348E+02 -0.22044887173E+03  0.22193261322E+03  0.00000000000E+00 0.  1.
         -1    1    1    2    0  502 -0.33184918538E+02 -0.21826606464E+02 -0.64643058713E+03  0.64764970744E+03  0.00000000000E+00 0. -1.
<mgrwt>
<rscale>  1 0.30000000E+03</rscale>
<asrwt>0</asrwt>
<pdfrwt beam="1">  1       21 0.62958083E-02 0.30000000E+03</pdfrwt>
<pdfrwt beam="2">0</pdfrwt>
<totfact> 0.19391706E+04</totfact>
</mgrwt>
</event>
<event>
 6    1  0.8397183E-002  0.3000000E+03  0.7818608E-02  0.1093470E+00
         21   -1    0    0  501  502  0.00000000000E+00  0.00000000000E+00  0.14285789359E+01  0.14285789359E+01  0.00000000000E+00 0. -1.
         13   -1    0    0    0    0 -0.00000000000E+00 -0.00000000000E+00 -0.10000000000E+04  0.10000000000E+04  0.00000000000E+00 0.  1.
    9000005    2    1    2  501    0  0.30735045885E+02 -0.18523713583E+02 -0.65021642724E+03  0.65123010274E+03  0.56101200111E+01 0.  0.
         13    1    3    3    0    0  0.23905066404E+02 -0.12913934903E+02 -0.45097395007E+03  0.45179168381E+03  0.00000000000E+00 0.  1.
          3    1    3    3  501    0  0.68299794807E+01 -0.56097786800E+01 -0.19924247717E+03  0.19943841893E+03  0.00000000000E+00 0.  1.
         -3    1    1    2    0  502 -0.30735045885E+02  0.18523713583E+02 -0.34835499382E+03  0.35019847620E+03  0.00000000000E+00 0. -1.
<mgrwt>
<rscale>  1 0.30000000E+03</rscale>
<asrwt>0</asrwt>
<pdfrwt beam="1">  1       21 0.51948434E-02 0.30000000E+03</pdfrwt>
<pdfrwt beam="2">0</pdfrwt>
<totfact> 0.26985581E+04</totfact>
</mgrwt>
</event>
<event>
 6    1  0.8397183E-002  0.3000000E+03  0.7818608E-02  0.1093470E+00
         21   -1    0    0  501  502  0.00000000000E+00  0.00000000000E+00  0.12242298160E+01  0.12242298160E+01  0.00000000000E+00 0. -1.
         13   -1    0    0    0    0 -0.00000000000E+00 -0.00000000000E+00 -0.10000000000E+04  0.10000000000E+04  0.00000000000E+00 0.  1.
    9000005    2    1    2  501    0 -0.16651325043E+02 -0.29700873136E+02 -0.38988363526E+03  0.39138077411E+03  0.32020011855E+01 0.  0.
         13    1    3    3    0    0 -0.26569622683E+01 -0.38117577912E+01 -0.42695061880E+02  0.42947144898E+02  0.00000000000E+00 0.  1.
          1    1    3    3  501    0 -0.13994362774E+02 -0.25889115344E+02 -0.34718857338E+03  0.34843362921E+03  0.00000000000E+00 0.  1.
         -3    1    1    2    0  502  0.16651325043E+02  0.29700873136E+02 -0.60889213493E+03  0.60984345571E+03  0.00000000000E+00 0. -1.
<mgrwt>
<rscale>  1 0.30000000E+03</rscale>
<asrwt>0</asrwt>
<pdfrwt beam="1">  1       21 0.44517542E-02 0.30000000E+03</pdfrwt>
<pdfrwt beam="2">0</pdfrwt>
<totfact> 0.35093997E+04</totfact>
</mgrwt>
</event>
<event>
 6    1  0.8397183E-002  0.3000000E+03  0.7818608E-02  0.1093470E+00
         21   -1    0    0  501  502  0.00000000000E+00  0.00000000000E+00  0.11680181605E+01  0.11680181605E+01  0.00000000000E+00 0. -1.
         13   -1    0    0    0    0 -0.00000000000E+00 -0.00000000000E+00 -0.10000000000E+04  0.10000000000E+04  0.00000000000E+00 0.  1.
    9000005    2    1    2  501    0 -0.24382715499E+02  0.18894314289E+02 -0.71321412845E+03  0.71388928574E+03  0.34651613162E+01 0.  0.
         13    1    3    3    0    0 -0.17080554552E+02  0.11157008065E+02 -0.46802197249E+03  0.46846642453E+03  0.00000000000E+00 0.  1.
          1    1    3    3  501    0 -0.73021609475E+01  0.77373062243E+01 -0.24519215596E+03  0.24542286121E+03  0.00000000000E+00 0.  1.
         -1    1    1    2    0  502  0.24382715499E+02 -0.18894314289E+02 -0.28561785339E+03  0.28727873242E+03  0.00000000000E+00 0. -1.
<mgrwt>
<rscale>  1 0.30000000E+03</rscale>
<asrwt>0</asrwt>
<pdfrwt beam="1">  1       21 0.42473477E-02 0.30000000E+03</pdfrwt>
<pdfrwt beam="2">0</pdfrwt>
<totfact> 0.38000010E+04</totfact>
</mgrwt>
</event>
<event>
 6    1  0.8397183E-002  0.3000000E+03  0.7818608E-02  0.1093470E+00
         21   -1    0    0  501  502  0.00000000000E+00  0.00000000000E+00  0.32512329513E+01  0.32512329513E+01  0.00000000000E+00 0. -1.
         13   -1    0    0    0    0 -0.00000000000E+00 -0.00000000000E+00 -0.10000000000E+04  0.10000000000E+04  0.00000000000E+00 0.  1.
    9000005    2    1    2  501    0  0.42263922997E+02  0.36774128573E+02 -0.58884594210E+03  0.59151917163E+03  0.41001412139E+01 0.  0.
         13    1    3    3    0    0  0.31564103884E+02  0.25150795611E+02 -0.41689205868E+03  0.41884107220E+03  0.00000000000E+00 0.  1.
          3    1    3    3  501    0  0.10699819113E+02  0.11623332962E+02 -0.17195388342E+03  0.17267809943E+03  0.00000000000E+00 0.  1.
         -1    1    1    2    0  502 -0.42263922997E+02 -0.36774128573E+02 -0.40790282494E+03  0.41173206132E+03  0.00000000000E+00 0. -1.
<mgrwt>
<rscale>  1 0.30000000E+03</rscale>
<asrwt>0</asrwt>
<pdfrwt beam="1">  1       21 0.11822690E-01 0.30000000E+03</pdfrwt>
<pdfrwt beam="2">0</pdfrwt>
<totfact> 0.63666835E+03</totfact>
</mgrwt>
</event>
<event>
 6    1  0.8397183E-002  0.3000000E+03  0.7818608E-02  0.1093470E+00
         21   -1    0    0  501  502  0.00000000000E+00  0.00000000000E+00  0.10408057770E+01  0.10408057770E+01  0.00000000000E+00 0. -1.
         13   -1    0    0    0    0 -0.00000000000E+00 -0.00000000000E+00 -0.10000000000E+04  0.10000000000E+04  0.00000000000E+00 0.  1.
    9000005    2    1    2  501    0  0.29215987471E+02  0.90234215204E+01 -0.65567073236E+03  0.65639321169E+03  0.35976413049E+01 0.  0.
         13    1    3    3    0    0  0.65425381313E+01  0.30152973239E+01 -0.18096827819E+03  0.18111160795E+03  0.00000000000E+00 0.  1.
          1    1    3    3  501    0  0.22673449340E+02  0.60081241964E+01 -0.47470245417E+03  0.47528160374E+03  0.00000000000E+00 0.  1.
         -3    1    1    2    0  502 -0.29215987471E+02 -0.90234215204E+01 -0.34328846186E+03  0.34464759408E+03  0.00000000000E+00 0. -1.
<mgrwt>
<rscale>  1 0.30000000E+03</rscale>
<asrwt>0</asrwt>
<pdfrwt beam="1">  1       21 0.37847563E-02 0.30000000E+03</pdfrwt>
<pdfrwt beam="2">0</pdfrwt>
<totfact> 0.46146656E+04</totfact>
</mgrwt>
</event>
<event>
 6    1  0.8397183E-002  0.3000000E+03  0.7818608E-02  0.1093470E+00
         21   -1    0    0  501  502  0.00000000000E+00  0.00000000000E+00  0.13311661215E+01  0.13311661215E+01  0.00000000000E+00 0. -1.
         13   -1    0    0    0    0 -0.00000000000E+00 -0.00000000000E+00 -0.10000000000E+04  0.10000000000E+04  0.00000000000E+00 0.  1.
    9000005    2    1    2  501    0 -0.15710867164E+02 -0.32777894096E+02 -0.48554267932E+03  0.48691919874E+03  0.41702489925E+01 0.  0.
         13    1    3    3    0    0  0.28150128103E-01 -0.11891777385E+01 -0.10456380458E+02  0.10523821949E+02  0.00000000000E+00 0.  1.
          3    1    3    3  501    0 -0.15739017292E+02 -0.31588716357E+02 -0.47508629886E+03  0.47639537679E+03  0.00000000000E+00 0.  1.
         -3    1    1    2    0  502  0.15710867164E+02  0.32777894096E+02 -0.51312615456E+03  0.51441196738E+03  0.00000000000E+00 0. -1.
<mgrwt>
<rscale>  1 0.30000000E+03</rscale>
<asrwt>0</asrwt>
<pdfrwt beam="1">  1       21 0.48406143E-02 0.30000000E+03</pdfrwt>
<pdfrwt beam="2">0</pdfrwt>
<totfact> 0.30438912E+04</totfact>
</mgrwt>
</event>
<event>
 6    1  0.8397183E-002  0.3000000E+03  0.7818608E-02  0.1093470E+00
         21   -1    0    0  501  502  0.00000000000E+00  0.00000000000E+00  0.10250633722E+01  0.10250633722E+01  0.00000000000E+00 0. -1.
         13   -1    0    0    0    0 -0.00000000000E+00 -0.00000000000E+00 -0.10000000000E+04  0.10000000000E+04  0.00000000000E+00 0.  1.
    9000005    2    1    2  501    0  0.13857940192E+02  0.28725165792E+02 -0.52409426825E+03  0.52507461758E+03  0.33725883528E+01 0.  0.
         13    1    3    3    0    0  0.38415898184E+01  0.98464857745E+01 -0.19641536216E+03  0.19669953124E+03  0.00000000000E+00 0.  1.
          1    1    3    3  501    0  0.10016350373E+02  0.18878680018E+02 -0.32767890609E+03  0.32837508634E+03  0.00000000000E+00 0.  1.
         -1    1    1    2    0  502 -0.13857940192E+02 -0.28725165792E+02 -0.47488066838E+03  0.47595044580E+03  0.00000000000E+00 0. -1.
<mgrwt>
<rscale>  1 0.30000000E+03</rscale>
<asrwt>0</asrwt>
<pdfrwt beam="1">  1       21 0.37275110E-02 0.30000000E+03</pdfrwt>
<pdfrwt beam="2">0</pdfrwt>
<totfact> 0.47343028E+04</totfact>
</mgrwt>
</event>
<event>
 6    1  0.8397183E-002  0.3000000E+03  0.7818608E-02  0.1093470E+00
         21   -1    0    0  501  502  0.00000000000E+00  0.00000000000E+00  0.18157181665E+01  0.18157181665E+01  0.00000000000E+00 0. -1.
         13   -1    0    0    0    0 -0.00000000000E+00 -0.00000000000E+00 -0.10000000000E+04  0.10000000000E+04  0.00000000000E+00 0.  1.
    9000005    2    1    2  501    0 -0.23126070471E+02  0.31307179298E+02 -0.70175675487E+03  0.70284375735E+03  0.34423296462E+01 0.  0.
         13    1    3    3    0    0 -0.28346494082E+01  0.21963815750E+01 -0.67144135423E+02  0.67239826376E+02  0.00000000000E+00 0.  1.
          3    1    3    3  501    0 -0.20291421062E+02  0.29110797722E+02 -0.63461261944E+03  0.63560393097E+03  0.00000000000E+00 0.  1.
         -3    1    1    2    0  502  0.23126070471E+02 -0.31307179298E+02 -0.29642752697E+03  0.29897196082E+03  0.00000000000E+00 0. -1.
<mgrwt>
<rscale>  1 0.30000000E+03</rscale>
<asrwt>0</asrwt>
<pdfrwt beam="1">  1       21 0.66026254E-02 0.30000000E+03</pdfrwt>
<pdfrwt beam="2">0</pdfrwt>
<totfact> 0.17858804E+04</totfact>
</mgrwt>
</event>
<event>
 6    1  0.8397183E-002  0.3000000E+03  0.7818608E-02  0.1093470E+00
         21   -1    0    0  501  502  0.00000000000E+00  0.00000000000E+00  0.18953366324E+01  0.18953366324E+01  0.00000000000E+00 0. -1.
         13   -1    0    0    0    0 -0.00000000000E+00 -0.00000000000E+00 -0.10000000000E+04  0.10000000000E+04  0.00000000000E+00 0.  1.
    9000005    2    1    2  501    0  0.29248365423E+02 -0.28544962286E+02 -0.67055087929E+03  0.67180176927E+03  0.29755206313E+01 0.  0.
         13    1    3    3    0    0  0.23263064945E+02 -0.23784409220E+02 -0.53043081830E+03  0.53147316143E+03  0.00000000000E+00 0.  1.
          3    1    3    3  501    0  0.59853004788E+01 -0.47605530667E+01 -0.14012006098E+03  0.14032860784E+03  0.00000000000E+00 0.  1.
         -1    1    1    2    0  502 -0.29248365423E+02  0.28544962286E+02 -0.32755378408E+03  0.33009356737E+03  0.00000000000E+00 0. -1.
<mgrwt>
<rscale>  1 0.30000000E+03</rscale>
<asrwt>0</asrwt>
<pdfrwt beam="1">  1       21 0.68921477E-02 0.30000000E+03</pdfrwt>
<pdfrwt beam="2">0</pdfrwt>
<totfact> 0.16576977E+04</totfact>
</mgrwt>
</event>
<event>
 6    1  0.8397183E-002  0.3000000E+03  0.7818608E-02  0.1093470E+00
         21   -1    0    0  501  502  0.00000000000E+00  0.00000000000E+00  0.41993933788E+01  0.41993933788E+01  0.00000000000E+00 0. -1.
         13   -1    0    0    0    0 -0.00000000000E+00 -0.00000000000E+00 -0.10000000000E+04  0.10000000000E+04  0.00000000000E+00 0.  1.
    9000005    2    1    2  501    0 -0.54990473920E+02 -0.27843745837E+02 -0.34510781084E+03  0.35059374707E+03  0.41650903996E+01 0.  0.
         13    1    3    3    0    0 -0.59200170112E+01 -0.41444517609E+01 -0.45551986605E+02  0.46121649639E+02  0.00000000000E+00 0.  1.
          1    1    3    3  501    0 -0.49070456909E+02 -0.23699294077E+02 -0.29955582423E+03  0.30447209743E+03  0.00000000000E+00 0.  1.
         -3    1    1    2    0  502  0.54990473920E+02  0.27843745837E+02 -0.65069279579E+03  0.65360564631E+03  0.00000000000E+00 0. -1.
<mgrwt>
<rscale>  1 0.30000000E+03</rscale>
<asrwt>0</asrwt>
<pdfrwt beam="1">  1       21 0.15270554E-01 0.30000000E+03</pdfrwt>
<pdfrwt beam="2">0</pdfrwt>
<totfact> 0.39838687E+03</totfact>
</mgrwt>
</event>
<event>
 6    1  0.8397183E-002  0.3000000E+03  0.7818608E-02  0.1093470E+00
         21   -1    0    0  501  502  0.00000000000E+00  0.00000000000E+00  0.12635277723E+01  0.12635277723E+01  0.00000000000E+00 0. -1.
         13   -1    0    0    0    0 -0.00000000000E+00 -0.00000000000E+00 -0.10000000000E+04  0.10000000000E+04  0.00000000000E+00 0.  1.
    9000005    2    1    2  501    0 -0.22359340878E+02 -0.22533478420E+02 -0.27780382021E+03  0.27963232936E+03  0.34028409913E+01 0.  0.
         13    1    3    3    0    0 -0.13203356952E+02 -0.15192716909E+02 -0.18378128899E+03  0.18488025710E+03  0.00000000000E+00 0.  1.
          3    1    3    3  501    0 -0.91559839265E+01 -0.73407615109E+01 -0.94022531213E+02  0.94752072257E+02  0.00000000000E+00 0.  1.
         -1    1    1    2    0  502  0.22359340878E+02  0.22533478420E+02 -0.72093265202E+03  0.72163119841E+03  0.00000000000E+00 0. -1.
<mgrwt>
<rscale>  1 0.30000000E+03</rscale>
<asrwt>0</asrwt>
<pdfrwt beam="1">  1       21 0.45946561E-02 0.30000000E+03</pdfrwt>
<pdfrwt beam="2">0</pdfrwt>
<totfact> 0.33261404E+04</totfact>
</mgrwt>
</event>
<event>
 6    1  0.8397183E-002  0.3000000E+03  0.7818608E-02  0.1093470E+00
         21   -1    0    0  501  502  0.00000000000E+00  0.00000000000E+00  0.23930622293E+01  0.23930622293E+01  0.00000000000E+00 0. -1.
         13   -1    0    0    0    0 -0.00000000000E+00 -0.00000000000E+00 -0.10000000000E+04  0.10000000000E+04  0.00000000000E+00 0.  1.
    9000005    2    1    2  501    0  0.29666179609E+02  0.18551116150E+02 -0.84865449622E+03  0.84938634353E+03  0.42988950797E+01 0.  0.
         13    1    3    3    0    0  0.23267419301E+02  0.16425677586E+02 -0.69919490006E+03  0.69977473801E+03  0.00000000000E+00 0.  1.
          1    1    3    3  501    0  0.63987603083E+01  0.21254385637E+01 -0.14945959616E+03  0.14961160552E+03  0.00000000000E+00 0.  1.
         -1    1    1    2    0  502 -0.29666179609E+02 -0.18551116150E+02 -0.14895244155E+03  0.15300671870E+03  0.00000000000E+00 0. -1.
<mgrwt>
<rscale>  1 0.30000000E+03</rscale>
<asrwt>0</asrwt>
<pdfrwt beam="1">  1       21 0.87020628E-02 0.30000000E+03</pdfrwt>
<pdfrwt beam="2">0</pdfrwt>
<totfact> 0.11014923E+04</totfact>
</mgrwt>
</event>
<event>
 6    1  0.8397183E-002  0.3000000E+03  0.7818608E-02  0.1093470E+00
         21   -1    0    0  501  502  0.00000000000E+00  0.00000000000E+00  0.15334268335E+02  0.15334268335E+02  0.00000000000E+00 0. -1.
         13   -1    0    0    0    0 -0.00000000000E+00 -0.00000000000E+00 -0.10000000000E+04  0.10000000000E+04  0.00000000000E+00 0.  1.
    9000005    2    1    2  501    0 -0.12223527000E+03 -0.88337536284E+01 -0.56451500705E+03  0.57767443715E+03  0.33265182864E+01 0.  0.
         13    1    3    3    0    0 -0.10414400417E+03 -0.71231889607E+01 -0.48592432660E+03  0.49701022586E+03  0.00000000000E+00 0.  1.
          1    1    3    3  501    0 -0.18091265823E+02 -0.17105646677E+01 -0.78590680444E+02  0.80664211291E+02  0.00000000000E+00 0.  1.
         -3    1    1    2    0  502  0.12223527000E+03  0.88337536284E+01 -0.42015072462E+03  0.43765983118E+03  0.00000000000E+00 0. -1.
<mgrwt>
<rscale>  1 0.30000000E+03</rscale>
<asrwt>0</asrwt>
<pdfrwt beam="1">  1       21 0.55761093E-01 0.30000000E+03</pdfrwt>
<pdfrwt beam="2">0</pdfrwt>
<totfact> 0.29574353E+02</totfact>
</mgrwt>
</event>
<event>
 6    1  0.8397183E-002  0.3000000E+03  0.7818608E-02  0.1093470E+00
         21   -1    0    0  501  502  0.00000000000E+00  0.00000000000E+00  0.35647890576E+01  0.35647890576E+01  0.00000000000E+00 0. -1.
         13   -1    0    0    0    0 -0.00000000000E+00 -0.00000000000E+00 -0.10000000000E+04  0.10000000000E+04  0.00000000000E+00 0.  1.
    9000005    2    1    2  501    0  0.32863838769E+02  0.39136138435E+02 -0.75735372720E+03  0.75908242753E+03  0.31296084126E+01 0.  0.
         13    1    3    3    0    0  0.80404416745E+01  0.11140641636E+02 -0.18957292177E+03  0.19007013250E+03  0.00000000000E+00 0.  1.
          3    1    3    3  501    0  0.24823397095E+02  0.27995496799E+02 -0.56778080543E+03  0.56901229503E+03  0.00000000000E+00 0.  1.
         -3    1    1    2    0  502 -0.32863838769E+02 -0.39136138435E+02 -0.23908148374E+03  0.24448236153E+03  0.00000000000E+00 0. -1.
<mgrwt>
<rscale>  1 0.30000000E+03</rscale>
<asrwt>0</asrwt>
<pdfrwt beam="1">  1       21 0.12962897E-01 0.30000000E+03</pdfrwt>
<pdfrwt beam="2">0</pdfrwt>
<totfact> 0.53845527E+03</totfact>
</mgrwt>
</event>
<event>
 6    1  0.8397183E-002  0.3000000E+03  0.7818608E-02  0.1093470E+00
         21   -1    0    0  501  502  0.00000000000E+00  0.00000000000E+00  0.48162689692E+01  0.48162689692E+01  0.00000000000E+00 0. -1.
         13   -1    0    0    0    0 -0.00000000000E+00 -0.00000000000E+00 -0.10000000000E+04  0.10000000000E+04  0.00000000000E+00 0.  1.
    9000005    2    1    2  501    0 -0.34405674330E+02 -0.31366089019E+02 -0.12742824872E+03  0.13581272522E+03  0.62893396810E+01 0.  0.
         13    1    3    3    0    0 -0.11721289555E+02 -0.70756091890E+01 -0.34300758284E+02  0.36932301487E+02  0.00000000000E+00 0.  1.
          1    1    3    3  501    0 -0.22684384775E+02 -0.24290479830E+02 -0.93127490432E+02  0.98880423731E+02  0.00000000000E+00 0.  1.
         -3    1    1    2    0  502  0.34405674330E+02  0.31366089019E+02 -0.86775548231E+03  0.86900354375E+03  0.00000000000E+00 0. -1.
<mgrwt>
<rscale>  1 0.30000000E+03</rscale>
<asrwt>0</asrwt>
<pdfrwt beam="1">  1       21 0.17513742E-01 0.30000000E+03</pdfrwt>
<pdfrwt beam="2">0</pdfrwt>
<totfact> 0.30843941E+03</totfact>
</mgrwt>
</event>
<event>
 6    1  0.8397183E-002  0.3000000E+03  0.7818608E-02  0.1093470E+00
         21   -1    0    0  501  502  0.00000000000E+00  0.00000000000E+00  0.19138143576E+01  0.19138143576E+01  0.00000000000E+00 0. -1.
         13   -1    0    0    0    0 -0.00000000000E+00 -0.00000000000E+00 -0.10000000000E+04  0.10000000000E+04  0.00000000000E+00 0.  1.
    9000005    2    1    2  501    0 -0.35181504202E+02 -0.23862613200E+02 -0.61516402436E+03  0.61663917965E+03  0.31525335761E+01 0.  0.
         13    1    3    3    0    0 -0.15952840631E+01 -0.17440911152E+01 -0.28001754695E+02  0.28101335396E+02  0.00000000000E+00 0.  1.
          3    1    3    3  501    0 -0.33586220139E+02 -0.22118522085E+02 -0.58716226966E+03  0.58853784425E+03  0.00000000000E+00 0.  1.
         -1    1    1    2    0  502  0.35181504202E+02  0.23862613200E+02 -0.38292216128E+03  0.38527463471E+03  0.00000000000E+00 0. -1.
<mgrwt>
<rscale>  1 0.30000000E+03</rscale>
<asrwt>0</asrwt>
<pdfrwt beam="1">  1       21 0.69593396E-02 0.30000000E+03</pdfrwt>
<pdfrwt beam="2">0</pdfrwt>
<totfact> 0.16299666E+04</totfact>
</mgrwt>
</event>
<event>
 6    1  0.8397183E-002  0.3000000E+03  0.7818608E-02  0.1093470E+00
         21   -1    0    0  501  502  0.00000000000E+00  0.00000000000E+00  0.10523897043E+01  0.10523897043E+01  0.00000000000E+00 0. -1.
         13   -1    0    0    0    0 -0.00000000000E+00 -0.00000000000E+00 -0.10000000000E+04  0.10000000000E+04  0.00000000000E+00 0.  1.
    9000005    2    1    2  501    0 -0.26862185527E+02 -0.17657354564E+02 -0.46086723889E+03  0.46201264601E+03  0.48697039775E+01 0.  0.
         13    1    3    3    0    0 -0.24642556438E+02 -0.14995262675E+02 -0.42520789612E+03  0.42618525128E+03  0.00000000000E+00 0.  1.
          1    1    3    3  501    0 -0.22196290895E+01 -0.26620918889E+01 -0.35659342768E+02  0.35827394730E+02  0.00000000000E+00 0.  1.
         -1    1    1    2    0  502  0.26862185527E+02  0.17657354564E+02 -0.53808037141E+03  0.53903974369E+03  0.00000000000E+00 0. -1.
<mgrwt>
<rscale>  1 0.30000000E+03</rscale>
<asrwt>0</asrwt>
<pdfrwt beam="1">  1       21 0.38268797E-02 0.30000000E+03</pdfrwt>
<pdfrwt beam="2">0</pdfrwt>
<totfact> 0.45296378E+04</totfact>
</mgrwt>
</event>
<event>
 6    1  0.8397183E-002  0.3000000E+03  0.7818608E-02  0.1093470E+00
         21   -1    0    0  501  502  0.00000000000E+00  0.00000000000E+00  0.43727974232E+01  0.43727974232E+01  0.00000000000E+00 0. -1.
         13   -1    0    0    0    0 -0.00000000000E+00 -0.00000000000E+00 -0.10000000000E+04  0.10000000000E+04  0.00000000000E+00 0.  1.
    9000005    2    1    2  501    0  0.45569970648E+02 -0.16484328539E+02 -0.15697064829E+03  0.16431734011E+03  0.34710984188E+01 0.  0.
         13    1    3    3    0    0  0.19994185925E+02 -0.56056930971E+01 -0.64500056151E+02  0.67760228080E+02  0.00000000000E+00 0.  1.
          1    1    3    3  501    0  0.25575784724E+02 -0.10878635442E+02 -0.92470592137E+02  0.96557112030E+02  0.00000000000E+00 0.  1.
         -3    1    1    2    0  502 -0.45569970648E+02  0.16484328539E+02 -0.83865655429E+03  0.84005545731E+03  0.00000000000E+00 0. -1.
<mgrwt>
<rscale>  1 0.30000000E+03</rscale>
<asrwt>0</asrwt>
<pdfrwt beam="1">  1       21 0.15901115E-01 0.30000000E+03</pdfrwt>
<pdfrwt beam="2">0</pdfrwt>
<totfact> 0.36951074E+03</totfact>
</mgrwt>
</event>
<event>
 6    1  0.8397183E-002  0.3000000E+03  0.7818608E-02  0.1093470E+00
         21   -1    0    0  501  502  0.00000000000E+00  0.00000000000E+00  0.35845065628E+01  0.35845065628E+01  0.00000000000E+00 0. -1.
         13   -1    0    0    0    0 -0.00000000000E+00 -0.00000000000E+00 -0.10000000000E+04  0.10000000000E+04  0.00000000000E+00 0.  1.
    9000005    2    1    2  501    0 -0.18493010252E+02 -0.56831221631E+02 -0.51418209263E+03  0.51766184602E+03  0.43339655606E+01 0.  0.
         13    1    3    3    0    0 -0.62478831498E+01 -0.18295910872E+02 -0.14943753895E+03  0.15068296004E+03  0.00000000000E+00 0.  1.
          1    1    3    3  501    0 -0.12245127103E+02 -0.38535310759E+02 -0.36474455368E+03  0.36697888598E+03  0.00000000000E+00 0.  1.
         -1    1    1    2    0  502  0.18493010252E+02  0.56831221631E+02 -0.48223340080E+03  0.48592266054E+03  0.00000000000E+00 0. -1.
<mgrwt>
<rscale>  1 0.30000000E+03</rscale>
<asrwt>0</asrwt>
<pdfrwt beam="1">  1       21 0.13034597E-01 0.30000000E+03</pdfrwt>
<pdfrwt beam="2">0</pdfrwt>
<totfact> 0.53305872E+03</totfact>
</mgrwt>
</event>
<event>
 6    1  0.8397183E-002  0.3000000E+03  0.7818608E-02  0.1093470E+00
         21   -1    0    0  501  502  0.00000000000E+00  0.00000000000E+00  0.25431434757E+01  0.25431434757E+01  0.00000000000E+00 0. -1.
         13   -1    0    0    0    0 -0.00000000000E+00 -0.00000000000E+00 -0.10000000000E+04  0.10000000000E+04  0.00000000000E+00 0.  1.
    9000005    2    1    2  501    0  0.46492765628E+02 -0.57784875441E+01 -0.68336280112E+03  0.68497418432E+03  0.31538971073E+01 0.  0.
         13    1    3    3    0    0  0.23894409096E+02 -0.35813004388E+01 -0.33103835427E+03  0.33191890651E+03  0.00000000000E+00 0.  1.
          3    1    3    3  501    0  0.22598356531E+02 -0.21971871053E+01 -0.35232444685E+03  0.35305527782E+03  0.00000000000E+00 0.  1.
         -1    1    1    2    0  502 -0.46492765628E+02  0.57784875441E+01 -0.31409405541E+03  0.31756895915E+03  0.00000000000E+00 0. -1.
<mgrwt>
<rscale>  1 0.30000000E+03</rscale>
<asrwt>0</asrwt>
<pdfrwt beam="1">  1       21 0.92478140E-02 0.30000000E+03</pdfrwt>
<pdfrwt beam="2">0</pdfrwt>
<totfact> 0.98898812E+03</totfact>
</mgrwt>
</event>
<event>
 6    1  0.8397183E-002  0.3000000E+03  0.7818608E-02  0.1093470E+00
         21   -1    0    0  501  502  0.00000000000E+00  0.00000000000E+00  0.98122923752E+00  0.98122923752E+00  0.00000000000E+00 0. -1.
         13   -1    0    0    0    0 -0.00000000000E+00 -0.00000000000E+00 -0.10000000000E+04  0.10000000000E+04  0.00000000000E+00 0.  1.
    9000005    2    1    2  501    0 -0.96621530435E+01  0.29080158246E+02 -0.40537723582E+03  0.40654932833E+03  0.35553116987E+01 0.  0.
         13    1    3    3    0    0 -0.19464715645E+01  0.25250161606E+01 -0.44685893769E+02  0.44799481695E+02  0.00000000000E+00 0.  1.
          3    1    3    3  501    0 -0.77156814790E+01  0.26555142085E+02 -0.36069134205E+03  0.36174984664E+03  0.00000000000E+00 0.  1.
         -1    1    1    2    0  502  0.96621530435E+01 -0.29080158246E+02 -0.59364153494E+03  0.59443190090E+03  0.00000000000E+00 0. -1.
<mgrwt>
<rscale>  1 0.30000000E+03</rscale>
<asrwt>0</asrwt>
<pdfrwt beam="1">  1       21 0.35681138E-02 0.30000000E+03</pdfrwt>
<pdfrwt beam="2">0</pdfrwt>
<totfact> 0.50944632E+04</totfact>
</mgrwt>
</event>
<event>
 6    1  0.8397183E-002  0.3000000E+03  0.7818608E-02  0.1093470E+00
         21   -1    0    0  501  502  0.00000000000E+00  0.00000000000E+00  0.18200732887E+01  0.18200732887E+01  0.00000000000E+00 0. -1.
         13   -1    0    0    0    0 -0.00000000000E+00 -0.00000000000E+00 -0.10000000000E+04  0.10000000000E+04  0.00000000000E+00 0.  1.
    9000005    2    1    2  501    0  0.36395878556E+02  0.19392537149E+02 -0.62441073500E+03  0.62578265607E+03  0.37994982620E+01 0.  0.
         13    1    3    3    0    0  0.61720403744E+01  0.23703679528E+01 -0.11829643883E+03  0.11848105404E+03  0.00000000000E+00 0.  1.
          3    1    3    3  501    0  0.30223838181E+02  0.17022169196E+02 -0.50611429617E+03  0.50730160203E+03  0.00000000000E+00 0.  1.
         -1    1    1    2    0  502 -0.36395878556E+02 -0.19392537149E+02 -0.37376919171E+03  0.37603741722E+03  0.00000000000E+00 0. -1.
<mgrwt>
<rscale>  1 0.30000000E+03</rscale>
<asrwt>0</asrwt>
<pdfrwt beam="1">  1       21 0.66184623E-02 0.30000000E+03</pdfrwt>
<pdfrwt beam="2">0</pdfrwt>
<totfact> 0.17784805E+04</totfact>
</mgrwt>
</event>
<event>
 6    1  0.8397183E-002  0.3000000E+03  0.7818608E-02  0.1093470E+00
         21   -1    0    0  501  502  0.00000000000E+00  0.00000000000E+00  0.10290748479E+01  0.10290748479E+01  0.00000000000E+00 0. -1.
         13   -1    0    0    0    0 -0.00000000000E+00 -0.00000000000E+00 -0.10000000000E+04  0.10000000000E+04  0.00000000000E+00 0.  1.
    9000005    2    1    2  501    0  0.20624275193E+02  0.24274722239E+02 -0.45475980846E+03  0.45588655917E+03  0.33835743585E+01 0.  0.
         13    1    3    3    0    0  0.16219916751E+02  0.18450434436E+02 -0.36870159985E+03  0.36951911177E+03  0.00000000000E+00 0.  1.
          3    1    3    3  501    0  0.44043584419E+01  0.58242878030E+01 -0.86058208610E+02  0.86367447403E+02  0.00000000000E+00 0.  1.
         -3    1    1    2    0  502 -0.20624275193E+02 -0.24274722239E+02 -0.54421111669E+03  0.54514251568E+03  0.00000000000E+00 0. -1.
<mgrwt>
<rscale>  1 0.30000000E+03</rscale>
<asrwt>0</asrwt>
<pdfrwt beam="1">  1       21 0.37420982E-02 0.30000000E+03</pdfrwt>
<pdfrwt beam="2">0</pdfrwt>
<totfact> 0.47033575E+04</totfact>
</mgrwt>
</event>
<event>
 6    1  0.8397183E-002  0.3000000E+03  0.7818608E-02  0.1093470E+00
         21   -1    0    0  501  502  0.00000000000E+00  0.00000000000E+00  0.10339137295E+01  0.10339137295E+01  0.00000000000E+00 0. -1.
         13   -1    0    0    0    0 -0.00000000000E+00 -0.00000000000E+00 -0.10000000000E+04  0.10000000000E+04  0.00000000000E+00 0.  1.
    9000005    2    1    2  501    0 -0.29338462144E+01  0.31766724482E+02 -0.55113434504E+03  0.55206732177E+03  0.33954750782E+01 0.  0.
         13    1    3    3    0    0 -0.39606703194E+00  0.46305320896E+01 -0.61752547950E+02  0.61927182035E+02  0.00000000000E+00 0.  1.
          1    1    3    3  501    0 -0.25377791825E+01  0.27136192392E+02 -0.48938179709E+03  0.49014013974E+03  0.00000000000E+00 0.  1.
         -1    1    1    2    0  502  0.29338462144E+01 -0.31766724482E+02 -0.44783174123E+03  0.44896659195E+03  0.00000000000E+00 0. -1.
<mgrwt>
<rscale>  1 0.30000000E+03</rscale>
<asrwt>0</asrwt>
<pdfrwt beam="1">  1       21 0.37596942E-02 0.30000000E+03</pdfrwt>
<pdfrwt beam="2">0</pdfrwt>
<totfact> 0.46664509E+04</totfact>
</mgrwt>
</event>
<event>
 6    1  0.8397183E-002  0.3000000E+03  0.7818608E-02  0.1093470E+00
         21   -1    0    0  501  502  0.00000000000E+00  0.00000000000E+00  0.16442714128E+01  0.16442714128E+01  0.00000000000E+00 0. -1.
         13   -1    0    0    0    0 -0.00000000000E+00 -0.00000000000E+00 -0.10000000000E+04  0.10000000000E+04  0.00000000000E+00 0.  1.
    9000005    2    1    2  501    0  0.46496853676E+01 -0.30180202737E+02 -0.82764057113E+03  0.82821956384E+03  0.51251082827E+01 0.  0.
         13    1    3    3    0    0  0.19834981170E+01 -0.18597317723E+02 -0.44116392251E+03  0.44156018958E+03  0.00000000000E+00 0.  1.
          1    1    3    3  501    0  0.26661872506E+01 -0.11582885013E+02 -0.38647664861E+03  0.38665937426E+03  0.00000000000E+00 0.  1.
         -1    1    1    2    0  502 -0.46496853676E+01  0.30180202737E+02 -0.17071515746E+03  0.17342470758E+03  0.00000000000E+00 0. -1.
<mgrwt>
<rscale>  1 0.30000000E+03</rscale>
<asrwt>0</asrwt>
<pdfrwt beam="1">  1       21 0.59791814E-02 0.30000000E+03</pdfrwt>
<pdfrwt beam="2">0</pdfrwt>
<totfact> 0.21198350E+04</totfact>
</mgrwt>
</event>
<event>
 6    1  0.8397183E-002  0.3000000E+03  0.7818608E-02  0.1093470E+00
         21   -1    0    0  501  502  0.00000000000E+00  0.00000000000E+00  0.11359526157E+01  0.11359526157E+01  0.00000000000E+00 0. -1.
         13   -1    0    0    0    0 -0.00000000000E+00 -0.00000000000E+00 -0.10000000000E+04  0.10000000000E+04  0.00000000000E+00 0.  1.
    9000005    2    1    2  501    0  0.16677831676E+02 -0.28042994661E+02 -0.38273459177E+03  0.38414319278E+03  0.39579287396E+01 0.  0.
         13    1    3    3    0    0  0.38431749553E+01 -0.71708227607E+01 -0.11633754107E+03  0.11662167104E+03  0.00000000000E+00 0.  1.
          1    1    3    3  501    0  0.12834656720E+02 -0.20872171900E+02 -0.26639705070E+03  0.26752152174E+03  0.00000000000E+00 0.  1.
         -3    1    1    2    0  502 -0.16677831676E+02  0.28042994661E+02 -0.61612945561E+03  0.61699275984E+03  0.00000000000E+00 0. -1.
<mgrwt>
<rscale>  1 0.30000000E+03</rscale>
<asrwt>0</asrwt>
<pdfrwt beam="1">  1       21 0.41307455E-02 0.30000000E+03</pdfrwt>
<pdfrwt beam="2">0</pdfrwt>
<totfact> 0.39828602E+04</totfact>
</mgrwt>
</event>
<event>
 6    1  0.8397183E-002  0.3000000E+03  0.7818608E-02  0.1093470E+00
         21   -1    0    0  501  502  0.00000000000E+00  0.00000000000E+00  0.12307431048E+01  0.12307431048E+01  0.00000000000E+00 0. -1.
         13   -1    0    0    0    0 -0.00000000000E+00 -0.00000000000E+00 -0.10000000000E+04  0.10000000000E+04  0.00000000000E+00 0.  1.
    9000005    2    1    2  501    0 -0.34576532084E+02 -0.32917495036E+01 -0.56148538321E+03  0.56256964571E+03  0.35211540356E+01 0.  0.
         13    1    3    3    0    0 -0.30488177911E+02 -0.29242448754E+01 -0.47450325333E+03  0.47549071245E+03  0.00000000000E+00 0.  1.
          1    1    3    3  501    0 -0.40883541736E+01 -0.36750462819E+00 -0.86982129878E+02  0.87078933260E+02  0.00000000000E+00 0.  1.
         -1    1    1    2    0  502  0.34576532084E+02  0.32917495036E+01 -0.43728387369E+03  0.43866109740E+03  0.00000000000E+00 0. -1.
<mgrwt>
<rscale>  1 0.30000000E+03</rscale>
<asrwt>0</asrwt>
<pdfrwt beam="1">  1       21 0.44754389E-02 0.30000000E+03</pdfrwt>
<pdfrwt beam="2">0</pdfrwt>
<totfact> 0.34779625E+04</totfact>
</mgrwt>
</event>
<event>
 6    1  0.8397183E-002  0.3000000E+03  0.7818608E-02  0.1093470E+00
         21   -1    0    0  501  502  0.00000000000E+00  0.00000000000E+00  0.30121708054E+01  0.30121708054E+01  0.00000000000E+00 0. -1.
         13   -1    0    0    0    0 -0.00000000000E+00 -0.00000000000E+00 -0.10000000000E+04  0.10000000000E+04  0.00000000000E+00 0.  1.
    9000005    2    1    2  501    0 -0.15066494949E+02 -0.28797862999E+02 -0.95387562493E+02  0.10082629356E+03  0.32921439048E+01 0.  0.
         13    1    3    3    0    0 -0.28349587719E+01 -0.75786644988E+01 -0.20692511547E+02  0.22218307338E+02  0.00000000000E+00 0.  1.
          3    1    3    3  501    0 -0.12231536177E+02 -0.21219198500E+02 -0.74695050946E+02  0.78607986223E+02  0.00000000000E+00 0.  1.
         -3    1    1    2    0  502  0.15066494949E+02  0.28797862999E+02 -0.90160026670E+03  0.90218587724E+03  0.00000000000E+00 0. -1.
<mgrwt>
<rscale>  1 0.30000000E+03</rscale>
<asrwt>0</asrwt>
<pdfrwt beam="1">  1       21 0.10953371E-01 0.30000000E+03</pdfrwt>
<pdfrwt beam="2">0</pdfrwt>
<totfact> 0.73076497E+03</totfact>
</mgrwt>
</event>
<event>
 6    1  0.8397183E-002  0.3000000E+03  0.7818608E-02  0.1093470E+00
         21   -1    0    0  501  502  0.00000000000E+00  0.00000000000E+00  0.39410234063E+01  0.39410234063E+01  0.00000000000E+00 0. -1.
         13   -1    0    0    0    0 -0.00000000000E+00 -0.00000000000E+00 -0.10000000000E+04  0.10000000000E+04  0.00000000000E+00 0.  1.
    9000005    2    1    2  501    0 -0.42943815965E+02  0.12490986818E+02 -0.14656728220E+03  0.15327285371E+03  0.32254291509E+01 0.  0.
         13    1    3    3    0    0 -0.17238833355E+00  0.27764593950E+00 -0.66834250836E+00  0.74396687678E+00  0.00000000000E+00 0.  1.
          3    1    3    3  501    0 -0.42771427632E+02  0.12213340878E+02 -0.14589893969E+03  0.15252888684E+03  0.00000000000E+00 0.  1.
         -1    1    1    2    0  502  0.42943815965E+02 -0.12490986818E+02 -0.84949169439E+03  0.85066816969E+03  0.00000000000E+00 0. -1.
<mgrwt>
<rscale>  1 0.30000000E+03</rscale>
<asrwt>0</asrwt>
<pdfrwt beam="1">  1       21 0.14331024E-01 0.30000000E+03</pdfrwt>
<pdfrwt beam="2">0</pdfrwt>
<totfact> 0.44799043E+03</totfact>
</mgrwt>
</event>
<event>
 6    1  0.8397183E-002  0.3000000E+03  0.7818608E-02  0.1093470E+00
         21   -1    0    0  501  502  0.00000000000E+00  0.00000000000E+00  0.10060793704E+01  0.10060793704E+01  0.00000000000E+00 0. -1.
         13   -1    0    0    0    0 -0.00000000000E+00 -0.00000000000E+00 -0.10000000000E+04  0.10000000000E+04  0.00000000000E+00 0.  1.
    9000005    2    1    2  501    0  0.16824374463E+02  0.26775558238E+02 -0.49743098682E+03  0.49844726026E+03  0.34777170568E+01 0.  0.
         13    1    3    3    0    0  0.63010471502E+01  0.13276499961E+02 -0.22764878489E+03  0.22812263787E+03  0.00000000000E+00 0.  1.
          1    1    3    3  501    0  0.10523327312E+02  0.13499058277E+02 -0.26978220193E+03  0.27032462239E+03  0.00000000000E+00 0.  1.
         -1    1    1    2    0  502 -0.16824374463E+02 -0.26775558238E+02 -0.50156293381E+03  0.50255881911E+03  0.00000000000E+00 0. -1.
<mgrwt>
<rscale>  1 0.30000000E+03</rscale>
<asrwt>0</asrwt>
<pdfrwt beam="1">  1       21 0.36584782E-02 0.30000000E+03</pdfrwt>
<pdfrwt beam="2">0</pdfrwt>
<totfact> 0.48851923E+04</totfact>
</mgrwt>
</event>
<event>
 6    1  0.8397183E-002  0.3000000E+03  0.7818608E-02  0.1093470E+00
         21   -1    0    0  501  502  0.00000000000E+00  0.00000000000E+00  0.11474438125E+01  0.11474438125E+01  0.00000000000E+00 0. -1.
         13   -1    0    0    0    0 -0.00000000000E+00 -0.00000000000E+00 -0.10000000000E+04  0.10000000000E+04  0.00000000000E+00 0.  1.
    9000005    2    1    2  501    0 -0.32265048158E+02  0.66110250760E+01 -0.61264582833E+03  0.61353890982E+03  0.32161936742E+01 0.  0.
         13    1    3    3    0    0 -0.98481484527E+01  0.34840222423E+01 -0.18592151352E+03  0.18621475137E+03  0.00000000000E+00 0.  1.
          1    1    3    3  501    0 -0.22416899705E+02  0.31270028337E+01 -0.42672431482E+03  0.42732415845E+03  0.00000000000E+00 0.  1.
         -1    1    1    2    0  502  0.32265048158E+02 -0.66110250760E+01 -0.38620672785E+03  0.38760853399E+03  0.00000000000E+00 0. -1.
<mgrwt>
<rscale>  1 0.30000000E+03</rscale>
<asrwt>0</asrwt>
<pdfrwt beam="1">  1       21 0.41725318E-02 0.30000000E+03</pdfrwt>
<pdfrwt beam="2">0</pdfrwt>
<totfact> 0.39157848E+04</totfact>
</mgrwt>
</event>
<event>
 6    1  0.8397183E-002  0.3000000E+03  0.7818608E-02  0.1093470E+00
         21   -1    0    0  501  502  0.00000000000E+00  0.00000000000E+00  0.18670649620E+01  0.18670649620E+01  0.00000000000E+00 0. -1.
         13   -1    0    0    0    0 -0.00000000000E+00 -0.00000000000E+00 -0.10000000000E+04  0.10000000000E+04  0.00000000000E+00 0.  1.
    9000005    2    1    2  501    0 -0.40826513564E+02  0.10412318744E+02 -0.39530610674E+03  0.39756961708E+03  0.44115546006E+01 0.  0.
         13    1    3    3    0    0 -0.32881962377E+02  0.65463545698E+01 -0.31165288709E+03  0.31345111299E+03  0.00000000000E+00 0.  1.
          3    1    3    3  501    0 -0.79445511871E+01  0.38659641745E+01 -0.83653219650E+02  0.84118504090E+02  0.00000000000E+00 0.  1.
         -1    1    1    2    0  502  0.40826513564E+02 -0.10412318744E+02 -0.60282682830E+03  0.60429744788E+03  0.00000000000E+00 0. -1.
<mgrwt>
<rscale>  1 0.30000000E+03</rscale>
<asrwt>0</asrwt>
<pdfrwt beam="1">  1       21 0.67893415E-02 0.30000000E+03</pdfrwt>
<pdfrwt beam="2">0</pdfrwt>
<totfact> 0.17015480E+04</totfact>
</mgrwt>
</event>
<event>
 6    1  0.8397183E-002  0.3000000E+03  0.7818608E-02  0.1093470E+00
         21   -1    0    0  501  502  0.00000000000E+00  0.00000000000E+00  0.15183696311E+01  0.15183696311E+01  0.00000000000E+00 0. -1.
         13   -1    0    0    0    0 -0.00000000000E+00 -0.00000000000E+00 -0.10000000000E+04  0.10000000000E+04  0.00000000000E+00 0.  1.
    9000005    2    1    2  501    0 -0.35503869759E+02  0.15644017834E+02 -0.53942571653E+03  0.54082585602E+03  0.26912506141E+01 0.  0.
         13    1    3    3    0    0 -0.20971679537E+02  0.10397020114E+02 -0.33575476988E+03  0.33656971770E+03  0.00000000000E+00 0.  1.
          3    1    3    3  501    0 -0.14532190222E+02  0.52469977201E+01 -0.20367094664E+03  0.20425613832E+03  0.00000000000E+00 0.  1.
         -1    1    1    2    0  502  0.35503869759E+02 -0.15644017834E+02 -0.45905591384E+03  0.46069251361E+03  0.00000000000E+00 0. -1.
<mgrwt>
<rscale>  1 0.30000000E+03</rscale>
<asrwt>0</asrwt>
<pdfrwt beam="1">  1       21 0.55213558E-02 0.30000000E+03</pdfrwt>
<pdfrwt beam="2">0</pdfrwt>
<totfact> 0.24312035E+04</totfact>
</mgrwt>
</event>
<event>
 6    1  0.8397183E-002  0.3000000E+03  0.7818608E-02  0.1093470E+00
         21   -1    0    0  501  502  0.00000000000E+00  0.00000000000E+00  0.82553162217E+01  0.82553162217E+01  0.00000000000E+00 0. -1.
         13   -1    0    0    0    0 -0.00000000000E+00 -0.00000000000E+00 -0.10000000000E+04  0.10000000000E+04  0.00000000000E+00 0.  1.
    9000005    2    1    2  501    0 -0.47117457581E+02  0.75578033608E+02 -0.59438931637E+03  0.60104114410E+03  0.44388632366E+01 0.  0.
         13    1    3    3    0    0 -0.42363766188E+02  0.69741055586E+02 -0.54927322552E+03  0.55530134143E+03  0.00000000000E+00 0.  1.
          1    1    3    3  501    0 -0.47536913931E+01  0.58369780221E+01 -0.45116090847E+02  0.45739802662E+02  0.00000000000E+00 0.  1.
         -1    1    1    2    0  502  0.47117457581E+02 -0.75578033608E+02 -0.39735536741E+03  0.40721417213E+03  0.00000000000E+00 0. -1.
<mgrwt>
<rscale>  1 0.30000000E+03</rscale>
<asrwt>0</asrwt>
<pdfrwt beam="1">  1       21 0.30019395E-01 0.30000000E+03</pdfrwt>
<pdfrwt beam="2">0</pdfrwt>
<totfact> 0.10858746E+03</totfact>
</mgrwt>
</event>
<event>
 6    1  0.8397183E-002  0.3000000E+03  0.7818608E-02  0.1093470E+00
         21   -1    0    0  501  502  0.00000000000E+00  0.00000000000E+00  0.12587839146E+01  0.12587839146E+01  0.00000000000E+00 0. -1.
         13   -1    0    0    0    0 -0.00000000000E+00 -0.00000000000E+00 -0.10000000000E+04  0.10000000000E+04  0.00000000000E+00 0.  1.
    9000005    2    1    2  501    0  0.15459915606E+02  0.25846222701E+02 -0.76259417439E+03  0.76319899831E+03  0.39749209324E+01 0.  0.
         13    1    3    3    0    0  0.73197333855E+00  0.21529218985E+00 -0.27728629127E+02  0.27739124156E+02  0.00000000000E+00 0.  1.
          1    1    3    3  501    0  0.14727942267E+02  0.25630930511E+02 -0.73486554526E+03  0.73545987416E+03  0.00000000000E+00 0.  1.
         -3    1    1    2    0  502 -0.15459915606E+02 -0.25846222701E+02 -0.23614704170E+03  0.23805978560E+03  0.00000000000E+00 0. -1.
<mgrwt>
<rscale>  1 0.30000000E+03</rscale>
<asrwt>0</asrwt>
<pdfrwt beam="1">  1       21 0.45774057E-02 0.30000000E+03</pdfrwt>
<pdfrwt beam="2">0</pdfrwt>
<totfact> 0.33474628E+04</totfact>
</mgrwt>
</event>
<event>
 6    1  0.8397183E-002  0.3000000E+03  0.7818608E-02  0.1093470E+00
         21   -1    0    0  501  502  0.00000000000E+00  0.00000000000E+00  0.99117482154E+00  0.99117482154E+00  0.00000000000E+00 0. -1.
         13   -1    0    0    0    0 -0.00000000000E+00 -0.00000000000E+00 -0.10000000000E+04  0.10000000000E+04  0.00000000000E+00 0.  1.
    9000005    2    1    2  501    0  0.24158497889E+02 -0.18510291435E+02 -0.38894272828E+03  0.39016639922E+03  0.52066578193E+01 0.  0.
         13    1    3    3    0    0  0.59140498605E+01 -0.19331939912E+01 -0.80930979676E+02  0.81169801627E+02  0.00000000000E+00 0.  1.
          3    1    3    3  501    0  0.18244448029E+02 -0.16577097443E+02 -0.30801174861E+03  0.30899659759E+03  0.00000000000E+00 0.  1.
         -3    1    1    2    0  502 -0.24158497889E+02  0.18510291435E+02 -0.61006609689E+03  0.61082477560E+03  0.00000000000E+00 0. -1.
<mgrwt>
<rscale>  1 0.30000000E+03</rscale>
<asrwt>0</asrwt>
<pdfrwt beam="1">  1       21 0.36042797E-02 0.30000000E+03</pdfrwt>
<pdfrwt beam="2">0</pdfrwt>
<totfact> 0.50090411E+04</totfact>
</mgrwt>
</event>
<event>
 6    1  0.8397183E-002  0.3000000E+03  0.7818608E-02  0.1093470E+00
         21   -1    0    0  501  502  0.00000000000E+00  0.00000000000E+00  0.31692455021E+01  0.31692455021E+01  0.00000000000E+00 0. -1.
         13   -1    0    0    0    0 -0.00000000000E+00 -0.00000000000E+00 -0.10000000000E+04  0.10000000000E+04  0.00000000000E+00 0.  1.
    9000005    2    1    2  501    0  0.27693108241E+01  0.55427849251E+02 -0.58063234360E+03  0.58328708014E+03  0.31597261038E+01 0.  0.
         13    1    3    3    0    0  0.43991801072E+00  0.76853211262E+01 -0.69749175268E+02  0.70172680861E+02  0.00000000000E+00 0.  1.
          3    1    3    3  501    0  0.23293928134E+01  0.47742528125E+02 -0.51088316833E+03  0.51311439928E+03  0.00000000000E+00 0.  1.
         -1    1    1    2    0  502 -0.27693108241E+01 -0.55427849251E+02 -0.41619841090E+03  0.41988216536E+03  0.00000000000E+00 0. -1.
<mgrwt>
<rscale>  1 0.30000000E+03</rscale>
<asrwt>0</asrwt>
<pdfrwt beam="1">  1       21 0.11524553E-01 0.30000000E+03</pdfrwt>
<pdfrwt beam="2">0</pdfrwt>
<totfact> 0.66678098E+03</totfact>
</mgrwt>
</event>
<event>
 6    1  0.8397183E-002  0.3000000E+03  0.7818608E-02  0.1093470E+00
         21   -1    0    0  501  502  0.00000000000E+00  0.00000000000E+00  0.14035140470E+01  0.14035140470E+01  0.00000000000E+00 0. -1.
         13   -1    0    0    0    0 -0.00000000000E+00 -0.00000000000E+00 -0.10000000000E+04  0.10000000000E+04  0.00000000000E+00 0.  1.
    9000005    2    1    2  501    0  0.28697590597E+02  0.23134798202E+02 -0.58462025101E+03  0.58578939772E+03  0.30999991272E+01 0.  0.
         13    1    3    3    0    0  0.36458922522E+00 -0.19991039390E-01 -0.37298942399E+01  0.37477241074E+01  0.00000000000E+00 0.  1.
          3    1    3    3  501    0  0.28333001372E+02  0.23154789241E+02 -0.58089035677E+03  0.58204167361E+03  0.00000000000E+00 0.  1.
         -1    1    1    2    0  502 -0.28697590597E+02 -0.23134798202E+02 -0.41397623494E+03  0.41561411633E+03  0.00000000000E+00 0. -1.
<mgrwt>
<rscale>  1 0.30000000E+03</rscale>
<asrwt>0</asrwt>
<pdfrwt beam="1">  1       21 0.51036982E-02 0.30000000E+03</pdfrwt>
<pdfrwt beam="2">0</pdfrwt>
<totfact> 0.27813597E+04</totfact>
</mgrwt>
</event>
<event>
 6    1  0.8397183E-002  0.3000000E+03  0.7818608E-02  0.1093470E+00
         21   -1    0    0  501  502  0.00000000000E+00  0.00000000000E+00  0.13267055801E+01  0.13267055801E+01  0.00000000000E+00 0. -1.
         13   -1    0    0    0    0 -0.00000000000E+00 -0.00000000000E+00 -0.10000000000E+04  0.10000000000E+04  0.00000000000E+00 0.  1.
    9000005    2    1    2  501    0 -0.20088854467E+00 -0.35811436068E+02 -0.43602052307E+03  0.43753539630E+03  0.63896141986E+01 0.  0.
         13    1    3    3    0    0  0.19273416505E+01 -0.37854918469E+01 -0.45263910396E+02  0.45462799944E+02  0.00000000000E+00 0.  1.
          3    1    3    3  501    0 -0.21282301952E+01 -0.32025944222E+02 -0.39075661267E+03  0.39207259635E+03  0.00000000000E+00 0.  1.
         -3    1    1    2    0  502  0.20088854467E+00  0.35811436068E+02 -0.56265277135E+03  0.56379130928E+03  0.00000000000E+00 0. -1.
<mgrwt>
<rscale>  1 0.30000000E+03</rscale>
<asrwt>0</asrwt>
<pdfrwt beam="1">  1       21 0.48243941E-02 0.30000000E+03</pdfrwt>
<pdfrwt beam="2">0</pdfrwt>
<totfact> 0.30613307E+04</totfact>
</mgrwt>
</event>
<event>
 6    1  0.8397183E-002  0.3000000E+03  0.7818608E-02  0.1093470E+00
         21   -1    0    0  501  502  0.00000000000E+00  0.00000000000E+00  0.55487749550E+01  0.55487749550E+01  0.00000000000E+00 0. -1.
         13   -1    0    0    0    0 -0.00000000000E+00 -0.00000000000E+00 -0.10000000000E+04  0.10000000000E+04  0.00000000000E+00 0.  1.
    9000005    2    1    2  501    0  0.20042601939E+02 -0.54159547255E+02 -0.18034962888E+03  0.18940150189E+03  0.34609001772E+01 0.  0.
         13    1    3    3    0    0  0.54425559985E+01 -0.11921539735E+02 -0.37457230697E+02  0.39683606904E+02  0.00000000000E+00 0.  1.
          3    1    3    3  501    0  0.14600045940E+02 -0.42238007520E+02 -0.14289239818E+03  0.14971789499E+03  0.00000000000E+00 0.  1.
         -1    1    1    2    0  502 -0.20042601939E+02  0.54159547255E+02 -0.81410159616E+03  0.81614727306E+03  0.00000000000E+00 0. -1.
<mgrwt>
<rscale>  1 0.30000000E+03</rscale>
<asrwt>0</asrwt>
<pdfrwt beam="1">  1       21 0.20177406E-01 0.30000000E+03</pdfrwt>
<pdfrwt beam="2">0</pdfrwt>
<totfact> 0.23590941E+03</totfact>
</mgrwt>
</event>
<event>
 6    1  0.8397183E-002  0.3000000E+03  0.7818608E-02  0.1093470E+00
         21   -1    0    0  501  502  0.00000000000E+00  0.00000000000E+00  0.11710756762E+02  0.11710756762E+02  0.00000000000E+00 0. -1.
         13   -1    0    0    0    0 -0.00000000000E+00 -0.00000000000E+00 -0.10000000000E+04  0.10000000000E+04  0.00000000000E+00 0.  1.
    9000005    2    1    2  501    0  0.68540026909E+02  0.27813346766E+02 -0.12522193208E+03  0.14547955140E+03  0.35284636144E+01 0.  0.
         13    1    3    3    0    0  0.37907850619E+02  0.14244056859E+02 -0.65760687881E+02  0.77229310271E+02  0.00000000000E+00 0.  1.
          3    1    3    3  501    0  0.30632176290E+02  0.13569289907E+02 -0.59461244199E+02  0.68250241131E+02  0.00000000000E+00 0.  1.
         -3    1    1    2    0  502 -0.68540026909E+02 -0.27813346766E+02 -0.86306731116E+03  0.86623120536E+03  0.00000000000E+00 0. -1.
<mgrwt>
<rscale>  1 0.30000000E+03</rscale>
<asrwt>0</asrwt>
<pdfrwt beam="1">  1       21 0.42584660E-01 0.30000000E+03</pdfrwt>
<pdfrwt beam="2">0</pdfrwt>
<totfact> 0.52955768E+02</totfact>
</mgrwt>
</event>
<event>
 6    1  0.8397183E-002  0.3000000E+03  0.7818608E-02  0.1093470E+00
         21   -1    0    0  501  502  0.00000000000E+00  0.00000000000E+00  0.18455083239E+01  0.18455083239E+01  0.00000000000E+00 0. -1.
         13   -1    0    0    0    0 -0.00000000000E+00 -0.00000000000E+00 -0.10000000000E+04  0.10000000000E+04  0.00000000000E+00 0.  1.
    9000005    2    1    2  501    0  0.26997332734E+02  0.31207566682E+02 -0.36287364339E+03  0.36522590103E+03  0.31479393985E+01 0.  0.
         13    1    3    3    0    0  0.19919377307E+01  0.13440323381E+01 -0.24676677577E+02  0.24793399426E+02  0.00000000000E+00 0.  1.
          1    1    3    3  501    0  0.25005395004E+02  0.29863534344E+02 -0.33819696582E+03  0.34043250161E+03  0.00000000000E+00 0.  1.
         -3    1    1    2    0  502 -0.26997332734E+02 -0.31207566682E+02 -0.63528084828E+03  0.63661960729E+03  0.00000000000E+00 0. -1.
<mgrwt>
<rscale>  1 0.30000000E+03</rscale>
<asrwt>0</asrwt>
<pdfrwt beam="1">  1       21 0.67109535E-02 0.30000000E+03</pdfrwt>
<pdfrwt beam="2">0</pdfrwt>
<totfact> 0.17361910E+04</totfact>
</mgrwt>
</event>
<event>
 6    1  0.8397183E-002  0.3000000E+03  0.7818608E-02  0.1093470E+00
         21   -1    0    0  501  502  0.00000000000E+00  0.00000000000E+00  0.91914381706E+00  0.91914381706E+00  0.00000000000E+00 0. -1.
         13   -1    0    0    0    0 -0.00000000000E+00 -0.00000000000E+00 -0.10000000000E+04  0.10000000000E+04  0.00000000000E+00 0.  1.
    9000005    2    1    2  501    0  0.14328699435E+02  0.26515718965E+02 -0.48639530913E+03  0.48734844261E+03  0.44399090681E+01 0.  0.
         13    1    3    3    0    0  0.64050795024E+01  0.11476832237E+02 -0.17763571753E+03  0.17812128133E+03  0.00000000000E+00 0.  1.
          3    1    3    3  501    0  0.79236199324E+01  0.15038886728E+02 -0.30875959161E+03  0.30922716128E+03  0.00000000000E+00 0.  1.
         -3    1    1    2    0  502 -0.14328699435E+02 -0.26515718965E+02 -0.51268554705E+03  0.51357070120E+03  0.00000000000E+00 0. -1.
<mgrwt>
<rscale>  1 0.30000000E+03</rscale>
<asrwt>0</asrwt>
<pdfrwt beam="1">  1       21 0.33423482E-02 0.30000000E+03</pdfrwt>
<pdfrwt beam="2">0</pdfrwt>
<totfact> 0.56831349E+04</totfact>
</mgrwt>
</event>
<event>
 6    1  0.8397183E-002  0.3000000E+03  0.7818608E-02  0.1093470E+00
         21   -1    0    0  501  502  0.00000000000E+00  0.00000000000E+00  0.12110569363E+01  0.12110569363E+01  0.00000000000E+00 0. -1.
         13   -1    0    0    0    0 -0.00000000000E+00 -0.00000000000E+00 -0.10000000000E+04  0.10000000000E+04  0.00000000000E+00 0.  1.
    9000005    2    1    2  501    0 -0.24837731343E+02 -0.23569974475E+02 -0.41752240333E+03  0.41893685451E+03  0.32671380235E+01 0.  0.
         13    1    3    3    0    0 -0.14088221511E+02 -0.15528543027E+02 -0.25096892477E+03  0.25184323464E+03  0.00000000000E+00 0.  1.
          1    1    3    3  501    0 -0.10749509832E+02 -0.80414314478E+01 -0.16655347856E+03  0.16709361987E+03  0.00000000000E+00 0.  1.
         -1    1    1    2    0  502  0.24837731343E+02  0.23569974475E+02 -0.58126653973E+03  0.58227420242E+03  0.00000000000E+00 0. -1.
<mgrwt>
<rscale>  1 0.30000000E+03</rscale>
<asrwt>0</asrwt>
<pdfrwt beam="1">  1       21 0.44038527E-02 0.30000000E+03</pdfrwt>
<pdfrwt beam="2">0</pdfrwt>
<totfact> 0.35743370E+04</totfact>
</mgrwt>
</event>
<event>
 6    1  0.8397183E-002  0.3000000E+03  0.7818608E-02  0.1093470E+00
         21   -1    0    0  501  502  0.00000000000E+00  0.00000000000E+00  0.10315289853E+01  0.10315289853E+01  0.00000000000E+00 0. -1.
         13   -1    0    0    0    0 -0.00000000000E+00 -0.00000000000E+00 -0.10000000000E+04  0.10000000000E+04  0.00000000000E+00 0.  1.
    9000005    2    1    2  501    0 -0.30742982731E+02 -0.44310742935E+01 -0.37889829987E+03  0.38018389667E+03  0.33329022025E+01 0.  0.
         13    1    3    3    0    0 -0.21018958422E+02 -0.42175476994E+01 -0.24812515624E+03  0.24904954824E+03  0.00000000000E+00 0.  1.
          3    1    3    3  501    0 -0.97240243092E+01 -0.21352659411E+00 -0.13077314363E+03  0.13113434843E+03  0.00000000000E+00 0.  1.
         -1    1    1    2    0  502  0.30742982731E+02  0.44310742935E+01 -0.62007017114E+03  0.62084763231E+03  0.00000000000E+00 0. -1.
<mgrwt>
<rscale>  1 0.30000000E+03</rscale>
<asrwt>0</asrwt>
<pdfrwt beam="1">  1       21 0.37510224E-02 0.30000000E+03</pdfrwt>
<pdfrwt beam="2">0</pdfrwt>
<totfact> 0.46845824E+04</totfact>
</mgrwt>
</event>
<event>
 6    1  0.8397183E-002  0.3000000E+03  0.7818608E-02  0.1093470E+00
         21   -1    0    0  501  502  0.00000000000E+00  0.00000000000E+00  0.13260328743E+01  0.13260328743E+01  0.00000000000E+00 0. -1.
         13   -1    0    0    0    0 -0.00000000000E+00 -0.00000000000E+00 -0.10000000000E+04  0.10000000000E+04  0.00000000000E+00 0.  1.
    9000005    2    1    2  501    0  0.23433627104E+02  0.25763930766E+02 -0.35777660360E+03  0.35948310382E+03  0.33299906870E+01 0.  0.
         13    1    3    3    0    0  0.83483654916E+01  0.91441717928E+01 -0.14405032586E+03  0.14458149074E+03  0.00000000000E+00 0.  1.
          3    1    3    3  501    0  0.15085261613E+02  0.16619758973E+02 -0.21372627774E+03  0.21490161308E+03  0.00000000000E+00 0.  1.
         -3    1    1    2    0  502 -0.23433627104E+02 -0.25763930766E+02 -0.64089736352E+03  0.64184292906E+03  0.00000000000E+00 0. -1.
<mgrwt>
<rscale>  1 0.30000000E+03</rscale>
<asrwt>0</asrwt>
<pdfrwt beam="1">  1       21 0.48219479E-02 0.30000000E+03</pdfrwt>
<pdfrwt beam="2">0</pdfrwt>
<totfact> 0.30639743E+04</totfact>
</mgrwt>
</event>
<event>
 6    1  0.8397183E-002  0.3000000E+03  0.7818608E-02  0.1093470E+00
         21   -1    0    0  501  502  0.00000000000E+00  0.00000000000E+00  0.98490855216E+00  0.98490855216E+00  0.00000000000E+00 0. -1.
         13   -1    0    0    0    0 -0.00000000000E+00 -0.00000000000E+00 -0.10000000000E+04  0.10000000000E+04  0.00000000000E+00 0.  1.
    9000005    2    1    2  501    0  0.30446641407E+02 -0.65498602631E+01 -0.45161579558E+03  0.45270041327E+03  0.33073737976E+01 0.  0.
         13    1    3    3    0    0  0.26104054124E+02 -0.55316120530E+01 -0.36834831020E+03  0.36931354971E+03  0.00000000000E+00 0.  1.
          1    1    3    3  501    0  0.43425872836E+01 -0.10182482101E+01 -0.83267485378E+02  0.83386863563E+02  0.00000000000E+00 0.  1.
         -1    1    1    2    0  502 -0.30446641407E+02  0.65498602631E+01 -0.54739929587E+03  0.54828449528E+03  0.00000000000E+00 0. -1.
<mgrwt>
<rscale>  1 0.30000000E+03</rscale>
<asrwt>0</asrwt>
<pdfrwt beam="1">  1       21 0.35814932E-02 0.30000000E+03</pdfrwt>
<pdfrwt beam="2">0</pdfrwt>
<totfact> 0.50625956E+04</totfact>
</mgrwt>
</event>
<event>
 6    1  0.8680846E-002  0.3000000E+03  0.7818608E-02  0.1093470E+00
         21   -1    0    0  501  502  0.00000000000E+00  0.00000000000E+00  0.37114125692E+01  0.37114125692E+01  0.00000000000E+00 0. -1.
         13   -1    0    0    0    0 -0.00000000000E+00 -0.00000000000E+00 -0.10000000000E+04  0.10000000000E+04  0.00000000000E+00 0.  1.
    9000005    2    1    2  501    0 -0.58036714181E+02 -0.74349915834E+01 -0.37122193623E+03  0.37591219488E+03  0.89840428235E+01 0.  0.
         13    1    3    3    0    0 -0.47562228308E+02 -0.40528438535E+01 -0.31812879692E+03  0.32169010326E+03  0.00000000000E+00 0.  1.
          3    1    3    3  501    0 -0.10474485872E+02 -0.33821477299E+01 -0.53093139317E+02  0.54222091624E+02  0.00000000000E+00 0.  1.
         -1    1    1    2    0  502  0.58036714181E+02  0.74349915834E+01 -0.62506665120E+03  0.62779921769E+03  0.00000000000E+00 0. -1.
<mgrwt>
<rscale>  1 0.30000000E+03</rscale>
<asrwt>0</asrwt>
<pdfrwt beam="1">  1       21 0.13496074E-01 0.30000000E+03</pdfrwt>
<pdfrwt beam="2">0</pdfrwt>
<totfact> 0.50019650E+03</totfact>
</mgrwt>
</event>
<event>
 6    1  0.8397183E-002  0.3000000E+03  0.7818608E-02  0.1093470E+00
         21   -1    0    0  501  502  0.00000000000E+00  0.00000000000E+00  0.21412085150E+01  0.21412085150E+01  0.00000000000E+00 0. -1.
         13   -1    0    0    0    0 -0.00000000000E+00 -0.00000000000E+00 -0.10000000000E+04  0.10000000000E+04  0.00000000000E+00 0.  1.
    9000005    2    1    2  501    0 -0.13256224206E+02 -0.42791983295E+02 -0.37661298666E+03  0.37928229084E+03  0.32913689184E+01 0.  0.
         13    1    3    3    0    0 -0.56152451811E+01 -0.23570702211E+02 -0.20055533016E+03  0.20201373576E+03  0.00000000000E+00 0.  1.
          1    1    3    3  501    0 -0.76409790247E+01 -0.19221281084E+02 -0.17605765651E+03  0.17726855508E+03  0.00000000000E+00 0.  1.
         -1    1    1    2    0  502  0.13256224206E+02  0.42791983295E+02 -0.62124580482E+03  0.62285891767E+03  0.00000000000E+00 0. -1.
<mgrwt>
<rscale>  1 0.30000000E+03</rscale>
<asrwt>0</asrwt>
<pdfrwt beam="1">  1       21 0.77862292E-02 0.30000000E+03</pdfrwt>
<pdfrwt beam="2">0</pdfrwt>
<totfact> 0.13395781E+04</totfact>
</mgrwt>
</event>
<event>
 6    1  0.8397183E-002  0.3000000E+03  0.7818608E-02  0.1093470E+00
         21   -1    0    0  501  502  0.00000000000E+00  0.00000000000E+00  0.12076561255E+01  0.12076561255E+01  0.00000000000E+00 0. -1.
         13   -1    0    0    0    0 -0.00000000000E+00 -0.00000000000E+00 -0.10000000000E+04  0.10000000000E+04  0.00000000000E+00 0.  1.
    9000005    2    1    2  501    0 -0.82606279524E+01 -0.32699852025E+02 -0.61710969746E+03  0.61803777100E+03  0.29646890732E+01 0.  0.
         13    1    3    3    0    0 -0.74739695782E+01 -0.25685278443E+02 -0.50114781798E+03  0.50186126490E+03  0.00000000000E+00 0.  1.
          3    1    3    3  501    0 -0.78665837419E+00 -0.70145735817E+01 -0.11596187949E+03  0.11617650609E+03  0.00000000000E+00 0.  1.
         -3    1    1    2    0  502  0.82606279524E+01  0.32699852025E+02 -0.38168264641E+03  0.38316988513E+03  0.00000000000E+00 0. -1.
<mgrwt>
<rscale>  1 0.30000000E+03</rscale>
<asrwt>0</asrwt>
<pdfrwt beam="1">  1       21 0.43914861E-02 0.30000000E+03</pdfrwt>
<pdfrwt beam="2">0</pdfrwt>
<totfact> 0.35914036E+04</totfact>
</mgrwt>
</event>
<event>
 6    1  0.8397183E-002  0.3000000E+03  0.7818608E-02  0.1093470E+00
         21   -1    0    0  501  502  0.00000000000E+00  0.00000000000E+00  0.28016751414E+01  0.28016751414E+01  0.00000000000E+00 0. -1.
         13   -1    0    0    0    0 -0.00000000000E+00 -0.00000000000E+00 -0.10000000000E+04  0.10000000000E+04  0.00000000000E+00 0.  1.
    9000005    2    1    2  501    0  0.51624672774E+02 -0.36757585399E+01 -0.39689155777E+03  0.40026799753E+03  0.35976631486E+01 0.  0.
         13    1    3    3    0    0  0.38205342075E+02 -0.17116022966E+01 -0.30213531573E+03  0.30454609956E+03  0.00000000000E+00 0.  1.
          3    1    3    3  501    0  0.13419330699E+02 -0.19641562433E+01 -0.94756242039E+02  0.95721897973E+02  0.00000000000E+00 0.  1.
         -3    1    1    2    0  502 -0.51624672774E+02  0.36757585399E+01 -0.60030676709E+03  0.60253367761E+03  0.00000000000E+00 0. -1.
<mgrwt>
<rscale>  1 0.30000000E+03</rscale>
<asrwt>0</asrwt>
<pdfrwt beam="1">  1       21 0.10187931E-01 0.30000000E+03</pdfrwt>
<pdfrwt beam="2">0</pdfrwt>
<totfact> 0.83215330E+03</totfact>
</mgrwt>
</event>
<event>
 6    1  0.8397183E-002  0.3000000E+03  0.7818608E-02  0.1093470E+00
         21   -1    0    0  501  502  0.00000000000E+00  0.00000000000E+00  0.16580424463E+01  0.16580424463E+01  0.00000000000E+00 0. -1.
         13   -1    0    0    0    0 -0.00000000000E+00 -0.00000000000E+00 -0.10000000000E+04  0.10000000000E+04  0.00000000000E+00 0.  1.
    9000005    2    1    2  501    0 -0.58630017429E+01 -0.39940842423E+02 -0.46574610976E+03  0.46753447737E+03  0.62771880669E+01 0.  0.
         13    1    3    3    0    0 -0.66586278966E+01 -0.31960235279E+02 -0.39044408932E+03  0.39180656050E+03  0.00000000000E+00 0.  1.
          1    1    3    3  501    0  0.79562615376E+00 -0.79806071442E+01 -0.75302020442E+02  0.75727916874E+02  0.00000000000E+00 0.  1.
         -3    1    1    2    0  502  0.58630017429E+01  0.39940842423E+02 -0.53259584779E+03  0.53412356507E+03  0.00000000000E+00 0. -1.
<mgrwt>
<rscale>  1 0.30000000E+03</rscale>
<asrwt>0</asrwt>
<pdfrwt beam="1">  1       21 0.60292580E-02 0.30000000E+03</pdfrwt>
<pdfrwt beam="2">0</pdfrwt>
<totfact> 0.20895607E+04</totfact>
</mgrwt>
</event>
<event>
 6    1  0.8397183E-002  0.3000000E+03  0.7818608E-02  0.1093470E+00
         21   -1    0    0  501  502  0.00000000000E+00  0.00000000000E+00  0.52285005899E+01  0.52285005899E+01  0.00000000000E+00 0. -1.
         13   -1    0    0    0    0 -0.00000000000E+00 -0.00000000000E+00 -0.10000000000E+04  0.10000000000E+04  0.00000000000E+00 0.  1.
    9000005    2    1    2  501    0  0.59860109214E+02  0.28955716576E+02 -0.69429144539E+03  0.69747871739E+03  0.37794005155E+01 0.  0.
         13    1    3    3    0    0  0.49530269994E+02  0.25399796627E+02 -0.58574796037E+03  0.58838683737E+03  0.00000000000E+00 0.  1.
          3    1    3    3  501    0  0.10329839221E+02  0.35559199495E+01 -0.10854348502E+03  0.10909188002E+03  0.00000000000E+00 0.  1.
         -1    1    1    2    0  502 -0.59860109214E+02 -0.28955716576E+02 -0.30048005402E+03  0.30774978320E+03  0.00000000000E+00 0. -1.
<mgrwt>
<rscale>  1 0.30000000E+03</rscale>
<asrwt>0</asrwt>
<pdfrwt beam="1">  1       21 0.19012770E-01 0.30000000E+03</pdfrwt>
<pdfrwt beam="2">0</pdfrwt>
<totfact> 0.26417225E+03</totfact>
</mgrwt>
</event>
<event>
 6    1  0.8397183E-002  0.3000000E+03  0.7818608E-02  0.1093470E+00
         21   -1    0    0  501  502  0.00000000000E+00  0.00000000000E+00  0.17809104941E+01  0.17809104941E+01  0.00000000000E+00 0. -1.
         13   -1    0    0    0    0 -0.00000000000E+00 -0.00000000000E+00 -0.10000000000E+04  0.10000000000E+04  0.00000000000E+00 0.  1.
    9000005    2    1    2  501    0  0.33423759590E+02 -0.24719682950E+02 -0.58256847138E+03  0.58405654351E+03  0.27949474856E+01 0.  0.
         13    1    3    3    0    0  0.46604571149E+01 -0.23069130767E+01 -0.71427514938E+02  0.71616559528E+02  0.00000000000E+00 0.  1.
          3    1    3    3  501    0  0.28763302475E+02 -0.22412769873E+02 -0.51114095645E+03  0.51243998398E+03  0.00000000000E+00 0.  1.
         -3    1    1    2    0  502 -0.33423759590E+02  0.24719682950E+02 -0.41565061812E+03  0.41772436699E+03  0.00000000000E+00 0. -1.
<mgrwt>
<rscale>  1 0.30000000E+03</rscale>
<asrwt>0</asrwt>
<pdfrwt beam="1">  1       21 0.64760518E-02 0.30000000E+03</pdfrwt>
<pdfrwt beam="2">0</pdfrwt>
<totfact> 0.18467680E+04</totfact>
</mgrwt>
</event>
<event>
 6    1  0.8397183E-002  0.3000000E+03  0.7818608E-02  0.1093470E+00
         21   -1    0    0  501  502  0.00000000000E+00  0.00000000000E+00  0.16793281726E+01  0.16793281726E+01  0.00000000000E+00 0. -1.
         13   -1    0    0    0    0 -0.00000000000E+00 -0.00000000000E+00 -0.10000000000E+04  0.10000000000E+04  0.00000000000E+00 0.  1.
    9000005    2    1    2  501    0 -0.91557794870E+01 -0.36445797755E+02 -0.69480111740E+03  0.69584237097E+03  0.59906612860E+01 0.  0.
         13    1    3    3    0    0 -0.34086679082E+01 -0.20979747748E+02 -0.34731775394E+03  0.34796751434E+03  0.00000000000E+00 0.  1.
          1    1    3    3  501    0 -0.57471115788E+01 -0.15466050007E+02 -0.34748336346E+03  0.34787485663E+03  0.00000000000E+00 0.  1.
         -3    1    1    2    0  502  0.91557794870E+01  0.36445797755E+02 -0.30351955443E+03  0.30583695720E+03  0.00000000000E+00 0. -1.
<mgrwt>
<rscale>  1 0.30000000E+03</rscale>
<asrwt>0</asrwt>
<pdfrwt beam="1">  1       21 0.61066608E-02 0.30000000E+03</pdfrwt>
<pdfrwt beam="2">0</pdfrwt>
<totfact> 0.20440721E+04</totfact>
</mgrwt>
</event>
<event>
 6    1  0.8397183E-002  0.3000000E+03  0.7818608E-02  0.1093470E+00
         21   -1    0    0  501  502  0.00000000000E+00  0.00000000000E+00  0.29292911219E+01  0.29292911219E+01  0.00000000000E+00 0. -1.
         13   -1    0    0    0    0 -0.00000000000E+00 -0.00000000000E+00 -0.10000000000E+04  0.10000000000E+04  0.00000000000E+00 0.  1.
    9000005    2    1    2  501    0  0.41182004601E+02  0.18172728454E+02 -0.77667229102E+03  0.77798114563E+03  0.29342405068E+01 0.  0.
         13    1    3    3    0    0  0.82776767444E+01  0.29827235064E+01 -0.16951335549E+03  0.16974155137E+03  0.00000000000E+00 0.  1.
          3    1    3    3  501    0  0.32904327857E+02  0.15190004947E+02 -0.60715893553E+03  0.60823959427E+03  0.00000000000E+00 0.  1.
         -1    1    1    2    0  502 -0.41182004601E+02 -0.18172728454E+02 -0.22039841786E+03  0.22494814549E+03  0.00000000000E+00 0. -1.
<mgrwt>
<rscale>  1 0.30000000E+03</rscale>
<asrwt>0</asrwt>
<pdfrwt beam="1">  1       21 0.10651990E-01 0.30000000E+03</pdfrwt>
<pdfrwt beam="2">0</pdfrwt>
<totfact> 0.76832558E+03</totfact>
</mgrwt>
</event>
<event>
 6    1  0.8397183E-002  0.3000000E+03  0.7818608E-02  0.1093470E+00
         21   -1    0    0  501  502  0.00000000000E+00  0.00000000000E+00  0.10010006688E+01  0.10010006688E+01  0.00000000000E+00 0. -1.
         13   -1    0    0    0    0 -0.00000000000E+00 -0.00000000000E+00 -0.10000000000E+04  0.10000000000E+04  0.00000000000E+00 0.  1.
    9000005    2    1    2  501    0  0.30385127689E+02  0.22711829733E+01 -0.63181250725E+03  0.63255245036E+03  0.26728044897E+01 0.  0.
         13    1    3    3    0    0  0.14540604206E+01  0.27866811993E+00 -0.44202426027E+02  0.44227213503E+02  0.00000000000E+00 0.  1.
          3    1    3    3  501    0  0.28931067268E+02  0.19925148533E+01 -0.58761008122E+03  0.58832523686E+03  0.00000000000E+00 0.  1.
         -1    1    1    2    0  502 -0.30385127689E+02 -0.22711829733E+01 -0.36718649208E+03  0.36844855031E+03  0.00000000000E+00 0. -1.
<mgrwt>
<rscale>  1 0.30000000E+03</rscale>
<asrwt>0</asrwt>
<pdfrwt beam="1">  1       21 0.36400101E-02 0.30000000E+03</pdfrwt>
<pdfrwt beam="2">0</pdfrwt>
<totfact> 0.49268460E+04</totfact>
</mgrwt>
</event>
<event>
 6    1  0.8397183E-002  0.3000000E+03  0.7818608E-02  0.1093470E+00
         21   -1    0    0  501  502  0.00000000000E+00  0.00000000000E+00  0.12164437599E+01  0.12164437599E+01  0.00000000000E+00 0. -1.
         13   -1    0    0    0    0 -0.00000000000E+00 -0.00000000000E+00 -0.10000000000E+04  0.10000000000E+04  0.00000000000E+00 0.  1.
    9000005    2    1    2  501    0  0.34655510166E+02  0.23313709289E+01 -0.47308689579E+03  0.47437356539E+03  0.35537166785E+01 0.  0.
         13    1    3    3    0    0  0.34614798119E+02  0.23592067987E+01 -0.47301869458E+03  0.47428940061E+03  0.00000000000E+00 0.  1.
          3    1    3    3  501    0  0.40712047095E-01 -0.27835869796E-01 -0.68201204425E-01  0.84164783080E-01  0.00000000000E+00 0.  1.
         -1    1    1    2    0  502 -0.34655510166E+02 -0.23313709289E+01 -0.52569666045E+03  0.52684287837E+03  0.00000000000E+00 0. -1.
<mgrwt>
<rscale>  1 0.30000000E+03</rscale>
<asrwt>0</asrwt>
<pdfrwt beam="1">  1       21 0.44234412E-02 0.30000000E+03</pdfrwt>
<pdfrwt beam="2">0</pdfrwt>
<totfact> 0.35475594E+04</totfact>
</mgrwt>
</event>
<event>
 6    1  0.8397183E-002  0.3000000E+03  0.7818608E-02  0.1093470E+00
         21   -1    0    0  501  502  0.00000000000E+00  0.00000000000E+00  0.13163766522E+01  0.13163766522E+01  0.00000000000E+00 0. -1.
         13   -1    0    0    0    0 -0.00000000000E+00 -0.00000000000E+00 -0.10000000000E+04  0.10000000000E+04  0.00000000000E+00 0.  1.
    9000005    2    1    2  501    0 -0.32975509524E+02 -0.12206513298E+02 -0.61921718388E+03  0.62022431182E+03  0.34486179364E+01 0.  0.
         13    1    3    3    0    0 -0.24034910286E+02 -0.79631081040E+01 -0.42185826056E+03  0.42261741564E+03  0.00000000000E+00 0.  1.
          1    1    3    3  501    0 -0.89405992384E+01 -0.42434051936E+01 -0.19735892332E+03  0.19760689618E+03  0.00000000000E+00 0.  1.
         -1    1    1    2    0  502  0.32975509524E+02  0.12206513298E+02 -0.37946643947E+03  0.38109206483E+03  0.00000000000E+00 0. -1.
<mgrwt>
<rscale>  1 0.30000000E+03</rscale>
<asrwt>0</asrwt>
<pdfrwt beam="1">  1       21 0.47868343E-02 0.30000000E+03</pdfrwt>
<pdfrwt beam="2">0</pdfrwt>
<totfact> 0.31023188E+04</totfact>
</mgrwt>
</event>
<event>
 6    1  0.8397183E-002  0.3000000E+03  0.7818608E-02  0.1093470E+00
         21   -1    0    0  501  502  0.00000000000E+00  0.00000000000E+00  0.15697707010E+01  0.15697707010E+01  0.00000000000E+00 0. -1.
         13   -1    0    0    0    0 -0.00000000000E+00 -0.00000000000E+00 -0.10000000000E+04  0.10000000000E+04  0.00000000000E+00 0.  1.
    9000005    2    1    2  501    0  0.54764318840E+01 -0.37008892052E+02 -0.33771192563E+03  0.33979312696E+03  0.32210277672E+01 0.  0.
         13    1    3    3    0    0  0.18908437096E+01 -0.98292756985E+01 -0.10315571031E+03  0.10364019741E+03  0.00000000000E+00 0.  1.
          3    1    3    3  501    0  0.35855881744E+01 -0.27179616354E+02 -0.23455621532E+03  0.23615292954E+03  0.00000000000E+00 0.  1.
         -3    1    1    2    0  502 -0.54764318840E+01  0.37008892052E+02 -0.66071830367E+03  0.66177664374E+03  0.00000000000E+00 0. -1.
<mgrwt>
<rscale>  1 0.30000000E+03</rscale>
<asrwt>0</asrwt>
<pdfrwt beam="1">  1       21 0.57082691E-02 0.30000000E+03</pdfrwt>
<pdfrwt beam="2">0</pdfrwt>
<totfact> 0.22960949E+04</totfact>
</mgrwt>
</event>
<event>
 6    1  0.8397183E-002  0.3000000E+03  0.7818608E-02  0.1093470E+00
         21   -1    0    0  501  502  0.00000000000E+00  0.00000000000E+00  0.90966874258E+01  0.90966874258E+01  0.00000000000E+00 0. -1.
         13   -1    0    0    0    0 -0.00000000000E+00 -0.00000000000E+00 -0.10000000000E+04  0.10000000000E+04  0.00000000000E+00 0.  1.
    9000005    2    1    2  501    0 -0.61961888274E+02 -0.72455673834E+02 -0.49306889119E+03  0.50221582234E+03  0.38341213169E+01 0.  0.
         13    1    3    3    0    0 -0.54344280002E+01 -0.81318786808E+01 -0.51187669297E+02  0.52113702101E+02  0.00000000000E+00 0.  1.
          1    1    3    3  501    0 -0.56527460273E+02 -0.64323795153E+02 -0.44188122189E+03  0.45010212024E+03  0.00000000000E+00 0.  1.
         -3    1    1    2    0  502  0.61961888274E+02  0.72455673834E+02 -0.49783442139E+03  0.50688086508E+03  0.00000000000E+00 0. -1.
<mgrwt>
<rscale>  1 0.30000000E+03</rscale>
<asrwt>0</asrwt>
<pdfrwt beam="1">  1       21 0.33078933E-01 0.30000000E+03</pdfrwt>
<pdfrwt beam="2">0</pdfrwt>
<totfact> 0.89287168E+02</totfact>
</mgrwt>
</event>
<event>
 6    1  0.8397183E-002  0.3000000E+03  0.7818608E-02  0.1093470E+00
         21   -1    0    0  501  502  0.00000000000E+00  0.00000000000E+00  0.13271284551E+01  0.13271284551E+01  0.00000000000E+00 0. -1.
         13   -1    0    0    0    0 -0.00000000000E+00 -0.00000000000E+00 -0.10000000000E+04  0.10000000000E+04  0.00000000000E+00 0.  1.
    9000005    2    1    2  501    0  0.32604657125E+02 -0.65713702707E+01 -0.29774535671E+03  0.29961092683E+03  0.28571767259E+01 0.  0.
         13    1    3    3    0    0  0.93619132441E+01 -0.13036941355E+01 -0.95302473953E+02  0.95770071419E+02  0.00000000000E+00 0.  1.
          3    1    3    3  501    0  0.23242743881E+02 -0.52676761352E+01 -0.20244288276E+03  0.20384085541E+03  0.00000000000E+00 0.  1.
         -3    1    1    2    0  502 -0.32604657125E+02  0.65713702707E+01 -0.70092751483E+03  0.70171620162E+03  0.00000000000E+00 0. -1.
<mgrwt>
<rscale>  1 0.30000000E+03</rscale>
<asrwt>0</asrwt>
<pdfrwt beam="1">  1       21 0.48259318E-02 0.30000000E+03</pdfrwt>
<pdfrwt beam="2">0</pdfrwt>
<totfact> 0.30596707E+04</totfact>
</mgrwt>
</event>
<event>
 6    1  0.8397183E-002  0.3000000E+03  0.7818608E-02  0.1093470E+00
         21   -1    0    0  501  502  0.00000000000E+00  0.00000000000E+00  0.11135046648E+01  0.11135046648E+01  0.00000000000E+00 0. -1.
         13   -1    0    0    0    0 -0.00000000000E+00 -0.00000000000E+00 -0.10000000000E+04  0.10000000000E+04  0.00000000000E+00 0.  1.
    9000005    2    1    2  501    0 -0.13160912550E+02  0.30332597104E+02 -0.48011747793E+03  0.48129183381E+03  0.59800180814E+01 0.  0.
         13    1    3    3    0    0 -0.39816147434E+01  0.11206873802E+02 -0.13496152744E+03  0.13548454217E+03  0.00000000000E+00 0.  1.
          3    1    3    3  501    0 -0.91792978070E+01  0.19125723301E+02 -0.34515595049E+03  0.34580729165E+03  0.00000000000E+00 0.  1.
         -3    1    1    2    0  502  0.13160912550E+02 -0.30332597104E+02 -0.51876901741E+03  0.51982167085E+03  0.00000000000E+00 0. -1.
<mgrwt>
<rscale>  1 0.30000000E+03</rscale>
<asrwt>0</asrwt>
<pdfrwt beam="1">  1       21 0.40491164E-02 0.30000000E+03</pdfrwt>
<pdfrwt beam="2">0</pdfrwt>
<totfact> 0.41191702E+04</totfact>
</mgrwt>
</event>
<event>
 6    1  0.8397183E-002  0.3000000E+03  0.7818608E-02  0.1093470E+00
         21   -1    0    0  501  502  0.00000000000E+00  0.00000000000E+00  0.12982082669E+01  0.12982082669E+01  0.00000000000E+00 0. -1.
         13   -1    0    0    0    0 -0.00000000000E+00 -0.00000000000E+00 -0.10000000000E+04  0.10000000000E+04  0.00000000000E+00 0.  1.
    9000005    2    1    2  501    0  0.15603782970E+02 -0.27162242360E+02 -0.25927206958E+03  0.26120525501E+03  0.49913654441E+01 0.  0.
         13    1    3    3    0    0  0.73387588541E+00 -0.15479021940E+00 -0.11132043574E+02  0.11157281388E+02  0.00000000000E+00 0.  1.
          1    1    3    3  501    0  0.14869907084E+02 -0.27007452141E+02 -0.24814002601E+03  0.25004797363E+03  0.00000000000E+00 0.  1.
         -1    1    1    2    0  502 -0.15603782970E+02  0.27162242360E+02 -0.73942972215E+03  0.74009295325E+03  0.00000000000E+00 0. -1.
<mgrwt>
<rscale>  1 0.30000000E+03</rscale>
<asrwt>0</asrwt>
<pdfrwt beam="1">  1       21 0.47207673E-02 0.30000000E+03</pdfrwt>
<pdfrwt beam="2">0</pdfrwt>
<totfact> 0.31765306E+04</totfact>
</mgrwt>
</event>
<event>
 6    1  0.8397183E-002  0.3000000E+03  0.7818608E-02  0.1093470E+00
         21   -1    0    0  501  502  0.00000000000E+00  0.00000000000E+00  0.22195103959E+01  0.22195103959E+01  0.00000000000E+00 0. -1.
         13   -1    0    0    0    0 -0.00000000000E+00 -0.00000000000E+00 -0.10000000000E+04  0.10000000000E+04  0.00000000000E+00 0.  1.
    9000005    2    1    2  501    0  0.26932121441E+01 -0.38385530632E+02 -0.78754030201E+03  0.78848687640E+03  0.33353587091E+01 0.  0.
         13    1    3    3    0    0  0.15183729451E+01 -0.54850378477E+01 -0.12303462557E+03  0.12316618930E+03  0.00000000000E+00 0.  1.
          3    1    3    3  501    0  0.11748391990E+01 -0.32900492784E+02 -0.66450567643E+03  0.66532068710E+03  0.00000000000E+00 0.  1.
         -1    1    1    2    0  502 -0.26932121441E+01  0.38385530632E+02 -0.21024018760E+03  0.21373263400E+03  0.00000000000E+00 0. -1.
<mgrwt>
<rscale>  1 0.30000000E+03</rscale>
<asrwt>0</asrwt>
<pdfrwt beam="1">  1       21 0.80709639E-02 0.30000000E+03</pdfrwt>
<pdfrwt beam="2">0</pdfrwt>
<totfact> 0.12577200E+04</totfact>
</mgrwt>
</event>
<event>
 6    1  0.8397183E-002  0.3000000E+03  0.7818608E-02  0.1093470E+00
         21   -1    0    0  501  502  0.00000000000E+00  0.00000000000E+00  0.21267885231E+01  0.21267885231E+01  0.00000000000E+00 0. -1.
         13   -1    0    0    0    0 -0.00000000000E+00 -0.00000000000E+00 -0.10000000000E+04  0.10000000000E+04  0.00000000000E+00 0.  1.
    9000005    2    1    2  501    0  0.44584475723E+02 -0.92638276535E+01 -0.57392663842E+03  0.57574164480E+03  0.36140412819E+01 0.  0.
         13    1    3    3    0    0  0.25592784645E+02 -0.47846269867E+01 -0.34938692394E+03  0.35035568485E+03  0.00000000000E+00 0.  1.
          3    1    3    3  501    0  0.18991691077E+02 -0.44792006668E+01 -0.22453971447E+03  0.22538595995E+03  0.00000000000E+00 0.  1.
         -3    1    1    2    0  502 -0.44584475723E+02  0.92638276535E+01 -0.42394657306E+03  0.42638514372E+03  0.00000000000E+00 0. -1.
<mgrwt>
<rscale>  1 0.30000000E+03</rscale>
<asrwt>0</asrwt>
<pdfrwt beam="1">  1       21 0.77337928E-02 0.30000000E+03</pdfrwt>
<pdfrwt beam="2">0</pdfrwt>
<totfact> 0.13555461E+04</totfact>
</mgrwt>
</event>
<event>
 6    1  0.8397183E-002  0.3000000E+03  0.7818608E-02  0.1093470E+00
         21   -1    0    0  501  502  0.00000000000E+00  0.00000000000E+00  0.95325080982E+00  0.95325080982E+00  0.00000000000E+00 0. -1.
         13   -1    0    0    0    0 -0.00000000000E+00 -0.00000000000E+00 -0.10000000000E+04  0.10000000000E+04  0.00000000000E+00 0.  1.
    9000005    2    1    2  501    0 -0.24066955742E+02 -0.17936223733E+02 -0.39162066125E+03  0.39278602152E+03  0.36317898490E+01 0.  0.
         13    1    3    3    0    0 -0.23945885490E+02 -0.17940806375E+02 -0.38385003899E+03  0.38501445479E+03  0.00000000000E+00 0.  1.
          1    1    3    3  501    0 -0.12107025250E+00  0.45826417334E-02 -0.77706222694E+01  0.77715667313E+01  0.00000000000E+00 0.  1.
         -3    1    1    2    0  502  0.24066955742E+02  0.17936223733E+02 -0.60742608794E+03  0.60816722929E+03  0.00000000000E+00 0. -1.
<mgrwt>
<rscale>  1 0.30000000E+03</rscale>
<asrwt>0</asrwt>
<pdfrwt beam="1">  1       21 0.34663739E-02 0.30000000E+03</pdfrwt>
<pdfrwt beam="2">0</pdfrwt>
<totfact> 0.53473977E+04</totfact>
</mgrwt>
</event>
<event>
 6    1  0.8397183E-002  0.3000000E+03  0.7818608E-02  0.1093470E+00
         21   -1    0    0  501  502  0.00000000000E+00  0.00000000000E+00  0.15201547772E+01  0.15201547772E+01  0.00000000000E+00 0. -1.
         13   -1    0    0    0    0 -0.00000000000E+00 -0.00000000000E+00 -0.10000000000E+04  0.10000000000E+04  0.00000000000E+00 0.  1.
    9000005    2    1    2  501    0 -0.11703585167E+02 -0.27754788564E+02 -0.81703528799E+03  0.81759237128E+03  0.18225133548E+01 0.  0.
         13    1    3    3    0    0 -0.68459024835E+01 -0.13935861241E+02 -0.41558676130E+03  0.41587670141E+03  0.00000000000E+00 0.  1.
          3    1    3    3  501    0 -0.48576826835E+01 -0.13818927323E+02 -0.40144852670E+03  0.40171566987E+03  0.00000000000E+00 0.  1.
         -3    1    1    2    0  502  0.11703585167E+02  0.27754788564E+02 -0.18144455723E+03  0.18392778350E+03  0.00000000000E+00 0. -1.
<mgrwt>
<rscale>  1 0.30000000E+03</rscale>
<asrwt>0</asrwt>
<pdfrwt beam="1">  1       21 0.55278472E-02 0.30000000E+03</pdfrwt>
<pdfrwt beam="2">0</pdfrwt>
<totfact> 0.24263086E+04</totfact>
</mgrwt>
</event>
<event>
 6    1  0.8397183E-002  0.3000000E+03  0.7818608E-02  0.1093470E+00
         21   -1    0    0  501  502  0.00000000000E+00  0.00000000000E+00  0.10897451663E+01  0.10897451663E+01  0.00000000000E+00 0. -1.
         13   -1    0    0    0    0 -0.00000000000E+00 -0.00000000000E+00 -0.10000000000E+04  0.10000000000E+04  0.00000000000E+00 0.  1.
    9000005    2    1    2  501    0 -0.24505455199E+02  0.21195670845E+02 -0.59130797159E+03  0.59220174693E+03  0.28316077990E+01 0.  0.
         13    1    3    3    0    0 -0.21067476880E+01  0.97316224498E+00 -0.36515418530E+02  0.36589086092E+02  0.00000000000E+00 0.  1.
          1    1    3    3  501    0 -0.22398707511E+02  0.20222508600E+02 -0.55479255306E+03  0.55561266084E+03  0.00000000000E+00 0.  1.
         -3    1    1    2    0  502  0.24505455199E+02 -0.21195670845E+02 -0.40760228324E+03  0.40888799823E+03  0.00000000000E+00 0. -1.
<mgrwt>
<rscale>  1 0.30000000E+03</rscale>
<asrwt>0</asrwt>
<pdfrwt beam="1">  1       21 0.39627181E-02 0.30000000E+03</pdfrwt>
<pdfrwt beam="2">0</pdfrwt>
<totfact> 0.42715492E+04</totfact>
</mgrwt>
</event>
<event>
 6    1  0.8397183E-002  0.3000000E+03  0.7818608E-02  0.1093470E+00
         21   -1    0    0  501  502  0.00000000000E+00  0.00000000000E+00  0.39143921210E+01  0.39143921210E+01  0.00000000000E+00 0. -1.
         13   -1    0    0    0    0 -0.00000000000E+00 -0.00000000000E+00 -0.10000000000E+04  0.10000000000E+04  0.00000000000E+00 0.  1.
    9000005    2    1    2  501    0  0.48260673109E+02 -0.31392968856E+01 -0.18147724060E+03  0.18787166052E+03  0.47774698053E+01 0.  0.
         13    1    3    3    0    0  0.25292187531E+02  0.74296940737E+00 -0.94989865872E+02  0.98302194136E+02  0.00000000000E+00 0.  1.
          3    1    3    3  501    0  0.22968485578E+02 -0.38822662930E+01 -0.86487374726E+02  0.89569466384E+02  0.00000000000E+00 0.  1.
         -3    1    1    2    0  502 -0.48260673109E+02  0.31392968856E+01 -0.81460836728E+03  0.81604273160E+03  0.00000000000E+00 0. -1.
<mgrwt>
<rscale>  1 0.30000000E+03</rscale>
<asrwt>0</asrwt>
<pdfrwt beam="1">  1       21 0.14234183E-01 0.30000000E+03</pdfrwt>
<pdfrwt beam="2">0</pdfrwt>
<totfact> 0.45361737E+03</totfact>
</mgrwt>
</event>
<event>
 6    1  0.8397183E-002  0.3000000E+03  0.7818608E-02  0.1093470E+00
         21   -1    0    0  501  502  0.00000000000E+00  0.00000000000E+00  0.21413068034E+01  0.21413068034E+01  0.00000000000E+00 0. -1.
         13   -1    0    0    0    0 -0.00000000000E+00 -0.00000000000E+00 -0.10000000000E+04  0.10000000000E+04  0.00000000000E+00 0.  1.
    9000005    2    1    2  501    0  0.32113778165E+02  0.18376396389E+02 -0.19982343756E+03  0.20324878842E+03  0.34171776465E+01 0.  0.
         13    1    3    3    0    0  0.57984785139E+01  0.38982618378E+01 -0.31372729507E+02  0.32141358950E+02  0.00000000000E+00 0.  1.
          3    1    3    3  501    0  0.26315299651E+02  0.14478134551E+02 -0.16845070806E+03  0.17110742947E+03  0.00000000000E+00 0.  1.
         -3    1    1    2    0  502 -0.32113778165E+02 -0.18376396389E+02 -0.79803525563E+03  0.79889251838E+03  0.00000000000E+00 0. -1.
<mgrwt>
<rscale>  1 0.30000000E+03</rscale>
<asrwt>0</asrwt>
<pdfrwt beam="1">  1       21 0.77865866E-02 0.30000000E+03</pdfrwt>
<pdfrwt beam="2">0</pdfrwt>
<totfact> 0.13394703E+04</totfact>
</mgrwt>
</event>
<event>
 6    1  0.8397183E-002  0.3000000E+03  0.7818608E-02  0.1093470E+00
         21   -1    0    0  501  502  0.00000000000E+00  0.00000000000E+00  0.13930277319E+01  0.13930277319E+01  0.00000000000E+00 0. -1.
         13   -1    0    0    0    0 -0.00000000000E+00 -0.00000000000E+00 -0.10000000000E+04  0.10000000000E+04  0.00000000000E+00 0.  1.
    9000005    2    1    2  501    0  0.17862968994E+02 -0.26104100324E+02 -0.76419917902E+03  0.76486073976E+03  0.33251023087E+01 0.  0.
         13    1    3    3    0    0  0.13525462368E+02 -0.21116580601E+02 -0.62998377127E+03  0.63048267238E+03  0.00000000000E+00 0.  1.
          1    1    3    3  501    0  0.43375066257E+01 -0.49875197238E+01 -0.13421540775E+03  0.13437806738E+03  0.00000000000E+00 0.  1.
         -3    1    1    2    0  502 -0.17862968994E+02  0.26104100324E+02 -0.23440779325E+03  0.23653228797E+03  0.00000000000E+00 0. -1.
<mgrwt>
<rscale>  1 0.30000000E+03</rscale>
<asrwt>0</asrwt>
<pdfrwt beam="1">  1       21 0.50655661E-02 0.30000000E+03</pdfrwt>
<pdfrwt beam="2">0</pdfrwt>
<totfact> 0.28171776E+04</totfact>
</mgrwt>
</event>
<event>
 6    1  0.8397183E-002  0.3000000E+03  0.7818608E-02  0.1093470E+00
         21   -1    0    0  501  502  0.00000000000E+00  0.00000000000E+00  0.16059666608E+01  0.16059666608E+01  0.00000000000E+00 0. -1.
         13   -1    0    0    0    0 -0.00000000000E+00 -0.00000000000E+00 -0.10000000000E+04  0.10000000000E+04  0.00000000000E+00 0.  1.
    9000005    2    1    2  501    0  0.31299125583E+02 -0.17374771868E+02 -0.27730687783E+03  0.27963075670E+03  0.35689830749E+01 0.  0.
         13    1    3    3    0    0  0.54328761405E+01 -0.35795337273E+01 -0.61137996568E+02  0.61483199569E+02  0.00000000000E+00 0.  1.
          3    1    3    3  501    0  0.25866249443E+02 -0.13795238141E+02 -0.21616888127E+03  0.21814755713E+03  0.00000000000E+00 0.  1.
         -3    1    1    2    0  502 -0.31299125583E+02  0.17374771868E+02 -0.72108715550E+03  0.72197520996E+03  0.00000000000E+00 0. -1.
<mgrwt>
<rscale>  1 0.30000000E+03</rscale>
<asrwt>0</asrwt>
<pdfrwt beam="1">  1       21 0.58398911E-02 0.30000000E+03</pdfrwt>
<pdfrwt beam="2">0</pdfrwt>
<totfact> 0.22077355E+04</totfact>
</mgrwt>
</event>
<event>
 6    1  0.8397183E-002  0.3000000E+03  0.7818608E-02  0.1093470E+00
         21   -1    0    0  501  502  0.00000000000E+00  0.00000000000E+00  0.12472942856E+01  0.12472942856E+01  0.00000000000E+00 0. -1.
         13   -1    0    0    0    0 -0.00000000000E+00 -0.00000000000E+00 -0.10000000000E+04  0.10000000000E+04  0.00000000000E+00 0.  1.
    9000005    2    1    2  501    0 -0.17849598091E+02  0.29717622414E+02 -0.58942291502E+03  0.59045218382E+03  0.35585658857E+01 0.  0.
         13    1    3    3    0    0 -0.14277020540E+02  0.26033148989E+02 -0.49429104272E+03  0.49518197975E+03  0.00000000000E+00 0.  1.
          3    1    3    3  501    0 -0.35725775511E+01  0.36844734244E+01 -0.95131872306E+02  0.95270204068E+02  0.00000000000E+00 0.  1.
         -1    1    1    2    0  502  0.17849598091E+02 -0.29717622414E+02 -0.40932979069E+03  0.41079511047E+03  0.00000000000E+00 0. -1.
<mgrwt>
<rscale>  1 0.30000000E+03</rscale>
<asrwt>0</asrwt>
<pdfrwt beam="1">  1       21 0.45356251E-02 0.30000000E+03</pdfrwt>
<pdfrwt beam="2">0</pdfrwt>
<totfact> 0.34000030E+04</totfact>
</mgrwt>
</event>
<event>
 6    1  0.8397183E-002  0.3000000E+03  0.7818608E-02  0.1093470E+00
         21   -1    0    0  501  502  0.00000000000E+00  0.00000000000E+00  0.17181016001E+01  0.17181016001E+01  0.00000000000E+00 0. -1.
         13   -1    0    0    0    0 -0.00000000000E+00 -0.00000000000E+00 -0.10000000000E+04  0.10000000000E+04  0.00000000000E+00 0.  1.
    9000005    2    1    2  501    0  0.28235142247E+01 -0.34655146732E+02 -0.22804329110E+03  0.23069510349E+03  0.27453113663E+01 0.  0.
         13    1    3    3    0    0  0.31121147452E+01 -0.28784542013E+02 -0.18480537670E+03  0.18705951560E+03  0.00000000000E+00 0.  1.
          1    1    3    3  501    0 -0.28860052051E+00 -0.58706047185E+01 -0.43237914395E+02  0.43635587899E+02  0.00000000000E+00 0.  1.
         -3    1    1    2    0  502 -0.28235142247E+01  0.34655146732E+02 -0.77023860730E+03  0.77102299811E+03  0.00000000000E+00 0. -1.
<mgrwt>
<rscale>  1 0.30000000E+03</rscale>
<asrwt>0</asrwt>
<pdfrwt beam="1">  1       21 0.62476554E-02 0.30000000E+03</pdfrwt>
<pdfrwt beam="2">0</pdfrwt>
<totfact> 0.19650702E+04</totfact>
</mgrwt>
</event>
<event>
 6    1  0.8397183E-002  0.3000000E+03  0.7818608E-02  0.1093470E+00
         21   -1    0    0  501  502  0.00000000000E+00  0.00000000000E+00  0.10096379669E+02  0.10096379669E+02  0.00000000000E+00 0. -1.
         13   -1    0    0    0    0 -0.00000000000E+00 -0.00000000000E+00 -0.10000000000E+04  0.10000000000E+04  0.00000000000E+00 0.  1.
    9000005    2    1    2  501    0  0.43758692451E+02  0.68186869320E+02 -0.79357799674E+03  0.79770988577E+03  0.32791206357E+01 0.  0.
         13    1    3    3    0    0  0.10861929144E+01  0.94099419765E+00 -0.12767378619E+02  0.12848005368E+02  0.00000000000E+00 0.  1.
          3    1    3    3  501    0  0.42672499536E+02  0.67245875122E+02 -0.78081061812E+03  0.78486188041E+03  0.00000000000E+00 0.  1.
         -3    1    1    2    0  502 -0.43758692451E+02 -0.68186869320E+02 -0.19632562359E+03  0.21238649390E+03  0.00000000000E+00 0. -1.
<mgrwt>
<rscale>  1 0.30000000E+03</rscale>
<asrwt>0</asrwt>
<pdfrwt beam="1">  1       21 0.36714185E-01 0.30000000E+03</pdfrwt>
<pdfrwt beam="2">0</pdfrwt>
<totfact> 0.72143151E+02</totfact>
</mgrwt>
</event>
<event>
 6    1  0.8397183E-002  0.3000000E+03  0.7818608E-02  0.1093470E+00
         21   -1    0    0  501  502  0.00000000000E+00  0.00000000000E+00  0.10237359873E+01  0.10237359873E+01  0.00000000000E+00 0. -1.
         13   -1    0    0    0    0 -0.00000000000E+00 -0.00000000000E+00 -0.10000000000E+04  0.10000000000E+04  0.00000000000E+00 0.  1.
    9000005    2    1    2  501    0  0.27315758998E+02  0.13429716570E+02 -0.35118984016E+03  0.35252257261E+03  0.33693307404E+01 0.  0.
         13    1    3    3    0    0  0.79931983666E-01 -0.15290318680E-02 -0.13625910946E+00  0.15798102690E+00  0.00000000000E+00 0.  1.
          3    1    3    3  501    0  0.27235827014E+02  0.13431245602E+02 -0.35105358105E+03  0.35236459158E+03  0.00000000000E+00 0.  1.
         -3    1    1    2    0  502 -0.27315758998E+02 -0.13429716570E+02 -0.64778642385E+03  0.64850116338E+03  0.00000000000E+00 0. -1.
<mgrwt>
<rscale>  1 0.30000000E+03</rscale>
<asrwt>0</asrwt>
<pdfrwt beam="1">  1       21 0.37226842E-02 0.30000000E+03</pdfrwt>
<pdfrwt beam="2">0</pdfrwt>
<totfact> 0.47446131E+04</totfact>
</mgrwt>
</event>
<event>
 6    1  0.8397183E-002  0.3000000E+03  0.7818608E-02  0.1093470E+00
         21   -1    0    0  501  502  0.00000000000E+00  0.00000000000E+00  0.11983716648E+01  0.11983716648E+01  0.00000000000E+00 0. -1.
         13   -1    0    0    0    0 -0.00000000000E+00 -0.00000000000E+00 -0.10000000000E+04  0.10000000000E+04  0.00000000000E+00 0.  1.
    9000005    2    1    2  501    0  0.30459837081E+02  0.11040984700E+02 -0.32906135704E+03  0.33067489257E+03  0.38474489284E+01 0.  0.
         13    1    3    3    0    0  0.21500693303E+02  0.74950029373E+01 -0.21269502457E+03  0.21391032784E+03  0.00000000000E+00 0.  1.
          3    1    3    3  501    0  0.89591437781E+01  0.35459817626E+01 -0.11636633247E+03  0.11676456473E+03  0.00000000000E+00 0.  1.
         -1    1    1    2    0  502 -0.30459837081E+02 -0.11040984700E+02 -0.66974027130E+03  0.67052347909E+03  0.00000000000E+00 0. -1.
<mgrwt>
<rscale>  1 0.30000000E+03</rscale>
<asrwt>0</asrwt>
<pdfrwt beam="1">  1       21 0.43577243E-02 0.30000000E+03</pdfrwt>
<pdfrwt beam="2">0</pdfrwt>
<totfact> 0.36386440E+04</totfact>
</mgrwt>
</event>
<event>
 6    1  0.8397183E-002  0.3000000E+03  0.7818608E-02  0.1093470E+00
         21   -1    0    0  501  502  0.00000000000E+00  0.00000000000E+00  0.24374058339E+01  0.24374058339E+01  0.00000000000E+00 0. -1.
         13   -1    0    0    0    0 -0.00000000000E+00 -0.00000000000E+00 -0.10000000000E+04  0.10000000000E+04  0.00000000000E+00 0.  1.
    9000005    2    1    2  501    0 -0.17416659553E+02 -0.45910758978E+02 -0.54585885158E+03  0.54807256467E+03  0.32422947828E+01 0.  0.
         13    1    3    3    0    0 -0.25997785086E+01 -0.77362700241E+01 -0.78448661257E+02  0.78872055730E+02  0.00000000000E+00 0.  1.
          1    1    3    3  501    0 -0.14816881045E+02 -0.38174488954E+02 -0.46741019033E+03  0.46920050894E+03  0.00000000000E+00 0.  1.
         -1    1    1    2    0  502  0.17416659553E+02  0.45910758978E+02 -0.45170374258E+03  0.45436484116E+03  0.00000000000E+00 0. -1.
<mgrwt>
<rscale>  1 0.30000000E+03</rscale>
<asrwt>0</asrwt>
<pdfrwt beam="1">  1       21 0.88633126E-02 0.30000000E+03</pdfrwt>
<pdfrwt beam="2">0</pdfrwt>
<totfact> 0.10663127E+04</totfact>
</mgrwt>
</event>
<event>
 6    1  0.9433401E-002  0.3000000E+03  0.7818608E-02  0.1093470E+00
         21   -1    0    0  501  502  0.00000000000E+00  0.00000000000E+00  0.12247506621E+01  0.12247506621E+01  0.00000000000E+00 0. -1.
         13   -1    0    0    0    0 -0.00000000000E+00 -0.00000000000E+00 -0.10000000000E+04  0.10000000000E+04  0.00000000000E+00 0.  1.
    9000005    2    1    2  501    0 -0.33320858593E+02 -0.63296353620E+01 -0.42753693876E+03  0.42898043975E+03  0.92757631065E+01 0.  0.
         13    1    3    3    0    0 -0.71888469282E+01 -0.23750191558E+01 -0.14905465476E+03  0.14924681016E+03  0.00000000000E+00 0.  1.
          3    1    3    3  501    0 -0.26132011665E+02 -0.39546162062E+01 -0.27848228400E+03  0.27973362959E+03  0.00000000000E+00 0.  1.
         -3    1    1    2    0  502  0.33320858593E+02  0.63296353620E+01 -0.57123831058E+03  0.57224431091E+03  0.00000000000E+00 0. -1.
<mgrwt>
<rscale>  1 0.30000000E+03</rscale>
<asrwt>0</asrwt>
<pdfrwt beam="1">  1       21 0.44536482E-02 0.30000000E+03</pdfrwt>
<pdfrwt beam="2">0</pdfrwt>
<totfact> 0.35068696E+04</totfact>
</mgrwt>
</event>
<event>
 6    1  0.9175908E-002  0.3000000E+03  0.7818608E-02  0.1093470E+00
         21   -1    0    0  501  502  0.00000000000E+00  0.00000000000E+00  0.14012465228E+01  0.14012465228E+01  0.00000000000E+00 0. -1.
         13   -1    0    0    0    0 -0.00000000000E+00 -0.00000000000E+00 -0.10000000000E+04  0.10000000000E+04  0.00000000000E+00 0.  1.
    9000005    2    1    2  501    0  0.28544588062E+02  0.19620452476E+02 -0.68194065486E+03  0.68285437857E+03  0.68767665195E+01 0.  0.
         13    1    3    3    0    0  0.11797072755E+02  0.70833721057E+01 -0.21005715372E+03  0.21050737021E+03  0.00000000000E+00 0.  1.
          3    1    3    3  501    0  0.16747515306E+02  0.12537080370E+02 -0.47188350114E+03  0.47234700835E+03  0.00000000000E+00 0.  1.
         -3    1    1    2    0  502 -0.28544588062E+02 -0.19620452476E+02 -0.31665809862E+03  0.31854686796E+03  0.00000000000E+00 0. -1.
<mgrwt>
<rscale>  1 0.30000000E+03</rscale>
<asrwt>0</asrwt>
<pdfrwt beam="1">  1       21 0.50954526E-02 0.30000000E+03</pdfrwt>
<pdfrwt beam="2">0</pdfrwt>
<totfact> 0.27890446E+04</totfact>
</mgrwt>
</event>
<event>
 6    1  0.8397183E-002  0.3000000E+03  0.7818608E-02  0.1093470E+00
         21   -1    0    0  501  502  0.00000000000E+00  0.00000000000E+00  0.16076722306E+01  0.16076722306E+01  0.00000000000E+00 0. -1.
         13   -1    0    0    0    0 -0.00000000000E+00 -0.00000000000E+00 -0.10000000000E+04  0.10000000000E+04  0.00000000000E+00 0.  1.
    9000005    2    1    2  501    0 -0.35095611032E+01  0.37971980081E+02 -0.65265718010E+03  0.65377584416E+03  0.26965478767E+01 0.  0.
         13    1    3    3    0    0 -0.93869129565E+00  0.22099241542E+02 -0.39068790742E+03  0.39131355538E+03  0.00000000000E+00 0.  1.
          1    1    3    3  501    0 -0.25708698076E+01  0.15872738539E+02 -0.26196927268E+03  0.26246228877E+03  0.00000000000E+00 0.  1.
         -1    1    1    2    0  502  0.35095611032E+01 -0.37971980081E+02 -0.34573514767E+03  0.34783182808E+03  0.00000000000E+00 0. -1.
<mgrwt>
<rscale>  1 0.30000000E+03</rscale>
<asrwt>0</asrwt>
<pdfrwt beam="1">  1       21 0.58460932E-02 0.30000000E+03</pdfrwt>
<pdfrwt beam="2">0</pdfrwt>
<totfact> 0.22037016E+04</totfact>
</mgrwt>
</event>
<event>
 6    1  0.8397183E-002  0.3000000E+03  0.7818608E-02  0.1093470E+00
         21   -1    0    0  501  502  0.00000000000E+00  0.00000000000E+00  0.12311750717E+01  0.12311750717E+01  0.00000000000E+00 0. -1.
         13   -1    0    0    0    0 -0.00000000000E+00 -0.00000000000E+00 -0.10000000000E+04  0.10000000000E+04  0.00000000000E+00 0.  1.
    9000005    2    1    2  501    0  0.16032562868E+02 -0.28676468761E+02 -0.67283639013E+03  0.67364708665E+03  0.34937856062E+01 0.  0.
         13    1    3    3    0    0  0.10985891614E+02 -0.20958487311E+02 -0.45352026495E+03  0.45413718051E+03  0.00000000000E+00 0.  1.
          3    1    3    3  501    0  0.50466712534E+01 -0.77179814499E+01 -0.21931612518E+03  0.21950990614E+03  0.00000000000E+00 0.  1.
         -3    1    1    2    0  502 -0.16032562868E+02  0.28676468761E+02 -0.32593243480E+03  0.32758408842E+03  0.00000000000E+00 0. -1.
<mgrwt>
<rscale>  1 0.30000000E+03</rscale>
<asrwt>0</asrwt>
<pdfrwt beam="1">  1       21 0.44770097E-02 0.30000000E+03</pdfrwt>
<pdfrwt beam="2">0</pdfrwt>
<totfact> 0.34758930E+04</totfact>
</mgrwt>
</event>
<event>
 6    1  0.8397183E-002  0.3000000E+03  0.7818608E-02  0.1093470E+00
         21   -1    0    0  501  502  0.00000000000E+00  0.00000000000E+00  0.83924401574E+01  0.83924401574E+01  0.00000000000E+00 0. -1.
         13   -1    0    0    0    0 -0.00000000000E+00 -0.00000000000E+00 -0.10000000000E+04  0.10000000000E+04  0.00000000000E+00 0.  1.
    9000005    2    1    2  501    0 -0.56925276995E+02 -0.34830696732E+02 -0.15076119915E+03  0.16490191449E+03  0.31682232268E+01 0.  0.
         13    1    3    3    0    0 -0.38209024722E+02 -0.23865858332E+02 -0.98191202672E+02  0.10803249995E+03  0.00000000000E+00 0.  1.
          1    1    3    3  501    0 -0.18716252273E+02 -0.10964838401E+02 -0.52569996476E+02  0.56869414538E+02  0.00000000000E+00 0.  1.
         -3    1    1    2    0  502  0.56925276995E+02  0.34830696732E+02 -0.84084636069E+03  0.84349052567E+03  0.00000000000E+00 0. -1.
<mgrwt>
<rscale>  1 0.30000000E+03</rscale>
<asrwt>0</asrwt>
<pdfrwt beam="1">  1       21 0.30518029E-01 0.30000000E+03</pdfrwt>
<pdfrwt beam="2">0</pdfrwt>
<totfact> 0.10506271E+03</totfact>
</mgrwt>
</event>
<event>
 6    1  0.8397183E-002  0.3000000E+03  0.7818608E-02  0.1093470E+00
         21   -1    0    0  501  502  0.00000000000E+00  0.00000000000E+00  0.13995945429E+01  0.13995945429E+01  0.00000000000E+00 0. -1.
         13   -1    0    0    0    0 -0.00000000000E+00 -0.00000000000E+00 -0.10000000000E+04  0.10000000000E+04  0.00000000000E+00 0.  1.
    9000005    2    1    2  501    0  0.97852980652E+01 -0.34914719412E+02 -0.38607355304E+03  0.38780043009E+03  0.46470989157E+01 0.  0.
         13    1    3    3    0    0  0.67569783004E+01 -0.16457027872E+02 -0.19949759379E+03  0.20028924197E+03  0.00000000000E+00 0.  1.
          3    1    3    3  501    0  0.30283197649E+01 -0.18457691540E+02 -0.18657595925E+03  0.18751118812E+03  0.00000000000E+00 0.  1.
         -1    1    1    2    0  502 -0.97852980652E+01  0.34914719412E+02 -0.61252685242E+03  0.61359916446E+03  0.00000000000E+00 0. -1.
<mgrwt>
<rscale>  1 0.30000000E+03</rscale>
<asrwt>0</asrwt>
<pdfrwt beam="1">  1       21 0.50894454E-02 0.30000000E+03</pdfrwt>
<pdfrwt beam="2">0</pdfrwt>
<totfact> 0.27946642E+04</totfact>
</mgrwt>
</event>
<event>
 6    1  0.8397183E-002  0.3000000E+03  0.7818608E-02  0.1093470E+00
         21   -1    0    0  501  502  0.00000000000E+00  0.00000000000E+00  0.95705418665E+00  0.95705418665E+00  0.00000000000E+00 0. -1.
         13   -1    0    0    0    0 -0.00000000000E+00 -0.00000000000E+00 -0.10000000000E+04  0.10000000000E+04  0.00000000000E+00 0.  1.
    9000005    2    1    2  501    0 -0.99044849678E+01 -0.28375504694E+02 -0.61369453960E+03  0.61443841005E+03  0.32099421675E+01 0.  0.
         13    1    3    3    0    0 -0.65334983321E+01 -0.22080951562E+02 -0.45167996008E+03  0.45226656007E+03  0.00000000000E+00 0.  1.
          1    1    3    3  501    0 -0.33709866356E+01 -0.62945531317E+01 -0.16201457952E+03  0.16217184998E+03  0.00000000000E+00 0.  1.
         -1    1    1    2    0  502  0.99044849678E+01  0.28375504694E+02 -0.38534840622E+03  0.38651864414E+03  0.00000000000E+00 0. -1.
<mgrwt>
<rscale>  1 0.30000000E+03</rscale>
<asrwt>0</asrwt>
<pdfrwt beam="1">  1       21 0.34802044E-02 0.30000000E+03</pdfrwt>
<pdfrwt beam="2">0</pdfrwt>
<totfact> 0.53118812E+04</totfact>
</mgrwt>
</event>
<event>
 6    1  0.8397183E-002  0.3000000E+03  0.7818608E-02  0.1093470E+00
         21   -1    0    0  501  502  0.00000000000E+00  0.00000000000E+00  0.11005530339E+01  0.11005530339E+01  0.00000000000E+00 0. -1.
         13   -1    0    0    0    0 -0.00000000000E+00 -0.00000000000E+00 -0.10000000000E+04  0.10000000000E+04  0.00000000000E+00 0.  1.
    9000005    2    1    2  501    0  0.85040778823E+01  0.31942964314E+02 -0.52807652844E+03  0.52911867528E+03  0.30133604162E+01 0.  0.
         13    1    3    3    0    0  0.25966863871E+01  0.53076057108E+01 -0.92223562654E+02  0.92412655882E+02  0.00000000000E+00 0.  1.
          3    1    3    3  501    0  0.59073914952E+01  0.26635358603E+02 -0.43585296578E+03  0.43670601940E+03  0.00000000000E+00 0.  1.
         -3    1    1    2    0  502 -0.85040778823E+01 -0.31942964314E+02 -0.47082291853E+03  0.47198187775E+03  0.00000000000E+00 0. -1.
<mgrwt>
<rscale>  1 0.30000000E+03</rscale>
<asrwt>0</asrwt>
<pdfrwt beam="1">  1       21 0.40020195E-02 0.30000000E+03</pdfrwt>
<pdfrwt beam="2">0</pdfrwt>
<totfact> 0.42011598E+04</totfact>
</mgrwt>
</event>
<event>
 6    1  0.8397183E-002  0.3000000E+03  0.7818608E-02  0.1093470E+00
         21   -1    0    0  501  502  0.00000000000E+00  0.00000000000E+00  0.12114833145E+01  0.12114833145E+01  0.00000000000E+00 0. -1.
         13   -1    0    0    0    0 -0.00000000000E+00 -0.00000000000E+00 -0.10000000000E+04  0.10000000000E+04  0.00000000000E+00 0.  1.
    9000005    2    1    2  501    0  0.14276502205E+02  0.28277364353E+02 -0.29597414699E+03  0.29768361173E+03  0.33777439910E+01 0.  0.
         13    1    3    3    0    0  0.88454176975E+01  0.16432787384E+02 -0.15917211162E+03  0.16026240680E+03  0.00000000000E+00 0.  1.
          1    1    3    3  501    0  0.54310845071E+01  0.11844576969E+02 -0.13680203537E+03  0.13742120493E+03  0.00000000000E+00 0.  1.
         -1    1    1    2    0  502 -0.14276502205E+02 -0.28277364353E+02 -0.70281436969E+03  0.70352787158E+03  0.00000000000E+00 0. -1.
<mgrwt>
<rscale>  1 0.30000000E+03</rscale>
<asrwt>0</asrwt>
<pdfrwt beam="1">  1       21 0.44054032E-02 0.30000000E+03</pdfrwt>
<pdfrwt beam="2">0</pdfrwt>
<totfact> 0.35722061E+04</totfact>
</mgrwt>
</event>
<event>
 6    1  0.8397183E-002  0.3000000E+03  0.7818608E-02  0.1093470E+00
         21   -1    0    0  501  502  0.00000000000E+00  0.00000000000E+00  0.10264497925E+01  0.10264497925E+01  0.00000000000E+00 0. -1.
         13   -1    0    0    0    0 -0.00000000000E+00 -0.00000000000E+00 -0.10000000000E+04  0.10000000000E+04  0.00000000000E+00 0.  1.
    9000005    2    1    2  501    0 -0.31840454700E+02 -0.89419915830E+00 -0.48403549182E+03  0.48510415126E+03  0.45897799712E+01 0.  0.
         13    1    3    3    0    0 -0.91421100343E+01 -0.20629633311E+01 -0.12612415794E+03  0.12647188308E+03  0.00000000000E+00 0.  1.
          1    1    3    3  501    0 -0.22698344666E+02  0.11687641728E+01 -0.35791133387E+03  0.35863226817E+03  0.00000000000E+00 0.  1.
         -3    1    1    2    0  502  0.31840454700E+02  0.89419915830E+00 -0.51493805839E+03  0.51592229854E+03  0.00000000000E+00 0. -1.
<mgrwt>
<rscale>  1 0.30000000E+03</rscale>
<asrwt>0</asrwt>
<pdfrwt beam="1">  1       21 0.37325526E-02 0.30000000E+03</pdfrwt>
<pdfrwt beam="2">0</pdfrwt>
<totfact> 0.47235715E+04</totfact>
</mgrwt>
</event>
<event>
 6    1  0.8397183E-002  0.3000000E+03  0.7818608E-02  0.1093470E+00
         21   -1    0    0  501  502  0.00000000000E+00  0.00000000000E+00  0.23458422769E+01  0.23458422769E+01  0.00000000000E+00 0. -1.
         13   -1    0    0    0    0 -0.00000000000E+00 -0.00000000000E+00 -0.10000000000E+04  0.10000000000E+04  0.00000000000E+00 0.  1.
    9000005    2    1    2  501    0 -0.14462461254E+02  0.42606177387E+02 -0.31536359654E+03  0.31857332234E+03  0.32116271625E+01 0.  0.
         13    1    3    3    0    0 -0.10157374448E+02  0.27511050186E+02 -0.21455498880E+03  0.21654993271E+03  0.00000000000E+00 0.  1.
          3    1    3    3  501    0 -0.43050868054E+01  0.15095127201E+02 -0.10080860774E+03  0.10202338963E+03  0.00000000000E+00 0.  1.
         -3    1    1    2    0  502  0.14462461254E+02 -0.42606177387E+02 -0.68229056118E+03  0.68377251993E+03  0.00000000000E+00 0. -1.
<mgrwt>
<rscale>  1 0.30000000E+03</rscale>
<asrwt>0</asrwt>
<pdfrwt beam="1">  1       21 0.85303535E-02 0.30000000E+03</pdfrwt>
<pdfrwt beam="2">0</pdfrwt>
<totfact> 0.11409310E+04</totfact>
</mgrwt>
</event>
<event>
 6    1  0.8397183E-002  0.3000000E+03  0.7818608E-02  0.1093470E+00
         21   -1    0    0  501  502  0.00000000000E+00  0.00000000000E+00  0.13103173059E+01  0.13103173059E+01  0.00000000000E+00 0. -1.
         13   -1    0    0    0    0 -0.00000000000E+00 -0.00000000000E+00 -0.10000000000E+04  0.10000000000E+04  0.00000000000E+00 0.  1.
    9000005    2    1    2  501    0 -0.27312357097E+02 -0.20241610952E+02 -0.66918916732E+03  0.67006074780E+03  0.34024143714E+01 0.  0.
         13    1    3    3    0    0 -0.10757083945E+02 -0.61742147633E+01 -0.22833482194E+03  0.22867143830E+03  0.00000000000E+00 0.  1.
          3    1    3    3  501    0 -0.16555273152E+02 -0.14067396189E+02 -0.44085434538E+03  0.44138930951E+03  0.00000000000E+00 0.  1.
         -1    1    1    2    0  502  0.27312357097E+02  0.20241610952E+02 -0.32950051538E+03  0.33124956950E+03  0.00000000000E+00 0. -1.
<mgrwt>
<rscale>  1 0.30000000E+03</rscale>
<asrwt>0</asrwt>
<pdfrwt beam="1">  1       21 0.47648003E-02 0.30000000E+03</pdfrwt>
<pdfrwt beam="2">0</pdfrwt>
<totfact> 0.31267649E+04</totfact>
</mgrwt>
</event>
<event>
 6    1  0.8397183E-002  0.3000000E+03  0.7818608E-02  0.1093470E+00
         21   -1    0    0  501  502  0.00000000000E+00  0.00000000000E+00  0.17826819214E+01  0.17826819214E+01  0.00000000000E+00 0. -1.
         13   -1    0    0    0    0 -0.00000000000E+00 -0.00000000000E+00 -0.10000000000E+04  0.10000000000E+04  0.00000000000E+00 0.  1.
    9000005    2    1    2  501    0 -0.15874523525E+02  0.28766196646E+02 -0.18668620182E+03  0.18958674052E+03  0.34495892306E+01 0.  0.
         13    1    3    3    0    0 -0.11899502438E+02  0.20302465160E+02 -0.14145482222E+03  0.14339893647E+03  0.00000000000E+00 0.  1.
          1    1    3    3  501    0 -0.39750210870E+01  0.84637314857E+01 -0.45231379596E+02  0.46187804056E+02  0.00000000000E+00 0.  1.
         -1    1    1    2    0  502  0.15874523525E+02 -0.28766196646E+02 -0.81153111626E+03  0.81219594140E+03  0.00000000000E+00 0. -1.
<mgrwt>
<rscale>  1 0.30000000E+03</rscale>
<asrwt>0</asrwt>
<pdfrwt beam="1">  1       21 0.64824934E-02 0.30000000E+03</pdfrwt>
<pdfrwt beam="2">0</pdfrwt>
<totfact> 0.18435924E+04</totfact>
</mgrwt>
</event>
<event>
 6    1  0.8397183E-002  0.3000000E+03  0.7818608E-02  0.1093470E+00
         21   -1    0    0  501  502  0.00000000000E+00  0.00000000000E+00  0.28391626724E+01  0.28391626724E+01  0.00000000000E+00 0. -1.
         13   -1    0    0    0    0 -0.00000000000E+00 -0.00000000000E+00 -0.10000000000E+04  0.10000000000E+04  0.00000000000E+00 0.  1.
    9000005    2    1    2  501    0 -0.29353474280E+02 -0.44313163462E+02 -0.47000481896E+03  0.47301018026E+03  0.29694899828E+01 0.  0.
         13    1    3    3    0    0 -0.23272101284E+02 -0.33102925277E+02 -0.35203463953E+03  0.35435262351E+03  0.00000000000E+00 0.  1.
          1    1    3    3  501    0 -0.60813729962E+01 -0.11210238185E+02 -0.11797017943E+03  0.11865755675E+03  0.00000000000E+00 0.  1.
         -1    1    1    2    0  502  0.29353474280E+02  0.44313163462E+02 -0.52715601837E+03  0.52982898242E+03  0.00000000000E+00 0. -1.
<mgrwt>
<rscale>  1 0.30000000E+03</rscale>
<asrwt>0</asrwt>
<pdfrwt beam="1">  1       21 0.10324250E-01 0.30000000E+03</pdfrwt>
<pdfrwt beam="2">0</pdfrwt>
<totfact> 0.81259191E+03</totfact>
</mgrwt>
</event>
<event>
 6    1  0.8397183E-002  0.3000000E+03  0.7818608E-02  0.1093470E+00
         21   -1    0    0  501  502  0.00000000000E+00  0.00000000000E+00  0.16867080694E+01  0.16867080694E+01  0.00000000000E+00 0. -1.
         13   -1    0    0    0    0 -0.00000000000E+00 -0.00000000000E+00 -0.10000000000E+04  0.10000000000E+04  0.00000000000E+00 0.  1.
    9000005    2    1    2  501    0 -0.20326931838E+01  0.32473701395E+02 -0.19576715914E+03  0.19848127459E+03  0.33708513431E+01 0.  0.
         13    1    3    3    0    0 -0.12094922802E+01  0.16935362591E+02 -0.11228220138E+03  0.11355862858E+03  0.00000000000E+00 0.  1.
          1    1    3    3  501    0 -0.82320090365E+00  0.15538338804E+02 -0.83484957762E+02  0.84922646009E+02  0.00000000000E+00 0.  1.
         -1    1    1    2    0  502  0.20326931838E+01 -0.32473701395E+02 -0.80254613279E+03  0.80320543348E+03  0.00000000000E+00 0. -1.
<mgrwt>
<rscale>  1 0.30000000E+03</rscale>
<asrwt>0</asrwt>
<pdfrwt beam="1">  1       21 0.61334968E-02 0.30000000E+03</pdfrwt>
<pdfrwt beam="2">0</pdfrwt>
<totfact> 0.20286596E+04</totfact>
</mgrwt>
</event>
<event>
 6    1  0.8397183E-002  0.3000000E+03  0.7818608E-02  0.1093470E+00
         21   -1    0    0  501  502  0.00000000000E+00  0.00000000000E+00  0.94392775097E+00  0.94392775097E+00  0.00000000000E+00 0. -1.
         13   -1    0    0    0    0 -0.00000000000E+00 -0.00000000000E+00 -0.10000000000E+04  0.10000000000E+04  0.00000000000E+00 0.  1.
    9000005    2    1    2  501    0 -0.56892764136E+01  0.30047095664E+02 -0.50234728344E+03  0.50329463688E+03  0.41836000057E+01 0.  0.
         13    1    3    3    0    0 -0.62109293944E+01  0.24253776555E+02 -0.41314912160E+03  0.41390701613E+03  0.00000000000E+00 0.  1.
          3    1    3    3  501    0  0.52165298078E+00  0.57933191083E+01 -0.89198161835E+02  0.89387620747E+02  0.00000000000E+00 0.  1.
         -3    1    1    2    0  502  0.56892764136E+01 -0.30047095664E+02 -0.49670878881E+03  0.49764929087E+03  0.00000000000E+00 0. -1.
<mgrwt>
<rscale>  1 0.30000000E+03</rscale>
<asrwt>0</asrwt>
<pdfrwt beam="1">  1       21 0.34324718E-02 0.30000000E+03</pdfrwt>
<pdfrwt beam="2">0</pdfrwt>
<totfact> 0.54360375E+04</totfact>
</mgrwt>
</event>
<event>
 6    1  0.8397183E-002  0.3000000E+03  0.7818608E-02  0.1093470E+00
         21   -1    0    0  501  502  0.00000000000E+00  0.00000000000E+00  0.12161188932E+01  0.12161188932E+01  0.00000000000E+00 0. -1.
         13   -1    0    0    0    0 -0.00000000000E+00 -0.00000000000E+00 -0.10000000000E+04  0.10000000000E+04  0.00000000000E+00 0.  1.
    9000005    2    1    2  501    0 -0.32733110703E+02  0.10115168174E+02 -0.41324605443E+03  0.41467684516E+03  0.32880458224E+01 0.  0.
         13    1    3    3    0    0 -0.22084243757E+01 -0.91015356974E-01 -0.30403581638E+02  0.30483818633E+02  0.00000000000E+00 0.  1.
          3    1    3    3  501    0 -0.30524686327E+02  0.10206183531E+02 -0.38284247279E+03  0.38419302652E+03  0.00000000000E+00 0.  1.
         -3    1    1    2    0  502  0.32733110703E+02 -0.10115168174E+02 -0.58553782668E+03  0.58653927374E+03  0.00000000000E+00 0. -1.
<mgrwt>
<rscale>  1 0.30000000E+03</rscale>
<asrwt>0</asrwt>
<pdfrwt beam="1">  1       21 0.44222598E-02 0.30000000E+03</pdfrwt>
<pdfrwt beam="2">0</pdfrwt>
<totfact> 0.35491655E+04</totfact>
</mgrwt>
</event>
<event>
 6    1  0.8397183E-002  0.3000000E+03  0.7818608E-02  0.1093470E+00
         21   -1    0    0  501  502  0.00000000000E+00  0.00000000000E+00  0.15779829427E+01  0.15779829427E+01  0.00000000000E+00 0. -1.
         13   -1    0    0    0    0 -0.00000000000E+00 -0.00000000000E+00 -0.10000000000E+04  0.10000000000E+04  0.00000000000E+00 0.  1.
    9000005    2    1    2  501    0  0.11770117842E+02  0.37674015107E+02 -0.54664567001E+03  0.54808075601E+03  0.36275990132E+01 0.  0.
         13    1    3    3    0    0  0.15079601777E+00  0.26047888176E+01 -0.28195656704E+02  0.28316121225E+02  0.00000000000E+00 0.  1.
          1    1    3    3  501    0  0.11619321825E+02  0.35069226290E+02 -0.51845001331E+03  0.51976463478E+03  0.00000000000E+00 0.  1.
         -1    1    1    2    0  502 -0.11770117842E+02 -0.37674015107E+02 -0.45177634704E+03  0.45349722693E+03  0.00000000000E+00 0. -1.
<mgrwt>
<rscale>  1 0.30000000E+03</rscale>
<asrwt>0</asrwt>
<pdfrwt beam="1">  1       21 0.57381319E-02 0.30000000E+03</pdfrwt>
<pdfrwt beam="2">0</pdfrwt>
<totfact> 0.22755788E+04</totfact>
</mgrwt>
</event>
<event>
 6    1  0.8397183E-002  0.3000000E+03  0.7818608E-02  0.1093470E+00
         21   -1    0    0  501  502  0.00000000000E+00  0.00000000000E+00  0.24837073041E+01  0.24837073041E+01  0.00000000000E+00 0. -1.
         13   -1    0    0    0    0 -0.00000000000E+00 -0.00000000000E+00 -0.10000000000E+04  0.10000000000E+04  0.00000000000E+00 0.  1.
    9000005    2    1    2  501    0 -0.79303027426E+01 -0.48832710927E+02 -0.44294373737E+03  0.44570884933E+03  0.31145677616E+01 0.  0.
         13    1    3    3    0    0 -0.68549153879E+01 -0.45340174939E+02 -0.40400894933E+03  0.40660294203E+03  0.00000000000E+00 0.  1.
          3    1    3    3  501    0 -0.10753873547E+01 -0.34925359883E+01 -0.38934788043E+02  0.39105907297E+02  0.00000000000E+00 0.  1.
         -3    1    1    2    0  502  0.79303027426E+01  0.48832710927E+02 -0.55457255532E+03  0.55677485798E+03  0.00000000000E+00 0. -1.
<mgrwt>
<rscale>  1 0.30000000E+03</rscale>
<asrwt>0</asrwt>
<pdfrwt beam="1">  1       21 0.90316820E-02 0.30000000E+03</pdfrwt>
<pdfrwt beam="2">0</pdfrwt>
<totfact> 0.10313669E+04</totfact>
</mgrwt>
</event>
<event>
 6    1  0.8397183E-002  0.3000000E+03  0.7818608E-02  0.1093470E+00
         21   -1    0    0  501  502  0.00000000000E+00  0.00000000000E+00  0.17778064076E+01  0.17778064076E+01  0.00000000000E+00 0. -1.
         13   -1    0    0    0    0 -0.00000000000E+00 -0.00000000000E+00 -0.10000000000E+04  0.10000000000E+04  0.00000000000E+00 0.  1.
    9000005    2    1    2  501    0 -0.41507097288E+02  0.49338964943E+01 -0.55902203252E+03  0.56059307872E+03  0.34328712126E+01 0.  0.
         13    1    3    3    0    0 -0.10151680519E+02  0.85581154823E+00 -0.11796852333E+03  0.11840760756E+03  0.00000000000E+00 0.  1.
          1    1    3    3  501    0 -0.31355416769E+02  0.40780849461E+01 -0.44105350919E+03  0.44218547116E+03  0.00000000000E+00 0.  1.
         -1    1    1    2    0  502  0.41507097288E+02 -0.49338964943E+01 -0.43920016107E+03  0.44118472769E+03  0.00000000000E+00 0. -1.
<mgrwt>
<rscale>  1 0.30000000E+03</rscale>
<asrwt>0</asrwt>
<pdfrwt beam="1">  1       21 0.64647642E-02 0.30000000E+03</pdfrwt>
<pdfrwt beam="2">0</pdfrwt>
<totfact> 0.18523529E+04</totfact>
</mgrwt>
</event>
<event>
 6    1  0.8397183E-002  0.3000000E+03  0.7818608E-02  0.1093470E+00
         21   -1    0    0  501  502  0.00000000000E+00  0.00000000000E+00  0.26549297271E+01  0.26549297271E+01  0.00000000000E+00 0. -1.
         13   -1    0    0    0    0 -0.00000000000E+00 -0.00000000000E+00 -0.10000000000E+04  0.10000000000E+04  0.00000000000E+00 0.  1.
    9000005    2    1    2  501    0  0.23194078487E+02  0.28154717675E+02 -0.15394832318E+03  0.15846968559E+03  0.90499523924E+01 0.  0.
         13    1    3    3    0    0  0.10104077942E+01  0.40042525294E+01 -0.28877585110E+02  0.29171388106E+02  0.00000000000E+00 0.  1.
          3    1    3    3  501    0  0.22183670692E+02  0.24150465146E+02 -0.12507073807E+03  0.12929829749E+03  0.00000000000E+00 0.  1.
         -1    1    1    2    0  502 -0.23194078487E+02 -0.28154717675E+02 -0.84339674709E+03  0.84418524413E+03  0.00000000000E+00 0. -1.
<mgrwt>
<rscale>  1 0.30000000E+03</rscale>
<asrwt>0</asrwt>
<pdfrwt beam="1">  1       21 0.96543103E-02 0.30000000E+03</pdfrwt>
<pdfrwt beam="2">0</pdfrwt>
<totfact> 0.91607970E+03</totfact>
</mgrwt>
</event>
<event>
 6    1  0.8397183E-002  0.3000000E+03  0.7818608E-02  0.1093470E+00
         21   -1    0    0  501  502  0.00000000000E+00  0.00000000000E+00  0.25573652869E+01  0.25573652869E+01  0.00000000000E+00 0. -1.
         13   -1    0    0    0    0 -0.00000000000E+00 -0.00000000000E+00 -0.10000000000E+04  0.10000000000E+04  0.00000000000E+00 0.  1.
    9000005    2    1    2  501    0 -0.24978023826E+02 -0.29618151952E+02 -0.17756459350E+03  0.18176437125E+03  0.28222670232E+01 0.  0.
         13    1    3    3    0    0 -0.10001145714E+02 -0.13594796256E+02 -0.73309440279E+02  0.75227092426E+02  0.00000000000E+00 0.  1.
          3    1    3    3  501    0 -0.14976878112E+02 -0.16023355697E+02 -0.10425515322E+03  0.10653727882E+03  0.00000000000E+00 0.  1.
         -3    1    1    2    0  502  0.24978023826E+02  0.29618151952E+02 -0.81987804121E+03  0.82079299404E+03  0.00000000000E+00 0. -1.
<mgrwt>
<rscale>  1 0.30000000E+03</rscale>
<asrwt>0</asrwt>
<pdfrwt beam="1">  1       21 0.92995297E-02 0.30000000E+03</pdfrwt>
<pdfrwt beam="2">0</pdfrwt>
<totfact> 0.97923710E+03</totfact>
</mgrwt>
</event>
<event>
 6    1  0.8397183E-002  0.3000000E+03  0.7818608E-02  0.1093470E+00
         21   -1    0    0  501  502  0.00000000000E+00  0.00000000000E+00  0.76176928787E+01  0.76176928787E+01  0.00000000000E+00 0. -1.
         13   -1    0    0    0    0 -0.00000000000E+00 -0.00000000000E+00 -0.10000000000E+04  0.10000000000E+04  0.00000000000E+00 0.  1.
    9000005    2    1    2  501    0  0.39508535095E+02  0.77557997291E+02 -0.46110780842E+03  0.46926022775E+03  0.29296882761E+01 0.  0.
         13    1    3    3    0    0  0.10856613098E+01  0.32603108190E+01 -0.16906043708E+02  0.17251741969E+02  0.00000000000E+00 0.  1.
          1    1    3    3  501    0  0.38422873785E+02  0.74297686472E+02 -0.44420176471E+03  0.45200848578E+03  0.00000000000E+00 0.  1.
         -3    1    1    2    0  502 -0.39508535095E+02 -0.77557997291E+02 -0.53127449870E+03  0.53835746513E+03  0.00000000000E+00 0. -1.
<mgrwt>
<rscale>  1 0.30000000E+03</rscale>
<asrwt>0</asrwt>
<pdfrwt beam="1">  1       21 0.27700760E-01 0.30000000E+03</pdfrwt>
<pdfrwt beam="2">0</pdfrwt>
<totfact> 0.12742429E+03</totfact>
</mgrwt>
</event>
<event>
 6    1  0.8397183E-002  0.3000000E+03  0.7818608E-02  0.1093470E+00
         21   -1    0    0  501  502  0.00000000000E+00  0.00000000000E+00  0.14848441508E+01  0.14848441508E+01  0.00000000000E+00 0. -1.
         13   -1    0    0    0    0 -0.00000000000E+00 -0.00000000000E+00 -0.10000000000E+04  0.10000000000E+04  0.00000000000E+00 0.  1.
    9000005    2    1    2  501    0 -0.23012463250E+02 -0.26760022294E+02 -0.30157117913E+03  0.30364777223E+03  0.33348526135E+01 0.  0.
         13    1    3    3    0    0 -0.81193178955E+01 -0.11581198659E+02 -0.12780625293E+03  0.12858649141E+03  0.00000000000E+00 0.  1.
          3    1    3    3  501    0 -0.14893145355E+02 -0.15178823636E+02 -0.17376492620E+03  0.17506128082E+03  0.00000000000E+00 0.  1.
         -3    1    1    2    0  502  0.23012463250E+02  0.26760022294E+02 -0.69694397672E+03  0.69783707192E+03  0.00000000000E+00 0. -1.
<mgrwt>
<rscale>  1 0.30000000E+03</rscale>
<asrwt>0</asrwt>
<pdfrwt beam="1">  1       21 0.53994447E-02 0.30000000E+03</pdfrwt>
<pdfrwt beam="2">0</pdfrwt>
<totfact> 0.25260339E+04</totfact>
</mgrwt>
</event>
<event>
 6    1  0.8397183E-002  0.3000000E+03  0.7818608E-02  0.1093470E+00
         21   -1    0    0  501  502  0.00000000000E+00  0.00000000000E+00  0.37173647012E+01  0.37173647012E+01  0.00000000000E+00 0. -1.
         13   -1    0    0    0    0 -0.00000000000E+00 -0.00000000000E+00 -0.10000000000E+04  0.10000000000E+04  0.00000000000E+00 0.  1.
    9000005    2    1    2  501    0  0.35199326657E+02 -0.47085577431E+02 -0.62950084337E+03  0.63225414029E+03  0.42357893835E+01 0.  0.
         13    1    3    3    0    0  0.45926607705E+01 -0.63009464894E+01 -0.10010331804E+03  0.10040651743E+03  0.00000000000E+00 0.  1.
          1    1    3    3  501    0  0.30606665887E+02 -0.40784630942E+02 -0.52939752533E+03  0.53184762286E+03  0.00000000000E+00 0.  1.
         -3    1    1    2    0  502 -0.35199326657E+02  0.47085577431E+02 -0.36678179193E+03  0.37146322441E+03  0.00000000000E+00 0. -1.
<mgrwt>
<rscale>  1 0.30000000E+03</rscale>
<asrwt>0</asrwt>
<pdfrwt beam="1">  1       21 0.13517718E-01 0.30000000E+03</pdfrwt>
<pdfrwt beam="2">0</pdfrwt>
<totfact> 0.49873060E+03</totfact>
</mgrwt>
</event>
<event>
 6    1  0.8397183E-002  0.3000000E+03  0.7818608E-02  0.1093470E+00
         21   -1    0    0  501  502  0.00000000000E+00  0.00000000000E+00  0.93332853894E+00  0.93332853894E+00  0.00000000000E+00 0. -1.
         13   -1    0    0    0    0 -0.00000000000E+00 -0.00000000000E+00 -0.10000000000E+04  0.10000000000E+04  0.00000000000E+00 0.  1.
    9000005    2    1    2  501    0 -0.30056561839E+02 -0.44633129159E+01 -0.53592172464E+03  0.53679266038E+03  0.33086593369E+01 0.  0.
         13    1    3    3    0    0 -0.10680185548E+02 -0.22351535285E+01 -0.16750627361E+03  0.16786129385E+03  0.00000000000E+00 0.  1.
          3    1    3    3  501    0 -0.19376376291E+02 -0.22281593874E+01 -0.36841545103E+03  0.36893136653E+03  0.00000000000E+00 0.  1.
         -3    1    1    2    0  502  0.30056561839E+02  0.44633129159E+01 -0.46314494682E+03  0.46414066816E+03  0.00000000000E+00 0. -1.
<mgrwt>
<rscale>  1 0.30000000E+03</rscale>
<asrwt>0</asrwt>
<pdfrwt beam="1">  1       21 0.33939291E-02 0.30000000E+03</pdfrwt>
<pdfrwt beam="2">0</pdfrwt>
<totfact> 0.55396206E+04</totfact>
</mgrwt>
</event>
<event>
 6    1  0.8397183E-002  0.3000000E+03  0.7818608E-02  0.1093470E+00
         21   -1    0    0  501  502  0.00000000000E+00  0.00000000000E+00  0.19503769253E+01  0.19503769253E+01  0.00000000000E+00 0. -1.
         13   -1    0    0    0    0 -0.00000000000E+00 -0.00000000000E+00 -0.10000000000E+04  0.10000000000E+04  0.00000000000E+00 0.  1.
    9000005    2    1    2  501    0  0.29900996599E+02  0.31980017082E+02 -0.55403644916E+03  0.55578393971E+03  0.47549498722E+01 0.  0.
         13    1    3    3    0    0  0.82787682646E+01  0.11763278720E+02 -0.19418706086E+03  0.19471909854E+03  0.00000000000E+00 0.  1.
          1    1    3    3  501    0  0.21622228334E+02  0.20216738362E+02 -0.35984938830E+03  0.36106484117E+03  0.00000000000E+00 0.  1.
         -1    1    1    2    0  502 -0.29900996599E+02 -0.31980017082E+02 -0.44401317391E+03  0.44616643721E+03  0.00000000000E+00 0. -1.
<mgrwt>
<rscale>  1 0.30000000E+03</rscale>
<asrwt>0</asrwt>
<pdfrwt beam="1">  1       21 0.70922947E-02 0.30000000E+03</pdfrwt>
<pdfrwt beam="2">0</pdfrwt>
<totfact> 0.15771430E+04</totfact>
</mgrwt>
</event>
<event>
 6    1  0.8397183E-002  0.3000000E+03  0.7818608E-02  0.1093470E+00
         21   -1    0    0  501  502  0.00000000000E+00  0.00000000000E+00  0.10823297529E+01  0.10823297529E+01  0.00000000000E+00 0. -1.
         13   -1    0    0    0    0 -0.00000000000E+00 -0.00000000000E+00 -0.10000000000E+04  0.10000000000E+04  0.00000000000E+00 0.  1.
    9000005    2    1    2  501    0  0.26221027171E+02 -0.19300552741E+02 -0.43860673541E+03  0.43982624088E+03  0.33466722592E+01 0.  0.
         13    1    3    3    0    0  0.60359399933E+01 -0.62387922605E+01 -0.11247455022E+03  0.11280904018E+03  0.00000000000E+00 0.  1.
          3    1    3    3  501    0  0.20185087177E+02 -0.13061760480E+02 -0.32613218520E+03  0.32701720070E+03  0.00000000000E+00 0.  1.
         -3    1    1    2    0  502 -0.26221027171E+02  0.19300552741E+02 -0.56031093483E+03  0.56125608887E+03  0.00000000000E+00 0. -1.
<mgrwt>
<rscale>  1 0.30000000E+03</rscale>
<asrwt>0</asrwt>
<pdfrwt beam="1">  1       21 0.39357529E-02 0.30000000E+03</pdfrwt>
<pdfrwt beam="2">0</pdfrwt>
<totfact> 0.43209181E+04</totfact>
</mgrwt>
</event>
<event>
 6    1  0.8397183E-002  0.3000000E+03  0.7818608E-02  0.1093470E+00
         21   -1    0    0  501  502  0.00000000000E+00  0.00000000000E+00  0.10876396468E+01  0.10876396468E+01  0.00000000000E+00 0. -1.
         13   -1    0    0    0    0 -0.00000000000E+00 -0.00000000000E+00 -0.10000000000E+04  0.10000000000E+04  0.00000000000E+00 0.  1.
    9000005    2    1    2  501    0 -0.17548181943E+02 -0.27526982528E+02 -0.55961712210E+03  0.56058113594E+03  0.37700354205E+01 0.  0.
         13    1    3    3    0    0 -0.60637380209E+01 -0.12793763975E+02 -0.23091126356E+03  0.23134489611E+03  0.00000000000E+00 0.  1.
          1    1    3    3  501    0 -0.11484443922E+02 -0.14733218553E+02 -0.32870585854E+03  0.32923623983E+03  0.00000000000E+00 0.  1.
         -1    1    1    2    0  502  0.17548181943E+02  0.27526982528E+02 -0.43929523826E+03  0.44050650371E+03  0.00000000000E+00 0. -1.
<mgrwt>
<rscale>  1 0.30000000E+03</rscale>
<asrwt>0</asrwt>
<pdfrwt beam="1">  1       21 0.39550616E-02 0.30000000E+03</pdfrwt>
<pdfrwt beam="2">0</pdfrwt>
<totfact> 0.42854768E+04</totfact>
</mgrwt>
</event>
<event>
 6    1  0.8397183E-002  0.3000000E+03  0.7818608E-02  0.1093470E+00
         21   -1    0    0  501  502  0.00000000000E+00  0.00000000000E+00  0.34880279666E+01  0.34880279666E+01  0.00000000000E+00 0. -1.
         13   -1    0    0    0    0 -0.00000000000E+00 -0.00000000000E+00 -0.10000000000E+04  0.10000000000E+04  0.00000000000E+00 0.  1.
    9000005    2    1    2  501    0  0.52708634435E+02 -0.88527131971E+01 -0.71120089366E+03  0.71321405029E+03  0.33165810734E+01 0.  0.
         13    1    3    3    0    0  0.31321863438E+02 -0.58930433848E+01 -0.44377984650E+03  0.44492284640E+03  0.00000000000E+00 0.  1.
          3    1    3    3  501    0  0.21386770997E+02 -0.29596698123E+01 -0.26742104716E+03  0.26829120389E+03  0.00000000000E+00 0.  1.
         -1    1    1    2    0  502 -0.52708634435E+02  0.88527131971E+01 -0.28531107837E+03  0.29027397768E+03  0.00000000000E+00 0. -1.
<mgrwt>
<rscale>  1 0.30000000E+03</rscale>
<asrwt>0</asrwt>
<pdfrwt beam="1">  1       21 0.12683765E-01 0.30000000E+03</pdfrwt>
<pdfrwt beam="2">0</pdfrwt>
<totfact> 0.56026989E+03</totfact>
</mgrwt>
</event>
<event>
 6    1  0.8397183E-002  0.3000000E+03  0.7818608E-02  0.1093470E+00
         21   -1    0    0  501  502  0.00000000000E+00  0.00000000000E+00  0.47928991238E+01  0.47928991238E+01  0.00000000000E+00 0. -1.
         13   -1    0    0    0    0 -0.00000000000E+00 -0.00000000000E+00 -0.10000000000E+04  0.10000000000E+04  0.00000000000E+00 0.  1.
    9000005    2    1    2  501    0 -0.46450189220E+02  0.36232973455E+02 -0.76125858836E+03  0.76354125674E+03  0.31880949505E+01 0.  0.
         13    1    3    3    0    0 -0.27132605183E+01  0.31462600905E+01 -0.53908914162E+02  0.54068768817E+02  0.00000000000E+00 0.  1.
          1    1    3    3  501    0 -0.43736928702E+02  0.33086713365E+02 -0.70734967420E+03  0.70947248792E+03  0.00000000000E+00 0.  1.
         -1    1    1    2    0  502  0.46450189220E+02 -0.36232973455E+02 -0.23394851252E+03  0.24125164239E+03  0.00000000000E+00 0. -1.
<mgrwt>
<rscale>  1 0.30000000E+03</rscale>
<asrwt>0</asrwt>
<pdfrwt beam="1">  1       21 0.17428761E-01 0.30000000E+03</pdfrwt>
<pdfrwt beam="2">0</pdfrwt>
<totfact> 0.31126938E+03</totfact>
</mgrwt>
</event>
<event>
 6    1  0.8397183E-002  0.3000000E+03  0.7818608E-02  0.1093470E+00
         21   -1    0    0  501  502  0.00000000000E+00  0.00000000000E+00  0.18667320148E+01  0.18667320148E+01  0.00000000000E+00 0. -1.
         13   -1    0    0    0    0 -0.00000000000E+00 -0.00000000000E+00 -0.10000000000E+04  0.10000000000E+04  0.00000000000E+00 0.  1.
    9000005    2    1    2  501    0 -0.40045849290E+02 -0.16059580566E+02 -0.50003045406E+03  0.50189873963E+03  0.32108685896E+01 0.  0.
         13    1    3    3    0    0 -0.17783360137E+02 -0.65636894502E+01 -0.20232300501E+03  0.20320907527E+03  0.00000000000E+00 0.  1.
          3    1    3    3  501    0 -0.22262489153E+02 -0.94958911153E+01 -0.29770744905E+03  0.29868966435E+03  0.00000000000E+00 0.  1.
         -1    1    1    2    0  502  0.40045849290E+02  0.16059580566E+02 -0.49810281392E+03  0.49996799239E+03  0.00000000000E+00 0. -1.
<mgrwt>
<rscale>  1 0.30000000E+03</rscale>
<asrwt>0</asrwt>
<pdfrwt beam="1">  1       21 0.67881307E-02 0.30000000E+03</pdfrwt>
<pdfrwt beam="2">0</pdfrwt>
<totfact> 0.17020750E+04</totfact>
</mgrwt>
</event>
<event>
 6    1  0.8397183E-002  0.3000000E+03  0.7818608E-02  0.1093470E+00
         21   -1    0    0  501  502  0.00000000000E+00  0.00000000000E+00  0.10013090314E+01  0.10013090314E+01  0.00000000000E+00 0. -1.
         13   -1    0    0    0    0 -0.00000000000E+00 -0.00000000000E+00 -0.10000000000E+04  0.10000000000E+04  0.00000000000E+00 0.  1.
    9000005    2    1    2  501    0 -0.30197269589E+02  0.36339911952E+01 -0.63286959145E+03  0.63361105536E+03  0.37374727476E+01 0.  0.
         13    1    3    3    0    0 -0.10929463900E+02  0.29292011813E+01 -0.21718733281E+03  0.21748188645E+03  0.00000000000E+00 0.  1.
          3    1    3    3  501    0 -0.19267805689E+02  0.70479001392E+00 -0.41568225864E+03  0.41612916891E+03  0.00000000000E+00 0.  1.
         -1    1    1    2    0  502  0.30197269589E+02 -0.36339911952E+01 -0.36612909951E+03  0.36739025367E+03  0.00000000000E+00 0. -1.
<mgrwt>
<rscale>  1 0.30000000E+03</rscale>
<asrwt>0</asrwt>
<pdfrwt beam="1">  1       21 0.36411314E-02 0.30000000E+03</pdfrwt>
<pdfrwt beam="2">0</pdfrwt>
<totfact> 0.49243009E+04</totfact>
</mgrwt>
</event>
<event>
 6    1  0.8397183E-002  0.3000000E+03  0.7818608E-02  0.1093470E+00
         21   -1    0    0  501  502  0.00000000000E+00  0.00000000000E+00  0.83975075617E+01  0.83975075617E+01  0.00000000000E+00 0. -1.
         13   -1    0    0    0    0 -0.00000000000E+00 -0.00000000000E+00 -0.10000000000E+04  0.10000000000E+04  0.00000000000E+00 0.  1.
    9000005    2    1    2  501    0  0.77963662742E+02  0.40430754530E+02 -0.63935263237E+03  0.64536453036E+03  0.32572848101E+01 0.  0.
         13    1    3    3    0    0  0.35847262035E+02  0.16937534812E+02 -0.28341150058E+03  0.28617125107E+03  0.00000000000E+00 0.  1.
          3    1    3    3  501    0  0.42116400707E+02  0.23493219718E+02 -0.35594113180E+03  0.35919327929E+03  0.00000000000E+00 0.  1.
         -1    1    1    2    0  502 -0.77963662742E+02 -0.40430754530E+02 -0.35224986007E+03  0.36303297720E+03  0.00000000000E+00 0. -1.
<mgrwt>
<rscale>  1 0.30000000E+03</rscale>
<asrwt>0</asrwt>
<pdfrwt beam="1">  1       21 0.30536456E-01 0.30000000E+03</pdfrwt>
<pdfrwt beam="2">0</pdfrwt>
<totfact> 0.10493559E+03</totfact>
</mgrwt>
</event>
<event>
 6    1  0.8397183E-002  0.3000000E+03  0.7818608E-02  0.1093470E+00
         21   -1    0    0  501  502  0.00000000000E+00  0.00000000000E+00  0.20479184939E+01  0.20479184939E+01  0.00000000000E+00 0. -1.
         13   -1    0    0    0    0 -0.00000000000E+00 -0.00000000000E+00 -0.10000000000E+04  0.10000000000E+04  0.00000000000E+00 0.  1.
    9000005    2    1    2  501    0 -0.54839904635E+01  0.41914197118E+02 -0.32312593647E+03  0.32589911823E+03  0.36042160350E+01 0.  0.
         13    1    3    3    0    0 -0.52998991155E+01  0.35181370713E+02 -0.26247191191E+03  0.26487227548E+03  0.00000000000E+00 0.  1.
          1    1    3    3  501    0 -0.18409134798E+00  0.67328264059E+01 -0.60654024556E+02  0.61026842749E+02  0.00000000000E+00 0.  1.
         -1    1    1    2    0  502  0.54839904635E+01 -0.41914197118E+02 -0.67482614504E+03  0.67614880027E+03  0.00000000000E+00 0. -1.
<mgrwt>
<rscale>  1 0.30000000E+03</rscale>
<asrwt>0</asrwt>
<pdfrwt beam="1">  1       21 0.74469920E-02 0.30000000E+03</pdfrwt>
<pdfrwt beam="2">0</pdfrwt>
<totfact> 0.14483184E+04</totfact>
</mgrwt>
</event>
<event>
 6    1  0.8397183E-002  0.3000000E+03  0.7818608E-02  0.1093470E+00
         21   -1    0    0  501  502  0.00000000000E+00  0.00000000000E+00  0.25574467811E+01  0.25574467811E+01  0.00000000000E+00 0. -1.
         13   -1    0    0    0    0 -0.00000000000E+00 -0.00000000000E+00 -0.10000000000E+04  0.10000000000E+04  0.00000000000E+00 0.  1.
    9000005    2    1    2  501    0 -0.34252390203E+02  0.31101370009E+02 -0.70064692344E+03  0.70217740865E+03  0.25456714627E+01 0.  0.
         13    1    3    3    0    0 -0.33220494370E+02  0.29919942692E+02 -0.68253624590E+03  0.68399892630E+03  0.00000000000E+00 0.  1.
          1    1    3    3  501    0 -0.10318958328E+01  0.11814273169E+01 -0.18110677547E+02  0.18178482355E+02  0.00000000000E+00 0.  1.
         -1    1    1    2    0  502  0.34252390203E+02 -0.31101370009E+02 -0.29679562978E+03  0.30038003813E+03  0.00000000000E+00 0. -1.
<mgrwt>
<rscale>  1 0.30000000E+03</rscale>
<asrwt>0</asrwt>
<pdfrwt beam="1">  1       21 0.92998261E-02 0.30000000E+03</pdfrwt>
<pdfrwt beam="2">0</pdfrwt>
<totfact> 0.97918164E+03</totfact>
</mgrwt>
</event>
<event>
 6    1  0.8397183E-002  0.3000000E+03  0.7818608E-02  0.1093470E+00
         21   -1    0    0  501  502  0.00000000000E+00  0.00000000000E+00  0.74960575872E+01  0.74960575872E+01  0.00000000000E+00 0. -1.
         13   -1    0    0    0    0 -0.00000000000E+00 -0.00000000000E+00 -0.10000000000E+04  0.10000000000E+04  0.00000000000E+00 0.  1.
    9000005    2    1    2  501    0 -0.86537586187E+02  0.81507563128E+00 -0.50285775382E+03  0.51026089373E+03  0.32925557362E+01 0.  0.
         13    1    3    3    0    0 -0.50644688466E+02  0.13300986163E+01 -0.30240318493E+03  0.30661757922E+03  0.00000000000E+00 0.  1.
          3    1    3    3  501    0 -0.35892897720E+02 -0.51502298499E+00 -0.20045456888E+03  0.20364331450E+03  0.00000000000E+00 0.  1.
         -3    1    1    2    0  502  0.86537586187E+02 -0.81507563128E+00 -0.48964618860E+03  0.49723516386E+03  0.00000000000E+00 0. -1.
<mgrwt>
<rscale>  1 0.30000000E+03</rscale>
<asrwt>0</asrwt>
<pdfrwt beam="1">  1       21 0.27258449E-01 0.30000000E+03</pdfrwt>
<pdfrwt beam="2">0</pdfrwt>
<totfact> 0.13154795E+03</totfact>
</mgrwt>
</event>
<event>
 6    1  0.8397183E-002  0.3000000E+03  0.7818608E-02  0.1093470E+00
         21   -1    0    0  501  502  0.00000000000E+00  0.00000000000E+00  0.21433800251E+01  0.21433800251E+01  0.00000000000E+00 0. -1.
         13   -1    0    0    0    0 -0.00000000000E+00 -0.00000000000E+00 -0.10000000000E+04  0.10000000000E+04  0.00000000000E+00 0.  1.
    9000005    2    1    2  501    0 -0.58232045876E+01 -0.45715509275E+02 -0.45828065275E+03  0.46060294580E+03  0.31779694395E+01 0.  0.
         13    1    3    3    0    0 -0.36731424996E+01 -0.29367818894E+02 -0.27883000200E+03  0.28039638154E+03  0.00000000000E+00 0.  1.
          1    1    3    3  501    0 -0.21500620880E+01 -0.16347690381E+02 -0.17945065075E+03  0.18020656426E+03  0.00000000000E+00 0.  1.
         -1    1    1    2    0  502  0.58232045876E+01  0.45715509275E+02 -0.53957596722E+03  0.54154043423E+03  0.00000000000E+00 0. -1.
<mgrwt>
<rscale>  1 0.30000000E+03</rscale>
<asrwt>0</asrwt>
<pdfrwt beam="1">  1       21 0.77941256E-02 0.30000000E+03</pdfrwt>
<pdfrwt beam="2">0</pdfrwt>
<totfact> 0.13371986E+04</totfact>
</mgrwt>
</event>
<event>
 6    1  0.8397183E-002  0.3000000E+03  0.7818608E-02  0.1093470E+00
         21   -1    0    0  501  502  0.00000000000E+00  0.00000000000E+00  0.12885107532E+01  0.12885107532E+01  0.00000000000E+00 0. -1.
         13   -1    0    0    0    0 -0.00000000000E+00 -0.00000000000E+00 -0.10000000000E+04  0.10000000000E+04  0.00000000000E+00 0.  1.
    9000005    2    1    2  501    0  0.32978086629E+02 -0.44814017258E+01 -0.31591015316E+03  0.31767655817E+03  0.33961123444E+01 0.  0.
         13    1    3    3    0    0  0.11652505946E+02 -0.95552492135E+00 -0.12552608879E+03  0.12606939712E+03  0.00000000000E+00 0.  1.
          1    1    3    3  501    0  0.21325580683E+02 -0.35258768045E+01 -0.19038406437E+03  0.19160716105E+03  0.00000000000E+00 0.  1.
         -3    1    1    2    0  502 -0.32978086629E+02  0.44814017258E+01 -0.68280133608E+03  0.68361195258E+03  0.00000000000E+00 0. -1.
<mgrwt>
<rscale>  1 0.30000000E+03</rscale>
<asrwt>0</asrwt>
<pdfrwt beam="1">  1       21 0.46855035E-02 0.30000000E+03</pdfrwt>
<pdfrwt beam="2">0</pdfrwt>
<totfact> 0.32172859E+04</totfact>
</mgrwt>
</event>
<event>
 6    1  0.8397183E-002  0.3000000E+03  0.7818608E-02  0.1093470E+00
         21   -1    0    0  501  502  0.00000000000E+00  0.00000000000E+00  0.10847699444E+01  0.10847699444E+01  0.00000000000E+00 0. -1.
         13   -1    0    0    0    0 -0.00000000000E+00 -0.00000000000E+00 -0.10000000000E+04  0.10000000000E+04  0.00000000000E+00 0.  1.
    9000005    2    1    2  501    0  0.19561085246E+02 -0.24560760271E+02 -0.64773230665E+03  0.64850100303E+03  0.32469754167E+01 0.  0.
         13    1    3    3    0    0  0.56682432373E+01 -0.49058030451E+01 -0.15508694111E+03  0.15526801083E+03  0.00000000000E+00 0.  1.
          1    1    3    3  501    0  0.13892842009E+02 -0.19654957226E+02 -0.49264536554E+03  0.49323299220E+03  0.00000000000E+00 0.  1.
         -3    1    1    2    0  502 -0.19561085246E+02  0.24560760271E+02 -0.35118292340E+03  0.35258376691E+03  0.00000000000E+00 0. -1.
<mgrwt>
<rscale>  1 0.30000000E+03</rscale>
<asrwt>0</asrwt>
<pdfrwt beam="1">  1       21 0.39446263E-02 0.30000000E+03</pdfrwt>
<pdfrwt beam="2">0</pdfrwt>
<totfact> 0.43045740E+04</totfact>
</mgrwt>
</event>
<event>
 6    1  0.8397183E-002  0.3000000E+03  0.7818608E-02  0.1093470E+00
         21   -1    0    0  501  502  0.00000000000E+00  0.00000000000E+00  0.11712580228E+01  0.11712580228E+01  0.00000000000E+00 0. -1.
         13   -1    0    0    0    0 -0.00000000000E+00 -0.00000000000E+00 -0.10000000000E+04  0.10000000000E+04  0.00000000000E+00 0.  1.
    9000005    2    1    2  501    0 -0.27521785769E+02  0.16536572295E+02 -0.66948549239E+03  0.67026661471E+03  0.39501092733E+01 0.  0.
         13    1    3    3    0    0 -0.52488608602E+01  0.18236025287E+01 -0.13657691774E+03  0.13668990645E+03  0.00000000000E+00 0.  1.
          1    1    3    3  501    0 -0.22272924909E+02  0.14712969767E+02 -0.53290857465E+03  0.53357670826E+03  0.00000000000E+00 0.  1.
         -1    1    1    2    0  502  0.27521785769E+02 -0.16536572295E+02 -0.32934324959E+03  0.33090464331E+03  0.00000000000E+00 0. -1.
<mgrwt>
<rscale>  1 0.30000000E+03</rscale>
<asrwt>0</asrwt>
<pdfrwt beam="1">  1       21 0.42591291E-02 0.30000000E+03</pdfrwt>
<pdfrwt beam="2">0</pdfrwt>
<totfact> 0.37822540E+04</totfact>
</mgrwt>
</event>
<event>
 6    1  0.8397183E-002  0.3000000E+03  0.7818608E-02  0.1093470E+00
         21   -1    0    0  501  502  0.00000000000E+00  0.00000000000E+00  0.12287356998E+01  0.12287356998E+01  0.00000000000E+00 0. -1.
         13   -1    0    0    0    0 -0.00000000000E+00 -0.00000000000E+00 -0.10000000000E+04  0.10000000000E+04  0.00000000000E+00 0.  1.
    9000005    2    1    2  501    0 -0.21789639384E+02 -0.23380273412E+02 -0.30555142525E+03  0.30727256214E+03  0.57730756300E+01 0.  0.
         13    1    3    3    0    0 -0.19018214828E+02 -0.21309544795E+02 -0.25293824396E+03  0.25454576102E+03  0.00000000000E+00 0.  1.
          3    1    3    3  501    0 -0.27714245565E+01 -0.20707286174E+01 -0.52613181294E+02  0.52726801126E+02  0.00000000000E+00 0.  1.
         -1    1    1    2    0  502  0.21789639384E+02  0.23380273412E+02 -0.69321983905E+03  0.69395617356E+03  0.00000000000E+00 0. -1.
<mgrwt>
<rscale>  1 0.30000000E+03</rscale>
<asrwt>0</asrwt>
<pdfrwt beam="1">  1       21 0.44681392E-02 0.30000000E+03</pdfrwt>
<pdfrwt beam="2">0</pdfrwt>
<totfact> 0.34876050E+04</totfact>
</mgrwt>
</event>
<event>
 6    1  0.8397183E-002  0.3000000E+03  0.7818608E-02  0.1093470E+00
         21   -1    0    0  501  502  0.00000000000E+00  0.00000000000E+00  0.10447609553E+01  0.10447609553E+01  0.00000000000E+00 0. -1.
         13   -1    0    0    0    0 -0.00000000000E+00 -0.00000000000E+00 -0.10000000000E+04  0.10000000000E+04  0.00000000000E+00 0.  1.
    9000005    2    1    2  501    0 -0.12350308675E+02 -0.29609545098E+02 -0.45394677557E+03  0.45509285782E+03  0.35466740946E+01 0.  0.
         13    1    3    3    0    0 -0.10667847065E+02 -0.24419147842E+02 -0.35741552731E+03  0.35840752908E+03  0.00000000000E+00 0.  1.
          1    1    3    3  501    0 -0.16824616096E+01 -0.51903972551E+01 -0.96531248264E+02  0.96685328732E+02  0.00000000000E+00 0.  1.
         -3    1    1    2    0  502  0.12350308675E+02  0.29609545098E+02 -0.54500846347E+03  0.54595190314E+03  0.00000000000E+00 0. -1.
<mgrwt>
<rscale>  1 0.30000000E+03</rscale>
<asrwt>0</asrwt>
<pdfrwt beam="1">  1       21 0.37991388E-02 0.30000000E+03</pdfrwt>
<pdfrwt beam="2">0</pdfrwt>
<totfact> 0.45853540E+04</totfact>
</mgrwt>
</event>
<event>
 6    1  0.8397183E-002  0.3000000E+03  0.7818608E-02  0.1093470E+00
         21   -1    0    0  501  502  0.00000000000E+00  0.00000000000E+00  0.13863526650E+01  0.13863526650E+01  0.00000000000E+00 0. -1.
         13   -1    0    0    0    0 -0.00000000000E+00 -0.00000000000E+00 -0.10000000000E+04  0.10000000000E+04  0.00000000000E+00 0.  1.
    9000005    2    1    2  501    0 -0.24181791546E+02 -0.28206422069E+02 -0.49564791377E+03  0.49705026391E+03  0.34277007203E+01 0.  0.
         13    1    3    3    0    0 -0.11840994592E+02 -0.16210461071E+02 -0.27608655284E+03  0.27681541298E+03  0.00000000000E+00 0.  1.
          3    1    3    3  501    0 -0.12340796954E+02 -0.11995960997E+02 -0.21956136093E+03  0.22023485093E+03  0.00000000000E+00 0.  1.
         -3    1    1    2    0  502  0.24181791546E+02  0.28206422069E+02 -0.50296573356E+03  0.50433608876E+03  0.00000000000E+00 0. -1.
<mgrwt>
<rscale>  1 0.30000000E+03</rscale>
<asrwt>0</asrwt>
<pdfrwt beam="1">  1       21 0.50412930E-02 0.30000000E+03</pdfrwt>
<pdfrwt beam="2">0</pdfrwt>
<totfact> 0.28403526E+04</totfact>
</mgrwt>
</event>
<event>
 6    1  0.8397183E-002  0.3000000E+03  0.7818608E-02  0.1093470E+00
         21   -1    0    0  501  502  0.00000000000E+00  0.00000000000E+00  0.10225575741E+02  0.10225575741E+02  0.00000000000E+00 0. -1.
         13   -1    0    0    0    0 -0.00000000000E+00 -0.00000000000E+00 -0.10000000000E+04  0.10000000000E+04  0.00000000000E+00 0.  1.
    9000005    2    1    2  501    0  0.22287905955E+02 -0.95105267715E+02 -0.36533375515E+03  0.37819083624E+03  0.42182063847E+01 0.  0.
         13    1    3    3    0    0  0.11760742139E+02 -0.45057519609E+02 -0.16734603847E+03  0.17370432269E+03  0.00000000000E+00 0.  1.
          1    1    3    3  501    0  0.10527163816E+02 -0.50047748105E+02 -0.19798771668E+03  0.20448651356E+03  0.00000000000E+00 0.  1.
         -3    1    1    2    0  502 -0.22287905955E+02  0.95105267715E+02 -0.62444066911E+03  0.63203473950E+03  0.00000000000E+00 0. -1.
<mgrwt>
<rscale>  1 0.30000000E+03</rscale>
<asrwt>0</asrwt>
<pdfrwt beam="1">  1       21 0.37183990E-01 0.30000000E+03</pdfrwt>
<pdfrwt beam="2">0</pdfrwt>
<totfact> 0.70277819E+02</totfact>
</mgrwt>
</event>
<event>
 6    1  0.8397183E-002  0.3000000E+03  0.7818608E-02  0.1093470E+00
         21   -1    0    0  501  502  0.00000000000E+00  0.00000000000E+00  0.94387683572E+00  0.94387683572E+00  0.00000000000E+00 0. -1.
         13   -1    0    0    0    0 -0.00000000000E+00 -0.00000000000E+00 -0.10000000000E+04  0.10000000000E+04  0.00000000000E+00 0.  1.
    9000005    2    1    2  501    0 -0.29238062740E+02  0.89307182026E+01 -0.46907998873E+03  0.47008671609E+03  0.32958733509E+01 0.  0.
         13    1    3    3    0    0 -0.28172559519E+02  0.85354240245E+01 -0.45897221508E+03  0.45991525392E+03  0.00000000000E+00 0.  1.
          3    1    3    3  501    0 -0.10655032207E+01  0.39529417804E+00 -0.10107773648E+02  0.10171462173E+02  0.00000000000E+00 0.  1.
         -1    1    1    2    0  502  0.29238062740E+02 -0.89307182026E+01 -0.52997613444E+03  0.53085716075E+03  0.00000000000E+00 0. -1.
<mgrwt>
<rscale>  1 0.30000000E+03</rscale>
<asrwt>0</asrwt>
<pdfrwt beam="1">  1       21 0.34322866E-02 0.30000000E+03</pdfrwt>
<pdfrwt beam="2">0</pdfrwt>
<totfact> 0.54365279E+04</totfact>
</mgrwt>
</event>
<event>
 6    1  0.8397183E-002  0.3000000E+03  0.7818608E-02  0.1093470E+00
         21   -1    0    0  501  502  0.00000000000E+00  0.00000000000E+00  0.19855082058E+01  0.19855082058E+01  0.00000000000E+00 0. -1.
         13   -1    0    0    0    0 -0.00000000000E+00 -0.00000000000E+00 -0.10000000000E+04  0.10000000000E+04  0.00000000000E+00 0.  1.
    9000005    2    1    2  501    0 -0.41548218897E+02  0.71241865300E+01 -0.33952783532E+03  0.34215091887E+03  0.33304354501E+01 0.  0.
         13    1    3    3    0    0 -0.19404486998E+02  0.49600863688E+01 -0.16423695839E+03  0.16545366443E+03  0.00000000000E+00 0.  1.
          3    1    3    3  501    0 -0.22143731899E+02  0.21641001612E+01 -0.17529087693E+03  0.17669725444E+03  0.00000000000E+00 0.  1.
         -3    1    1    2    0  502  0.41548218897E+02 -0.71241865300E+01 -0.65848665647E+03  0.65983458933E+03  0.00000000000E+00 0. -1.
<mgrwt>
<rscale>  1 0.30000000E+03</rscale>
<asrwt>0</asrwt>
<pdfrwt beam="1">  1       21 0.72200451E-02 0.30000000E+03</pdfrwt>
<pdfrwt beam="2">0</pdfrwt>
<totfact> 0.15288076E+04</totfact>
</mgrwt>
</event>
<event>
 6    1  0.8397183E-002  0.3000000E+03  0.7818608E-02  0.1093470E+00
         21   -1    0    0  501  502  0.00000000000E+00  0.00000000000E+00  0.14505039976E+01  0.14505039976E+01  0.00000000000E+00 0. -1.
         13   -1    0    0    0    0 -0.00000000000E+00 -0.00000000000E+00 -0.10000000000E+04  0.10000000000E+04  0.00000000000E+00 0.  1.
    9000005    2    1    2  501    0  0.80634388612E+01  0.36523254892E+02 -0.41141732762E+03  0.41312818559E+03  0.34224353525E+01 0.  0.
         13    1    3    3    0    0  0.78615877669E+01  0.32506116550E+02 -0.37550169687E+03  0.37698803234E+03  0.00000000000E+00 0.  1.
          3    1    3    3  501    0  0.20185109426E+00  0.40171383423E+01 -0.35915630755E+02  0.36140153249E+02  0.00000000000E+00 0.  1.
         -1    1    1    2    0  502 -0.80634388612E+01 -0.36523254892E+02 -0.58713216838E+03  0.58832231841E+03  0.00000000000E+00 0. -1.
<mgrwt>
<rscale>  1 0.30000000E+03</rscale>
<asrwt>0</asrwt>
<pdfrwt beam="1">  1       21 0.52745711E-02 0.30000000E+03</pdfrwt>
<pdfrwt beam="2">0</pdfrwt>
<totfact> 0.26292217E+04</totfact>
</mgrwt>
</event>
<event>
 6    1  0.8397183E-002  0.3000000E+03  0.7818608E-02  0.1093470E+00
         21   -1    0    0  501  502  0.00000000000E+00  0.00000000000E+00  0.16181321720E+01  0.16181321720E+01  0.00000000000E+00 0. -1.
         13   -1    0    0    0    0 -0.00000000000E+00 -0.00000000000E+00 -0.10000000000E+04  0.10000000000E+04  0.00000000000E+00 0.  1.
    9000005    2    1    2  501    0 -0.22059824398E+02  0.33390582365E+02 -0.45584196162E+03  0.45760423835E+03  0.28597445812E+01 0.  0.
         13    1    3    3    0    0 -0.10982747462E+02  0.18912127101E+02 -0.24105051140E+03  0.24204057168E+03  0.00000000000E+00 0.  1.
          1    1    3    3  501    0 -0.11077076936E+02  0.14478455265E+02 -0.21479145022E+03  0.21556366667E+03  0.00000000000E+00 0.  1.
         -1    1    1    2    0  502  0.22059824398E+02 -0.33390582365E+02 -0.54253990621E+03  0.54401389383E+03  0.00000000000E+00 0. -1.
<mgrwt>
<rscale>  1 0.30000000E+03</rscale>
<asrwt>0</asrwt>
<pdfrwt beam="1">  1       21 0.58841294E-02 0.30000000E+03</pdfrwt>
<pdfrwt beam="2">0</pdfrwt>
<totfact> 0.21792119E+04</totfact>
</mgrwt>
</event>
<event>
 6    1  0.8397183E-002  0.3000000E+03  0.7818608E-02  0.1093470E+00
         21   -1    0    0  501  502  0.00000000000E+00  0.00000000000E+00  0.11159927605E+01  0.11159927605E+01  0.00000000000E+00 0. -1.
         13   -1    0    0    0    0 -0.00000000000E+00 -0.00000000000E+00 -0.10000000000E+04  0.10000000000E+04  0.00000000000E+00 0.  1.
    9000005    2    1    2  501    0 -0.20105456943E+02 -0.25811922653E+02 -0.40593365320E+03  0.40726364822E+03  0.33262018453E+01 0.  0.
         13    1    3    3    0    0 -0.13521638289E+02 -0.19654690865E+02 -0.30017142192E+03  0.30111795714E+03  0.00000000000E+00 0.  1.
          1    1    3    3  501    0 -0.65838186541E+01 -0.61572317872E+01 -0.10576223128E+03  0.10614569108E+03  0.00000000000E+00 0.  1.
         -3    1    1    2    0  502  0.20105456943E+02  0.25811922653E+02 -0.59295035404E+03  0.59385234454E+03  0.00000000000E+00 0. -1.
<mgrwt>
<rscale>  1 0.30000000E+03</rscale>
<asrwt>0</asrwt>
<pdfrwt beam="1">  1       21 0.40581641E-02 0.30000000E+03</pdfrwt>
<pdfrwt beam="2">0</pdfrwt>
<totfact> 0.41037058E+04</totfact>
</mgrwt>
</event>
<event>
 6    1  0.8397183E-002  0.3000000E+03  0.7818608E-02  0.1093470E+00
         21   -1    0    0  501  502  0.00000000000E+00  0.00000000000E+00  0.31657801610E+01  0.31657801610E+01  0.00000000000E+00 0. -1.
         13   -1    0    0    0    0 -0.00000000000E+00 -0.00000000000E+00 -0.10000000000E+04  0.10000000000E+04  0.00000000000E+00 0.  1.
    9000005    2    1    2  501    0  0.32034157561E+02  0.42794357538E+02 -0.65396066254E+03  0.65615018890E+03  0.33132985869E+01 0.  0.
         13    1    3    3    0    0  0.18649522021E+02  0.27594597381E+02 -0.40653755121E+03  0.40789955507E+03  0.00000000000E+00 0.  1.
          1    1    3    3  501    0  0.13384635540E+02  0.15199760157E+02 -0.24742311133E+03  0.24825063383E+03  0.00000000000E+00 0.  1.
         -3    1    1    2    0  502 -0.32034157561E+02 -0.42794357538E+02 -0.34287355730E+03  0.34701559126E+03  0.00000000000E+00 0. -1.
<mgrwt>
<rscale>  1 0.30000000E+03</rscale>
<asrwt>0</asrwt>
<pdfrwt beam="1">  1       21 0.11511952E-01 0.30000000E+03</pdfrwt>
<pdfrwt beam="2">0</pdfrwt>
<totfact> 0.66810034E+03</totfact>
</mgrwt>
</event>
<event>
 6    1  0.8397183E-002  0.3000000E+03  0.7818608E-02  0.1093470E+00
         21   -1    0    0  501  502  0.00000000000E+00  0.00000000000E+00  0.25579411154E+01  0.25579411154E+01  0.00000000000E+00 0. -1.
         13   -1    0    0    0    0 -0.00000000000E+00 -0.00000000000E+00 -0.10000000000E+04  0.10000000000E+04  0.00000000000E+00 0.  1.
    9000005    2    1    2  501    0  0.76786359680E+01  0.49566642371E+02 -0.54974398853E+03  0.55205891150E+03  0.58970631844E+01 0.  0.
         13    1    3    3    0    0  0.73250017086E+01  0.47606259946E+02 -0.53751124874E+03  0.53966503885E+03  0.00000000000E+00 0.  1.
          3    1    3    3  501    0  0.35363425938E+00  0.19603824250E+01 -0.12232739794E+02  0.12393872651E+02  0.00000000000E+00 0.  1.
         -1    1    1    2    0  502 -0.76786359680E+01 -0.49566642371E+02 -0.44769807036E+03  0.45049902962E+03  0.00000000000E+00 0. -1.
<mgrwt>
<rscale>  1 0.30000000E+03</rscale>
<asrwt>0</asrwt>
<pdfrwt beam="1">  1       21 0.93016237E-02 0.30000000E+03</pdfrwt>
<pdfrwt beam="2">0</pdfrwt>
<totfact> 0.97884534E+03</totfact>
</mgrwt>
</event>
<event>
 6    1  0.8397183E-002  0.3000000E+03  0.7818608E-02  0.1093470E+00
         21   -1    0    0  501  502  0.00000000000E+00  0.00000000000E+00  0.17838791860E+01  0.17838791860E+01  0.00000000000E+00 0. -1.
         13   -1    0    0    0    0 -0.00000000000E+00 -0.00000000000E+00 -0.10000000000E+04  0.10000000000E+04  0.00000000000E+00 0.  1.
    9000005    2    1    2  501    0  0.25434447459E+02  0.31013738212E+02 -0.65446432229E+03  0.65569998464E+03  0.31871039133E+01 0.  0.
         13    1    3    3    0    0  0.12724423993E+02  0.15024094942E+02 -0.34671646253E+03  0.34727502039E+03  0.00000000000E+00 0.  1.
          1    1    3    3  501    0  0.12710023465E+02  0.15989643270E+02 -0.30774785976E+03  0.30842496425E+03  0.00000000000E+00 0.  1.
         -3    1    1    2    0  502 -0.25434447459E+02 -0.31013738212E+02 -0.34375179852E+03  0.34608389454E+03  0.00000000000E+00 0. -1.
<mgrwt>
<rscale>  1 0.30000000E+03</rscale>
<asrwt>0</asrwt>
<pdfrwt beam="1">  1       21 0.64868471E-02 0.30000000E+03</pdfrwt>
<pdfrwt beam="2">0</pdfrwt>
<totfact> 0.18414509E+04</totfact>
</mgrwt>
</event>
<event>
 6    1  0.8397183E-002  0.3000000E+03  0.7818608E-02  0.1093470E+00
         21   -1    0    0  501  502  0.00000000000E+00  0.00000000000E+00  0.26731661203E+01  0.26731661203E+01  0.00000000000E+00 0. -1.
         13   -1    0    0    0    0 -0.00000000000E+00 -0.00000000000E+00 -0.10000000000E+04  0.10000000000E+04  0.00000000000E+00 0.  1.
    9000005    2    1    2  501    0 -0.31618915064E+02  0.39539328735E+02 -0.40180375780E+03  0.40500197855E+03  0.41507278384E+01 0.  0.
         13    1    3    3    0    0 -0.97031477104E+01  0.10307341916E+02 -0.12431695755E+03  0.12512033531E+03  0.00000000000E+00 0.  1.
          3    1    3    3  501    0 -0.21915767354E+02  0.29231986819E+02 -0.27748680025E+03  0.27988164324E+03  0.00000000000E+00 0.  1.
         -3    1    1    2    0  502  0.31618915064E+02 -0.39539328735E+02 -0.59552307608E+03  0.59767118757E+03  0.00000000000E+00 0. -1.
<mgrwt>
<rscale>  1 0.30000000E+03</rscale>
<asrwt>0</asrwt>
<pdfrwt beam="1">  1       21 0.97206246E-02 0.30000000E+03</pdfrwt>
<pdfrwt beam="2">0</pdfrwt>
<totfact> 0.90496244E+03</totfact>
</mgrwt>
</event>
<event>
 6    1  0.8397183E-002  0.3000000E+03  0.7818608E-02  0.1093470E+00
         21   -1    0    0  501  502  0.00000000000E+00  0.00000000000E+00  0.28641254403E+01  0.28641254403E+01  0.00000000000E+00 0. -1.
         13   -1    0    0    0    0 -0.00000000000E+00 -0.00000000000E+00 -0.10000000000E+04  0.10000000000E+04  0.00000000000E+00 0.  1.
    9000005    2    1    2  501    0 -0.23590539526E+02 -0.46963076854E+02 -0.41273006493E+03  0.41609995264E+03  0.55695560508E+01 0.  0.
         13    1    3    3    0    0 -0.10683045102E+02 -0.26287787482E+02 -0.23473517962E+03  0.23644403095E+03  0.00000000000E+00 0.  1.
          1    1    3    3  501    0 -0.12907494424E+02 -0.20675289372E+02 -0.17799488531E+03  0.17965592169E+03  0.00000000000E+00 0.  1.
         -3    1    1    2    0  502  0.23590539526E+02  0.46963076854E+02 -0.58440580963E+03  0.58676417280E+03  0.00000000000E+00 0. -1.
<mgrwt>
<rscale>  1 0.30000000E+03</rscale>
<asrwt>0</asrwt>
<pdfrwt beam="1">  1       21 0.10415024E-01 0.30000000E+03</pdfrwt>
<pdfrwt beam="2">0</pdfrwt>
<totfact> 0.79995136E+03</totfact>
</mgrwt>
</event>
<event>
 6    1  0.8397183E-002  0.3000000E+03  0.7818608E-02  0.1093470E+00
         21   -1    0    0  501  502  0.00000000000E+00  0.00000000000E+00  0.67758578351E+01  0.67758578351E+01  0.00000000000E+00 0. -1.
         13   -1    0    0    0    0 -0.00000000000E+00 -0.00000000000E+00 -0.10000000000E+04  0.10000000000E+04  0.00000000000E+00 0.  1.
    9000005    2    1    2  501    0  0.79789658031E+02  0.66984995649E+01 -0.38719506119E+03  0.39548009765E+03  0.85576169135E+01 0.  0.
         13    1    3    3    0    0  0.49849907287E+02  0.55027245605E+01 -0.26118078867E+03  0.26595243485E+03  0.00000000000E+00 0.  1.
          1    1    3    3  501    0  0.29939750745E+02  0.11957750044E+01 -0.12601427252E+03  0.12952766280E+03  0.00000000000E+00 0.  1.
         -3    1    1    2    0  502 -0.79789658031E+02 -0.66984995649E+01 -0.60602908098E+03  0.61129576018E+03  0.00000000000E+00 0. -1.
<mgrwt>
<rscale>  1 0.30000000E+03</rscale>
<asrwt>0</asrwt>
<pdfrwt beam="1">  1       21 0.24639535E-01 0.30000000E+03</pdfrwt>
<pdfrwt beam="2">0</pdfrwt>
<totfact> 0.16045165E+03</totfact>
</mgrwt>
</event>
<event>
 6    1  0.8397183E-002  0.3000000E+03  0.7818608E-02  0.1093470E+00
         21   -1    0    0  501  502  0.00000000000E+00  0.00000000000E+00  0.14088627042E+01  0.14088627042E+01  0.00000000000E+00 0. -1.
         13   -1    0    0    0    0 -0.00000000000E+00 -0.00000000000E+00 -0.10000000000E+04  0.10000000000E+04  0.00000000000E+00 0.  1.
    9000005    2    1    2  501    0  0.30746887014E+02 -0.14253224443E+01 -0.21875764964E+03  0.22096817240E+03  0.49619890012E+01 0.  0.
         13    1    3    3    0    0  0.30652432506E+02 -0.10137128691E+01 -0.21321531459E+03  0.21540977139E+03  0.00000000000E+00 0.  1.
          3    1    3    3  501    0  0.94454508731E-01 -0.41160957521E+00 -0.55423350444E+01  0.55584010148E+01  0.00000000000E+00 0.  1.
         -1    1    1    2    0  502 -0.30746887014E+02  0.14253224443E+01 -0.77983348766E+03  0.78044069030E+03  0.00000000000E+00 0. -1.
<mgrwt>
<rscale>  1 0.30000000E+03</rscale>
<asrwt>0</asrwt>
<pdfrwt beam="1">  1       21 0.51231479E-02 0.30000000E+03</pdfrwt>
<pdfrwt beam="2">0</pdfrwt>
<totfact> 0.27633623E+04</totfact>
</mgrwt>
</event>
<event>
 6    1  0.8397183E-002  0.3000000E+03  0.7818608E-02  0.1093470E+00
         21   -1    0    0  501  502  0.00000000000E+00  0.00000000000E+00  0.11782837036E+01  0.11782837036E+01  0.00000000000E+00 0. -1.
         13   -1    0    0    0    0 -0.00000000000E+00 -0.00000000000E+00 -0.10000000000E+04  0.10000000000E+04  0.00000000000E+00 0.  1.
    9000005    2    1    2  501    0  0.15185162369E+02  0.26808763642E+02 -0.28291553713E+03  0.28460940612E+03  0.34661121894E+01 0.  0.
         13    1    3    3    0    0  0.60481326953E+01  0.76033097937E+01 -0.83878153104E+02  0.84438941236E+02  0.00000000000E+00 0.  1.
          3    1    3    3  501    0  0.91370296733E+01  0.19205453848E+02 -0.19903738403E+03  0.20017046488E+03  0.00000000000E+00 0.  1.
         -1    1    1    2    0  502 -0.15185162369E+02 -0.26808763642E+02 -0.71590617916E+03  0.71656887759E+03  0.00000000000E+00 0. -1.
<mgrwt>
<rscale>  1 0.30000000E+03</rscale>
<asrwt>0</asrwt>
<pdfrwt beam="1">  1       21 0.42846770E-02 0.30000000E+03</pdfrwt>
<pdfrwt beam="2">0</pdfrwt>
<totfact> 0.37442087E+04</totfact>
</mgrwt>
</event>
<event>
 6    1  0.8397183E-002  0.3000000E+03  0.7818608E-02  0.1093470E+00
         21   -1    0    0  501  502  0.00000000000E+00  0.00000000000E+00  0.13949954153E+01  0.13949954153E+01  0.00000000000E+00 0. -1.
         13   -1    0    0    0    0 -0.00000000000E+00 -0.00000000000E+00 -0.10000000000E+04  0.10000000000E+04  0.00000000000E+00 0.  1.
    9000005    2    1    2  501    0  0.35384136350E+02 -0.29276438704E+01 -0.65292473849E+03  0.65389613992E+03  0.29731237631E+01 0.  0.
         13    1    3    3    0    0  0.34481059584E+02 -0.31801685536E+01 -0.62821217368E+03  0.62916579063E+03  0.00000000000E+00 0.  1.
          3    1    3    3  501    0  0.90307676576E+00  0.25252468324E+00 -0.24712564816E+02  0.24730349292E+02  0.00000000000E+00 0.  1.
         -1    1    1    2    0  502 -0.35384136350E+02  0.29276438704E+01 -0.34568026609E+03  0.34749885549E+03  0.00000000000E+00 0. -1.
<mgrwt>
<rscale>  1 0.30000000E+03</rscale>
<asrwt>0</asrwt>
<pdfrwt beam="1">  1       21 0.50727213E-02 0.30000000E+03</pdfrwt>
<pdfrwt beam="2">0</pdfrwt>
<totfact> 0.28104021E+04</totfact>
</mgrwt>
</event>
<event>
 6    1  0.8397183E-002  0.3000000E+03  0.7818608E-02  0.1093470E+00
         21   -1    0    0  501  502  0.00000000000E+00  0.00000000000E+00  0.84546822772E+01  0.84546822772E+01  0.00000000000E+00 0. -1.
         13   -1    0    0    0    0 -0.00000000000E+00 -0.00000000000E+00 -0.10000000000E+04  0.10000000000E+04  0.00000000000E+00 0.  1.
    9000005    2    1    2  501    0  0.66625129733E+02 -0.60248981397E+02 -0.60277052119E+03  0.60943752714E+03  0.35986948967E+01 0.  0.
         13    1    3    3    0    0  0.95885275830E+01 -0.10435918249E+02 -0.94624028535E+02  0.95679438895E+02  0.00000000000E+00 0.  1.
          1    1    3    3  501    0  0.57036602150E+02 -0.49813063148E+02 -0.50814649265E+03  0.51375808825E+03  0.00000000000E+00 0.  1.
         -1    1    1    2    0  502 -0.66625129733E+02  0.60248981397E+02 -0.38877479653E+03  0.39901715513E+03  0.00000000000E+00 0. -1.
<mgrwt>
<rscale>  1 0.30000000E+03</rscale>
<asrwt>0</asrwt>
<pdfrwt beam="1">  1       21 0.30744364E-01 0.30000000E+03</pdfrwt>
<pdfrwt beam="2">0</pdfrwt>
<totfact> 0.10351637E+03</totfact>
</mgrwt>
</event>
<event>
 6    1  0.8397183E-002  0.3000000E+03  0.7818608E-02  0.1093470E+00
         21   -1    0    0  501  502  0.00000000000E+00  0.00000000000E+00  0.14544412673E+01  0.14544412673E+01  0.00000000000E+00 0. -1.
         13   -1    0    0    0    0 -0.00000000000E+00 -0.00000000000E+00 -0.10000000000E+04  0.10000000000E+04  0.00000000000E+00 0.  1.
    9000005    2    1    2  501    0 -0.30152926141E+02 -0.22308344893E+02 -0.58563218534E+03  0.58684098860E+03  0.32292704150E+01 0.  0.
         13    1    3    3    0    0 -0.77250162039E+01 -0.68202557077E+01 -0.14358154039E+03  0.14395086142E+03  0.00000000000E+00 0.  1.
          1    1    3    3  501    0 -0.22427909937E+02 -0.15488089185E+02 -0.44205064495E+03  0.44289012718E+03  0.00000000000E+00 0.  1.
         -3    1    1    2    0  502  0.30152926141E+02  0.22308344893E+02 -0.41291337339E+03  0.41461345267E+03  0.00000000000E+00 0. -1.
<mgrwt>
<rscale>  1 0.30000000E+03</rscale>
<asrwt>0</asrwt>
<pdfrwt beam="1">  1       21 0.52888885E-02 0.30000000E+03</pdfrwt>
<pdfrwt beam="2">0</pdfrwt>
<totfact> 0.26170628E+04</totfact>
</mgrwt>
</event>
<event>
 6    1  0.8397183E-002  0.3000000E+03  0.7818608E-02  0.1093470E+00
         21   -1    0    0  501  502  0.00000000000E+00  0.00000000000E+00  0.23820083339E+01  0.23820083339E+01  0.00000000000E+00 0. -1.
         13   -1    0    0    0    0 -0.00000000000E+00 -0.00000000000E+00 -0.10000000000E+04  0.10000000000E+04  0.00000000000E+00 0.  1.
    9000005    2    1    2  501    0 -0.47937557286E+02  0.23659742777E+01 -0.41130920436E+03  0.41411200119E+03  0.31433589536E+01 0.  0.
         13    1    3    3    0    0 -0.18560057828E+02  0.10920133460E+01 -0.17261750318E+03  0.17361587094E+03  0.00000000000E+00 0.  1.
          3    1    3    3  501    0 -0.29377499457E+02  0.12739609317E+01 -0.23869170118E+03  0.24049613024E+03  0.00000000000E+00 0.  1.
         -1    1    1    2    0  502  0.47937557286E+02 -0.23659742777E+01 -0.58630878731E+03  0.58827000715E+03  0.00000000000E+00 0. -1.
<mgrwt>
<rscale>  1 0.30000000E+03</rscale>
<asrwt>0</asrwt>
<pdfrwt beam="1">  1       21 0.86618668E-02 0.30000000E+03</pdfrwt>
<pdfrwt beam="2">0</pdfrwt>
<totfact> 0.11105365E+04</totfact>
</mgrwt>
</event>
<event>
 6    1  0.8397183E-002  0.3000000E+03  0.7818608E-02  0.1093470E+00
         21   -1    0    0  501  502  0.00000000000E+00  0.00000000000E+00  0.17400466070E+01  0.17400466070E+01  0.00000000000E+00 0. -1.
         13   -1    0    0    0    0 -0.00000000000E+00 -0.00000000000E+00 -0.10000000000E+04  0.10000000000E+04  0.00000000000E+00 0.  1.
    9000005    2    1    2  501    0 -0.29919211778E+02  0.24431996460E+02 -0.31330588679E+03  0.31569766086E+03  0.35146395676E+01 0.  0.
         13    1    3    3    0    0 -0.24251919507E+01  0.31393934540E+01 -0.36992579145E+02  0.37204680607E+02  0.00000000000E+00 0.  1.
          1    1    3    3  501    0 -0.27494019827E+02  0.21292603006E+02 -0.27631330764E+03  0.27849298025E+03  0.00000000000E+00 0.  1.
         -3    1    1    2    0  502  0.29919211778E+02 -0.24431996460E+02 -0.68495406660E+03  0.68604238575E+03  0.00000000000E+00 0. -1.
<mgrwt>
<rscale>  1 0.30000000E+03</rscale>
<asrwt>0</asrwt>
<pdfrwt beam="1">  1       21 0.63274556E-02 0.30000000E+03</pdfrwt>
<pdfrwt beam="2">0</pdfrwt>
<totfact> 0.19224357E+04</totfact>
</mgrwt>
</event>
<event>
 6    1  0.8397183E-002  0.3000000E+03  0.7818608E-02  0.1093470E+00
         21   -1    0    0  501  502  0.00000000000E+00  0.00000000000E+00  0.15814692603E+01  0.15814692603E+01  0.00000000000E+00 0. -1.
         13   -1    0    0    0    0 -0.00000000000E+00 -0.00000000000E+00 -0.10000000000E+04  0.10000000000E+04  0.00000000000E+00 0.  1.
    9000005    2    1    2  501    0  0.54160635881E+01  0.37465461402E+02 -0.65081839450E+03  0.65192614003E+03  0.31803925109E+01 0.  0.
         13    1    3    3    0    0  0.33302686077E+01  0.30798065972E+02 -0.52168623331E+03  0.52260514500E+03  0.00000000000E+00 0.  1.
          1    1    3    3  501    0  0.20857949804E+01  0.66673954304E+01 -0.12913216119E+03  0.12932099503E+03  0.00000000000E+00 0.  1.
         -3    1    1    2    0  502 -0.54160635881E+01 -0.37465461402E+02 -0.34760013624E+03  0.34965532923E+03  0.00000000000E+00 0. -1.
<mgrwt>
<rscale>  1 0.30000000E+03</rscale>
<asrwt>0</asrwt>
<pdfrwt beam="1">  1       21 0.57508094E-02 0.30000000E+03</pdfrwt>
<pdfrwt beam="2">0</pdfrwt>
<totfact> 0.22669539E+04</totfact>
</mgrwt>
</event>
<event>
 6    1  0.8397183E-002  0.3000000E+03  0.7818608E-02  0.1093470E+00
         21   -1    0    0  501  502  0.00000000000E+00  0.00000000000E+00  0.16090710718E+01  0.16090710718E+01  0.00000000000E+00 0. -1.
         13   -1    0    0    0    0 -0.00000000000E+00 -0.00000000000E+00 -0.10000000000E+04  0.10000000000E+04  0.00000000000E+00 0.  1.
    9000005    2    1    2  501    0  0.19783411719E+02 -0.32215566528E+02 -0.66555519951E+03  0.66663317809E+03  0.26161844228E+01 0.  0.
         13    1    3    3    0    0  0.13441864646E+02 -0.20698540755E+02 -0.41488788676E+03  0.41562130828E+03  0.00000000000E+00 0.  1.
          1    1    3    3  501    0  0.63415470731E+01 -0.11517025773E+02 -0.25066731276E+03  0.25101186981E+03  0.00000000000E+00 0.  1.
         -1    1    1    2    0  502 -0.19783411719E+02  0.32215566528E+02 -0.33283572941E+03  0.33497589298E+03  0.00000000000E+00 0. -1.
<mgrwt>
<rscale>  1 0.30000000E+03</rscale>
<asrwt>0</asrwt>
<pdfrwt beam="1">  1       21 0.58511799E-02 0.30000000E+03</pdfrwt>
<pdfrwt beam="2">0</pdfrwt>
<totfact> 0.22004017E+04</totfact>
</mgrwt>
</event>
<event>
 6    1  0.8397183E-002  0.3000000E+03  0.7818608E-02  0.1093470E+00
         21   -1    0    0  501  502  0.00000000000E+00  0.00000000000E+00  0.25137282669E+01  0.25137282669E+01  0.00000000000E+00 0. -1.
         13   -1    0    0    0    0 -0.00000000000E+00 -0.00000000000E+00 -0.10000000000E+04  0.10000000000E+04  0.00000000000E+00 0.  1.
    9000005    2    1    2  501    0  0.40196947974E+02  0.28247735816E+02 -0.40534469994E+03  0.40833751682E+03  0.46338609372E+01 0.  0.
         13    1    3    3    0    0  0.24897777490E+02  0.14885946079E+02 -0.23175717042E+03  0.23356557271E+03  0.00000000000E+00 0.  1.
          1    1    3    3  501    0  0.15299170484E+02  0.13361789737E+02 -0.17358752953E+03  0.17477194411E+03  0.00000000000E+00 0.  1.
         -3    1    1    2    0  502 -0.40196947974E+02 -0.28247735816E+02 -0.59214157179E+03  0.59417621145E+03  0.00000000000E+00 0. -1.
<mgrwt>
<rscale>  1 0.30000000E+03</rscale>
<asrwt>0</asrwt>
<pdfrwt beam="1">  1       21 0.91408493E-02 0.30000000E+03</pdfrwt>
<pdfrwt beam="2">0</pdfrwt>
<totfact> 0.10096263E+04</totfact>
</mgrwt>
</event>
<event>
 6    1  0.8397183E-002  0.3000000E+03  0.7818608E-02  0.1093470E+00
         21   -1    0    0  501  502  0.00000000000E+00  0.00000000000E+00  0.18374488828E+01  0.18374488828E+01  0.00000000000E+00 0. -1.
         13   -1    0    0    0    0 -0.00000000000E+00 -0.00000000000E+00 -0.10000000000E+04  0.10000000000E+04  0.00000000000E+00 0.  1.
    9000005    2    1    2  501    0  0.35585351799E+02  0.16981558248E+02 -0.69534089722E+03  0.69645957698E+03  0.15127549032E+01 0.  0.
         13    1    3    3    0    0  0.21458908150E+01  0.11422936525E+01 -0.49430208249E+02  0.49489950189E+02  0.00000000000E+00 0.  1.
          3    1    3    3  501    0  0.33439460984E+02  0.15839264595E+02 -0.64591068897E+03  0.64696962679E+03  0.00000000000E+00 0.  1.
         -1    1    1    2    0  502 -0.35585351799E+02 -0.16981558248E+02 -0.30282165389E+03  0.30537787191E+03  0.00000000000E+00 0. -1.
<mgrwt>
<rscale>  1 0.30000000E+03</rscale>
<asrwt>0</asrwt>
<pdfrwt beam="1">  1       21 0.66816464E-02 0.30000000E+03</pdfrwt>
<pdfrwt beam="2">0</pdfrwt>
<totfact> 0.17494221E+04</totfact>
</mgrwt>
</event>
<event>
 6    1  0.8397183E-002  0.3000000E+03  0.7818608E-02  0.1093470E+00
         21   -1    0    0  501  502  0.00000000000E+00  0.00000000000E+00  0.17793911398E+01  0.17793911398E+01  0.00000000000E+00 0. -1.
         13   -1    0    0    0    0 -0.00000000000E+00 -0.00000000000E+00 -0.10000000000E+04  0.10000000000E+04  0.00000000000E+00 0.  1.
    9000005    2    1    2  501    0  0.23732021698E+02 -0.34766193207E+02 -0.48186775445E+03  0.48371359676E+03  0.32270531855E+01 0.  0.
         13    1    3    3    0    0  0.10328605426E+02 -0.12523999295E+02 -0.17907706972E+03  0.17981136657E+03  0.00000000000E+00 0.  1.
          1    1    3    3  501    0  0.13403416272E+02 -0.22242193913E+02 -0.30279068473E+03  0.30390223019E+03  0.00000000000E+00 0.  1.
         -1    1    1    2    0  502 -0.23732021698E+02  0.34766193207E+02 -0.51635285441E+03  0.51806579438E+03  0.00000000000E+00 0. -1.
<mgrwt>
<rscale>  1 0.30000000E+03</rscale>
<asrwt>0</asrwt>
<pdfrwt beam="1">  1       21 0.64705269E-02 0.30000000E+03</pdfrwt>
<pdfrwt beam="2">0</pdfrwt>
<totfact> 0.18494984E+04</totfact>
</mgrwt>
</event>
<event>
 6    1  0.8397183E-002  0.3000000E+03  0.7818608E-02  0.1093470E+00
         21   -1    0    0  501  502  0.00000000000E+00  0.00000000000E+00  0.17034291110E+01  0.17034291110E+01  0.00000000000E+00 0. -1.
         13   -1    0    0    0    0 -0.00000000000E+00 -0.00000000000E+00 -0.10000000000E+04  0.10000000000E+04  0.00000000000E+00 0.  1.
    9000005    2    1    2  501    0  0.26047822596E+02  0.27556029677E+02 -0.32021558381E+03  0.32256305417E+03  0.84308937098E+01 0.  0.
         13    1    3    3    0    0  0.16758466040E+02  0.20285548464E+02 -0.18982776459E+03  0.19164271410E+03  0.00000000000E+00 0.  1.
          3    1    3    3  501    0  0.92893565555E+01  0.72704812136E+01 -0.13038781923E+03  0.13092034007E+03  0.00000000000E+00 0.  1.
         -1    1    1    2    0  502 -0.26047822596E+02 -0.27556029677E+02 -0.67808098708E+03  0.67914037494E+03  0.00000000000E+00 0. -1.
<mgrwt>
<rscale>  1 0.30000000E+03</rscale>
<asrwt>0</asrwt>
<pdfrwt beam="1">  1       21 0.61943007E-02 0.30000000E+03</pdfrwt>
<pdfrwt beam="2">0</pdfrwt>
<totfact> 0.19943993E+04</totfact>
</mgrwt>
</event>
<event>
 6    1  0.8397183E-002  0.3000000E+03  0.7818608E-02  0.1093470E+00
         21   -1    0    0  501  502  0.00000000000E+00  0.00000000000E+00  0.24153677288E+01  0.24153677288E+01  0.00000000000E+00 0. -1.
         13   -1    0    0    0    0 -0.00000000000E+00 -0.00000000000E+00 -0.10000000000E+04  0.10000000000E+04  0.00000000000E+00 0.  1.
    9000005    2    1    2  501    0 -0.47299788735E+02 -0.11908789033E+02 -0.55547490881E+03  0.55762317260E+03  0.34841110523E+01 0.  0.
         13    1    3    3    0    0 -0.28135444183E-01  0.77274052692E-01 -0.32036225768E+00  0.33074893588E+00  0.00000000000E+00 0.  1.
          3    1    3    3  501    0 -0.47271653290E+02 -0.11986063086E+02 -0.55515454656E+03  0.55729242367E+03  0.00000000000E+00 0.  1.
         -1    1    1    2    0  502  0.47299788735E+02  0.11908789033E+02 -0.44210972346E+03  0.44479219513E+03  0.00000000000E+00 0. -1.
<mgrwt>
<rscale>  1 0.30000000E+03</rscale>
<asrwt>0</asrwt>
<pdfrwt beam="1">  1       21 0.87831739E-02 0.30000000E+03</pdfrwt>
<pdfrwt beam="2">0</pdfrwt>
<totfact> 0.10835797E+04</totfact>
</mgrwt>
</event>
<event>
 6    1  0.8397183E-002  0.3000000E+03  0.7818608E-02  0.1093470E+00
         21   -1    0    0  501  502  0.00000000000E+00  0.00000000000E+00  0.11386599286E+01  0.11386599286E+01  0.00000000000E+00 0. -1.
         13   -1    0    0    0    0 -0.00000000000E+00 -0.00000000000E+00 -0.10000000000E+04  0.10000000000E+04  0.00000000000E+00 0.  1.
    9000005    2    1    2  501    0  0.14012590967E+02  0.29265752457E+02 -0.36814741422E+03  0.36959064652E+03  0.34482500990E+01 0.  0.
         13    1    3    3    0    0  0.12696833707E+02  0.26564101432E+02 -0.34382245588E+03  0.34508077640E+03  0.00000000000E+00 0.  1.
          1    1    3    3  501    0  0.13157572597E+01  0.27016510250E+01 -0.24324958341E+02  0.24509870128E+02  0.00000000000E+00 0.  1.
         -3    1    1    2    0  502 -0.14012590967E+02 -0.29265752457E+02 -0.63071392585E+03  0.63154801341E+03  0.00000000000E+00 0. -1.
<mgrwt>
<rscale>  1 0.30000000E+03</rscale>
<asrwt>0</asrwt>
<pdfrwt beam="1">  1       21 0.41405903E-02 0.30000000E+03</pdfrwt>
<pdfrwt beam="2">0</pdfrwt>
<totfact> 0.39668970E+04</totfact>
</mgrwt>
</event>
<event>
 6    1  0.8397183E-002  0.3000000E+03  0.7818608E-02  0.1093470E+00
         21   -1    0    0  501  502  0.00000000000E+00  0.00000000000E+00  0.42322563380E+01  0.42322563380E+01  0.00000000000E+00 0. -1.
         13   -1    0    0    0    0 -0.00000000000E+00 -0.00000000000E+00 -0.10000000000E+04  0.10000000000E+04  0.00000000000E+00 0.  1.
    9000005    2    1    2  501    0  0.22947324512E+02 -0.60084530671E+02 -0.57096989727E+03  0.57459294153E+03  0.37005865896E+01 0.  0.
         13    1    3    3    0    0  0.27081801606E+01 -0.57978024725E+01 -0.66415465625E+02  0.66723030712E+02  0.00000000000E+00 0.  1.
          3    1    3    3  501    0  0.20239144351E+02 -0.54286728198E+02 -0.50455443164E+03  0.50786991082E+03  0.00000000000E+00 0.  1.
         -1    1    1    2    0  502 -0.22947324512E+02  0.60084530671E+02 -0.42479784640E+03  0.42963931481E+03  0.00000000000E+00 0. -1.
<mgrwt>
<rscale>  1 0.30000000E+03</rscale>
<asrwt>0</asrwt>
<pdfrwt beam="1">  1       21 0.15390056E-01 0.30000000E+03</pdfrwt>
<pdfrwt beam="2">0</pdfrwt>
<totfact> 0.39266484E+03</totfact>
</mgrwt>
</event>
<event>
 6    1  0.8397183E-002  0.3000000E+03  0.7818608E-02  0.1093470E+00
         21   -1    0    0  501  502  0.00000000000E+00  0.00000000000E+00  0.30235183179E+01  0.30235183179E+01  0.00000000000E+00 0. -1.
         13   -1    0    0    0    0 -0.00000000000E+00 -0.00000000000E+00 -0.10000000000E+04  0.10000000000E+04  0.00000000000E+00 0.  1.
    9000005    2    1    2  501    0  0.14843326534E+02  0.47740269959E+02 -0.29133341085E+03  0.29561161488E+03  0.34077637185E+01 0.  0.
         13    1    3    3    0    0  0.93402934970E+01  0.28074431182E+02 -0.18151972948E+03  0.18391527114E+03  0.00000000000E+00 0.  1.
          3    1    3    3  501    0  0.55030330368E+01  0.19665838777E+02 -0.10981368138E+03  0.11169634374E+03  0.00000000000E+00 0.  1.
         -1    1    1    2    0  502 -0.14843326534E+02 -0.47740269959E+02 -0.70564307083E+03  0.70741190344E+03  0.00000000000E+00 0. -1.
<mgrwt>
<rscale>  1 0.30000000E+03</rscale>
<asrwt>0</asrwt>
<pdfrwt beam="1">  1       21 0.10994635E-01 0.30000000E+03</pdfrwt>
<pdfrwt beam="2">0</pdfrwt>
<totfact> 0.72583902E+03</totfact>
</mgrwt>
</event>
<event>
 6    1  0.8397183E-002  0.3000000E+03  0.7818608E-02  0.1093470E+00
         21   -1    0    0  501  502  0.00000000000E+00  0.00000000000E+00  0.26161298689E+01  0.26161298689E+01  0.00000000000E+00 0. -1.
         13   -1    0    0    0    0 -0.00000000000E+00 -0.00000000000E+00 -0.10000000000E+04  0.10000000000E+04  0.00000000000E+00 0.  1.
    9000005    2    1    2  501    0  0.13326057975E+02  0.48473249264E+02 -0.41079483029E+03  0.41387684854E+03  0.37965050989E+01 0.  0.
         13    1    3    3    0    0  0.33475971071E+01  0.16027656397E+02 -0.12198249429E+03  0.12307648471E+03  0.00000000000E+00 0.  1.
          1    1    3    3  501    0  0.99784608676E+01  0.32445592867E+02 -0.28881233600E+03  0.29080036383E+03  0.00000000000E+00 0.  1.
         -1    1    1    2    0  502 -0.13326057975E+02 -0.48473249264E+02 -0.58658903984E+03  0.58873928133E+03  0.00000000000E+00 0. -1.
<mgrwt>
<rscale>  1 0.30000000E+03</rscale>
<asrwt>0</asrwt>
<pdfrwt beam="1">  1       21 0.95132196E-02 0.30000000E+03</pdfrwt>
<pdfrwt beam="2">0</pdfrwt>
<totfact> 0.94043975E+03</totfact>
</mgrwt>
</event>
<event>
 6    1  0.8397183E-002  0.3000000E+03  0.7818608E-02  0.1093470E+00
         21   -1    0    0  501  502  0.00000000000E+00  0.00000000000E+00  0.78450478956E+01  0.78450478956E+01  0.00000000000E+00 0. -1.
         13   -1    0    0    0    0 -0.00000000000E+00 -0.00000000000E+00 -0.10000000000E+04  0.10000000000E+04  0.00000000000E+00 0.  1.
    9000005    2    1    2  501    0  0.53346821594E+02  0.70629158677E+02 -0.51195275119E+03  0.51955362345E+03  0.24467843069E+01 0.  0.
         13    1    3    3    0    0  0.32088616484E+02  0.44455149778E+02 -0.31689012782E+03  0.32159802979E+03  0.00000000000E+00 0.  1.
          1    1    3    3  501    0  0.21258205109E+02  0.26174008899E+02 -0.19506262337E+03  0.19795559366E+03  0.00000000000E+00 0.  1.
         -1    1    1    2    0  502 -0.53346821594E+02 -0.70629158677E+02 -0.48020220091E+03  0.48829142445E+03  0.00000000000E+00 0. -1.
<mgrwt>
<rscale>  1 0.30000000E+03</rscale>
<asrwt>0</asrwt>
<pdfrwt beam="1">  1       21 0.28527507E-01 0.30000000E+03</pdfrwt>
<pdfrwt beam="2">0</pdfrwt>
<totfact> 0.12020323E+03</totfact>
</mgrwt>
</event>
<event>
 6    1  0.8397183E-002  0.3000000E+03  0.7818608E-02  0.1093470E+00
         21   -1    0    0  501  502  0.00000000000E+00  0.00000000000E+00  0.29848425878E+01  0.29848425878E+01  0.00000000000E+00 0. -1.
         13   -1    0    0    0    0 -0.00000000000E+00 -0.00000000000E+00 -0.10000000000E+04  0.10000000000E+04  0.00000000000E+00 0.  1.
    9000005    2    1    2  501    0  0.51617242092E+02 -0.17280124902E+02 -0.53665583199E+03  0.53941861118E+03  0.31644401300E+01 0.  0.
         13    1    3    3    0    0  0.46042988002E+02 -0.14387398227E+02 -0.47738104738E+03  0.47981206567E+03  0.00000000000E+00 0.  1.
          1    1    3    3  501    0  0.55742540906E+01 -0.28927266755E+01 -0.59274784609E+02  0.59606545502E+02  0.00000000000E+00 0.  1.
         -1    1    1    2    0  502 -0.51617242092E+02  0.17280124902E+02 -0.46035932543E+03  0.46356623141E+03  0.00000000000E+00 0. -1.
<mgrwt>
<rscale>  1 0.30000000E+03</rscale>
<asrwt>0</asrwt>
<pdfrwt beam="1">  1       21 0.10853996E-01 0.30000000E+03</pdfrwt>
<pdfrwt beam="2">0</pdfrwt>
<totfact> 0.74283730E+03</totfact>
</mgrwt>
</event>
<event>
 6    1  0.8397183E-002  0.3000000E+03  0.7818608E-02  0.1093470E+00
         21   -1    0    0  501  502  0.00000000000E+00  0.00000000000E+00  0.12654367108E+01  0.12654367108E+01  0.00000000000E+00 0. -1.
         13   -1    0    0    0    0 -0.00000000000E+00 -0.00000000000E+00 -0.10000000000E+04  0.10000000000E+04  0.00000000000E+00 0.  1.
    9000005    2    1    2  501    0 -0.12599783857E+02 -0.33004224332E+02 -0.52913510701E+03  0.53033902768E+03  0.52430374786E+01 0.  0.
         13    1    3    3    0    0 -0.11074649173E+02 -0.25731826667E+02 -0.44248972310E+03  0.44337560804E+03  0.00000000000E+00 0.  1.
          1    1    3    3  501    0 -0.15251346841E+01 -0.72723976650E+01 -0.86645383910E+02  0.86963419645E+02  0.00000000000E+00 0.  1.
         -3    1    1    2    0  502  0.12599783857E+02  0.33004224332E+02 -0.46959945628E+03  0.47092640903E+03  0.00000000000E+00 0. -1.
<mgrwt>
<rscale>  1 0.30000000E+03</rscale>
<asrwt>0</asrwt>
<pdfrwt beam="1">  1       21 0.46015977E-02 0.30000000E+03</pdfrwt>
<pdfrwt beam="2">0</pdfrwt>
<totfact> 0.33176204E+04</totfact>
</mgrwt>
</event>
<event>
 6    1  0.8397183E-002  0.3000000E+03  0.7818608E-02  0.1093470E+00
         21   -1    0    0  501  502  0.00000000000E+00  0.00000000000E+00  0.16279530693E+01  0.16279530693E+01  0.00000000000E+00 0. -1.
         13   -1    0    0    0    0 -0.00000000000E+00 -0.00000000000E+00 -0.10000000000E+04  0.10000000000E+04  0.00000000000E+00 0.  1.
    9000005    2    1    2  501    0 -0.19081776525E+02  0.25784018985E+02 -0.19765486339E+03  0.20026852195E+03  0.33325712250E+01 0.  0.
         13    1    3    3    0    0 -0.13287156596E+02  0.17718823580E+02 -0.12652828543E+03  0.12845198423E+03  0.00000000000E+00 0.  1.
          1    1    3    3  501    0 -0.57946199287E+01  0.80651954044E+01 -0.71126577963E+02  0.71816537718E+02  0.00000000000E+00 0.  1.
         -1    1    1    2    0  502  0.19081776525E+02 -0.25784018985E+02 -0.80071718354E+03  0.80135943112E+03  0.00000000000E+00 0. -1.
<mgrwt>
<rscale>  1 0.30000000E+03</rscale>
<asrwt>0</asrwt>
<pdfrwt beam="1">  1       21 0.59198418E-02 0.30000000E+03</pdfrwt>
<pdfrwt beam="2">0</pdfrwt>
<totfact> 0.21566026E+04</totfact>
</mgrwt>
</event>
<event>
 6    1  0.8397183E-002  0.3000000E+03  0.7818608E-02  0.1093470E+00
         21   -1    0    0  501  502  0.00000000000E+00  0.00000000000E+00  0.90106113366E+01  0.90106113366E+01  0.00000000000E+00 0. -1.
         13   -1    0    0    0    0 -0.00000000000E+00 -0.00000000000E+00 -0.10000000000E+04  0.10000000000E+04  0.00000000000E+00 0.  1.
    9000005    2    1    2  501    0 -0.90730756167E+02 -0.25010560768E+02 -0.55713927148E+03  0.56506971161E+03  0.64817355893E+01 0.  0.
         13    1    3    3    0    0 -0.14258979333E+02 -0.20719365324E+01 -0.94486785999E+02  0.95579098871E+02  0.00000000000E+00 0.  1.
          1    1    3    3  501    0 -0.76471776834E+02 -0.22938624235E+02 -0.46265248548E+03  0.46949061274E+03  0.00000000000E+00 0.  1.
         -1    1    1    2    0  502  0.90730756167E+02  0.25010560768E+02 -0.43385011718E+03  0.44394089972E+03  0.00000000000E+00 0. -1.
<mgrwt>
<rscale>  1 0.30000000E+03</rscale>
<asrwt>0</asrwt>
<pdfrwt beam="1">  1       21 0.32765929E-01 0.30000000E+03</pdfrwt>
<pdfrwt beam="2">0</pdfrwt>
<totfact> 0.91028718E+02</totfact>
</mgrwt>
</event>
<event>
 6    1  0.8397183E-002  0.3000000E+03  0.7818608E-02  0.1093470E+00
         21   -1    0    0  501  502  0.00000000000E+00  0.00000000000E+00  0.11371232979E+01  0.11371232979E+01  0.00000000000E+00 0. -1.
         13   -1    0    0    0    0 -0.00000000000E+00 -0.00000000000E+00 -0.10000000000E+04  0.10000000000E+04  0.00000000000E+00 0.  1.
    9000005    2    1    2  501    0  0.18630716022E+02  0.24197186113E+02 -0.29090294710E+03  0.29251884148E+03  0.31844305268E+01 0.  0.
         13    1    3    3    0    0  0.42225766123E+01  0.47290047008E+01 -0.72668079596E+02  0.72944111695E+02  0.00000000000E+00 0.  1.
          1    1    3    3  501    0  0.14408139410E+02  0.19468181412E+02 -0.21823486750E+03  0.21957472979E+03  0.00000000000E+00 0.  1.
         -3    1    1    2    0  502 -0.18630716022E+02 -0.24197186113E+02 -0.70795992961E+03  0.70861828182E+03  0.00000000000E+00 0. -1.
<mgrwt>
<rscale>  1 0.30000000E+03</rscale>
<asrwt>0</asrwt>
<pdfrwt beam="1">  1       21 0.41350025E-02 0.30000000E+03</pdfrwt>
<pdfrwt beam="2">0</pdfrwt>
<totfact> 0.39759452E+04</totfact>
</mgrwt>
</event>
<event>
 6    1  0.8397183E-002  0.3000000E+03  0.7818608E-02  0.1093470E+00
         21   -1    0    0  501  502  0.00000000000E+00  0.00000000000E+00  0.17106955676E+01  0.17106955676E+01  0.00000000000E+00 0. -1.
         13   -1    0    0    0    0 -0.00000000000E+00 -0.00000000000E+00 -0.10000000000E+04  0.10000000000E+04  0.00000000000E+00 0.  1.
    9000005    2    1    2  501    0  0.38412338602E+02  0.10872690810E+01 -0.68291810286E+03  0.68400692679E+03  0.34133237790E+01 0.  0.
         13    1    3    3    0    0  0.15004055708E+02 -0.12199755055E+01 -0.27115635119E+03  0.27157388832E+03  0.00000000000E+00 0.  1.
          3    1    3    3  501    0  0.23408282894E+02  0.23072445864E+01 -0.41176175167E+03  0.41243303848E+03  0.00000000000E+00 0.  1.
         -3    1    1    2    0  502 -0.38412338602E+02 -0.10872690810E+01 -0.31537120157E+03  0.31770376877E+03  0.00000000000E+00 0. -1.
<mgrwt>
<rscale>  1 0.30000000E+03</rscale>
<asrwt>0</asrwt>
<pdfrwt beam="1">  1       21 0.62207243E-02 0.30000000E+03</pdfrwt>
<pdfrwt beam="2">0</pdfrwt>
<totfact> 0.19797900E+04</totfact>
</mgrwt>
</event>
<event>
 6    1  0.8397183E-002  0.3000000E+03  0.7818608E-02  0.1093470E+00
         21   -1    0    0  501  502  0.00000000000E+00  0.00000000000E+00  0.17240018313E+01  0.17240018313E+01  0.00000000000E+00 0. -1.
         13   -1    0    0    0    0 -0.00000000000E+00 -0.00000000000E+00 -0.10000000000E+04  0.10000000000E+04  0.00000000000E+00 0.  1.
    9000005    2    1    2  501    0 -0.30909023643E+02 -0.15647432200E+02 -0.22432633001E+03  0.22699934189E+03  0.24877713025E+01 0.  0.
         13    1    3    3    0    0 -0.18619818830E+02 -0.10546450695E+02 -0.14272880853E+03  0.14432407305E+03  0.00000000000E+00 0.  1.
          3    1    3    3  501    0 -0.12289204814E+02 -0.51009815042E+01 -0.81597521480E+02  0.82675268847E+02  0.00000000000E+00 0.  1.
         -3    1    1    2    0  502  0.30909023643E+02  0.15647432200E+02 -0.77394966816E+03  0.77472465994E+03  0.00000000000E+00 0. -1.
<mgrwt>
<rscale>  1 0.30000000E+03</rscale>
<asrwt>0</asrwt>
<pdfrwt beam="1">  1       21 0.62691108E-02 0.30000000E+03</pdfrwt>
<pdfrwt beam="2">0</pdfrwt>
<totfact> 0.19534643E+04</totfact>
</mgrwt>
</event>
<event>
 6    1  0.8397183E-002  0.3000000E+03  0.7818608E-02  0.1093470E+00
         21   -1    0    0  501  502  0.00000000000E+00  0.00000000000E+00  0.12743962107E+01  0.12743962107E+01  0.00000000000E+00 0. -1.
         13   -1    0    0    0    0 -0.00000000000E+00 -0.00000000000E+00 -0.10000000000E+04  0.10000000000E+04  0.00000000000E+00 0.  1.
    9000005    2    1    2  501    0  0.30391664674E+02 -0.18545511392E+02 -0.51355675096E+03  0.51480095908E+03  0.34498902077E+01 0.  0.
         13    1    3    3    0    0  0.22803341461E+02 -0.15349752968E+02 -0.38359622447E+03  0.38457986261E+03  0.00000000000E+00 0.  1.
          3    1    3    3  501    0  0.75883232124E+01 -0.31957584241E+01 -0.12996052649E+03  0.13022109648E+03  0.00000000000E+00 0.  1.
         -3    1    1    2    0  502 -0.30391664674E+02  0.18545511392E+02 -0.48516885283E+03  0.48647343713E+03  0.00000000000E+00 0. -1.
<mgrwt>
<rscale>  1 0.30000000E+03</rscale>
<asrwt>0</asrwt>
<pdfrwt beam="1">  1       21 0.46341778E-02 0.30000000E+03</pdfrwt>
<pdfrwt beam="2">0</pdfrwt>
<totfact> 0.32780859E+04</totfact>
</mgrwt>
</event>
<event>
 6    1  0.8397183E-002  0.3000000E+03  0.7818608E-02  0.1093470E+00
         21   -1    0    0  501  502  0.00000000000E+00  0.00000000000E+00  0.31130620475E+01  0.31130620475E+01  0.00000000000E+00 0. -1.
         13   -1    0    0    0    0 -0.00000000000E+00 -0.00000000000E+00 -0.10000000000E+04  0.10000000000E+04  0.00000000000E+00 0.  1.
    9000005    2    1    2  501    0 -0.36546819144E+02  0.40754558045E+02 -0.40548803583E+03  0.40918607544E+03  0.40116256454E+01 0.  0.
         13    1    3    3    0    0 -0.15860958290E+02  0.17986865549E+02 -0.19252864485E+03  0.19401643337E+03  0.00000000000E+00 0.  1.
          3    1    3    3  501    0 -0.20685860855E+02  0.22767692496E+02 -0.21295939098E+03  0.21516964207E+03  0.00000000000E+00 0.  1.
         -1    1    1    2    0  502  0.36546819144E+02 -0.40754558045E+02 -0.59139890212E+03  0.59392698661E+03  0.00000000000E+00 0. -1.
<mgrwt>
<rscale>  1 0.30000000E+03</rscale>
<asrwt>0</asrwt>
<pdfrwt beam="1">  1       21 0.11320249E-01 0.30000000E+03</pdfrwt>
<pdfrwt beam="2">0</pdfrwt>
<totfact> 0.68866412E+03</totfact>
</mgrwt>
</event>
<event>
 6    1  0.8397183E-002  0.3000000E+03  0.7818608E-02  0.1093470E+00
         21   -1    0    0  501  502  0.00000000000E+00  0.00000000000E+00  0.43946324140E+01  0.43946324140E+01  0.00000000000E+00 0. -1.
         13   -1    0    0    0    0 -0.00000000000E+00 -0.00000000000E+00 -0.10000000000E+04  0.10000000000E+04  0.00000000000E+00 0.  1.
    9000005    2    1    2  501    0  0.13166197519E+02 -0.60471561148E+02 -0.67687416005E+03  0.67971056887E+03  0.42036198264E+01 0.  0.
         13    1    3    3    0    0  0.12960502765E+02 -0.57931823955E+02 -0.65626915592E+03  0.65894861398E+03  0.00000000000E+00 0.  1.
          1    1    3    3  501    0  0.20569475418E+00 -0.25397371932E+01 -0.20605004136E+02  0.20761954888E+02  0.00000000000E+00 0.  1.
         -1    1    1    2    0  502 -0.13166197519E+02  0.60471561148E+02 -0.31873120753E+03  0.32468406354E+03  0.00000000000E+00 0. -1.
<mgrwt>
<rscale>  1 0.30000000E+03</rscale>
<asrwt>0</asrwt>
<pdfrwt beam="1">  1       21 0.15980515E-01 0.30000000E+03</pdfrwt>
<pdfrwt beam="2">0</pdfrwt>
<totfact> 0.36609696E+03</totfact>
</mgrwt>
</event>
<event>
 6    1  0.8397183E-002  0.3000000E+03  0.7818608E-02  0.1093470E+00
         21   -1    0    0  501  502  0.00000000000E+00  0.00000000000E+00  0.95637429846E+00  0.95637429846E+00  0.00000000000E+00 0. -1.
         13   -1    0    0    0    0 -0.00000000000E+00 -0.00000000000E+00 -0.10000000000E+04  0.10000000000E+04  0.00000000000E+00 0.  1.
    9000005    2    1    2  501    0 -0.75585006199E+01 -0.29228510135E+02 -0.40048118018E+03  0.40163305761E+03  0.35356118906E+01 0.  0.
         13    1    3    3    0    0 -0.35182582907E+01 -0.19584595807E+02 -0.25230059086E+03  0.25308402297E+03  0.00000000000E+00 0.  1.
          1    1    3    3  501    0 -0.40402423291E+01 -0.96439143275E+01 -0.14818058933E+03  0.14854903465E+03  0.00000000000E+00 0.  1.
         -1    1    1    2    0  502  0.75585006199E+01  0.29228510135E+02 -0.59856244552E+03  0.59932331668E+03  0.00000000000E+00 0. -1.
<mgrwt>
<rscale>  1 0.30000000E+03</rscale>
<asrwt>0</asrwt>
<pdfrwt beam="1">  1       21 0.34777321E-02 0.30000000E+03</pdfrwt>
<pdfrwt beam="2">0</pdfrwt>
<totfact> 0.53182031E+04</totfact>
</mgrwt>
</event>
<event>
 6    1  0.8397183E-002  0.3000000E+03  0.7818608E-02  0.1093470E+00
         21   -1    0    0  501  502  0.00000000000E+00  0.00000000000E+00  0.23767286511E+01  0.23767286511E+01  0.00000000000E+00 0. -1.
         13   -1    0    0    0    0 -0.00000000000E+00 -0.00000000000E+00 -0.10000000000E+04  0.10000000000E+04  0.00000000000E+00 0.  1.
    9000005    2    1    2  501    0  0.21014988829E+02  0.26251418037E+02 -0.13724808668E+03  0.14134465892E+03  0.32416977988E+01 0.  0.
         13    1    3    3    0    0  0.15744681058E+02  0.17361613893E+02 -0.96859068034E+02  0.99654401202E+02  0.00000000000E+00 0.  1.
          3    1    3    3  501    0  0.52703077715E+01  0.88898041439E+01 -0.40389018644E+02  0.41690257720E+02  0.00000000000E+00 0.  1.
         -3    1    1    2    0  502 -0.21014988829E+02 -0.26251418037E+02 -0.86037518467E+03  0.86103206973E+03  0.00000000000E+00 0. -1.
<mgrwt>
<rscale>  1 0.30000000E+03</rscale>
<asrwt>0</asrwt>
<pdfrwt beam="1">  1       21 0.86426679E-02 0.30000000E+03</pdfrwt>
<pdfrwt beam="2">0</pdfrwt>
<totfact> 0.11148962E+04</totfact>
</mgrwt>
</event>
<event>
 6    1  0.8397183E-002  0.3000000E+03  0.7818608E-02  0.1093470E+00
         21   -1    0    0  501  502  0.00000000000E+00  0.00000000000E+00  0.10707029682E+01  0.10707029682E+01  0.00000000000E+00 0. -1.
         13   -1    0    0    0    0 -0.00000000000E+00 -0.00000000000E+00 -0.10000000000E+04  0.10000000000E+04  0.00000000000E+00 0.  1.
    9000005    2    1    2  501    0  0.21460694171E+02 -0.23407426536E+02 -0.38657604914E+03  0.38789457068E+03  0.35619065854E+01 0.  0.
         13    1    3    3    0    0  0.13391685598E+02 -0.12002928577E+02 -0.21562298365E+03  0.21637162156E+03  0.00000000000E+00 0.  1.
          3    1    3    3  501    0  0.80690085733E+01 -0.11404497960E+02 -0.17095306549E+03  0.17152294912E+03  0.00000000000E+00 0.  1.
         -1    1    1    2    0  502 -0.21460694171E+02  0.23407426536E+02 -0.61235324789E+03  0.61317613229E+03  0.00000000000E+00 0. -1.
<mgrwt>
<rscale>  1 0.30000000E+03</rscale>
<asrwt>0</asrwt>
<pdfrwt beam="1">  1       21 0.38934735E-02 0.30000000E+03</pdfrwt>
<pdfrwt beam="2">0</pdfrwt>
<totfact> 0.44001445E+04</totfact>
</mgrwt>
</event>
<event>
 6    1  0.8397183E-002  0.3000000E+03  0.7818608E-02  0.1093470E+00
         21   -1    0    0  501  502  0.00000000000E+00  0.00000000000E+00  0.18527675011E+01  0.18527675011E+01  0.00000000000E+00 0. -1.
         13   -1    0    0    0    0 -0.00000000000E+00 -0.00000000000E+00 -0.10000000000E+04  0.10000000000E+04  0.00000000000E+00 0.  1.
    9000005    2    1    2  501    0 -0.19932622089E+02 -0.37965288306E+02 -0.53558582740E+03  0.53730812376E+03  0.30280041971E+01 0.  0.
         13    1    3    3    0    0 -0.31862495972E+01 -0.59260082986E+01 -0.98717921119E+02  0.98946943919E+02  0.00000000000E+00 0.  1.
          1    1    3    3  501    0 -0.16746372492E+02 -0.32039280007E+02 -0.43686790628E+03  0.43836117984E+03  0.00000000000E+00 0.  1.
         -1    1    1    2    0  502  0.19932622089E+02  0.37965288306E+02 -0.46256140510E+03  0.46454464374E+03  0.00000000000E+00 0. -1.
<mgrwt>
<rscale>  1 0.30000000E+03</rscale>
<asrwt>0</asrwt>
<pdfrwt beam="1">  1       21 0.67373506E-02 0.30000000E+03</pdfrwt>
<pdfrwt beam="2">0</pdfrwt>
<totfact> 0.17244050E+04</totfact>
</mgrwt>
</event>
<event>
 6    1  0.8397183E-002  0.3000000E+03  0.7818608E-02  0.1093470E+00
         21   -1    0    0  501  502  0.00000000000E+00  0.00000000000E+00  0.24732593756E+01  0.24732593756E+01  0.00000000000E+00 0. -1.
         13   -1    0    0    0    0 -0.00000000000E+00 -0.00000000000E+00 -0.10000000000E+04  0.10000000000E+04  0.00000000000E+00 0.  1.
    9000005    2    1    2  501    0  0.38577495346E+02 -0.42768439932E+01 -0.18714289095E+03  0.19116043539E+03  0.36518331947E+01 0.  0.
         13    1    3    3    0    0  0.34336224651E+02 -0.29453002798E+01 -0.16162860789E+03  0.16526178628E+03  0.00000000000E+00 0.  1.
          1    1    3    3  501    0  0.42412706944E+01 -0.13315437134E+01 -0.25514283061E+02  0.25898649113E+02  0.00000000000E+00 0.  1.
         -3    1    1    2    0  502 -0.38577495346E+02  0.42768439932E+01 -0.81038384968E+03  0.81131282398E+03  0.00000000000E+00 0. -1.
<mgrwt>
<rscale>  1 0.30000000E+03</rscale>
<asrwt>0</asrwt>
<pdfrwt beam="1">  1       21 0.89936894E-02 0.30000000E+03</pdfrwt>
<pdfrwt beam="2">0</pdfrwt>
<totfact> 0.10390994E+04</totfact>
</mgrwt>
</event>
<event>
 6    1  0.8397183E-002  0.3000000E+03  0.7818608E-02  0.1093470E+00
         21   -1    0    0  501  502  0.00000000000E+00  0.00000000000E+00  0.39986647208E+01  0.39986647208E+01  0.00000000000E+00 0. -1.
         13   -1    0    0    0    0 -0.00000000000E+00 -0.00000000000E+00 -0.10000000000E+04  0.10000000000E+04  0.00000000000E+00 0.  1.
    9000005    2    1    2  501    0  0.27473649027E+02 -0.17396267543E+02 -0.68139640348E+02  0.75567322921E+02  0.31588275354E+01 0.  0.
         13    1    3    3    0    0  0.11949191410E+02 -0.93179536376E+01 -0.32871016244E+02  0.36195457508E+02  0.00000000000E+00 0.  1.
          3    1    3    3  501    0  0.15524457618E+02 -0.80783139056E+01 -0.35268624104E+02  0.39371865413E+02  0.00000000000E+00 0.  1.
         -3    1    1    2    0  502 -0.27473649027E+02  0.17396267543E+02 -0.92786169493E+03  0.92843134180E+03  0.00000000000E+00 0. -1.
<mgrwt>
<rscale>  1 0.30000000E+03</rscale>
<asrwt>0</asrwt>
<pdfrwt beam="1">  1       21 0.14540630E-01 0.30000000E+03</pdfrwt>
<pdfrwt beam="2">0</pdfrwt>
<totfact> 0.43616132E+03</totfact>
</mgrwt>
</event>
<event>
 6    1  0.8397183E-002  0.3000000E+03  0.7818608E-02  0.1093470E+00
         21   -1    0    0  501  502  0.00000000000E+00  0.00000000000E+00  0.26331105069E+01  0.26331105069E+01  0.00000000000E+00 0. -1.
         13   -1    0    0    0    0 -0.00000000000E+00 -0.00000000000E+00 -0.10000000000E+04  0.10000000000E+04  0.00000000000E+00 0.  1.
    9000005    2    1    2  501    0  0.39109613348E+02 -0.13065913179E+02 -0.20183848585E+03  0.20603677550E+03  0.34782962332E+01 0.  0.
         13    1    3    3    0    0  0.12826408291E+02 -0.57629723049E+01 -0.64405406399E+02  0.65922568009E+02  0.00000000000E+00 0.  1.
          3    1    3    3  501    0  0.26283205058E+02 -0.73029408738E+01 -0.13743307945E+03  0.14011420749E+03  0.00000000000E+00 0.  1.
         -3    1    1    2    0  502 -0.39109613348E+02  0.13065913179E+02 -0.79552840365E+03  0.79659633501E+03  0.00000000000E+00 0. -1.
<mgrwt>
<rscale>  1 0.30000000E+03</rscale>
<asrwt>0</asrwt>
<pdfrwt beam="1">  1       21 0.95749675E-02 0.30000000E+03</pdfrwt>
<pdfrwt beam="2">0</pdfrwt>
<totfact> 0.92965829E+03</totfact>
</mgrwt>
</event>
<event>
 6    1  0.8397183E-002  0.3000000E+03  0.7818608E-02  0.1093470E+00
         21   -1    0    0  501  502  0.00000000000E+00  0.00000000000E+00  0.50109314083E+01  0.50109314083E+01  0.00000000000E+00 0. -1.
         13   -1    0    0    0    0 -0.00000000000E+00 -0.00000000000E+00 -0.10000000000E+04  0.10000000000E+04  0.00000000000E+00 0.  1.
    9000005    2    1    2  501    0 -0.18601956516E+02  0.41528964218E+02 -0.88233278182E+03  0.88351143921E+03  0.32615465416E+01 0.  0.
         13    1    3    3    0    0 -0.31567737677E+01  0.44753452994E+01 -0.10396555497E+03  0.10410970443E+03  0.00000000000E+00 0.  1.
          1    1    3    3  501    0 -0.15445182748E+02  0.37053618918E+02 -0.77836722685E+03  0.77940173478E+03  0.00000000000E+00 0.  1.
         -3    1    1    2    0  502  0.18601956516E+02 -0.41528964218E+02 -0.11265628677E+03  0.12149949220E+03  0.00000000000E+00 0. -1.
<mgrwt>
<rscale>  1 0.30000000E+03</rscale>
<asrwt>0</asrwt>
<pdfrwt beam="1">  1       21 0.18221607E-01 0.30000000E+03</pdfrwt>
<pdfrwt beam="2">0</pdfrwt>
<totfact> 0.28627657E+03</totfact>
</mgrwt>
</event>
<event>
 6    1  0.8397183E-002  0.3000000E+03  0.7818608E-02  0.1093470E+00
         21   -1    0    0  501  502  0.00000000000E+00  0.00000000000E+00  0.38579700693E+01  0.38579700693E+01  0.00000000000E+00 0. -1.
         13   -1    0    0    0    0 -0.00000000000E+00 -0.00000000000E+00 -0.10000000000E+04  0.10000000000E+04  0.00000000000E+00 0.  1.
    9000005    2    1    2  501    0  0.62012816296E+02 -0.27214961049E+01 -0.49205594793E+03  0.49596450290E+03  0.29557263146E+01 0.  0.
         13    1    3    3    0    0  0.31880292684E+02 -0.21221792856E+01 -0.26348111289E+03  0.26541129131E+03  0.00000000000E+00 0.  1.
          1    1    3    3  501    0  0.30132523611E+02 -0.59931681929E+00 -0.22857483504E+03  0.23055321159E+03  0.00000000000E+00 0.  1.
         -3    1    1    2    0  502 -0.62012816296E+02  0.27214961049E+01 -0.50408608200E+03  0.50789346717E+03  0.00000000000E+00 0. -1.
<mgrwt>
<rscale>  1 0.30000000E+03</rscale>
<asrwt>0</asrwt>
<pdfrwt beam="1">  1       21 0.14029012E-01 0.30000000E+03</pdfrwt>
<pdfrwt beam="2">0</pdfrwt>
<totfact> 0.46589212E+03</totfact>
</mgrwt>
</event>
<event>
 6    1  0.8397183E-002  0.3000000E+03  0.7818608E-02  0.1093470E+00
         21   -1    0    0  501  502  0.00000000000E+00  0.00000000000E+00  0.14067386660E+01  0.14067386660E+01  0.00000000000E+00 0. -1.
         13   -1    0    0    0    0 -0.00000000000E+00 -0.00000000000E+00 -0.10000000000E+04  0.10000000000E+04  0.00000000000E+00 0.  1.
    9000005    2    1    2  501    0  0.10837136654E+02  0.32669211453E+02 -0.30447680647E+03  0.30643740566E+03  0.36106787145E+01 0.  0.
         13    1    3    3    0    0  0.15285416602E+00  0.10751773297E+00 -0.54616198089E+01  0.54648161356E+01  0.00000000000E+00 0.  1.
          1    1    3    3  501    0  0.10684282488E+02  0.32561693720E+02 -0.29901518666E+03  0.30097258952E+03  0.00000000000E+00 0.  1.
         -1    1    1    2    0  502 -0.10837136654E+02 -0.32669211453E+02 -0.69411645487E+03  0.69496933301E+03  0.00000000000E+00 0. -1.
<mgrwt>
<rscale>  1 0.30000000E+03</rscale>
<asrwt>0</asrwt>
<pdfrwt beam="1">  1       21 0.51154241E-02 0.30000000E+03</pdfrwt>
<pdfrwt beam="2">0</pdfrwt>
<totfact> 0.27704876E+04</totfact>
</mgrwt>
</event>
<event>
 6    1  0.8397183E-002  0.3000000E+03  0.7818608E-02  0.1093470E+00
         21   -1    0    0  501  502  0.00000000000E+00  0.00000000000E+00  0.24323444044E+01  0.24323444044E+01  0.00000000000E+00 0. -1.
         13   -1    0    0    0    0 -0.00000000000E+00 -0.00000000000E+00 -0.10000000000E+04  0.10000000000E+04  0.00000000000E+00 0.  1.
    9000005    2    1    2  501    0 -0.64983125713E+01 -0.40011658452E+02 -0.21563878001E+03  0.21945346388E+03  0.40716685468E+01 0.  0.
         13    1    3    3    0    0 -0.67262973298E+01 -0.39115239306E+02 -0.20744601356E+03  0.21120864936E+03  0.00000000000E+00 0.  1.
          1    1    3    3  501    0  0.22798475849E+00 -0.89641914582E+00 -0.81927664493E+01  0.82448145175E+01  0.00000000000E+00 0.  1.
         -1    1    1    2    0  502  0.64983125713E+01  0.40011658452E+02 -0.78192887558E+03  0.78297888053E+03  0.00000000000E+00 0. -1.
<mgrwt>
<rscale>  1 0.30000000E+03</rscale>
<asrwt>0</asrwt>
<pdfrwt beam="1">  1       21 0.88449074E-02 0.30000000E+03</pdfrwt>
<pdfrwt beam="2">0</pdfrwt>
<totfact> 0.10702412E+04</totfact>
</mgrwt>
</event>
<event>
 6    1  0.8397183E-002  0.3000000E+03  0.7818608E-02  0.1093470E+00
         21   -1    0    0  501  502  0.00000000000E+00  0.00000000000E+00  0.25405720354E+01  0.25405720354E+01  0.00000000000E+00 0. -1.
         13   -1    0    0    0    0 -0.00000000000E+00 -0.00000000000E+00 -0.10000000000E+04  0.10000000000E+04  0.00000000000E+00 0.  1.
    9000005    2    1    2  501    0 -0.99243452388E+01  0.48846134861E+02 -0.57043715643E+03  0.57261911653E+03  0.31089640930E+01 0.  0.
         13    1    3    3    0    0 -0.73281943877E+01  0.40922041933E+02 -0.46757593989E+03  0.46942046772E+03  0.00000000000E+00 0.  1.
          1    1    3    3  501    0 -0.25961508511E+01  0.79240929280E+01 -0.10286121654E+03  0.10319864881E+03  0.00000000000E+00 0.  1.
         -3    1    1    2    0  502  0.99243452388E+01 -0.48846134861E+02 -0.42702227154E+03  0.42992145551E+03  0.00000000000E+00 0. -1.
<mgrwt>
<rscale>  1 0.30000000E+03</rscale>
<asrwt>0</asrwt>
<pdfrwt beam="1">  1       21 0.92384632E-02 0.30000000E+03</pdfrwt>
<pdfrwt beam="2">0</pdfrwt>
<totfact> 0.99076680E+03</totfact>
</mgrwt>
</event>
<event>
 6    1  0.8397183E-002  0.3000000E+03  0.7818608E-02  0.1093470E+00
         21   -1    0    0  501  502  0.00000000000E+00  0.00000000000E+00  0.16221529538E+01  0.16221529538E+01  0.00000000000E+00 0. -1.
         13   -1    0    0    0    0 -0.00000000000E+00 -0.00000000000E+00 -0.10000000000E+04  0.10000000000E+04  0.00000000000E+00 0.  1.
    9000005    2    1    2  501    0 -0.27217545797E+02  0.29310504229E+02 -0.44858601475E+03  0.45037723523E+03  0.32157310613E+01 0.  0.
         13    1    3    3    0    0 -0.23875809905E+02  0.25790268929E+02 -0.40488370832E+03  0.40640621247E+03  0.00000000000E+00 0.  1.
          1    1    3    3  501    0 -0.33417358922E+01  0.35202352998E+01 -0.43702306425E+02  0.43971022756E+02  0.00000000000E+00 0.  1.
         -3    1    1    2    0  502  0.27217545797E+02 -0.29310504229E+02 -0.54979183230E+03  0.55124491773E+03  0.00000000000E+00 0. -1.
<mgrwt>
<rscale>  1 0.30000000E+03</rscale>
<asrwt>0</asrwt>
<pdfrwt beam="1">  1       21 0.58987505E-02 0.30000000E+03</pdfrwt>
<pdfrwt beam="2">0</pdfrwt>
<totfact> 0.21699109E+04</totfact>
</mgrwt>
</event>
<event>
 6    1  0.8397183E-002  0.3000000E+03  0.7818608E-02  0.1093470E+00
         21   -1    0    0  501  502  0.00000000000E+00  0.00000000000E+00  0.10260592972E+01  0.10260592972E+01  0.00000000000E+00 0. -1.
         13   -1    0    0    0    0 -0.00000000000E+00 -0.00000000000E+00 -0.10000000000E+04  0.10000000000E+04  0.00000000000E+00 0.  1.
    9000005    2    1    2  501    0  0.11373621571E+02 -0.28565375392E+02 -0.36315512637E+03  0.36446427549E+03  0.26874455746E+01 0.  0.
         13    1    3    3    0    0  0.61701868552E+01 -0.18089262116E+02 -0.21469089315E+03  0.21553995502E+03  0.00000000000E+00 0.  1.
          1    1    3    3  501    0  0.52034347159E+01 -0.10476113277E+02 -0.14846423322E+03  0.14892432047E+03  0.00000000000E+00 0.  1.
         -1    1    1    2    0  502 -0.11373621571E+02  0.28565375392E+02 -0.63581881433E+03  0.63656178380E+03  0.00000000000E+00 0. -1.
<mgrwt>
<rscale>  1 0.30000000E+03</rscale>
<asrwt>0</asrwt>
<pdfrwt beam="1">  1       21 0.37311326E-02 0.30000000E+03</pdfrwt>
<pdfrwt beam="2">0</pdfrwt>
<totfact> 0.47265902E+04</totfact>
</mgrwt>
</event>
<event>
 6    1  0.8397183E-002  0.3000000E+03  0.7818608E-02  0.1093470E+00
         21   -1    0    0  501  502  0.00000000000E+00  0.00000000000E+00  0.18246469405E+01  0.18246469405E+01  0.00000000000E+00 0. -1.
         13   -1    0    0    0    0 -0.00000000000E+00 -0.00000000000E+00 -0.10000000000E+04  0.10000000000E+04  0.00000000000E+00 0.  1.
    9000005    2    1    2  501    0  0.17454130251E+02  0.37326051631E+02 -0.37095142931E+03  0.37324869185E+03  0.34266993101E+01 0.  0.
         13    1    3    3    0    0  0.22179993998E+01  0.48416153780E+01 -0.38472257005E+02  0.38839095250E+02  0.00000000000E+00 0.  1.
          1    1    3    3  501    0  0.15236130851E+02  0.32484436253E+02 -0.33247917231E+03  0.33440959660E+03  0.00000000000E+00 0.  1.
         -3    1    1    2    0  502 -0.17454130251E+02 -0.37326051631E+02 -0.62722392375E+03  0.62857595509E+03  0.00000000000E+00 0. -1.
<mgrwt>
<rscale>  1 0.30000000E+03</rscale>
<asrwt>0</asrwt>
<pdfrwt beam="1">  1       21 0.66350938E-02 0.30000000E+03</pdfrwt>
<pdfrwt beam="2">0</pdfrwt>
<totfact> 0.17707601E+04</totfact>
</mgrwt>
</event>
<event>
 6    1  0.8397183E-002  0.3000000E+03  0.7818608E-02  0.1093470E+00
         21   -1    0    0  501  502  0.00000000000E+00  0.00000000000E+00  0.14277399856E+01  0.14277399856E+01  0.00000000000E+00 0. -1.
         13   -1    0    0    0    0 -0.00000000000E+00 -0.00000000000E+00 -0.10000000000E+04  0.10000000000E+04  0.00000000000E+00 0.  1.
    9000005    2    1    2  501    0  0.29622560154E+02 -0.22433900568E+02 -0.41028079172E+03  0.41196389238E+03  0.17733038373E+01 0.  0.
         13    1    3    3    0    0  0.39035584725E+01 -0.35276245771E+01 -0.53583248582E+02  0.53840936401E+02  0.00000000000E+00 0.  1.
          3    1    3    3  501    0  0.25719001682E+02 -0.18906275991E+02 -0.35669754314E+03  0.35812295598E+03  0.00000000000E+00 0.  1.
         -1    1    1    2    0  502 -0.29622560154E+02  0.22433900568E+02 -0.58829146830E+03  0.58946384761E+03  0.00000000000E+00 0. -1.
<mgrwt>
<rscale>  1 0.30000000E+03</rscale>
<asrwt>0</asrwt>
<pdfrwt beam="1">  1       21 0.51917927E-02 0.30000000E+03</pdfrwt>
<pdfrwt beam="2">0</pdfrwt>
<totfact> 0.27012673E+04</totfact>
</mgrwt>
</event>
<event>
 6    1  0.8397183E-002  0.3000000E+03  0.7818608E-02  0.1093470E+00
         21   -1    0    0  501  502  0.00000000000E+00  0.00000000000E+00  0.14205998227E+01  0.14205998227E+01  0.00000000000E+00 0. -1.
         13   -1    0    0    0    0 -0.00000000000E+00 -0.00000000000E+00 -0.10000000000E+04  0.10000000000E+04  0.00000000000E+00 0.  1.
    9000005    2    1    2  501    0  0.37239733257E+02  0.41921312082E+01 -0.53230767486E+03  0.53364534019E+03  0.46386087449E+01 0.  0.
         13    1    3    3    0    0  0.33991354262E+02  0.37684122922E+01 -0.46367663191E+03  0.46493615914E+03  0.00000000000E+00 0.  1.
          1    1    3    3  501    0  0.32483789944E+01  0.42371891600E+00 -0.68631042946E+02  0.68709181043E+02  0.00000000000E+00 0.  1.
         -1    1    1    2    0  502 -0.37239733257E+02 -0.41921312082E+01 -0.46627172532E+03  0.46777525964E+03  0.00000000000E+00 0. -1.
<mgrwt>
<rscale>  1 0.30000000E+03</rscale>
<asrwt>0</asrwt>
<pdfrwt beam="1">  1       21 0.51658284E-02 0.30000000E+03</pdfrwt>
<pdfrwt beam="2">0</pdfrwt>
<totfact> 0.27244971E+04</totfact>
</mgrwt>
</event>
<event>
 6    1  0.8397183E-002  0.3000000E+03  0.7818608E-02  0.1093470E+00
         21   -1    0    0  501  502  0.00000000000E+00  0.00000000000E+00  0.16269269977E+01  0.16269269977E+01  0.00000000000E+00 0. -1.
         13   -1    0    0    0    0 -0.00000000000E+00 -0.00000000000E+00 -0.10000000000E+04  0.10000000000E+04  0.00000000000E+00 0.  1.
    9000005    2    1    2  501    0 -0.20908245749E+02 -0.31198705450E+02 -0.31907426553E+03  0.32129069851E+03  0.29685117920E+01 0.  0.
         13    1    3    3    0    0 -0.29303896900E+00 -0.55872790232E+00 -0.96216629350E+01  0.96423257745E+01  0.00000000000E+00 0.  1.
          1    1    3    3  501    0 -0.20615206781E+02 -0.30639977548E+02 -0.30945260260E+03  0.31164837274E+03  0.00000000000E+00 0.  1.
         -1    1    1    2    0  502  0.20908245749E+02  0.31198705450E+02 -0.67929880747E+03  0.68033622849E+03  0.00000000000E+00 0. -1.
<mgrwt>
<rscale>  1 0.30000000E+03</rscale>
<asrwt>0</asrwt>
<pdfrwt beam="1">  1       21 0.59161106E-02 0.30000000E+03</pdfrwt>
<pdfrwt beam="2">0</pdfrwt>
<totfact> 0.21589476E+04</totfact>
</mgrwt>
</event>
<event>
 6    1  0.8397183E-002  0.3000000E+03  0.7818608E-02  0.1093470E+00
         21   -1    0    0  501  502  0.00000000000E+00  0.00000000000E+00  0.11362166772E+01  0.11362166772E+01  0.00000000000E+00 0. -1.
         13   -1    0    0    0    0 -0.00000000000E+00 -0.00000000000E+00 -0.10000000000E+04  0.10000000000E+04  0.00000000000E+00 0.  1.
    9000005    2    1    2  501    0  0.28496256154E+02  0.14448816913E+02 -0.65291210920E+03  0.65371231745E+03  0.49766175765E+01 0.  0.
         13    1    3    3    0    0  0.47415397236E+01  0.97836504823E+00 -0.12608740207E+03  0.12618031685E+03  0.00000000000E+00 0.  1.
          3    1    3    3  501    0  0.23754716431E+02  0.13470451865E+02 -0.52682470713E+03  0.52753200061E+03  0.00000000000E+00 0.  1.
         -1    1    1    2    0  502 -0.28496256154E+02 -0.14448816913E+02 -0.34595167412E+03  0.34742389922E+03  0.00000000000E+00 0. -1.
<mgrwt>
<rscale>  1 0.30000000E+03</rscale>
<asrwt>0</asrwt>
<pdfrwt beam="1">  1       21 0.41317057E-02 0.30000000E+03</pdfrwt>
<pdfrwt beam="2">0</pdfrwt>
<totfact> 0.39812988E+04</totfact>
</mgrwt>
</event>
<event>
 6    1  0.8397183E-002  0.3000000E+03  0.7818608E-02  0.1093470E+00
         21   -1    0    0  501  502  0.00000000000E+00  0.00000000000E+00  0.13878380201E+01  0.13878380201E+01  0.00000000000E+00 0. -1.
         13   -1    0    0    0    0 -0.00000000000E+00 -0.00000000000E+00 -0.10000000000E+04  0.10000000000E+04  0.00000000000E+00 0.  1.
    9000005    2    1    2  501    0 -0.33588618263E+02  0.14948140493E+02 -0.57687783727E+03  0.57805406566E+03  0.26118026528E+01 0.  0.
         13    1    3    3    0    0 -0.25576730368E+02  0.12578086493E+02 -0.44586067656E+03  0.44677076930E+03  0.00000000000E+00 0.  1.
          1    1    3    3  501    0 -0.80118878955E+01  0.23700540005E+01 -0.13101716071E+03  0.13128329637E+03  0.00000000000E+00 0.  1.
         -3    1    1    2    0  502  0.33588618263E+02 -0.14948140493E+02 -0.42173432471E+03  0.42333377236E+03  0.00000000000E+00 0. -1.
<mgrwt>
<rscale>  1 0.30000000E+03</rscale>
<asrwt>0</asrwt>
<pdfrwt beam="1">  1       21 0.50466944E-02 0.30000000E+03</pdfrwt>
<pdfrwt beam="2">0</pdfrwt>
<totfact> 0.28351701E+04</totfact>
</mgrwt>
</event>
<event>
 6    1  0.8397183E-002  0.3000000E+03  0.7818608E-02  0.1093470E+00
         21   -1    0    0  501  502  0.00000000000E+00  0.00000000000E+00  0.13974465300E+01  0.13974465300E+01  0.00000000000E+00 0. -1.
         13   -1    0    0    0    0 -0.00000000000E+00 -0.00000000000E+00 -0.10000000000E+04  0.10000000000E+04  0.00000000000E+00 0.  1.
    9000005    2    1    2  501    0 -0.31529601140E+02  0.75294018952E+01 -0.25247977591E+03  0.25457082218E+03  0.30754872718E+01 0.  0.
         13    1    3    3    0    0 -0.29375901034E+01  0.30063679376E+00 -0.29971011102E+02  0.30116130638E+02  0.00000000000E+00 0.  1.
          3    1    3    3  501    0 -0.28592011036E+02  0.72287651014E+01 -0.22250876481E+03  0.22445469154E+03  0.00000000000E+00 0.  1.
         -3    1    1    2    0  502  0.31529601140E+02 -0.75294018952E+01 -0.74612277756E+03  0.74682662435E+03  0.00000000000E+00 0. -1.
<mgrwt>
<rscale>  1 0.30000000E+03</rscale>
<asrwt>0</asrwt>
<pdfrwt beam="1">  1       21 0.50816345E-02 0.30000000E+03</pdfrwt>
<pdfrwt beam="2">0</pdfrwt>
<totfact> 0.28019975E+04</totfact>
</mgrwt>
</event>
<event>
 6    1  0.8397183E-002  0.3000000E+03  0.7818608E-02  0.1093470E+00
         21   -1    0    0  501  502  0.00000000000E+00  0.00000000000E+00  0.96741052417E+00  0.96741052417E+00  0.00000000000E+00 0. -1.
         13   -1    0    0    0    0 -0.00000000000E+00 -0.00000000000E+00 -0.10000000000E+04  0.10000000000E+04  0.00000000000E+00 0.  1.
    9000005    2    1    2  501    0  0.46545950459E+01 -0.30028262555E+02 -0.40061388364E+03  0.40177769992E+03  0.32364449311E+01 0.  0.
         13    1    3    3    0    0  0.45236599820E+00 -0.56636167915E+00 -0.60949602017E+01  0.61379101010E+01  0.00000000000E+00 0.  1.
          1    1    3    3  501    0  0.42022290477E+01 -0.29461900876E+02 -0.39451892344E+03  0.39563978982E+03  0.00000000000E+00 0.  1.
         -3    1    1    2    0  502 -0.46545950459E+01  0.30028262555E+02 -0.59841870583E+03  0.59918971061E+03  0.00000000000E+00 0. -1.
<mgrwt>
<rscale>  1 0.30000000E+03</rscale>
<asrwt>0</asrwt>
<pdfrwt beam="1">  1       21 0.35178639E-02 0.30000000E+03</pdfrwt>
<pdfrwt beam="2">0</pdfrwt>
<totfact> 0.52170089E+04</totfact>
</mgrwt>
</event>
<event>
 6    1  0.8397183E-002  0.3000000E+03  0.7818608E-02  0.1093470E+00
         21   -1    0    0  501  502  0.00000000000E+00  0.00000000000E+00  0.10081012548E+01  0.10081012548E+01  0.00000000000E+00 0. -1.
         13   -1    0    0    0    0 -0.00000000000E+00 -0.00000000000E+00 -0.10000000000E+04  0.10000000000E+04  0.00000000000E+00 0.  1.
    9000005    2    1    2  501    0  0.65418739142E+01 -0.29512681998E+02 -0.64903013009E+03  0.64974319548E+03  0.35093855589E+01 0.  0.
         13    1    3    3    0    0  0.52608669592E+01 -0.21174793736E+02 -0.49788414122E+03  0.49836198359E+03  0.00000000000E+00 0.  1.
          3    1    3    3  501    0  0.12810069549E+01 -0.83378882616E+01 -0.15114598887E+03  0.15138121188E+03  0.00000000000E+00 0.  1.
         -3    1    1    2    0  502 -0.65418739142E+01  0.29512681998E+02 -0.34996176865E+03  0.35126490578E+03  0.00000000000E+00 0. -1.
<mgrwt>
<rscale>  1 0.30000000E+03</rscale>
<asrwt>0</asrwt>
<pdfrwt beam="1">  1       21 0.36658305E-02 0.30000000E+03</pdfrwt>
<pdfrwt beam="2">0</pdfrwt>
<totfact> 0.48687639E+04</totfact>
</mgrwt>
</event>
<event>
 6    1  0.8397183E-002  0.3000000E+03  0.7818608E-02  0.1093470E+00
         21   -1    0    0  501  502  0.00000000000E+00  0.00000000000E+00  0.15135384617E+01  0.15135384617E+01  0.00000000000E+00 0. -1.
         13   -1    0    0    0    0 -0.00000000000E+00 -0.00000000000E+00 -0.10000000000E+04  0.10000000000E+04  0.00000000000E+00 0.  1.
    9000005    2    1    2  501    0 -0.23409343883E+02 -0.29197864895E+02 -0.63391215090E+03  0.63502351039E+03  0.31194549849E+01 0.  0.
         13    1    3    3    0    0 -0.18693552047E+02 -0.23379536619E+02 -0.52687438334E+03  0.52772404478E+03  0.00000000000E+00 0.  1.
          3    1    3    3  501    0 -0.47157918352E+01 -0.58183282755E+01 -0.10703776756E+03  0.10729946561E+03  0.00000000000E+00 0.  1.
         -3    1    1    2    0  502  0.23409343883E+02  0.29197864895E+02 -0.36457431064E+03  0.36649002807E+03  0.00000000000E+00 0. -1.
<mgrwt>
<rscale>  1 0.30000000E+03</rscale>
<asrwt>0</asrwt>
<pdfrwt beam="1">  1       21 0.55037878E-02 0.30000000E+03</pdfrwt>
<pdfrwt beam="2">0</pdfrwt>
<totfact> 0.24445274E+04</totfact>
</mgrwt>
</event>
<event>
 6    1  0.8397183E-002  0.3000000E+03  0.7818608E-02  0.1093470E+00
         21   -1    0    0  501  502  0.00000000000E+00  0.00000000000E+00  0.12770489456E+01  0.12770489456E+01  0.00000000000E+00 0. -1.
         13   -1    0    0    0    0 -0.00000000000E+00 -0.00000000000E+00 -0.10000000000E+04  0.10000000000E+04  0.00000000000E+00 0.  1.
    9000005    2    1    2  501    0 -0.88610582547E+00  0.35405149201E+02 -0.56001184279E+03  0.56113872264E+03  0.30153277244E+01 0.  0.
         13    1    3    3    0    0 -0.63077903687E+00  0.16584104135E+01 -0.23944119431E+02  0.24009770149E+02  0.00000000000E+00 0.  1.
          1    1    3    3  501    0 -0.25532678861E+00  0.33746738787E+02 -0.53606772336E+03  0.53712895249E+03  0.00000000000E+00 0.  1.
         -3    1    1    2    0  502  0.88610582547E+00 -0.35405149201E+02 -0.43871110826E+03  0.44013832631E+03  0.00000000000E+00 0. -1.
<mgrwt>
<rscale>  1 0.30000000E+03</rscale>
<asrwt>0</asrwt>
<pdfrwt beam="1">  1       21 0.46438241E-02 0.30000000E+03</pdfrwt>
<pdfrwt beam="2">0</pdfrwt>
<totfact> 0.32665222E+04</totfact>
</mgrwt>
</event>
<event>
 6    1  0.8397183E-002  0.3000000E+03  0.7818608E-02  0.1093470E+00
         21   -1    0    0  501  502  0.00000000000E+00  0.00000000000E+00  0.25714303004E+01  0.25714303004E+01  0.00000000000E+00 0. -1.
         13   -1    0    0    0    0 -0.00000000000E+00 -0.00000000000E+00 -0.10000000000E+04  0.10000000000E+04  0.00000000000E+00 0.  1.
    9000005    2    1    2  501    0  0.37052230093E+02 -0.13854176975E+02 -0.18674038134E+03  0.19091870609E+03  0.36299224569E+01 0.  0.
         13    1    3    3    0    0  0.12418060243E+02 -0.40085898035E+01 -0.69493983337E+02  0.70708491233E+02  0.00000000000E+00 0.  1.
          3    1    3    3  501    0  0.24634169850E+02 -0.98455871716E+01 -0.11724639800E+03  0.12021021485E+03  0.00000000000E+00 0.  1.
         -1    1    1    2    0  502 -0.37052230093E+02  0.13854176975E+02 -0.81068818836E+03  0.81165272421E+03  0.00000000000E+00 0. -1.
<mgrwt>
<rscale>  1 0.30000000E+03</rscale>
<asrwt>0</asrwt>
<pdfrwt beam="1">  1       21 0.93506754E-02 0.30000000E+03</pdfrwt>
<pdfrwt beam="2">0</pdfrwt>
<totfact> 0.96973517E+03</totfact>
</mgrwt>
</event>
<event>
 6    1  0.8397183E-002  0.3000000E+03  0.7818608E-02  0.1093470E+00
         21   -1    0    0  501  502  0.00000000000E+00  0.00000000000E+00  0.19618734481E+01  0.19618734481E+01  0.00000000000E+00 0. -1.
         13   -1    0    0    0    0 -0.00000000000E+00 -0.00000000000E+00 -0.10000000000E+04  0.10000000000E+04  0.00000000000E+00 0.  1.
    9000005    2    1    2  501    0  0.16551106607E+01  0.32877318023E+02 -0.16518414174E+03  0.16845757385E+03  0.29148024534E+01 0.  0.
         13    1    3    3    0    0  0.12696294272E+01  0.20518574831E+02 -0.11008580863E+03  0.11198887950E+03  0.00000000000E+00 0.  1.
          1    1    3    3  501    0  0.38548123351E+00  0.12358743192E+02 -0.55098333116E+02  0.56468694346E+02  0.00000000000E+00 0.  1.
         -3    1    1    2    0  502 -0.16551106607E+01 -0.32877318023E+02 -0.83285398481E+03  0.83350429960E+03  0.00000000000E+00 0. -1.
<mgrwt>
<rscale>  1 0.30000000E+03</rscale>
<asrwt>0</asrwt>
<pdfrwt beam="1">  1       21 0.71341003E-02 0.30000000E+03</pdfrwt>
<pdfrwt beam="2">0</pdfrwt>
<totfact> 0.15610723E+04</totfact>
</mgrwt>
</event>
<event>
 6    1  0.8397183E-002  0.3000000E+03  0.7818608E-02  0.1093470E+00
         21   -1    0    0  501  502  0.00000000000E+00  0.00000000000E+00  0.18892246246E+01  0.18892246246E+01  0.00000000000E+00 0. -1.
         13   -1    0    0    0    0 -0.00000000000E+00 -0.00000000000E+00 -0.10000000000E+04  0.10000000000E+04  0.00000000000E+00 0.  1.
    9000005    2    1    2  501    0 -0.41246941407E+02 -0.13427684522E+02 -0.49934939138E+03  0.50124510846E+03  0.39027163048E+01 0.  0.
         13    1    3    3    0    0 -0.73800274629E+01 -0.94221099089E+00 -0.90860101779E+02  0.91164196163E+02  0.00000000000E+00 0.  1.
          3    1    3    3  501    0 -0.33866913945E+02 -0.12485473532E+02 -0.40848928960E+03  0.41008091230E+03  0.00000000000E+00 0.  1.
         -1    1    1    2    0  502  0.41246941407E+02  0.13427684522E+02 -0.49876138399E+03  0.50064411617E+03  0.00000000000E+00 0. -1.
<mgrwt>
<rscale>  1 0.30000000E+03</rscale>
<asrwt>0</asrwt>
<pdfrwt beam="1">  1       21 0.68699222E-02 0.30000000E+03</pdfrwt>
<pdfrwt beam="2">0</pdfrwt>
<totfact> 0.16670297E+04</totfact>
</mgrwt>
</event>
<event>
 6    1  0.8397183E-002  0.3000000E+03  0.7818608E-02  0.1093470E+00
         21   -1    0    0  501  502  0.00000000000E+00  0.00000000000E+00  0.18504512321E+01  0.18504512321E+01  0.00000000000E+00 0. -1.
         13   -1    0    0    0    0 -0.00000000000E+00 -0.00000000000E+00 -0.10000000000E+04  0.10000000000E+04  0.00000000000E+00 0.  1.
    9000005    2    1    2  501    0 -0.32752217799E+02 -0.33016315453E+01 -0.17811420402E+03  0.18115466400E+03  0.29553467347E+01 0.  0.
         13    1    3    3    0    0 -0.13443890300E+02  0.78171609827E-01 -0.73949407577E+02  0.75161553857E+02  0.00000000000E+00 0.  1.
          1    1    3    3  501    0 -0.19308327499E+02 -0.33798031552E+01 -0.10416479644E+03  0.10599311014E+03  0.00000000000E+00 0.  1.
         -3    1    1    2    0  502  0.32752217799E+02  0.33016315453E+01 -0.82003534475E+03  0.82069578723E+03  0.00000000000E+00 0. -1.
<mgrwt>
<rscale>  1 0.30000000E+03</rscale>
<asrwt>0</asrwt>
<pdfrwt beam="1">  1       21 0.67289278E-02 0.30000000E+03</pdfrwt>
<pdfrwt beam="2">0</pdfrwt>
<totfact> 0.17281523E+04</totfact>
</mgrwt>
</event>
<event>
 6    1  0.8397183E-002  0.3000000E+03  0.7818608E-02  0.1093470E+00
         21   -1    0    0  501  502  0.00000000000E+00  0.00000000000E+00  0.15680533035E+01  0.15680533035E+01  0.00000000000E+00 0. -1.
         13   -1    0    0    0    0 -0.00000000000E+00 -0.00000000000E+00 -0.10000000000E+04  0.10000000000E+04  0.00000000000E+00 0.  1.
    9000005    2    1    2  501    0  0.23560878975E+02  0.27828106306E+02 -0.30787558543E+03  0.31004971905E+03  0.37327821364E+01 0.  0.
         13    1    3    3    0    0  0.23054294108E+02  0.26758704917E+02 -0.30181587114E+03  0.30387554827E+03  0.00000000000E+00 0.  1.
          1    1    3    3  501    0  0.50658486724E+00  0.10694013892E+01 -0.60597142886E+01  0.61741707798E+01  0.00000000000E+00 0.  1.
         -3    1    1    2    0  502 -0.23560878975E+02 -0.27828106306E+02 -0.69055636127E+03  0.69151833425E+03  0.00000000000E+00 0. -1.
<mgrwt>
<rscale>  1 0.30000000E+03</rscale>
<asrwt>0</asrwt>
<pdfrwt beam="1">  1       21 0.57020240E-02 0.30000000E+03</pdfrwt>
<pdfrwt beam="2">0</pdfrwt>
<totfact> 0.23004212E+04</totfact>
</mgrwt>
</event>
<event>
 6    1  0.8397183E-002  0.3000000E+03  0.7818608E-02  0.1093470E+00
         21   -1    0    0  501  502  0.00000000000E+00  0.00000000000E+00  0.24987781861E+01  0.24987781861E+01  0.00000000000E+00 0. -1.
         13   -1    0    0    0    0 -0.00000000000E+00 -0.00000000000E+00 -0.10000000000E+04  0.10000000000E+04  0.00000000000E+00 0.  1.
    9000005    2    1    2  501    0  0.41059784320E+02  0.28279610813E+02 -0.47247588579E+03  0.47511159049E+03  0.34523168077E+01 0.  0.
         13    1    3    3    0    0  0.23951735371E+02  0.17707396206E+02 -0.29491507122E+03  0.29641547993E+03  0.00000000000E+00 0.  1.
          3    1    3    3  501    0  0.17108048950E+02  0.10572214607E+02 -0.17756081457E+03  0.17869611056E+03  0.00000000000E+00 0.  1.
         -3    1    1    2    0  502 -0.41059784320E+02 -0.28279610813E+02 -0.52502533603E+03  0.52738718770E+03  0.00000000000E+00 0. -1.
<mgrwt>
<rscale>  1 0.30000000E+03</rscale>
<asrwt>0</asrwt>
<pdfrwt beam="1">  1       21 0.90864853E-02 0.30000000E+03</pdfrwt>
<pdfrwt beam="2">0</pdfrwt>
<totfact> 0.10203654E+04</totfact>
</mgrwt>
</event>
<event>
 6    1  0.8397183E-002  0.3000000E+03  0.7818608E-02  0.1093470E+00
         21   -1    0    0  501  502  0.00000000000E+00  0.00000000000E+00  0.10400930103E+01  0.10400930103E+01  0.00000000000E+00 0. -1.
         13   -1    0    0    0    0 -0.00000000000E+00 -0.00000000000E+00 -0.10000000000E+04  0.10000000000E+04  0.00000000000E+00 0.  1.
    9000005    2    1    2  501    0 -0.27432535538E+02 -0.16303207278E+02 -0.44375490658E+03  0.44491876538E+03  0.39940071777E+01 0.  0.
         13    1    3    3    0    0 -0.21765456709E+01 -0.98639082115E+00 -0.50274238069E+02  0.50330997719E+02  0.00000000000E+00 0.  1.
          1    1    3    3  501    0 -0.25255989867E+02 -0.15316816457E+02 -0.39348066851E+03  0.39458776766E+03  0.00000000000E+00 0.  1.
         -1    1    1    2    0  502  0.27432535538E+02  0.16303207278E+02 -0.55520500041E+03  0.55612132763E+03  0.00000000000E+00 0. -1.
<mgrwt>
<rscale>  1 0.30000000E+03</rscale>
<asrwt>0</asrwt>
<pdfrwt beam="1">  1       21 0.37821644E-02 0.30000000E+03</pdfrwt>
<pdfrwt beam="2">0</pdfrwt>
<totfact> 0.46199791E+04</totfact>
</mgrwt>
</event>
<event>
 6    1  0.8397183E-002  0.3000000E+03  0.7818608E-02  0.1093470E+00
         21   -1    0    0  501  502  0.00000000000E+00  0.00000000000E+00  0.19964894041E+01  0.19964894041E+01  0.00000000000E+00 0. -1.
         13   -1    0    0    0    0 -0.00000000000E+00 -0.00000000000E+00 -0.10000000000E+04  0.10000000000E+04  0.00000000000E+00 0.  1.
    9000005    2    1    2  501    0  0.41145267808E+02 -0.13857877888E+02 -0.38291322848E+03  0.38537583698E+03  0.26497812124E+01 0.  0.
         13    1    3    3    0    0  0.24920594935E+02 -0.72270100763E+01 -0.23455768351E+03  0.23598850103E+03  0.00000000000E+00 0.  1.
          3    1    3    3  501    0  0.16224672872E+02 -0.66308678120E+01 -0.14835554497E+03  0.14938733595E+03  0.00000000000E+00 0.  1.
         -3    1    1    2    0  502 -0.41145267808E+02  0.13857877888E+02 -0.61509028211E+03  0.61662065242E+03  0.00000000000E+00 0. -1.
<mgrwt>
<rscale>  1 0.30000000E+03</rscale>
<asrwt>0</asrwt>
<pdfrwt beam="1">  1       21 0.72599768E-02 0.30000000E+03</pdfrwt>
<pdfrwt beam="2">0</pdfrwt>
<totfact> 0.15141607E+04</totfact>
</mgrwt>
</event>
<event>
 6    1  0.8397183E-002  0.3000000E+03  0.7818608E-02  0.1093470E+00
         21   -1    0    0  501  502  0.00000000000E+00  0.00000000000E+00  0.10762207744E+01  0.10762207744E+01  0.00000000000E+00 0. -1.
         13   -1    0    0    0    0 -0.00000000000E+00 -0.00000000000E+00 -0.10000000000E+04  0.10000000000E+04  0.00000000000E+00 0.  1.
    9000005    2    1    2  501    0 -0.10766155999E+02 -0.30736117767E+02 -0.46037316733E+03  0.46154180980E+03  0.40951126096E+01 0.  0.
         13    1    3    3    0    0  0.34721682934E+00 -0.95883938279E+00 -0.17407715911E+02  0.17437560200E+02  0.00000000000E+00 0.  1.
          3    1    3    3  501    0 -0.11113372828E+02 -0.29777278385E+02 -0.44296545142E+03  0.44410424960E+03  0.00000000000E+00 0.  1.
         -3    1    1    2    0  502  0.10766155999E+02  0.30736117767E+02 -0.53855061189E+03  0.53953441097E+03  0.00000000000E+00 0. -1.
<mgrwt>
<rscale>  1 0.30000000E+03</rscale>
<asrwt>0</asrwt>
<pdfrwt beam="1">  1       21 0.39135383E-02 0.30000000E+03</pdfrwt>
<pdfrwt beam="2">0</pdfrwt>
<totfact> 0.43622641E+04</totfact>
</mgrwt>
</event>
<event>
 6    1  0.8397183E-002  0.3000000E+03  0.7818608E-02  0.1093470E+00
         21   -1    0    0  501  502  0.00000000000E+00  0.00000000000E+00  0.98304493412E+00  0.98304493412E+00  0.00000000000E+00 0. -1.
         13   -1    0    0    0    0 -0.00000000000E+00 -0.00000000000E+00 -0.10000000000E+04  0.10000000000E+04  0.00000000000E+00 0.  1.
    9000005    2    1    2  501    0  0.30404160601E+02  0.58008327050E+01 -0.57265101961E+03  0.57349506434E+03  0.30554723148E+01 0.  0.
         13    1    3    3    0    0  0.10761232492E+02  0.26565391785E+01 -0.23026767674E+03  0.23053430173E+03  0.00000000000E+00 0.  1.
          1    1    3    3  501    0  0.19642928109E+02  0.31442935265E+01 -0.34238334288E+03  0.34296076260E+03  0.00000000000E+00 0.  1.
         -1    1    1    2    0  502 -0.30404160601E+02 -0.58008327050E+01 -0.42636593545E+03  0.42748798060E+03  0.00000000000E+00 0. -1.
<mgrwt>
<rscale>  1 0.30000000E+03</rscale>
<asrwt>0</asrwt>
<pdfrwt beam="1">  1       21 0.35747164E-02 0.30000000E+03</pdfrwt>
<pdfrwt beam="2">0</pdfrwt>
<totfact> 0.50786975E+04</totfact>
</mgrwt>
</event>
<event>
 6    1  0.8397183E-002  0.3000000E+03  0.7818608E-02  0.1093470E+00
         21   -1    0    0  501  502  0.00000000000E+00  0.00000000000E+00  0.18193616546E+01  0.18193616546E+01  0.00000000000E+00 0. -1.
         13   -1    0    0    0    0 -0.00000000000E+00 -0.00000000000E+00 -0.10000000000E+04  0.10000000000E+04  0.00000000000E+00 0.  1.
    9000005    2    1    2  501    0 -0.21565708787E+02  0.29512894865E+02 -0.24310234998E+03  0.24585685444E+03  0.32786504506E+01 0.  0.
         13    1    3    3    0    0 -0.19427269950E+02  0.27890234420E+02 -0.22277473123E+03  0.22535275651E+03  0.00000000000E+00 0.  1.
          1    1    3    3  501    0 -0.21384388370E+01  0.16226604448E+01 -0.20327618756E+02  0.20504097929E+02  0.00000000000E+00 0.  1.
         -1    1    1    2    0  502  0.21565708787E+02 -0.29512894865E+02 -0.75507828836E+03  0.75596250721E+03  0.00000000000E+00 0. -1.
<mgrwt>
<rscale>  1 0.30000000E+03</rscale>
<asrwt>0</asrwt>
<pdfrwt beam="1">  1       21 0.66158745E-02 0.30000000E+03</pdfrwt>
<pdfrwt beam="2">0</pdfrwt>
<totfact> 0.17796865E+04</totfact>
</mgrwt>
</event>
<event>
 6    1  0.8397183E-002  0.3000000E+03  0.7818608E-02  0.1093470E+00
         21   -1    0    0  501  502  0.00000000000E+00  0.00000000000E+00  0.29197049469E+01  0.29197049469E+01  0.00000000000E+00 0. -1.
         13   -1    0    0    0    0 -0.00000000000E+00 -0.00000000000E+00 -0.10000000000E+04  0.10000000000E+04  0.00000000000E+00 0.  1.
    9000005    2    1    2  501    0 -0.46830075453E+02 -0.17479438266E+02 -0.68800498926E+03  0.68982845406E+03  0.37207605629E+01 0.  0.
         13    1    3    3    0    0 -0.29717378936E+02 -0.10214834187E+02 -0.45389729292E+03  0.45498375572E+03  0.00000000000E+00 0.  1.
          1    1    3    3  501    0 -0.17112696517E+02 -0.72646040790E+01 -0.23410769633E+03  0.23484469834E+03  0.00000000000E+00 0.  1.
         -1    1    1    2    0  502  0.46830075453E+02  0.17479438266E+02 -0.30907530580E+03  0.31309125089E+03  0.00000000000E+00 0. -1.
<mgrwt>
<rscale>  1 0.30000000E+03</rscale>
<asrwt>0</asrwt>
<pdfrwt beam="1">  1       21 0.10617131E-01 0.30000000E+03</pdfrwt>
<pdfrwt beam="2">0</pdfrwt>
<totfact> 0.77285768E+03</totfact>
</mgrwt>
</event>
<event>
 6    1  0.8397183E-002  0.3000000E+03  0.7818608E-02  0.1093470E+00
         21   -1    0    0  501  502  0.00000000000E+00  0.00000000000E+00  0.98342769120E+00  0.98342769120E+00  0.00000000000E+00 0. -1.
         13   -1    0    0    0    0 -0.00000000000E+00 -0.00000000000E+00 -0.10000000000E+04  0.10000000000E+04  0.00000000000E+00 0.  1.
    9000005    2    1    2  501    0 -0.14030729492E+02  0.27869540360E+02 -0.53617909902E+03  0.53709540313E+03  0.31421630480E+01 0.  0.
         13    1    3    3    0    0 -0.11245550868E+02  0.24147295844E+02 -0.46873227850E+03  0.46948855494E+03  0.00000000000E+00 0.  1.
          1    1    3    3  501    0 -0.27851786234E+01  0.37222445163E+01 -0.67446820525E+02  0.67606848197E+02  0.00000000000E+00 0.  1.
         -3    1    1    2    0  502  0.14030729492E+02 -0.27869540360E+02 -0.46283747329E+03  0.46388802456E+03  0.00000000000E+00 0. -1.
<mgrwt>
<rscale>  1 0.30000000E+03</rscale>
<asrwt>0</asrwt>
<pdfrwt beam="1">  1       21 0.35761082E-02 0.30000000E+03</pdfrwt>
<pdfrwt beam="2">0</pdfrwt>
<totfact> 0.50753838E+04</totfact>
</mgrwt>
</event>
<event>
 6    1  0.8397183E-002  0.3000000E+03  0.7818608E-02  0.1093470E+00
         21   -1    0    0  501  502  0.00000000000E+00  0.00000000000E+00  0.12684219330E+01  0.12684219330E+01  0.00000000000E+00 0. -1.
         13   -1    0    0    0    0 -0.00000000000E+00 -0.00000000000E+00 -0.10000000000E+04  0.10000000000E+04  0.00000000000E+00 0.  1.
    9000005    2    1    2  501    0  0.21753257160E+02  0.21941083688E+02 -0.74712327663E+03  0.74777019176E+03  0.35290008897E+01 0.  0.
         13    1    3    3    0    0  0.70767529772E+01  0.53456803292E+01 -0.23777286512E+03  0.23793821071E+03  0.00000000000E+00 0.  1.
          1    1    3    3  501    0  0.14676504183E+02  0.16595403358E+02 -0.50935041151E+03  0.50983198104E+03  0.00000000000E+00 0.  1.
         -1    1    1    2    0  502 -0.21753257160E+02 -0.21941083688E+02 -0.25160830144E+03  0.25349823018E+03  0.00000000000E+00 0. -1.
<mgrwt>
<rscale>  1 0.30000000E+03</rscale>
<asrwt>0</asrwt>
<pdfrwt beam="1">  1       21 0.46124531E-02 0.30000000E+03</pdfrwt>
<pdfrwt beam="2">0</pdfrwt>
<totfact> 0.33043651E+04</totfact>
</mgrwt>
</event>
<event>
 6    1  0.8397183E-002  0.3000000E+03  0.7818608E-02  0.1093470E+00
         21   -1    0    0  501  502  0.00000000000E+00  0.00000000000E+00  0.11669705141E+01  0.11669705141E+01  0.00000000000E+00 0. -1.
         13   -1    0    0    0    0 -0.00000000000E+00 -0.00000000000E+00 -0.10000000000E+04  0.10000000000E+04  0.00000000000E+00 0.  1.
    9000005    2    1    2  501    0 -0.36592051009E+01 -0.32281366036E+02 -0.64573409968E+03  0.64657660037E+03  0.57702920141E+01 0.  0.
         13    1    3    3    0    0 -0.86148000055E+00 -0.20761920587E+02 -0.45524664168E+03  0.45572064278E+03  0.00000000000E+00 0.  1.
          1    1    3    3  501    0 -0.27977251004E+01 -0.11519445449E+02 -0.19048745800E+03  0.19085595758E+03  0.00000000000E+00 0.  1.
         -3    1    1    2    0  502  0.36592051009E+01  0.32281366036E+02 -0.35309892980E+03  0.35459037015E+03  0.00000000000E+00 0. -1.
<mgrwt>
<rscale>  1 0.30000000E+03</rscale>
<asrwt>0</asrwt>
<pdfrwt beam="1">  1       21 0.42435381E-02 0.30000000E+03</pdfrwt>
<pdfrwt beam="2">0</pdfrwt>
<totfact> 0.38057674E+04</totfact>
</mgrwt>
</event>
<event>
 6    1  0.8397183E-002  0.3000000E+03  0.7818608E-02  0.1093470E+00
         21   -1    0    0  501  502  0.00000000000E+00  0.00000000000E+00  0.12540527963E+01  0.12540527963E+01  0.00000000000E+00 0. -1.
         13   -1    0    0    0    0 -0.00000000000E+00 -0.00000000000E+00 -0.10000000000E+04  0.10000000000E+04  0.00000000000E+00 0.  1.
    9000005    2    1    2  501    0  0.26783055942E+02  0.22846833797E+02 -0.53323688282E+03  0.53441575217E+03  0.43946645914E+01 0.  0.
         13    1    3    3    0    0  0.19910453367E+02  0.15631416753E+02 -0.40680147506E+03  0.40758828179E+03  0.00000000000E+00 0.  1.
          1    1    3    3  501    0  0.68726025756E+01  0.72154170446E+01 -0.12643540775E+03  0.12682747038E+03  0.00000000000E+00 0.  1.
         -3    1    1    2    0  502 -0.26783055942E+02 -0.22846833797E+02 -0.46550906439E+03  0.46683830062E+03  0.00000000000E+00 0. -1.
<mgrwt>
<rscale>  1 0.30000000E+03</rscale>
<asrwt>0</asrwt>
<pdfrwt beam="1">  1       21 0.45602016E-02 0.30000000E+03</pdfrwt>
<pdfrwt beam="2">0</pdfrwt>
<totfact> 0.33689423E+04</totfact>
</mgrwt>
</event>
<event>
 6    1  0.8397183E-002  0.3000000E+03  0.7818608E-02  0.1093470E+00
         21   -1    0    0  501  502  0.00000000000E+00  0.00000000000E+00  0.11947512393E+01  0.11947512393E+01  0.00000000000E+00 0. -1.
         13   -1    0    0    0    0 -0.00000000000E+00 -0.00000000000E+00 -0.10000000000E+04  0.10000000000E+04  0.00000000000E+00 0.  1.
    9000005    2    1    2  501    0 -0.18038034466E+02 -0.29100914360E+02 -0.43993166637E+03  0.44127340408E+03  0.31799645321E+01 0.  0.
         13    1    3    3    0    0 -0.23733283224E+01 -0.59736104290E+01 -0.88977369305E+02  0.89209242556E+02  0.00000000000E+00 0.  1.
          3    1    3    3  501    0 -0.15664706143E+02 -0.23127303931E+02 -0.35095429706E+03  0.35206416153E+03  0.00000000000E+00 0.  1.
         -1    1    1    2    0  502  0.18038034466E+02  0.29100914360E+02 -0.55887358239E+03  0.55992134715E+03  0.00000000000E+00 0. -1.
<mgrwt>
<rscale>  1 0.30000000E+03</rscale>
<asrwt>0</asrwt>
<pdfrwt beam="1">  1       21 0.43445591E-02 0.30000000E+03</pdfrwt>
<pdfrwt beam="2">0</pdfrwt>
<totfact> 0.36573263E+04</totfact>
</mgrwt>
</event>
<event>
 6    1  0.8397183E-002  0.3000000E+03  0.7818608E-02  0.1093470E+00
         21   -1    0    0  501  502  0.00000000000E+00  0.00000000000E+00  0.16729024438E+01  0.16729024438E+01  0.00000000000E+00 0. -1.
         13   -1    0    0    0    0 -0.00000000000E+00 -0.00000000000E+00 -0.10000000000E+04  0.10000000000E+04  0.00000000000E+00 0.  1.
    9000005    2    1    2  501    0 -0.39540899684E+02 -0.92913607485E+01 -0.44738599981E+03  0.44923656645E+03  0.30737085187E+01 0.  0.
         13    1    3    3    0    0 -0.17014231714E+02 -0.55147769609E+01 -0.19226230426E+03  0.19309244026E+03  0.00000000000E+00 0.  1.
          1    1    3    3  501    0 -0.22526667970E+02 -0.37765837875E+01 -0.25512369555E+03  0.25614412620E+03  0.00000000000E+00 0.  1.
         -3    1    1    2    0  502  0.39540899684E+02  0.92913607485E+01 -0.55094109775E+03  0.55243633599E+03  0.00000000000E+00 0. -1.
<mgrwt>
<rscale>  1 0.30000000E+03</rscale>
<asrwt>0</asrwt>
<pdfrwt beam="1">  1       21 0.60832944E-02 0.30000000E+03</pdfrwt>
<pdfrwt beam="2">0</pdfrwt>
<totfact> 0.20576407E+04</totfact>
</mgrwt>
</event>
<event>
 6    1  0.8397183E-002  0.3000000E+03  0.7818608E-02  0.1093470E+00
         21   -1    0    0  501  502  0.00000000000E+00  0.00000000000E+00  0.97585128309E+00  0.97585128309E+00  0.00000000000E+00 0. -1.
         13   -1    0    0    0    0 -0.00000000000E+00 -0.00000000000E+00 -0.10000000000E+04  0.10000000000E+04  0.00000000000E+00 0.  1.
    9000005    2    1    2  501    0 -0.30571077903E+02  0.52910162534E+01 -0.49637052107E+03  0.49736562994E+03  0.51273773697E+01 0.  0.
         13    1    3    3    0    0 -0.59084287037E+01 -0.17174180356E+00 -0.70937069012E+02  0.71182910765E+02  0.00000000000E+00 0.  1.
          3    1    3    3  501    0 -0.24662649199E+02  0.54627580569E+01 -0.42543345206E+03  0.42618271917E+03  0.00000000000E+00 0.  1.
         -3    1    1    2    0  502  0.30571077903E+02 -0.52910162534E+01 -0.50265362765E+03  0.50361022135E+03  0.00000000000E+00 0. -1.
<mgrwt>
<rscale>  1 0.30000000E+03</rscale>
<asrwt>0</asrwt>
<pdfrwt beam="1">  1       21 0.35485576E-02 0.30000000E+03</pdfrwt>
<pdfrwt beam="2">0</pdfrwt>
<totfact> 0.51416164E+04</totfact>
</mgrwt>
</event>
<event>
 6    1  0.8397183E-002  0.3000000E+03  0.7818608E-02  0.1093470E+00
         21   -1    0    0  501  502  0.00000000000E+00  0.00000000000E+00  0.18978982073E+01  0.18978982073E+01  0.00000000000E+00 0. -1.
         13   -1    0    0    0    0 -0.00000000000E+00 -0.00000000000E+00 -0.10000000000E+04  0.10000000000E+04  0.00000000000E+00 0.  1.
    9000005    2    1    2  501    0 -0.37624256104E+02  0.76765883041E+01 -0.73457232876E+03  0.73558519493E+03  0.38155151626E+01 0.  0.
         13    1    3    3    0    0 -0.50956859148E+01  0.17779107054E+01 -0.83669708783E+02  0.83843587407E+02  0.00000000000E+00 0.  1.
          1    1    3    3  501    0 -0.32528570190E+02  0.58986775987E+01 -0.65090261998E+03  0.65174160752E+03  0.00000000000E+00 0.  1.
         -3    1    1    2    0  502  0.37624256104E+02 -0.76765883041E+01 -0.26352977303E+03  0.26631270328E+03  0.00000000000E+00 0. -1.
<mgrwt>
<rscale>  1 0.30000000E+03</rscale>
<asrwt>0</asrwt>
<pdfrwt beam="1">  1       21 0.69014626E-02 0.30000000E+03</pdfrwt>
<pdfrwt beam="2">0</pdfrwt>
<totfact> 0.16538104E+04</totfact>
</mgrwt>
</event>
<event>
 6    1  0.8397183E-002  0.3000000E+03  0.7818608E-02  0.1093470E+00
         21   -1    0    0  501  502  0.00000000000E+00  0.00000000000E+00  0.13439215098E+01  0.13439215098E+01  0.00000000000E+00 0. -1.
         13   -1    0    0    0    0 -0.00000000000E+00 -0.00000000000E+00 -0.10000000000E+04  0.10000000000E+04  0.00000000000E+00 0.  1.
    9000005    2    1    2  501    0  0.61339920886E+00  0.35865181678E+02 -0.40723703169E+03  0.40883807644E+03  0.44592889437E+01 0.  0.
         13    1    3    3    0    0  0.17532884311E+01  0.31839992149E+02 -0.36780461750E+03  0.36918436556E+03  0.00000000000E+00 0.  1.
          3    1    3    3  501    0 -0.11398892223E+01  0.40251895290E+01 -0.39432414187E+02  0.39653710883E+02  0.00000000000E+00 0.  1.
         -1    1    1    2    0  502 -0.61339920886E+00 -0.35865181678E+02 -0.59141904681E+03  0.59250584507E+03  0.00000000000E+00 0. -1.
<mgrwt>
<rscale>  1 0.30000000E+03</rscale>
<asrwt>0</asrwt>
<pdfrwt beam="1">  1       21 0.48869976E-02 0.30000000E+03</pdfrwt>
<pdfrwt beam="2">0</pdfrwt>
<totfact> 0.29948686E+04</totfact>
</mgrwt>
</event>
<event>
 6    1  0.8397183E-002  0.3000000E+03  0.7818608E-02  0.1093470E+00
         21   -1    0    0  501  502  0.00000000000E+00  0.00000000000E+00  0.11815003780E+01  0.11815003780E+01  0.00000000000E+00 0. -1.
         13   -1    0    0    0    0 -0.00000000000E+00 -0.00000000000E+00 -0.10000000000E+04  0.10000000000E+04  0.00000000000E+00 0.  1.
    9000005    2    1    2  501    0  0.30675684675E+02  0.10428245815E+02 -0.66440242980E+03  0.66519957572E+03  0.31844739300E+01 0.  0.
         13    1    3    3    0    0  0.17024688677E+02  0.71334247546E+01 -0.39618384044E+03  0.39661361701E+03  0.00000000000E+00 0.  1.
          1    1    3    3  501    0  0.13650995998E+02  0.32948210604E+01 -0.26821858937E+03  0.26858595872E+03  0.00000000000E+00 0.  1.
         -1    1    1    2    0  502 -0.30675684675E+02 -0.10428245815E+02 -0.33441606982E+03  0.33598192466E+03  0.00000000000E+00 0. -1.
<mgrwt>
<rscale>  1 0.30000000E+03</rscale>
<asrwt>0</asrwt>
<pdfrwt beam="1">  1       21 0.42963741E-02 0.30000000E+03</pdfrwt>
<pdfrwt beam="2">0</pdfrwt>
<totfact> 0.37269877E+04</totfact>
</mgrwt>
</event>
<event>
 6    1  0.8397183E-002  0.3000000E+03  0.7818608E-02  0.1093470E+00
         21   -1    0    0  501  502  0.00000000000E+00  0.00000000000E+00  0.10042066212E+01  0.10042066212E+01  0.00000000000E+00 0. -1.
         13   -1    0    0    0    0 -0.00000000000E+00 -0.00000000000E+00 -0.10000000000E+04  0.10000000000E+04  0.00000000000E+00 0.  1.
    9000005    2    1    2  501    0  0.25454397573E+02 -0.18685065105E+02 -0.52036497064E+03  0.52133294159E+03  0.33578730864E+01 0.  0.
         13    1    3    3    0    0  0.68135879270E+01 -0.59539859068E+01 -0.17133582569E+03  0.17157459047E+03  0.00000000000E+00 0.  1.
          3    1    3    3  501    0  0.18640809646E+02 -0.12731079198E+02 -0.34902914494E+03  0.34975835113E+03  0.00000000000E+00 0.  1.
         -1    1    1    2    0  502 -0.25454397573E+02  0.18685065105E+02 -0.47863082274E+03  0.47967126503E+03  0.00000000000E+00 0. -1.
<mgrwt>
<rscale>  1 0.30000000E+03</rscale>
<asrwt>0</asrwt>
<pdfrwt beam="1">  1       21 0.36516681E-02 0.30000000E+03</pdfrwt>
<pdfrwt beam="2">0</pdfrwt>
<totfact> 0.49004871E+04</totfact>
</mgrwt>
</event>
<event>
 6    1  0.8397183E-002  0.3000000E+03  0.7818608E-02  0.1093470E+00
         21   -1    0    0  501  502  0.00000000000E+00  0.00000000000E+00  0.15821866857E+01  0.15821866857E+01  0.00000000000E+00 0. -1.
         13   -1    0    0    0    0 -0.00000000000E+00 -0.00000000000E+00 -0.10000000000E+04  0.10000000000E+04  0.00000000000E+00 0.  1.
    9000005    2    1    2  501    0 -0.30420198172E+02  0.18158070946E+02 -0.27426314474E+03  0.27656143663E+03  0.32941872245E+01 0.  0.
         13    1    3    3    0    0 -0.24454173164E+02  0.13062815834E+02 -0.21646324082E+03  0.21823147887E+03  0.00000000000E+00 0.  1.
          1    1    3    3  501    0 -0.59660250074E+01  0.50952551114E+01 -0.57799903920E+02  0.58329957760E+02  0.00000000000E+00 0.  1.
         -3    1    1    2    0  502  0.30420198172E+02 -0.18158070946E+02 -0.72415466857E+03  0.72502075006E+03  0.00000000000E+00 0. -1.
<mgrwt>
<rscale>  1 0.30000000E+03</rscale>
<asrwt>0</asrwt>
<pdfrwt beam="1">  1       21 0.57534183E-02 0.30000000E+03</pdfrwt>
<pdfrwt beam="2">0</pdfrwt>
<totfact> 0.22651853E+04</totfact>
</mgrwt>
</event>
<event>
 6    1  0.8397183E-002  0.3000000E+03  0.7818608E-02  0.1093470E+00
         21   -1    0    0  501  502  0.00000000000E+00  0.00000000000E+00  0.10487701129E+01  0.10487701129E+01  0.00000000000E+00 0. -1.
         13   -1    0    0    0    0 -0.00000000000E+00 -0.00000000000E+00 -0.10000000000E+04  0.10000000000E+04  0.00000000000E+00 0.  1.
    9000005    2    1    2  501    0  0.17182671007E+02  0.27175905751E+02 -0.45337348225E+03  0.45452443145E+03  0.33422057629E+01 0.  0.
         13    1    3    3    0    0  0.66349561447E+00  0.11551381241E+01 -0.30579752476E+02  0.30608754173E+02  0.00000000000E+00 0.  1.
          3    1    3    3  501    0  0.16519175393E+02  0.26020767627E+02 -0.42279372978E+03  0.42391567728E+03  0.00000000000E+00 0.  1.
         -1    1    1    2    0  502 -0.17182671007E+02 -0.27175905751E+02 -0.54557774763E+03  0.54652433866E+03  0.00000000000E+00 0. -1.
<mgrwt>
<rscale>  1 0.30000000E+03</rscale>
<asrwt>0</asrwt>
<pdfrwt beam="1">  1       21 0.38137175E-02 0.30000000E+03</pdfrwt>
<pdfrwt beam="2">0</pdfrwt>
<totfact> 0.45559399E+04</totfact>
</mgrwt>
</event>
<event>
 6    1  0.8397183E-002  0.3000000E+03  0.7818608E-02  0.1093470E+00
         21   -1    0    0  501  502  0.00000000000E+00  0.00000000000E+00  0.10137903993E+01  0.10137903993E+01  0.00000000000E+00 0. -1.
         13   -1    0    0    0    0 -0.00000000000E+00 -0.00000000000E+00 -0.10000000000E+04  0.10000000000E+04  0.00000000000E+00 0.  1.
    9000005    2    1    2  501    0 -0.47507066878E+01 -0.30925079388E+02 -0.58540150474E+03  0.58624730448E+03  0.34713838884E+01 0.  0.
         13    1    3    3    0    0 -0.24484911301E+01 -0.16869233859E+02 -0.28651641855E+03  0.28702303785E+03  0.00000000000E+00 0.  1.
          3    1    3    3  501    0 -0.23022155578E+01 -0.14055845530E+02 -0.29888508619E+03  0.29922426663E+03  0.00000000000E+00 0.  1.
         -1    1    1    2    0  502  0.47507066878E+01  0.30925079388E+02 -0.41358470486E+03  0.41476648592E+03  0.00000000000E+00 0. -1.
<mgrwt>
<rscale>  1 0.30000000E+03</rscale>
<asrwt>0</asrwt>
<pdfrwt beam="1">  1       21 0.36865183E-02 0.30000000E+03</pdfrwt>
<pdfrwt beam="2">0</pdfrwt>
<totfact> 0.48230020E+04</totfact>
</mgrwt>
</event>
<event>
 6    1  0.8397183E-002  0.3000000E+03  0.7818608E-02  0.1093470E+00
         21   -1    0    0  501  502  0.00000000000E+00  0.00000000000E+00  0.11670170014E+01  0.11670170014E+01  0.00000000000E+00 0. -1.
         13   -1    0    0    0    0 -0.00000000000E+00 -0.00000000000E+00 -0.10000000000E+04  0.10000000000E+04  0.00000000000E+00 0.  1.
    9000005    2    1    2  501    0 -0.40848543449E+01 -0.30163979333E+02 -0.27734274080E+03  0.27903495064E+03  0.38673140865E+01 0.  0.
         13    1    3    3    0    0 -0.57805453452E+00 -0.50390090043E+00 -0.99129290014E+01  0.99425461804E+01  0.00000000000E+00 0.  1.
          1    1    3    3  501    0 -0.35067998104E+01 -0.29660078433E+02 -0.26742981180E+03  0.26909240446E+03  0.00000000000E+00 0.  1.
         -3    1    1    2    0  502  0.40848543449E+01  0.30163979333E+02 -0.72149024220E+03  0.72213206636E+03  0.00000000000E+00 0. -1.
<mgrwt>
<rscale>  1 0.30000000E+03</rscale>
<asrwt>0</asrwt>
<pdfrwt beam="1">  1       21 0.42437071E-02 0.30000000E+03</pdfrwt>
<pdfrwt beam="2">0</pdfrwt>
<totfact> 0.38055113E+04</totfact>
</mgrwt>
</event>
<event>
 6    1  0.8397183E-002  0.3000000E+03  0.7818608E-02  0.1093470E+00
         21   -1    0    0  501  502  0.00000000000E+00  0.00000000000E+00  0.15872770734E+01  0.15872770734E+01  0.00000000000E+00 0. -1.
         13   -1    0    0    0    0 -0.00000000000E+00 -0.00000000000E+00 -0.10000000000E+04  0.10000000000E+04  0.00000000000E+00 0.  1.
    9000005    2    1    2  501    0 -0.30841191150E+02 -0.13336338765E+02 -0.23288594890E+03  0.23532343299E+03  0.34951272190E+01 0.  0.
         13    1    3    3    0    0 -0.18667690503E+01 -0.13161795306E+01 -0.21813283987E+02  0.21932544621E+02  0.00000000000E+00 0.  1.
          3    1    3    3  501    0 -0.28974422100E+02 -0.12020159234E+02 -0.21107266491E+03  0.21339088837E+03  0.00000000000E+00 0.  1.
         -1    1    1    2    0  502  0.30841191150E+02  0.13336338765E+02 -0.76552677403E+03  0.76626384409E+03  0.00000000000E+00 0. -1.
<mgrwt>
<rscale>  1 0.30000000E+03</rscale>
<asrwt>0</asrwt>
<pdfrwt beam="1">  1       21 0.57719288E-02 0.30000000E+03</pdfrwt>
<pdfrwt beam="2">0</pdfrwt>
<totfact> 0.22526965E+04</totfact>
</mgrwt>
</event>
<event>
 6    1  0.8397183E-002  0.3000000E+03  0.7818608E-02  0.1093470E+00
         21   -1    0    0  501  502  0.00000000000E+00  0.00000000000E+00  0.15277796046E+01  0.15277796046E+01  0.00000000000E+00 0. -1.
         13   -1    0    0    0    0 -0.00000000000E+00 -0.00000000000E+00 -0.10000000000E+04  0.10000000000E+04  0.00000000000E+00 0.  1.
    9000005    2    1    2  501    0  0.13356111765E+02 -0.36420443339E+02 -0.44619447140E+03  0.44788931774E+03  0.32404055207E+01 0.  0.
         13    1    3    3    0    0 -0.64422839259E-01 -0.10982463753E+00 -0.44710166452E+01  0.44728292607E+01  0.00000000000E+00 0.  1.
          1    1    3    3  501    0  0.13420534604E+02 -0.36310618702E+02 -0.44172345475E+03  0.44341648848E+03  0.00000000000E+00 0.  1.
         -3    1    1    2    0  502 -0.13356111765E+02  0.36420443339E+02 -0.55227774900E+03  0.55363846186E+03  0.00000000000E+00 0. -1.
<mgrwt>
<rscale>  1 0.30000000E+03</rscale>
<asrwt>0</asrwt>
<pdfrwt beam="1">  1       21 0.55555739E-02 0.30000000E+03</pdfrwt>
<pdfrwt beam="2">0</pdfrwt>
<totfact> 0.24055706E+04</totfact>
</mgrwt>
</event>
<event>
 6    1  0.8397183E-002  0.3000000E+03  0.7818608E-02  0.1093470E+00
         21   -1    0    0  501  502  0.00000000000E+00  0.00000000000E+00  0.97001113778E+00  0.97001113778E+00  0.00000000000E+00 0. -1.
         13   -1    0    0    0    0 -0.00000000000E+00 -0.00000000000E+00 -0.10000000000E+04  0.10000000000E+04  0.00000000000E+00 0.  1.
    9000005    2    1    2  501    0  0.30715072075E+02 -0.67782000258E+00 -0.56301233482E+03  0.56387131550E+03  0.49087870974E+01 0.  0.
         13    1    3    3    0    0  0.19828512377E+02  0.13123839177E+01 -0.38923601682E+03  0.38974295252E+03  0.00000000000E+00 0.  1.
          1    1    3    3  501    0  0.10886559698E+02 -0.19902039203E+01 -0.17377631800E+03  0.17412836298E+03  0.00000000000E+00 0.  1.
         -3    1    1    2    0  502 -0.30715072075E+02  0.67782000258E+00 -0.43601765404E+03  0.43709869564E+03  0.00000000000E+00 0. -1.
<mgrwt>
<rscale>  1 0.30000000E+03</rscale>
<asrwt>0</asrwt>
<pdfrwt beam="1">  1       21 0.35273207E-02 0.30000000E+03</pdfrwt>
<pdfrwt beam="2">0</pdfrwt>
<totfact> 0.51935984E+04</totfact>
</mgrwt>
</event>
<event>
 6    1  0.8397183E-002  0.3000000E+03  0.7818608E-02  0.1093470E+00
         21   -1    0    0  501  502  0.00000000000E+00  0.00000000000E+00  0.14096283592E+01  0.14096283592E+01  0.00000000000E+00 0. -1.
         13   -1    0    0    0    0 -0.00000000000E+00 -0.00000000000E+00 -0.10000000000E+04  0.10000000000E+04  0.00000000000E+00 0.  1.
    9000005    2    1    2  501    0 -0.17892697212E+02 -0.27297698221E+02 -0.25492461448E+03  0.25702795790E+03  0.33910371401E+01 0.  0.
         13    1    3    3    0    0 -0.15756561714E+02 -0.25351567739E+02 -0.22695609663E+03  0.22891055245E+03  0.00000000000E+00 0.  1.
          1    1    3    3  501    0 -0.21361354987E+01 -0.19461304822E+01 -0.27968517844E+02  0.28117405447E+02  0.00000000000E+00 0.  1.
         -3    1    1    2    0  502  0.17892697212E+02  0.27297698221E+02 -0.74366575716E+03  0.74438167046E+03  0.00000000000E+00 0. -1.
<mgrwt>
<rscale>  1 0.30000000E+03</rscale>
<asrwt>0</asrwt>
<pdfrwt beam="1">  1       21 0.51259321E-02 0.30000000E+03</pdfrwt>
<pdfrwt beam="2">0</pdfrwt>
<totfact> 0.27608008E+04</totfact>
</mgrwt>
</event>
<event>
 6    1  0.8397183E-002  0.3000000E+03  0.7818608E-02  0.1093470E+00
         21   -1    0    0  501  502  0.00000000000E+00  0.00000000000E+00  0.22015326486E+01  0.22015326486E+01  0.00000000000E+00 0. -1.
         13   -1    0    0    0    0 -0.00000000000E+00 -0.00000000000E+00 -0.10000000000E+04  0.10000000000E+04  0.00000000000E+00 0.  1.
    9000005    2    1    2  501    0  0.18329565242E+02 -0.38896679910E+02 -0.31471358878E+03  0.31776462832E+03  0.89884025532E+01 0.  0.
         13    1    3    3    0    0  0.12174148783E+02 -0.23116141089E+02 -0.15895637648E+03  0.16108909181E+03  0.00000000000E+00 0.  1.
          3    1    3    3  501    0  0.61554164595E+01 -0.15780538821E+02 -0.15575721230E+03  0.15667553651E+03  0.00000000000E+00 0.  1.
         -3    1    1    2    0  502 -0.18329565242E+02  0.38896679910E+02 -0.68308487857E+03  0.68443690433E+03  0.00000000000E+00 0. -1.
<mgrwt>
<rscale>  1 0.30000000E+03</rscale>
<asrwt>0</asrwt>
<pdfrwt beam="1">  1       21 0.80055901E-02 0.30000000E+03</pdfrwt>
<pdfrwt beam="2">0</pdfrwt>
<totfact> 0.12758205E+04</totfact>
</mgrwt>
</event>
<event>
 6    1  0.8397183E-002  0.3000000E+03  0.7818608E-02  0.1093470E+00
         21   -1    0    0  501  502  0.00000000000E+00  0.00000000000E+00  0.21343790576E+01  0.21343790576E+01  0.00000000000E+00 0. -1.
         13   -1    0    0    0    0 -0.00000000000E+00 -0.00000000000E+00 -0.10000000000E+04  0.10000000000E+04  0.00000000000E+00 0.  1.
    9000005    2    1    2  501    0 -0.13309325325E+02  0.43832131504E+02 -0.55942176210E+03  0.56130401344E+03  0.33307208558E+01 0.  0.
         13    1    3    3    0    0 -0.48840755248E+00  0.22600427755E+01 -0.38158605086E+02  0.38228595022E+02  0.00000000000E+00 0.  1.
          1    1    3    3  501    0 -0.12820917773E+02  0.41572088728E+02 -0.52126315701E+03  0.52307541842E+03  0.00000000000E+00 0.  1.
         -3    1    1    2    0  502  0.13309325325E+02 -0.43832131504E+02 -0.43844385884E+03  0.44083036562E+03  0.00000000000E+00 0. -1.
<mgrwt>
<rscale>  1 0.30000000E+03</rscale>
<asrwt>0</asrwt>
<pdfrwt beam="1">  1       21 0.77613948E-02 0.30000000E+03</pdfrwt>
<pdfrwt beam="2">0</pdfrwt>
<totfact> 0.13471044E+04</totfact>
</mgrwt>
</event>
<event>
 6    1  0.8397183E-002  0.3000000E+03  0.7818608E-02  0.1093470E+00
         21   -1    0    0  501  502  0.00000000000E+00  0.00000000000E+00  0.10214759399E+01  0.10214759399E+01  0.00000000000E+00 0. -1.
         13   -1    0    0    0    0 -0.00000000000E+00 -0.00000000000E+00 -0.10000000000E+04  0.10000000000E+04  0.00000000000E+00 0.  1.
    9000005    2    1    2  501    0  0.26599622564E+02  0.15161083232E+02 -0.64016853520E+03  0.64090759607E+03  0.30651071326E+01 0.  0.
         13    1    3    3    0    0  0.18014348213E+02  0.86160380281E+01 -0.40964067329E+03  0.41012709502E+03  0.00000000000E+00 0.  1.
          3    1    3    3  501    0  0.85852743511E+01  0.65450452038E+01 -0.23052786191E+03  0.23078050106E+03  0.00000000000E+00 0.  1.
         -1    1    1    2    0  502 -0.26599622564E+02 -0.15161083232E+02 -0.35880998886E+03  0.36011387987E+03  0.00000000000E+00 0. -1.
<mgrwt>
<rscale>  1 0.30000000E+03</rscale>
<asrwt>0</asrwt>
<pdfrwt beam="1">  1       21 0.37144658E-02 0.30000000E+03</pdfrwt>
<pdfrwt beam="2">0</pdfrwt>
<totfact> 0.47622493E+04</totfact>
</mgrwt>
</event>
<event>
 6    1  0.8397183E-002  0.3000000E+03  0.7818608E-02  0.1093470E+00
         21   -1    0    0  501  502  0.00000000000E+00  0.00000000000E+00  0.13386518567E+01  0.13386518567E+01  0.00000000000E+00 0. -1.
         13   -1    0    0    0    0 -0.00000000000E+00 -0.00000000000E+00 -0.10000000000E+04  0.10000000000E+04  0.00000000000E+00 0.  1.
    9000005    2    1    2  501    0 -0.27412785490E+02  0.13508796919E+02 -0.77374264771E+03  0.77435325539E+03  0.33661331622E+01 0.  0.
         13    1    3    3    0    0 -0.21837993001E+01  0.21884653865E+01 -0.80058522206E+02  0.80118196048E+02  0.00000000000E+00 0.  1.
          1    1    3    3  501    0 -0.25228986189E+02  0.11320331532E+02 -0.69368412550E+03  0.69423505934E+03  0.00000000000E+00 0.  1.
         -3    1    1    2    0  502  0.27412785490E+02 -0.13508796919E+02 -0.22491870044E+03  0.22698539647E+03  0.00000000000E+00 0. -1.
<mgrwt>
<rscale>  1 0.30000000E+03</rscale>
<asrwt>0</asrwt>
<pdfrwt beam="1">  1       21 0.48678352E-02 0.30000000E+03</pdfrwt>
<pdfrwt beam="2">0</pdfrwt>
<totfact> 0.30149708E+04</totfact>
</mgrwt>
</event>
<event>
 6    1  0.8397183E-002  0.3000000E+03  0.7818608E-02  0.1093470E+00
         21   -1    0    0  501  502  0.00000000000E+00  0.00000000000E+00  0.10479717789E+01  0.10479717789E+01  0.00000000000E+00 0. -1.
         13   -1    0    0    0    0 -0.00000000000E+00 -0.00000000000E+00 -0.10000000000E+04  0.10000000000E+04  0.00000000000E+00 0.  1.
    9000005    2    1    2  501    0 -0.29801749782E+02  0.80882967450E+01 -0.64096366826E+03  0.64173024232E+03  0.54511510134E+01 0.  0.
         13    1    3    3    0    0 -0.27908040071E+02  0.74827952957E+01 -0.56271245437E+03  0.56345377559E+03  0.00000000000E+00 0.  1.
          1    1    3    3  501    0 -0.18937097102E+01  0.60550144929E+00 -0.78251213892E+02  0.78276466732E+02  0.00000000000E+00 0.  1.
         -1    1    1    2    0  502  0.29801749782E+02 -0.80882967450E+01 -0.35798835996E+03  0.35931772946E+03  0.00000000000E+00 0. -1.
<mgrwt>
<rscale>  1 0.30000000E+03</rscale>
<asrwt>0</asrwt>
<pdfrwt beam="1">  1       21 0.38108145E-02 0.30000000E+03</pdfrwt>
<pdfrwt beam="2">0</pdfrwt>
<totfact> 0.45617734E+04</totfact>
</mgrwt>
</event>
<event>
 6    1  0.8397183E-002  0.3000000E+03  0.7818608E-02  0.1093470E+00
         21   -1    0    0  501  502  0.00000000000E+00  0.00000000000E+00  0.33270978078E+01  0.33270978078E+01  0.00000000000E+00 0. -1.
         13   -1    0    0    0    0 -0.00000000000E+00 -0.00000000000E+00 -0.10000000000E+04  0.10000000000E+04  0.00000000000E+00 0.  1.
    9000005    2    1    2  501    0  0.17741101451E+02  0.53217600032E+02 -0.38991276690E+03  0.39397931417E+03  0.63933227046E+01 0.  0.
         13    1    3    3    0    0  0.13666036827E+02  0.47562568785E+02 -0.34048262761E+03  0.34406013750E+03  0.00000000000E+00 0.  1.
          3    1    3    3  501    0  0.40750646239E+01  0.56550312474E+01 -0.49430139284E+02  0.49919176673E+02  0.00000000000E+00 0.  1.
         -1    1    1    2    0  502 -0.17741101451E+02 -0.53217600032E+02 -0.60676013530E+03  0.60934778363E+03  0.00000000000E+00 0. -1.
<mgrwt>
<rscale>  1 0.30000000E+03</rscale>
<asrwt>0</asrwt>
<pdfrwt beam="1">  1       21 0.12098563E-01 0.30000000E+03</pdfrwt>
<pdfrwt beam="2">0</pdfrwt>
<totfact> 0.61057527E+03</totfact>
</mgrwt>
</event>
<event>
 6    1  0.8397183E-002  0.3000000E+03  0.7818608E-02  0.1093470E+00
         21   -1    0    0  501  502  0.00000000000E+00  0.00000000000E+00  0.21963156335E+01  0.21963156335E+01  0.00000000000E+00 0. -1.
         13   -1    0    0    0    0 -0.00000000000E+00 -0.00000000000E+00 -0.10000000000E+04  0.10000000000E+04  0.00000000000E+00 0.  1.
    9000005    2    1    2  501    0 -0.40364304647E+02  0.10444534318E+02 -0.72651290404E+03  0.72772035516E+03  0.41892950856E+01 0.  0.
         13    1    3    3    0    0 -0.21240076022E+01  0.12158365864E+01 -0.57306406166E+02  0.57358642370E+02  0.00000000000E+00 0.  1.
          3    1    3    3  501    0 -0.38240297044E+02  0.92286977317E+01 -0.66920649788E+03  0.67036171279E+03  0.00000000000E+00 0.  1.
         -3    1    1    2    0  502  0.40364304647E+02 -0.10444534318E+02 -0.27129078033E+03  0.27447596047E+03  0.00000000000E+00 0. -1.
<mgrwt>
<rscale>  1 0.30000000E+03</rscale>
<asrwt>0</asrwt>
<pdfrwt beam="1">  1       21 0.79866191E-02 0.30000000E+03</pdfrwt>
<pdfrwt beam="2">0</pdfrwt>
<totfact> 0.12811482E+04</totfact>
</mgrwt>
</event>
<event>
 6    1  0.8397183E-002  0.3000000E+03  0.7818608E-02  0.1093470E+00
         21   -1    0    0  501  502  0.00000000000E+00  0.00000000000E+00  0.99213372912E+00  0.99213372912E+00  0.00000000000E+00 0. -1.
         13   -1    0    0    0    0 -0.00000000000E+00 -0.00000000000E+00 -0.10000000000E+04  0.10000000000E+04  0.00000000000E+00 0.  1.
    9000005    2    1    2  501    0 -0.66881655508E+00 -0.30511893677E+02 -0.61818193087E+03  0.61894525697E+03  0.35928392486E+01 0.  0.
         13    1    3    3    0    0 -0.98151900873E+00 -0.20185824104E+02 -0.37534871223E+03  0.37589238706E+03  0.00000000000E+00 0.  1.
          3    1    3    3  501    0  0.31270245365E+00 -0.10326069573E+02 -0.24283321864E+03  0.24305286990E+03  0.00000000000E+00 0.  1.
         -1    1    1    2    0  502  0.66881655508E+00  0.30511893677E+02 -0.38082593540E+03  0.38204687676E+03  0.00000000000E+00 0. -1.
<mgrwt>
<rscale>  1 0.30000000E+03</rscale>
<asrwt>0</asrwt>
<pdfrwt beam="1">  1       21 0.36077666E-02 0.30000000E+03</pdfrwt>
<pdfrwt beam="2">0</pdfrwt>
<totfact> 0.50009247E+04</totfact>
</mgrwt>
</event>
<event>
 6    1  0.8397183E-002  0.3000000E+03  0.7818608E-02  0.1093470E+00
         21   -1    0    0  501  502  0.00000000000E+00  0.00000000000E+00  0.21707634484E+01  0.21707634484E+01  0.00000000000E+00 0. -1.
         13   -1    0    0    0    0 -0.00000000000E+00 -0.00000000000E+00 -0.10000000000E+04  0.10000000000E+04  0.00000000000E+00 0.  1.
    9000005    2    1    2  501    0 -0.42805755145E+02  0.56816370985E+00 -0.69570792161E+03  0.69703154207E+03  0.32867858022E+01 0.  0.
         13    1    3    3    0    0 -0.31737689103E+02  0.37266043127E+00 -0.53819845818E+03  0.53913356432E+03  0.00000000000E+00 0.  1.
          1    1    3    3  501    0 -0.11068066042E+02  0.19550327858E+00 -0.15750946343E+03  0.15789797775E+03  0.00000000000E+00 0.  1.
         -3    1    1    2    0  502  0.42805755145E+02 -0.56816370985E+00 -0.30212131494E+03  0.30513922138E+03  0.00000000000E+00 0. -1.
<mgrwt>
<rscale>  1 0.30000000E+03</rscale>
<asrwt>0</asrwt>
<pdfrwt beam="1">  1       21 0.78937019E-02 0.30000000E+03</pdfrwt>
<pdfrwt beam="2">0</pdfrwt>
<totfact> 0.13077429E+04</totfact>
</mgrwt>
</event>
<event>
 6    1  0.8397183E-002  0.3000000E+03  0.7818608E-02  0.1093470E+00
         21   -1    0    0  501  502  0.00000000000E+00  0.00000000000E+00  0.49967226381E+01  0.49967226381E+01  0.00000000000E+00 0. -1.
         13   -1    0    0    0    0 -0.00000000000E+00 -0.00000000000E+00 -0.10000000000E+04  0.10000000000E+04  0.00000000000E+00 0.  1.
    9000005    2    1    2  501    0 -0.67299111363E+02  0.26771514331E+01 -0.34609952936E+03  0.35260695287E+03  0.32313244242E+01 0.  0.
         13    1    3    3    0    0 -0.62387905756E+02  0.28300171224E+01 -0.31656491980E+03  0.32266640393E+03  0.00000000000E+00 0.  1.
          3    1    3    3  501    0 -0.49112056069E+01 -0.15286568936E+00 -0.29534609562E+02  0.29940548933E+02  0.00000000000E+00 0.  1.
         -1    1    1    2    0  502  0.67299111363E+02 -0.26771514331E+01 -0.64890374800E+03  0.65238976977E+03  0.00000000000E+00 0. -1.
<mgrwt>
<rscale>  1 0.30000000E+03</rscale>
<asrwt>0</asrwt>
<pdfrwt beam="1">  1       21 0.18169939E-01 0.30000000E+03</pdfrwt>
<pdfrwt beam="2">0</pdfrwt>
<totfact> 0.28781352E+03</totfact>
</mgrwt>
</event>
<event>
 6    1  0.8397183E-002  0.3000000E+03  0.7818608E-02  0.1093470E+00
         21   -1    0    0  501  502  0.00000000000E+00  0.00000000000E+00  0.10582144455E+01  0.10582144455E+01  0.00000000000E+00 0. -1.
         13   -1    0    0    0    0 -0.00000000000E+00 -0.00000000000E+00 -0.10000000000E+04  0.10000000000E+04  0.00000000000E+00 0.  1.
    9000005    2    1    2  501    0 -0.18809053434E+02 -0.26259817040E+02 -0.53401293780E+03  0.53500865490E+03  0.45917963499E+01 0.  0.
         13    1    3    3    0    0 -0.29250514672E+01 -0.32164537611E+01 -0.50705653151E+02  0.50891696399E+02  0.00000000000E+00 0.  1.
          3    1    3    3  501    0 -0.15884001967E+02 -0.23043363279E+02 -0.48330728465E+03  0.48411695850E+03  0.00000000000E+00 0.  1.
         -3    1    1    2    0  502  0.18809053434E+02  0.26259817040E+02 -0.46492884775E+03  0.46604955955E+03  0.00000000000E+00 0. -1.
<mgrwt>
<rscale>  1 0.30000000E+03</rscale>
<asrwt>0</asrwt>
<pdfrwt beam="1">  1       21 0.38480606E-02 0.30000000E+03</pdfrwt>
<pdfrwt beam="2">0</pdfrwt>
<totfact> 0.44878093E+04</totfact>
</mgrwt>
</event>
<event>
 6    1  0.8397183E-002  0.3000000E+03  0.7818608E-02  0.1093470E+00
         21   -1    0    0  501  502  0.00000000000E+00  0.00000000000E+00  0.15324544419E+01  0.15324544419E+01  0.00000000000E+00 0. -1.
         13   -1    0    0    0    0 -0.00000000000E+00 -0.00000000000E+00 -0.10000000000E+04  0.10000000000E+04  0.00000000000E+00 0.  1.
    9000005    2    1    2  501    0 -0.29849339540E+02  0.17068380693E+02 -0.73764563677E+03  0.73845379549E+03  0.32572905483E+01 0.  0.
         13    1    3    3    0    0 -0.19056494262E+02  0.12086733310E+02 -0.50724562030E+03  0.50774733717E+03  0.00000000000E+00 0.  1.
          1    1    3    3  501    0 -0.10792845278E+02  0.49816473827E+01 -0.23040001647E+03  0.23070645832E+03  0.00000000000E+00 0.  1.
         -3    1    1    2    0  502  0.29849339540E+02 -0.17068380693E+02 -0.26082190879E+03  0.26307865895E+03  0.00000000000E+00 0. -1.
<mgrwt>
<rscale>  1 0.30000000E+03</rscale>
<asrwt>0</asrwt>
<pdfrwt beam="1">  1       21 0.55725734E-02 0.30000000E+03</pdfrwt>
<pdfrwt beam="2">0</pdfrwt>
<totfact> 0.23929905E+04</totfact>
</mgrwt>
</event>
<event>
 6    1  0.1547833E-001  0.3000000E+03  0.7818608E-02  0.1093470E+00
         21   -1    0    0  501  502  0.00000000000E+00  0.00000000000E+00  0.19548663935E+01  0.19548663935E+01  0.00000000000E+00 0. -1.
         13   -1    0    0    0    0 -0.00000000000E+00 -0.00000000000E+00 -0.10000000000E+04  0.10000000000E+04  0.00000000000E+00 0.  1.
    9000005    2    1    2  501    0  0.35180575351E+02 -0.22611478023E+02 -0.64728182845E+03  0.64870729306E+03  0.99214318310E+01 0.  0.
         13    1    3    3    0    0  0.28439596377E+02 -0.14670991017E+02 -0.52934623310E+03  0.53031262772E+03  0.00000000000E+00 0.  1.
          1    1    3    3  501    0  0.67409789739E+01 -0.79404870062E+01 -0.11793559535E+03  0.11839466534E+03  0.00000000000E+00 0.  1.
         -1    1    1    2    0  502 -0.35180575351E+02  0.22611478023E+02 -0.35076330516E+03  0.35324757333E+03  0.00000000000E+00 0. -1.
<mgrwt>
<rscale>  1 0.30000000E+03</rscale>
<asrwt>0</asrwt>
<pdfrwt beam="1">  1       21 0.71086201E-02 0.30000000E+03</pdfrwt>
<pdfrwt beam="2">0</pdfrwt>
<totfact> 0.15708374E+04</totfact>
</mgrwt>
</event>
<event>
 6    1  0.8397183E-002  0.3000000E+03  0.7818608E-02  0.1093470E+00
         21   -1    0    0  501  502  0.00000000000E+00  0.00000000000E+00  0.17000777175E+01  0.17000777175E+01  0.00000000000E+00 0. -1.
         13   -1    0    0    0    0 -0.00000000000E+00 -0.00000000000E+00 -0.10000000000E+04  0.10000000000E+04  0.00000000000E+00 0.  1.
    9000005    2    1    2  501    0 -0.31852933627E+02  0.35262765933E+01 -0.18614361044E+03  0.18891171727E+03  0.33390430386E+01 0.  0.
         13    1    3    3    0    0 -0.17119806527E+02  0.70163028548E+00 -0.92359616863E+02  0.93935503872E+02  0.00000000000E+00 0.  1.
          3    1    3    3  501    0 -0.14733127100E+02  0.28246463078E+01 -0.93783993576E+02  0.94976213401E+02  0.00000000000E+00 0.  1.
         -3    1    1    2    0  502  0.31852933627E+02 -0.35262765933E+01 -0.81215631184E+03  0.81278836044E+03  0.00000000000E+00 0. -1.
<mgrwt>
<rscale>  1 0.30000000E+03</rscale>
<asrwt>0</asrwt>
<pdfrwt beam="1">  1       21 0.61821138E-02 0.30000000E+03</pdfrwt>
<pdfrwt beam="2">0</pdfrwt>
<totfact> 0.20011937E+04</totfact>
</mgrwt>
</event>
<event>
 6    1  0.8397183E-002  0.3000000E+03  0.7818608E-02  0.1093470E+00
         21   -1    0    0  501  502  0.00000000000E+00  0.00000000000E+00  0.11021714359E+01  0.11021714359E+01  0.00000000000E+00 0. -1.
         13   -1    0    0    0    0 -0.00000000000E+00 -0.00000000000E+00 -0.10000000000E+04  0.10000000000E+04  0.00000000000E+00 0.  1.
    9000005    2    1    2  501    0  0.76602843786E+00 -0.30335470786E+02 -0.30029500363E+03  0.30184060765E+03  0.31361810964E+01 0.  0.
         13    1    3    3    0    0  0.19289222522E+01 -0.15676285779E+02 -0.15227176138E+03  0.15308871935E+03  0.00000000000E+00 0.  1.
          3    1    3    3  501    0 -0.11628938144E+01 -0.14659185007E+02 -0.14802324225E+03  0.14875188830E+03  0.00000000000E+00 0.  1.
         -3    1    1    2    0  502 -0.76602843786E+00  0.30335470786E+02 -0.69860282493E+03  0.69926156379E+03  0.00000000000E+00 0. -1.
<mgrwt>
<rscale>  1 0.30000000E+03</rscale>
<asrwt>0</asrwt>
<pdfrwt beam="1">  1       21 0.40079046E-02 0.30000000E+03</pdfrwt>
<pdfrwt beam="2">0</pdfrwt>
<totfact> 0.41907758E+04</totfact>
</mgrwt>
</event>
<event>
 6    1  0.8397183E-002  0.3000000E+03  0.7818608E-02  0.1093470E+00
         21   -1    0    0  501  502  0.00000000000E+00  0.00000000000E+00  0.14357411833E+01  0.14357411833E+01  0.00000000000E+00 0. -1.
         13   -1    0    0    0    0 -0.00000000000E+00 -0.00000000000E+00 -0.10000000000E+04  0.10000000000E+04  0.00000000000E+00 0.  1.
    9000005    2    1    2  501    0 -0.37326287984E+02  0.43982718511E+01 -0.55306677324E+03  0.55435565191E+03  0.38388243097E+01 0.  0.
         13    1    3    3    0    0 -0.30530224382E+02  0.21972860378E+01 -0.45642158485E+03  0.45744681197E+03  0.00000000000E+00 0.  1.
          1    1    3    3  501    0 -0.67960636017E+01  0.22009858133E+01 -0.96645188391E+02  0.96908839938E+02  0.00000000000E+00 0.  1.
         -1    1    1    2    0  502  0.37326287984E+02 -0.43982718511E+01 -0.44549748558E+03  0.44708008927E+03  0.00000000000E+00 0. -1.
<mgrwt>
<rscale>  1 0.30000000E+03</rscale>
<asrwt>0</asrwt>
<pdfrwt beam="1">  1       21 0.52208880E-02 0.30000000E+03</pdfrwt>
<pdfrwt beam="2">0</pdfrwt>
<totfact> 0.26755994E+04</totfact>
</mgrwt>
</event>
<event>
 6    1  0.8397183E-002  0.3000000E+03  0.7818608E-02  0.1093470E+00
         21   -1    0    0  501  502  0.00000000000E+00  0.00000000000E+00  0.75000641454E+01  0.75000641454E+01  0.00000000000E+00 0. -1.
         13   -1    0    0    0    0 -0.00000000000E+00 -0.00000000000E+00 -0.10000000000E+04  0.10000000000E+04  0.00000000000E+00 0.  1.
    9000005    2    1    2  501    0 -0.56336018517E+02 -0.57007922366E+02 -0.30759092246E+03  0.31791757682E+03  0.59799562956E+01 0.  0.
         13    1    3    3    0    0 -0.36414715444E+02 -0.37506326334E+02 -0.18923710651E+03  0.19632482903E+03  0.00000000000E+00 0.  1.
          1    1    3    3  501    0 -0.19921303073E+02 -0.19501596032E+02 -0.11835381595E+03  0.12159274779E+03  0.00000000000E+00 0.  1.
         -1    1    1    2    0  502  0.56336018517E+02  0.57007922366E+02 -0.68490901340E+03  0.68958248733E+03  0.00000000000E+00 0. -1.
<mgrwt>
<rscale>  1 0.30000000E+03</rscale>
<asrwt>0</asrwt>
<pdfrwt beam="1">  1       21 0.27273018E-01 0.30000000E+03</pdfrwt>
<pdfrwt beam="2">0</pdfrwt>
<totfact> 0.13140906E+03</totfact>
</mgrwt>
</event>
<event>
 6    1  0.8397183E-002  0.3000000E+03  0.7818608E-02  0.1093470E+00
         21   -1    0    0  501  502  0.00000000000E+00  0.00000000000E+00  0.33040361768E+01  0.33040361768E+01  0.00000000000E+00 0. -1.
         13   -1    0    0    0    0 -0.00000000000E+00 -0.00000000000E+00 -0.10000000000E+04  0.10000000000E+04  0.00000000000E+00 0.  1.
    9000005    2    1    2  501    0 -0.43610226824E+02 -0.33857023526E+02 -0.63677118774E+03  0.63916945342E+03  0.34488716122E+01 0.  0.
         13    1    3    3    0    0 -0.13593222792E+02 -0.10658004630E+02 -0.21814294276E+03  0.21882575773E+03  0.00000000000E+00 0.  1.
          3    1    3    3  501    0 -0.30017004031E+02 -0.23199018897E+02 -0.41862824498E+03  0.42034369569E+03  0.00000000000E+00 0.  1.
         -3    1    1    2    0  502  0.43610226824E+02  0.33857023526E+02 -0.35992477608E+03  0.36413458276E+03  0.00000000000E+00 0. -1.
<mgrwt>
<rscale>  1 0.30000000E+03</rscale>
<asrwt>0</asrwt>
<pdfrwt beam="1">  1       21 0.12014702E-01 0.30000000E+03</pdfrwt>
<pdfrwt beam="2">0</pdfrwt>
<totfact> 0.61833625E+03</totfact>
</mgrwt>
</event>
<event>
 6    1  0.8397183E-002  0.3000000E+03  0.7818608E-02  0.1093470E+00
         21   -1    0    0  501  502  0.00000000000E+00  0.00000000000E+00  0.76581166987E+01  0.76581166987E+01  0.00000000000E+00 0. -1.
         13   -1    0    0    0    0 -0.00000000000E+00 -0.00000000000E+00 -0.10000000000E+04  0.10000000000E+04  0.00000000000E+00 0.  1.
    9000005    2    1    2  501    0  0.34730235802E+02  0.79963552540E+02 -0.53850235278E+03  0.54552103911E+03  0.28392171887E+01 0.  0.
         13    1    3    3    0    0  0.31491350660E+02  0.74067819851E+02 -0.49418866994E+03  0.50069969902E+03  0.00000000000E+00 0.  1.
          3    1    3    3  501    0  0.32388851414E+01  0.58957326888E+01 -0.44313682838E+02  0.44821340091E+02  0.00000000000E+00 0.  1.
         -1    1    1    2    0  502 -0.34730235802E+02 -0.79963552540E+02 -0.45383953052E+03  0.46213707759E+03  0.00000000000E+00 0. -1.
<mgrwt>
<rscale>  1 0.30000000E+03</rscale>
<asrwt>0</asrwt>
<pdfrwt beam="1">  1       21 0.27847756E-01 0.30000000E+03</pdfrwt>
<pdfrwt beam="2">0</pdfrwt>
<totfact> 0.12609531E+03</totfact>
</mgrwt>
</event>
<event>
 6    1  0.8397183E-002  0.3000000E+03  0.7818608E-02  0.1093470E+00
         21   -1    0    0  501  502  0.00000000000E+00  0.00000000000E+00  0.17365897278E+01  0.17365897278E+01  0.00000000000E+00 0. -1.
         13   -1    0    0    0    0 -0.00000000000E+00 -0.00000000000E+00 -0.10000000000E+04  0.10000000000E+04  0.00000000000E+00 0.  1.
    9000005    2    1    2  501    0 -0.45696749350E+01  0.40348962038E+02 -0.60782079345E+03  0.60918804789E+03  0.38781538906E+01 0.  0.
         13    1    3    3    0    0 -0.28472059996E+01  0.16513632737E+02 -0.27544133322E+03  0.27595060191E+03  0.00000000000E+00 0.  1.
          1    1    3    3  501    0 -0.17224689354E+01  0.23835329301E+02 -0.33237946023E+03  0.33323744598E+03  0.00000000000E+00 0.  1.
         -3    1    1    2    0  502  0.45696749350E+01 -0.40348962038E+02 -0.39044261682E+03  0.39254854183E+03  0.00000000000E+00 0. -1.
<mgrwt>
<rscale>  1 0.30000000E+03</rscale>
<asrwt>0</asrwt>
<pdfrwt beam="1">  1       21 0.63148851E-02 0.30000000E+03</pdfrwt>
<pdfrwt beam="2">0</pdfrwt>
<totfact> 0.19290560E+04</totfact>
</mgrwt>
</event>
<event>
 6    1  0.8397183E-002  0.3000000E+03  0.7818608E-02  0.1093470E+00
         21   -1    0    0  501  502  0.00000000000E+00  0.00000000000E+00  0.15917603352E+01  0.15917603352E+01  0.00000000000E+00 0. -1.
         13   -1    0    0    0    0 -0.00000000000E+00 -0.00000000000E+00 -0.10000000000E+04  0.10000000000E+04  0.00000000000E+00 0.  1.
    9000005    2    1    2  501    0  0.10891580932E+02  0.35638124641E+02 -0.67365583395E+03  0.67470825283E+03  0.55082987763E+01 0.  0.
         13    1    3    3    0    0  0.67840802370E+01  0.27380467812E+02 -0.53827889712E+03  0.53901751812E+03  0.00000000000E+00 0.  1.
          3    1    3    3  501    0  0.41075006952E+01  0.82576568284E+01 -0.13537693684E+03  0.13569073471E+03  0.00000000000E+00 0.  1.
         -3    1    1    2    0  502 -0.10891580932E+02 -0.35638124641E+02 -0.32475240571E+03  0.32688350751E+03  0.00000000000E+00 0. -1.
<mgrwt>
<rscale>  1 0.30000000E+03</rscale>
<asrwt>0</asrwt>
<pdfrwt beam="1">  1       21 0.57882316E-02 0.30000000E+03</pdfrwt>
<pdfrwt beam="2">0</pdfrwt>
<totfact> 0.22417843E+04</totfact>
</mgrwt>
</event>
<event>
 6    1  0.8397183E-002  0.3000000E+03  0.7818608E-02  0.1093470E+00
         21   -1    0    0  501  502  0.00000000000E+00  0.00000000000E+00  0.10843403308E+01  0.10843403308E+01  0.00000000000E+00 0. -1.
         13   -1    0    0    0    0 -0.00000000000E+00 -0.00000000000E+00 -0.10000000000E+04  0.10000000000E+04  0.00000000000E+00 0.  1.
    9000005    2    1    2  501    0 -0.23409572375E+02  0.22169827836E+02 -0.59568809431E+03  0.59656984267E+03  0.34295985381E+01 0.  0.
         13    1    3    3    0    0 -0.21070488156E+02  0.18805840107E+02 -0.50476716967E+03  0.50555664437E+03  0.00000000000E+00 0.  1.
          1    1    3    3  501    0 -0.23390842186E+01  0.33639877293E+01 -0.90920924635E+02  0.91013198301E+02  0.00000000000E+00 0.  1.
         -1    1    1    2    0  502  0.23409572375E+02 -0.22169827836E+02 -0.40322756536E+03  0.40451449766E+03  0.00000000000E+00 0. -1.
<mgrwt>
<rscale>  1 0.30000000E+03</rscale>
<asrwt>0</asrwt>
<pdfrwt beam="1">  1       21 0.39430641E-02 0.30000000E+03</pdfrwt>
<pdfrwt beam="2">0</pdfrwt>
<totfact> 0.43074445E+04</totfact>
</mgrwt>
</event>
<event>
 6    1  0.8397183E-002  0.3000000E+03  0.7818608E-02  0.1093470E+00
         21   -1    0    0  501  502  0.00000000000E+00  0.00000000000E+00  0.25567849003E+01  0.25567849003E+01  0.00000000000E+00 0. -1.
         13   -1    0    0    0    0 -0.00000000000E+00 -0.00000000000E+00 -0.10000000000E+04  0.10000000000E+04  0.00000000000E+00 0.  1.
    9000005    2    1    2  501    0 -0.23828022576E+02  0.42788695806E+02 -0.62058055616E+03  0.62252506142E+03  0.43102509258E+01 0.  0.
         13    1    3    3    0    0 -0.45186075995E+01  0.58127076289E+01 -0.80516780921E+02  0.80852689470E+02  0.00000000000E+00 0.  1.
          1    1    3    3  501    0 -0.19309414976E+02  0.36975988177E+02 -0.54006377524E+03  0.54167237195E+03  0.00000000000E+00 0.  1.
         -3    1    1    2    0  502  0.23828022576E+02 -0.42788695806E+02 -0.37686265894E+03  0.38003172348E+03  0.00000000000E+00 0. -1.
<mgrwt>
<rscale>  1 0.30000000E+03</rscale>
<asrwt>0</asrwt>
<pdfrwt beam="1">  1       21 0.92974192E-02 0.30000000E+03</pdfrwt>
<pdfrwt beam="2">0</pdfrwt>
<totfact> 0.97963220E+03</totfact>
</mgrwt>
</event>
<event>
 6    1  0.8397183E-002  0.3000000E+03  0.7818608E-02  0.1093470E+00
         21   -1    0    0  501  502  0.00000000000E+00  0.00000000000E+00  0.33941337688E+01  0.33941337688E+01  0.00000000000E+00 0. -1.
         13   -1    0    0    0    0 -0.00000000000E+00 -0.00000000000E+00 -0.10000000000E+04  0.10000000000E+04  0.00000000000E+00 0.  1.
    9000005    2    1    2  501    0  0.21145982337E+02  0.53607523599E+02 -0.42766373991E+03  0.43154095133E+03  0.32247621286E+01 0.  0.
         13    1    3    3    0    0  0.79053859876E+00  0.17658433128E+01 -0.10628868509E+02  0.10803517930E+02  0.00000000000E+00 0.  1.
          3    1    3    3  501    0  0.20355443739E+02  0.51841680286E+02 -0.41703487140E+03  0.42073743340E+03  0.00000000000E+00 0.  1.
         -1    1    1    2    0  502 -0.21145982337E+02 -0.53607523599E+02 -0.56894212633E+03  0.57185318244E+03  0.00000000000E+00 0. -1.
<mgrwt>
<rscale>  1 0.30000000E+03</rscale>
<asrwt>0</asrwt>
<pdfrwt beam="1">  1       21 0.12342331E-01 0.30000000E+03</pdfrwt>
<pdfrwt beam="2">0</pdfrwt>
<totfact> 0.58882176E+03</totfact>
</mgrwt>
</event>
<event>
 6    1  0.8397183E-002  0.3000000E+03  0.7818608E-02  0.1093470E+00
         21   -1    0    0  501  502  0.00000000000E+00  0.00000000000E+00  0.20971313346E+01  0.20971313346E+01  0.00000000000E+00 0. -1.
         13   -1    0    0    0    0 -0.00000000000E+00 -0.00000000000E+00 -0.10000000000E+04  0.10000000000E+04  0.00000000000E+00 0.  1.
    9000005    2    1    2  501    0 -0.43503939480E+02  0.11934794404E+02 -0.41821464469E+03  0.42065627529E+03  0.36305420866E+01 0.  0.
         13    1    3    3    0    0 -0.23193015457E+02  0.80918091800E+01 -0.22057693959E+03  0.22194048667E+03  0.00000000000E+00 0.  1.
          1    1    3    3  501    0 -0.20310924024E+02  0.38429852237E+01 -0.19763770510E+03  0.19871578862E+03  0.00000000000E+00 0.  1.
         -1    1    1    2    0  502  0.43503939480E+02 -0.11934794404E+02 -0.57968822397E+03  0.58144085605E+03  0.00000000000E+00 0. -1.
<mgrwt>
<rscale>  1 0.30000000E+03</rscale>
<asrwt>0</asrwt>
<pdfrwt beam="1">  1       21 0.76259482E-02 0.30000000E+03</pdfrwt>
<pdfrwt beam="2">0</pdfrwt>
<totfact> 0.13893244E+04</totfact>
</mgrwt>
</event>
<event>
 6    1  0.8397183E-002  0.3000000E+03  0.7818608E-02  0.1093470E+00
         21   -1    0    0  501  502  0.00000000000E+00  0.00000000000E+00  0.22082994035E+01  0.22082994035E+01  0.00000000000E+00 0. -1.
         13   -1    0    0    0    0 -0.00000000000E+00 -0.00000000000E+00 -0.10000000000E+04  0.10000000000E+04  0.00000000000E+00 0.  1.
    9000005    2    1    2  501    0 -0.17206027970E+02  0.42500919476E+02 -0.41076348345E+03  0.41339211138E+03  0.80014285452E+01 0.  0.
         13    1    3    3    0    0 -0.49972592197E+01  0.10854010157E+02 -0.78913707530E+02  0.79813253112E+02  0.00000000000E+00 0.  1.
          1    1    3    3  501    0 -0.12208768750E+02  0.31646909318E+02 -0.33184977592E+03  0.33357885827E+03  0.00000000000E+00 0.  1.
         -3    1    1    2    0  502  0.17206027970E+02 -0.42500919476E+02 -0.58702821714E+03  0.58881618802E+03  0.00000000000E+00 0. -1.
<mgrwt>
<rscale>  1 0.30000000E+03</rscale>
<asrwt>0</asrwt>
<pdfrwt beam="1">  1       21 0.80301966E-02 0.30000000E+03</pdfrwt>
<pdfrwt beam="2">0</pdfrwt>
<totfact> 0.12689609E+04</totfact>
</mgrwt>
</event>
<event>
 6    1  0.8397183E-002  0.3000000E+03  0.7818608E-02  0.1093470E+00
         21   -1    0    0  501  502  0.00000000000E+00  0.00000000000E+00  0.12802129146E+01  0.12802129146E+01  0.00000000000E+00 0. -1.
         13   -1    0    0    0    0 -0.00000000000E+00 -0.00000000000E+00 -0.10000000000E+04  0.10000000000E+04  0.00000000000E+00 0.  1.
    9000005    2    1    2  501    0  0.14506177677E+02  0.29284283611E+02 -0.69938864287E+03  0.70017037854E+03  0.51075196951E+01 0.  0.
         13    1    3    3    0    0  0.55900374002E+01  0.10964930122E+02 -0.31777540391E+03  0.31801365621E+03  0.00000000000E+00 0.  1.
          1    1    3    3  501    0  0.89161402767E+01  0.18319353489E+02 -0.38161323896E+03  0.38215672233E+03  0.00000000000E+00 0.  1.
         -3    1    1    2    0  502 -0.14506177677E+02 -0.29284283611E+02 -0.29933114422E+03  0.30110983437E+03  0.00000000000E+00 0. -1.
<mgrwt>
<rscale>  1 0.30000000E+03</rscale>
<asrwt>0</asrwt>
<pdfrwt beam="1">  1       21 0.46553295E-02 0.30000000E+03</pdfrwt>
<pdfrwt beam="2">0</pdfrwt>
<totfact> 0.32528133E+04</totfact>
</mgrwt>
</event>
<event>
 6    1  0.8397183E-002  0.3000000E+03  0.7818608E-02  0.1093470E+00
         21   -1    0    0  501  502  0.00000000000E+00  0.00000000000E+00  0.18423134124E+01  0.18423134124E+01  0.00000000000E+00 0. -1.
         13   -1    0    0    0    0 -0.00000000000E+00 -0.00000000000E+00 -0.10000000000E+04  0.10000000000E+04  0.00000000000E+00 0.  1.
    9000005    2    1    2  501    0  0.32424519783E+02 -0.27826143561E+02 -0.45768858288E+03  0.45968689675E+03  0.27496182862E+01 0.  0.
         13    1    3    3    0    0  0.73891222792E+01 -0.48808661226E+01 -0.93621222655E+02  0.94039115870E+02  0.00000000000E+00 0.  1.
          3    1    3    3  501    0  0.25035397504E+02 -0.22945277438E+02 -0.36406736022E+03  0.36564778088E+03  0.00000000000E+00 0.  1.
         -1    1    1    2    0  502 -0.32424519783E+02  0.27826143561E+02 -0.54046910371E+03  0.54215541666E+03  0.00000000000E+00 0. -1.
<mgrwt>
<rscale>  1 0.30000000E+03</rscale>
<asrwt>0</asrwt>
<pdfrwt beam="1">  1       21 0.66993356E-02 0.30000000E+03</pdfrwt>
<pdfrwt beam="2">0</pdfrwt>
<totfact> 0.17414176E+04</totfact>
</mgrwt>
</event>
<event>
 6    1  0.8397183E-002  0.3000000E+03  0.7818608E-02  0.1093470E+00
         21   -1    0    0  501  502  0.00000000000E+00  0.00000000000E+00  0.99867133796E+00  0.99867133796E+00  0.00000000000E+00 0. -1.
         13   -1    0    0    0    0 -0.00000000000E+00 -0.00000000000E+00 -0.10000000000E+04  0.10000000000E+04  0.00000000000E+00 0.  1.
    9000005    2    1    2  501    0 -0.26464356659E+02 -0.16973151486E+02 -0.53212968787E+03  0.53306963930E+03  0.35756943297E+01 0.  0.
         13    1    3    3    0    0 -0.31416215632E+01 -0.33106805336E+01 -0.67070056981E+02  0.67225165935E+02  0.00000000000E+00 0.  1.
          1    1    3    3  501    0 -0.23322735096E+02 -0.13662470952E+02 -0.46505963089E+03  0.46584447337E+03  0.00000000000E+00 0.  1.
         -1    1    1    2    0  502  0.26464356659E+02  0.16973151486E+02 -0.46687164079E+03  0.46792903204E+03  0.00000000000E+00 0. -1.
<mgrwt>
<rscale>  1 0.30000000E+03</rscale>
<asrwt>0</asrwt>
<pdfrwt beam="1">  1       21 0.36315398E-02 0.30000000E+03</pdfrwt>
<pdfrwt beam="2">0</pdfrwt>
<totfact> 0.49461379E+04</totfact>
</mgrwt>
</event>
<event>
 6    1  0.8397183E-002  0.3000000E+03  0.7818608E-02  0.1093470E+00
         21   -1    0    0  501  502  0.00000000000E+00  0.00000000000E+00  0.10091628983E+01  0.10091628983E+01  0.00000000000E+00 0. -1.
         13   -1    0    0    0    0 -0.00000000000E+00 -0.00000000000E+00 -0.10000000000E+04  0.10000000000E+04  0.00000000000E+00 0.  1.
    9000005    2    1    2  501    0  0.22941252356E+02 -0.21574979507E+02 -0.56184456705E+03  0.56272997993E+03  0.19829250028E+01 0.  0.
         13    1    3    3    0    0  0.13083918257E+01 -0.19328244964E+01 -0.42815938259E+02  0.42879508727E+02  0.00000000000E+00 0.  1.
          1    1    3    3  501    0  0.21632860531E+02 -0.19642155011E+02 -0.51902862879E+03  0.51985047120E+03  0.00000000000E+00 0.  1.
         -3    1    1    2    0  502 -0.22941252356E+02  0.21574979507E+02 -0.43714627005E+03  0.43827918297E+03  0.00000000000E+00 0. -1.
<mgrwt>
<rscale>  1 0.30000000E+03</rscale>
<asrwt>0</asrwt>
<pdfrwt beam="1">  1       21 0.36696910E-02 0.30000000E+03</pdfrwt>
<pdfrwt beam="2">0</pdfrwt>
<totfact> 0.48601725E+04</totfact>
</mgrwt>
</event>
<event>
 6    1  0.8397183E-002  0.3000000E+03  0.7818608E-02  0.1093470E+00
         21   -1    0    0  501  502  0.00000000000E+00  0.00000000000E+00  0.16838780276E+01  0.16838780276E+01  0.00000000000E+00 0. -1.
         13   -1    0    0    0    0 -0.00000000000E+00 -0.00000000000E+00 -0.10000000000E+04  0.10000000000E+04  0.00000000000E+00 0.  1.
    9000005    2    1    2  501    0 -0.99213684778E+01 -0.32723186362E+02 -0.22422917994E+03  0.22684206558E+03  0.30589386908E+01 0.  0.
         13    1    3    3    0    0 -0.86146867805E+01 -0.30856118021E+02 -0.21095921132E+03  0.21337783785E+03  0.00000000000E+00 0.  1.
          3    1    3    3  501    0 -0.13066816973E+01 -0.18670683414E+01 -0.13269968620E+02  0.13464227732E+02  0.00000000000E+00 0.  1.
         -3    1    1    2    0  502  0.99213684778E+01  0.32723186362E+02 -0.77408694204E+03  0.77484181244E+03  0.00000000000E+00 0. -1.
<mgrwt>
<rscale>  1 0.30000000E+03</rscale>
<asrwt>0</asrwt>
<pdfrwt beam="1">  1       21 0.61232057E-02 0.30000000E+03</pdfrwt>
<pdfrwt beam="2">0</pdfrwt>
<totfact> 0.20345486E+04</totfact>
</mgrwt>
</event>
<event>
 6    1  0.8397183E-002  0.3000000E+03  0.7818608E-02  0.1093470E+00
         21   -1    0    0  501  502  0.00000000000E+00  0.00000000000E+00  0.13276796048E+01  0.13276796048E+01  0.00000000000E+00 0. -1.
         13   -1    0    0    0    0 -0.00000000000E+00 -0.00000000000E+00 -0.10000000000E+04  0.10000000000E+04  0.00000000000E+00 0.  1.
    9000005    2    1    2  501    0  0.16030555686E+02  0.27848634483E+02 -0.26602142297E+03  0.26797247054E+03  0.30532495030E+01 0.  0.
         13    1    3    3    0    0  0.13448415726E+02  0.25211408972E+02 -0.23310799570E+03  0.23485274682E+03  0.00000000000E+00 0.  1.
          3    1    3    3  501    0  0.25821399599E+01  0.26372255105E+01 -0.32913427263E+02  0.33119723722E+02  0.00000000000E+00 0.  1.
         -1    1    1    2    0  502 -0.16030555686E+02 -0.27848634483E+02 -0.73265089743E+03  0.73335520906E+03  0.00000000000E+00 0. -1.
<mgrwt>
<rscale>  1 0.30000000E+03</rscale>
<asrwt>0</asrwt>
<pdfrwt beam="1">  1       21 0.48279360E-02 0.30000000E+03</pdfrwt>
<pdfrwt beam="2">0</pdfrwt>
<totfact> 0.30575092E+04</totfact>
</mgrwt>
</event>
<event>
 6    1  0.8397183E-002  0.3000000E+03  0.7818608E-02  0.1093470E+00
         21   -1    0    0  501  502  0.00000000000E+00  0.00000000000E+00  0.10986741027E+01  0.10986741027E+01  0.00000000000E+00 0. -1.
         13   -1    0    0    0    0 -0.00000000000E+00 -0.00000000000E+00 -0.10000000000E+04  0.10000000000E+04  0.00000000000E+00 0.  1.
    9000005    2    1    2  501    0  0.56262092902E+01  0.30070825864E+02 -0.68941213133E+03  0.69010113335E+03  0.38181971724E+01 0.  0.
         13    1    3    3    0    0  0.52238270957E+01  0.23247547095E+02 -0.50367823871E+03  0.50424151452E+03  0.00000000000E+00 0.  1.
          3    1    3    3  501    0  0.40238219445E+00  0.68232787690E+01 -0.18573389262E+03  0.18585961883E+03  0.00000000000E+00 0.  1.
         -1    1    1    2    0  502 -0.56262092902E+01 -0.30070825864E+02 -0.30948919457E+03  0.31099754075E+03  0.00000000000E+00 0. -1.
<mgrwt>
<rscale>  1 0.30000000E+03</rscale>
<asrwt>0</asrwt>
<pdfrwt beam="1">  1       21 0.39951870E-02 0.30000000E+03</pdfrwt>
<pdfrwt beam="2">0</pdfrwt>
<totfact> 0.42132660E+04</totfact>
</mgrwt>
</event>
<event>
 6    1  0.8397183E-002  0.3000000E+03  0.7818608E-02  0.1093470E+00
         21   -1    0    0  501  502  0.00000000000E+00  0.00000000000E+00  0.12287945186E+01  0.12287945186E+01  0.00000000000E+00 0. -1.
         13   -1    0    0    0    0 -0.00000000000E+00 -0.00000000000E+00 -0.10000000000E+04  0.10000000000E+04  0.00000000000E+00 0.  1.
    9000005    2    1    2  501    0  0.27000349680E+02 -0.20628223328E+02 -0.38667448435E+03  0.38818969422E+03  0.44203356648E+01 0.  0.
         13    1    3    3    0    0  0.14270209380E+02 -0.90281508551E+01 -0.20994692723E+03  0.21062492407E+03  0.00000000000E+00 0.  1.
          3    1    3    3  501    0  0.12730140300E+02 -0.11600072473E+02 -0.17672755712E+03  0.17756477015E+03  0.00000000000E+00 0.  1.
         -3    1    1    2    0  502 -0.27000349680E+02  0.20628223328E+02 -0.61209672113E+03  0.61303910030E+03  0.00000000000E+00 0. -1.
<mgrwt>
<rscale>  1 0.30000000E+03</rscale>
<asrwt>0</asrwt>
<pdfrwt beam="1">  1       21 0.44683531E-02 0.30000000E+03</pdfrwt>
<pdfrwt beam="2">0</pdfrwt>
<totfact> 0.34873219E+04</totfact>
</mgrwt>
</event>
<event>
 6    1  0.8397183E-002  0.3000000E+03  0.7818608E-02  0.1093470E+00
         21   -1    0    0  501  502  0.00000000000E+00  0.00000000000E+00  0.14713525656E+01  0.14713525656E+01  0.00000000000E+00 0. -1.
         13   -1    0    0    0    0 -0.00000000000E+00 -0.00000000000E+00 -0.10000000000E+04  0.10000000000E+04  0.00000000000E+00 0.  1.
    9000005    2    1    2  501    0 -0.22866059212E+02  0.22951353722E+02 -0.23275638193E+03  0.23501405831E+03  0.25402702011E+01 0.  0.
         13    1    3    3    0    0 -0.18043415987E+02  0.16666102841E+02 -0.17316158973E+03  0.17489499708E+03  0.00000000000E+00 0.  1.
          3    1    3    3  501    0 -0.48226432246E+01  0.62852508818E+01 -0.59594792199E+02  0.60119061233E+02  0.00000000000E+00 0.  1.
         -3    1    1    2    0  502  0.22866059212E+02 -0.22951353722E+02 -0.76577226550E+03  0.76645729425E+03  0.00000000000E+00 0. -1.
<mgrwt>
<rscale>  1 0.30000000E+03</rscale>
<asrwt>0</asrwt>
<pdfrwt beam="1">  1       21 0.53503842E-02 0.30000000E+03</pdfrwt>
<pdfrwt beam="2">0</pdfrwt>
<totfact> 0.25658150E+04</totfact>
</mgrwt>
</event>
<event>
 6    1  0.8397183E-002  0.3000000E+03  0.7818608E-02  0.1093470E+00
         21   -1    0    0  501  502  0.00000000000E+00  0.00000000000E+00  0.11324926517E+01  0.11324926517E+01  0.00000000000E+00 0. -1.
         13   -1    0    0    0    0 -0.00000000000E+00 -0.00000000000E+00 -0.10000000000E+04  0.10000000000E+04  0.00000000000E+00 0.  1.
    9000005    2    1    2  501    0 -0.15253463542E+02  0.29448426916E+02 -0.42388367650E+03  0.42519301342E+03  0.34423047985E+01 0.  0.
         13    1    3    3    0    0 -0.97114254887E+01  0.22090886578E+02 -0.30695798581E+03  0.30790505697E+03  0.00000000000E+00 0.  1.
          1    1    3    3  501    0 -0.55420380530E+01  0.73575403379E+01 -0.11692569069E+03  0.11728795645E+03  0.00000000000E+00 0.  1.
         -1    1    1    2    0  502  0.15253463542E+02 -0.29448426916E+02 -0.57498383085E+03  0.57593947923E+03  0.00000000000E+00 0. -1.
<mgrwt>
<rscale>  1 0.30000000E+03</rscale>
<asrwt>0</asrwt>
<pdfrwt beam="1">  1       21 0.41181638E-02 0.30000000E+03</pdfrwt>
<pdfrwt beam="2">0</pdfrwt>
<totfact> 0.40034074E+04</totfact>
</mgrwt>
</event>
<event>
 6    1  0.8397183E-002  0.3000000E+03  0.7818608E-02  0.1093470E+00
         21   -1    0    0  501  502  0.00000000000E+00  0.00000000000E+00  0.19945217841E+01  0.19945217841E+01  0.00000000000E+00 0. -1.
         13   -1    0    0    0    0 -0.00000000000E+00 -0.00000000000E+00 -0.10000000000E+04  0.10000000000E+04  0.00000000000E+00 0.  1.
    9000005    2    1    2  501    0 -0.17742248266E+02  0.40841439442E+02 -0.52731131696E+03  0.52919879001E+03  0.33650851725E+01 0.  0.
         13    1    3    3    0    0 -0.16363638921E+02  0.36599621752E+02 -0.48443306242E+03  0.48608918210E+03  0.00000000000E+00 0.  1.
          1    1    3    3  501    0 -0.13786093458E+01  0.42418176895E+01 -0.42878254541E+02  0.43109607903E+02  0.00000000000E+00 0.  1.
         -1    1    1    2    0  502  0.17742248266E+02 -0.40841439442E+02 -0.47069416125E+03  0.47279573178E+03  0.00000000000E+00 0. -1.
<mgrwt>
<rscale>  1 0.30000000E+03</rscale>
<asrwt>0</asrwt>
<pdfrwt beam="1">  1       21 0.72528218E-02 0.30000000E+03</pdfrwt>
<pdfrwt beam="2">0</pdfrwt>
<totfact> 0.15167694E+04</totfact>
</mgrwt>
</event>
<event>
 6    1  0.8397183E-002  0.3000000E+03  0.7818608E-02  0.1093470E+00
         21   -1    0    0  501  502  0.00000000000E+00  0.00000000000E+00  0.15149484035E+01  0.15149484035E+01  0.00000000000E+00 0. -1.
         13   -1    0    0    0    0 -0.00000000000E+00 -0.00000000000E+00 -0.10000000000E+04  0.10000000000E+04  0.00000000000E+00 0.  1.
    9000005    2    1    2  501    0 -0.34360040619E+02  0.15111094686E+02 -0.62867601254E+03  0.62980581085E+03  0.35879048856E+01 0.  0.
         13    1    3    3    0    0 -0.34281520641E+02  0.14740273005E+02 -0.62056677091E+03  0.62168771539E+03  0.00000000000E+00 0.  1.
          3    1    3    3  501    0 -0.78519978578E-01  0.37082168112E+00 -0.81092416268E+01  0.81180954581E+01  0.00000000000E+00 0.  1.
         -3    1    1    2    0  502  0.34360040619E+02 -0.15111094686E+02 -0.36980903906E+03  0.37170913756E+03  0.00000000000E+00 0. -1.
<mgrwt>
<rscale>  1 0.30000000E+03</rscale>
<asrwt>0</asrwt>
<pdfrwt beam="1">  1       21 0.55089149E-02 0.30000000E+03</pdfrwt>
<pdfrwt beam="2">0</pdfrwt>
<totfact> 0.24406273E+04</totfact>
</mgrwt>
</event>
<event>
 6    1  0.8397183E-002  0.3000000E+03  0.7818608E-02  0.1093470E+00
         21   -1    0    0  501  502  0.00000000000E+00  0.00000000000E+00  0.93726993030E+00  0.93726993030E+00  0.00000000000E+00 0. -1.
         13   -1    0    0    0    0 -0.00000000000E+00 -0.00000000000E+00 -0.10000000000E+04  0.10000000000E+04  0.00000000000E+00 0.  1.
    9000005    2    1    2  501    0  0.29516348546E+02  0.74195592431E+01 -0.46287073766E+03  0.46388222860E+03  0.33372954441E+01 0.  0.
         13    1    3    3    0    0  0.19281727766E+02  0.36084229605E+01 -0.28098946652E+03  0.28167336764E+03  0.00000000000E+00 0.  1.
          3    1    3    3  501    0  0.10234620779E+02  0.38111362826E+01 -0.18188127114E+03  0.18220886097E+03  0.00000000000E+00 0.  1.
         -3    1    1    2    0  502 -0.29516348546E+02 -0.74195592431E+01 -0.53619199241E+03  0.53705504133E+03  0.00000000000E+00 0. -1.
<mgrwt>
<rscale>  1 0.30000000E+03</rscale>
<asrwt>0</asrwt>
<pdfrwt beam="1">  1       21 0.34082615E-02 0.30000000E+03</pdfrwt>
<pdfrwt beam="2">0</pdfrwt>
<totfact> 0.55007460E+04</totfact>
</mgrwt>
</event>
<event>
 6    1  0.8397183E-002  0.3000000E+03  0.7818608E-02  0.1093470E+00
         21   -1    0    0  501  502  0.00000000000E+00  0.00000000000E+00  0.17694589297E+01  0.17694589297E+01  0.00000000000E+00 0. -1.
         13   -1    0    0    0    0 -0.00000000000E+00 -0.00000000000E+00 -0.10000000000E+04  0.10000000000E+04  0.00000000000E+00 0.  1.
    9000005    2    1    2  501    0  0.18623742423E+02 -0.32760644039E+02 -0.72100663962E+03  0.72199598786E+03  0.27438164125E+01 0.  0.
         13    1    3    3    0    0  0.57721110808E+00 -0.41557000327E+00 -0.18407138003E+02  0.18420874044E+02  0.00000000000E+00 0.  1.
          1    1    3    3  501    0  0.18046531315E+02 -0.32345074036E+02 -0.70259950162E+03  0.70357511382E+03  0.00000000000E+00 0.  1.
         -1    1    1    2    0  502 -0.18623742423E+02  0.32760644039E+02 -0.27722390145E+03  0.27977347107E+03  0.00000000000E+00 0. -1.
<mgrwt>
<rscale>  1 0.30000000E+03</rscale>
<asrwt>0</asrwt>
<pdfrwt beam="1">  1       21 0.64344097E-02 0.30000000E+03</pdfrwt>
<pdfrwt beam="2">0</pdfrwt>
<totfact> 0.18675020E+04</totfact>
</mgrwt>
</event>
<event>
 6    1  0.8397183E-002  0.3000000E+03  0.7818608E-02  0.1093470E+00
         21   -1    0    0  501  502  0.00000000000E+00  0.00000000000E+00  0.12361200753E+01  0.12361200753E+01  0.00000000000E+00 0. -1.
         13   -1    0    0    0    0 -0.00000000000E+00 -0.00000000000E+00 -0.10000000000E+04  0.10000000000E+04  0.00000000000E+00 0.  1.
    9000005    2    1    2  501    0  0.64738639270E+00 -0.34789803547E+02 -0.43543803454E+03  0.43683665373E+03  0.30381856919E+01 0.  0.
         13    1    3    3    0    0  0.73436780512E+00 -0.31281057995E+01 -0.33665057195E+02  0.33818048701E+02  0.00000000000E+00 0.  1.
          1    1    3    3  501    0 -0.86981412424E-01 -0.31661697747E+02 -0.40177297735E+03  0.40301860503E+03  0.00000000000E+00 0.  1.
         -3    1    1    2    0  502 -0.64738639270E+00  0.34789803547E+02 -0.56332584538E+03  0.56439946635E+03  0.00000000000E+00 0. -1.
<mgrwt>
<rscale>  1 0.30000000E+03</rscale>
<asrwt>0</asrwt>
<pdfrwt beam="1">  1       21 0.44949916E-02 0.30000000E+03</pdfrwt>
<pdfrwt beam="2">0</pdfrwt>
<totfact> 0.34523362E+04</totfact>
</mgrwt>
</event>
<event>
 6    1  0.8397183E-002  0.3000000E+03  0.7818608E-02  0.1093470E+00
         21   -1    0    0  501  502  0.00000000000E+00  0.00000000000E+00  0.95387251829E+00  0.95387251829E+00  0.00000000000E+00 0. -1.
         13   -1    0    0    0    0 -0.00000000000E+00 -0.00000000000E+00 -0.10000000000E+04  0.10000000000E+04  0.00000000000E+00 0.  1.
    9000005    2    1    2  501    0 -0.28449217686E+02  0.10698062851E+02 -0.42843107136E+03  0.42952990661E+03  0.43533015499E+01 0.  0.
         13    1    3    3    0    0 -0.25539038244E+02  0.81252930373E+01 -0.37909497819E+03  0.38004113640E+03  0.00000000000E+00 0.  1.
          1    1    3    3  501    0 -0.29101794425E+01  0.25727698137E+01 -0.49336093162E+02  0.49488770215E+02  0.00000000000E+00 0.  1.
         -1    1    1    2    0  502  0.28449217686E+02 -0.10698062851E+02 -0.57061505612E+03  0.57142396591E+03  0.00000000000E+00 0. -1.
<mgrwt>
<rscale>  1 0.30000000E+03</rscale>
<asrwt>0</asrwt>
<pdfrwt beam="1">  1       21 0.34686347E-02 0.30000000E+03</pdfrwt>
<pdfrwt beam="2">0</pdfrwt>
<totfact> 0.53415669E+04</totfact>
</mgrwt>
</event>
<event>
 6    1  0.8397183E-002  0.3000000E+03  0.7818608E-02  0.1093470E+00
         21   -1    0    0  501  502  0.00000000000E+00  0.00000000000E+00  0.18781681600E+01  0.18781681600E+01  0.00000000000E+00 0. -1.
         13   -1    0    0    0    0 -0.00000000000E+00 -0.00000000000E+00 -0.10000000000E+04  0.10000000000E+04  0.00000000000E+00 0.  1.
    9000005    2    1    2  501    0 -0.35826886846E+02 -0.21469063515E+02 -0.36917315164E+03  0.37154418618E+03  0.34321837907E+01 0.  0.
         13    1    3    3    0    0 -0.78034106021E+01 -0.61375360534E+01 -0.94318584655E+02  0.94839643489E+02  0.00000000000E+00 0.  1.
          3    1    3    3  501    0 -0.28023476244E+02 -0.15331527462E+02 -0.27485456699E+03  0.27670454270E+03  0.00000000000E+00 0.  1.
         -3    1    1    2    0  502  0.35826886846E+02  0.21469063515E+02 -0.62894868020E+03  0.63033398198E+03  0.00000000000E+00 0. -1.
<mgrwt>
<rscale>  1 0.30000000E+03</rscale>
<asrwt>0</asrwt>
<pdfrwt beam="1">  1       21 0.68297168E-02 0.30000000E+03</pdfrwt>
<pdfrwt beam="2">0</pdfrwt>
<totfact> 0.16841168E+04</totfact>
</mgrwt>
</event>
<event>
 6    1  0.8397183E-002  0.3000000E+03  0.7818608E-02  0.1093470E+00
         21   -1    0    0  501  502  0.00000000000E+00  0.00000000000E+00  0.17716019889E+01  0.17716019889E+01  0.00000000000E+00 0. -1.
         13   -1    0    0    0    0 -0.00000000000E+00 -0.00000000000E+00 -0.10000000000E+04  0.10000000000E+04  0.00000000000E+00 0.  1.
    9000005    2    1    2  501    0  0.16182163544E+02  0.32968511747E+02 -0.74171182029E+03  0.74263931950E+03  0.52867117403E+01 0.  0.
         13    1    3    3    0    0  0.53533190248E+01  0.15413813521E+02 -0.36233843624E+03  0.36270564657E+03  0.00000000000E+00 0.  1.
          3    1    3    3  501    0  0.10828844520E+02  0.17554698227E+02 -0.37937338405E+03  0.37993367293E+03  0.00000000000E+00 0.  1.
         -3    1    1    2    0  502 -0.16182163544E+02 -0.32968511747E+02 -0.25651657772E+03  0.25913228249E+03  0.00000000000E+00 0. -1.
<mgrwt>
<rscale>  1 0.30000000E+03</rscale>
<asrwt>0</asrwt>
<pdfrwt beam="1">  1       21 0.64422026E-02 0.30000000E+03</pdfrwt>
<pdfrwt beam="2">0</pdfrwt>
<totfact> 0.18635945E+04</totfact>
</mgrwt>
</event>
<event>
 6    1  0.8728742E-002  0.3000000E+03  0.7818608E-02  0.1093470E+00
         21   -1    0    0  501  502  0.00000000000E+00  0.00000000000E+00  0.18500462224E+01  0.18500462224E+01  0.00000000000E+00 0. -1.
         13   -1    0    0    0    0 -0.00000000000E+00 -0.00000000000E+00 -0.10000000000E+04  0.10000000000E+04  0.00000000000E+00 0.  1.
    9000005    2    1    2  501    0 -0.35437493179E+01 -0.40460021195E+02 -0.65781290588E+03  0.65909812771E+03  0.65537264323E+01 0.  0.
         13    1    3    3    0    0 -0.25389000988E+01 -0.11613994253E+02 -0.15331859450E+03  0.15377880964E+03  0.00000000000E+00 0.  1.
          3    1    3    3  501    0 -0.10048492191E+01 -0.28846026942E+02 -0.50449431139E+03  0.50531931807E+03  0.00000000000E+00 0.  1.
         -3    1    1    2    0  502  0.35437493179E+01  0.40460021195E+02 -0.34033704790E+03  0.34275191851E+03  0.00000000000E+00 0. -1.
<mgrwt>
<rscale>  1 0.30000000E+03</rscale>
<asrwt>0</asrwt>
<pdfrwt beam="1">  1       21 0.67274550E-02 0.30000000E+03</pdfrwt>
<pdfrwt beam="2">0</pdfrwt>
<totfact> 0.17288088E+04</totfact>
</mgrwt>
</event>
<event>
 6    1  0.8397183E-002  0.3000000E+03  0.7818608E-02  0.1093470E+00
         21   -1    0    0  501  502  0.00000000000E+00  0.00000000000E+00  0.40483182281E+01  0.40483182281E+01  0.00000000000E+00 0. -1.
         13   -1    0    0    0    0 -0.00000000000E+00 -0.00000000000E+00 -0.10000000000E+04  0.10000000000E+04  0.00000000000E+00 0.  1.
    9000005    2    1    2  501    0  0.14206794325E+02  0.31785694826E+02 -0.79224078295E+02  0.86659816895E+02  0.46158295118E+01 0.  0.
         13    1    3    3    0    0  0.14564378189E+02  0.31067245169E+02 -0.77649630464E+02  0.84892637759E+02  0.00000000000E+00 0.  1.
          1    1    3    3  501    0 -0.35758386342E+00  0.71844965737E+00 -0.15744478307E+01  0.17671791367E+01  0.00000000000E+00 0.  1.
         -3    1    1    2    0  502 -0.14206794325E+02 -0.31785694826E+02 -0.91672760348E+03  0.91738850133E+03  0.00000000000E+00 0. -1.
<mgrwt>
<rscale>  1 0.30000000E+03</rscale>
<asrwt>0</asrwt>
<pdfrwt beam="1">  1       21 0.14721188E-01 0.30000000E+03</pdfrwt>
<pdfrwt beam="2">0</pdfrwt>
<totfact> 0.42633928E+03</totfact>
</mgrwt>
</event>
<event>
 6    1  0.8397183E-002  0.3000000E+03  0.7818608E-02  0.1093470E+00
         21   -1    0    0  501  502  0.00000000000E+00  0.00000000000E+00  0.54544575536E+01  0.54544575536E+01  0.00000000000E+00 0. -1.
         13   -1    0    0    0    0 -0.00000000000E+00 -0.00000000000E+00 -0.10000000000E+04  0.10000000000E+04  0.00000000000E+00 0.  1.
    9000005    2    1    2  501    0 -0.72576284503E+02  0.33424213727E+01 -0.58582925035E+03  0.59033098643E+03  0.40341195646E+01 0.  0.
         13    1    3    3    0    0 -0.46834167122E+02  0.11715762503E+01 -0.39089343268E+03  0.39369085272E+03  0.00000000000E+00 0.  1.
          3    1    3    3  501    0 -0.25742117381E+02  0.21708451223E+01 -0.19493581767E+03  0.19664013371E+03  0.00000000000E+00 0.  1.
         -3    1    1    2    0  502  0.72576284503E+02 -0.33424213727E+01 -0.40871629210E+03  0.41512347112E+03  0.00000000000E+00 0. -1.
<mgrwt>
<rscale>  1 0.30000000E+03</rscale>
<asrwt>0</asrwt>
<pdfrwt beam="1">  1       21 0.19834433E-01 0.30000000E+03</pdfrwt>
<pdfrwt beam="2">0</pdfrwt>
<totfact> 0.24375755E+03</totfact>
</mgrwt>
</event>
<event>
 6    1  0.8397183E-002  0.3000000E+03  0.7818608E-02  0.1093470E+00
         21   -1    0    0  501  502  0.00000000000E+00  0.00000000000E+00  0.16276839618E+01  0.16276839618E+01  0.00000000000E+00 0. -1.
         13   -1    0    0    0    0 -0.00000000000E+00 -0.00000000000E+00 -0.10000000000E+04  0.10000000000E+04  0.00000000000E+00 0.  1.
    9000005    2    1    2  501    0 -0.22315596798E+02  0.32710044755E+02 -0.41182875498E+03  0.41374905541E+03  0.41742707837E+01 0.  0.
         13    1    3    3    0    0 -0.71081627739E+01  0.14013907461E+02 -0.16007774000E+03  0.16084712749E+03  0.00000000000E+00 0.  1.
          1    1    3    3  501    0 -0.15207434024E+02  0.18696137294E+02 -0.25175101498E+03  0.25290192792E+03  0.00000000000E+00 0.  1.
         -3    1    1    2    0  502  0.22315596798E+02 -0.32710044755E+02 -0.58654356106E+03  0.58787862855E+03  0.00000000000E+00 0. -1.
<mgrwt>
<rscale>  1 0.30000000E+03</rscale>
<asrwt>0</asrwt>
<pdfrwt beam="1">  1       21 0.59188633E-02 0.30000000E+03</pdfrwt>
<pdfrwt beam="2">0</pdfrwt>
<totfact> 0.21572173E+04</totfact>
</mgrwt>
</event>
<event>
 6    1  0.8397183E-002  0.3000000E+03  0.7818608E-02  0.1093470E+00
         21   -1    0    0  501  502  0.00000000000E+00  0.00000000000E+00  0.15941379565E+01  0.15941379565E+01  0.00000000000E+00 0. -1.
         13   -1    0    0    0    0 -0.00000000000E+00 -0.00000000000E+00 -0.10000000000E+04  0.10000000000E+04  0.00000000000E+00 0.  1.
    9000005    2    1    2  501    0 -0.10779974879E+01 -0.37728004562E+02 -0.33961634767E+03  0.34172431090E+03  0.34171114606E+01 0.  0.
         13    1    3    3    0    0  0.46761134962E+00 -0.24714205408E+01 -0.17334002958E+02  0.17515542767E+02  0.00000000000E+00 0.  1.
          3    1    3    3  501    0 -0.15456088375E+01 -0.35256584022E+02 -0.32228234471E+03  0.32420876813E+03  0.00000000000E+00 0.  1.
         -1    1    1    2    0  502  0.10779974879E+01  0.37728004562E+02 -0.65878951438E+03  0.65986982706E+03  0.00000000000E+00 0. -1.
<mgrwt>
<rscale>  1 0.30000000E+03</rscale>
<asrwt>0</asrwt>
<pdfrwt beam="1">  1       21 0.57968775E-02 0.30000000E+03</pdfrwt>
<pdfrwt beam="2">0</pdfrwt>
<totfact> 0.22360299E+04</totfact>
</mgrwt>
</event>
<event>
 6    1  0.8397183E-002  0.3000000E+03  0.7818608E-02  0.1093470E+00
         21   -1    0    0  501  502  0.00000000000E+00  0.00000000000E+00  0.10427797051E+01  0.10427797051E+01  0.00000000000E+00 0. -1.
         13   -1    0    0    0    0 -0.00000000000E+00 -0.00000000000E+00 -0.10000000000E+04  0.10000000000E+04  0.00000000000E+00 0.  1.
    9000005    2    1    2  501    0  0.30327384370E+02  0.10743517690E+02 -0.50503587008E+03  0.50607462556E+03  0.38888504635E+01 0.  0.
         13    1    3    3    0    0  0.27448827661E+02  0.84784287733E+01 -0.44252910490E+03  0.44346063025E+03  0.00000000000E+00 0.  1.
          3    1    3    3  501    0  0.28785567093E+01  0.22650889169E+01 -0.62506765174E+02  0.62613995313E+02  0.00000000000E+00 0.  1.
         -3    1    1    2    0  502 -0.30327384370E+02 -0.10743517690E+02 -0.49392135022E+03  0.49496815414E+03  0.00000000000E+00 0. -1.
<mgrwt>
<rscale>  1 0.30000000E+03</rscale>
<asrwt>0</asrwt>
<pdfrwt beam="1">  1       21 0.37919342E-02 0.30000000E+03</pdfrwt>
<pdfrwt beam="2">0</pdfrwt>
<totfact> 0.46000002E+04</totfact>
</mgrwt>
</event>
<event>
 6    1  0.8397183E-002  0.3000000E+03  0.7818608E-02  0.1093470E+00
         21   -1    0    0  501  502  0.00000000000E+00  0.00000000000E+00  0.35529883887E+01  0.35529883887E+01  0.00000000000E+00 0. -1.
         13   -1    0    0    0    0 -0.00000000000E+00 -0.00000000000E+00 -0.10000000000E+04  0.10000000000E+04  0.00000000000E+00 0.  1.
    9000005    2    1    2  501    0  0.51294819935E+02  0.13404248383E+02 -0.72661910043E+03  0.72856583582E+03  0.46933552616E+01 0.  0.
         13    1    3    3    0    0  0.26556063298E+02  0.45846792332E+01 -0.36030264999E+03  0.36130906904E+03  0.00000000000E+00 0.  1.
          3    1    3    3  501    0  0.24738756637E+02  0.88195691499E+01 -0.36631645044E+03  0.36725676678E+03  0.00000000000E+00 0.  1.
         -3    1    1    2    0  502 -0.51294819935E+02 -0.13404248383E+02 -0.26982791118E+03  0.27498715257E+03  0.00000000000E+00 0. -1.
<mgrwt>
<rscale>  1 0.30000000E+03</rscale>
<asrwt>0</asrwt>
<pdfrwt beam="1">  1       21 0.12919985E-01 0.30000000E+03</pdfrwt>
<pdfrwt beam="2">0</pdfrwt>
<totfact> 0.54172455E+03</totfact>
</mgrwt>
</event>
<event>
 6    1  0.8397183E-002  0.3000000E+03  0.7818608E-02  0.1093470E+00
         21   -1    0    0  501  502  0.00000000000E+00  0.00000000000E+00  0.26303354731E+01  0.26303354731E+01  0.00000000000E+00 0. -1.
         13   -1    0    0    0    0 -0.00000000000E+00 -0.00000000000E+00 -0.10000000000E+04  0.10000000000E+04  0.00000000000E+00 0.  1.
    9000005    2    1    2  501    0  0.25132508069E+01  0.47652676019E+02 -0.31762942263E+03  0.32121717855E+03  0.38641583619E+01 0.  0.
         13    1    3    3    0    0  0.92468311634E+00  0.33171979500E+01 -0.18836759343E+02  0.19148951502E+02  0.00000000000E+00 0.  1.
          1    1    3    3  501    0  0.15885676905E+01  0.44335478069E+02 -0.29879266328E+03  0.30206822705E+03  0.00000000000E+00 0.  1.
         -3    1    1    2    0  502 -0.25132508069E+01 -0.47652676019E+02 -0.67974024190E+03  0.68141315692E+03  0.00000000000E+00 0. -1.
<mgrwt>
<rscale>  1 0.30000000E+03</rscale>
<asrwt>0</asrwt>
<pdfrwt beam="1">  1       21 0.95648764E-02 0.30000000E+03</pdfrwt>
<pdfrwt beam="2">0</pdfrwt>
<totfact> 0.93140735E+03</totfact>
</mgrwt>
</event>
<event>
 6    1  0.8397183E-002  0.3000000E+03  0.7818608E-02  0.1093470E+00
         21   -1    0    0  501  502  0.00000000000E+00  0.00000000000E+00  0.14663112213E+01  0.14663112213E+01  0.00000000000E+00 0. -1.
         13   -1    0    0    0    0 -0.00000000000E+00 -0.00000000000E+00 -0.10000000000E+04  0.10000000000E+04  0.00000000000E+00 0.  1.
    9000005    2    1    2  501    0  0.35524237794E+02 -0.85164355240E+01 -0.64631403403E+03  0.64735730776E+03  0.38925793820E+01 0.  0.
         13    1    3    3    0    0  0.16850853748E+02 -0.59051691590E+01 -0.32676376716E+03  0.32725125182E+03  0.00000000000E+00 0.  1.
          3    1    3    3  501    0  0.18673384046E+02 -0.26112663650E+01 -0.31955026688E+03  0.32010605593E+03  0.00000000000E+00 0.  1.
         -3    1    1    2    0  502 -0.35524237794E+02  0.85164355240E+01 -0.35221965475E+03  0.35410900347E+03  0.00000000000E+00 0. -1.
<mgrwt>
<rscale>  1 0.30000000E+03</rscale>
<asrwt>0</asrwt>
<pdfrwt beam="1">  1       21 0.53320520E-02 0.30000000E+03</pdfrwt>
<pdfrwt beam="2">0</pdfrwt>
<totfact> 0.25809287E+04</totfact>
</mgrwt>
</event>
<event>
 6    1  0.8397183E-002  0.3000000E+03  0.7818608E-02  0.1093470E+00
         21   -1    0    0  501  502  0.00000000000E+00  0.00000000000E+00  0.21869270712E+01  0.21869270712E+01  0.00000000000E+00 0. -1.
         13   -1    0    0    0    0 -0.00000000000E+00 -0.00000000000E+00 -0.10000000000E+04  0.10000000000E+04  0.00000000000E+00 0.  1.
    9000005    2    1    2  501    0  0.30048319499E+01 -0.43622601826E+02 -0.32361717817E+03  0.32657456416E+03  0.33026574433E+01 0.  0.
         13    1    3    3    0    0  0.45181233826E+00 -0.20884498157E+02 -0.16433111800E+03  0.16565350205E+03  0.00000000000E+00 0.  1.
          3    1    3    3  501    0  0.25530196117E+01 -0.22738103670E+02 -0.15928606017E+03  0.16092106212E+03  0.00000000000E+00 0.  1.
         -3    1    1    2    0  502 -0.30048319499E+01  0.43622601826E+02 -0.67419589476E+03  0.67561236291E+03  0.00000000000E+00 0. -1.
<mgrwt>
<rscale>  1 0.30000000E+03</rscale>
<asrwt>0</asrwt>
<pdfrwt beam="1">  1       21 0.79524788E-02 0.30000000E+03</pdfrwt>
<pdfrwt beam="2">0</pdfrwt>
<totfact> 0.12908223E+04</totfact>
</mgrwt>
</event>
<event>
 6    1  0.8397183E-002  0.3000000E+03  0.7818608E-02  0.1093470E+00
         21   -1    0    0  501  502  0.00000000000E+00  0.00000000000E+00  0.18350107867E+01  0.18350107867E+01  0.00000000000E+00 0. -1.
         13   -1    0    0    0    0 -0.00000000000E+00 -0.00000000000E+00 -0.10000000000E+04  0.10000000000E+04  0.00000000000E+00 0.  1.
    9000005    2    1    2  501    0 -0.35147364565E+02 -0.17440506426E+02 -0.30037256558E+03  0.30294032990E+03  0.31075428956E+01 0.  0.
         13    1    3    3    0    0 -0.33025842980E+02 -0.16949397891E+02 -0.28718292995E+03  0.28957213894E+03  0.00000000000E+00 0.  1.
          3    1    3    3  501    0 -0.21215215858E+01 -0.49110853477E+00 -0.13189635631E+02  0.13368190959E+02  0.00000000000E+00 0.  1.
         -1    1    1    2    0  502  0.35147364565E+02  0.17440506426E+02 -0.69779242363E+03  0.69889468089E+03  0.00000000000E+00 0. -1.
<mgrwt>
<rscale>  1 0.30000000E+03</rscale>
<asrwt>0</asrwt>
<pdfrwt beam="1">  1       21 0.66727806E-02 0.30000000E+03</pdfrwt>
<pdfrwt beam="2">0</pdfrwt>
<totfact> 0.17534552E+04</totfact>
</mgrwt>
</event>
<event>
 6    1  0.8397183E-002  0.3000000E+03  0.7818608E-02  0.1093470E+00
         21   -1    0    0  501  502  0.00000000000E+00  0.00000000000E+00  0.10757133830E+01  0.10757133830E+01  0.00000000000E+00 0. -1.
         13   -1    0    0    0    0 -0.00000000000E+00 -0.00000000000E+00 -0.10000000000E+04  0.10000000000E+04  0.00000000000E+00 0.  1.
    9000005    2    1    2  501    0 -0.30534714745E+02 -0.10384199321E+02 -0.41948602063E+03  0.42074054773E+03  0.37264731957E+01 0.  0.
         13    1    3    3    0    0 -0.16606595815E+02 -0.45389357268E+01 -0.20342936024E+03  0.20415652223E+03  0.00000000000E+00 0.  1.
          1    1    3    3  501    0 -0.13928118930E+02 -0.58452635940E+01 -0.21605666039E+03  0.21658402550E+03  0.00000000000E+00 0.  1.
         -1    1    1    2    0  502  0.30534714745E+02  0.10384199321E+02 -0.57943826599E+03  0.58033516565E+03  0.00000000000E+00 0. -1.
<mgrwt>
<rscale>  1 0.30000000E+03</rscale>
<asrwt>0</asrwt>
<pdfrwt beam="1">  1       21 0.39116933E-02 0.30000000E+03</pdfrwt>
<pdfrwt beam="2">0</pdfrwt>
<totfact> 0.43657260E+04</totfact>
</mgrwt>
</event>
<event>
 6    1  0.8397183E-002  0.3000000E+03  0.7818608E-02  0.1093470E+00
         21   -1    0    0  501  502  0.00000000000E+00  0.00000000000E+00  0.12706446315E+01  0.12706446315E+01  0.00000000000E+00 0. -1.
         13   -1    0    0    0    0 -0.00000000000E+00 -0.00000000000E+00 -0.10000000000E+04  0.10000000000E+04  0.00000000000E+00 0.  1.
    9000005    2    1    2  501    0  0.12931956285E+02 -0.32832397659E+02 -0.56361412970E+03  0.56472687656E+03  0.32180875647E+01 0.  0.
         13    1    3    3    0    0  0.97609528333E+01 -0.27804116874E+02 -0.47612948475E+03  0.47704049237E+03  0.00000000000E+00 0.  1.
          1    1    3    3  501    0  0.31710034516E+01 -0.50282807853E+01 -0.87484644950E+02  0.87686384191E+02  0.00000000000E+00 0.  1.
         -1    1    1    2    0  502 -0.12931956285E+02  0.32832397659E+02 -0.43511522567E+03  0.43654376807E+03  0.00000000000E+00 0. -1.
<mgrwt>
<rscale>  1 0.30000000E+03</rscale>
<asrwt>0</asrwt>
<pdfrwt beam="1">  1       21 0.46205357E-02 0.30000000E+03</pdfrwt>
<pdfrwt beam="2">0</pdfrwt>
<totfact> 0.32945496E+04</totfact>
</mgrwt>
</event>
<event>
 6    1  0.8397183E-002  0.3000000E+03  0.7818608E-02  0.1093470E+00
         21   -1    0    0  501  502  0.00000000000E+00  0.00000000000E+00  0.18246766046E+01  0.18246766046E+01  0.00000000000E+00 0. -1.
         13   -1    0    0    0    0 -0.00000000000E+00 -0.00000000000E+00 -0.10000000000E+04  0.10000000000E+04  0.00000000000E+00 0.  1.
    9000005    2    1    2  501    0  0.10525167767E+02  0.40627185001E+02 -0.58905017940E+03  0.59055258812E+03  0.33012370373E+01 0.  0.
         13    1    3    3    0    0  0.45670550549E+01  0.14851529169E+02 -0.23844936708E+03  0.23895507229E+03  0.00000000000E+00 0.  1.
          1    1    3    3  501    0  0.59581127119E+01  0.25775655832E+02 -0.35060081231E+03  0.35159751583E+03  0.00000000000E+00 0.  1.
         -1    1    1    2    0  502 -0.10525167767E+02 -0.40627185001E+02 -0.40912514400E+03  0.41127208849E+03  0.00000000000E+00 0. -1.
<mgrwt>
<rscale>  1 0.30000000E+03</rscale>
<asrwt>0</asrwt>
<pdfrwt beam="1">  1       21 0.66352016E-02 0.30000000E+03</pdfrwt>
<pdfrwt beam="2">0</pdfrwt>
<totfact> 0.17707101E+04</totfact>
</mgrwt>
</event>
<event>
 6    1  0.8397183E-002  0.3000000E+03  0.7818608E-02  0.1093470E+00
         21   -1    0    0  501  502  0.00000000000E+00  0.00000000000E+00  0.12508938837E+02  0.12508938837E+02  0.00000000000E+00 0. -1.
         13   -1    0    0    0    0 -0.00000000000E+00 -0.00000000000E+00 -0.10000000000E+04  0.10000000000E+04  0.00000000000E+00 0.  1.
    9000005    2    1    2  501    0  0.17534432375E+02  0.67107486419E+02 -0.89086277690E+03  0.89356400884E+03  0.30462401056E+01 0.  0.
         13    1    3    3    0    0  0.15304946055E+02  0.61791735817E+02 -0.81950087169E+03  0.82196967018E+03  0.00000000000E+00 0.  1.
          3    1    3    3  501    0  0.22294863204E+01  0.53157506020E+01 -0.71361905205E+02  0.71594338660E+02  0.00000000000E+00 0.  1.
         -1    1    1    2    0  502 -0.17534432375E+02 -0.67107486419E+02 -0.96628284265E+02  0.11894493000E+03  0.00000000000E+00 0. -1.
<mgrwt>
<rscale>  1 0.30000000E+03</rscale>
<asrwt>0</asrwt>
<pdfrwt beam="1">  1       21 0.45487146E-01 0.30000000E+03</pdfrwt>
<pdfrwt beam="2">0</pdfrwt>
<totfact> 0.46041101E+02</totfact>
</mgrwt>
</event>
<event>
 6    1  0.8397183E-002  0.3000000E+03  0.7818608E-02  0.1093470E+00
         21   -1    0    0  501  502  0.00000000000E+00  0.00000000000E+00  0.15653669460E+01  0.15653669460E+01  0.00000000000E+00 0. -1.
         13   -1    0    0    0    0 -0.00000000000E+00 -0.00000000000E+00 -0.10000000000E+04  0.10000000000E+04  0.00000000000E+00 0.  1.
    9000005    2    1    2  501    0 -0.32295198904E+02  0.22725141592E+02 -0.51002444387E+03  0.51156136203E+03  0.32683094880E+01 0.  0.
         13    1    3    3    0    0 -0.21633102601E+02  0.15013634595E+02 -0.31973640889E+03  0.32081890767E+03  0.00000000000E+00 0.  1.
          3    1    3    3  501    0 -0.10662096303E+02  0.77115069975E+01 -0.19028803498E+03  0.19074245436E+03  0.00000000000E+00 0.  1.
         -1    1    1    2    0  502  0.32295198904E+02 -0.22725141592E+02 -0.48841018919E+03  0.49000400492E+03  0.00000000000E+00 0. -1.
<mgrwt>
<rscale>  1 0.30000000E+03</rscale>
<asrwt>0</asrwt>
<pdfrwt beam="1">  1       21 0.56922554E-02 0.30000000E+03</pdfrwt>
<pdfrwt beam="2">0</pdfrwt>
<totfact> 0.23072135E+04</totfact>
</mgrwt>
</event>
<event>
 6    1  0.8397183E-002  0.3000000E+03  0.7818608E-02  0.1093470E+00
         21   -1    0    0  501  502  0.00000000000E+00  0.00000000000E+00  0.10304741263E+01  0.10304741263E+01  0.00000000000E+00 0. -1.
         13   -1    0    0    0    0 -0.00000000000E+00 -0.00000000000E+00 -0.10000000000E+04  0.10000000000E+04  0.00000000000E+00 0.  1.
    9000005    2    1    2  501    0  0.27841643991E+02 -0.13545653635E+02 -0.62659954200E+03  0.62737549053E+03  0.37918619332E+01 0.  0.
         13    1    3    3    0    0  0.18721511230E+01 -0.15652739220E+01 -0.68766824793E+02  0.68810109899E+02  0.00000000000E+00 0.  1.
          3    1    3    3  501    0  0.25969492867E+02 -0.11980379713E+02 -0.55783271720E+03  0.55856538063E+03  0.00000000000E+00 0.  1.
         -3    1    1    2    0  502 -0.27841643991E+02  0.13545653635E+02 -0.37236998388E+03  0.37365498360E+03  0.00000000000E+00 0. -1.
<mgrwt>
<rscale>  1 0.30000000E+03</rscale>
<asrwt>0</asrwt>
<pdfrwt beam="1">  1       21 0.37471865E-02 0.30000000E+03</pdfrwt>
<pdfrwt beam="2">0</pdfrwt>
<totfact> 0.46926380E+04</totfact>
</mgrwt>
</event>
<event>
 6    1  0.8397183E-002  0.3000000E+03  0.7818608E-02  0.1093470E+00
         21   -1    0    0  501  502  0.00000000000E+00  0.00000000000E+00  0.10211764586E+01  0.10211764586E+01  0.00000000000E+00 0. -1.
         13   -1    0    0    0    0 -0.00000000000E+00 -0.00000000000E+00 -0.10000000000E+04  0.10000000000E+04  0.00000000000E+00 0.  1.
    9000005    2    1    2  501    0  0.71446479240E+01  0.30946080851E+02 -0.52878180044E+03  0.52975273232E+03  0.43656617586E+01 0.  0.
         13    1    3    3    0    0  0.69375974871E+01  0.27704662021E+02 -0.49179624997E+03  0.49262483701E+03  0.00000000000E+00 0.  1.
          1    1    3    3  501    0  0.20705043692E+00  0.32414188302E+01 -0.36985550478E+02  0.37127895310E+02  0.00000000000E+00 0.  1.
         -1    1    1    2    0  502 -0.71446479240E+01 -0.30946080851E+02 -0.47019702310E+03  0.47126844414E+03  0.00000000000E+00 0. -1.
<mgrwt>
<rscale>  1 0.30000000E+03</rscale>
<asrwt>0</asrwt>
<pdfrwt beam="1">  1       21 0.37133768E-02 0.30000000E+03</pdfrwt>
<pdfrwt beam="2">0</pdfrwt>
<totfact> 0.47645940E+04</totfact>
</mgrwt>
</event>
<event>
 6    1  0.8397183E-002  0.3000000E+03  0.7818608E-02  0.1093470E+00
         21   -1    0    0  501  502  0.00000000000E+00  0.00000000000E+00  0.30797233201E+01  0.30797233201E+01  0.00000000000E+00 0. -1.
         13   -1    0    0    0    0 -0.00000000000E+00 -0.00000000000E+00 -0.10000000000E+04  0.10000000000E+04  0.00000000000E+00 0.  1.
    9000005    2    1    2  501    0 -0.17171256239E+02 -0.52720933906E+02 -0.49263641737E+03  0.49575678901E+03  0.31313289945E+01 0.  0.
         13    1    3    3    0    0 -0.11915458051E+01 -0.46004243933E+01 -0.35391649894E+02  0.35709278461E+02  0.00000000000E+00 0.  1.
          1    1    3    3  501    0 -0.15979710434E+02 -0.48120509513E+02 -0.45724476747E+03  0.46004751055E+03  0.00000000000E+00 0.  1.
         -1    1    1    2    0  502  0.17171256239E+02  0.52720933906E+02 -0.50428385931E+03  0.50732293431E+03  0.00000000000E+00 0. -1.
<mgrwt>
<rscale>  1 0.30000000E+03</rscale>
<asrwt>0</asrwt>
<pdfrwt beam="1">  1       21 0.11199018E-01 0.30000000E+03</pdfrwt>
<pdfrwt beam="2">0</pdfrwt>
<totfact> 0.70216292E+03</totfact>
</mgrwt>
</event>
<event>
 6    1  0.8397183E-002  0.3000000E+03  0.7818608E-02  0.1093470E+00
         21   -1    0    0  501  502  0.00000000000E+00  0.00000000000E+00  0.11605847593E+01  0.11605847593E+01  0.00000000000E+00 0. -1.
         13   -1    0    0    0    0 -0.00000000000E+00 -0.00000000000E+00 -0.10000000000E+04  0.10000000000E+04  0.00000000000E+00 0.  1.
    9000005    2    1    2  501    0  0.26927456621E+01  0.31334408909E+02 -0.68950909381E+03  0.69023560374E+03  0.36472144150E+01 0.  0.
         13    1    3    3    0    0  0.79950888522E+00  0.73339207084E+01 -0.19770501650E+03  0.19784261208E+03  0.00000000000E+00 0.  1.
          3    1    3    3  501    0  0.18932367769E+01  0.24000488200E+02 -0.49180407731E+03  0.49239299166E+03  0.00000000000E+00 0.  1.
         -1    1    1    2    0  502 -0.26927456621E+01 -0.31334408909E+02 -0.30933032143E+03  0.31092498102E+03  0.00000000000E+00 0. -1.
<mgrwt>
<rscale>  1 0.30000000E+03</rscale>
<asrwt>0</asrwt>
<pdfrwt beam="1">  1       21 0.42203171E-02 0.30000000E+03</pdfrwt>
<pdfrwt beam="2">0</pdfrwt>
<totfact> 0.38412114E+04</totfact>
</mgrwt>
</event>
<event>
 6    1  0.8397183E-002  0.3000000E+03  0.7818608E-02  0.1093470E+00
         21   -1    0    0  501  502  0.00000000000E+00  0.00000000000E+00  0.27015701803E+01  0.27015701803E+01  0.00000000000E+00 0. -1.
         13   -1    0    0    0    0 -0.00000000000E+00 -0.00000000000E+00 -0.10000000000E+04  0.10000000000E+04  0.00000000000E+00 0.  1.
    9000005    2    1    2  501    0 -0.15189688310E+02 -0.30126583032E+02 -0.87984278677E+03  0.88049614592E+03  0.34345159984E+01 0.  0.
         13    1    3    3    0    0 -0.14782091049E+02 -0.29238484640E+02 -0.86564148338E+03  0.86626126368E+03  0.00000000000E+00 0.  1.
          3    1    3    3  501    0 -0.40759726094E+00 -0.88809839179E+00 -0.14201303390E+02  0.14234882235E+02  0.00000000000E+00 0.  1.
         -3    1    1    2    0  502  0.15189688310E+02  0.30126583032E+02 -0.11745564305E+03  0.12220542427E+03  0.00000000000E+00 0. -1.
<mgrwt>
<rscale>  1 0.30000000E+03</rscale>
<asrwt>0</asrwt>
<pdfrwt beam="1">  1       21 0.98239123E-02 0.30000000E+03</pdfrwt>
<pdfrwt beam="2">0</pdfrwt>
<totfact> 0.88805356E+03</totfact>
</mgrwt>
</event>
<event>
 6    1  0.8397183E-002  0.3000000E+03  0.7818608E-02  0.1093470E+00
         21   -1    0    0  501  502  0.00000000000E+00  0.00000000000E+00  0.40085962230E+01  0.40085962230E+01  0.00000000000E+00 0. -1.
         13   -1    0    0    0    0 -0.00000000000E+00 -0.00000000000E+00 -0.10000000000E+04  0.10000000000E+04  0.00000000000E+00 0.  1.
    9000005    2    1    2  501    0  0.99215180193E+00  0.50356355940E+02 -0.80192677378E+03  0.80351463730E+03  0.35319826492E+01 0.  0.
         13    1    3    3    0    0  0.19631350781E+01  0.17234479699E+02 -0.28228713466E+03  0.28281956718E+03  0.00000000000E+00 0.  1.
          3    1    3    3  501    0 -0.97098327615E+00  0.33121876241E+02 -0.51963963912E+03  0.52069507011E+03  0.00000000000E+00 0.  1.
         -3    1    1    2    0  502 -0.99215180193E+00 -0.50356355940E+02 -0.19406463000E+03  0.20049395892E+03  0.00000000000E+00 0. -1.
<mgrwt>
<rscale>  1 0.30000000E+03</rscale>
<asrwt>0</asrwt>
<pdfrwt beam="1">  1       21 0.14576744E-01 0.30000000E+03</pdfrwt>
<pdfrwt beam="2">0</pdfrwt>
<totfact> 0.43417010E+03</totfact>
</mgrwt>
</event>
<event>
 6    1  0.8397183E-002  0.3000000E+03  0.7818608E-02  0.1093470E+00
         21   -1    0    0  501  502  0.00000000000E+00  0.00000000000E+00  0.12733092040E+01  0.12733092040E+01  0.00000000000E+00 0. -1.
         13   -1    0    0    0    0 -0.00000000000E+00 -0.00000000000E+00 -0.10000000000E+04  0.10000000000E+04  0.00000000000E+00 0.  1.
    9000005    2    1    2  501    0 -0.51127436989E+01  0.31182423338E+02 -0.73074953971E+03  0.73143958786E+03  0.32399413958E+01 0.  0.
         13    1    3    3    0    0 -0.39669429033E+01  0.23221985991E+02 -0.57527631124E+03  0.57575848369E+03  0.00000000000E+00 0.  1.
          3    1    3    3  501    0 -0.11458007956E+01  0.79604373471E+01 -0.15547322848E+03  0.15568110417E+03  0.00000000000E+00 0.  1.
         -3    1    1    2    0  502  0.51127436989E+01 -0.31182423338E+02 -0.26797715108E+03  0.26983372135E+03  0.00000000000E+00 0. -1.
<mgrwt>
<rscale>  1 0.30000000E+03</rscale>
<asrwt>0</asrwt>
<pdfrwt beam="1">  1       21 0.46302251E-02 0.30000000E+03</pdfrwt>
<pdfrwt beam="2">0</pdfrwt>
<totfact> 0.32828429E+04</totfact>
</mgrwt>
</event>
<event>
 6    1  0.8397183E-002  0.3000000E+03  0.7818608E-02  0.1093470E+00
         21   -1    0    0  501  502  0.00000000000E+00  0.00000000000E+00  0.20449062957E+01  0.20449062957E+01  0.00000000000E+00 0. -1.
         13   -1    0    0    0    0 -0.00000000000E+00 -0.00000000000E+00 -0.10000000000E+04  0.10000000000E+04  0.00000000000E+00 0.  1.
    9000005    2    1    2  501    0 -0.43096584627E+02 -0.34669154113E+01 -0.35501691229E+03  0.35765462065E+03  0.32379861342E+01 0.  0.
         13    1    3    3    0    0 -0.32917340624E+02 -0.22352003276E+01 -0.25951934458E+03  0.26160817580E+03  0.00000000000E+00 0.  1.
          1    1    3    3  501    0 -0.10179244003E+02 -0.12317150837E+01 -0.95497567715E+02  0.96046444859E+02  0.00000000000E+00 0.  1.
         -3    1    1    2    0  502  0.43096584627E+02  0.34669154113E+01 -0.64293818141E+03  0.64439028564E+03  0.00000000000E+00 0. -1.
<mgrwt>
<rscale>  1 0.30000000E+03</rscale>
<asrwt>0</asrwt>
<pdfrwt beam="1">  1       21 0.74360386E-02 0.30000000E+03</pdfrwt>
<pdfrwt beam="2">0</pdfrwt>
<totfact> 0.14520542E+04</totfact>
</mgrwt>
</event>
<event>
 6    1  0.8397183E-002  0.3000000E+03  0.7818608E-02  0.1093470E+00
         21   -1    0    0  501  502  0.00000000000E+00  0.00000000000E+00  0.59938718432E+01  0.59938718432E+01  0.00000000000E+00 0. -1.
         13   -1    0    0    0    0 -0.00000000000E+00 -0.00000000000E+00 -0.10000000000E+04  0.10000000000E+04  0.00000000000E+00 0.  1.
    9000005    2    1    2  501    0 -0.19480975893E+02  0.71589793163E+02 -0.35450231766E+03  0.36220063598E+03  0.35777883011E+01 0.  0.
         13    1    3    3    0    0 -0.18200631506E+02  0.66863439925E+02 -0.32640165624E+03  0.33367652567E+03  0.00000000000E+00 0.  1.
          3    1    3    3  501    0 -0.12803443866E+01  0.47263532384E+01 -0.28100661414E+02  0.28524110303E+02  0.00000000000E+00 0.  1.
         -3    1    1    2    0  502  0.19480975893E+02 -0.71589793163E+02 -0.63950381050E+03  0.64379323587E+03  0.00000000000E+00 0. -1.
<mgrwt>
<rscale>  1 0.30000000E+03</rscale>
<asrwt>0</asrwt>
<pdfrwt beam="1">  1       21 0.21795944E-01 0.30000000E+03</pdfrwt>
<pdfrwt beam="2">0</pdfrwt>
<totfact> 0.20347579E+03</totfact>
</mgrwt>
</event>
<event>
 6    1  0.8397183E-002  0.3000000E+03  0.7818608E-02  0.1093470E+00
         21   -1    0    0  501  502  0.00000000000E+00  0.00000000000E+00  0.10546900328E+01  0.10546900328E+01  0.00000000000E+00 0. -1.
         13   -1    0    0    0    0 -0.00000000000E+00 -0.00000000000E+00 -0.10000000000E+04  0.10000000000E+04  0.00000000000E+00 0.  1.
    9000005    2    1    2  501    0  0.19244666846E+02  0.25729969934E+02 -0.56435117525E+03  0.56527441227E+03  0.32440111400E+01 0.  0.
         13    1    3    3    0    0  0.18748808362E+02  0.25004195934E+02 -0.55585528769E+03  0.55673317530E+03  0.00000000000E+00 0.  1.
          3    1    3    3  501    0  0.49585848426E+00  0.72577399995E+00 -0.84958875645E+01  0.85412369739E+01  0.00000000000E+00 0.  1.
         -1    1    1    2    0  502 -0.19244666846E+02 -0.25729969934E+02 -0.43459413472E+03  0.43578027776E+03  0.00000000000E+00 0. -1.
<mgrwt>
<rscale>  1 0.30000000E+03</rscale>
<asrwt>0</asrwt>
<pdfrwt beam="1">  1       21 0.38352446E-02 0.30000000E+03</pdfrwt>
<pdfrwt beam="2">0</pdfrwt>
<totfact> 0.45130459E+04</totfact>
</mgrwt>
</event>
<event>
 6    1  0.8397183E-002  0.3000000E+03  0.7818608E-02  0.1093470E+00
         21   -1    0    0  501  502  0.00000000000E+00  0.00000000000E+00  0.14912181504E+01  0.14912181504E+01  0.00000000000E+00 0. -1.
         13   -1    0    0    0    0 -0.00000000000E+00 -0.00000000000E+00 -0.10000000000E+04  0.10000000000E+04  0.00000000000E+00 0.  1.
    9000005    2    1    2  501    0  0.44428000549E+01  0.37889844477E+02 -0.57100719270E+03  0.57229081331E+03  0.34902866675E+01 0.  0.
         13    1    3    3    0    0  0.16685174557E+01  0.45247128524E+01 -0.75302039638E+02  0.75456306235E+02  0.00000000000E+00 0.  1.
          1    1    3    3  501    0  0.27742825992E+01  0.33365131624E+02 -0.49570515306E+03  0.49683450708E+03  0.00000000000E+00 0.  1.
         -3    1    1    2    0  502 -0.44428000549E+01 -0.37889844477E+02 -0.42750158915E+03  0.42920040484E+03  0.00000000000E+00 0. -1.
<mgrwt>
<rscale>  1 0.30000000E+03</rscale>
<asrwt>0</asrwt>
<pdfrwt beam="1">  1       21 0.54226229E-02 0.30000000E+03</pdfrwt>
<pdfrwt beam="2">0</pdfrwt>
<totfact> 0.25075700E+04</totfact>
</mgrwt>
</event>
<event>
 6    1  0.8397183E-002  0.3000000E+03  0.7818608E-02  0.1093470E+00
         21   -1    0    0  501  502  0.00000000000E+00  0.00000000000E+00  0.31557012286E+01  0.31557012286E+01  0.00000000000E+00 0. -1.
         13   -1    0    0    0    0 -0.00000000000E+00 -0.00000000000E+00 -0.10000000000E+04  0.10000000000E+04  0.00000000000E+00 0.  1.
    9000005    2    1    2  501    0 -0.42847745316E+02  0.17473740051E+02 -0.21947214818E+03  0.22440752538E+03  0.70322650078E+01 0.  0.
         13    1    3    3    0    0 -0.23796295615E+02  0.12059499934E+02 -0.11274824462E+03  0.11586139084E+03  0.00000000000E+00 0.  1.
          1    1    3    3  501    0 -0.19051449701E+02  0.54142401169E+01 -0.10672390356E+03  0.10854613454E+03  0.00000000000E+00 0.  1.
         -3    1    1    2    0  502  0.42847745316E+02 -0.17473740051E+02 -0.77737215059E+03  0.77874817585E+03  0.00000000000E+00 0. -1.
<mgrwt>
<rscale>  1 0.30000000E+03</rscale>
<asrwt>0</asrwt>
<pdfrwt beam="1">  1       21 0.11475301E-01 0.30000000E+03</pdfrwt>
<pdfrwt beam="2">0</pdfrwt>
<totfact> 0.67196002E+03</totfact>
</mgrwt>
</event>
<event>
 6    1  0.8397183E-002  0.3000000E+03  0.7818608E-02  0.1093470E+00
         21   -1    0    0  501  502  0.00000000000E+00  0.00000000000E+00  0.17216049145E+01  0.17216049145E+01  0.00000000000E+00 0. -1.
         13   -1    0    0    0    0 -0.00000000000E+00 -0.00000000000E+00 -0.10000000000E+04  0.10000000000E+04  0.00000000000E+00 0.  1.
    9000005    2    1    2  501    0 -0.24671434173E+02 -0.26833093852E+02 -0.26241490906E+03  0.26495585879E+03  0.33657128355E+01 0.  0.
         13    1    3    3    0    0 -0.19268905412E+01 -0.17802132381E+01 -0.13604987818E+02  0.13855603916E+02  0.00000000000E+00 0.  1.
          3    1    3    3  501    0 -0.22744543632E+02 -0.25052880614E+02 -0.24880992124E+03  0.25110025488E+03  0.00000000000E+00 0.  1.
         -3    1    1    2    0  502  0.24671434173E+02  0.26833093852E+02 -0.73586348603E+03  0.73676574612E+03  0.00000000000E+00 0. -1.
<mgrwt>
<rscale>  1 0.30000000E+03</rscale>
<asrwt>0</asrwt>
<pdfrwt beam="1">  1       21 0.62603947E-02 0.30000000E+03</pdfrwt>
<pdfrwt beam="2">0</pdfrwt>
<totfact> 0.19581663E+04</totfact>
</mgrwt>
</event>
<event>
 6    1  0.8397183E-002  0.3000000E+03  0.7818608E-02  0.1093470E+00
         21   -1    0    0  501  502  0.00000000000E+00  0.00000000000E+00  0.49896891580E+01  0.49896891580E+01  0.00000000000E+00 0. -1.
         13   -1    0    0    0    0 -0.00000000000E+00 -0.00000000000E+00 -0.10000000000E+04  0.10000000000E+04  0.00000000000E+00 0.  1.
    9000005    2    1    2  501    0 -0.45424347931E+02  0.52270560664E+02 -0.40194849230E+03  0.40789848715E+03  0.47960884142E+01 0.  0.
         13    1    3    3    0    0 -0.14447038328E+02  0.14853622919E+02 -0.10951353650E+03  0.11145654628E+03  0.00000000000E+00 0.  1.
          3    1    3    3  501    0 -0.30977309603E+02  0.37416937745E+02 -0.29243495579E+03  0.29644194088E+03  0.00000000000E+00 0.  1.
         -1    1    1    2    0  502  0.45424347931E+02 -0.52270560664E+02 -0.59306181855E+03  0.59709120201E+03  0.00000000000E+00 0. -1.
<mgrwt>
<rscale>  1 0.30000000E+03</rscale>
<asrwt>0</asrwt>
<pdfrwt beam="1">  1       21 0.18144362E-01 0.30000000E+03</pdfrwt>
<pdfrwt beam="2">0</pdfrwt>
<totfact> 0.28857883E+03</totfact>
</mgrwt>
</event>
<event>
 6    1  0.8397183E-002  0.3000000E+03  0.7818608E-02  0.1093470E+00
         21   -1    0    0  501  502  0.00000000000E+00  0.00000000000E+00  0.22081635105E+01  0.22081635105E+01  0.00000000000E+00 0. -1.
         13   -1    0    0    0    0 -0.00000000000E+00 -0.00000000000E+00 -0.10000000000E+04  0.10000000000E+04  0.00000000000E+00 0.  1.
    9000005    2    1    2  501    0  0.34730291974E+02 -0.29060368883E+02 -0.63194304938E+03  0.63356737189E+03  0.22133319654E+01 0.  0.
         13    1    3    3    0    0  0.38582038939E+01 -0.24443677740E+01 -0.59802908546E+02  0.59977066798E+02  0.00000000000E+00 0.  1.
          1    1    3    3  501    0  0.30872088080E+02 -0.26616001109E+02 -0.57214014084E+03  0.57359030509E+03  0.00000000000E+00 0.  1.
         -3    1    1    2    0  502 -0.34730291974E+02  0.29060368883E+02 -0.36584878711E+03  0.36864079162E+03  0.00000000000E+00 0. -1.
<mgrwt>
<rscale>  1 0.30000000E+03</rscale>
<asrwt>0</asrwt>
<pdfrwt beam="1">  1       21 0.80297024E-02 0.30000000E+03</pdfrwt>
<pdfrwt beam="2">0</pdfrwt>
<totfact> 0.12690981E+04</totfact>
</mgrwt>
</event>
<event>
 6    1  0.8397183E-002  0.3000000E+03  0.7818608E-02  0.1093470E+00
         21   -1    0    0  501  502  0.00000000000E+00  0.00000000000E+00  0.24906544443E+01  0.24906544443E+01  0.00000000000E+00 0. -1.
         13   -1    0    0    0    0 -0.00000000000E+00 -0.00000000000E+00 -0.10000000000E+04  0.10000000000E+04  0.00000000000E+00 0.  1.
    9000005    2    1    2  501    0  0.47311437910E+02  0.34823205514E+01 -0.65338428466E+03  0.65511109798E+03  0.30047530938E+01 0.  0.
         13    1    3    3    0    0  0.34867187207E+01  0.37017159528E+00 -0.38603384270E+02  0.38762294972E+02  0.00000000000E+00 0.  1.
          1    1    3    3  501    0  0.43824719189E+02  0.31121489561E+01 -0.61478090039E+03  0.61634880301E+03  0.00000000000E+00 0.  1.
         -3    1    1    2    0  502 -0.47311437910E+02 -0.34823205514E+01 -0.34412506089E+03  0.34737955646E+03  0.00000000000E+00 0. -1.
<mgrwt>
<rscale>  1 0.30000000E+03</rscale>
<asrwt>0</asrwt>
<pdfrwt beam="1">  1       21 0.90569444E-02 0.30000000E+03</pdfrwt>
<pdfrwt beam="2">0</pdfrwt>
<totfact> 0.10262735E+04</totfact>
</mgrwt>
</event>
<event>
 6    1  0.8397183E-002  0.3000000E+03  0.7818608E-02  0.1093470E+00
         21   -1    0    0  501  502  0.00000000000E+00  0.00000000000E+00  0.20085065747E+01  0.20085065747E+01  0.00000000000E+00 0. -1.
         13   -1    0    0    0    0 -0.00000000000E+00 -0.00000000000E+00 -0.10000000000E+04  0.10000000000E+04  0.00000000000E+00 0.  1.
    9000005    2    1    2  501    0  0.38079412936E+02  0.23248004868E+02 -0.46045531748E+03  0.46262399450E+03  0.33688972119E+01 0.  0.
         13    1    3    3    0    0  0.34667526971E+02  0.20898608622E+02 -0.40681977996E+03  0.40882872042E+03  0.00000000000E+00 0.  1.
          1    1    3    3  501    0  0.34118859650E+01  0.23493962467E+01 -0.53635537521E+02  0.53795274083E+02  0.00000000000E+00 0.  1.
         -3    1    1    2    0  502 -0.38079412936E+02 -0.23248004868E+02 -0.53753617594E+03  0.53938451207E+03  0.00000000000E+00 0. -1.
<mgrwt>
<rscale>  1 0.30000000E+03</rscale>
<asrwt>0</asrwt>
<pdfrwt beam="1">  1       21 0.73036757E-02 0.30000000E+03</pdfrwt>
<pdfrwt beam="2">0</pdfrwt>
<totfact> 0.14983751E+04</totfact>
</mgrwt>
</event>
<event>
 6    1  0.8397183E-002  0.3000000E+03  0.7818608E-02  0.1093470E+00
         21   -1    0    0  501  502  0.00000000000E+00  0.00000000000E+00  0.66698195771E+01  0.66698195771E+01  0.00000000000E+00 0. -1.
         13   -1    0    0    0    0 -0.00000000000E+00 -0.00000000000E+00 -0.10000000000E+04  0.10000000000E+04  0.00000000000E+00 0.  1.
    9000005    2    1    2  501    0  0.78622931271E+02  0.64937216831E+01 -0.62593568935E+03  0.63090068060E+03  0.40555919977E+01 0.  0.
         13    1    3    3    0    0  0.51241431173E+02  0.22961729948E+01 -0.40760378427E+03  0.41081845337E+03  0.00000000000E+00 0.  1.
          1    1    3    3  501    0  0.27381500098E+02  0.41975486883E+01 -0.21833190508E+03  0.22008222722E+03  0.00000000000E+00 0.  1.
         -3    1    1    2    0  502 -0.78622931271E+02 -0.64937216831E+01 -0.36739449107E+03  0.37576913898E+03  0.00000000000E+00 0. -1.
<mgrwt>
<rscale>  1 0.30000000E+03</rscale>
<asrwt>0</asrwt>
<pdfrwt beam="1">  1       21 0.24253941E-01 0.30000000E+03</pdfrwt>
<pdfrwt beam="2">0</pdfrwt>
<totfact> 0.16546506E+03</totfact>
</mgrwt>
</event>
<event>
 6    1  0.8397183E-002  0.3000000E+03  0.7818608E-02  0.1093470E+00
         21   -1    0    0  501  502  0.00000000000E+00  0.00000000000E+00  0.63734015528E+01  0.63734015528E+01  0.00000000000E+00 0. -1.
         13   -1    0    0    0    0 -0.00000000000E+00 -0.00000000000E+00 -0.10000000000E+04  0.10000000000E+04  0.00000000000E+00 0.  1.
    9000005    2    1    2  501    0  0.23465096050E+02 -0.45708066628E+02 -0.88187460092E+03  0.88337605589E+03  0.32567306567E+01 0.  0.
         13    1    3    3    0    0  0.84425728644E+01 -0.13167192452E+02 -0.26770281876E+03  0.26815937642E+03  0.00000000000E+00 0.  1.
          3    1    3    3  501    0  0.15022523185E+02 -0.32540874176E+02 -0.61417178216E+03  0.61521667947E+03  0.00000000000E+00 0.  1.
         -1    1    1    2    0  502 -0.23465096050E+02  0.45708066628E+02 -0.11175199753E+03  0.12299734566E+03  0.00000000000E+00 0. -1.
<mgrwt>
<rscale>  1 0.30000000E+03</rscale>
<asrwt>0</asrwt>
<pdfrwt beam="1">  1       21 0.23176055E-01 0.30000000E+03</pdfrwt>
<pdfrwt beam="2">0</pdfrwt>
<totfact> 0.18074005E+03</totfact>
</mgrwt>
</event>
<event>
 6    1  0.8397183E-002  0.3000000E+03  0.7818608E-02  0.1093470E+00
         21   -1    0    0  501  502  0.00000000000E+00  0.00000000000E+00  0.96037159816E+00  0.96037159816E+00  0.00000000000E+00 0. -1.
         13   -1    0    0    0    0 -0.00000000000E+00 -0.00000000000E+00 -0.10000000000E+04  0.10000000000E+04  0.00000000000E+00 0.  1.
    9000005    2    1    2  501    0 -0.28639181971E+02 -0.10314780208E+02 -0.58601910145E+03  0.58681963089E+03  0.35063504099E+01 0.  0.
         13    1    3    3    0    0 -0.18761032832E+02 -0.70510813512E+01 -0.41602083970E+03  0.41650334112E+03  0.00000000000E+00 0.  1.
          1    1    3    3  501    0 -0.98781491391E+01 -0.32636988567E+01 -0.16999826175E+03  0.17031628976E+03  0.00000000000E+00 0.  1.
         -3    1    1    2    0  502  0.28639181971E+02  0.10314780208E+02 -0.41302052695E+03  0.41414074071E+03  0.00000000000E+00 0. -1.
<mgrwt>
<rscale>  1 0.30000000E+03</rscale>
<asrwt>0</asrwt>
<pdfrwt beam="1">  1       21 0.34922677E-02 0.30000000E+03</pdfrwt>
<pdfrwt beam="2">0</pdfrwt>
<totfact> 0.52812012E+04</totfact>
</mgrwt>
</event>
<event>
 6    1  0.8397183E-002  0.3000000E+03  0.7818608E-02  0.1093470E+00
         21   -1    0    0  501  502  0.00000000000E+00  0.00000000000E+00  0.16511017350E+01  0.16511017350E+01  0.00000000000E+00 0. -1.
         13   -1    0    0    0    0 -0.00000000000E+00 -0.00000000000E+00 -0.10000000000E+04  0.10000000000E+04  0.00000000000E+00 0.  1.
    9000005    2    1    2  501    0  0.29939711031E+01  0.40204929583E+02 -0.55554796697E+03  0.55701859620E+03  0.32821758565E+01 0.  0.
         13    1    3    3    0    0  0.35482015031E+01  0.36796648029E+02 -0.51368572178E+03  0.51501417826E+03  0.00000000000E+00 0.  1.
          1    1    3    3  501    0 -0.55423040003E+00  0.34082815542E+01 -0.41862245186E+02  0.42004417940E+02  0.00000000000E+00 0.  1.
         -3    1    1    2    0  502 -0.29939711031E+01 -0.40204929583E+02 -0.44280093129E+03  0.44463250554E+03  0.00000000000E+00 0. -1.
<mgrwt>
<rscale>  1 0.30000000E+03</rscale>
<asrwt>0</asrwt>
<pdfrwt beam="1">  1       21 0.60040190E-02 0.30000000E+03</pdfrwt>
<pdfrwt beam="2">0</pdfrwt>
<totfact> 0.21047345E+04</totfact>
</mgrwt>
</event>
<event>
 6    1  0.8397183E-002  0.3000000E+03  0.7818608E-02  0.1093470E+00
         21   -1    0    0  501  502  0.00000000000E+00  0.00000000000E+00  0.13866951075E+01  0.13866951075E+01  0.00000000000E+00 0. -1.
         13   -1    0    0    0    0 -0.00000000000E+00 -0.00000000000E+00 -0.10000000000E+04  0.10000000000E+04  0.00000000000E+00 0.  1.
    9000005    2    1    2  501    0 -0.33723330040E+01  0.36914475337E+02 -0.46893259141E+03  0.47041050981E+03  0.37711181947E+01 0.  0.
         13    1    3    3    0    0 -0.28054863597E+01  0.11638295026E+02 -0.14699941844E+03  0.14748609998E+03  0.00000000000E+00 0.  1.
          3    1    3    3  501    0 -0.56684664429E+00  0.25276180311E+02 -0.32193317297E+03  0.32292440983E+03  0.00000000000E+00 0.  1.
         -3    1    1    2    0  502  0.33723330040E+01 -0.36914475337E+02 -0.52968071348E+03  0.53097618529E+03  0.00000000000E+00 0. -1.
<mgrwt>
<rscale>  1 0.30000000E+03</rscale>
<asrwt>0</asrwt>
<pdfrwt beam="1">  1       21 0.50425383E-02 0.30000000E+03</pdfrwt>
<pdfrwt beam="2">0</pdfrwt>
<totfact> 0.28391565E+04</totfact>
</mgrwt>
</event>
<event>
 6    1  0.8397183E-002  0.3000000E+03  0.7818608E-02  0.1093470E+00
         21   -1    0    0  501  502  0.00000000000E+00  0.00000000000E+00  0.40985258739E+01  0.40985258739E+01  0.00000000000E+00 0. -1.
         13   -1    0    0    0    0 -0.00000000000E+00 -0.00000000000E+00 -0.10000000000E+04  0.10000000000E+04  0.00000000000E+00 0.  1.
    9000005    2    1    2  501    0 -0.50273063101E+02  0.19251973560E+02 -0.22691736018E+03  0.23323239816E+03  0.28006855622E+01 0.  0.
         13    1    3    3    0    0 -0.48445809064E+02  0.18632094104E+02 -0.22075341887E+03  0.22677350658E+03  0.00000000000E+00 0.  1.
          3    1    3    3  501    0 -0.18272540364E+01  0.61987945634E+00 -0.61639413113E+01  0.64588915723E+01  0.00000000000E+00 0.  1.
         -1    1    1    2    0  502  0.50273063101E+02 -0.19251973560E+02 -0.76898411395E+03  0.77086612772E+03  0.00000000000E+00 0. -1.
<mgrwt>
<rscale>  1 0.30000000E+03</rscale>
<asrwt>0</asrwt>
<pdfrwt beam="1">  1       21 0.14903762E-01 0.30000000E+03</pdfrwt>
<pdfrwt beam="2">0</pdfrwt>
<totfact> 0.41673700E+03</totfact>
</mgrwt>
</event>
<event>
 6    1  0.8397183E-002  0.3000000E+03  0.7818608E-02  0.1093470E+00
         21   -1    0    0  501  502  0.00000000000E+00  0.00000000000E+00  0.13753639803E+01  0.13753639803E+01  0.00000000000E+00 0. -1.
         13   -1    0    0    0    0 -0.00000000000E+00 -0.00000000000E+00 -0.10000000000E+04  0.10000000000E+04  0.00000000000E+00 0.  1.
    9000005    2    1    2  501    0  0.31551557560E+02 -0.79096061913E+00 -0.23908509815E+03  0.24118036531E+03  0.31871703104E+01 0.  0.
         13    1    3    3    0    0  0.26032068038E+02  0.26301895898E+00 -0.19020312193E+03  0.19197647079E+03  0.00000000000E+00 0.  1.
          1    1    3    3  501    0  0.55194895218E+01 -0.10539795781E+01 -0.48881976212E+02  0.49203894520E+02  0.00000000000E+00 0.  1.
         -3    1    1    2    0  502 -0.31551557560E+02  0.79096061913E+00 -0.75953953787E+03  0.76019499867E+03  0.00000000000E+00 0. -1.
<mgrwt>
<rscale>  1 0.30000000E+03</rscale>
<asrwt>0</asrwt>
<pdfrwt beam="1">  1       21 0.50013341E-02 0.30000000E+03</pdfrwt>
<pdfrwt beam="2">0</pdfrwt>
<totfact> 0.28791558E+04</totfact>
</mgrwt>
</event>
<event>
 6    1  0.8397183E-002  0.3000000E+03  0.7818608E-02  0.1093470E+00
         21   -1    0    0  501  502  0.00000000000E+00  0.00000000000E+00  0.21214145421E+01  0.21214145421E+01  0.00000000000E+00 0. -1.
         13   -1    0    0    0    0 -0.00000000000E+00 -0.00000000000E+00 -0.10000000000E+04  0.10000000000E+04  0.00000000000E+00 0.  1.
    9000005    2    1    2  501    0  0.24149080912E+02  0.36050743781E+02 -0.33357442952E+03  0.33640161926E+03  0.33638035054E+01 0.  0.
         13    1    3    3    0    0  0.15124309257E+02  0.24373850664E+02 -0.22965393558E+03  0.23143845717E+03  0.00000000000E+00 0.  1.
          3    1    3    3  501    0  0.90247716552E+01  0.11676893117E+02 -0.10392049394E+03  0.10496316209E+03  0.00000000000E+00 0.  1.
         -1    1    1    2    0  502 -0.24149080912E+02 -0.36050743781E+02 -0.66430415594E+03  0.66571979528E+03  0.00000000000E+00 0. -1.
<mgrwt>
<rscale>  1 0.30000000E+03</rscale>
<asrwt>0</asrwt>
<pdfrwt beam="1">  1       21 0.77142510E-02 0.30000000E+03</pdfrwt>
<pdfrwt beam="2">0</pdfrwt>
<totfact> 0.13615722E+04</totfact>
</mgrwt>
</event>
<event>
 6    1  0.8397183E-002  0.3000000E+03  0.7818608E-02  0.1093470E+00
         21   -1    0    0  501  502  0.00000000000E+00  0.00000000000E+00  0.12166372386E+01  0.12166372386E+01  0.00000000000E+00 0. -1.
         13   -1    0    0    0    0 -0.00000000000E+00 -0.00000000000E+00 -0.10000000000E+04  0.10000000000E+04  0.00000000000E+00 0.  1.
    9000005    2    1    2  501    0  0.12666539354E+02 -0.30043766603E+02 -0.32472414785E+03  0.32636932537E+03  0.28452089243E+01 0.  0.
         13    1    3    3    0    0  0.12403692066E+02 -0.29797255595E+02 -0.32295832730E+03  0.32456711046E+03  0.00000000000E+00 0.  1.
          3    1    3    3  501    0  0.26284728802E+00 -0.24651100769E+00 -0.17658205479E+01  0.18022149098E+01  0.00000000000E+00 0.  1.
         -1    1    1    2    0  502 -0.12666539354E+02  0.30043766603E+02 -0.67405921491E+03  0.67484731187E+03  0.00000000000E+00 0. -1.
<mgrwt>
<rscale>  1 0.30000000E+03</rscale>
<asrwt>0</asrwt>
<pdfrwt beam="1">  1       21 0.44241447E-02 0.30000000E+03</pdfrwt>
<pdfrwt beam="2">0</pdfrwt>
<totfact> 0.35466034E+04</totfact>
</mgrwt>
</event>
<event>
 6    1  0.8397183E-002  0.3000000E+03  0.7818608E-02  0.1093470E+00
         21   -1    0    0  501  502  0.00000000000E+00  0.00000000000E+00  0.14390162956E+01  0.14390162956E+01  0.00000000000E+00 0. -1.
         13   -1    0    0    0    0 -0.00000000000E+00 -0.00000000000E+00 -0.10000000000E+04  0.10000000000E+04  0.00000000000E+00 0.  1.
    9000005    2    1    2  501    0 -0.16024649055E+02  0.30647826203E+02 -0.29670154533E+03  0.29872801605E+03  0.32468361182E+01 0.  0.
         13    1    3    3    0    0 -0.12080999388E+01  0.47164537716E+01 -0.40509740399E+02  0.40801268471E+02  0.00000000000E+00 0.  1.
          1    1    3    3  501    0 -0.14816549116E+02  0.25931372432E+02 -0.25619180493E+03  0.25792674758E+03  0.00000000000E+00 0.  1.
         -1    1    1    2    0  502  0.16024649055E+02 -0.30647826203E+02 -0.70185943837E+03  0.70271100024E+03  0.00000000000E+00 0. -1.
<mgrwt>
<rscale>  1 0.30000000E+03</rscale>
<asrwt>0</asrwt>
<pdfrwt beam="1">  1       21 0.52327976E-02 0.30000000E+03</pdfrwt>
<pdfrwt beam="2">0</pdfrwt>
<totfact> 0.26652017E+04</totfact>
</mgrwt>
</event>
<event>
 6    1  0.8397183E-002  0.3000000E+03  0.7818608E-02  0.1093470E+00
         21   -1    0    0  501  502  0.00000000000E+00  0.00000000000E+00  0.93333207087E+00  0.93333207087E+00  0.00000000000E+00 0. -1.
         13   -1    0    0    0    0 -0.00000000000E+00 -0.00000000000E+00 -0.10000000000E+04  0.10000000000E+04  0.00000000000E+00 0.  1.
    9000005    2    1    2  501    0 -0.19768475785E+02 -0.22904330753E+02 -0.44302903359E+03  0.44407315950E+03  0.32932318826E+01 0.  0.
         13    1    3    3    0    0 -0.51909526411E+01 -0.39683192186E+01 -0.92566509034E+02  0.92796832605E+02  0.00000000000E+00 0.  1.
          1    1    3    3  501    0 -0.14577523144E+02 -0.18936011534E+02 -0.35046252456E+03  0.35127632689E+03  0.00000000000E+00 0.  1.
         -1    1    1    2    0  502  0.19768475785E+02  0.22904330753E+02 -0.55603763434E+03  0.55686017257E+03  0.00000000000E+00 0. -1.
<mgrwt>
<rscale>  1 0.30000000E+03</rscale>
<asrwt>0</asrwt>
<pdfrwt beam="1">  1       21 0.33939420E-02 0.30000000E+03</pdfrwt>
<pdfrwt beam="2">0</pdfrwt>
<totfact> 0.55395856E+04</totfact>
</mgrwt>
</event>
<event>
 6    1  0.8397183E-002  0.3000000E+03  0.7818608E-02  0.1093470E+00
         21   -1    0    0  501  502  0.00000000000E+00  0.00000000000E+00  0.25603585652E+01  0.25603585652E+01  0.00000000000E+00 0. -1.
         13   -1    0    0    0    0 -0.00000000000E+00 -0.00000000000E+00 -0.10000000000E+04  0.10000000000E+04  0.00000000000E+00 0.  1.
    9000005    2    1    2  501    0 -0.41514955284E+02  0.55418801851E+01 -0.21874187427E+03  0.22273703464E+03  0.30943647840E+01 0.  0.
         13    1    3    3    0    0 -0.14882869599E+02  0.34743796278E+01 -0.78531796473E+02  0.80005088454E+02  0.00000000000E+00 0.  1.
          1    1    3    3  501    0 -0.26632085686E+02  0.20675005572E+01 -0.14021007780E+03  0.14273194619E+03  0.00000000000E+00 0.  1.
         -1    1    1    2    0  502  0.41514955284E+02 -0.55418801851E+01 -0.77869776716E+03  0.77982332392E+03  0.00000000000E+00 0. -1.
<mgrwt>
<rscale>  1 0.30000000E+03</rscale>
<asrwt>0</asrwt>
<pdfrwt beam="1">  1       21 0.93104144E-02 0.30000000E+03</pdfrwt>
<pdfrwt beam="2">0</pdfrwt>
<totfact> 0.97720323E+03</totfact>
</mgrwt>
</event>
<event>
 6    1  0.8397183E-002  0.3000000E+03  0.7818608E-02  0.1093470E+00
         21   -1    0    0  501  502  0.00000000000E+00  0.00000000000E+00  0.11043551000E+01  0.11043551000E+01  0.00000000000E+00 0. -1.
         13   -1    0    0    0    0 -0.00000000000E+00 -0.00000000000E+00 -0.10000000000E+04  0.10000000000E+04  0.00000000000E+00 0.  1.
    9000005    2    1    2  501    0  0.28824385569E+02  0.14744681702E+02 -0.39303185895E+03  0.39437609800E+03  0.31958847800E+01 0.  0.
         13    1    3    3    0    0  0.11722713917E+02  0.42665635488E+01 -0.14826479885E+03  0.14878869636E+03  0.00000000000E+00 0.  1.
          3    1    3    3  501    0  0.17101671652E+02  0.10478118153E+02 -0.24476706010E+03  0.24558740164E+03  0.00000000000E+00 0.  1.
         -1    1    1    2    0  502 -0.28824385569E+02 -0.14744681702E+02 -0.60586378595E+03  0.60672825710E+03  0.00000000000E+00 0. -1.
<mgrwt>
<rscale>  1 0.30000000E+03</rscale>
<asrwt>0</asrwt>
<pdfrwt beam="1">  1       21 0.40158452E-02 0.30000000E+03</pdfrwt>
<pdfrwt beam="2">0</pdfrwt>
<totfact> 0.41768284E+04</totfact>
</mgrwt>
</event>
<event>
 6    1  0.8397183E-002  0.3000000E+03  0.7818608E-02  0.1093470E+00
         21   -1    0    0  501  502  0.00000000000E+00  0.00000000000E+00  0.17264435683E+01  0.17264435683E+01  0.00000000000E+00 0. -1.
         13   -1    0    0    0    0 -0.00000000000E+00 -0.00000000000E+00 -0.10000000000E+04  0.10000000000E+04  0.00000000000E+00 0.  1.
    9000005    2    1    2  501    0 -0.21445422800E+02 -0.32863757291E+02 -0.33557602037E+03  0.33786805731E+03  0.19042061782E+01 0.  0.
         13    1    3    3    0    0 -0.17138305438E+02 -0.26058521451E+02 -0.25993204737E+03  0.26179655709E+03  0.00000000000E+00 0.  1.
          1    1    3    3  501    0 -0.43071173615E+01 -0.68052358396E+01 -0.75643972995E+02  0.76071500217E+02  0.00000000000E+00 0.  1.
         -1    1    1    2    0  502  0.21445422800E+02  0.32863757291E+02 -0.66269753606E+03  0.66385838626E+03  0.00000000000E+00 0. -1.
<mgrwt>
<rscale>  1 0.30000000E+03</rscale>
<asrwt>0</asrwt>
<pdfrwt beam="1">  1       21 0.62779899E-02 0.30000000E+03</pdfrwt>
<pdfrwt beam="2">0</pdfrwt>
<totfact> 0.19486925E+04</totfact>
</mgrwt>
</event>
<event>
 6    1  0.8397183E-002  0.3000000E+03  0.7818608E-02  0.1093470E+00
         21   -1    0    0  501  502  0.00000000000E+00  0.00000000000E+00  0.12978744449E+01  0.12978744449E+01  0.00000000000E+00 0. -1.
         13   -1    0    0    0    0 -0.00000000000E+00 -0.00000000000E+00 -0.10000000000E+04  0.10000000000E+04  0.00000000000E+00 0.  1.
    9000005    2    1    2  501    0 -0.27134453015E+01 -0.32766908624E+02 -0.70260305606E+03  0.70337893909E+03  0.31375924761E+01 0.  0.
         13    1    3    3    0    0 -0.17040094229E+01 -0.26914236108E+02 -0.55093859143E+03  0.55159823358E+03  0.00000000000E+00 0.  1.
          3    1    3    3  501    0 -0.10094358786E+01 -0.58526725161E+01 -0.15166446462E+03  0.15178070551E+03  0.00000000000E+00 0.  1.
         -3    1    1    2    0  502  0.27134453015E+01  0.32766908624E+02 -0.29609906950E+03  0.29791893536E+03  0.00000000000E+00 0. -1.
<mgrwt>
<rscale>  1 0.30000000E+03</rscale>
<asrwt>0</asrwt>
<pdfrwt beam="1">  1       21 0.47195534E-02 0.30000000E+03</pdfrwt>
<pdfrwt beam="2">0</pdfrwt>
<totfact> 0.31779200E+04</totfact>
</mgrwt>
</event>
<event>
 6    1  0.8397183E-002  0.3000000E+03  0.7818608E-02  0.1093470E+00
         21   -1    0    0  501  502  0.00000000000E+00  0.00000000000E+00  0.30443194761E+01  0.30443194761E+01  0.00000000000E+00 0. -1.
         13   -1    0    0    0    0 -0.00000000000E+00 -0.00000000000E+00 -0.10000000000E+04  0.10000000000E+04  0.00000000000E+00 0.  1.
    9000005    2    1    2  501    0  0.43584638851E+02 -0.29438062756E+02 -0.34871485482E+03  0.35267335734E+03  0.31979245908E+01 0.  0.
         13    1    3    3    0    0  0.18845265395E+02 -0.12990052710E+02 -0.14131985131E+03  0.14316139798E+03  0.00000000000E+00 0.  1.
          3    1    3    3  501    0  0.24739373457E+02 -0.16448010046E+02 -0.20739500351E+03  0.20951195936E+03  0.00000000000E+00 0.  1.
         -3    1    1    2    0  502 -0.43584638851E+02  0.29438062756E+02 -0.64824082570E+03  0.65037096214E+03  0.00000000000E+00 0. -1.
<mgrwt>
<rscale>  1 0.30000000E+03</rscale>
<asrwt>0</asrwt>
<pdfrwt beam="1">  1       21 0.11070276E-01 0.30000000E+03</pdfrwt>
<pdfrwt beam="2">0</pdfrwt>
<totfact> 0.71693836E+03</totfact>
</mgrwt>
</event>
<event>
 6    1  0.8397183E-002  0.3000000E+03  0.7818608E-02  0.1093470E+00
         21   -1    0    0  501  502  0.00000000000E+00  0.00000000000E+00  0.95008029163E+00  0.95008029163E+00  0.00000000000E+00 0. -1.
         13   -1    0    0    0    0 -0.00000000000E+00 -0.00000000000E+00 -0.10000000000E+04  0.10000000000E+04  0.00000000000E+00 0.  1.
    9000005    2    1    2  501    0  0.27411872395E+02  0.13656120326E+02 -0.54836478141E+03  0.54922561311E+03  0.26344318061E+01 0.  0.
         13    1    3    3    0    0  0.15929414184E+02  0.72540134348E+01 -0.33352124185E+03  0.33398021755E+03  0.00000000000E+00 0.  1.
          1    1    3    3  501    0  0.11482458212E+02  0.64021068907E+01 -0.21484353956E+03  0.21524539556E+03  0.00000000000E+00 0.  1.
         -3    1    1    2    0  502 -0.27411872395E+02 -0.13656120326E+02 -0.45068513830E+03  0.45172446718E+03  0.00000000000E+00 0. -1.
<mgrwt>
<rscale>  1 0.30000000E+03</rscale>
<asrwt>0</asrwt>
<pdfrwt beam="1">  1       21 0.34548447E-02 0.30000000E+03</pdfrwt>
<pdfrwt beam="2">0</pdfrwt>
<totfact> 0.53772877E+04</totfact>
</mgrwt>
</event>
<event>
 6    1  0.8397183E-002  0.3000000E+03  0.7818608E-02  0.1093470E+00
         21   -1    0    0  501  502  0.00000000000E+00  0.00000000000E+00  0.22597035777E+01  0.22597035777E+01  0.00000000000E+00 0. -1.
         13   -1    0    0    0    0 -0.00000000000E+00 -0.00000000000E+00 -0.10000000000E+04  0.10000000000E+04  0.00000000000E+00 0.  1.
    9000005    2    1    2  501    0  0.89998770619E+01  0.40488957334E+02 -0.74274018921E+03  0.74390837664E+03  0.40411275168E+01 0.  0.
         13    1    3    3    0    0  0.74272662180E+01  0.24372150047E+02 -0.45108105921E+03  0.45180005308E+03  0.00000000000E+00 0.  1.
          3    1    3    3  501    0  0.15726108439E+01  0.16116807287E+02 -0.29165913000E+03  0.29210832356E+03  0.00000000000E+00 0.  1.
         -1    1    1    2    0  502 -0.89998770619E+01 -0.40488957334E+02 -0.25500010721E+03  0.25835132694E+03  0.00000000000E+00 0. -1.
<mgrwt>
<rscale>  1 0.30000000E+03</rscale>
<asrwt>0</asrwt>
<pdfrwt beam="1">  1       21 0.82171212E-02 0.30000000E+03</pdfrwt>
<pdfrwt beam="2">0</pdfrwt>
<totfact> 0.12186505E+04</totfact>
</mgrwt>
</event>
<event>
 6    1  0.8397183E-002  0.3000000E+03  0.7818608E-02  0.1093470E+00
         21   -1    0    0  501  502  0.00000000000E+00  0.00000000000E+00  0.12553433541E+01  0.12553433541E+01  0.00000000000E+00 0. -1.
         13   -1    0    0    0    0 -0.00000000000E+00 -0.00000000000E+00 -0.10000000000E+04  0.10000000000E+04  0.00000000000E+00 0.  1.
    9000005    2    1    2  501    0 -0.19292466255E+02  0.29617258643E+02 -0.49801382357E+03  0.49927850280E+03  0.34458125038E+01 0.  0.
         13    1    3    3    0    0 -0.19046417493E+02  0.28096294694E+02 -0.47182213012E+03  0.47304153123E+03  0.00000000000E+00 0.  1.
          1    1    3    3  501    0 -0.24604876194E+00  0.15209639491E+01 -0.26191693450E+02  0.26236971569E+02  0.00000000000E+00 0.  1.
         -3    1    1    2    0  502  0.19292466255E+02 -0.29617258643E+02 -0.50073083307E+03  0.50197684055E+03  0.00000000000E+00 0. -1.
<mgrwt>
<rscale>  1 0.30000000E+03</rscale>
<asrwt>0</asrwt>
<pdfrwt beam="1">  1       21 0.45648946E-02 0.30000000E+03</pdfrwt>
<pdfrwt beam="2">0</pdfrwt>
<totfact> 0.33630617E+04</totfact>
</mgrwt>
</event>
<event>
 6    1  0.8397183E-002  0.3000000E+03  0.7818608E-02  0.1093470E+00
         21   -1    0    0  501  502  0.00000000000E+00  0.00000000000E+00  0.12494992638E+01  0.12494992638E+01  0.00000000000E+00 0. -1.
         13   -1    0    0    0    0 -0.00000000000E+00 -0.00000000000E+00 -0.10000000000E+04  0.10000000000E+04  0.00000000000E+00 0.  1.
    9000005    2    1    2  501    0  0.50209590085E+01  0.33160971901E+02 -0.65581081472E+03  0.65667369000E+03  0.27659255169E+01 0.  0.
         13    1    3    3    0    0  0.52849642455E+01  0.28601139698E+02 -0.56683612225E+03  0.56758184037E+03  0.00000000000E+00 0.  1.
          3    1    3    3  501    0 -0.26400523704E+00  0.45598322033E+01 -0.88974692475E+02  0.89091849625E+02  0.00000000000E+00 0.  1.
         -3    1    1    2    0  502 -0.50209590085E+01 -0.33160971901E+02 -0.34293968601E+03  0.34457580926E+03  0.00000000000E+00 0. -1.
<mgrwt>
<rscale>  1 0.30000000E+03</rscale>
<asrwt>0</asrwt>
<pdfrwt beam="1">  1       21 0.45436433E-02 0.30000000E+03</pdfrwt>
<pdfrwt beam="2">0</pdfrwt>
<totfact> 0.33898207E+04</totfact>
</mgrwt>
</event>
<event>
 6    1  0.8397183E-002  0.3000000E+03  0.7818608E-02  0.1093470E+00
         21   -1    0    0  501  502  0.00000000000E+00  0.00000000000E+00  0.17702248372E+01  0.17702248372E+01  0.00000000000E+00 0. -1.
         13   -1    0    0    0    0 -0.00000000000E+00 -0.00000000000E+00 -0.10000000000E+04  0.10000000000E+04  0.00000000000E+00 0.  1.
    9000005    2    1    2  501    0  0.40118686363E+02 -0.12452649089E+02 -0.49870616883E+03  0.50048346982E+03  0.33590588210E+01 0.  0.
         13    1    3    3    0    0  0.98971769286E+01 -0.33859748066E+01 -0.10803335970E+03  0.10853859104E+03  0.00000000000E+00 0.  1.
          3    1    3    3  501    0  0.30221509435E+02 -0.90666742820E+01 -0.39067280913E+03  0.39194487879E+03  0.00000000000E+00 0.  1.
         -1    1    1    2    0  502 -0.40118686363E+02  0.12452649089E+02 -0.49952360634E+03  0.50128675501E+03  0.00000000000E+00 0. -1.
<mgrwt>
<rscale>  1 0.30000000E+03</rscale>
<asrwt>0</asrwt>
<pdfrwt beam="1">  1       21 0.64371948E-02 0.30000000E+03</pdfrwt>
<pdfrwt beam="2">0</pdfrwt>
<totfact> 0.18661041E+04</totfact>
</mgrwt>
</event>
<event>
 6    1  0.8397183E-002  0.3000000E+03  0.7818608E-02  0.1093470E+00
         21   -1    0    0  501  502  0.00000000000E+00  0.00000000000E+00  0.11180827314E+01  0.11180827314E+01  0.00000000000E+00 0. -1.
         13   -1    0    0    0    0 -0.00000000000E+00 -0.00000000000E+00 -0.10000000000E+04  0.10000000000E+04  0.00000000000E+00 0.  1.
    9000005    2    1    2  501    0 -0.13978423297E+02 -0.29919680950E+02 -0.57190654748E+03  0.57286751352E+03  0.30830775289E+01 0.  0.
         13    1    3    3    0    0 -0.47646795219E+01 -0.10698843092E+02 -0.22873085811E+03  0.22903050641E+03  0.00000000000E+00 0.  1.
          3    1    3    3  501    0 -0.92137437751E+01 -0.19220837858E+02 -0.34317568937E+03  0.34383700711E+03  0.00000000000E+00 0.  1.
         -1    1    1    2    0  502  0.13978423297E+02  0.29919680950E+02 -0.42697536979E+03  0.42825056921E+03  0.00000000000E+00 0. -1.
<mgrwt>
<rscale>  1 0.30000000E+03</rscale>
<asrwt>0</asrwt>
<pdfrwt beam="1">  1       21 0.40657640E-02 0.30000000E+03</pdfrwt>
<pdfrwt beam="2">0</pdfrwt>
<totfact> 0.40907858E+04</totfact>
</mgrwt>
</event>
<event>
 6    1  0.8397183E-002  0.3000000E+03  0.7818608E-02  0.1093470E+00
         21   -1    0    0  501  502  0.00000000000E+00  0.00000000000E+00  0.38125577508E+01  0.38125577508E+01  0.00000000000E+00 0. -1.
         13   -1    0    0    0    0 -0.00000000000E+00 -0.00000000000E+00 -0.10000000000E+04  0.10000000000E+04  0.00000000000E+00 0.  1.
    9000005    2    1    2  501    0 -0.60094088417E+01  0.31147220769E+02 -0.68236015127E+02  0.75319093340E+02  0.32480309133E+01 0.  0.
         13    1    3    3    0    0 -0.16004020286E+01  0.70763262555E+01 -0.12608238045E+02  0.14546592265E+02  0.00000000000E+00 0.  1.
          1    1    3    3  501    0 -0.44090068130E+01  0.24070894514E+02 -0.55627777082E+02  0.60772501074E+02  0.00000000000E+00 0.  1.
         -3    1    1    2    0  502  0.60094088417E+01 -0.31147220769E+02 -0.92795142712E+03  0.92849346441E+03  0.00000000000E+00 0. -1.
<mgrwt>
<rscale>  1 0.30000000E+03</rscale>
<asrwt>0</asrwt>
<pdfrwt beam="1">  1       21 0.13863876E-01 0.30000000E+03</pdfrwt>
<pdfrwt beam="2">0</pdfrwt>
<totfact> 0.47613528E+03</totfact>
</mgrwt>
</event>
<event>
 6    1  0.8520327E-002  0.3000000E+03  0.7818608E-02  0.1093470E+00
         21   -1    0    0  501  502  0.00000000000E+00  0.00000000000E+00  0.98876622409E+00  0.98876622409E+00  0.00000000000E+00 0. -1.
         13   -1    0    0    0    0 -0.00000000000E+00 -0.00000000000E+00 -0.10000000000E+04  0.10000000000E+04  0.00000000000E+00 0.  1.
    9000005    2    1    2  501    0 -0.26781744525E+02 -0.14547863980E+02 -0.60506674522E+03  0.60586706060E+03  0.63424578200E+01 0.  0.
         13    1    3    3    0    0 -0.18328858176E+02 -0.12415764642E+02 -0.39554947403E+03  0.39616850539E+03  0.00000000000E+00 0.  1.
          1    1    3    3  501    0 -0.84528863493E+01 -0.21320993383E+01 -0.20951727118E+03  0.20969855522E+03  0.00000000000E+00 0.  1.
         -3    1    1    2    0  502  0.26781744525E+02  0.14547863980E+02 -0.39394448856E+03  0.39512170562E+03  0.00000000000E+00 0. -1.
<mgrwt>
<rscale>  1 0.30000000E+03</rscale>
<asrwt>0</asrwt>
<pdfrwt beam="1">  1       21 0.35955211E-02 0.30000000E+03</pdfrwt>
<pdfrwt beam="2">0</pdfrwt>
<totfact> 0.50295199E+04</totfact>
</mgrwt>
</event>
<event>
 6    1  0.8397183E-002  0.3000000E+03  0.7818608E-02  0.1093470E+00
         21   -1    0    0  501  502  0.00000000000E+00  0.00000000000E+00  0.34920268979E+01  0.34920268979E+01  0.00000000000E+00 0. -1.
         13   -1    0    0    0    0 -0.00000000000E+00 -0.00000000000E+00 -0.10000000000E+04  0.10000000000E+04  0.00000000000E+00 0.  1.
    9000005    2    1    2  501    0 -0.34661639480E+01  0.58192183503E+02 -0.41888534911E+03  0.42293519052E+03  0.33007833763E+01 0.  0.
         13    1    3    3    0    0 -0.22873622581E+00  0.76991707130E+01 -0.63753321529E+02  0.64216941346E+02  0.00000000000E+00 0.  1.
          1    1    3    3  501    0 -0.32374277222E+01  0.50493012790E+02 -0.35513202758E+03  0.35871824918E+03  0.00000000000E+00 0.  1.
         -1    1    1    2    0  502  0.34661639480E+01 -0.58192183503E+02 -0.57762262399E+03  0.58055683638E+03  0.00000000000E+00 0. -1.
<mgrwt>
<rscale>  1 0.30000000E+03</rscale>
<asrwt>0</asrwt>
<pdfrwt beam="1">  1       21 0.12698306E-01 0.30000000E+03</pdfrwt>
<pdfrwt beam="2">0</pdfrwt>
<totfact> 0.55910072E+03</totfact>
</mgrwt>
</event>
<event>
 6    1  0.8397183E-002  0.3000000E+03  0.7818608E-02  0.1093470E+00
         21   -1    0    0  501  502  0.00000000000E+00  0.00000000000E+00  0.15160557385E+01  0.15160557385E+01  0.00000000000E+00 0. -1.
         13   -1    0    0    0    0 -0.00000000000E+00 -0.00000000000E+00 -0.10000000000E+04  0.10000000000E+04  0.00000000000E+00 0.  1.
    9000005    2    1    2  501    0 -0.27174442014E+02 -0.16919429933E+02 -0.78367290776E+03  0.78433295600E+03  0.32003291832E+01 0.  0.
         13    1    3    3    0    0 -0.20941462246E+01 -0.45485436368E+00 -0.44898621198E+02  0.44949733329E+02  0.00000000000E+00 0.  1.
          1    1    3    3  501    0 -0.25080295789E+02 -0.16464575570E+02 -0.73877428656E+03  0.73938322267E+03  0.00000000000E+00 0.  1.
         -1    1    1    2    0  502  0.27174442014E+02  0.16919429933E+02 -0.21481103650E+03  0.21718309974E+03  0.00000000000E+00 0. -1.
<mgrwt>
<rscale>  1 0.30000000E+03</rscale>
<asrwt>0</asrwt>
<pdfrwt beam="1">  1       21 0.55129416E-02 0.30000000E+03</pdfrwt>
<pdfrwt beam="2">0</pdfrwt>
<totfact> 0.24375710E+04</totfact>
</mgrwt>
</event>
<event>
 6    1  0.8397183E-002  0.3000000E+03  0.7818608E-02  0.1093470E+00
         21   -1    0    0  501  502  0.00000000000E+00  0.00000000000E+00  0.13517223381E+01  0.13517223381E+01  0.00000000000E+00 0. -1.
         13   -1    0    0    0    0 -0.00000000000E+00 -0.00000000000E+00 -0.10000000000E+04  0.10000000000E+04  0.00000000000E+00 0.  1.
    9000005    2    1    2  501    0  0.34068715474E+02 -0.12472261978E+02 -0.42261214589E+03  0.42417422815E+03  0.25525042913E+01 0.  0.
         13    1    3    3    0    0  0.31973290914E+02 -0.12115630070E+02 -0.40270503934E+03  0.40415396638E+03  0.00000000000E+00 0.  1.
          3    1    3    3  501    0  0.20954245607E+01 -0.35663190792E+00 -0.19907106546E+02  0.20020261773E+02  0.00000000000E+00 0.  1.
         -1    1    1    2    0  502 -0.34068715474E+02  0.12472261978E+02 -0.57603613177E+03  0.57717749419E+03  0.00000000000E+00 0. -1.
<mgrwt>
<rscale>  1 0.30000000E+03</rscale>
<asrwt>0</asrwt>
<pdfrwt beam="1">  1       21 0.49153643E-02 0.30000000E+03</pdfrwt>
<pdfrwt beam="2">0</pdfrwt>
<totfact> 0.29654925E+04</totfact>
</mgrwt>
</event>
<event>
 6    1  0.8397183E-002  0.3000000E+03  0.7818608E-02  0.1093470E+00
         21   -1    0    0  501  502  0.00000000000E+00  0.00000000000E+00  0.11650283756E+01  0.11650283756E+01  0.00000000000E+00 0. -1.
         13   -1    0    0    0    0 -0.00000000000E+00 -0.00000000000E+00 -0.10000000000E+04  0.10000000000E+04  0.00000000000E+00 0.  1.
    9000005    2    1    2  501    0  0.32644245002E+02 -0.30208138281E+01 -0.63641764500E+03  0.63726794034E+03  0.28699932897E+01 0.  0.
         13    1    3    3    0    0  0.57043317104E+01 -0.91320117275E+00 -0.13333821921E+03  0.13346330597E+03  0.00000000000E+00 0.  1.
          3    1    3    3  501    0  0.26939913292E+02 -0.21076126554E+01 -0.50307942579E+03  0.50380463437E+03  0.00000000000E+00 0.  1.
         -3    1    1    2    0  502 -0.32644245002E+02  0.30208138281E+01 -0.36241732662E+03  0.36389708804E+03  0.00000000000E+00 0. -1.
<mgrwt>
<rscale>  1 0.30000000E+03</rscale>
<asrwt>0</asrwt>
<pdfrwt beam="1">  1       21 0.42364758E-02 0.30000000E+03</pdfrwt>
<pdfrwt beam="2">0</pdfrwt>
<totfact> 0.38164933E+04</totfact>
</mgrwt>
</event>
<event>
 6    1  0.8397183E-002  0.3000000E+03  0.7818608E-02  0.1093470E+00
         21   -1    0    0  501  502  0.00000000000E+00  0.00000000000E+00  0.17979411236E+01  0.17979411236E+01  0.00000000000E+00 0. -1.
         13   -1    0    0    0    0 -0.00000000000E+00 -0.00000000000E+00 -0.10000000000E+04  0.10000000000E+04  0.00000000000E+00 0.  1.
    9000005    2    1    2  501    0 -0.18694767391E+02 -0.29647518030E+02 -0.78056997074E+03  0.78136156609E+03  0.28192342825E+01 0.  0.
         13    1    3    3    0    0 -0.41088680641E+01 -0.83370156831E+01 -0.18979207165E+03  0.19001952292E+03  0.00000000000E+00 0.  1.
          1    1    3    3  501    0 -0.14585899327E+02 -0.21310502347E+02 -0.59077789909E+03  0.59134204317E+03  0.00000000000E+00 0.  1.
         -3    1    1    2    0  502  0.18694767391E+02  0.29647518030E+02 -0.21763208813E+03  0.22043637504E+03  0.00000000000E+00 0. -1.
<mgrwt>
<rscale>  1 0.30000000E+03</rscale>
<asrwt>0</asrwt>
<pdfrwt beam="1">  1       21 0.65379815E-02 0.30000000E+03</pdfrwt>
<pdfrwt beam="2">0</pdfrwt>
<totfact> 0.18165836E+04</totfact>
</mgrwt>
</event>
<event>
 6    1  0.8397183E-002  0.3000000E+03  0.7818608E-02  0.1093470E+00
         21   -1    0    0  501  502  0.00000000000E+00  0.00000000000E+00  0.11545038380E+01  0.11545038380E+01  0.00000000000E+00 0. -1.
         13   -1    0    0    0    0 -0.00000000000E+00 -0.00000000000E+00 -0.10000000000E+04  0.10000000000E+04  0.00000000000E+00 0.  1.
    9000005    2    1    2  501    0 -0.31616039580E+02 -0.12165031724E+01 -0.67960139918E+03  0.68034638783E+03  0.34773305137E+01 0.  0.
         13    1    3    3    0    0 -0.11593148809E+02  0.12174936008E+01 -0.24460853770E+03  0.24488613703E+03  0.00000000000E+00 0.  1.
          3    1    3    3  501    0 -0.20022890770E+02 -0.24339967731E+01 -0.43499286148E+03  0.43546025080E+03  0.00000000000E+00 0.  1.
         -3    1    1    2    0  502  0.31616039580E+02  0.12165031724E+01 -0.31924409698E+03  0.32080811601E+03  0.00000000000E+00 0. -1.
<mgrwt>
<rscale>  1 0.30000000E+03</rscale>
<asrwt>0</asrwt>
<pdfrwt beam="1">  1       21 0.41982046E-02 0.30000000E+03</pdfrwt>
<pdfrwt beam="2">0</pdfrwt>
<totfact> 0.38754428E+04</totfact>
</mgrwt>
</event>
<event>
 6    1  0.8397183E-002  0.3000000E+03  0.7818608E-02  0.1093470E+00
         21   -1    0    0  501  502  0.00000000000E+00  0.00000000000E+00  0.17993159903E+01  0.17993159903E+01  0.00000000000E+00 0. -1.
         13   -1    0    0    0    0 -0.00000000000E+00 -0.00000000000E+00 -0.10000000000E+04  0.10000000000E+04  0.00000000000E+00 0.  1.
    9000005    2    1    2  501    0 -0.35548012648E+02  0.20146518678E+02 -0.36820346494E+03  0.37047844713E+03  0.33082894208E+01 0.  0.
         13    1    3    3    0    0 -0.10940733062E+01  0.11048761469E+00 -0.76126064292E+01  0.76916175515E+01  0.00000000000E+00 0.  1.
          1    1    3    3  501    0 -0.34453939341E+02  0.20036031064E+02 -0.36059085851E+03  0.36278682958E+03  0.00000000000E+00 0.  1.
         -3    1    1    2    0  502  0.35548012648E+02 -0.20146518678E+02 -0.62999721907E+03  0.63132086886E+03  0.00000000000E+00 0. -1.
<mgrwt>
<rscale>  1 0.30000000E+03</rscale>
<asrwt>0</asrwt>
<pdfrwt beam="1">  1       21 0.65429810E-02 0.30000000E+03</pdfrwt>
<pdfrwt beam="2">0</pdfrwt>
<totfact> 0.18141801E+04</totfact>
</mgrwt>
</event>
<event>
 6    1  0.8397183E-002  0.3000000E+03  0.7818608E-02  0.1093470E+00
         21   -1    0    0  501  502  0.00000000000E+00  0.00000000000E+00  0.10755819668E+01  0.10755819668E+01  0.00000000000E+00 0. -1.
         13   -1    0    0    0    0 -0.00000000000E+00 -0.00000000000E+00 -0.10000000000E+04  0.10000000000E+04  0.00000000000E+00 0.  1.
    9000005    2    1    2  501    0  0.17705363704E+02 -0.27357895172E+02 -0.54012052865E+03  0.54111586281E+03  0.37758687982E+01 0.  0.
         13    1    3    3    0    0  0.16323955961E+02 -0.24682057587E+02 -0.46995005676E+03  0.47088080377E+03  0.00000000000E+00 0.  1.
          3    1    3    3  501    0  0.13814077423E+01 -0.26758375851E+01 -0.70170471892E+02  0.70235059050E+02  0.00000000000E+00 0.  1.
         -3    1    1    2    0  502 -0.17705363704E+02  0.27357895172E+02 -0.45880388938E+03  0.45995971915E+03  0.00000000000E+00 0. -1.
<mgrwt>
<rscale>  1 0.30000000E+03</rscale>
<asrwt>0</asrwt>
<pdfrwt beam="1">  1       21 0.39112154E-02 0.30000000E+03</pdfrwt>
<pdfrwt beam="2">0</pdfrwt>
<totfact> 0.43666234E+04</totfact>
</mgrwt>
</event>
<event>
 6    1  0.8397183E-002  0.3000000E+03  0.7818608E-02  0.1093470E+00
         21   -1    0    0  501  502  0.00000000000E+00  0.00000000000E+00  0.10909512112E+01  0.10909512112E+01  0.00000000000E+00 0. -1.
         13   -1    0    0    0    0 -0.00000000000E+00 -0.00000000000E+00 -0.10000000000E+04  0.10000000000E+04  0.00000000000E+00 0.  1.
    9000005    2    1    2  501    0  0.16292275659E+01 -0.32421852411E+02 -0.58918358711E+03  0.59008148071E+03  0.22413516683E+01 0.  0.
         13    1    3    3    0    0  0.21570588369E+01 -0.25517483387E+02 -0.46872877857E+03  0.46942780352E+03  0.00000000000E+00 0.  1.
          3    1    3    3  501    0 -0.52783127103E+00 -0.69043690235E+01 -0.12045480854E+03  0.12065367718E+03  0.00000000000E+00 0.  1.
         -3    1    1    2    0  502 -0.16292275659E+01  0.32421852411E+02 -0.40972546168E+03  0.41100947051E+03  0.00000000000E+00 0. -1.
<mgrwt>
<rscale>  1 0.30000000E+03</rscale>
<asrwt>0</asrwt>
<pdfrwt beam="1">  1       21 0.39671037E-02 0.30000000E+03</pdfrwt>
<pdfrwt beam="2">0</pdfrwt>
<totfact> 0.42636033E+04</totfact>
</mgrwt>
</event>
<event>
 6    1  0.8397183E-002  0.3000000E+03  0.7818608E-02  0.1093470E+00
         21   -1    0    0  501  502  0.00000000000E+00  0.00000000000E+00  0.11392242588E+01  0.11392242588E+01  0.00000000000E+00 0. -1.
         13   -1    0    0    0    0 -0.00000000000E+00 -0.00000000000E+00 -0.10000000000E+04  0.10000000000E+04  0.00000000000E+00 0.  1.
    9000005    2    1    2  501    0  0.76141390859E+01 -0.31326793105E+02 -0.64492142847E+03  0.64573465953E+03  0.32028961618E+01 0.  0.
         13    1    3    3    0    0  0.63743664564E+00 -0.85334461009E+01 -0.16641582908E+03  0.16663569304E+03  0.00000000000E+00 0.  1.
          1    1    3    3  501    0  0.69767024403E+01 -0.22793347004E+02 -0.47850559939E+03  0.47909896649E+03  0.00000000000E+00 0.  1.
         -3    1    1    2    0  502 -0.76141390859E+01  0.31326793105E+02 -0.35393934727E+03  0.35540456473E+03  0.00000000000E+00 0. -1.
<mgrwt>
<rscale>  1 0.30000000E+03</rscale>
<asrwt>0</asrwt>
<pdfrwt beam="1">  1       21 0.41426424E-02 0.30000000E+03</pdfrwt>
<pdfrwt beam="2">0</pdfrwt>
<totfact> 0.39635821E+04</totfact>
</mgrwt>
</event>
<event>
 6    1  0.8397183E-002  0.3000000E+03  0.7818608E-02  0.1093470E+00
         21   -1    0    0  501  502  0.00000000000E+00  0.00000000000E+00  0.20709667979E+01  0.20709667979E+01  0.00000000000E+00 0. -1.
         13   -1    0    0    0    0 -0.00000000000E+00 -0.00000000000E+00 -0.10000000000E+04  0.10000000000E+04  0.00000000000E+00 0.  1.
    9000005    2    1    2  501    0  0.34781620748E+02  0.17995498380E+02 -0.75334846143E+03  0.75437507424E+03  0.37748093125E+01 0.  0.
         13    1    3    3    0    0  0.14698810602E+02  0.90313070001E+01 -0.30492865606E+03  0.30541628120E+03  0.00000000000E+00 0.  1.
          3    1    3    3  501    0  0.20082810146E+02  0.89641913800E+01 -0.44841980538E+03  0.44895879303E+03  0.00000000000E+00 0.  1.
         -3    1    1    2    0  502 -0.34781620748E+02 -0.17995498380E+02 -0.24458057177E+03  0.24769589256E+03  0.00000000000E+00 0. -1.
<mgrwt>
<rscale>  1 0.30000000E+03</rscale>
<asrwt>0</asrwt>
<pdfrwt beam="1">  1       21 0.75308042E-02 0.30000000E+03</pdfrwt>
<pdfrwt beam="2">0</pdfrwt>
<totfact> 0.14202166E+04</totfact>
</mgrwt>
</event>
<event>
 6    1  0.8397183E-002  0.3000000E+03  0.7818608E-02  0.1093470E+00
         21   -1    0    0  501  502  0.00000000000E+00  0.00000000000E+00  0.12335637826E+01  0.12335637826E+01  0.00000000000E+00 0. -1.
         13   -1    0    0    0    0 -0.00000000000E+00 -0.00000000000E+00 -0.10000000000E+04  0.10000000000E+04  0.00000000000E+00 0.  1.
    9000005    2    1    2  501    0  0.33883208172E+02  0.63265744258E+01 -0.59063181603E+03  0.59164600839E+03  0.33105577405E+01 0.  0.
         13    1    3    3    0    0  0.18059113480E+02  0.26136375317E+01 -0.28705502634E+03  0.28763440481E+03  0.00000000000E+00 0.  1.
          3    1    3    3  501    0  0.15824094691E+02  0.37129368941E+01 -0.30357678969E+03  0.30401160358E+03  0.00000000000E+00 0.  1.
         -1    1    1    2    0  502 -0.33883208172E+02 -0.63265744258E+01 -0.40813462018E+03  0.40958755539E+03  0.00000000000E+00 0. -1.
<mgrwt>
<rscale>  1 0.30000000E+03</rscale>
<asrwt>0</asrwt>
<pdfrwt beam="1">  1       21 0.44856959E-02 0.30000000E+03</pdfrwt>
<pdfrwt beam="2">0</pdfrwt>
<totfact> 0.34644829E+04</totfact>
</mgrwt>
</event>
<event>
 6    1  0.8397183E-002  0.3000000E+03  0.7818608E-02  0.1093470E+00
         21   -1    0    0  501  502  0.00000000000E+00  0.00000000000E+00  0.21390922832E+01  0.21390922832E+01  0.00000000000E+00 0. -1.
         13   -1    0    0    0    0 -0.00000000000E+00 -0.00000000000E+00 -0.10000000000E+04  0.10000000000E+04  0.00000000000E+00 0.  1.
    9000005    2    1    2  501    0 -0.29097903231E+02 -0.32314954577E+02 -0.66553516206E+03  0.66698040526E+03  0.59046421620E+01 0.  0.
         13    1    3    3    0    0 -0.58672120694E+01 -0.85403642221E+01 -0.12816107364E+03  0.12857924714E+03  0.00000000000E+00 0.  1.
          3    1    3    3  501    0 -0.23230691161E+02 -0.23774590354E+02 -0.53737408842E+03  0.53840115812E+03  0.00000000000E+00 0.  1.
         -1    1    1    2    0  502  0.29097903231E+02  0.32314954577E+02 -0.33232574566E+03  0.33515868703E+03  0.00000000000E+00 0. -1.
<mgrwt>
<rscale>  1 0.30000000E+03</rscale>
<asrwt>0</asrwt>
<pdfrwt beam="1">  1       21 0.77785338E-02 0.30000000E+03</pdfrwt>
<pdfrwt beam="2">0</pdfrwt>
<totfact> 0.13419033E+04</totfact>
</mgrwt>
</event>
<event>
 6    1  0.8397183E-002  0.3000000E+03  0.7818608E-02  0.1093470E+00
         21   -1    0    0  501  502  0.00000000000E+00  0.00000000000E+00  0.10050660425E+01  0.10050660425E+01  0.00000000000E+00 0. -1.
         13   -1    0    0    0    0 -0.00000000000E+00 -0.00000000000E+00 -0.10000000000E+04  0.10000000000E+04  0.00000000000E+00 0.  1.
    9000005    2    1    2  501    0  0.72366913564E+01  0.30769842395E+02 -0.49322923598E+03  0.49425256811E+03  0.33717891794E+01 0.  0.
         13    1    3    3    0    0  0.60201409728E+01  0.28439893268E+02 -0.46149116279E+03  0.46240584226E+03  0.00000000000E+00 0.  1.
          1    1    3    3  501    0  0.12165503835E+01  0.23299491265E+01 -0.31738073184E+02  0.31846725848E+02  0.00000000000E+00 0.  1.
         -3    1    1    2    0  502 -0.72366913564E+01 -0.30769842395E+02 -0.50576569798E+03  0.50675249793E+03  0.00000000000E+00 0. -1.
<mgrwt>
<rscale>  1 0.30000000E+03</rscale>
<asrwt>0</asrwt>
<pdfrwt beam="1">  1       21 0.36547933E-02 0.30000000E+03</pdfrwt>
<pdfrwt beam="2">0</pdfrwt>
<totfact> 0.48934588E+04</totfact>
</mgrwt>
</event>
<event>
 6    1  0.1079328E-001  0.3000000E+03  0.7818608E-02  0.1093470E+00
         21   -1    0    0  501  502  0.00000000000E+00  0.00000000000E+00  0.16766181022E+01  0.16766181022E+01  0.00000000000E+00 0. -1.
         13   -1    0    0    0    0 -0.00000000000E+00 -0.00000000000E+00 -0.10000000000E+04  0.10000000000E+04  0.00000000000E+00 0.  1.
    9000005    2    1    2  501    0  0.33636742704E+01 -0.36266496117E+02 -0.28633860640E+03  0.28876084918E+03  0.81521442390E+01 0.  0.
         13    1    3    3    0    0  0.21791911696E+01 -0.29876571906E+02 -0.25514203749E+03  0.25689456538E+03  0.00000000000E+00 0.  1.
          1    1    3    3  501    0  0.11844831008E+01 -0.63899242107E+01 -0.31196568906E+02  0.31866283799E+02  0.00000000000E+00 0.  1.
         -3    1    1    2    0  502 -0.33636742704E+01  0.36266496117E+02 -0.71198477550E+03  0.71291576893E+03  0.00000000000E+00 0. -1.
<mgrwt>
<rscale>  1 0.30000000E+03</rscale>
<asrwt>0</asrwt>
<pdfrwt beam="1">  1       21 0.60968060E-02 0.30000000E+03</pdfrwt>
<pdfrwt beam="2">0</pdfrwt>
<totfact> 0.20497777E+04</totfact>
</mgrwt>
</event>
<event>
 6    1  0.8397183E-002  0.3000000E+03  0.7818608E-02  0.1093470E+00
         21   -1    0    0  501  502  0.00000000000E+00  0.00000000000E+00  0.21197751290E+01  0.21197751290E+01  0.00000000000E+00 0. -1.
         13   -1    0    0    0    0 -0.00000000000E+00 -0.00000000000E+00 -0.10000000000E+04  0.10000000000E+04  0.00000000000E+00 0.  1.
    9000005    2    1    2  501    0 -0.22251313298E+02  0.37852150144E+02 -0.64515277967E+03  0.64666998006E+03  0.56610763605E+01 0.  0.
         13    1    3    3    0    0 -0.37525595536E+01  0.11262660311E+02 -0.17872763007E+03  0.17912145313E+03  0.00000000000E+00 0.  1.
          1    1    3    3  501    0 -0.18498753745E+02  0.26589489833E+02 -0.46642514960E+03  0.46754852693E+03  0.00000000000E+00 0.  1.
         -1    1    1    2    0  502  0.22251313298E+02 -0.37852150144E+02 -0.35272744520E+03  0.35544979506E+03  0.00000000000E+00 0. -1.
<mgrwt>
<rscale>  1 0.30000000E+03</rscale>
<asrwt>0</asrwt>
<pdfrwt beam="1">  1       21 0.77082895E-02 0.30000000E+03</pdfrwt>
<pdfrwt beam="2">0</pdfrwt>
<totfact> 0.13634188E+04</totfact>
</mgrwt>
</event>
<event>
 6    1  0.8397183E-002  0.3000000E+03  0.7818608E-02  0.1093470E+00
         21   -1    0    0  501  502  0.00000000000E+00  0.00000000000E+00  0.13320093781E+01  0.13320093781E+01  0.00000000000E+00 0. -1.
         13   -1    0    0    0    0 -0.00000000000E+00 -0.00000000000E+00 -0.10000000000E+04  0.10000000000E+04  0.00000000000E+00 0.  1.
    9000005    2    1    2  501    0  0.23690858630E+02 -0.26755951447E+02 -0.59920481012E+03  0.60027344720E+03  0.21608380031E+01 0.  0.
         13    1    3    3    0    0  0.58668040352E+01 -0.52758902320E+01 -0.13196158876E+03  0.13219725911E+03  0.00000000000E+00 0.  1.
          1    1    3    3  501    0  0.17824054595E+02 -0.21480061215E+02 -0.46724322136E+03  0.46807618809E+03  0.00000000000E+00 0.  1.
         -1    1    1    2    0  502 -0.23690858630E+02  0.26755951447E+02 -0.39946318050E+03  0.40105856218E+03  0.00000000000E+00 0. -1.
<mgrwt>
<rscale>  1 0.30000000E+03</rscale>
<asrwt>0</asrwt>
<pdfrwt beam="1">  1       21 0.48436807E-02 0.30000000E+03</pdfrwt>
<pdfrwt beam="2">0</pdfrwt>
<totfact> 0.30406117E+04</totfact>
</mgrwt>
</event>
<event>
 6    1  0.8397183E-002  0.3000000E+03  0.7818608E-02  0.1093470E+00
         21   -1    0    0  501  502  0.00000000000E+00  0.00000000000E+00  0.11510356585E+01  0.11510356585E+01  0.00000000000E+00 0. -1.
         13   -1    0    0    0    0 -0.00000000000E+00 -0.00000000000E+00 -0.10000000000E+04  0.10000000000E+04  0.00000000000E+00 0.  1.
    9000005    2    1    2  501    0 -0.11546515705E+01 -0.33812049266E+02 -0.51553548504E+03  0.51665489824E+03  0.32953979142E+01 0.  0.
         13    1    3    3    0    0 -0.15959791291E+01 -0.30127578182E+02 -0.44464592167E+03  0.44566827773E+03  0.00000000000E+00 0.  1.
          3    1    3    3  501    0  0.44132755865E+00 -0.36844710846E+01 -0.70889563368E+02  0.70986620512E+02  0.00000000000E+00 0.  1.
         -3    1    1    2    0  502  0.11546515705E+01  0.33812049266E+02 -0.48331347931E+03  0.48449613742E+03  0.00000000000E+00 0. -1.
<mgrwt>
<rscale>  1 0.30000000E+03</rscale>
<asrwt>0</asrwt>
<pdfrwt beam="1">  1       21 0.41855930E-02 0.30000000E+03</pdfrwt>
<pdfrwt beam="2">0</pdfrwt>
<totfact> 0.38951793E+04</totfact>
</mgrwt>
</event>
<event>
 6    1  0.8397183E-002  0.3000000E+03  0.7818608E-02  0.1093470E+00
         21   -1    0    0  501  502  0.00000000000E+00  0.00000000000E+00  0.12524549715E+01  0.12524549715E+01  0.00000000000E+00 0. -1.
         13   -1    0    0    0    0 -0.00000000000E+00 -0.00000000000E+00 -0.10000000000E+04  0.10000000000E+04  0.00000000000E+00 0.  1.
    9000005    2    1    2  501    0  0.35156321712E+02 -0.28718452044E+01 -0.52091930981E+03  0.52212404126E+03  0.35174820884E+01 0.  0.
         13    1    3    3    0    0  0.15951891894E+02 -0.19598478800E+01 -0.21344929577E+03  0.21405351136E+03  0.00000000000E+00 0.  1.
          3    1    3    3  501    0  0.19204429817E+02 -0.91199732444E+00 -0.30747001404E+03  0.30807052990E+03  0.00000000000E+00 0.  1.
         -3    1    1    2    0  502 -0.35156321712E+02  0.28718452044E+01 -0.47782823522E+03  0.47912841371E+03  0.00000000000E+00 0. -1.
<mgrwt>
<rscale>  1 0.30000000E+03</rscale>
<asrwt>0</asrwt>
<pdfrwt beam="1">  1       21 0.45543913E-02 0.30000000E+03</pdfrwt>
<pdfrwt beam="2">0</pdfrwt>
<totfact> 0.33762455E+04</totfact>
</mgrwt>
</event>
<event>
 6    1  0.8397183E-002  0.3000000E+03  0.7818608E-02  0.1093470E+00
         21   -1    0    0  501  502  0.00000000000E+00  0.00000000000E+00  0.13968714061E+01  0.13968714061E+01  0.00000000000E+00 0. -1.
         13   -1    0    0    0    0 -0.00000000000E+00 -0.00000000000E+00 -0.10000000000E+04  0.10000000000E+04  0.00000000000E+00 0.  1.
    9000005    2    1    2  501    0  0.16750413347E+02  0.32681794826E+02 -0.41335955700E+03  0.41500219701E+03  0.34675791405E+01 0.  0.
         13    1    3    3    0    0  0.86041264694E+01  0.13067768786E+02 -0.17264444878E+03  0.17335196356E+03  0.00000000000E+00 0.  1.
          1    1    3    3  501    0  0.81462868780E+01  0.19614026040E+02 -0.24071510821E+03  0.24165023346E+03  0.00000000000E+00 0.  1.
         -1    1    1    2    0  502 -0.16750413347E+02 -0.32681794826E+02 -0.58524357160E+03  0.58639467439E+03  0.00000000000E+00 0. -1.
<mgrwt>
<rscale>  1 0.30000000E+03</rscale>
<asrwt>0</asrwt>
<pdfrwt beam="1">  1       21 0.50795431E-02 0.30000000E+03</pdfrwt>
<pdfrwt beam="2">0</pdfrwt>
<totfact> 0.28039660E+04</totfact>
</mgrwt>
</event>
<event>
 6    1  0.8397183E-002  0.3000000E+03  0.7818608E-02  0.1093470E+00
         21   -1    0    0  501  502  0.00000000000E+00  0.00000000000E+00  0.12675397831E+01  0.12675397831E+01  0.00000000000E+00 0. -1.
         13   -1    0    0    0    0 -0.00000000000E+00 -0.00000000000E+00 -0.10000000000E+04  0.10000000000E+04  0.00000000000E+00 0.  1.
    9000005    2    1    2  501    0  0.13055243090E+02  0.32957628406E+02 -0.47051768010E+03  0.47186457551E+03  0.35560788354E+01 0.  0.
         13    1    3    3    0    0 -0.22890798301E+00  0.47548017424E+00 -0.60120537951E+01  0.60351695167E+01  0.00000000000E+00 0.  1.
          1    1    3    3  501    0  0.13284151073E+02  0.32482148232E+02 -0.46450562630E+03  0.46582940600E+03  0.00000000000E+00 0.  1.
         -3    1    1    2    0  502 -0.13055243090E+02 -0.32957628406E+02 -0.52821478012E+03  0.52940296427E+03  0.00000000000E+00 0. -1.
<mgrwt>
<rscale>  1 0.30000000E+03</rscale>
<asrwt>0</asrwt>
<pdfrwt beam="1">  1       21 0.46092453E-02 0.30000000E+03</pdfrwt>
<pdfrwt beam="2">0</pdfrwt>
<totfact> 0.33082735E+04</totfact>
</mgrwt>
</event>
<event>
 6    1  0.8397183E-002  0.3000000E+03  0.7818608E-02  0.1093470E+00
         21   -1    0    0  501  502  0.00000000000E+00  0.00000000000E+00  0.17793858371E+01  0.17793858371E+01  0.00000000000E+00 0. -1.
         13   -1    0    0    0    0 -0.00000000000E+00 -0.00000000000E+00 -0.10000000000E+04  0.10000000000E+04  0.00000000000E+00 0.  1.
    9000005    2    1    2  501    0  0.40869932804E+02 -0.93828231546E+01 -0.54778078094E+03  0.54939190576E+03  0.30485026137E+01 0.  0.
         13    1    3    3    0    0  0.19905951616E+02 -0.30074758997E+01 -0.26222820256E+03  0.26299985178E+03  0.00000000000E+00 0.  1.
          3    1    3    3  501    0  0.20963981188E+02 -0.63753472549E+01 -0.28555257839E+03  0.28639205398E+03  0.00000000000E+00 0.  1.
         -3    1    1    2    0  502 -0.40869932804E+02  0.93828231546E+01 -0.45043983322E+03  0.45238748008E+03  0.00000000000E+00 0. -1.
<mgrwt>
<rscale>  1 0.30000000E+03</rscale>
<asrwt>0</asrwt>
<pdfrwt beam="1">  1       21 0.64705076E-02 0.30000000E+03</pdfrwt>
<pdfrwt beam="2">0</pdfrwt>
<totfact> 0.18495079E+04</totfact>
</mgrwt>
</event>
<event>
 6    1  0.8397183E-002  0.3000000E+03  0.7818608E-02  0.1093470E+00
         21   -1    0    0  501  502  0.00000000000E+00  0.00000000000E+00  0.27325804426E+01  0.27325804426E+01  0.00000000000E+00 0. -1.
         13   -1    0    0    0    0 -0.00000000000E+00 -0.00000000000E+00 -0.10000000000E+04  0.10000000000E+04  0.00000000000E+00 0.  1.
    9000005    2    1    2  501    0  0.51106930266E+02  0.23944162443E+00 -0.60221069332E+03  0.60438374764E+03  0.31653756973E+01 0.  0.
         13    1    3    3    0    0  0.13521956328E+02 -0.10271645091E+01 -0.17011927293E+03  0.17065891536E+03  0.00000000000E+00 0.  1.
          3    1    3    3  501    0  0.37584973938E+02  0.12666061336E+01 -0.43209142039E+03  0.43372483228E+03  0.00000000000E+00 0.  1.
         -1    1    1    2    0  502 -0.51106930266E+02 -0.23944162443E+00 -0.39505672623E+03  0.39834883280E+03  0.00000000000E+00 0. -1.
<mgrwt>
<rscale>  1 0.30000000E+03</rscale>
<asrwt>0</asrwt>
<pdfrwt beam="1">  1       21 0.99366771E-02 0.30000000E+03</pdfrwt>
<pdfrwt beam="2">0</pdfrwt>
<totfact> 0.87013881E+03</totfact>
</mgrwt>
</event>
<event>
 6    1  0.8397183E-002  0.3000000E+03  0.7818608E-02  0.1093470E+00
         21   -1    0    0  501  502  0.00000000000E+00  0.00000000000E+00  0.14351713680E+01  0.14351713680E+01  0.00000000000E+00 0. -1.
         13   -1    0    0    0    0 -0.00000000000E+00 -0.00000000000E+00 -0.10000000000E+04  0.10000000000E+04  0.00000000000E+00 0.  1.
    9000005    2    1    2  501    0  0.24281885107E+02  0.25986200464E+02 -0.67012684973E+03  0.67107718593E+03  0.31148330444E+01 0.  0.
         13    1    3    3    0    0  0.11682210138E+02  0.12332826591E+02 -0.34935080435E+03  0.34976357321E+03  0.00000000000E+00 0.  1.
          1    1    3    3  501    0  0.12599674969E+02  0.13653373873E+02 -0.32077604539E+03  0.32131361272E+03  0.00000000000E+00 0.  1.
         -1    1    1    2    0  502 -0.24281885107E+02 -0.25986200464E+02 -0.32843797890E+03  0.33035798544E+03  0.00000000000E+00 0. -1.
<mgrwt>
<rscale>  1 0.30000000E+03</rscale>
<asrwt>0</asrwt>
<pdfrwt beam="1">  1       21 0.52188160E-02 0.30000000E+03</pdfrwt>
<pdfrwt beam="2">0</pdfrwt>
<totfact> 0.26774148E+04</totfact>
</mgrwt>
</event>
<event>
 6    1  0.8397183E-002  0.3000000E+03  0.7818608E-02  0.1093470E+00
         21   -1    0    0  501  502  0.00000000000E+00  0.00000000000E+00  0.96235106388E+00  0.96235106388E+00  0.00000000000E+00 0. -1.
         13   -1    0    0    0    0 -0.00000000000E+00 -0.00000000000E+00 -0.10000000000E+04  0.10000000000E+04  0.00000000000E+00 0.  1.
    9000005    2    1    2  501    0 -0.26299595798E+02  0.14490524301E+02 -0.41679433107E+03  0.41794526278E+03  0.76866268816E+01 0.  0.
         13    1    3    3    0    0 -0.25190963038E+02  0.11284617493E+02 -0.37050822648E+03  0.37153502271E+03  0.00000000000E+00 0.  1.
          1    1    3    3  501    0 -0.11086327604E+01  0.32059068073E+01 -0.46286104598E+02  0.46410240076E+02  0.00000000000E+00 0.  1.
         -1    1    1    2    0  502  0.26299595798E+02 -0.14490524301E+02 -0.58224331786E+03  0.58301708828E+03  0.00000000000E+00 0. -1.
<mgrwt>
<rscale>  1 0.30000000E+03</rscale>
<asrwt>0</asrwt>
<pdfrwt beam="1">  1       21 0.34994658E-02 0.30000000E+03</pdfrwt>
<pdfrwt beam="2">0</pdfrwt>
<totfact> 0.52630257E+04</totfact>
</mgrwt>
</event>
<event>
 6    1  0.8397183E-002  0.3000000E+03  0.7818608E-02  0.1093470E+00
         21   -1    0    0  501  502  0.00000000000E+00  0.00000000000E+00  0.33799625938E+01  0.33799625938E+01  0.00000000000E+00 0. -1.
         13   -1    0    0    0    0 -0.00000000000E+00 -0.00000000000E+00 -0.10000000000E+04  0.10000000000E+04  0.00000000000E+00 0.  1.
    9000005    2    1    2  501    0  0.43079054120E+02  0.89838821171E+01 -0.82592603345E+03  0.82710472886E+03  0.34503229261E+01 0.  0.
         13    1    3    3    0    0  0.12502928357E+02  0.35058177901E+01 -0.21974087677E+03  0.22012420789E+03  0.00000000000E+00 0.  1.
          3    1    3    3  501    0  0.30576125763E+02  0.54780643270E+01 -0.60618515668E+03  0.60698052097E+03  0.00000000000E+00 0.  1.
         -1    1    1    2    0  502 -0.43079054120E+02 -0.89838821171E+01 -0.17069400396E+03  0.17627523373E+03  0.00000000000E+00 0. -1.
<mgrwt>
<rscale>  1 0.30000000E+03</rscale>
<asrwt>0</asrwt>
<pdfrwt beam="1">  1       21 0.12290799E-01 0.30000000E+03</pdfrwt>
<pdfrwt beam="2">0</pdfrwt>
<totfact> 0.59332202E+03</totfact>
</mgrwt>
</event>
<event>
 6    1  0.8397183E-002  0.3000000E+03  0.7818608E-02  0.1093470E+00
         21   -1    0    0  501  502  0.00000000000E+00  0.00000000000E+00  0.17189458056E+01  0.17189458056E+01  0.00000000000E+00 0. -1.
         13   -1    0    0    0    0 -0.00000000000E+00 -0.00000000000E+00 -0.10000000000E+04  0.10000000000E+04  0.00000000000E+00 0.  1.
    9000005    2    1    2  501    0  0.40937483331E+02 -0.48976944371E+01 -0.45531480762E+03  0.45718959869E+03  0.33000240931E+01 0.  0.
         13    1    3    3    0    0  0.23468897199E+02 -0.12251811995E+01 -0.25378055866E+03  0.25486636137E+03  0.00000000000E+00 0.  1.
          1    1    3    3  501    0  0.17468586132E+02 -0.36725132377E+01 -0.20153424896E+03  0.20232323732E+03  0.00000000000E+00 0.  1.
         -1    1    1    2    0  502 -0.40937483331E+02  0.48976944371E+01 -0.54296624657E+03  0.54452934712E+03  0.00000000000E+00 0. -1.
<mgrwt>
<rscale>  1 0.30000000E+03</rscale>
<asrwt>0</asrwt>
<pdfrwt beam="1">  1       21 0.62507252E-02 0.30000000E+03</pdfrwt>
<pdfrwt beam="2">0</pdfrwt>
<totfact> 0.19634031E+04</totfact>
</mgrwt>
</event>
<event>
 6    1  0.8397183E-002  0.3000000E+03  0.7818608E-02  0.1093470E+00
         21   -1    0    0  501  502  0.00000000000E+00  0.00000000000E+00  0.98181784354E+00  0.98181784354E+00  0.00000000000E+00 0. -1.
         13   -1    0    0    0    0 -0.00000000000E+00 -0.00000000000E+00 -0.10000000000E+04  0.10000000000E+04  0.00000000000E+00 0.  1.
    9000005    2    1    2  501    0 -0.30721567924E+02 -0.57287428961E+01 -0.48392395181E+03  0.48494044415E+03  0.28653102262E+01 0.  0.
         13    1    3    3    0    0 -0.25968758918E+02 -0.37758126736E+01 -0.40264007266E+03  0.40349431386E+03  0.00000000000E+00 0.  1.
          3    1    3    3  501    0 -0.47528090067E+01 -0.19529302225E+01 -0.81283879146E+02  0.81446130288E+02  0.00000000000E+00 0.  1.
         -1    1    1    2    0  502  0.30721567924E+02  0.57287428961E+01 -0.51509423035E+03  0.51604137370E+03  0.00000000000E+00 0. -1.
<mgrwt>
<rscale>  1 0.30000000E+03</rscale>
<asrwt>0</asrwt>
<pdfrwt beam="1">  1       21 0.35702542E-02 0.30000000E+03</pdfrwt>
<pdfrwt beam="2">0</pdfrwt>
<totfact> 0.50893439E+04</totfact>
</mgrwt>
</event>
<event>
 6    1  0.8397183E-002  0.3000000E+03  0.7818608E-02  0.1093470E+00
         21   -1    0    0  501  502  0.00000000000E+00  0.00000000000E+00  0.11346476903E+01  0.11346476903E+01  0.00000000000E+00 0. -1.
         13   -1    0    0    0    0 -0.00000000000E+00 -0.00000000000E+00 -0.10000000000E+04  0.10000000000E+04  0.00000000000E+00 0.  1.
    9000005    2    1    2  501    0 -0.29077362536E+02 -0.14526112215E+02 -0.37420627480E+03  0.37563047979E+03  0.33793931029E+01 0.  0.
         13    1    3    3    0    0 -0.17385443450E+02 -0.10452036536E+02 -0.22735450722E+03  0.22825768479E+03  0.00000000000E+00 0.  1.
          3    1    3    3  501    0 -0.11691919086E+02 -0.40740756786E+01 -0.14685176758E+03  0.14737279500E+03  0.00000000000E+00 0.  1.
         -1    1    1    2    0  502  0.29077362536E+02  0.14526112215E+02 -0.62465907751E+03  0.62550416790E+03  0.00000000000E+00 0. -1.
<mgrwt>
<rscale>  1 0.30000000E+03</rscale>
<asrwt>0</asrwt>
<pdfrwt beam="1">  1       21 0.41260003E-02 0.30000000E+03</pdfrwt>
<pdfrwt beam="2">0</pdfrwt>
<totfact> 0.39905902E+04</totfact>
</mgrwt>
</event>
<event>
 6    1  0.8397183E-002  0.3000000E+03  0.7818608E-02  0.1093470E+00
         21   -1    0    0  501  502  0.00000000000E+00  0.00000000000E+00  0.18753642716E+01  0.18753642716E+01  0.00000000000E+00 0. -1.
         13   -1    0    0    0    0 -0.00000000000E+00 -0.00000000000E+00 -0.10000000000E+04  0.10000000000E+04  0.00000000000E+00 0.  1.
    9000005    2    1    2  501    0 -0.27361478002E+02  0.33285132060E+02 -0.45644563968E+03  0.45848537057E+03  0.31084641485E+01 0.  0.
         13    1    3    3    0    0 -0.34042813232E+00  0.11641163112E+01 -0.11158006523E+02  0.11223732341E+02  0.00000000000E+00 0.  1.
          3    1    3    3  501    0 -0.27021049870E+02  0.32121015749E+02 -0.44528763315E+03  0.44726163823E+03  0.00000000000E+00 0.  1.
         -3    1    1    2    0  502  0.27361478002E+02 -0.33285132060E+02 -0.54167899605E+03  0.54338999370E+03  0.00000000000E+00 0. -1.
<mgrwt>
<rscale>  1 0.30000000E+03</rscale>
<asrwt>0</asrwt>
<pdfrwt beam="1">  1       21 0.68195208E-02 0.30000000E+03</pdfrwt>
<pdfrwt beam="2">0</pdfrwt>
<totfact> 0.16884928E+04</totfact>
</mgrwt>
</event>
<event>
 6    1  0.8397183E-002  0.3000000E+03  0.7818608E-02  0.1093470E+00
         21   -1    0    0  501  502  0.00000000000E+00  0.00000000000E+00  0.99731207964E+00  0.99731207964E+00  0.00000000000E+00 0. -1.
         13   -1    0    0    0    0 -0.00000000000E+00 -0.00000000000E+00 -0.10000000000E+04  0.10000000000E+04  0.00000000000E+00 0.  1.
    9000005    2    1    2  501    0 -0.12805059573E+02 -0.27233072303E+02 -0.35382172585E+03  0.35511490514E+03  0.33425126003E+01 0.  0.
         13    1    3    3    0    0 -0.55736803002E-01 -0.13580527618E+01 -0.21899097775E+02  0.21941237368E+02  0.00000000000E+00 0.  1.
          1    1    3    3  501    0 -0.12749322770E+02 -0.25875019541E+02 -0.33192262808E+03  0.33317366777E+03  0.00000000000E+00 0.  1.
         -3    1    1    2    0  502  0.12805059573E+02  0.27233072303E+02 -0.64518096207E+03  0.64588240694E+03  0.00000000000E+00 0. -1.
<mgrwt>
<rscale>  1 0.30000000E+03</rscale>
<asrwt>0</asrwt>
<pdfrwt beam="1">  1       21 0.36265970E-02 0.30000000E+03</pdfrwt>
<pdfrwt beam="2">0</pdfrwt>
<totfact> 0.49574506E+04</totfact>
</mgrwt>
</event>
<event>
 6    1  0.8397183E-002  0.3000000E+03  0.7818608E-02  0.1093470E+00
         21   -1    0    0  501  502  0.00000000000E+00  0.00000000000E+00  0.40625574409E+01  0.40625574409E+01  0.00000000000E+00 0. -1.
         13   -1    0    0    0    0 -0.00000000000E+00 -0.00000000000E+00 -0.10000000000E+04  0.10000000000E+04  0.00000000000E+00 0.  1.
    9000005    2    1    2  501    0 -0.24575605157E+02 -0.22752851499E+02 -0.73642078784E+02  0.81159317300E+02  0.64827769410E+01 0.  0.
         13    1    3    3    0    0 -0.21329598539E+01 -0.34964017469E+01 -0.14028307161E+02  0.14613957188E+02  0.00000000000E+00 0.  1.
          1    1    3    3  501    0 -0.22442645303E+02 -0.19256449752E+02 -0.59613771623E+02  0.66545360112E+02  0.00000000000E+00 0.  1.
         -3    1    1    2    0  502  0.24575605157E+02  0.22752851499E+02 -0.92229536378E+03  0.92290324014E+03  0.00000000000E+00 0. -1.
<mgrwt>
<rscale>  1 0.30000000E+03</rscale>
<asrwt>0</asrwt>
<pdfrwt beam="1">  1       21 0.14772967E-01 0.30000000E+03</pdfrwt>
<pdfrwt beam="2">0</pdfrwt>
<totfact> 0.42358303E+03</totfact>
</mgrwt>
</event>
<event>
 6    1  0.8397183E-002  0.3000000E+03  0.7818608E-02  0.1093470E+00
         21   -1    0    0  501  502  0.00000000000E+00  0.00000000000E+00  0.10410730567E+01  0.10410730567E+01  0.00000000000E+00 0. -1.
         13   -1    0    0    0    0 -0.00000000000E+00 -0.00000000000E+00 -0.10000000000E+04  0.10000000000E+04  0.00000000000E+00 0.  1.
    9000005    2    1    2  501    0 -0.29333843627E+02  0.12466036850E+02 -0.55045670649E+03  0.55140775778E+03  0.56615511573E+01 0.  0.
         13    1    3    3    0    0 -0.24216289498E+02  0.92565797421E+01 -0.47651309831E+03  0.47721781799E+03  0.00000000000E+00 0.  1.
          1    1    3    3  501    0 -0.51175541295E+01  0.32094571078E+01 -0.73943608185E+02  0.74189939793E+02  0.00000000000E+00 0.  1.
         -1    1    1    2    0  502  0.29333843627E+02 -0.12466036850E+02 -0.44850222045E+03  0.44963331527E+03  0.00000000000E+00 0. -1.
<mgrwt>
<rscale>  1 0.30000000E+03</rscale>
<asrwt>0</asrwt>
<pdfrwt beam="1">  1       21 0.37857282E-02 0.30000000E+03</pdfrwt>
<pdfrwt beam="2">0</pdfrwt>
<totfact> 0.46126755E+04</totfact>
</mgrwt>
</event>
<event>
 6    1  0.8397183E-002  0.3000000E+03  0.7818608E-02  0.1093470E+00
         21   -1    0    0  501  502  0.00000000000E+00  0.00000000000E+00  0.24335820016E+01  0.24335820016E+01  0.00000000000E+00 0. -1.
         13   -1    0    0    0    0 -0.00000000000E+00 -0.00000000000E+00 -0.10000000000E+04  0.10000000000E+04  0.00000000000E+00 0.  1.
    9000005    2    1    2  501    0  0.41782120820E+02 -0.25770886906E+02 -0.51471330377E+03  0.51709142007E+03  0.66232466499E+01 0.  0.
         13    1    3    3    0    0  0.80953043048E+01 -0.21255085727E+01 -0.90649564905E+02  0.91035132537E+02  0.00000000000E+00 0.  1.
          1    1    3    3  501    0  0.33686816515E+02 -0.23645378333E+02 -0.42406373887E+03  0.42605628753E+03  0.00000000000E+00 0.  1.
         -1    1    1    2    0  502 -0.41782120820E+02  0.25770886906E+02 -0.48285311423E+03  0.48534216193E+03  0.00000000000E+00 0. -1.
<mgrwt>
<rscale>  1 0.30000000E+03</rscale>
<asrwt>0</asrwt>
<pdfrwt beam="1">  1       21 0.88494078E-02 0.30000000E+03</pdfrwt>
<pdfrwt beam="2">0</pdfrwt>
<totfact> 0.10692786E+04</totfact>
</mgrwt>
</event>
<event>
 6    1  0.8397183E-002  0.3000000E+03  0.7818608E-02  0.1093470E+00
         21   -1    0    0  501  502  0.00000000000E+00  0.00000000000E+00  0.11105409614E+01  0.11105409614E+01  0.00000000000E+00 0. -1.
         13   -1    0    0    0    0 -0.00000000000E+00 -0.00000000000E+00 -0.10000000000E+04  0.10000000000E+04  0.00000000000E+00 0.  1.
    9000005    2    1    2  501    0  0.19960416460E+02 -0.24538886667E+02 -0.64844600896E+03  0.64924240247E+03  0.57354547845E+01 0.  0.
         13    1    3    3    0    0  0.13505437215E+02 -0.13810923096E+02 -0.43610719896E+03  0.43653479520E+03  0.00000000000E+00 0.  1.
          3    1    3    3  501    0  0.64549792454E+01 -0.10727963571E+02 -0.21233881000E+03  0.21270760727E+03  0.00000000000E+00 0.  1.
         -1    1    1    2    0  502 -0.19960416460E+02  0.24538886667E+02 -0.35044345008E+03  0.35186813850E+03  0.00000000000E+00 0. -1.
<mgrwt>
<rscale>  1 0.30000000E+03</rscale>
<asrwt>0</asrwt>
<pdfrwt beam="1">  1       21 0.40383393E-02 0.30000000E+03</pdfrwt>
<pdfrwt beam="2">0</pdfrwt>
<totfact> 0.41377098E+04</totfact>
</mgrwt>
</event>
<event>
 6    1  0.8397183E-002  0.3000000E+03  0.7818608E-02  0.1093470E+00
         21   -1    0    0  501  502  0.00000000000E+00  0.00000000000E+00  0.40616975519E+01  0.40616975519E+01  0.00000000000E+00 0. -1.
         13   -1    0    0    0    0 -0.00000000000E+00 -0.00000000000E+00 -0.10000000000E+04  0.10000000000E+04  0.00000000000E+00 0.  1.
    9000005    2    1    2  501    0  0.63384149470E+02 -0.27475295155E+00 -0.54641056735E+03  0.55008723735E+03  0.37195013394E+01 0.  0.
         13    1    3    3    0    0  0.83281095919E+01 -0.26354434535E+00 -0.83222723965E+02  0.83638798707E+02  0.00000000000E+00 0.  1.
          1    1    3    3  501    0  0.55056039878E+02 -0.11208606200E-01 -0.46318784338E+03  0.46644843864E+03  0.00000000000E+00 0.  1.
         -3    1    1    2    0  502 -0.63384149470E+02  0.27475295155E+00 -0.44952773510E+03  0.45397446020E+03  0.00000000000E+00 0. -1.
<mgrwt>
<rscale>  1 0.30000000E+03</rscale>
<asrwt>0</asrwt>
<pdfrwt beam="1">  1       21 0.14769840E-01 0.30000000E+03</pdfrwt>
<pdfrwt beam="2">0</pdfrwt>
<totfact> 0.42374873E+03</totfact>
</mgrwt>
</event>
<event>
 6    1  0.8397183E-002  0.3000000E+03  0.7818608E-02  0.1093470E+00
         21   -1    0    0  501  502  0.00000000000E+00  0.00000000000E+00  0.11187854496E+01  0.11187854496E+01  0.00000000000E+00 0. -1.
         13   -1    0    0    0    0 -0.00000000000E+00 -0.00000000000E+00 -0.10000000000E+04  0.10000000000E+04  0.00000000000E+00 0.  1.
    9000005    2    1    2  501    0  0.87449248277E+01 -0.29946014864E+02 -0.32874089812E+03  0.33025271743E+03  0.48001828902E+01 0.  0.
         13    1    3    3    0    0  0.26073038457E+01 -0.40654654894E+01 -0.40416348541E+02  0.40703897508E+02  0.00000000000E+00 0.  1.
          3    1    3    3  501    0  0.61376209819E+01 -0.25880549374E+02 -0.28832454958E+03  0.28954881992E+03  0.00000000000E+00 0.  1.
         -3    1    1    2    0  502 -0.87449248277E+01  0.29946014864E+02 -0.67014031643E+03  0.67086606802E+03  0.00000000000E+00 0. -1.
<mgrwt>
<rscale>  1 0.30000000E+03</rscale>
<asrwt>0</asrwt>
<pdfrwt beam="1">  1       21 0.40683193E-02 0.30000000E+03</pdfrwt>
<pdfrwt beam="2">0</pdfrwt>
<totfact> 0.40864559E+04</totfact>
</mgrwt>
</event>
<event>
 6    1  0.8397183E-002  0.3000000E+03  0.7818608E-02  0.1093470E+00
         21   -1    0    0  501  502  0.00000000000E+00  0.00000000000E+00  0.12777781507E+01  0.12777781507E+01  0.00000000000E+00 0. -1.
         13   -1    0    0    0    0 -0.00000000000E+00 -0.00000000000E+00 -0.10000000000E+04  0.10000000000E+04  0.00000000000E+00 0.  1.
    9000005    2    1    2  501    0 -0.46514390073E+01  0.34041085736E+02 -0.63455378052E+03  0.63549220563E+03  0.33781124172E+01 0.  0.
         13    1    3    3    0    0 -0.24546602483E+01  0.89685907064E+01 -0.18774224015E+03  0.18797236423E+03  0.00000000000E+00 0.  1.
          3    1    3    3  501    0 -0.21967787590E+01  0.25072495029E+02 -0.44681154037E+03  0.44751984140E+03  0.00000000000E+00 0.  1.
         -3    1    1    2    0  502  0.46514390073E+01 -0.34041085736E+02 -0.36416844133E+03  0.36578557252E+03  0.00000000000E+00 0. -1.
<mgrwt>
<rscale>  1 0.30000000E+03</rscale>
<asrwt>0</asrwt>
<pdfrwt beam="1">  1       21 0.46464758E-02 0.30000000E+03</pdfrwt>
<pdfrwt beam="2">0</pdfrwt>
<totfact> 0.32633546E+04</totfact>
</mgrwt>
</event>
<event>
 6    1  0.8397183E-002  0.3000000E+03  0.7818608E-02  0.1093470E+00
         21   -1    0    0  501  502  0.00000000000E+00  0.00000000000E+00  0.14426800976E+01  0.14426800976E+01  0.00000000000E+00 0. -1.
         13   -1    0    0    0    0 -0.00000000000E+00 -0.00000000000E+00 -0.10000000000E+04  0.10000000000E+04  0.00000000000E+00 0.  1.
    9000005    2    1    2  501    0  0.17396358514E+02  0.25312791057E+02 -0.20660404047E+03  0.20889402703E+03  0.28485624938E+01 0.  0.
         13    1    3    3    0    0  0.17286647337E+01  0.13596414686E+01 -0.17038448334E+02  0.17179802918E+02  0.00000000000E+00 0.  1.
          1    1    3    3  501    0  0.15667693781E+02  0.23953149588E+02 -0.18956559214E+03  0.19171422411E+03  0.00000000000E+00 0.  1.
         -1    1    1    2    0  502 -0.17396358514E+02 -0.25312791057E+02 -0.79195327943E+03  0.79254865307E+03  0.00000000000E+00 0. -1.
<mgrwt>
<rscale>  1 0.30000000E+03</rscale>
<asrwt>0</asrwt>
<pdfrwt beam="1">  1       21 0.52461205E-02 0.30000000E+03</pdfrwt>
<pdfrwt beam="2">0</pdfrwt>
<totfact> 0.26536441E+04</totfact>
</mgrwt>
</event>
<event>
 6    1  0.8397183E-002  0.3000000E+03  0.7818608E-02  0.1093470E+00
         21   -1    0    0  501  502  0.00000000000E+00  0.00000000000E+00  0.12799168244E+01  0.12799168244E+01  0.00000000000E+00 0. -1.
         13   -1    0    0    0    0 -0.00000000000E+00 -0.00000000000E+00 -0.10000000000E+04  0.10000000000E+04  0.00000000000E+00 0.  1.
    9000005    2    1    2  501    0  0.15670216182E+01  0.33296922267E+02 -0.67933822115E+03  0.68016324896E+03  0.32381988205E+01 0.  0.
         13    1    3    3    0    0  0.14116149292E+01  0.76336442664E+01 -0.14071912669E+03  0.14093309688E+03  0.00000000000E+00 0.  1.
          1    1    3    3  501    0  0.15540668902E+00  0.25663278001E+02 -0.53861909446E+03  0.53923015208E+03  0.00000000000E+00 0.  1.
         -1    1    1    2    0  502 -0.15670216182E+01 -0.33296922267E+02 -0.31938186203E+03  0.32111666787E+03  0.00000000000E+00 0. -1.
<mgrwt>
<rscale>  1 0.30000000E+03</rscale>
<asrwt>0</asrwt>
<pdfrwt beam="1">  1       21 0.46542528E-02 0.30000000E+03</pdfrwt>
<pdfrwt beam="2">0</pdfrwt>
<totfact> 0.32540924E+04</totfact>
</mgrwt>
</event>
<event>
 6    1  0.8397183E-002  0.3000000E+03  0.7818608E-02  0.1093470E+00
         21   -1    0    0  501  502  0.00000000000E+00  0.00000000000E+00  0.12240092062E+01  0.12240092062E+01  0.00000000000E+00 0. -1.
         13   -1    0    0    0    0 -0.00000000000E+00 -0.00000000000E+00 -0.10000000000E+04  0.10000000000E+04  0.00000000000E+00 0.  1.
    9000005    2    1    2  501    0 -0.21621367938E+00 -0.32241058291E+02 -0.30916424745E+03  0.31085896870E+03  0.33517063142E+01 0.  0.
         13    1    3    3    0    0 -0.14003031253E+01 -0.96281907545E+01 -0.85805112683E+02  0.86354966670E+02  0.00000000000E+00 0.  1.
          3    1    3    3  501    0  0.11840894459E+01 -0.22612867536E+02 -0.22335913476E+03  0.22450400203E+03  0.00000000000E+00 0.  1.
         -3    1    1    2    0  502  0.21621367938E+00  0.32241058291E+02 -0.68961174335E+03  0.69036504050E+03  0.00000000000E+00 0. -1.
<mgrwt>
<rscale>  1 0.30000000E+03</rscale>
<asrwt>0</asrwt>
<pdfrwt beam="1">  1       21 0.44509520E-02 0.30000000E+03</pdfrwt>
<pdfrwt beam="2">0</pdfrwt>
<totfact> 0.35104721E+04</totfact>
</mgrwt>
</event>
<event>
 6    1  0.8397183E-002  0.3000000E+03  0.7818608E-02  0.1093470E+00
         21   -1    0    0  501  502  0.00000000000E+00  0.00000000000E+00  0.99793471349E+00  0.99793471349E+00  0.00000000000E+00 0. -1.
         13   -1    0    0    0    0 -0.00000000000E+00 -0.00000000000E+00 -0.10000000000E+04  0.10000000000E+04  0.00000000000E+00 0.  1.
    9000005    2    1    2  501    0  0.31202075659E+02 -0.23517745215E+01 -0.44275708162E+03  0.44387354804E+03  0.32852638810E+01 0.  0.
         13    1    3    3    0    0  0.19978845467E+02 -0.46698856405E+00 -0.26490393153E+03  0.26565666806E+03  0.00000000000E+00 0.  1.
          1    1    3    3  501    0  0.11223230192E+02 -0.18847859575E+01 -0.17785315009E+03  0.17821687999E+03  0.00000000000E+00 0.  1.
         -3    1    1    2    0  502 -0.31202075659E+02  0.23517745215E+01 -0.55624498367E+03  0.55712438667E+03  0.00000000000E+00 0. -1.
<mgrwt>
<rscale>  1 0.30000000E+03</rscale>
<asrwt>0</asrwt>
<pdfrwt beam="1">  1       21 0.36288612E-02 0.30000000E+03</pdfrwt>
<pdfrwt beam="2">0</pdfrwt>
<totfact> 0.49522636E+04</totfact>
</mgrwt>
</event>
<event>
 6    1  0.8397183E-002  0.3000000E+03  0.7818608E-02  0.1093470E+00
         21   -1    0    0  501  502  0.00000000000E+00  0.00000000000E+00  0.73274341846E+01  0.73274341846E+01  0.00000000000E+00 0. -1.
         13   -1    0    0    0    0 -0.00000000000E+00 -0.00000000000E+00 -0.10000000000E+04  0.10000000000E+04  0.00000000000E+00 0.  1.
    9000005    2    1    2  501    0  0.43264559506E+01  0.78322308294E+02 -0.69767872650E+03  0.70208250396E+03  0.33368772492E+01 0.  0.
         13    1    3    3    0    0 -0.34603790322E+00  0.12689639415E+01 -0.10994254278E+02  0.11072652747E+02  0.00000000000E+00 0.  1.
          1    1    3    3  501    0  0.46724938538E+01  0.77053344352E+02 -0.68668447222E+03  0.69100985121E+03  0.00000000000E+00 0.  1.
         -1    1    1    2    0  502 -0.43264559506E+01 -0.78322308294E+02 -0.29499383931E+03  0.30524493023E+03  0.00000000000E+00 0. -1.
<mgrwt>
<rscale>  1 0.30000000E+03</rscale>
<asrwt>0</asrwt>
<pdfrwt beam="1">  1       21 0.26645271E-01 0.30000000E+03</pdfrwt>
<pdfrwt beam="2">0</pdfrwt>
<totfact> 0.13759286E+03</totfact>
</mgrwt>
</event>
<event>
 6    1  0.8397183E-002  0.3000000E+03  0.7818608E-02  0.1093470E+00
         21   -1    0    0  501  502  0.00000000000E+00  0.00000000000E+00  0.13095857369E+01  0.13095857369E+01  0.00000000000E+00 0. -1.
         13   -1    0    0    0    0 -0.00000000000E+00 -0.00000000000E+00 -0.10000000000E+04  0.10000000000E+04  0.00000000000E+00 0.  1.
    9000005    2    1    2  501    0  0.18312675214E+02  0.31130662383E+02 -0.50606773890E+03  0.50736467737E+03  0.31444044718E+01 0.  0.
         13    1    3    3    0    0  0.97015528009E+01  0.18133590665E+02 -0.30608252447E+03  0.30677265038E+03  0.00000000000E+00 0.  1.
          1    1    3    3  501    0  0.86111224132E+01  0.12997071717E+02 -0.19998521443E+03  0.20059202699E+03  0.00000000000E+00 0.  1.
         -1    1    1    2    0  502 -0.18312675214E+02 -0.31130662383E+02 -0.49262267537E+03  0.49394490837E+03  0.00000000000E+00 0. -1.
<mgrwt>
<rscale>  1 0.30000000E+03</rscale>
<asrwt>0</asrwt>
<pdfrwt beam="1">  1       21 0.47621400E-02 0.30000000E+03</pdfrwt>
<pdfrwt beam="2">0</pdfrwt>
<totfact> 0.31297367E+04</totfact>
</mgrwt>
</event>
<event>
 6    1  0.8397183E-002  0.3000000E+03  0.7818608E-02  0.1093470E+00
         21   -1    0    0  501  502  0.00000000000E+00  0.00000000000E+00  0.27888253213E+01  0.27888253213E+01  0.00000000000E+00 0. -1.
         13   -1    0    0    0    0 -0.00000000000E+00 -0.00000000000E+00 -0.10000000000E+04  0.10000000000E+04  0.00000000000E+00 0.  1.
    9000005    2    1    2  501    0 -0.35946973589E+02  0.35357662060E+02 -0.35255912758E+03  0.35616790778E+03  0.39103598504E+01 0.  0.
         13    1    3    3    0    0 -0.32680228814E+02  0.33563864767E+02 -0.32697318466E+03  0.33031196445E+03  0.00000000000E+00 0.  1.
          1    1    3    3  501    0 -0.32667447744E+01  0.17937972930E+01 -0.25585942923E+02  0.25855943328E+02  0.00000000000E+00 0.  1.
         -3    1    1    2    0  502  0.35946973589E+02 -0.35357662060E+02 -0.64465204710E+03  0.64662091754E+03  0.00000000000E+00 0. -1.
<mgrwt>
<rscale>  1 0.30000000E+03</rscale>
<asrwt>0</asrwt>
<pdfrwt beam="1">  1       21 0.10141204E-01 0.30000000E+03</pdfrwt>
<pdfrwt beam="2">0</pdfrwt>
<totfact> 0.83902379E+03</totfact>
</mgrwt>
</event>
<event>
 6    1  0.8397183E-002  0.3000000E+03  0.7818608E-02  0.1093470E+00
         21   -1    0    0  501  502  0.00000000000E+00  0.00000000000E+00  0.29083879841E+01  0.29083879841E+01  0.00000000000E+00 0. -1.
         13   -1    0    0    0    0 -0.00000000000E+00 -0.00000000000E+00 -0.10000000000E+04  0.10000000000E+04  0.00000000000E+00 0.  1.
    9000005    2    1    2  501    0  0.26724926984E+02 -0.40277239597E+02 -0.27938924703E+03  0.28358011629E+03  0.47805070076E+01 0.  0.
         13    1    3    3    0    0  0.20628244195E+02 -0.29618449227E+02 -0.19670876313E+03  0.19999278609E+03  0.00000000000E+00 0.  1.
          1    1    3    3  501    0  0.60966827887E+01 -0.10658790370E+02 -0.82680483893E+02  0.83587330200E+02  0.00000000000E+00 0.  1.
         -3    1    1    2    0  502 -0.26724926984E+02  0.40277239597E+02 -0.71770236499E+03  0.71932827170E+03  0.00000000000E+00 0. -1.
<mgrwt>
<rscale>  1 0.30000000E+03</rscale>
<asrwt>0</asrwt>
<pdfrwt beam="1">  1       21 0.10575979E-01 0.30000000E+03</pdfrwt>
<pdfrwt beam="2">0</pdfrwt>
<totfact> 0.77826040E+03</totfact>
</mgrwt>
</event>
<event>
 6    1  0.8397183E-002  0.3000000E+03  0.7818608E-02  0.1093470E+00
         21   -1    0    0  501  502  0.00000000000E+00  0.00000000000E+00  0.16009193247E+01  0.16009193247E+01  0.00000000000E+00 0. -1.
         13   -1    0    0    0    0 -0.00000000000E+00 -0.00000000000E+00 -0.10000000000E+04  0.10000000000E+04  0.00000000000E+00 0.  1.
    9000005    2    1    2  501    0 -0.30980969007E+02 -0.50074888616E+01 -0.19008164488E+03  0.19267448732E+03  0.27442591693E+01 0.  0.
         13    1    3    3    0    0 -0.22848746922E+02 -0.36514059327E+01 -0.13241377769E+03  0.13442026084E+03  0.00000000000E+00 0.  1.
          1    1    3    3  501    0 -0.81322220852E+01 -0.13560829289E+01 -0.57667867184E+02  0.58254226478E+02  0.00000000000E+00 0.  1.
         -1    1    1    2    0  502  0.30980969007E+02  0.50074888616E+01 -0.80831743580E+03  0.80892643201E+03  0.00000000000E+00 0. -1.
<mgrwt>
<rscale>  1 0.30000000E+03</rscale>
<asrwt>0</asrwt>
<pdfrwt beam="1">  1       21 0.58215371E-02 0.30000000E+03</pdfrwt>
<pdfrwt beam="2">0</pdfrwt>
<totfact> 0.22197409E+04</totfact>
</mgrwt>
</event>
<event>
 6    1  0.8397183E-002  0.3000000E+03  0.7818608E-02  0.1093470E+00
         21   -1    0    0  501  502  0.00000000000E+00  0.00000000000E+00  0.10706088831E+01  0.10706088831E+01  0.00000000000E+00 0. -1.
         13   -1    0    0    0    0 -0.00000000000E+00 -0.00000000000E+00 -0.10000000000E+04  0.10000000000E+04  0.00000000000E+00 0.  1.
    9000005    2    1    2  501    0  0.28852229946E+01  0.30729607120E+02 -0.65772956773E+03  0.65847762479E+03  0.56537445107E+01 0.  0.
         13    1    3    3    0    0  0.28376071978E+01  0.94122506865E+01 -0.17231493808E+03  0.17259513424E+03  0.00000000000E+00 0.  1.
          3    1    3    3  501    0  0.47615796851E-01  0.21317356433E+02 -0.48541462964E+03  0.48588249055E+03  0.00000000000E+00 0.  1.
         -1    1    1    2    0  502 -0.28852229946E+01 -0.30729607120E+02 -0.34119982339E+03  0.34259298409E+03  0.00000000000E+00 0. -1.
<mgrwt>
<rscale>  1 0.30000000E+03</rscale>
<asrwt>0</asrwt>
<pdfrwt beam="1">  1       21 0.38931314E-02 0.30000000E+03</pdfrwt>
<pdfrwt beam="2">0</pdfrwt>
<totfact> 0.44007949E+04</totfact>
</mgrwt>
</event>
<event>
 6    1  0.8397183E-002  0.3000000E+03  0.7818608E-02  0.1093470E+00
         21   -1    0    0  501  502  0.00000000000E+00  0.00000000000E+00  0.14754904702E+01  0.14754904702E+01  0.00000000000E+00 0. -1.
         13   -1    0    0    0    0 -0.00000000000E+00 -0.00000000000E+00 -0.10000000000E+04  0.10000000000E+04  0.00000000000E+00 0.  1.
    9000005    2    1    2  501    0 -0.38670278392E+01 -0.37204041719E+02 -0.39062620441E+03  0.39242750879E+03  0.33798604578E+01 0.  0.
         13    1    3    3    0    0 -0.43439684967E+01 -0.27935898913E+02 -0.29678051087E+03  0.29812406167E+03  0.00000000000E+00 0.  1.
          3    1    3    3  501    0  0.47694065750E+00 -0.92681428062E+01 -0.93845693537E+02  0.94303447121E+02  0.00000000000E+00 0.  1.
         -3    1    1    2    0  502  0.38670278392E+01  0.37204041719E+02 -0.60789830512E+03  0.60904798168E+03  0.00000000000E+00 0. -1.
<mgrwt>
<rscale>  1 0.30000000E+03</rscale>
<asrwt>0</asrwt>
<pdfrwt beam="1">  1       21 0.53654312E-02 0.30000000E+03</pdfrwt>
<pdfrwt beam="2">0</pdfrwt>
<totfact> 0.25535117E+04</totfact>
</mgrwt>
</event>
<event>
 6    1  0.8397183E-002  0.3000000E+03  0.7818608E-02  0.1093470E+00
         21   -1    0    0  501  502  0.00000000000E+00  0.00000000000E+00  0.18557549194E+01  0.18557549194E+01  0.00000000000E+00 0. -1.
         13   -1    0    0    0    0 -0.00000000000E+00 -0.00000000000E+00 -0.10000000000E+04  0.10000000000E+04  0.00000000000E+00 0.  1.
    9000005    2    1    2  501    0 -0.34193199519E+01 -0.40775180731E+02 -0.65406892008E+03  0.65535591886E+03  0.33047030034E+01 0.  0.
         13    1    3    3    0    0 -0.79588018652E-01 -0.15481432336E+01 -0.16497222644E+02  0.16569895494E+02  0.00000000000E+00 0.  1.
          3    1    3    3  501    0 -0.33397319332E+01 -0.39227037498E+02 -0.63757169743E+03  0.63878602336E+03  0.00000000000E+00 0.  1.
         -1    1    1    2    0  502  0.34193199519E+01  0.40775180731E+02 -0.34407532501E+03  0.34649983606E+03  0.00000000000E+00 0. -1.
<mgrwt>
<rscale>  1 0.30000000E+03</rscale>
<asrwt>0</asrwt>
<pdfrwt beam="1">  1       21 0.67482139E-02 0.30000000E+03</pdfrwt>
<pdfrwt beam="2">0</pdfrwt>
<totfact> 0.17195902E+04</totfact>
</mgrwt>
</event>
<event>
 6    1  0.8397183E-002  0.3000000E+03  0.7818608E-02  0.1093470E+00
         21   -1    0    0  501  502  0.00000000000E+00  0.00000000000E+00  0.10414695981E+01  0.10414695981E+01  0.00000000000E+00 0. -1.
         13   -1    0    0    0    0 -0.00000000000E+00 -0.00000000000E+00 -0.10000000000E+04  0.10000000000E+04  0.00000000000E+00 0.  1.
    9000005    2    1    2  501    0  0.31263667263E+02 -0.28457398614E+01 -0.39002902009E+03  0.39130327688E+03  0.31784998519E+01 0.  0.
         13    1    3    3    0    0  0.23757804788E+02 -0.94841610681E+00 -0.30191216036E+03  0.30284696689E+03  0.00000000000E+00 0.  1.
          1    1    3    3  501    0  0.75058624756E+01 -0.18973237546E+01 -0.88116859733E+02  0.88456309996E+02  0.00000000000E+00 0.  1.
         -3    1    1    2    0  502 -0.31263667263E+02  0.28457398614E+01 -0.60892951031E+03  0.60973819271E+03  0.00000000000E+00 0. -1.
<mgrwt>
<rscale>  1 0.30000000E+03</rscale>
<asrwt>0</asrwt>
<pdfrwt beam="1">  1       21 0.37871702E-02 0.30000000E+03</pdfrwt>
<pdfrwt beam="2">0</pdfrwt>
<totfact> 0.46097255E+04</totfact>
</mgrwt>
</event>
<event>
 6    1  0.8397183E-002  0.3000000E+03  0.7818608E-02  0.1093470E+00
         21   -1    0    0  501  502  0.00000000000E+00  0.00000000000E+00  0.20559792867E+01  0.20559792867E+01  0.00000000000E+00 0. -1.
         13   -1    0    0    0    0 -0.00000000000E+00 -0.00000000000E+00 -0.10000000000E+04  0.10000000000E+04  0.00000000000E+00 0.  1.
    9000005    2    1    2  501    0 -0.93630154564E+01 -0.33169515705E+02 -0.82419407910E+03  0.82492064955E+03  0.32117283213E+01 0.  0.
         13    1    3    3    0    0 -0.25052476199E+01 -0.66890321884E+01 -0.14465812243E+03  0.14483435988E+03  0.00000000000E+00 0.  1.
          1    1    3    3  501    0 -0.68577678365E+01 -0.26480483516E+02 -0.67953595668E+03  0.68008628967E+03  0.00000000000E+00 0.  1.
         -3    1    1    2    0  502  0.93630154564E+01  0.33169515705E+02 -0.17374994161E+03  0.17713532973E+03  0.00000000000E+00 0. -1.
<mgrwt>
<rscale>  1 0.30000000E+03</rscale>
<asrwt>0</asrwt>
<pdfrwt beam="1">  1       21 0.74763041E-02 0.30000000E+03</pdfrwt>
<pdfrwt beam="2">0</pdfrwt>
<totfact> 0.14383932E+04</totfact>
</mgrwt>
</event>
<event>
 6    1  0.8397183E-002  0.3000000E+03  0.7818608E-02  0.1093470E+00
         21   -1    0    0  501  502  0.00000000000E+00  0.00000000000E+00  0.19004071964E+01  0.19004071964E+01  0.00000000000E+00 0. -1.
         13   -1    0    0    0    0 -0.00000000000E+00 -0.00000000000E+00 -0.10000000000E+04  0.10000000000E+04  0.00000000000E+00 0.  1.
    9000005    2    1    2  501    0  0.14530101527E+02  0.30366479876E+02 -0.18256351136E+03  0.18566983494E+03  0.32565281981E+01 0.  0.
         13    1    3    3    0    0  0.71434610826E+01  0.11395371436E+02 -0.70106354477E+02  0.71384763532E+02  0.00000000000E+00 0.  1.
          1    1    3    3  501    0  0.73866404444E+01  0.18971108440E+02 -0.11245715688E+03  0.11428507141E+03  0.00000000000E+00 0.  1.
         -1    1    1    2    0  502 -0.14530101527E+02 -0.30366479876E+02 -0.81553608145E+03  0.81623057226E+03  0.00000000000E+00 0. -1.
<mgrwt>
<rscale>  1 0.30000000E+03</rscale>
<asrwt>0</asrwt>
<pdfrwt beam="1">  1       21 0.69105862E-02 0.30000000E+03</pdfrwt>
<pdfrwt beam="2">0</pdfrwt>
<totfact> 0.16500164E+04</totfact>
</mgrwt>
</event>
<event>
 6    1  0.8397183E-002  0.3000000E+03  0.7818608E-02  0.1093470E+00
         21   -1    0    0  501  502  0.00000000000E+00  0.00000000000E+00  0.10840026020E+01  0.10840026020E+01  0.00000000000E+00 0. -1.
         13   -1    0    0    0    0 -0.00000000000E+00 -0.00000000000E+00 -0.10000000000E+04  0.10000000000E+04  0.00000000000E+00 0.  1.
    9000005    2    1    2  501    0 -0.23921660958E+02 -0.19072196134E+02 -0.32204731312E+03  0.32352425595E+03  0.41806424261E+01 0.  0.
         13    1    3    3    0    0 -0.11085975732E+02 -0.80818488226E+01 -0.12370308610E+03  0.12446151473E+03  0.00000000000E+00 0.  1.
          1    1    3    3  501    0 -0.12835685227E+02 -0.10990347311E+02 -0.19834422703E+03  0.19906274123E+03  0.00000000000E+00 0.  1.
         -3    1    1    2    0  502  0.23921660958E+02  0.19072196134E+02 -0.67686868427E+03  0.67755974665E+03  0.00000000000E+00 0. -1.
<mgrwt>
<rscale>  1 0.30000000E+03</rscale>
<asrwt>0</asrwt>
<pdfrwt beam="1">  1       21 0.39418360E-02 0.30000000E+03</pdfrwt>
<pdfrwt beam="2">0</pdfrwt>
<totfact> 0.43097031E+04</totfact>
</mgrwt>
</event>
<event>
 6    1  0.8397183E-002  0.3000000E+03  0.7818608E-02  0.1093470E+00
         21   -1    0    0  501  502  0.00000000000E+00  0.00000000000E+00  0.19862519077E+01  0.19862519077E+01  0.00000000000E+00 0. -1.
         13   -1    0    0    0    0 -0.00000000000E+00 -0.00000000000E+00 -0.10000000000E+04  0.10000000000E+04  0.00000000000E+00 0.  1.
    9000005    2    1    2  501    0 -0.11283440084E+02 -0.32625366809E+02 -0.81528712443E+03  0.81602725219E+03  0.39560690555E+01 0.  0.
         13    1    3    3    0    0 -0.93033471664E+01 -0.27585462556E+02 -0.65032565997E+03  0.65097693817E+03  0.00000000000E+00 0.  1.
          1    1    3    3  501    0 -0.19800929177E+01 -0.50399042529E+01 -0.16496146446E+03  0.16505031402E+03  0.00000000000E+00 0.  1.
         -3    1    1    2    0  502  0.11283440084E+02  0.32625366809E+02 -0.18272662366E+03  0.18595899971E+03  0.00000000000E+00 0. -1.
<mgrwt>
<rscale>  1 0.30000000E+03</rscale>
<asrwt>0</asrwt>
<pdfrwt beam="1">  1       21 0.72227494E-02 0.30000000E+03</pdfrwt>
<pdfrwt beam="2">0</pdfrwt>
<totfact> 0.15278088E+04</totfact>
</mgrwt>
</event>
<event>
 6    1  0.8397183E-002  0.3000000E+03  0.7818608E-02  0.1093470E+00
         21   -1    0    0  501  502  0.00000000000E+00  0.00000000000E+00  0.10331713562E+01  0.10331713562E+01  0.00000000000E+00 0. -1.
         13   -1    0    0    0    0 -0.00000000000E+00 -0.00000000000E+00 -0.10000000000E+04  0.10000000000E+04  0.00000000000E+00 0.  1.
    9000005    2    1    2  501    0  0.87962424364E+01 -0.30811304656E+02 -0.49571638672E+03  0.49676368222E+03  0.35650436185E+01 0.  0.
         13    1    3    3    0    0  0.62614813624E+01 -0.19712810475E+02 -0.34352931082E+03  0.34415140336E+03  0.00000000000E+00 0.  1.
          3    1    3    3  501    0  0.25347610740E+01 -0.11098494181E+02 -0.15218707590E+03  0.15261227886E+03  0.00000000000E+00 0.  1.
         -1    1    1    2    0  502 -0.87962424364E+01  0.30811304656E+02 -0.50325044193E+03  0.50426948914E+03  0.00000000000E+00 0. -1.
<mgrwt>
<rscale>  1 0.30000000E+03</rscale>
<asrwt>0</asrwt>
<pdfrwt beam="1">  1       21 0.37569947E-02 0.30000000E+03</pdfrwt>
<pdfrwt beam="2">0</pdfrwt>
<totfact> 0.46720834E+04</totfact>
</mgrwt>
</event>
<event>
 6    1  0.8397183E-002  0.3000000E+03  0.7818608E-02  0.1093470E+00
         21   -1    0    0  501  502  0.00000000000E+00  0.00000000000E+00  0.13353716371E+01  0.13353716371E+01  0.00000000000E+00 0. -1.
         13   -1    0    0    0    0 -0.00000000000E+00 -0.00000000000E+00 -0.10000000000E+04  0.10000000000E+04  0.00000000000E+00 0.  1.
    9000005    2    1    2  501    0  0.93763272199E+01 -0.29926759922E+02 -0.75542635274E+03  0.75608369438E+03  0.31704912814E+01 0.  0.
         13    1    3    3    0    0  0.32174081600E+01 -0.59500345114E+01 -0.16541334944E+03  0.16555159558E+03  0.00000000000E+00 0.  1.
          1    1    3    3  501    0  0.61589190599E+01 -0.23976725411E+02 -0.59001300330E+03  0.59053209880E+03  0.00000000000E+00 0.  1.
         -3    1    1    2    0  502 -0.93763272199E+01  0.29926759922E+02 -0.24323827562E+03  0.24525167726E+03  0.00000000000E+00 0. -1.
<mgrwt>
<rscale>  1 0.30000000E+03</rscale>
<asrwt>0</asrwt>
<pdfrwt beam="1">  1       21 0.48559071E-02 0.30000000E+03</pdfrwt>
<pdfrwt beam="2">0</pdfrwt>
<totfact> 0.30275905E+04</totfact>
</mgrwt>
</event>
<event>
 6    1  0.8397183E-002  0.3000000E+03  0.7818608E-02  0.1093470E+00
         21   -1    0    0  501  502  0.00000000000E+00  0.00000000000E+00  0.15821803132E+01  0.15821803132E+01  0.00000000000E+00 0. -1.
         13   -1    0    0    0    0 -0.00000000000E+00 -0.00000000000E+00 -0.10000000000E+04  0.10000000000E+04  0.00000000000E+00 0.  1.
    9000005    2    1    2  501    0  0.18283799685E+02  0.27996353974E+02 -0.76991446066E+03  0.77064522300E+03  0.27730546164E+01 0.  0.
         13    1    3    3    0    0  0.68931843127E+01  0.13067833310E+02 -0.33712297439E+03  0.33744656484E+03  0.00000000000E+00 0.  1.
          1    1    3    3  501    0  0.11390615372E+02  0.14928520664E+02 -0.43279148627E+03  0.43319865816E+03  0.00000000000E+00 0.  1.
         -1    1    1    2    0  502 -0.18283799685E+02 -0.27996353974E+02 -0.22850335902E+03  0.23093695731E+03  0.00000000000E+00 0. -1.
<mgrwt>
<rscale>  1 0.30000000E+03</rscale>
<asrwt>0</asrwt>
<pdfrwt beam="1">  1       21 0.57533951E-02 0.30000000E+03</pdfrwt>
<pdfrwt beam="2">0</pdfrwt>
<totfact> 0.22652010E+04</totfact>
</mgrwt>
</event>
<event>
 6    1  0.8397183E-002  0.3000000E+03  0.7818608E-02  0.1093470E+00
         21   -1    0    0  501  502  0.00000000000E+00  0.00000000000E+00  0.21903249847E+01  0.21903249847E+01  0.00000000000E+00 0. -1.
         13   -1    0    0    0    0 -0.00000000000E+00 -0.00000000000E+00 -0.10000000000E+04  0.10000000000E+04  0.00000000000E+00 0.  1.
    9000005    2    1    2  501    0 -0.43928332776E+02  0.63801420237E+01 -0.65512183517E+03  0.65663951800E+03  0.45202925669E+01 0.  0.
         13    1    3    3    0    0 -0.11258008936E+02 -0.12420944800E+00 -0.17915839482E+03  0.17951180637E+03  0.00000000000E+00 0.  1.
          3    1    3    3  501    0 -0.32670323840E+02  0.65043514717E+01 -0.47596344035E+03  0.47712771163E+03  0.00000000000E+00 0.  1.
         -3    1    1    2    0  502  0.43928332776E+02 -0.63801420237E+01 -0.34268783984E+03  0.34555080699E+03  0.00000000000E+00 0. -1.
<mgrwt>
<rscale>  1 0.30000000E+03</rscale>
<asrwt>0</asrwt>
<pdfrwt beam="1">  1       21 0.79648349E-02 0.30000000E+03</pdfrwt>
<pdfrwt beam="2">0</pdfrwt>
<totfact> 0.12873081E+04</totfact>
</mgrwt>
</event>
<event>
 6    1  0.8397183E-002  0.3000000E+03  0.7818608E-02  0.1093470E+00
         21   -1    0    0  501  502  0.00000000000E+00  0.00000000000E+00  0.14884135754E+01  0.14884135754E+01  0.00000000000E+00 0. -1.
         13   -1    0    0    0    0 -0.00000000000E+00 -0.00000000000E+00 -0.10000000000E+04  0.10000000000E+04  0.00000000000E+00 0.  1.
    9000005    2    1    2  501    0  0.23914027086E+02  0.21383463819E+02 -0.22698978356E+03  0.22929994856E+03  0.49971341766E+01 0.  0.
         13    1    3    3    0    0  0.65525311468E+01  0.86483536142E+01 -0.68417820582E+02  0.69272850800E+02  0.00000000000E+00 0.  1.
          3    1    3    3  501    0  0.17361495939E+02  0.12735110205E+02 -0.15857196298E+03  0.16002709776E+03  0.00000000000E+00 0.  1.
         -1    1    1    2    0  502 -0.23914027086E+02 -0.21383463819E+02 -0.77152180286E+03  0.77218846502E+03  0.00000000000E+00 0. -1.
<mgrwt>
<rscale>  1 0.30000000E+03</rscale>
<asrwt>0</asrwt>
<pdfrwt beam="1">  1       21 0.54124244E-02 0.30000000E+03</pdfrwt>
<pdfrwt beam="2">0</pdfrwt>
<totfact> 0.25156684E+04</totfact>
</mgrwt>
</event>
<event>
 6    1  0.8397183E-002  0.3000000E+03  0.7818608E-02  0.1093470E+00
         21   -1    0    0  501  502  0.00000000000E+00  0.00000000000E+00  0.60570558232E+01  0.60570558232E+01  0.00000000000E+00 0. -1.
         13   -1    0    0    0    0 -0.00000000000E+00 -0.00000000000E+00 -0.10000000000E+04  0.10000000000E+04  0.00000000000E+00 0.  1.
    9000005    2    1    2  501    0 -0.36274238326E+02  0.65531440455E+02 -0.36126726736E+03  0.36896310507E+03  0.30893981552E+01 0.  0.
         13    1    3    3    0    0 -0.14062103436E+02  0.23367217899E+02 -0.13701091110E+03  0.13969881670E+03  0.00000000000E+00 0.  1.
          1    1    3    3  501    0 -0.22212134890E+02  0.42164222555E+02 -0.22425635626E+03  0.22926428837E+03  0.00000000000E+00 0.  1.
         -1    1    1    2    0  502  0.36274238326E+02 -0.65531440455E+02 -0.63267567682E+03  0.63709395076E+03  0.00000000000E+00 0. -1.
<mgrwt>
<rscale>  1 0.30000000E+03</rscale>
<asrwt>0</asrwt>
<pdfrwt beam="1">  1       21 0.22025704E-01 0.30000000E+03</pdfrwt>
<pdfrwt beam="2">0</pdfrwt>
<totfact> 0.19941047E+03</totfact>
</mgrwt>
</event>
<event>
 6    1  0.8397183E-002  0.3000000E+03  0.7818608E-02  0.1093470E+00
         21   -1    0    0  501  502  0.00000000000E+00  0.00000000000E+00  0.24531042486E+01  0.24531042486E+01  0.00000000000E+00 0. -1.
         13   -1    0    0    0    0 -0.00000000000E+00 -0.00000000000E+00 -0.10000000000E+04  0.10000000000E+04  0.00000000000E+00 0.  1.
    9000005    2    1    2  501    0 -0.91320770816E+01 -0.48068709248E+02 -0.42807093927E+03  0.43087908397E+03  0.42497434651E+01 0.  0.
         13    1    3    3    0    0 -0.15953045206E+01 -0.19547026405E+02 -0.17100059454E+03  0.17212156916E+03  0.00000000000E+00 0.  1.
          1    1    3    3  501    0 -0.75367725610E+01 -0.28521682844E+02 -0.25707034473E+03  0.25875751481E+03  0.00000000000E+00 0.  1.
         -3    1    1    2    0  502  0.91320770816E+01  0.48068709248E+02 -0.56947595648E+03  0.57157402027E+03  0.00000000000E+00 0. -1.
<mgrwt>
<rscale>  1 0.30000000E+03</rscale>
<asrwt>0</asrwt>
<pdfrwt beam="1">  1       21 0.89203979E-02 0.30000000E+03</pdfrwt>
<pdfrwt beam="2">0</pdfrwt>
<totfact> 0.10542661E+04</totfact>
</mgrwt>
</event>
<event>
 6    1  0.8397183E-002  0.3000000E+03  0.7818608E-02  0.1093470E+00
         21   -1    0    0  501  502  0.00000000000E+00  0.00000000000E+00  0.10543212438E+01  0.10543212438E+01  0.00000000000E+00 0. -1.
         13   -1    0    0    0    0 -0.00000000000E+00 -0.00000000000E+00 -0.10000000000E+04  0.10000000000E+04  0.00000000000E+00 0.  1.
    9000005    2    1    2  501    0  0.31332023470E+02  0.76348490146E+01 -0.45737078920E+03  0.45852013098E+03  0.35616120629E+01 0.  0.
         13    1    3    3    0    0  0.11019589999E+02  0.22664039509E+01 -0.13698574915E+03  0.13744694766E+03  0.00000000000E+00 0.  1.
          1    1    3    3  501    0  0.20312433471E+02  0.53684450638E+01 -0.32038504006E+03  0.32107318332E+03  0.00000000000E+00 0.  1.
         -1    1    1    2    0  502 -0.31332023470E+02 -0.76348490146E+01 -0.54157488955E+03  0.54253419027E+03  0.00000000000E+00 0. -1.
<mgrwt>
<rscale>  1 0.30000000E+03</rscale>
<asrwt>0</asrwt>
<pdfrwt beam="1">  1       21 0.38339035E-02 0.30000000E+03</pdfrwt>
<pdfrwt beam="2">0</pdfrwt>
<totfact> 0.45156995E+04</totfact>
</mgrwt>
</event>
<event>
 6    1  0.8397183E-002  0.3000000E+03  0.7818608E-02  0.1093470E+00
         21   -1    0    0  501  502  0.00000000000E+00  0.00000000000E+00  0.10732347022E+01  0.10732347022E+01  0.00000000000E+00 0. -1.
         13   -1    0    0    0    0 -0.00000000000E+00 -0.00000000000E+00 -0.10000000000E+04  0.10000000000E+04  0.00000000000E+00 0.  1.
    9000005    2    1    2  501    0  0.17523570529E+01  0.32087684231E+02 -0.44015411748E+03  0.44137727957E+03  0.67502264622E+01 0.  0.
         13    1    3    3    0    0 -0.14803691299E+01  0.24484243051E+02 -0.33906044793E+03  0.33994655021E+03  0.00000000000E+00 0.  1.
          1    1    3    3  501    0  0.32327261829E+01  0.76034411799E+01 -0.10109366955E+03  0.10143072936E+03  0.00000000000E+00 0.  1.
         -3    1    1    2    0  502 -0.17523570529E+01 -0.32087684231E+02 -0.55877264782E+03  0.55969595513E+03  0.00000000000E+00 0. -1.
<mgrwt>
<rscale>  1 0.30000000E+03</rscale>
<asrwt>0</asrwt>
<pdfrwt beam="1">  1       21 0.39026799E-02 0.30000000E+03</pdfrwt>
<pdfrwt beam="2">0</pdfrwt>
<totfact> 0.43827001E+04</totfact>
</mgrwt>
</event>
<event>
 6    1  0.8397183E-002  0.3000000E+03  0.7818608E-02  0.1093470E+00
         21   -1    0    0  501  502  0.00000000000E+00  0.00000000000E+00  0.12932491382E+01  0.12932491382E+01  0.00000000000E+00 0. -1.
         13   -1    0    0    0    0 -0.00000000000E+00 -0.00000000000E+00 -0.10000000000E+04  0.10000000000E+04  0.00000000000E+00 0.  1.
    9000005    2    1    2  501    0  0.73898869525E+01  0.30817588588E+02 -0.26596075486E+03  0.26786225112E+03  0.32754014165E+01 0.  0.
         13    1    3    3    0    0  0.14467778349E+01  0.33502685571E+01 -0.24202276972E+02  0.24475859048E+02  0.00000000000E+00 0.  1.
          3    1    3    3  501    0  0.59431091177E+01  0.27467320031E+02 -0.24175847788E+03  0.24338639207E+03  0.00000000000E+00 0.  1.
         -3    1    1    2    0  502 -0.73898869525E+01 -0.30817588588E+02 -0.73274599601E+03  0.73343099802E+03  0.00000000000E+00 0. -1.
<mgrwt>
<rscale>  1 0.30000000E+03</rscale>
<asrwt>0</asrwt>
<pdfrwt beam="1">  1       21 0.47027341E-02 0.30000000E+03</pdfrwt>
<pdfrwt beam="2">0</pdfrwt>
<totfact> 0.31972704E+04</totfact>
</mgrwt>
</event>
<event>
 6    1  0.8397183E-002  0.3000000E+03  0.7818608E-02  0.1093470E+00
         21   -1    0    0  501  502  0.00000000000E+00  0.00000000000E+00  0.40550007905E+01  0.40550007905E+01  0.00000000000E+00 0. -1.
         13   -1    0    0    0    0 -0.00000000000E+00 -0.00000000000E+00 -0.10000000000E+04  0.10000000000E+04  0.00000000000E+00 0.  1.
    9000005    2    1    2  501    0  0.19508327999E+02 -0.58319576974E+02 -0.37667522409E+03  0.38173932342E+03  0.76771534424E+01 0.  0.
         13    1    3    3    0    0  0.30545414310E+01 -0.69923554764E+01 -0.33575577725E+02  0.34431710356E+02  0.00000000000E+00 0.  1.
          1    1    3    3  501    0  0.16453786568E+02 -0.51327221498E+02 -0.34309964636E+03  0.34730761307E+03  0.00000000000E+00 0.  1.
         -1    1    1    2    0  502 -0.19508327999E+02  0.58319576974E+02 -0.61926977512E+03  0.62231567737E+03  0.00000000000E+00 0. -1.
<mgrwt>
<rscale>  1 0.30000000E+03</rscale>
<asrwt>0</asrwt>
<pdfrwt beam="1">  1       21 0.14745489E-01 0.30000000E+03</pdfrwt>
<pdfrwt beam="2">0</pdfrwt>
<totfact> 0.42504245E+03</totfact>
</mgrwt>
</event>
<event>
 6    1  0.8397183E-002  0.3000000E+03  0.7818608E-02  0.1093470E+00
         21   -1    0    0  501  502  0.00000000000E+00  0.00000000000E+00  0.17204050873E+01  0.17204050873E+01  0.00000000000E+00 0. -1.
         13   -1    0    0    0    0 -0.00000000000E+00 -0.00000000000E+00 -0.10000000000E+04  0.10000000000E+04  0.00000000000E+00 0.  1.
    9000005    2    1    2  501    0 -0.29254606914E+02  0.21214108546E+02 -0.25478891420E+03  0.25735204014E+03  0.26098540516E+01 0.  0.
         13    1    3    3    0    0 -0.28474869215E+02  0.20886172015E+02 -0.25083924768E+03  0.25331280768E+03  0.00000000000E+00 0.  1.
          1    1    3    3  501    0 -0.77973769914E+00  0.32793653058E+00 -0.39496665204E+01  0.40392324605E+01  0.00000000000E+00 0.  1.
         -3    1    1    2    0  502  0.29254606914E+02 -0.21214108546E+02 -0.74349068071E+03  0.74436836495E+03  0.00000000000E+00 0. -1.
<mgrwt>
<rscale>  1 0.30000000E+03</rscale>
<asrwt>0</asrwt>
<pdfrwt beam="1">  1       21 0.62560317E-02 0.30000000E+03</pdfrwt>
<pdfrwt beam="2">0</pdfrwt>
<totfact> 0.19605265E+04</totfact>
</mgrwt>
</event>
<event>
 6    1  0.8397183E-002  0.3000000E+03  0.7818608E-02  0.1093470E+00
         21   -1    0    0  501  502  0.00000000000E+00  0.00000000000E+00  0.33840747419E+01  0.33840747419E+01  0.00000000000E+00 0. -1.
         13   -1    0    0    0    0 -0.00000000000E+00 -0.00000000000E+00 -0.10000000000E+04  0.10000000000E+04  0.00000000000E+00 0.  1.
    9000005    2    1    2  501    0 -0.11945330636E+02  0.56028212366E+02 -0.58399737860E+03  0.58680765132E+03  0.29034343256E+01 0.  0.
         13    1    3    3    0    0 -0.45686450841E+01  0.27007663193E+02 -0.28787302287E+03  0.28917324165E+03  0.00000000000E+00 0.  1.
          1    1    3    3  501    0 -0.73766855516E+01  0.29020549173E+02 -0.29612435573E+03  0.29763440967E+03  0.00000000000E+00 0.  1.
         -3    1    1    2    0  502  0.11945330636E+02 -0.56028212366E+02 -0.41261854666E+03  0.41657642342E+03  0.00000000000E+00 0. -1.
<mgrwt>
<rscale>  1 0.30000000E+03</rscale>
<asrwt>0</asrwt>
<pdfrwt beam="1">  1       21 0.12305752E-01 0.30000000E+03</pdfrwt>
<pdfrwt beam="2">0</pdfrwt>
<totfact> 0.59201079E+03</totfact>
</mgrwt>
</event>
<event>
 6    1  0.8397183E-002  0.3000000E+03  0.7818608E-02  0.1093470E+00
         21   -1    0    0  501  502  0.00000000000E+00  0.00000000000E+00  0.18303038537E+01  0.18303038537E+01  0.00000000000E+00 0. -1.
         13   -1    0    0    0    0 -0.00000000000E+00 -0.00000000000E+00 -0.10000000000E+04  0.10000000000E+04  0.00000000000E+00 0.  1.
    9000005    2    1    2  501    0 -0.40345148024E+02  0.13828360156E+02 -0.51733318102E+03  0.51910604634E+03  0.43026327419E+01 0.  0.
         13    1    3    3    0    0 -0.31995303968E+01  0.16482520478E+01 -0.58503756794E+02  0.58614360771E+02  0.00000000000E+00 0.  1.
          1    1    3    3  501    0 -0.37145617627E+02  0.12180108108E+02 -0.45882942423E+03  0.46049168557E+03  0.00000000000E+00 0.  1.
         -3    1    1    2    0  502  0.40345148024E+02 -0.13828360156E+02 -0.48083651512E+03  0.48272425751E+03  0.00000000000E+00 0. -1.
<mgrwt>
<rscale>  1 0.30000000E+03</rscale>
<asrwt>0</asrwt>
<pdfrwt beam="1">  1       21 0.66556644E-02 0.30000000E+03</pdfrwt>
<pdfrwt beam="2">0</pdfrwt>
<totfact> 0.17612821E+04</totfact>
</mgrwt>
</event>
<event>
 6    1  0.8397183E-002  0.3000000E+03  0.7818608E-02  0.1093470E+00
         21   -1    0    0  501  502  0.00000000000E+00  0.00000000000E+00  0.28597897501E+01  0.28597897501E+01  0.00000000000E+00 0. -1.
         13   -1    0    0    0    0 -0.00000000000E+00 -0.00000000000E+00 -0.10000000000E+04  0.10000000000E+04  0.00000000000E+00 0.  1.
    9000005    2    1    2  501    0 -0.13345989032E+02 -0.51582661191E+02 -0.53508523541E+03  0.53774293762E+03  0.35173072418E+01 0.  0.
         13    1    3    3    0    0 -0.62943443948E+01 -0.27837156488E+02 -0.27110989209E+03  0.27260795960E+03  0.00000000000E+00 0.  1.
          3    1    3    3  501    0 -0.70516446369E+01 -0.23745504703E+02 -0.26397534332E+03  0.26513497801E+03  0.00000000000E+00 0.  1.
         -3    1    1    2    0  502  0.13345989032E+02  0.51582661191E+02 -0.46205497484E+03  0.46511685213E+03  0.00000000000E+00 0. -1.
<mgrwt>
<rscale>  1 0.30000000E+03</rscale>
<asrwt>0</asrwt>
<pdfrwt beam="1">  1       21 0.10399257E-01 0.30000000E+03</pdfrwt>
<pdfrwt beam="2">0</pdfrwt>
<totfact> 0.80212531E+03</totfact>
</mgrwt>
</event>
<event>
 6    1  0.8397183E-002  0.3000000E+03  0.7818608E-02  0.1093470E+00
         21   -1    0    0  501  502  0.00000000000E+00  0.00000000000E+00  0.10201034275E+01  0.10201034275E+01  0.00000000000E+00 0. -1.
         13   -1    0    0    0    0 -0.00000000000E+00 -0.00000000000E+00 -0.10000000000E+04  0.10000000000E+04  0.00000000000E+00 0.  1.
    9000005    2    1    2  501    0 -0.27414423622E+02  0.14389636824E+02 -0.59667696732E+03  0.59752752709E+03  0.75584413238E+01 0.  0.
         13    1    3    3    0    0 -0.23274641779E+02  0.11260266311E+02 -0.53821708636E+03  0.53883776278E+03  0.00000000000E+00 0.  1.
          3    1    3    3  501    0 -0.41397818435E+01  0.31293705135E+01 -0.58459880961E+02  0.58689764316E+02  0.00000000000E+00 0.  1.
         -3    1    1    2    0  502  0.27414423622E+02 -0.14389636824E+02 -0.40230292925E+03  0.40349257633E+03  0.00000000000E+00 0. -1.
<mgrwt>
<rscale>  1 0.30000000E+03</rscale>
<asrwt>0</asrwt>
<pdfrwt beam="1">  1       21 0.37094748E-02 0.30000000E+03</pdfrwt>
<pdfrwt beam="2">0</pdfrwt>
<totfact> 0.47730100E+04</totfact>
</mgrwt>
</event>
<event>
 6    1  0.8397183E-002  0.3000000E+03  0.7818608E-02  0.1093470E+00
         21   -1    0    0  501  502  0.00000000000E+00  0.00000000000E+00  0.14190942751E+01  0.14190942751E+01  0.00000000000E+00 0. -1.
         13   -1    0    0    0    0 -0.00000000000E+00 -0.00000000000E+00 -0.10000000000E+04  0.10000000000E+04  0.00000000000E+00 0.  1.
    9000005    2    1    2  501    0 -0.36513026904E+02 -0.79379315822E+01 -0.44502866363E+03  0.44660714720E+03  0.33497140600E+01 0.  0.
         13    1    3    3    0    0 -0.31299622574E+02 -0.66240826092E+01 -0.39365843783E+03  0.39495634001E+03  0.00000000000E+00 0.  1.
          3    1    3    3  501    0 -0.52134043302E+01 -0.13138489730E+01 -0.51370225806E+02  0.51650807188E+02  0.00000000000E+00 0.  1.
         -1    1    1    2    0  502  0.36513026904E+02  0.79379315822E+01 -0.55355224209E+03  0.55481194707E+03  0.00000000000E+00 0. -1.
<mgrwt>
<rscale>  1 0.30000000E+03</rscale>
<asrwt>0</asrwt>
<pdfrwt beam="1">  1       21 0.51603537E-02 0.30000000E+03</pdfrwt>
<pdfrwt beam="2">0</pdfrwt>
<totfact> 0.27294348E+04</totfact>
</mgrwt>
</event>
<event>
 6    1  0.8397183E-002  0.3000000E+03  0.7818608E-02  0.1093470E+00
         21   -1    0    0  501  502  0.00000000000E+00  0.00000000000E+00  0.14468937973E+01  0.14468937973E+01  0.00000000000E+00 0. -1.
         13   -1    0    0    0    0 -0.00000000000E+00 -0.00000000000E+00 -0.10000000000E+04  0.10000000000E+04  0.00000000000E+00 0.  1.
    9000005    2    1    2  501    0 -0.88454249364E+01  0.36734564285E+02 -0.45031452970E+03  0.45190780827E+03  0.31339690129E+01 0.  0.
         13    1    3    3    0    0 -0.26054659289E+01  0.86655086595E+01 -0.93700351058E+02  0.94136259121E+02  0.00000000000E+00 0.  1.
          1    1    3    3  501    0 -0.62399590075E+01  0.28069055625E+02 -0.35661417864E+03  0.35777154915E+03  0.00000000000E+00 0.  1.
         -1    1    1    2    0  502  0.88454249364E+01 -0.36734564285E+02 -0.54823857650E+03  0.54953908553E+03  0.00000000000E+00 0. -1.
<mgrwt>
<rscale>  1 0.30000000E+03</rscale>
<asrwt>0</asrwt>
<pdfrwt beam="1">  1       21 0.52614431E-02 0.30000000E+03</pdfrwt>
<pdfrwt beam="2">0</pdfrwt>
<totfact> 0.26404475E+04</totfact>
</mgrwt>
</event>
<event>
 6    1  0.8397183E-002  0.3000000E+03  0.7818608E-02  0.1093470E+00
         21   -1    0    0  501  502  0.00000000000E+00  0.00000000000E+00  0.14918855336E+01  0.14918855336E+01  0.00000000000E+00 0. -1.
         13   -1    0    0    0    0 -0.00000000000E+00 -0.00000000000E+00 -0.10000000000E+04  0.10000000000E+04  0.00000000000E+00 0.  1.
    9000005    2    1    2  501    0  0.23734565279E+00 -0.33718588721E+02 -0.25866402804E+03  0.26087979288E+03  0.37666132210E+01 0.  0.
         13    1    3    3    0    0  0.11070823437E+01 -0.31829972021E+02 -0.24320052015E+03  0.24527712032E+03  0.00000000000E+00 0.  1.
          3    1    3    3  501    0 -0.86973669090E+00 -0.18886167001E+01 -0.15463507887E+02  0.15602672563E+02  0.00000000000E+00 0.  1.
         -1    1    1    2    0  502 -0.23734565279E+00  0.33718588721E+02 -0.73984408643E+03  0.74061209265E+03  0.00000000000E+00 0. -1.
<mgrwt>
<rscale>  1 0.30000000E+03</rscale>
<asrwt>0</asrwt>
<pdfrwt beam="1">  1       21 0.54250497E-02 0.30000000E+03</pdfrwt>
<pdfrwt beam="2">0</pdfrwt>
<totfact> 0.25056489E+04</totfact>
</mgrwt>
</event>
<event>
 6    1  0.8397183E-002  0.3000000E+03  0.7818608E-02  0.1093470E+00
         21   -1    0    0  501  502  0.00000000000E+00  0.00000000000E+00  0.18118901866E+01  0.18118901866E+01  0.00000000000E+00 0. -1.
         13   -1    0    0    0    0 -0.00000000000E+00 -0.00000000000E+00 -0.10000000000E+04  0.10000000000E+04  0.00000000000E+00 0.  1.
    9000005    2    1    2  501    0 -0.35873256082E+02  0.54805223247E+01 -0.76038186378E+03  0.76125267236E+03  0.28505769656E+01 0.  0.
         13    1    3    3    0    0 -0.13036699819E+02  0.22442436965E+01 -0.30598034188E+03  0.30626616167E+03  0.00000000000E+00 0.  1.
          1    1    3    3  501    0 -0.22836556263E+02  0.32362786282E+01 -0.45440152190E+03  0.45498651069E+03  0.00000000000E+00 0.  1.
         -1    1    1    2    0  502  0.35873256082E+02 -0.54805223247E+01 -0.23780624604E+03  0.24055921783E+03  0.00000000000E+00 0. -1.
<mgrwt>
<rscale>  1 0.30000000E+03</rscale>
<asrwt>0</asrwt>
<pdfrwt beam="1">  1       21 0.65887055E-02 0.30000000E+03</pdfrwt>
<pdfrwt beam="2">0</pdfrwt>
<totfact> 0.17924239E+04</totfact>
</mgrwt>
</event>
<event>
 6    1  0.8397183E-002  0.3000000E+03  0.7818608E-02  0.1093470E+00
         21   -1    0    0  501  502  0.00000000000E+00  0.00000000000E+00  0.17963340011E+01  0.17963340011E+01  0.00000000000E+00 0. -1.
         13   -1    0    0    0    0 -0.00000000000E+00 -0.00000000000E+00 -0.10000000000E+04  0.10000000000E+04  0.00000000000E+00 0.  1.
    9000005    2    1    2  501    0 -0.11949200339E+02 -0.37723128017E+02 -0.32189257468E+03  0.32432861520E+03  0.28988321016E+01 0.  0.
         13    1    3    3    0    0 -0.13863452587E+01 -0.46585517525E+01 -0.32406495644E+02  0.32768964242E+02  0.00000000000E+00 0.  1.
          1    1    3    3  501    0 -0.10562855080E+02 -0.33064576265E+02 -0.28948607904E+03  0.29155965096E+03  0.00000000000E+00 0.  1.
         -3    1    1    2    0  502  0.11949200339E+02  0.37723128017E+02 -0.67631109132E+03  0.67746771880E+03  0.00000000000E+00 0. -1.
<mgrwt>
<rscale>  1 0.30000000E+03</rscale>
<asrwt>0</asrwt>
<pdfrwt beam="1">  1       21 0.65321374E-02 0.30000000E+03</pdfrwt>
<pdfrwt beam="2">0</pdfrwt>
<totfact> 0.18193993E+04</totfact>
</mgrwt>
</event>
<event>
 6    1  0.8397183E-002  0.3000000E+03  0.7818608E-02  0.1093470E+00
         21   -1    0    0  501  502  0.00000000000E+00  0.00000000000E+00  0.14323726309E+01  0.14323726309E+01  0.00000000000E+00 0. -1.
         13   -1    0    0    0    0 -0.00000000000E+00 -0.00000000000E+00 -0.10000000000E+04  0.10000000000E+04  0.00000000000E+00 0.  1.
    9000005    2    1    2  501    0 -0.23725654570E+02  0.29085304769E+02 -0.44340218089E+03  0.44499950642E+03  0.31945352190E+01 0.  0.
         13    1    3    3    0    0 -0.92326203041E+01  0.12196970305E+02 -0.19822894461E+03  0.19881831365E+03  0.00000000000E+00 0.  1.
          1    1    3    3  501    0 -0.14493034266E+02  0.16888334465E+02 -0.24517323628E+03  0.24618119277E+03  0.00000000000E+00 0.  1.
         -3    1    1    2    0  502  0.23725654570E+02 -0.29085304769E+02 -0.55516544648E+03  0.55643286621E+03  0.00000000000E+00 0. -1.
<mgrwt>
<rscale>  1 0.30000000E+03</rscale>
<asrwt>0</asrwt>
<pdfrwt beam="1">  1       21 0.52086387E-02 0.30000000E+03</pdfrwt>
<pdfrwt beam="2">0</pdfrwt>
<totfact> 0.26863594E+04</totfact>
</mgrwt>
</event>
<event>
 6    1  0.8397183E-002  0.3000000E+03  0.7818608E-02  0.1093470E+00
         21   -1    0    0  501  502  0.00000000000E+00  0.00000000000E+00  0.21458973815E+01  0.21458973815E+01  0.00000000000E+00 0. -1.
         13   -1    0    0    0    0 -0.00000000000E+00 -0.00000000000E+00 -0.10000000000E+04  0.10000000000E+04  0.00000000000E+00 0.  1.
    9000005    2    1    2  501    0 -0.15742046837E+02  0.31072063778E+02 -0.17160702862E+03  0.17516493480E+03  0.45273529451E+01 0.  0.
         13    1    3    3    0    0 -0.12712649528E+02  0.24534194165E+02 -0.14438918112E+03  0.14700943427E+03  0.00000000000E+00 0.  1.
          1    1    3    3  501    0 -0.30293973090E+01  0.65378696124E+01 -0.27217847507E+02  0.28155500529E+02  0.00000000000E+00 0.  1.
         -1    1    1    2    0  502  0.15742046837E+02 -0.31072063778E+02 -0.82624707399E+03  0.82698096258E+03  0.00000000000E+00 0. -1.
<mgrwt>
<rscale>  1 0.30000000E+03</rscale>
<asrwt>0</asrwt>
<pdfrwt beam="1">  1       21 0.78032797E-02 0.30000000E+03</pdfrwt>
<pdfrwt beam="2">0</pdfrwt>
<totfact> 0.13344483E+04</totfact>
</mgrwt>
</event>
<event>
 6    1  0.8397183E-002  0.3000000E+03  0.7818608E-02  0.1093470E+00
         21   -1    0    0  501  502  0.00000000000E+00  0.00000000000E+00  0.15150749489E+01  0.15150749489E+01  0.00000000000E+00 0. -1.
         13   -1    0    0    0    0 -0.00000000000E+00 -0.00000000000E+00 -0.10000000000E+04  0.10000000000E+04  0.00000000000E+00 0.  1.
    9000005    2    1    2  501    0 -0.34548230191E+02 -0.10828355141E+02 -0.31842179082E+03  0.32048886399E+03  0.31371297040E+01 0.  0.
         13    1    3    3    0    0 -0.25592266274E+02 -0.79772187408E+01 -0.22305358078E+03  0.22465862995E+03  0.00000000000E+00 0.  1.
          3    1    3    3  501    0 -0.89559639163E+01 -0.28511364003E+01 -0.95368210045E+02  0.95830234037E+02  0.00000000000E+00 0.  1.
         -3    1    1    2    0  502  0.34548230191E+02  0.10828355141E+02 -0.68006313423E+03  0.68102621096E+03  0.00000000000E+00 0. -1.
<mgrwt>
<rscale>  1 0.30000000E+03</rscale>
<asrwt>0</asrwt>
<pdfrwt beam="1">  1       21 0.55093751E-02 0.30000000E+03</pdfrwt>
<pdfrwt beam="2">0</pdfrwt>
<totfact> 0.24402778E+04</totfact>
</mgrwt>
</event>
<event>
 6    1  0.8397183E-002  0.3000000E+03  0.7818608E-02  0.1093470E+00
         21   -1    0    0  501  502  0.00000000000E+00  0.00000000000E+00  0.12170952318E+01  0.12170952318E+01  0.00000000000E+00 0. -1.
         13   -1    0    0    0    0 -0.00000000000E+00 -0.00000000000E+00 -0.10000000000E+04  0.10000000000E+04  0.00000000000E+00 0.  1.
    9000005    2    1    2  501    0  0.20521922020E+02  0.25283111586E+02 -0.67734759113E+03  0.67813653892E+03  0.30035296153E+01 0.  0.
         13    1    3    3    0    0  0.40031755369E+01  0.33629140322E+01 -0.98817399834E+02  0.98955611842E+02  0.00000000000E+00 0.  1.
          1    1    3    3  501    0  0.16518746484E+02  0.21920197553E+02 -0.57853019130E+03  0.57918092708E+03  0.00000000000E+00 0.  1.
         -1    1    1    2    0  502 -0.20521922020E+02 -0.25283111586E+02 -0.32143531363E+03  0.32308055631E+03  0.00000000000E+00 0. -1.
<mgrwt>
<rscale>  1 0.30000000E+03</rscale>
<asrwt>0</asrwt>
<pdfrwt beam="1">  1       21 0.44258102E-02 0.30000000E+03</pdfrwt>
<pdfrwt beam="2">0</pdfrwt>
<totfact> 0.35443419E+04</totfact>
</mgrwt>
</event>
<event>
 6    1  0.8397183E-002  0.3000000E+03  0.7818608E-02  0.1093470E+00
         21   -1    0    0  501  502  0.00000000000E+00  0.00000000000E+00  0.15670187456E+01  0.15670187456E+01  0.00000000000E+00 0. -1.
         13   -1    0    0    0    0 -0.00000000000E+00 -0.00000000000E+00 -0.10000000000E+04  0.10000000000E+04  0.00000000000E+00 0.  1.
    9000005    2    1    2  501    0  0.30860637243E+02  0.24670195964E+02 -0.51095368457E+03  0.51248925172E+03  0.32508238753E+01 0.  0.
         13    1    3    3    0    0  0.21850820636E+01  0.82457300986E+00 -0.33313692494E+02  0.33395457952E+02  0.00000000000E+00 0.  1.
          3    1    3    3  501    0  0.28675555179E+02  0.23845622955E+02 -0.47763999207E+03  0.47909379377E+03  0.00000000000E+00 0.  1.
         -3    1    1    2    0  502 -0.30860637243E+02 -0.24670195964E+02 -0.48747929669E+03  0.48907776703E+03  0.00000000000E+00 0. -1.
<mgrwt>
<rscale>  1 0.30000000E+03</rscale>
<asrwt>0</asrwt>
<pdfrwt beam="1">  1       21 0.56982620E-02 0.30000000E+03</pdfrwt>
<pdfrwt beam="2">0</pdfrwt>
<totfact> 0.23030334E+04</totfact>
</mgrwt>
</event>
<event>
 6    1  0.8397183E-002  0.3000000E+03  0.7818608E-02  0.1093470E+00
         21   -1    0    0  501  502  0.00000000000E+00  0.00000000000E+00  0.23168471112E+01  0.23168471112E+01  0.00000000000E+00 0. -1.
         13   -1    0    0    0    0 -0.00000000000E+00 -0.00000000000E+00 -0.10000000000E+04  0.10000000000E+04  0.00000000000E+00 0.  1.
    9000005    2    1    2  501    0 -0.39939275837E+02  0.20928330021E+02 -0.32569676003E+03  0.32881936907E+03  0.32645404060E+01 0.  0.
         13    1    3    3    0    0 -0.15271587674E+02  0.62656701188E+01 -0.11660704540E+03  0.11776961853E+03  0.00000000000E+00 0.  1.
          3    1    3    3  501    0 -0.24667688163E+02  0.14662659902E+02 -0.20908971464E+03  0.21104975054E+03  0.00000000000E+00 0.  1.
         -3    1    1    2    0  502  0.39939275837E+02 -0.20928330021E+02 -0.67198639285E+03  0.67349747805E+03  0.00000000000E+00 0. -1.
<mgrwt>
<rscale>  1 0.30000000E+03</rscale>
<asrwt>0</asrwt>
<pdfrwt beam="1">  1       21 0.84249164E-02 0.30000000E+03</pdfrwt>
<pdfrwt beam="2">0</pdfrwt>
<totfact> 0.11662248E+04</totfact>
</mgrwt>
</event>
<event>
 6    1  0.8397183E-002  0.3000000E+03  0.7818608E-02  0.1093470E+00
         21   -1    0    0  501  502  0.00000000000E+00  0.00000000000E+00  0.26631014256E+01  0.26631014256E+01  0.00000000000E+00 0. -1.
         13   -1    0    0    0    0 -0.00000000000E+00 -0.00000000000E+00 -0.10000000000E+04  0.10000000000E+04  0.00000000000E+00 0.  1.
    9000005    2    1    2  501    0  0.33350689388E+02 -0.21774085525E+02 -0.18188220865E+03  0.18623629479E+03  0.40546748903E+01 0.  0.
         13    1    3    3    0    0  0.18536574750E+02 -0.10042603950E+02 -0.10082931167E+03  0.10300974997E+03  0.00000000000E+00 0.  1.
          3    1    3    3  501    0  0.14814114638E+02 -0.11731481575E+02 -0.81052896985E+02  0.83226544817E+02  0.00000000000E+00 0.  1.
         -1    1    1    2    0  502 -0.33350689388E+02  0.21774085525E+02 -0.81545468992E+03  0.81642680664E+03  0.00000000000E+00 0. -1.
<mgrwt>
<rscale>  1 0.30000000E+03</rscale>
<asrwt>0</asrwt>
<pdfrwt beam="1">  1       21 0.96840256E-02 0.30000000E+03</pdfrwt>
<pdfrwt beam="2">0</pdfrwt>
<totfact> 0.91107236E+03</totfact>
</mgrwt>
</event>
<event>
 6    1  0.9229442E-002  0.3000000E+03  0.7818608E-02  0.1093470E+00
         21   -1    0    0  501  502  0.00000000000E+00  0.00000000000E+00  0.13773117810E+01  0.13773117810E+01  0.00000000000E+00 0. -1.
         13   -1    0    0    0    0 -0.00000000000E+00 -0.00000000000E+00 -0.10000000000E+04  0.10000000000E+04  0.00000000000E+00 0.  1.
    9000005    2    1    2  501    0 -0.35241837072E+02  0.97642042735E+01 -0.46729164121E+03  0.46878928311E+03  0.80366193844E+01 0.  0.
         13    1    3    3    0    0 -0.24140503657E+01  0.13441255172E+01 -0.70092707691E+02  0.70147145231E+02  0.00000000000E+00 0.  1.
          1    1    3    3  501    0 -0.32827786706E+02  0.84200787563E+01 -0.39719893351E+03  0.39864213788E+03  0.00000000000E+00 0.  1.
         -3    1    1    2    0  502  0.35241837072E+02 -0.97642042735E+01 -0.53133104701E+03  0.53258802867E+03  0.00000000000E+00 0. -1.
<mgrwt>
<rscale>  1 0.30000000E+03</rscale>
<asrwt>0</asrwt>
<pdfrwt beam="1">  1       21 0.50084170E-02 0.30000000E+03</pdfrwt>
<pdfrwt beam="2">0</pdfrwt>
<totfact> 0.28722178E+04</totfact>
</mgrwt>
</event>
<event>
 6    1  0.8397183E-002  0.3000000E+03  0.7818608E-02  0.1093470E+00
         21   -1    0    0  501  502  0.00000000000E+00  0.00000000000E+00  0.10960982832E+01  0.10960982832E+01  0.00000000000E+00 0. -1.
         13   -1    0    0    0    0 -0.00000000000E+00 -0.00000000000E+00 -0.10000000000E+04  0.10000000000E+04  0.00000000000E+00 0.  1.
    9000005    2    1    2  501    0 -0.26132971612E+02  0.20008031740E+02 -0.51160042734E+03  0.51268241125E+03  0.50004013597E+01 0.  0.
         13    1    3    3    0    0 -0.92564644706E+01  0.53610266248E+01 -0.19617963619E+03  0.19647104722E+03  0.00000000000E+00 0.  1.
          1    1    3    3  501    0 -0.16876507142E+02  0.14647005115E+02 -0.31542079115E+03  0.31621136403E+03  0.00000000000E+00 0.  1.
         -3    1    1    2    0  502  0.26132971612E+02 -0.20008031740E+02 -0.48730347438E+03  0.48841368703E+03  0.00000000000E+00 0. -1.
<mgrwt>
<rscale>  1 0.30000000E+03</rscale>
<asrwt>0</asrwt>
<pdfrwt beam="1">  1       21 0.39858203E-02 0.30000000E+03</pdfrwt>
<pdfrwt beam="2">0</pdfrwt>
<totfact> 0.42299512E+04</totfact>
</mgrwt>
</event>
<event>
 6    1  0.8397183E-002  0.3000000E+03  0.7818608E-02  0.1093470E+00
         21   -1    0    0  501  502  0.00000000000E+00  0.00000000000E+00  0.10708938272E+01  0.10708938272E+01  0.00000000000E+00 0. -1.
         13   -1    0    0    0    0 -0.00000000000E+00 -0.00000000000E+00 -0.10000000000E+04  0.10000000000E+04  0.00000000000E+00 0.  1.
    9000005    2    1    2  501    0 -0.11437282631E+02 -0.28197512572E+02 -0.68238732429E+03  0.68306993341E+03  0.24824235774E+01 0.  0.
         13    1    3    3    0    0 -0.13033335865E+01 -0.57881257153E+01 -0.12914995191E+03  0.12928615996E+03  0.00000000000E+00 0.  1.
          1    1    3    3  501    0 -0.10133949044E+02 -0.22409386857E+02 -0.55323737238E+03  0.55378377346E+03  0.00000000000E+00 0.  1.
         -1    1    1    2    0  502  0.11437282631E+02  0.28197512572E+02 -0.31654178188E+03  0.31800096041E+03  0.00000000000E+00 0. -1.
<mgrwt>
<rscale>  1 0.30000000E+03</rscale>
<asrwt>0</asrwt>
<pdfrwt beam="1">  1       21 0.38941676E-02 0.30000000E+03</pdfrwt>
<pdfrwt beam="2">0</pdfrwt>
<totfact> 0.43988256E+04</totfact>
</mgrwt>
</event>
<event>
 6    1  0.8397183E-002  0.3000000E+03  0.7818608E-02  0.1093470E+00
         21   -1    0    0  501  502  0.00000000000E+00  0.00000000000E+00  0.10860542383E+01  0.10860542383E+01  0.00000000000E+00 0. -1.
         13   -1    0    0    0    0 -0.00000000000E+00 -0.00000000000E+00 -0.10000000000E+04  0.10000000000E+04  0.00000000000E+00 0.  1.
    9000005    2    1    2  501    0 -0.32387773989E+02 -0.54064054371E+01 -0.49281559678E+03  0.49392361876E+03  0.38899370578E+01 0.  0.
         13    1    3    3    0    0 -0.22066839823E+02 -0.51835729041E+01 -0.32279860200E+03  0.32359349855E+03  0.00000000000E+00 0.  1.
          1    1    3    3  501    0 -0.10320934166E+02 -0.22283253300E+00 -0.17001699478E+03  0.17033012021E+03  0.00000000000E+00 0.  1.
         -3    1    1    2    0  502  0.32387773989E+02  0.54064054371E+01 -0.50609834898E+03  0.50716243548E+03  0.00000000000E+00 0. -1.
<mgrwt>
<rscale>  1 0.30000000E+03</rscale>
<asrwt>0</asrwt>
<pdfrwt beam="1">  1       21 0.39492965E-02 0.30000000E+03</pdfrwt>
<pdfrwt beam="2">0</pdfrwt>
<totfact> 0.42960109E+04</totfact>
</mgrwt>
</event>
<event>
 6    1  0.8397183E-002  0.3000000E+03  0.7818608E-02  0.1093470E+00
         21   -1    0    0  501  502  0.00000000000E+00  0.00000000000E+00  0.12332907085E+01  0.12332907085E+01  0.00000000000E+00 0. -1.
         13   -1    0    0    0    0 -0.00000000000E+00 -0.00000000000E+00 -0.10000000000E+04  0.10000000000E+04  0.00000000000E+00 0.  1.
    9000005    2    1    2  501    0  0.10056689009E+02  0.32343937195E+02 -0.37209639510E+03  0.37364827658E+03  0.31686084194E+01 0.  0.
         13    1    3    3    0    0  0.12948067501E+01  0.38116203715E+01 -0.56708208847E+02  0.56850909624E+02  0.00000000000E+00 0.  1.
          1    1    3    3  501    0  0.87618822593E+01  0.28532316823E+02 -0.31538818625E+03  0.31679736696E+03  0.00000000000E+00 0.  1.
         -3    1    1    2    0  502 -0.10056689009E+02 -0.32343937195E+02 -0.62667031419E+03  0.62758501413E+03  0.00000000000E+00 0. -1.
<mgrwt>
<rscale>  1 0.30000000E+03</rscale>
<asrwt>0</asrwt>
<pdfrwt beam="1">  1       21 0.44847029E-02 0.30000000E+03</pdfrwt>
<pdfrwt beam="2">0</pdfrwt>
<totfact> 0.34657844E+04</totfact>
</mgrwt>
</event>
<event>
 6    1  0.8397183E-002  0.3000000E+03  0.7818608E-02  0.1093470E+00
         21   -1    0    0  501  502  0.00000000000E+00  0.00000000000E+00  0.16685520562E+01  0.16685520562E+01  0.00000000000E+00 0. -1.
         13   -1    0    0    0    0 -0.00000000000E+00 -0.00000000000E+00 -0.10000000000E+04  0.10000000000E+04  0.00000000000E+00 0.  1.
    9000005    2    1    2  501    0  0.22572474690E+01  0.34112218627E+02 -0.22751991405E+03  0.23009926844E+03  0.34093143921E+01 0.  0.
         13    1    3    3    0    0  0.45189850119E+00  0.19155351228E+01 -0.18832469356E+02  0.18935030740E+02  0.00000000000E+00 0.  1.
          3    1    3    3  501    0  0.18053489678E+01  0.32196683505E+02 -0.20868744469E+03  0.21116423770E+03  0.00000000000E+00 0.  1.
         -1    1    1    2    0  502 -0.22572474690E+01 -0.34112218627E+02 -0.77081153390E+03  0.77156928361E+03  0.00000000000E+00 0. -1.
<mgrwt>
<rscale>  1 0.30000000E+03</rscale>
<asrwt>0</asrwt>
<pdfrwt beam="1">  1       21 0.60674748E-02 0.30000000E+03</pdfrwt>
<pdfrwt beam="2">0</pdfrwt>
<totfact> 0.20669066E+04</totfact>
</mgrwt>
</event>
<event>
 6    1  0.8397183E-002  0.3000000E+03  0.7818608E-02  0.1093470E+00
         21   -1    0    0  501  502  0.00000000000E+00  0.00000000000E+00  0.27662597719E+01  0.27662597719E+01  0.00000000000E+00 0. -1.
         13   -1    0    0    0    0 -0.00000000000E+00 -0.00000000000E+00 -0.10000000000E+04  0.10000000000E+04  0.00000000000E+00 0.  1.
    9000005    2    1    2  501    0 -0.20955484083E+01 -0.52141617993E+02 -0.44152960226E+03  0.44461732928E+03  0.36111185974E+01 0.  0.
         13    1    3    3    0    0 -0.13699449540E+01 -0.10942069369E+02 -0.10330627815E+03  0.10389317945E+03  0.00000000000E+00 0.  1.
          1    1    3    3  501    0 -0.72560345428E+00 -0.41199548625E+02 -0.33822332411E+03  0.34072414983E+03  0.00000000000E+00 0.  1.
         -1    1    1    2    0  502  0.20955484083E+01  0.52141617993E+02 -0.55570413797E+03  0.55814893049E+03  0.00000000000E+00 0. -1.
<mgrwt>
<rscale>  1 0.30000000E+03</rscale>
<asrwt>0</asrwt>
<pdfrwt beam="1">  1       21 0.10059148E-01 0.30000000E+03</pdfrwt>
<pdfrwt beam="2">0</pdfrwt>
<totfact> 0.85130009E+03</totfact>
</mgrwt>
</event>
<event>
 6    1  0.8397183E-002  0.3000000E+03  0.7818608E-02  0.1093470E+00
         21   -1    0    0  501  502  0.00000000000E+00  0.00000000000E+00  0.14472440742E+01  0.14472440742E+01  0.00000000000E+00 0. -1.
         13   -1    0    0    0    0 -0.00000000000E+00 -0.00000000000E+00 -0.10000000000E+04  0.10000000000E+04  0.00000000000E+00 0.  1.
    9000005    2    1    2  501    0 -0.23080889831E+02  0.29976980248E+02 -0.54099808227E+03  0.54233110822E+03  0.35719882185E+01 0.  0.
         13    1    3    3    0    0 -0.16316774998E+02  0.23302129243E+02 -0.39292813670E+03  0.39395652931E+03  0.00000000000E+00 0.  1.
          3    1    3    3  501    0 -0.67641148336E+01  0.66748510056E+01 -0.14806994557E+03  0.14837457891E+03  0.00000000000E+00 0.  1.
         -3    1    1    2    0  502  0.23080889831E+02 -0.29976980248E+02 -0.45755467365E+03  0.45911613585E+03  0.00000000000E+00 0. -1.
<mgrwt>
<rscale>  1 0.30000000E+03</rscale>
<asrwt>0</asrwt>
<pdfrwt beam="1">  1       21 0.52627168E-02 0.30000000E+03</pdfrwt>
<pdfrwt beam="2">0</pdfrwt>
<totfact> 0.26393551E+04</totfact>
</mgrwt>
</event>
<event>
 6    1  0.8397183E-002  0.3000000E+03  0.7818608E-02  0.1093470E+00
         21   -1    0    0  501  502  0.00000000000E+00  0.00000000000E+00  0.10266596759E+01  0.10266596759E+01  0.00000000000E+00 0. -1.
         13   -1    0    0    0    0 -0.00000000000E+00 -0.00000000000E+00 -0.10000000000E+04  0.10000000000E+04  0.00000000000E+00 0.  1.
    9000005    2    1    2  501    0 -0.21038132778E+02 -0.23116946014E+02 -0.60444418972E+03  0.60526126591E+03  0.33801338373E+01 0.  0.
         13    1    3    3    0    0 -0.17592892950E+02 -0.20999858060E+02 -0.52725081100E+03  0.52796204563E+03  0.00000000000E+00 0.  1.
          3    1    3    3  501    0 -0.34452398277E+01 -0.21170879546E+01 -0.77193378712E+02  0.77299220280E+02  0.00000000000E+00 0.  1.
         -3    1    1    2    0  502  0.21038132778E+02  0.23116946014E+02 -0.39452915061E+03  0.39576539377E+03  0.00000000000E+00 0. -1.
<mgrwt>
<rscale>  1 0.30000000E+03</rscale>
<asrwt>0</asrwt>
<pdfrwt beam="1">  1       21 0.37333158E-02 0.30000000E+03</pdfrwt>
<pdfrwt beam="2">0</pdfrwt>
<totfact> 0.47219503E+04</totfact>
</mgrwt>
</event>
<event>
 6    1  0.8397183E-002  0.3000000E+03  0.7818608E-02  0.1093470E+00
         21   -1    0    0  501  502  0.00000000000E+00  0.00000000000E+00  0.11037978758E+01  0.11037978758E+01  0.00000000000E+00 0. -1.
         13   -1    0    0    0    0 -0.00000000000E+00 -0.00000000000E+00 -0.10000000000E+04  0.10000000000E+04  0.00000000000E+00 0.  1.
    9000005    2    1    2  501    0 -0.28691532809E+02 -0.10574225056E+02 -0.68552475084E+03  0.68624401198E+03  0.71862147318E+01 0.  0.
         13    1    3    3    0    0 -0.37917981116E+01 -0.17922110774E+01 -0.16158013833E+03  0.16163455959E+03  0.00000000000E+00 0.  1.
          1    1    3    3  501    0 -0.24899734698E+02 -0.87820139782E+01 -0.52394461251E+03  0.52460945239E+03  0.00000000000E+00 0.  1.
         -3    1    1    2    0  502  0.28691532809E+02  0.10574225056E+02 -0.31337145129E+03  0.31485978589E+03  0.00000000000E+00 0. -1.
<mgrwt>
<rscale>  1 0.30000000E+03</rscale>
<asrwt>0</asrwt>
<pdfrwt beam="1">  1       21 0.40138189E-02 0.30000000E+03</pdfrwt>
<pdfrwt beam="2">0</pdfrwt>
<totfact> 0.41803806E+04</totfact>
</mgrwt>
</event>
<event>
 6    1  0.8397183E-002  0.3000000E+03  0.7818608E-02  0.1093470E+00
         21   -1    0    0  501  502  0.00000000000E+00  0.00000000000E+00  0.10719736050E+01  0.10719736050E+01  0.00000000000E+00 0. -1.
         13   -1    0    0    0    0 -0.00000000000E+00 -0.00000000000E+00 -0.10000000000E+04  0.10000000000E+04  0.00000000000E+00 0.  1.
    9000005    2    1    2  501    0  0.14235116168E+02 -0.27173441206E+02 -0.67020388170E+03  0.67091958796E+03  0.43377445929E+01 0.  0.
         13    1    3    3    0    0  0.47344466272E+01 -0.12484578531E+02 -0.25941847582E+03  0.25976186264E+03  0.00000000000E+00 0.  1.
          3    1    3    3  501    0  0.95006695407E+01 -0.14688862676E+02 -0.41078540588E+03  0.41115772532E+03  0.00000000000E+00 0.  1.
         -3    1    1    2    0  502 -0.14235116168E+02  0.27173441206E+02 -0.32872414470E+03  0.33015238564E+03  0.00000000000E+00 0. -1.
<mgrwt>
<rscale>  1 0.30000000E+03</rscale>
<asrwt>0</asrwt>
<pdfrwt beam="1">  1       21 0.38980941E-02 0.30000000E+03</pdfrwt>
<pdfrwt beam="2">0</pdfrwt>
<totfact> 0.43913758E+04</totfact>
</mgrwt>
</event>
<event>
 6    1  0.8397183E-002  0.3000000E+03  0.7818608E-02  0.1093470E+00
         21   -1    0    0  501  502  0.00000000000E+00  0.00000000000E+00  0.58012477698E+01  0.58012477698E+01  0.00000000000E+00 0. -1.
         13   -1    0    0    0    0 -0.00000000000E+00 -0.00000000000E+00 -0.10000000000E+04  0.10000000000E+04  0.00000000000E+00 0.  1.
    9000005    2    1    2  501    0 -0.29198303883E+02  0.11862526913E+02 -0.39518136512E+02  0.50600568058E+02  0.23396324468E+01 0.  0.
         13    1    3    3    0    0 -0.18704766878E+02  0.75513796586E+01 -0.27059930557E+02  0.33751021917E+02  0.00000000000E+00 0.  1.
          3    1    3    3  501    0 -0.10493537005E+02  0.43111472545E+01 -0.12458205955E+02  0.16849546140E+02  0.00000000000E+00 0.  1.
         -3    1    1    2    0  502  0.29198303883E+02 -0.11862526913E+02 -0.95468061572E+03  0.95520067971E+03  0.00000000000E+00 0. -1.
<mgrwt>
<rscale>  1 0.30000000E+03</rscale>
<asrwt>0</asrwt>
<pdfrwt beam="1">  1       21 0.21095491E-01 0.30000000E+03</pdfrwt>
<pdfrwt beam="2">0</pdfrwt>
<totfact> 0.21664955E+03</totfact>
</mgrwt>
</event>
<event>
 6    1  0.8397183E-002  0.3000000E+03  0.7818608E-02  0.1093470E+00
         21   -1    0    0  501  502  0.00000000000E+00  0.00000000000E+00  0.17129845331E+01  0.17129845331E+01  0.00000000000E+00 0. -1.
         13   -1    0    0    0    0 -0.00000000000E+00 -0.00000000000E+00 -0.10000000000E+04  0.10000000000E+04  0.00000000000E+00 0.  1.
    9000005    2    1    2  501    0  0.30337747264E+02 -0.24886756398E+02 -0.65330267472E+03  0.65450422180E+03  0.56269009329E+01 0.  0.
         13    1    3    3    0    0  0.31241542527E+01 -0.64009004654E+00 -0.54942117939E+02  0.55034592564E+02  0.00000000000E+00 0.  1.
          3    1    3    3  501    0  0.27213593011E+02 -0.24246666352E+02 -0.59836055678E+03  0.59946962924E+03  0.00000000000E+00 0.  1.
         -3    1    1    2    0  502 -0.30337747264E+02  0.24886756398E+02 -0.34498434075E+03  0.34720876273E+03  0.00000000000E+00 0. -1.
<mgrwt>
<rscale>  1 0.30000000E+03</rscale>
<asrwt>0</asrwt>
<pdfrwt beam="1">  1       21 0.62290478E-02 0.30000000E+03</pdfrwt>
<pdfrwt beam="2">0</pdfrwt>
<totfact> 0.19752224E+04</totfact>
</mgrwt>
</event>
<event>
 6    1  0.8397183E-002  0.3000000E+03  0.7818608E-02  0.1093470E+00
         21   -1    0    0  501  502  0.00000000000E+00  0.00000000000E+00  0.15342660996E+01  0.15342660996E+01  0.00000000000E+00 0. -1.
         13   -1    0    0    0    0 -0.00000000000E+00 -0.00000000000E+00 -0.10000000000E+04  0.10000000000E+04  0.00000000000E+00 0.  1.
    9000005    2    1    2  501    0 -0.19592556697E+02 -0.33552836830E+02 -0.54772418222E+03  0.54912117218E+03  0.47561341561E+01 0.  0.
         13    1    3    3    0    0 -0.18983445783E+02 -0.30878373674E+02 -0.51993775459E+03  0.52119968709E+03  0.00000000000E+00 0.  1.
          1    1    3    3  501    0 -0.60911091375E+00 -0.26744631568E+01 -0.27786427633E+02  0.27921485094E+02  0.00000000000E+00 0.  1.
         -1    1    1    2    0  502  0.19592556697E+02  0.33552836830E+02 -0.45074155168E+03  0.45241309392E+03  0.00000000000E+00 0. -1.
<mgrwt>
<rscale>  1 0.30000000E+03</rscale>
<asrwt>0</asrwt>
<pdfrwt beam="1">  1       21 0.55791612E-02 0.30000000E+03</pdfrwt>
<pdfrwt beam="2">0</pdfrwt>
<totfact> 0.23881425E+04</totfact>
</mgrwt>
</event>
<event>
 6    1  0.8397183E-002  0.3000000E+03  0.7818608E-02  0.1093470E+00
         21   -1    0    0  501  502  0.00000000000E+00  0.00000000000E+00  0.98224986294E+00  0.98224986294E+00  0.00000000000E+00 0. -1.
         13   -1    0    0    0    0 -0.00000000000E+00 -0.00000000000E+00 -0.10000000000E+04  0.10000000000E+04  0.00000000000E+00 0.  1.
    9000005    2    1    2  501    0 -0.31015358673E+02 -0.29532658903E+01 -0.54387531983E+03  0.54477472458E+03  0.29090849343E+01 0.  0.
         13    1    3    3    0    0 -0.17464024101E+02 -0.13606030472E+01 -0.33002739807E+03  0.33049194673E+03  0.00000000000E+00 0.  1.
          1    1    3    3  501    0 -0.13551334571E+02 -0.15926628431E+01 -0.21384792176E+03  0.21428277785E+03  0.00000000000E+00 0.  1.
         -1    1    1    2    0  502  0.31015358673E+02  0.29532658903E+01 -0.45514243031E+03  0.45620752528E+03  0.00000000000E+00 0. -1.
<mgrwt>
<rscale>  1 0.30000000E+03</rscale>
<asrwt>0</asrwt>
<pdfrwt beam="1">  1       21 0.35718252E-02 0.30000000E+03</pdfrwt>
<pdfrwt beam="2">0</pdfrwt>
<totfact> 0.50855916E+04</totfact>
</mgrwt>
</event>
<event>
 6    1  0.8397183E-002  0.3000000E+03  0.7818608E-02  0.1093470E+00
         21   -1    0    0  501  502  0.00000000000E+00  0.00000000000E+00  0.25079335178E+01  0.25079335178E+01  0.00000000000E+00 0. -1.
         13   -1    0    0    0    0 -0.00000000000E+00 -0.00000000000E+00 -0.10000000000E+04  0.10000000000E+04  0.00000000000E+00 0.  1.
    9000005    2    1    2  501    0  0.33536711189E+02 -0.14847817791E+02 -0.15867380830E+03  0.16288823452E+03  0.31671458985E+01 0.  0.
         13    1    3    3    0    0  0.14925649079E+02 -0.82482464068E+01 -0.71344485761E+02  0.73354237899E+02  0.00000000000E+00 0.  1.
          1    1    3    3  501    0  0.18611062110E+02 -0.65995713838E+01 -0.87329322542E+02  0.89533996621E+02  0.00000000000E+00 0.  1.
         -3    1    1    2    0  502 -0.33536711189E+02  0.14847817791E+02 -0.83881825818E+03  0.83961969900E+03  0.00000000000E+00 0. -1.
<mgrwt>
<rscale>  1 0.30000000E+03</rscale>
<asrwt>0</asrwt>
<pdfrwt beam="1">  1       21 0.91197775E-02 0.30000000E+03</pdfrwt>
<pdfrwt beam="2">0</pdfrwt>
<totfact> 0.10137685E+04</totfact>
</mgrwt>
</event>
<event>
 6    1  0.8397183E-002  0.3000000E+03  0.7818608E-02  0.1093470E+00
         21   -1    0    0  501  502  0.00000000000E+00  0.00000000000E+00  0.10173676233E+01  0.10173676233E+01  0.00000000000E+00 0. -1.
         13   -1    0    0    0    0 -0.00000000000E+00 -0.00000000000E+00 -0.10000000000E+04  0.10000000000E+04  0.00000000000E+00 0.  1.
    9000005    2    1    2  501    0 -0.31605329396E+02  0.29538735300E+01 -0.53157529026E+03  0.53253338104E+03  0.34482601187E+01 0.  0.
         13    1    3    3    0    0 -0.11612442946E+02  0.25711729691E+01 -0.18560308866E+03  0.18598377962E+03  0.00000000000E+00 0.  1.
          3    1    3    3  501    0 -0.19992886450E+02  0.38270056092E+00 -0.34597220159E+03  0.34654960142E+03  0.00000000000E+00 0.  1.
         -3    1    1    2    0  502  0.31605329396E+02 -0.29538735300E+01 -0.46740734212E+03  0.46848398658E+03  0.00000000000E+00 0. -1.
<mgrwt>
<rscale>  1 0.30000000E+03</rscale>
<asrwt>0</asrwt>
<pdfrwt beam="1">  1       21 0.36995264E-02 0.30000000E+03</pdfrwt>
<pdfrwt beam="2">0</pdfrwt>
<totfact> 0.47945738E+04</totfact>
</mgrwt>
</event>
<event>
 6    1  0.8397183E-002  0.3000000E+03  0.7818608E-02  0.1093470E+00
         21   -1    0    0  501  502  0.00000000000E+00  0.00000000000E+00  0.14949570979E+01  0.14949570979E+01  0.00000000000E+00 0. -1.
         13   -1    0    0    0    0 -0.00000000000E+00 -0.00000000000E+00 -0.10000000000E+04  0.10000000000E+04  0.00000000000E+00 0.  1.
    9000005    2    1    2  501    0  0.24501785493E+02 -0.17523591730E+02 -0.81252561496E+03  0.81309176875E+03  0.35966226562E+01 0.  0.
         13    1    3    3    0    0  0.14643786704E+02 -0.10875832909E+02 -0.44442474884E+03  0.44479892268E+03  0.00000000000E+00 0.  1.
          1    1    3    3  501    0  0.98579987891E+01 -0.66477588205E+01 -0.36810086612E+03  0.36829284608E+03  0.00000000000E+00 0.  1.
         -1    1    1    2    0  502 -0.24501785493E+02  0.17523591730E+02 -0.18597942795E+03  0.18840318834E+03  0.00000000000E+00 0. -1.
<mgrwt>
<rscale>  1 0.30000000E+03</rscale>
<asrwt>0</asrwt>
<pdfrwt beam="1">  1       21 0.54362191E-02 0.30000000E+03</pdfrwt>
<pdfrwt beam="2">0</pdfrwt>
<totfact> 0.24968360E+04</totfact>
</mgrwt>
</event>
<event>
 6    1  0.8397183E-002  0.3000000E+03  0.7818608E-02  0.1093470E+00
         21   -1    0    0  501  502  0.00000000000E+00  0.00000000000E+00  0.15314736948E+01  0.15314736948E+01  0.00000000000E+00 0. -1.
         13   -1    0    0    0    0 -0.00000000000E+00 -0.00000000000E+00 -0.10000000000E+04  0.10000000000E+04  0.00000000000E+00 0.  1.
    9000005    2    1    2  501    0 -0.15012337957E+02 -0.32962766261E+02 -0.31475099005E+03  0.31685521178E+03  0.41382656371E+01 0.  0.
         13    1    3    3    0    0 -0.13522749893E+02 -0.27908838227E+02 -0.25700426964E+03  0.25886862041E+03  0.00000000000E+00 0.  1.
          1    1    3    3  501    0 -0.14895880640E+01 -0.50539280342E+01 -0.57746720408E+02  0.57986591373E+02  0.00000000000E+00 0.  1.
         -3    1    1    2    0  502  0.15012337957E+02  0.32962766261E+02 -0.68371753625E+03  0.68467626192E+03  0.00000000000E+00 0. -1.
<mgrwt>
<rscale>  1 0.30000000E+03</rscale>
<asrwt>0</asrwt>
<pdfrwt beam="1">  1       21 0.55690070E-02 0.30000000E+03</pdfrwt>
<pdfrwt beam="2">0</pdfrwt>
<totfact> 0.23956213E+04</totfact>
</mgrwt>
</event>
<event>
 6    1  0.8397183E-002  0.3000000E+03  0.7818608E-02  0.1093470E+00
         21   -1    0    0  501  502  0.00000000000E+00  0.00000000000E+00  0.17007055501E+02  0.17007055501E+02  0.00000000000E+00 0. -1.
         13   -1    0    0    0    0 -0.00000000000E+00 -0.00000000000E+00 -0.10000000000E+04  0.10000000000E+04  0.00000000000E+00 0.  1.
    9000005    2    1    2  501    0  0.11103059274E+03  0.68015423378E+02 -0.51853380789E+03  0.53464186198E+03  0.32741894303E+01 0.  0.
         13    1    3    3    0    0  0.11480182959E+02  0.65500649586E+01 -0.56433826204E+02  0.57960975593E+02  0.00000000000E+00 0.  1.
          1    1    3    3  501    0  0.99550409777E+02  0.61465358419E+02 -0.46209998169E+03  0.47668088639E+03  0.00000000000E+00 0.  1.
         -1    1    1    2    0  502 -0.11103059274E+03 -0.68015423378E+02 -0.46445913660E+03  0.48236519352E+03  0.00000000000E+00 0. -1.
<mgrwt>
<rscale>  1 0.30000000E+03</rscale>
<asrwt>0</asrwt>
<pdfrwt beam="1">  1       21 0.61843969E-01 0.30000000E+03</pdfrwt>
<pdfrwt beam="2">0</pdfrwt>
<totfact> 0.23454112E+02</totfact>
</mgrwt>
</event>
<event>
 6    1  0.8397183E-002  0.3000000E+03  0.7818608E-02  0.1093470E+00
         21   -1    0    0  501  502  0.00000000000E+00  0.00000000000E+00  0.19425484780E+01  0.19425484780E+01  0.00000000000E+00 0. -1.
         13   -1    0    0    0    0 -0.00000000000E+00 -0.00000000000E+00 -0.10000000000E+04  0.10000000000E+04  0.00000000000E+00 0.  1.
    9000005    2    1    2  501    0 -0.87032888261E+01 -0.43113043953E+02 -0.48153207574E+03  0.48354796361E+03  0.33183351656E+01 0.  0.
         13    1    3    3    0    0 -0.47659814541E+01 -0.31140509538E+02 -0.34560852395E+03  0.34704134875E+03  0.00000000000E+00 0.  1.
          1    1    3    3  501    0 -0.39373073720E+01 -0.11972534415E+02 -0.13592355179E+03  0.13650661486E+03  0.00000000000E+00 0.  1.
         -3    1    1    2    0  502  0.87032888261E+01  0.43113043953E+02 -0.51652537578E+03  0.51839458486E+03  0.00000000000E+00 0. -1.
<mgrwt>
<rscale>  1 0.30000000E+03</rscale>
<asrwt>0</asrwt>
<pdfrwt beam="1">  1       21 0.70638275E-02 0.30000000E+03</pdfrwt>
<pdfrwt beam="2">0</pdfrwt>
<totfact> 0.15882310E+04</totfact>
</mgrwt>
</event>
<event>
 6    1  0.8397183E-002  0.3000000E+03  0.7818608E-02  0.1093470E+00
         21   -1    0    0  501  502  0.00000000000E+00  0.00000000000E+00  0.47422128905E+01  0.47422128905E+01  0.00000000000E+00 0. -1.
         13   -1    0    0    0    0 -0.00000000000E+00 -0.00000000000E+00 -0.10000000000E+04  0.10000000000E+04  0.00000000000E+00 0.  1.
    9000005    2    1    2  501    0 -0.42389646640E+02  0.24776976416E+02 -0.14616947682E+03  0.15423545844E+03  0.35042806018E+01 0.  0.
         13    1    3    3    0    0 -0.32376384302E+02  0.19564807651E+02 -0.10811763779E+03  0.11454446980E+03  0.00000000000E+00 0.  1.
          1    1    3    3  501    0 -0.10013262338E+02  0.52121687651E+01 -0.38051839030E+02  0.39690988642E+02  0.00000000000E+00 0.  1.
         -1    1    1    2    0  502  0.42389646640E+02 -0.24776976416E+02 -0.84908831029E+03  0.85050675445E+03  0.00000000000E+00 0. -1.
<mgrwt>
<rscale>  1 0.30000000E+03</rscale>
<asrwt>0</asrwt>
<pdfrwt beam="1">  1       21 0.17244447E-01 0.30000000E+03</pdfrwt>
<pdfrwt beam="2">0</pdfrwt>
<totfact> 0.31754098E+03</totfact>
</mgrwt>
</event>
<event>
 6    1  0.8397183E-002  0.3000000E+03  0.7818608E-02  0.1093470E+00
         21   -1    0    0  501  502  0.00000000000E+00  0.00000000000E+00  0.10811700957E+01  0.10811700957E+01  0.00000000000E+00 0. -1.
         13   -1    0    0    0    0 -0.00000000000E+00 -0.00000000000E+00 -0.10000000000E+04  0.10000000000E+04  0.00000000000E+00 0.  1.
    9000005    2    1    2  501    0 -0.32089944821E+02 -0.46109772932E-01 -0.39709254957E+03  0.39839996217E+03  0.32047229267E+01 0.  0.
         13    1    3    3    0    0 -0.12746887296E+02 -0.95163226990E+00 -0.17372724781E+03  0.17419685810E+03  0.00000000000E+00 0.  1.
          3    1    3    3  501    0 -0.19343057524E+02  0.90552249696E+00 -0.22336530176E+03  0.22420310407E+03  0.00000000000E+00 0.  1.
         -3    1    1    2    0  502  0.32089944821E+02  0.46109772932E-01 -0.60182628033E+03  0.60268120792E+03  0.00000000000E+00 0. -1.
<mgrwt>
<rscale>  1 0.30000000E+03</rscale>
<asrwt>0</asrwt>
<pdfrwt beam="1">  1       21 0.39315359E-02 0.30000000E+03</pdfrwt>
<pdfrwt beam="2">0</pdfrwt>
<totfact> 0.43287194E+04</totfact>
</mgrwt>
</event>
<event>
 6    1  0.1111049E-001  0.3000000E+03  0.7818608E-02  0.1093470E+00
         21   -1    0    0  501  502  0.00000000000E+00  0.00000000000E+00  0.19590525745E+01  0.19590525745E+01  0.00000000000E+00 0. -1.
         13   -1    0    0    0    0 -0.00000000000E+00 -0.00000000000E+00 -0.10000000000E+04  0.10000000000E+04  0.00000000000E+00 0.  1.
    9000005    2    1    2  501    0  0.39053223714E+02 -0.18762034540E+02 -0.44518060939E+03  0.44740362559E+03  0.10347028268E+02 0.  0.
         13    1    3    3    0    0  0.87263147920E+01 -0.42329646661E+01 -0.15011491724E+03  0.15042790611E+03  0.00000000000E+00 0.  1.
          1    1    3    3  501    0  0.30326908922E+02 -0.14529069874E+02 -0.29506569215E+03  0.29697571948E+03  0.00000000000E+00 0.  1.
         -3    1    1    2    0  502 -0.39053223714E+02  0.18762034540E+02 -0.55286033803E+03  0.55455542698E+03  0.00000000000E+00 0. -1.
<mgrwt>
<rscale>  1 0.30000000E+03</rscale>
<asrwt>0</asrwt>
<pdfrwt beam="1">  1       21 0.71238426E-02 0.30000000E+03</pdfrwt>
<pdfrwt beam="2">0</pdfrwt>
<totfact> 0.15649923E+04</totfact>
</mgrwt>
</event>
<event>
 6    1  0.8397183E-002  0.3000000E+03  0.7818608E-02  0.1093470E+00
         21   -1    0    0  501  502  0.00000000000E+00  0.00000000000E+00  0.13102640631E+01  0.13102640631E+01  0.00000000000E+00 0. -1.
         13   -1    0    0    0    0 -0.00000000000E+00 -0.00000000000E+00 -0.10000000000E+04  0.10000000000E+04  0.00000000000E+00 0.  1.
    9000005    2    1    2  501    0 -0.20923224786E+02  0.29231899746E+02 -0.55028125357E+03  0.55146312074E+03  0.31353159988E+01 0.  0.
         13    1    3    3    0    0 -0.19132287363E+01  0.45025765454E+01 -0.73225819527E+02  0.73389061073E+02  0.00000000000E+00 0.  1.
          1    1    3    3  501    0 -0.19009996050E+02  0.24729323200E+02 -0.47705543404E+03  0.47807405967E+03  0.00000000000E+00 0.  1.
         -1    1    1    2    0  502  0.20923224786E+02 -0.29231899746E+02 -0.44840848237E+03  0.44984714332E+03  0.00000000000E+00 0. -1.
<mgrwt>
<rscale>  1 0.30000000E+03</rscale>
<asrwt>0</asrwt>
<pdfrwt beam="1">  1       21 0.47646066E-02 0.30000000E+03</pdfrwt>
<pdfrwt beam="2">0</pdfrwt>
<totfact> 0.31269810E+04</totfact>
</mgrwt>
</event>
<event>
 6    1  0.8397183E-002  0.3000000E+03  0.7818608E-02  0.1093470E+00
         21   -1    0    0  501  502  0.00000000000E+00  0.00000000000E+00  0.49004085864E+01  0.49004085864E+01  0.00000000000E+00 0. -1.
         13   -1    0    0    0    0 -0.00000000000E+00 -0.00000000000E+00 -0.10000000000E+04  0.10000000000E+04  0.00000000000E+00 0.  1.
    9000005    2    1    2  501    0 -0.35348592627E+02  0.30170270912E+02 -0.87321159068E+03  0.87445328148E+03  0.32079815370E+01 0.  0.
         13    1    3    3    0    0 -0.32687949699E+02  0.28176178592E+02 -0.82418648663E+03  0.82531555410E+03  0.00000000000E+00 0.  1.
          1    1    3    3  501    0 -0.26606429279E+01  0.19940923198E+01 -0.49025104041E+02  0.49137727371E+02  0.00000000000E+00 0.  1.
         -3    1    1    2    0  502  0.35348592627E+02 -0.30170270912E+02 -0.12188800074E+03  0.13044712711E+03  0.00000000000E+00 0. -1.
<mgrwt>
<rscale>  1 0.30000000E+03</rscale>
<asrwt>0</asrwt>
<pdfrwt beam="1">  1       21 0.17819705E-01 0.30000000E+03</pdfrwt>
<pdfrwt beam="2">0</pdfrwt>
<totfact> 0.29855965E+03</totfact>
</mgrwt>
</event>
<event>
 6    1  0.8397183E-002  0.3000000E+03  0.7818608E-02  0.1093470E+00
         21   -1    0    0  501  502  0.00000000000E+00  0.00000000000E+00  0.12637478078E+01  0.12637478078E+01  0.00000000000E+00 0. -1.
         13   -1    0    0    0    0 -0.00000000000E+00 -0.00000000000E+00 -0.10000000000E+04  0.10000000000E+04  0.00000000000E+00 0.  1.
    9000005    2    1    2  501    0 -0.11719838457E+02 -0.32322177023E+02 -0.38620121270E+03  0.38776456090E+03  0.52820688752E+01 0.  0.
         13    1    3    3    0    0 -0.11609108943E+02 -0.28296217312E+02 -0.32735736040E+03  0.32878304204E+03  0.00000000000E+00 0.  1.
          3    1    3    3  501    0 -0.11072951436E+00 -0.40259597113E+01 -0.58843852305E+02  0.58981518857E+02  0.00000000000E+00 0.  1.
         -3    1    1    2    0  502  0.11719838457E+02  0.32322177023E+02 -0.61253503949E+03  0.61349918691E+03  0.00000000000E+00 0. -1.
<mgrwt>
<rscale>  1 0.30000000E+03</rscale>
<asrwt>0</asrwt>
<pdfrwt beam="1">  1       21 0.45954563E-02 0.30000000E+03</pdfrwt>
<pdfrwt beam="2">0</pdfrwt>
<totfact> 0.33251566E+04</totfact>
</mgrwt>
</event>
<event>
 6    1  0.8397183E-002  0.3000000E+03  0.7818608E-02  0.1093470E+00
         21   -1    0    0  501  502  0.00000000000E+00  0.00000000000E+00  0.13226954084E+01  0.13226954084E+01  0.00000000000E+00 0. -1.
         13   -1    0    0    0    0 -0.00000000000E+00 -0.00000000000E+00 -0.10000000000E+04  0.10000000000E+04  0.00000000000E+00 0.  1.
    9000005    2    1    2  501    0  0.28934824849E+02  0.16052607137E+02 -0.29506392966E+03  0.29693168775E+03  0.32854710109E+01 0.  0.
         13    1    3    3    0    0  0.62876295325E+01  0.47647107176E+01 -0.62887478578E+02  0.63380373265E+02  0.00000000000E+00 0.  1.
          3    1    3    3  501    0  0.22647195316E+02  0.11287896420E+02 -0.23217645108E+03  0.23355131449E+03  0.00000000000E+00 0.  1.
         -3    1    1    2    0  502 -0.28934824849E+02 -0.16052607137E+02 -0.70361337493E+03  0.70439100766E+03  0.00000000000E+00 0. -1.
<mgrwt>
<rscale>  1 0.30000000E+03</rscale>
<asrwt>0</asrwt>
<pdfrwt beam="1">  1       21 0.48098116E-02 0.30000000E+03</pdfrwt>
<pdfrwt beam="2">0</pdfrwt>
<totfact> 0.30771430E+04</totfact>
</mgrwt>
</event>
<event>
 6    1  0.8397183E-002  0.3000000E+03  0.7818608E-02  0.1093470E+00
         21   -1    0    0  501  502  0.00000000000E+00  0.00000000000E+00  0.14000509636E+01  0.14000509636E+01  0.00000000000E+00 0. -1.
         13   -1    0    0    0    0 -0.00000000000E+00 -0.00000000000E+00 -0.10000000000E+04  0.10000000000E+04  0.00000000000E+00 0.  1.
    9000005    2    1    2  501    0  0.34637078198E+02 -0.12155914068E+02 -0.40887925560E+03  0.41053797764E+03  0.34193546678E+01 0.  0.
         13    1    3    3    0    0  0.26023598328E+02 -0.10631194406E+02 -0.30807528548E+03  0.30935518662E+03  0.00000000000E+00 0.  1.
          3    1    3    3  501    0  0.86134798699E+01 -0.15247196624E+01 -0.10080397012E+03  0.10118279102E+03  0.00000000000E+00 0.  1.
         -1    1    1    2    0  502 -0.34637078198E+02  0.12155914068E+02 -0.58972069343E+03  0.59086207333E+03  0.00000000000E+00 0. -1.
<mgrwt>
<rscale>  1 0.30000000E+03</rscale>
<asrwt>0</asrwt>
<pdfrwt beam="1">  1       21 0.50911051E-02 0.30000000E+03</pdfrwt>
<pdfrwt beam="2">0</pdfrwt>
<totfact> 0.27931098E+04</totfact>
</mgrwt>
</event>
<event>
 6    1  0.2518858E-001  0.3000000E+03  0.7818608E-02  0.1093470E+00
         21   -1    0    0  501  502  0.00000000000E+00  0.00000000000E+00  0.18995245252E+01  0.18995245252E+01  0.00000000000E+00 0. -1.
         13   -1    0    0    0    0 -0.00000000000E+00 -0.00000000000E+00 -0.10000000000E+04  0.10000000000E+04  0.00000000000E+00 0.  1.
    9000005    2    1    2  501    0  0.23958244092E+02  0.34625559221E+02 -0.60202274945E+03  0.60358998175E+03  0.10795758634E+02 0.  0.
         13    1    3    3    0    0  0.24130603760E+02  0.34990676082E+02 -0.60081340526E+03  0.60231501840E+03  0.00000000000E+00 0.  1.
          3    1    3    3  501    0 -0.17235966736E+00 -0.36511686115E+00 -0.12093441857E+01  0.12749633472E+01  0.00000000000E+00 0.  1.
         -1    1    1    2    0  502 -0.23958244092E+02 -0.34625559221E+02 -0.39607772603E+03  0.39830954277E+03  0.00000000000E+00 0. -1.
<mgrwt>
<rscale>  1 0.30000000E+03</rscale>
<asrwt>0</asrwt>
<pdfrwt beam="1">  1       21 0.69073765E-02 0.30000000E+03</pdfrwt>
<pdfrwt beam="2">0</pdfrwt>
<totfact> 0.16513496E+04</totfact>
</mgrwt>
</event>
<event>
 6    1  0.8397183E-002  0.3000000E+03  0.7818608E-02  0.1093470E+00
         21   -1    0    0  501  502  0.00000000000E+00  0.00000000000E+00  0.18196541824E+01  0.18196541824E+01  0.00000000000E+00 0. -1.
         13   -1    0    0    0    0 -0.00000000000E+00 -0.00000000000E+00 -0.10000000000E+04  0.10000000000E+04  0.00000000000E+00 0.  1.
    9000005    2    1    2  501    0 -0.36765573535E+02  0.93697376437E+01 -0.72722854602E+03  0.72822437427E+03  0.31435239421E+01 0.  0.
         13    1    3    3    0    0 -0.21510725096E+02  0.38799778528E+01 -0.41897760460E+03  0.41954737358E+03  0.00000000000E+00 0.  1.
          3    1    3    3  501    0 -0.15254848439E+02  0.54897597909E+01 -0.30825094143E+03  0.30867700069E+03  0.00000000000E+00 0.  1.
         -3    1    1    2    0  502  0.36765573535E+02 -0.93697376437E+01 -0.27095179979E+03  0.27359527992E+03  0.00000000000E+00 0. -1.
<mgrwt>
<rscale>  1 0.30000000E+03</rscale>
<asrwt>0</asrwt>
<pdfrwt beam="1">  1       21 0.66169383E-02 0.30000000E+03</pdfrwt>
<pdfrwt beam="2">0</pdfrwt>
<totfact> 0.17791906E+04</totfact>
</mgrwt>
</event>
<event>
 6    1  0.8397183E-002  0.3000000E+03  0.7818608E-02  0.1093470E+00
         21   -1    0    0  501  502  0.00000000000E+00  0.00000000000E+00  0.14352068302E+01  0.14352068302E+01  0.00000000000E+00 0. -1.
         13   -1    0    0    0    0 -0.00000000000E+00 -0.00000000000E+00 -0.10000000000E+04  0.10000000000E+04  0.00000000000E+00 0.  1.
    9000005    2    1    2  501    0 -0.36152051009E+02  0.11022130208E+02 -0.47451530833E+03  0.47602458578E+03  0.24840059657E+01 0.  0.
         13    1    3    3    0    0 -0.17995990905E+01  0.36931710786E+00 -0.30295792149E+02  0.30351441052E+02  0.00000000000E+00 0.  1.
          3    1    3    3  501    0 -0.34352451918E+02  0.10652813100E+02 -0.44421951618E+03  0.44567314473E+03  0.00000000000E+00 0.  1.
         -3    1    1    2    0  502  0.36152051009E+02 -0.11022130208E+02 -0.52404948484E+03  0.52541062105E+03  0.00000000000E+00 0. -1.
<mgrwt>
<rscale>  1 0.30000000E+03</rscale>
<asrwt>0</asrwt>
<pdfrwt beam="1">  1       21 0.52189449E-02 0.30000000E+03</pdfrwt>
<pdfrwt beam="2">0</pdfrwt>
<totfact> 0.26773018E+04</totfact>
</mgrwt>
</event>
<event>
 6    1  0.8397183E-002  0.3000000E+03  0.7818608E-02  0.1093470E+00
         21   -1    0    0  501  502  0.00000000000E+00  0.00000000000E+00  0.39815985826E+01  0.39815985826E+01  0.00000000000E+00 0. -1.
         13   -1    0    0    0    0 -0.00000000000E+00 -0.00000000000E+00 -0.10000000000E+04  0.10000000000E+04  0.00000000000E+00 0.  1.
    9000005    2    1    2  501    0  0.52041970898E+02 -0.29419947083E+02 -0.33889253593E+03  0.34414199450E+03  0.34148863952E+01 0.  0.
         13    1    3    3    0    0  0.15927257351E+01 -0.81169779878E+00 -0.13995564760E+02  0.14109268640E+02  0.00000000000E+00 0.  1.
          1    1    3    3  501    0  0.50449245163E+02 -0.28608249284E+02 -0.32489697117E+03  0.33003272586E+03  0.00000000000E+00 0.  1.
         -1    1    1    2    0  502 -0.52041970898E+02  0.29419947083E+02 -0.65712586549E+03  0.65983960408E+03  0.00000000000E+00 0. -1.
<mgrwt>
<rscale>  1 0.30000000E+03</rscale>
<asrwt>0</asrwt>
<pdfrwt beam="1">  1       21 0.14478571E-01 0.30000000E+03</pdfrwt>
<pdfrwt beam="2">0</pdfrwt>
<totfact> 0.43961480E+03</totfact>
</mgrwt>
</event>
<event>
 6    1  0.8397183E-002  0.3000000E+03  0.7818608E-02  0.1093470E+00
         21   -1    0    0  501  502  0.00000000000E+00  0.00000000000E+00  0.15489508794E+01  0.15489508794E+01  0.00000000000E+00 0. -1.
         13   -1    0    0    0    0 -0.00000000000E+00 -0.00000000000E+00 -0.10000000000E+04  0.10000000000E+04  0.00000000000E+00 0.  1.
    9000005    2    1    2  501    0 -0.30295720227E+02  0.19987750693E+02 -0.30839515809E+03  0.31053920160E+03  0.31114884400E+01 0.  0.
         13    1    3    3    0    0 -0.19983506075E+02  0.11544499582E+02 -0.20064975991E+03  0.20197262720E+03  0.00000000000E+00 0.  1.
          3    1    3    3  501    0 -0.10312214152E+02  0.84432511106E+01 -0.10774539817E+03  0.10856657440E+03  0.00000000000E+00 0.  1.
         -3    1    1    2    0  502  0.30295720227E+02 -0.19987750693E+02 -0.69005589103E+03  0.69100974928E+03  0.00000000000E+00 0. -1.
<mgrwt>
<rscale>  1 0.30000000E+03</rscale>
<asrwt>0</asrwt>
<pdfrwt beam="1">  1       21 0.56325605E-02 0.30000000E+03</pdfrwt>
<pdfrwt beam="2">0</pdfrwt>
<totfact> 0.23493965E+04</totfact>
</mgrwt>
</event>
<event>
 6    1  0.8397183E-002  0.3000000E+03  0.7818608E-02  0.1093470E+00
         21   -1    0    0  501  502  0.00000000000E+00  0.00000000000E+00  0.19228863769E+01  0.19228863769E+01  0.00000000000E+00 0. -1.
         13   -1    0    0    0    0 -0.00000000000E+00 -0.00000000000E+00 -0.10000000000E+04  0.10000000000E+04  0.00000000000E+00 0.  1.
    9000005    2    1    2  501    0 -0.42989133537E+02 -0.38133509203E+01 -0.41547762359E+03  0.41772705189E+03  0.34098280826E+01 0.  0.
         13    1    3    3    0    0 -0.39783881043E+02 -0.44086936573E+01 -0.38248101069E+03  0.38456978211E+03  0.00000000000E+00 0.  1.
          1    1    3    3  501    0 -0.32052524936E+01  0.59534273699E+00 -0.32996612905E+02  0.33157269787E+02  0.00000000000E+00 0.  1.
         -3    1    1    2    0  502  0.42989133537E+02  0.38133509203E+01 -0.58259949003E+03  0.58419583448E+03  0.00000000000E+00 0. -1.
<mgrwt>
<rscale>  1 0.30000000E+03</rscale>
<asrwt>0</asrwt>
<pdfrwt beam="1">  1       21 0.69923288E-02 0.30000000E+03</pdfrwt>
<pdfrwt beam="2">0</pdfrwt>
<totfact> 0.16166105E+04</totfact>
</mgrwt>
</event>
<event>
 6    1  0.8397183E-002  0.3000000E+03  0.7818608E-02  0.1093470E+00
         21   -1    0    0  501  502  0.00000000000E+00  0.00000000000E+00  0.16081358730E+01  0.16081358730E+01  0.00000000000E+00 0. -1.
         13   -1    0    0    0    0 -0.00000000000E+00 -0.00000000000E+00 -0.10000000000E+04  0.10000000000E+04  0.00000000000E+00 0.  1.
    9000005    2    1    2  501    0  0.73689355978E+01  0.39202551435E+02 -0.54300093065E+03  0.54447353475E+03  0.32059484544E+01 0.  0.
         13    1    3    3    0    0  0.27293293346E+01  0.10542000976E+02 -0.16535830985E+03  0.16571648579E+03  0.00000000000E+00 0.  1.
          3    1    3    3  501    0  0.46396062633E+01  0.28660550459E+02 -0.37764262079E+03  0.37875704896E+03  0.00000000000E+00 0.  1.
         -1    1    1    2    0  502 -0.73689355978E+01 -0.39202551435E+02 -0.45539093348E+03  0.45713460112E+03  0.00000000000E+00 0. -1.
<mgrwt>
<rscale>  1 0.30000000E+03</rscale>
<asrwt>0</asrwt>
<pdfrwt beam="1">  1       21 0.58477791E-02 0.30000000E+03</pdfrwt>
<pdfrwt beam="2">0</pdfrwt>
<totfact> 0.22026070E+04</totfact>
</mgrwt>
</event>
<event>
 6    1  0.8397183E-002  0.3000000E+03  0.7818608E-02  0.1093470E+00
         21   -1    0    0  501  502  0.00000000000E+00  0.00000000000E+00  0.17784117395E+01  0.17784117395E+01  0.00000000000E+00 0. -1.
         13   -1    0    0    0    0 -0.00000000000E+00 -0.00000000000E+00 -0.10000000000E+04  0.10000000000E+04  0.00000000000E+00 0.  1.
    9000005    2    1    2  501    0  0.32338924546E+02  0.26108780742E+02 -0.42030246442E+03  0.42236665126E+03  0.34571712173E+01 0.  0.
         13    1    3    3    0    0  0.26552503511E+02  0.19870394547E+02 -0.34109623412E+03  0.34270469643E+03  0.00000000000E+00 0.  1.
          1    1    3    3  501    0  0.57864210350E+01  0.62383861947E+01 -0.79206230295E+02  0.79661954836E+02  0.00000000000E+00 0.  1.
         -3    1    1    2    0  502 -0.32338924546E+02 -0.26108780742E+02 -0.57791912385E+03  0.57941176048E+03  0.00000000000E+00 0. -1.
<mgrwt>
<rscale>  1 0.30000000E+03</rscale>
<asrwt>0</asrwt>
<pdfrwt beam="1">  1       21 0.64669654E-02 0.30000000E+03</pdfrwt>
<pdfrwt beam="2">0</pdfrwt>
<totfact> 0.18512617E+04</totfact>
</mgrwt>
</event>
<event>
 6    1  0.8397183E-002  0.3000000E+03  0.7818608E-02  0.1093470E+00
         21   -1    0    0  501  502  0.00000000000E+00  0.00000000000E+00  0.17846121849E+01  0.17846121849E+01  0.00000000000E+00 0. -1.
         13   -1    0    0    0    0 -0.00000000000E+00 -0.00000000000E+00 -0.10000000000E+04  0.10000000000E+04  0.00000000000E+00 0.  1.
    9000005    2    1    2  501    0  0.27546120605E+02 -0.31914342851E+02 -0.49429638372E+03  0.49610519128E+03  0.37592306262E+01 0.  0.
         13    1    3    3    0    0  0.22778686641E+02 -0.24040100036E+02 -0.38451510144E+03  0.38593867157E+03  0.00000000000E+00 0.  1.
          1    1    3    3  501    0  0.47674339635E+01 -0.78742428144E+01 -0.10978128228E+03  0.11016651971E+03  0.00000000000E+00 0.  1.
         -3    1    1    2    0  502 -0.27546120605E+02  0.31914342851E+02 -0.50391900410E+03  0.50567942091E+03  0.00000000000E+00 0. -1.
<mgrwt>
<rscale>  1 0.30000000E+03</rscale>
<asrwt>0</asrwt>
<pdfrwt beam="1">  1       21 0.64895125E-02 0.30000000E+03</pdfrwt>
<pdfrwt beam="2">0</pdfrwt>
<totfact> 0.18401417E+04</totfact>
</mgrwt>
</event>
<event>
 6    1  0.8397183E-002  0.3000000E+03  0.7818608E-02  0.1093470E+00
         21   -1    0    0  501  502  0.00000000000E+00  0.00000000000E+00  0.95604796259E+00  0.95604796259E+00  0.00000000000E+00 0. -1.
         13   -1    0    0    0    0 -0.00000000000E+00 -0.00000000000E+00 -0.10000000000E+04  0.10000000000E+04  0.00000000000E+00 0.  1.
    9000005    2    1    2  501    0 -0.24064295913E+02 -0.17998425638E+02 -0.61323854019E+03  0.61398208311E+03  0.30753117046E+01 0.  0.
         13    1    3    3    0    0 -0.14942962107E+02 -0.10728051847E+02 -0.34502482584E+03  0.34551485302E+03  0.00000000000E+00 0.  1.
          3    1    3    3  501    0 -0.91213338062E+01 -0.72703737910E+01 -0.26821371436E+03  0.26846723009E+03  0.00000000000E+00 0.  1.
         -3    1    1    2    0  502  0.24064295913E+02  0.17998425638E+02 -0.38580541185E+03  0.38697396485E+03  0.00000000000E+00 0. -1.
<mgrwt>
<rscale>  1 0.30000000E+03</rscale>
<asrwt>0</asrwt>
<pdfrwt beam="1">  1       21 0.34765454E-02 0.30000000E+03</pdfrwt>
<pdfrwt beam="2">0</pdfrwt>
<totfact> 0.53212417E+04</totfact>
</mgrwt>
</event>
<event>
 6    1  0.8397183E-002  0.3000000E+03  0.7818608E-02  0.1093470E+00
         21   -1    0    0  501  502  0.00000000000E+00  0.00000000000E+00  0.10710953145E+01  0.10710953145E+01  0.00000000000E+00 0. -1.
         13   -1    0    0    0    0 -0.00000000000E+00 -0.00000000000E+00 -0.10000000000E+04  0.10000000000E+04  0.00000000000E+00 0.  1.
    9000005    2    1    2  501    0  0.23846050692E+02 -0.21809408800E+02 -0.43214524204E+03  0.43336694288E+03  0.36211214234E+01 0.  0.
         13    1    3    3    0    0  0.64797857111E+00 -0.16530249795E+01 -0.21215095639E+02  0.21289261396E+02  0.00000000000E+00 0.  1.
          3    1    3    3  501    0  0.23198072120E+02 -0.20156383820E+02 -0.41093014640E+03  0.41207768148E+03  0.00000000000E+00 0.  1.
         -1    1    1    2    0  502 -0.23846050692E+02  0.21809408800E+02 -0.56678366265E+03  0.56770415244E+03  0.00000000000E+00 0. -1.
<mgrwt>
<rscale>  1 0.30000000E+03</rscale>
<asrwt>0</asrwt>
<pdfrwt beam="1">  1       21 0.38949003E-02 0.30000000E+03</pdfrwt>
<pdfrwt beam="2">0</pdfrwt>
<totfact> 0.43974340E+04</totfact>
</mgrwt>
</event>
<event>
 6    1  0.8397183E-002  0.3000000E+03  0.7818608E-02  0.1093470E+00
         21   -1    0    0  501  502  0.00000000000E+00  0.00000000000E+00  0.12037745133E+01  0.12037745133E+01  0.00000000000E+00 0. -1.
         13   -1    0    0    0    0 -0.00000000000E+00 -0.00000000000E+00 -0.10000000000E+04  0.10000000000E+04  0.00000000000E+00 0.  1.
    9000005    2    1    2  501    0 -0.33483827677E+01  0.33460050677E+02 -0.61976167968E+03  0.62068048538E+03  0.29897612705E+01 0.  0.
         13    1    3    3    0    0 -0.35241747439E+01  0.31583251088E+02 -0.59434388438E+03  0.59519288845E+03  0.00000000000E+00 0.  1.
          1    1    3    3  501    0  0.17579197628E+00  0.18767995893E+01 -0.25417795297E+02  0.25487596930E+02  0.00000000000E+00 0.  1.
         -1    1    1    2    0  502  0.33483827677E+01 -0.33460050677E+02 -0.37903454581E+03  0.38052328914E+03  0.00000000000E+00 0. -1.
<mgrwt>
<rscale>  1 0.30000000E+03</rscale>
<asrwt>0</asrwt>
<pdfrwt beam="1">  1       21 0.43773711E-02 0.30000000E+03</pdfrwt>
<pdfrwt beam="2">0</pdfrwt>
<totfact> 0.36110375E+04</totfact>
</mgrwt>
</event>
<event>
 6    1  0.8397183E-002  0.3000000E+03  0.7818608E-02  0.1093470E+00
         21   -1    0    0  501  502  0.00000000000E+00  0.00000000000E+00  0.99536278343E+00  0.99536278343E+00  0.00000000000E+00 0. -1.
         13   -1    0    0    0    0 -0.00000000000E+00 -0.00000000000E+00 -0.10000000000E+04  0.10000000000E+04  0.00000000000E+00 0.  1.
    9000005    2    1    2  501    0  0.24252212076E+02 -0.17961152412E+02 -0.64197404722E+03  0.64269156015E+03  0.33153281416E+01 0.  0.
         13    1    3    3    0    0  0.74768248088E+01 -0.61098486015E+01 -0.17527221797E+03  0.17553798322E+03  0.00000000000E+00 0.  1.
          3    1    3    3  501    0  0.16775387267E+02 -0.11851303810E+02 -0.46670182925E+03  0.46715357693E+03  0.00000000000E+00 0.  1.
         -3    1    1    2    0  502 -0.24252212076E+02  0.17961152412E+02 -0.35703059000E+03  0.35830380263E+03  0.00000000000E+00 0. -1.
<mgrwt>
<rscale>  1 0.30000000E+03</rscale>
<asrwt>0</asrwt>
<pdfrwt beam="1">  1       21 0.36195087E-02 0.30000000E+03</pdfrwt>
<pdfrwt beam="2">0</pdfrwt>
<totfact> 0.49737454E+04</totfact>
</mgrwt>
</event>
<event>
 6    1  0.8397183E-002  0.3000000E+03  0.7818608E-02  0.1093470E+00
         21   -1    0    0  501  502  0.00000000000E+00  0.00000000000E+00  0.55525023651E+01  0.55525023651E+01  0.00000000000E+00 0. -1.
         13   -1    0    0    0    0 -0.00000000000E+00 -0.00000000000E+00 -0.10000000000E+04  0.10000000000E+04  0.00000000000E+00 0.  1.
    9000005    2    1    2  501    0  0.32647642518E+02  0.57475945104E+02 -0.26671186852E+03  0.27482102041E+03  0.46925073978E+01 0.  0.
         13    1    3    3    0    0  0.10808608848E+02  0.20113116290E+02 -0.10129703359E+03  0.10383858862E+03  0.00000000000E+00 0.  1.
          1    1    3    3  501    0  0.21839033669E+02  0.37362828814E+02 -0.16541483493E+03  0.17098243179E+03  0.00000000000E+00 0.  1.
         -3    1    1    2    0  502 -0.32647642518E+02 -0.57475945104E+02 -0.72773562912E+03  0.73073148195E+03  0.00000000000E+00 0. -1.
<mgrwt>
<rscale>  1 0.30000000E+03</rscale>
<asrwt>0</asrwt>
<pdfrwt beam="1">  1       21 0.20190960E-01 0.30000000E+03</pdfrwt>
<pdfrwt beam="2">0</pdfrwt>
<totfact> 0.23560692E+03</totfact>
</mgrwt>
</event>
<event>
 6    1  0.8397183E-002  0.3000000E+03  0.7818608E-02  0.1093470E+00
         21   -1    0    0  501  502  0.00000000000E+00  0.00000000000E+00  0.11956264285E+01  0.11956264285E+01  0.00000000000E+00 0. -1.
         13   -1    0    0    0    0 -0.00000000000E+00 -0.00000000000E+00 -0.10000000000E+04  0.10000000000E+04  0.00000000000E+00 0.  1.
    9000005    2    1    2  501    0  0.11196130626E+02 -0.30071330864E+02 -0.68292399783E+03  0.68368964214E+03  0.40867683342E+01 0.  0.
         13    1    3    3    0    0  0.10184353059E+02 -0.27674026985E+02 -0.59913616407E+03  0.59986141392E+03  0.00000000000E+00 0.  1.
          3    1    3    3  501    0  0.10117775671E+01 -0.23973038794E+01 -0.83787833757E+02  0.83828228214E+02  0.00000000000E+00 0.  1.
         -3    1    1    2    0  502 -0.11196130626E+02  0.30071330864E+02 -0.31588037574E+03  0.31750598429E+03  0.00000000000E+00 0. -1.
<mgrwt>
<rscale>  1 0.30000000E+03</rscale>
<asrwt>0</asrwt>
<pdfrwt beam="1">  1       21 0.43477416E-02 0.30000000E+03</pdfrwt>
<pdfrwt beam="2">0</pdfrwt>
<totfact> 0.36527965E+04</totfact>
</mgrwt>
</event>
<event>
 6    1  0.8397183E-002  0.3000000E+03  0.7818608E-02  0.1093470E+00
         21   -1    0    0  501  502  0.00000000000E+00  0.00000000000E+00  0.16135956166E+01  0.16135956166E+01  0.00000000000E+00 0. -1.
         13   -1    0    0    0    0 -0.00000000000E+00 -0.00000000000E+00 -0.10000000000E+04  0.10000000000E+04  0.00000000000E+00 0.  1.
    9000005    2    1    2  501    0  0.32947740627E+02 -0.22556160880E+02 -0.45219775299E+03  0.45396738051E+03  0.30398609731E+01 0.  0.
         13    1    3    3    0    0  0.27165380449E+02 -0.19831969704E+02 -0.38489063432E+03  0.38635743206E+03  0.00000000000E+00 0.  1.
          3    1    3    3  501    0  0.57823601786E+01 -0.27241911761E+01 -0.67307118671E+02  0.67609948458E+02  0.00000000000E+00 0.  1.
         -1    1    1    2    0  502 -0.32947740627E+02  0.22556160880E+02 -0.54618865139E+03  0.54764621510E+03  0.00000000000E+00 0. -1.
<mgrwt>
<rscale>  1 0.30000000E+03</rscale>
<asrwt>0</asrwt>
<pdfrwt beam="1">  1       21 0.58676328E-02 0.30000000E+03</pdfrwt>
<pdfrwt beam="2">0</pdfrwt>
<totfact> 0.21897809E+04</totfact>
</mgrwt>
</event>
<event>
 6    1  0.8397183E-002  0.3000000E+03  0.7818608E-02  0.1093470E+00
         21   -1    0    0  501  502  0.00000000000E+00  0.00000000000E+00  0.15576888020E+02  0.15576888020E+02  0.00000000000E+00 0. -1.
         13   -1    0    0    0    0 -0.00000000000E+00 -0.00000000000E+00 -0.10000000000E+04  0.10000000000E+04  0.00000000000E+00 0.  1.
    9000005    2    1    2  501    0 -0.10638293644E+03 -0.65186955942E+02 -0.48428972519E+03  0.50011585848E+03  0.35588746461E+01 0.  0.
         13    1    3    3    0    0 -0.40140121157E+02 -0.25111685448E+02 -0.17713194299E+03  0.18335089664E+03  0.00000000000E+00 0.  1.
          3    1    3    3  501    0 -0.66242815286E+02 -0.40075270494E+02 -0.30715778220E+03  0.31676496184E+03  0.00000000000E+00 0.  1.
         -3    1    1    2    0  502  0.10638293644E+03  0.65186955942E+02 -0.50013338679E+03  0.51546102954E+03  0.00000000000E+00 0. -1.
<mgrwt>
<rscale>  1 0.30000000E+03</rscale>
<asrwt>0</asrwt>
<pdfrwt beam="1">  1       21 0.56643349E-01 0.30000000E+03</pdfrwt>
<pdfrwt beam="2">0</pdfrwt>
<totfact> 0.28560728E+02</totfact>
</mgrwt>
</event>
<event>
 6    1  0.8397183E-002  0.3000000E+03  0.7818608E-02  0.1093470E+00
         21   -1    0    0  501  502  0.00000000000E+00  0.00000000000E+00  0.20587618250E+01  0.20587618250E+01  0.00000000000E+00 0. -1.
         13   -1    0    0    0    0 -0.00000000000E+00 -0.00000000000E+00 -0.10000000000E+04  0.10000000000E+04  0.00000000000E+00 0.  1.
    9000005    2    1    2  501    0  0.24332448205E+02 -0.22792254022E+02 -0.83847276219E+03  0.83914237311E+03  0.34343172047E+01 0.  0.
         13    1    3    3    0    0  0.80738761752E+01 -0.61629768452E+01 -0.22571032463E+03  0.22593875366E+03  0.00000000000E+00 0.  1.
          1    1    3    3  501    0  0.16258572030E+02 -0.16629277177E+02 -0.61276243756E+03  0.61320361945E+03  0.00000000000E+00 0.  1.
         -3    1    1    2    0  502 -0.24332448205E+02  0.22792254022E+02 -0.15946847599E+03  0.16291638872E+03  0.00000000000E+00 0. -1.
<mgrwt>
<rscale>  1 0.30000000E+03</rscale>
<asrwt>0</asrwt>
<pdfrwt beam="1">  1       21 0.74864224E-02 0.30000000E+03</pdfrwt>
<pdfrwt beam="2">0</pdfrwt>
<totfact> 0.14349915E+04</totfact>
</mgrwt>
</event>
<event>
 6    1  0.8397183E-002  0.3000000E+03  0.7818608E-02  0.1093470E+00
         21   -1    0    0  501  502  0.00000000000E+00  0.00000000000E+00  0.17056974899E+01  0.17056974899E+01  0.00000000000E+00 0. -1.
         13   -1    0    0    0    0 -0.00000000000E+00 -0.00000000000E+00 -0.10000000000E+04  0.10000000000E+04  0.00000000000E+00 0.  1.
    9000005    2    1    2  501    0  0.80071285026E+01 -0.40077814418E+02 -0.56497519446E+03  0.56646347216E+03  0.36809798271E+01 0.  0.
         13    1    3    3    0    0  0.36149125697E+01 -0.13506899700E+02 -0.17294006768E+03  0.17350438306E+03  0.00000000000E+00 0.  1.
          3    1    3    3  501    0  0.43922159329E+01 -0.26570914719E+02 -0.39203512679E+03  0.39295908910E+03  0.00000000000E+00 0.  1.
         -3    1    1    2    0  502 -0.80071285026E+01  0.40077814418E+02 -0.43331910805E+03  0.43524222533E+03  0.00000000000E+00 0. -1.
<mgrwt>
<rscale>  1 0.30000000E+03</rscale>
<asrwt>0</asrwt>
<pdfrwt beam="1">  1       21 0.62025494E-02 0.30000000E+03</pdfrwt>
<pdfrwt beam="2">0</pdfrwt>
<totfact> 0.19898207E+04</totfact>
</mgrwt>
</event>
<event>
 6    1  0.8397183E-002  0.3000000E+03  0.7818608E-02  0.1093470E+00
         21   -1    0    0  501  502  0.00000000000E+00  0.00000000000E+00  0.13761588556E+01  0.13761588556E+01  0.00000000000E+00 0. -1.
         13   -1    0    0    0    0 -0.00000000000E+00 -0.00000000000E+00 -0.10000000000E+04  0.10000000000E+04  0.00000000000E+00 0.  1.
    9000005    2    1    2  501    0  0.18185849846E+02  0.31544872864E+02 -0.41996754031E+03  0.42157540115E+03  0.52230071463E+01 0.  0.
         13    1    3    3    0    0  0.61992359128E+00  0.33587277096E+01 -0.29206791004E+02  0.29405815714E+02  0.00000000000E+00 0.  1.
          1    1    3    3  501    0  0.17565926255E+02  0.28186145154E+02 -0.39076074930E+03  0.39216958544E+03  0.00000000000E+00 0.  1.
         -1    1    1    2    0  502 -0.18185849846E+02 -0.31544872864E+02 -0.57865630084E+03  0.57980075771E+03  0.00000000000E+00 0. -1.
<mgrwt>
<rscale>  1 0.30000000E+03</rscale>
<asrwt>0</asrwt>
<pdfrwt beam="1">  1       21 0.50042246E-02 0.30000000E+03</pdfrwt>
<pdfrwt beam="2">0</pdfrwt>
<totfact> 0.28763213E+04</totfact>
</mgrwt>
</event>
<event>
 6    1  0.8397183E-002  0.3000000E+03  0.7818608E-02  0.1093470E+00
         21   -1    0    0  501  502  0.00000000000E+00  0.00000000000E+00  0.34263078560E+01  0.34263078560E+01  0.00000000000E+00 0. -1.
         13   -1    0    0    0    0 -0.00000000000E+00 -0.00000000000E+00 -0.10000000000E+04  0.10000000000E+04  0.00000000000E+00 0.  1.
    9000005    2    1    2  501    0  0.26933624213E+02  0.23927231473E+02 -0.10356718913E+03  0.10969337966E+03  0.29227311574E+01 0.  0.
         13    1    3    3    0    0  0.58091981446E+01  0.56739628151E+01 -0.27026477752E+02  0.28220048490E+02  0.00000000000E+00 0.  1.
          3    1    3    3  501    0  0.21124426069E+02  0.18253268657E+02 -0.76540711377E+02  0.81473331167E+02  0.00000000000E+00 0.  1.
         -3    1    1    2    0  502 -0.26933624213E+02 -0.23927231473E+02 -0.89300650302E+03  0.89373292820E+03  0.00000000000E+00 0. -1.
<mgrwt>
<rscale>  1 0.30000000E+03</rscale>
<asrwt>0</asrwt>
<pdfrwt beam="1">  1       21 0.12459328E-01 0.30000000E+03</pdfrwt>
<pdfrwt beam="2">0</pdfrwt>
<totfact> 0.57879465E+03</totfact>
</mgrwt>
</event>
<event>
 6    1  0.8397183E-002  0.3000000E+03  0.7818608E-02  0.1093470E+00
         21   -1    0    0  501  502  0.00000000000E+00  0.00000000000E+00  0.15340355852E+01  0.15340355852E+01  0.00000000000E+00 0. -1.
         13   -1    0    0    0    0 -0.00000000000E+00 -0.00000000000E+00 -0.10000000000E+04  0.10000000000E+04  0.00000000000E+00 0.  1.
    9000005    2    1    2  501    0 -0.34098774771E+02  0.13969634729E+02 -0.33351832991E+03  0.33556614314E+03  0.35046968623E+01 0.  0.
         13    1    3    3    0    0 -0.17624915737E+02  0.69978438028E+01 -0.18734935049E+03  0.18830662920E+03  0.00000000000E+00 0.  1.
          3    1    3    3  501    0 -0.16473859034E+02  0.69717909262E+01 -0.14616897942E+03  0.14725951394E+03  0.00000000000E+00 0.  1.
         -3    1    1    2    0  502  0.34098774771E+02 -0.13969634729E+02 -0.66494763451E+03  0.66596789245E+03  0.00000000000E+00 0. -1.
<mgrwt>
<rscale>  1 0.30000000E+03</rscale>
<asrwt>0</asrwt>
<pdfrwt beam="1">  1       21 0.55783230E-02 0.30000000E+03</pdfrwt>
<pdfrwt beam="2">0</pdfrwt>
<totfact> 0.23887585E+04</totfact>
</mgrwt>
</event>
<event>
 6    1  0.8397183E-002  0.3000000E+03  0.7818608E-02  0.1093470E+00
         21   -1    0    0  501  502  0.00000000000E+00  0.00000000000E+00  0.25188853412E+01  0.25188853412E+01  0.00000000000E+00 0. -1.
         13   -1    0    0    0    0 -0.00000000000E+00 -0.00000000000E+00 -0.10000000000E+04  0.10000000000E+04  0.00000000000E+00 0.  1.
    9000005    2    1    2  501    0  0.35455371692E+01 -0.47353000888E+02 -0.33879032977E+03  0.34211868272E+03  0.33805313667E+01 0.  0.
         13    1    3    3    0    0  0.42407396624E+00 -0.27684074211E+02 -0.19904612607E+03  0.20096255399E+03  0.00000000000E+00 0.  1.
          1    1    3    3  501    0  0.31214632029E+01 -0.19668926677E+02 -0.13974420370E+03  0.14115612873E+03  0.00000000000E+00 0.  1.
         -3    1    1    2    0  502 -0.35455371692E+01  0.47353000888E+02 -0.65869078489E+03  0.66040020262E+03  0.00000000000E+00 0. -1.
<mgrwt>
<rscale>  1 0.30000000E+03</rscale>
<asrwt>0</asrwt>
<pdfrwt beam="1">  1       21 0.91596024E-02 0.30000000E+03</pdfrwt>
<pdfrwt beam="2">0</pdfrwt>
<totfact> 0.10059613E+04</totfact>
</mgrwt>
</event>
<event>
 6    1  0.8397183E-002  0.3000000E+03  0.7818608E-02  0.1093470E+00
         21   -1    0    0  501  502  0.00000000000E+00  0.00000000000E+00  0.12660055998E+01  0.12660055998E+01  0.00000000000E+00 0. -1.
         13   -1    0    0    0    0 -0.00000000000E+00 -0.00000000000E+00 -0.10000000000E+04  0.10000000000E+04  0.00000000000E+00 0.  1.
    9000005    2    1    2  501    0  0.17048640108E+02 -0.25037704145E+02 -0.25521423399E+03  0.25712947452E+03  0.79823981623E+01 0.  0.
         13    1    3    3    0    0  0.27799004245E+01 -0.94256187319E+01 -0.64179067440E+02  0.64927057783E+02  0.00000000000E+00 0.  1.
          3    1    3    3  501    0  0.14268739684E+02 -0.15612085413E+02 -0.19103516655E+03  0.19220241674E+03  0.00000000000E+00 0.  1.
         -3    1    1    2    0  502 -0.17048640108E+02  0.25037704145E+02 -0.74351976041E+03  0.74413653108E+03  0.00000000000E+00 0. -1.
<mgrwt>
<rscale>  1 0.30000000E+03</rscale>
<asrwt>0</asrwt>
<pdfrwt beam="1">  1       21 0.46036664E-02 0.30000000E+03</pdfrwt>
<pdfrwt beam="2">0</pdfrwt>
<totfact> 0.33150879E+04</totfact>
</mgrwt>
</event>
<event>
 6    1  0.8397183E-002  0.3000000E+03  0.7818608E-02  0.1093470E+00
         21   -1    0    0  501  502  0.00000000000E+00  0.00000000000E+00  0.11121045887E+01  0.11121045887E+01  0.00000000000E+00 0. -1.
         13   -1    0    0    0    0 -0.00000000000E+00 -0.00000000000E+00 -0.10000000000E+04  0.10000000000E+04  0.00000000000E+00 0.  1.
    9000005    2    1    2  501    0  0.16598755525E+02  0.27407164625E+02 -0.36560430121E+03  0.36701843482E+03  0.30586068415E+01 0.  0.
         13    1    3    3    0    0  0.40011448686E+01  0.74708410428E+01 -0.82819315096E+02  0.83251796251E+02  0.00000000000E+00 0.  1.
          1    1    3    3  501    0  0.12597610657E+02  0.19936323583E+02 -0.28278498611E+03  0.28376663856E+03  0.00000000000E+00 0.  1.
         -3    1    1    2    0  502 -0.16598755525E+02 -0.27407164625E+02 -0.63328359420E+03  0.63409366977E+03  0.00000000000E+00 0. -1.
<mgrwt>
<rscale>  1 0.30000000E+03</rscale>
<asrwt>0</asrwt>
<pdfrwt beam="1">  1       21 0.40440252E-02 0.30000000E+03</pdfrwt>
<pdfrwt beam="2">0</pdfrwt>
<totfact> 0.41279122E+04</totfact>
</mgrwt>
</event>
<event>
 6    1  0.8397183E-002  0.3000000E+03  0.7818608E-02  0.1093470E+00
         21   -1    0    0  501  502  0.00000000000E+00  0.00000000000E+00  0.14434431802E+01  0.14434431802E+01  0.00000000000E+00 0. -1.
         13   -1    0    0    0    0 -0.00000000000E+00 -0.00000000000E+00 -0.10000000000E+04  0.10000000000E+04  0.00000000000E+00 0.  1.
    9000005    2    1    2  501    0  0.68106797636E+01  0.35421866395E+02 -0.35369614393E+03  0.35557499985E+03  0.56146513196E+01 0.  0.
         13    1    3    3    0    0  0.63559618856E+01  0.25751755924E+02 -0.27794767176E+03  0.27921042141E+03  0.00000000000E+00 0.  1.
          3    1    3    3  501    0  0.45471787794E+00  0.96701104707E+01 -0.75748472169E+02  0.76364578443E+02  0.00000000000E+00 0.  1.
         -1    1    1    2    0  502 -0.68106797636E+01 -0.35421866395E+02 -0.64486041289E+03  0.64586844333E+03  0.00000000000E+00 0. -1.
<mgrwt>
<rscale>  1 0.30000000E+03</rscale>
<asrwt>0</asrwt>
<pdfrwt beam="1">  1       21 0.52488954E-02 0.30000000E+03</pdfrwt>
<pdfrwt beam="2">0</pdfrwt>
<totfact> 0.26512467E+04</totfact>
</mgrwt>
</event>
<event>
 6    1  0.8397183E-002  0.3000000E+03  0.7818608E-02  0.1093470E+00
         21   -1    0    0  501  502  0.00000000000E+00  0.00000000000E+00  0.10795107596E+01  0.10795107596E+01  0.00000000000E+00 0. -1.
         13   -1    0    0    0    0 -0.00000000000E+00 -0.00000000000E+00 -0.10000000000E+04  0.10000000000E+04  0.00000000000E+00 0.  1.
    9000005    2    1    2  501    0  0.27344894113E+02 -0.17892570362E+02 -0.54034666620E+03  0.54134280515E+03  0.31025319225E+01 0.  0.
         13    1    3    3    0    0  0.25946049328E+02 -0.17649103624E+02 -0.51217579511E+03  0.51313617435E+03  0.00000000000E+00 0.  1.
          3    1    3    3  501    0  0.13988447850E+01 -0.24346673815E+00 -0.28170871098E+02  0.28206630802E+02  0.00000000000E+00 0.  1.
         -3    1    1    2    0  502 -0.27344894113E+02  0.17892570362E+02 -0.45857382304E+03  0.45973670561E+03  0.00000000000E+00 0. -1.
<mgrwt>
<rscale>  1 0.30000000E+03</rscale>
<asrwt>0</asrwt>
<pdfrwt beam="1">  1       21 0.39255019E-02 0.30000000E+03</pdfrwt>
<pdfrwt beam="2">0</pdfrwt>
<totfact> 0.43399206E+04</totfact>
</mgrwt>
</event>
<event>
 6    1  0.8397183E-002  0.3000000E+03  0.7818608E-02  0.1093470E+00
         21   -1    0    0  501  502  0.00000000000E+00  0.00000000000E+00  0.19302218280E+01  0.19302218280E+01  0.00000000000E+00 0. -1.
         13   -1    0    0    0    0 -0.00000000000E+00 -0.00000000000E+00 -0.10000000000E+04  0.10000000000E+04  0.00000000000E+00 0.  1.
    9000005    2    1    2  501    0  0.74187736026E+01  0.37675348471E+02 -0.74172538454E+03  0.74272582713E+03  0.32616147316E+01 0.  0.
         13    1    3    3    0    0  0.61218074442E+01  0.24912492117E+02 -0.47542566848E+03  0.47611729127E+03  0.00000000000E+00 0.  1.
          3    1    3    3  501    0  0.12969661583E+01  0.12762856354E+02 -0.26629971606E+03  0.26660853587E+03  0.00000000000E+00 0.  1.
         -3    1    1    2    0  502 -0.74187736026E+01 -0.37675348471E+02 -0.25634439363E+03  0.25920439469E+03  0.00000000000E+00 0. -1.
<mgrwt>
<rscale>  1 0.30000000E+03</rscale>
<asrwt>0</asrwt>
<pdfrwt beam="1">  1       21 0.70190033E-02 0.30000000E+03</pdfrwt>
<pdfrwt beam="2">0</pdfrwt>
<totfact> 0.16059329E+04</totfact>
</mgrwt>
</event>
<event>
 6    1  0.8397183E-002  0.3000000E+03  0.7818608E-02  0.1093470E+00
         21   -1    0    0  501  502  0.00000000000E+00  0.00000000000E+00  0.97808983082E+00  0.97808983082E+00  0.00000000000E+00 0. -1.
         13   -1    0    0    0    0 -0.00000000000E+00 -0.00000000000E+00 -0.10000000000E+04  0.10000000000E+04  0.00000000000E+00 0.  1.
    9000005    2    1    2  501    0  0.17875773408E+02  0.25412259896E+02 -0.45331256671E+03  0.45438499276E+03  0.28482063458E+01 0.  0.
         13    1    3    3    0    0  0.97920272366E+01  0.14953104176E+02 -0.27894981060E+03  0.27952187026E+03  0.00000000000E+00 0.  1.
          1    1    3    3  501    0  0.80837461717E+01  0.10459155720E+02 -0.17436275611E+03  0.17486312249E+03  0.00000000000E+00 0.  1.
         -1    1    1    2    0  502 -0.17875773408E+02 -0.25412259896E+02 -0.54570934346E+03  0.54659309707E+03  0.00000000000E+00 0. -1.
<mgrwt>
<rscale>  1 0.30000000E+03</rscale>
<asrwt>0</asrwt>
<pdfrwt beam="1">  1       21 0.35566978E-02 0.30000000E+03</pdfrwt>
<pdfrwt beam="2">0</pdfrwt>
<totfact> 0.51219058E+04</totfact>
</mgrwt>
</event>
<event>
 6    1  0.8397183E-002  0.3000000E+03  0.7818608E-02  0.1093470E+00
         21   -1    0    0  501  502  0.00000000000E+00  0.00000000000E+00  0.21032427680E+01  0.21032427680E+01  0.00000000000E+00 0. -1.
         13   -1    0    0    0    0 -0.00000000000E+00 -0.00000000000E+00 -0.10000000000E+04  0.10000000000E+04  0.00000000000E+00 0.  1.
    9000005    2    1    2  501    0  0.37457863625E+02 -0.23134834421E+02 -0.36193513376E+03  0.36461951855E+03  0.34698916765E+01 0.  0.
         13    1    3    3    0    0  0.19319996932E+02 -0.13252971540E+02 -0.18143472996E+03  0.18294115112E+03  0.00000000000E+00 0.  1.
          1    1    3    3  501    0  0.18137866693E+02 -0.98818628810E+01 -0.18050040380E+03  0.18167836744E+03  0.00000000000E+00 0.  1.
         -1    1    1    2    0  502 -0.37457863625E+02  0.23134834421E+02 -0.63596162347E+03  0.63748372421E+03  0.00000000000E+00 0. -1.
<mgrwt>
<rscale>  1 0.30000000E+03</rscale>
<asrwt>0</asrwt>
<pdfrwt beam="1">  1       21 0.76481716E-02 0.30000000E+03</pdfrwt>
<pdfrwt beam="2">0</pdfrwt>
<totfact> 0.13822582E+04</totfact>
</mgrwt>
</event>
<event>
 6    1  0.8397183E-002  0.3000000E+03  0.7818608E-02  0.1093470E+00
         21   -1    0    0  501  502  0.00000000000E+00  0.00000000000E+00  0.96106173826E+00  0.96106173826E+00  0.00000000000E+00 0. -1.
         13   -1    0    0    0    0 -0.00000000000E+00 -0.00000000000E+00 -0.10000000000E+04  0.10000000000E+04  0.00000000000E+00 0.  1.
    9000005    2    1    2  501    0 -0.10406988402E+02 -0.29001592981E+02 -0.45883735359E+03  0.45988144663E+03  0.31352994464E+01 0.  0.
         13    1    3    3    0    0 -0.52479731569E+01 -0.18975474307E+02 -0.28667848480E+03  0.28735372539E+03  0.00000000000E+00 0.  1.
          1    1    3    3  501    0 -0.51590152454E+01 -0.10026118674E+02 -0.17215886878E+03  0.17252772123E+03  0.00000000000E+00 0.  1.
         -1    1    1    2    0  502  0.10406988402E+02  0.29001592981E+02 -0.54020158468E+03  0.54107961511E+03  0.00000000000E+00 0. -1.
<mgrwt>
<rscale>  1 0.30000000E+03</rscale>
<asrwt>0</asrwt>
<pdfrwt beam="1">  1       21 0.34947773E-02 0.30000000E+03</pdfrwt>
<pdfrwt beam="2">0</pdfrwt>
<totfact> 0.52748533E+04</totfact>
</mgrwt>
</event>
<event>
 6    1  0.8397183E-002  0.3000000E+03  0.7818608E-02  0.1093470E+00
         21   -1    0    0  501  502  0.00000000000E+00  0.00000000000E+00  0.25416950209E+01  0.25416950209E+01  0.00000000000E+00 0. -1.
         13   -1    0    0    0    0 -0.00000000000E+00 -0.00000000000E+00 -0.10000000000E+04  0.10000000000E+04  0.00000000000E+00 0.  1.
    9000005    2    1    2  501    0  0.16237558424E+02  0.31036899933E+02 -0.13927604824E+03  0.14364488326E+03  0.30145338143E+01 0.  0.
         13    1    3    3    0    0  0.15668817128E+02  0.28384441575E+02 -0.12982109237E+03  0.13380846153E+03  0.00000000000E+00 0.  1.
          3    1    3    3  501    0  0.56874129612E+00  0.26524583575E+01 -0.94549558641E+01  0.98364217270E+01  0.00000000000E+00 0.  1.
         -1    1    1    2    0  502 -0.16237558424E+02 -0.31036899933E+02 -0.85818225674E+03  0.85889681176E+03  0.00000000000E+00 0. -1.
<mgrwt>
<rscale>  1 0.30000000E+03</rscale>
<asrwt>0</asrwt>
<pdfrwt beam="1">  1       21 0.92425468E-02 0.30000000E+03</pdfrwt>
<pdfrwt beam="2">0</pdfrwt>
<totfact> 0.98998943E+03</totfact>
</mgrwt>
</event>
<event>
 6    1  0.8397183E-002  0.3000000E+03  0.7818608E-02  0.1093470E+00
         21   -1    0    0  501  502  0.00000000000E+00  0.00000000000E+00  0.11116468263E+01  0.11116468263E+01  0.00000000000E+00 0. -1.
         13   -1    0    0    0    0 -0.00000000000E+00 -0.00000000000E+00 -0.10000000000E+04  0.10000000000E+04  0.00000000000E+00 0.  1.
    9000005    2    1    2  501    0 -0.98178824082E+01  0.30859665904E+02 -0.61463087823E+03  0.61549199374E+03  0.32508602234E+01 0.  0.
         13    1    3    3    0    0  0.37506532236E-01  0.14488755860E+01 -0.19836783169E+02  0.19889660975E+02  0.00000000000E+00 0.  1.
          3    1    3    3  501    0 -0.98553889405E+01  0.29410790318E+02 -0.59479409506E+03  0.59560233277E+03  0.00000000000E+00 0.  1.
         -3    1    1    2    0  502  0.98178824082E+01 -0.30859665904E+02 -0.38425747494E+03  0.38561965309E+03  0.00000000000E+00 0. -1.
<mgrwt>
<rscale>  1 0.30000000E+03</rscale>
<asrwt>0</asrwt>
<pdfrwt beam="1">  1       21 0.40423606E-02 0.30000000E+03</pdfrwt>
<pdfrwt beam="2">0</pdfrwt>
<totfact> 0.41307768E+04</totfact>
</mgrwt>
</event>
<event>
 6    1  0.8397183E-002  0.3000000E+03  0.7818608E-02  0.1093470E+00
         21   -1    0    0  501  502  0.00000000000E+00  0.00000000000E+00  0.10212287409E+01  0.10212287409E+01  0.00000000000E+00 0. -1.
         13   -1    0    0    0    0 -0.00000000000E+00 -0.00000000000E+00 -0.10000000000E+04  0.10000000000E+04  0.00000000000E+00 0.  1.
    9000005    2    1    2  501    0  0.85077741929E+01 -0.30668894073E+02 -0.47079968806E+03  0.47188409414E+03  0.30477432450E+01 0.  0.
         13    1    3    3    0    0  0.73415146418E+01 -0.22929802247E+02 -0.36819765071E+03  0.36898398835E+03  0.00000000000E+00 0.  1.
          1    1    3    3  501    0  0.11662595511E+01 -0.77390918255E+01 -0.10260203735E+03  0.10290010579E+03  0.00000000000E+00 0.  1.
         -3    1    1    2    0  502 -0.85077741929E+01  0.30668894073E+02 -0.52817908320E+03  0.52913713460E+03  0.00000000000E+00 0. -1.
<mgrwt>
<rscale>  1 0.30000000E+03</rscale>
<asrwt>0</asrwt>
<pdfrwt beam="1">  1       21 0.37135669E-02 0.30000000E+03</pdfrwt>
<pdfrwt beam="2">0</pdfrwt>
<totfact> 0.47641845E+04</totfact>
</mgrwt>
</event>
<event>
 6    1  0.8397183E-002  0.3000000E+03  0.7818608E-02  0.1093470E+00
         21   -1    0    0  501  502  0.00000000000E+00  0.00000000000E+00  0.98173117897E+00  0.98173117897E+00  0.00000000000E+00 0. -1.
         13   -1    0    0    0    0 -0.00000000000E+00 -0.00000000000E+00 -0.10000000000E+04  0.10000000000E+04  0.00000000000E+00 0.  1.
    9000005    2    1    2  501    0 -0.23755362869E+02 -0.20291170923E+02 -0.50166892989E+03  0.50265210752E+03  0.33729947176E+01 0.  0.
         13    1    3    3    0    0 -0.11467262085E+02 -0.11402580600E+02 -0.27740618093E+03  0.27787714220E+03  0.00000000000E+00 0.  1.
          3    1    3    3  501    0 -0.12288100784E+02 -0.88885903224E+01 -0.22426274897E+03  0.22477496532E+03  0.00000000000E+00 0.  1.
         -1    1    1    2    0  502  0.23755362869E+02  0.20291170923E+02 -0.49734933893E+03  0.49832962366E+03  0.00000000000E+00 0. -1.
<mgrwt>
<rscale>  1 0.30000000E+03</rscale>
<asrwt>0</asrwt>
<pdfrwt beam="1">  1       21 0.35699391E-02 0.30000000E+03</pdfrwt>
<pdfrwt beam="2">0</pdfrwt>
<totfact> 0.50900971E+04</totfact>
</mgrwt>
</event>
<event>
 6    1  0.8397183E-002  0.3000000E+03  0.7818608E-02  0.1093470E+00
         21   -1    0    0  501  502  0.00000000000E+00  0.00000000000E+00  0.13026071399E+01  0.13026071399E+01  0.00000000000E+00 0. -1.
         13   -1    0    0    0    0 -0.00000000000E+00 -0.00000000000E+00 -0.10000000000E+04  0.10000000000E+04  0.00000000000E+00 0.  1.
    9000005    2    1    2  501    0 -0.19654753558E+02 -0.30119966922E+02 -0.53051204214E+03  0.53173786786E+03  0.29345386847E+01 0.  0.
         13    1    3    3    0    0 -0.19456539198E+02 -0.29873147227E+02 -0.51978178183E+03  0.52100293911E+03  0.00000000000E+00 0.  1.
          3    1    3    3  501    0 -0.19821435988E+00 -0.24681969563E+00 -0.10730260306E+02  0.10734928743E+02  0.00000000000E+00 0.  1.
         -3    1    1    2    0  502  0.19654753558E+02  0.30119966922E+02 -0.46818535072E+03  0.46956473928E+03  0.00000000000E+00 0. -1.
<mgrwt>
<rscale>  1 0.30000000E+03</rscale>
<asrwt>0</asrwt>
<pdfrwt beam="1">  1       21 0.47367632E-02 0.30000000E+03</pdfrwt>
<pdfrwt beam="2">0</pdfrwt>
<totfact> 0.31583096E+04</totfact>
</mgrwt>
</event>
<event>
 6    1  0.8397183E-002  0.3000000E+03  0.7818608E-02  0.1093470E+00
         21   -1    0    0  501  502  0.00000000000E+00  0.00000000000E+00  0.28113967926E+01  0.28113967926E+01  0.00000000000E+00 0. -1.
         13   -1    0    0    0    0 -0.00000000000E+00 -0.00000000000E+00 -0.10000000000E+04  0.10000000000E+04  0.00000000000E+00 0.  1.
    9000005    2    1    2  501    0  0.37319925985E+02  0.37559673012E+02 -0.51058290151E+03  0.51333349654E+03  0.35879579627E+01 0.  0.
         13    1    3    3    0    0  0.69825463357E+01  0.75805810670E+01 -0.86797924494E+02  0.87407670482E+02  0.00000000000E+00 0.  1.
          3    1    3    3  501    0  0.30337379649E+02  0.29979091945E+02 -0.42378497702E+03  0.42592582606E+03  0.00000000000E+00 0.  1.
         -1    1    1    2    0  502 -0.37319925985E+02 -0.37559673012E+02 -0.48660570170E+03  0.48947790025E+03  0.00000000000E+00 0. -1.
<mgrwt>
<rscale>  1 0.30000000E+03</rscale>
<asrwt>0</asrwt>
<pdfrwt beam="1">  1       21 0.10223283E-01 0.30000000E+03</pdfrwt>
<pdfrwt beam="2">0</pdfrwt>
<totfact> 0.82701215E+03</totfact>
</mgrwt>
</event>
<event>
 6    1  0.8397183E-002  0.3000000E+03  0.7818608E-02  0.1093470E+00
         21   -1    0    0  501  502  0.00000000000E+00  0.00000000000E+00  0.12613461822E+01  0.12613461822E+01  0.00000000000E+00 0. -1.
         13   -1    0    0    0    0 -0.00000000000E+00 -0.00000000000E+00 -0.10000000000E+04  0.10000000000E+04  0.00000000000E+00 0.  1.
    9000005    2    1    2  501    0 -0.19883374545E+02  0.29197083950E+02 -0.54221621005E+03  0.54337428592E+03  0.30623292581E+01 0.  0.
         13    1    3    3    0    0 -0.39030777890E+01  0.37886104055E+01 -0.81392199016E+02  0.81573755863E+02  0.00000000000E+00 0.  1.
          1    1    3    3  501    0 -0.15980296756E+02  0.25408473545E+02 -0.46082401103E+03  0.46180053005E+03  0.00000000000E+00 0.  1.
         -3    1    1    2    0  502  0.19883374545E+02 -0.29197083950E+02 -0.45652244377E+03  0.45788706026E+03  0.00000000000E+00 0. -1.
<mgrwt>
<rscale>  1 0.30000000E+03</rscale>
<asrwt>0</asrwt>
<pdfrwt beam="1">  1       21 0.45867231E-02 0.30000000E+03</pdfrwt>
<pdfrwt beam="2">0</pdfrwt>
<totfact> 0.33359195E+04</totfact>
</mgrwt>
</event>
<event>
 6    1  0.8397183E-002  0.3000000E+03  0.7818608E-02  0.1093470E+00
         21   -1    0    0  501  502  0.00000000000E+00  0.00000000000E+00  0.17457142822E+01  0.17457142822E+01  0.00000000000E+00 0. -1.
         13   -1    0    0    0    0 -0.00000000000E+00 -0.00000000000E+00 -0.10000000000E+04  0.10000000000E+04  0.00000000000E+00 0.  1.
    9000005    2    1    2  501    0  0.11431591559E+02  0.39358874758E+02 -0.59254450059E+03  0.59397098229E+03  0.35693568264E+01 0.  0.
         13    1    3    3    0    0  0.41676505317E+01  0.13960064317E+02 -0.18664303745E+03  0.18721077997E+03  0.00000000000E+00 0.  1.
          3    1    3    3  501    0  0.72639410273E+01  0.25398810441E+02 -0.40590146314E+03  0.40676020232E+03  0.00000000000E+00 0.  1.
         -1    1    1    2    0  502 -0.11431591559E+02 -0.39358874758E+02 -0.40570978513E+03  0.40777473200E+03  0.00000000000E+00 0. -1.
<mgrwt>
<rscale>  1 0.30000000E+03</rscale>
<asrwt>0</asrwt>
<pdfrwt beam="1">  1       21 0.63480653E-02 0.30000000E+03</pdfrwt>
<pdfrwt beam="2">0</pdfrwt>
<totfact> 0.19116572E+04</totfact>
</mgrwt>
</event>
<event>
 6    1  0.8397183E-002  0.3000000E+03  0.7818608E-02  0.1093470E+00
         21   -1    0    0  501  502  0.00000000000E+00  0.00000000000E+00  0.94363488032E+00  0.94363488032E+00  0.00000000000E+00 0. -1.
         13   -1    0    0    0    0 -0.00000000000E+00 -0.00000000000E+00 -0.10000000000E+04  0.10000000000E+04  0.00000000000E+00 0.  1.
    9000005    2    1    2  501    0  0.84466773221E+01  0.29079958266E+02 -0.57422511382E+03  0.57503451029E+03  0.36354297619E+01 0.  0.
         13    1    3    3    0    0  0.70006170538E-01  0.77128225942E+00 -0.72328659403E+01  0.72742097095E+01  0.00000000000E+00 0.  1.
          1    1    3    3  501    0  0.83766711516E+01  0.28308676006E+02 -0.56699224788E+03  0.56776030058E+03  0.00000000000E+00 0.  1.
         -3    1    1    2    0  502 -0.84466773221E+01 -0.29079958266E+02 -0.42483125130E+03  0.42590912459E+03  0.00000000000E+00 0. -1.
<mgrwt>
<rscale>  1 0.30000000E+03</rscale>
<asrwt>0</asrwt>
<pdfrwt beam="1">  1       21 0.34314068E-02 0.30000000E+03</pdfrwt>
<pdfrwt beam="2">0</pdfrwt>
<totfact> 0.54388590E+04</totfact>
</mgrwt>
</event>
<event>
 6    1  0.8397183E-002  0.3000000E+03  0.7818608E-02  0.1093470E+00
         21   -1    0    0  501  502  0.00000000000E+00  0.00000000000E+00  0.14838354645E+01  0.14838354645E+01  0.00000000000E+00 0. -1.
         13   -1    0    0    0    0 -0.00000000000E+00 -0.00000000000E+00 -0.10000000000E+04  0.10000000000E+04  0.00000000000E+00 0.  1.
    9000005    2    1    2  501    0  0.31126729268E+02  0.79903634821E+01 -0.22780755402E+03  0.23010553560E+03  0.44222913058E+01 0.  0.
         13    1    3    3    0    0  0.16275451495E+02  0.53852512332E+01 -0.10783260043E+03  0.10918681682E+03  0.00000000000E+00 0.  1.
          3    1    3    3  501    0  0.14851277773E+02  0.26051122488E+01 -0.11997495359E+03  0.12091871878E+03  0.00000000000E+00 0.  1.
         -3    1    1    2    0  502 -0.31126729268E+02 -0.79903634821E+01 -0.77070861052E+03  0.77137829987E+03  0.00000000000E+00 0. -1.
<mgrwt>
<rscale>  1 0.30000000E+03</rscale>
<asrwt>0</asrwt>
<pdfrwt beam="1">  1       21 0.53957767E-02 0.30000000E+03</pdfrwt>
<pdfrwt beam="2">0</pdfrwt>
<totfact> 0.25289751E+04</totfact>
</mgrwt>
</event>
<event>
 6    1  0.8397183E-002  0.3000000E+03  0.7818608E-02  0.1093470E+00
         21   -1    0    0  501  502  0.00000000000E+00  0.00000000000E+00  0.11090005253E+01  0.11090005253E+01  0.00000000000E+00 0. -1.
         13   -1    0    0    0    0 -0.00000000000E+00 -0.00000000000E+00 -0.10000000000E+04  0.10000000000E+04  0.00000000000E+00 0.  1.
    9000005    2    1    2  501    0 -0.10461798600E+02 -0.30650218183E+02 -0.39374055987E+03  0.39509254888E+03  0.41962594449E+01 0.  0.
         13    1    3    3    0    0 -0.24201759674E+01 -0.12655766297E+02 -0.16775731357E+03  0.16825142475E+03  0.00000000000E+00 0.  1.
          1    1    3    3  501    0 -0.80416226328E+01 -0.17994451887E+02 -0.22598324629E+03  0.22684112413E+03  0.00000000000E+00 0.  1.
         -1    1    1    2    0  502  0.10461798600E+02  0.30650218183E+02 -0.60515043961E+03  0.60601645164E+03  0.00000000000E+00 0. -1.
<mgrwt>
<rscale>  1 0.30000000E+03</rscale>
<asrwt>0</asrwt>
<pdfrwt beam="1">  1       21 0.40327377E-02 0.30000000E+03</pdfrwt>
<pdfrwt beam="2">0</pdfrwt>
<totfact> 0.41473976E+04</totfact>
</mgrwt>
</event>
<event>
 6    1  0.8397183E-002  0.3000000E+03  0.7818608E-02  0.1093470E+00
         21   -1    0    0  501  502  0.00000000000E+00  0.00000000000E+00  0.15708999802E+01  0.15708999802E+01  0.00000000000E+00 0. -1.
         13   -1    0    0    0    0 -0.00000000000E+00 -0.00000000000E+00 -0.10000000000E+04  0.10000000000E+04  0.00000000000E+00 0.  1.
    9000005    2    1    2  501    0  0.34499479395E+02  0.85456345635E+01 -0.71969255480E+03  0.72057747730E+03  0.33593762249E+01 0.  0.
         13    1    3    3    0    0  0.11315729177E+01 -0.26481477339E+00 -0.18960580527E+02  0.18996162719E+02  0.00000000000E+00 0.  1.
          1    1    3    3  501    0  0.33367906477E+02  0.88104493369E+01 -0.70073197427E+03  0.70158131458E+03  0.00000000000E+00 0.  1.
         -1    1    1    2    0  502 -0.34499479395E+02 -0.85456345635E+01 -0.27873654522E+03  0.28099342268E+03  0.00000000000E+00 0. -1.
<mgrwt>
<rscale>  1 0.30000000E+03</rscale>
<asrwt>0</asrwt>
<pdfrwt beam="1">  1       21 0.57123756E-02 0.30000000E+03</pdfrwt>
<pdfrwt beam="2">0</pdfrwt>
<totfact> 0.22932570E+04</totfact>
</mgrwt>
</event>
<event>
 6    1  0.8397183E-002  0.3000000E+03  0.7818608E-02  0.1093470E+00
         21   -1    0    0  501  502  0.00000000000E+00  0.00000000000E+00  0.13249818081E+01  0.13249818081E+01  0.00000000000E+00 0. -1.
         13   -1    0    0    0    0 -0.00000000000E+00 -0.00000000000E+00 -0.10000000000E+04  0.10000000000E+04  0.00000000000E+00 0.  1.
    9000005    2    1    2  501    0 -0.30364759349E+02 -0.17090300308E+02 -0.36030336291E+03  0.36200310103E+03  0.36925405540E+01 0.  0.
         13    1    3    3    0    0 -0.12853604749E+02 -0.67510894971E+01 -0.13210202100E+03  0.13289746543E+03  0.00000000000E+00 0.  1.
          3    1    3    3  501    0 -0.17511154600E+02 -0.10339210811E+02 -0.22820134191E+03  0.22910563560E+03  0.00000000000E+00 0.  1.
         -3    1    1    2    0  502  0.30364759349E+02  0.17090300308E+02 -0.63837165528E+03  0.63932188078E+03  0.00000000000E+00 0. -1.
<mgrwt>
<rscale>  1 0.30000000E+03</rscale>
<asrwt>0</asrwt>
<pdfrwt beam="1">  1       21 0.48181258E-02 0.30000000E+03</pdfrwt>
<pdfrwt beam="2">0</pdfrwt>
<totfact> 0.30681120E+04</totfact>
</mgrwt>
</event>
<event>
 6    1  0.8397183E-002  0.3000000E+03  0.7818608E-02  0.1093470E+00
         21   -1    0    0  501  502  0.00000000000E+00  0.00000000000E+00  0.23308655881E+01  0.23308655881E+01  0.00000000000E+00 0. -1.
         13   -1    0    0    0    0 -0.00000000000E+00 -0.00000000000E+00 -0.10000000000E+04  0.10000000000E+04  0.00000000000E+00 0.  1.
    9000005    2    1    2  501    0  0.34467832263E+02  0.70476842222E+01 -0.15726375433E+03  0.16118943623E+03  0.35276921724E+01 0.  0.
         13    1    3    3    0    0  0.21057097293E+01  0.19976318675E+00 -0.13828097513E+02  0.13988931325E+02  0.00000000000E+00 0.  1.
          1    1    3    3  501    0  0.32362122534E+02  0.68479210355E+01 -0.14343565682E+03  0.14720050491E+03  0.00000000000E+00 0.  1.
         -1    1    1    2    0  502 -0.34467832263E+02 -0.70476842222E+01 -0.84040538008E+03  0.84114142936E+03  0.00000000000E+00 0. -1.
<mgrwt>
<rscale>  1 0.30000000E+03</rscale>
<asrwt>0</asrwt>
<pdfrwt beam="1">  1       21 0.84758927E-02 0.30000000E+03</pdfrwt>
<pdfrwt beam="2">0</pdfrwt>
<totfact> 0.11538901E+04</totfact>
</mgrwt>
</event>
<event>
 6    1  0.8397183E-002  0.3000000E+03  0.7818608E-02  0.1093470E+00
         21   -1    0    0  501  502  0.00000000000E+00  0.00000000000E+00  0.11278769836E+01  0.11278769836E+01  0.00000000000E+00 0. -1.
         13   -1    0    0    0    0 -0.00000000000E+00 -0.00000000000E+00 -0.10000000000E+04  0.10000000000E+04  0.00000000000E+00 0.  1.
    9000005    2    1    2  501    0  0.24842835029E+02 -0.22117536414E+02 -0.44518544206E+03  0.44644301823E+03  0.38650781353E+01 0.  0.
         13    1    3    3    0    0  0.89552186050E+01 -0.96412359117E+01 -0.15702777711E+03  0.15757814619E+03  0.00000000000E+00 0.  1.
          3    1    3    3  501    0  0.15887616424E+02 -0.12476300502E+02 -0.28815766495E+03  0.28886487204E+03  0.00000000000E+00 0.  1.
         -3    1    1    2    0  502 -0.24842835029E+02  0.22117536414E+02 -0.55368668095E+03  0.55468485876E+03  0.00000000000E+00 0. -1.
<mgrwt>
<rscale>  1 0.30000000E+03</rscale>
<asrwt>0</asrwt>
<pdfrwt beam="1">  1       21 0.41013795E-02 0.30000000E+03</pdfrwt>
<pdfrwt beam="2">0</pdfrwt>
<totfact> 0.40310762E+04</totfact>
</mgrwt>
</event>
<event>
 6    1  0.8397183E-002  0.3000000E+03  0.7818608E-02  0.1093470E+00
         21   -1    0    0  501  502  0.00000000000E+00  0.00000000000E+00  0.59170737624E+01  0.59170737624E+01  0.00000000000E+00 0. -1.
         13   -1    0    0    0    0 -0.00000000000E+00 -0.00000000000E+00 -0.10000000000E+04  0.10000000000E+04  0.00000000000E+00 0.  1.
    9000005    2    1    2  501    0  0.46621615688E+02 -0.57705218845E+02 -0.36515128578E+03  0.37262529607E+03  0.32683985082E+01 0.  0.
         13    1    3    3    0    0  0.23797851010E+02 -0.26862149041E+02 -0.17593411496E+03  0.17955702596E+03  0.00000000000E+00 0.  1.
          3    1    3    3  501    0  0.22823764678E+02 -0.30843069805E+02 -0.18921717082E+03  0.19306827011E+03  0.00000000000E+00 0.  1.
         -1    1    1    2    0  502 -0.46621615688E+02  0.57705218845E+02 -0.62893164045E+03  0.63329177769E+03  0.00000000000E+00 0. -1.
<mgrwt>
<rscale>  1 0.30000000E+03</rscale>
<asrwt>0</asrwt>
<pdfrwt beam="1">  1       21 0.21516677E-01 0.30000000E+03</pdfrwt>
<pdfrwt beam="2">0</pdfrwt>
<totfact> 0.20858295E+03</totfact>
</mgrwt>
</event>
<event>
 6    1  0.8397183E-002  0.3000000E+03  0.7818608E-02  0.1093470E+00
         21   -1    0    0  501  502  0.00000000000E+00  0.00000000000E+00  0.13924515627E+01  0.13924515627E+01  0.00000000000E+00 0. -1.
         13   -1    0    0    0    0 -0.00000000000E+00 -0.00000000000E+00 -0.10000000000E+04  0.10000000000E+04  0.00000000000E+00 0.  1.
    9000005    2    1    2  501    0  0.27884017551E+02  0.23189857972E+02 -0.61410121240E+03  0.61517954344E+03  0.32068128389E+01 0.  0.
         13    1    3    3    0    0  0.12771499755E+02  0.87198759911E+01 -0.27139175134E+03  0.27183198881E+03  0.00000000000E+00 0.  1.
          1    1    3    3  501    0  0.15112517796E+02  0.14469981981E+02 -0.34270946106E+03  0.34334755464E+03  0.00000000000E+00 0.  1.
         -3    1    1    2    0  502 -0.27884017551E+02 -0.23189857972E+02 -0.38450633603E+03  0.38621290812E+03  0.00000000000E+00 0. -1.
<mgrwt>
<rscale>  1 0.30000000E+03</rscale>
<asrwt>0</asrwt>
<pdfrwt beam="1">  1       21 0.50634709E-02 0.30000000E+03</pdfrwt>
<pdfrwt beam="2">0</pdfrwt>
<totfact> 0.28191664E+04</totfact>
</mgrwt>
</event>
<event>
 6    1  0.8397183E-002  0.3000000E+03  0.7818608E-02  0.1093470E+00
         21   -1    0    0  501  502  0.00000000000E+00  0.00000000000E+00  0.93800910672E+00  0.93800910672E+00  0.00000000000E+00 0. -1.
         13   -1    0    0    0    0 -0.00000000000E+00 -0.00000000000E+00 -0.10000000000E+04  0.10000000000E+04  0.00000000000E+00 0.  1.
    9000005    2    1    2  501    0 -0.27889937789E+02  0.12377508888E+02 -0.47602865842E+03  0.47701538292E+03  0.30562306024E+01 0.  0.
         13    1    3    3    0    0 -0.16640714793E+02  0.70802824286E+01 -0.25870104064E+03  0.25933235860E+03  0.00000000000E+00 0.  1.
          3    1    3    3  501    0 -0.11249222997E+02  0.52972264591E+01 -0.21732761779E+03  0.21768302432E+03  0.00000000000E+00 0.  1.
         -3    1    1    2    0  502  0.27889937789E+02 -0.12377508888E+02 -0.52303333247E+03  0.52392262619E+03  0.00000000000E+00 0. -1.
<mgrwt>
<rscale>  1 0.30000000E+03</rscale>
<asrwt>0</asrwt>
<pdfrwt beam="1">  1       21 0.34109494E-02 0.30000000E+03</pdfrwt>
<pdfrwt beam="2">0</pdfrwt>
<totfact> 0.54935028E+04</totfact>
</mgrwt>
</event>
<event>
 6    1  0.8397183E-002  0.3000000E+03  0.7818608E-02  0.1093470E+00
         21   -1    0    0  501  502  0.00000000000E+00  0.00000000000E+00  0.12616481319E+01  0.12616481319E+01  0.00000000000E+00 0. -1.
         13   -1    0    0    0    0 -0.00000000000E+00 -0.00000000000E+00 -0.10000000000E+04  0.10000000000E+04  0.00000000000E+00 0.  1.
    9000005    2    1    2  501    0  0.18976827190E+01 -0.33783357821E+02 -0.64961238557E+03  0.65049982465E+03  0.29755545145E+01 0.  0.
         13    1    3    3    0    0  0.10081236938E+01 -0.10833664565E+02 -0.18413238608E+03  0.18445357195E+03  0.00000000000E+00 0.  1.
          3    1    3    3  501    0  0.88955902521E+00 -0.22949693256E+02 -0.46547999949E+03  0.46604625270E+03  0.00000000000E+00 0.  1.
         -3    1    1    2    0  502 -0.18976827190E+01  0.33783357821E+02 -0.34912596630E+03  0.35076182348E+03  0.00000000000E+00 0. -1.
<mgrwt>
<rscale>  1 0.30000000E+03</rscale>
<asrwt>0</asrwt>
<pdfrwt beam="1">  1       21 0.45878211E-02 0.30000000E+03</pdfrwt>
<pdfrwt beam="2">0</pdfrwt>
<totfact> 0.33345633E+04</totfact>
</mgrwt>
</event>
<event>
 6    1  0.8397183E-002  0.3000000E+03  0.7818608E-02  0.1093470E+00
         21   -1    0    0  501  502  0.00000000000E+00  0.00000000000E+00  0.12135873570E+01  0.12135873570E+01  0.00000000000E+00 0. -1.
         13   -1    0    0    0    0 -0.00000000000E+00 -0.00000000000E+00 -0.10000000000E+04  0.10000000000E+04  0.00000000000E+00 0.  1.
    9000005    2    1    2  501    0 -0.19337104472E+02  0.28057845416E+02 -0.59969894672E+03  0.60067398663E+03  0.30405937953E+01 0.  0.
         13    1    3    3    0    0 -0.16177390869E+02  0.23602980984E+02 -0.48237086227E+03  0.48321885048E+03  0.00000000000E+00 0.  1.
          3    1    3    3  501    0 -0.31597136024E+01  0.44548644315E+01 -0.11732808445E+03  0.11745513615E+03  0.00000000000E+00 0.  1.
         -3    1    1    2    0  502  0.19337104472E+02 -0.28057845416E+02 -0.39908746592E+03  0.40053960073E+03  0.00000000000E+00 0. -1.
<mgrwt>
<rscale>  1 0.30000000E+03</rscale>
<asrwt>0</asrwt>
<pdfrwt beam="1">  1       21 0.44130542E-02 0.30000000E+03</pdfrwt>
<pdfrwt beam="2">0</pdfrwt>
<totfact> 0.35617196E+04</totfact>
</mgrwt>
</event>
<event>
 6    1  0.8397183E-002  0.3000000E+03  0.7818608E-02  0.1093470E+00
         21   -1    0    0  501  502  0.00000000000E+00  0.00000000000E+00  0.16557871096E+01  0.16557871096E+01  0.00000000000E+00 0. -1.
         13   -1    0    0    0    0 -0.00000000000E+00 -0.00000000000E+00 -0.10000000000E+04  0.10000000000E+04  0.00000000000E+00 0.  1.
    9000005    2    1    2  501    0 -0.30369372667E+02  0.25282802242E+02 -0.38381283755E+03  0.38585522673E+03  0.32315385929E+01 0.  0.
         13    1    3    3    0    0 -0.28269422623E+02  0.24186138749E+02 -0.35453200517E+03  0.35647871221E+03  0.00000000000E+00 0.  1.
          1    1    3    3  501    0 -0.20999500435E+01  0.10966634931E+01 -0.29280832378E+02  0.29376514527E+02  0.00000000000E+00 0.  1.
         -3    1    1    2    0  502  0.30369372667E+02 -0.25282802242E+02 -0.61453137534E+03  0.61580056038E+03  0.00000000000E+00 0. -1.
<mgrwt>
<rscale>  1 0.30000000E+03</rscale>
<asrwt>0</asrwt>
<pdfrwt beam="1">  1       21 0.60210567E-02 0.30000000E+03</pdfrwt>
<pdfrwt beam="2">0</pdfrwt>
<totfact> 0.20944726E+04</totfact>
</mgrwt>
</event>
<event>
 6    1  0.8397183E-002  0.3000000E+03  0.7818608E-02  0.1093470E+00
         21   -1    0    0  501  502  0.00000000000E+00  0.00000000000E+00  0.28118301938E+01  0.28118301938E+01  0.00000000000E+00 0. -1.
         13   -1    0    0    0    0 -0.00000000000E+00 -0.00000000000E+00 -0.10000000000E+04  0.10000000000E+04  0.00000000000E+00 0.  1.
    9000005    2    1    2  501    0  0.43951005654E+02  0.35685551780E+00 -0.77855439799E+03  0.77980388320E+03  0.39150198514E+01 0.  0.
         13    1    3    3    0    0  0.12956092932E+02 -0.14553477538E+01 -0.24589140089E+03  0.24623679541E+03  0.00000000000E+00 0.  1.
          1    1    3    3  501    0  0.30994912722E+02  0.18122032716E+01 -0.53266299709E+03  0.53356708778E+03  0.00000000000E+00 0.  1.
         -3    1    1    2    0  502 -0.43951005654E+02 -0.35685551780E+00 -0.21863377182E+03  0.22300794700E+03  0.00000000000E+00 0. -1.
<mgrwt>
<rscale>  1 0.30000000E+03</rscale>
<asrwt>0</asrwt>
<pdfrwt beam="1">  1       21 0.10224859E-01 0.30000000E+03</pdfrwt>
<pdfrwt beam="2">0</pdfrwt>
<totfact> 0.82678408E+03</totfact>
</mgrwt>
</event>
<event>
 6    1  0.8397183E-002  0.3000000E+03  0.7818608E-02  0.1093470E+00
         21   -1    0    0  501  502  0.00000000000E+00  0.00000000000E+00  0.23559843169E+01  0.23559843169E+01  0.00000000000E+00 0. -1.
         13   -1    0    0    0    0 -0.00000000000E+00 -0.00000000000E+00 -0.10000000000E+04  0.10000000000E+04  0.00000000000E+00 0.  1.
    9000005    2    1    2  501    0 -0.21040984410E+02 -0.43573958066E+02 -0.47388081949E+03  0.47636235457E+03  0.40803095319E+01 0.  0.
         13    1    3    3    0    0 -0.21034903003E+02 -0.42066620825E+02 -0.45661015177E+03  0.45902603241E+03  0.00000000000E+00 0.  1.
          1    1    3    3  501    0 -0.60814074820E-02 -0.15073372404E+01 -0.17270667720E+02  0.17336322160E+02  0.00000000000E+00 0.  1.
         -3    1    1    2    0  502  0.21040984410E+02  0.43573958066E+02 -0.52376319619E+03  0.52599362974E+03  0.00000000000E+00 0. -1.
<mgrwt>
<rscale>  1 0.30000000E+03</rscale>
<asrwt>0</asrwt>
<pdfrwt beam="1">  1       21 0.85672338E-02 0.30000000E+03</pdfrwt>
<pdfrwt beam="2">0</pdfrwt>
<totfact> 0.11322808E+04</totfact>
</mgrwt>
</event>
<event>
 6    1  0.8397183E-002  0.3000000E+03  0.7818608E-02  0.1093470E+00
         21   -1    0    0  501  502  0.00000000000E+00  0.00000000000E+00  0.19131984422E+01  0.19131984422E+01  0.00000000000E+00 0. -1.
         13   -1    0    0    0    0 -0.00000000000E+00 -0.00000000000E+00 -0.10000000000E+04  0.10000000000E+04  0.00000000000E+00 0.  1.
    9000005    2    1    2  501    0  0.34835978149E+02  0.24649900732E+02 -0.60482032417E+03  0.60633806624E+03  0.41307460536E+01 0.  0.
         13    1    3    3    0    0  0.80233624672E+00  0.35616843434E+00 -0.23184585976E+02  0.23201198811E+02  0.00000000000E+00 0.  1.
          1    1    3    3  501    0  0.34033641902E+02  0.24293732298E+02 -0.58163573820E+03  0.58313686743E+03  0.00000000000E+00 0.  1.
         -1    1    1    2    0  502 -0.34835978149E+02 -0.24649900732E+02 -0.39326647739E+03  0.39557513220E+03  0.00000000000E+00 0. -1.
<mgrwt>
<rscale>  1 0.30000000E+03</rscale>
<asrwt>0</asrwt>
<pdfrwt beam="1">  1       21 0.69570999E-02 0.30000000E+03</pdfrwt>
<pdfrwt beam="2">0</pdfrwt>
<totfact> 0.16308795E+04</totfact>
</mgrwt>
</event>
<event>
 6    1  0.8397183E-002  0.3000000E+03  0.7818608E-02  0.1093470E+00
         21   -1    0    0  501  502  0.00000000000E+00  0.00000000000E+00  0.39264257635E+01  0.39264257635E+01  0.00000000000E+00 0. -1.
         13   -1    0    0    0    0 -0.00000000000E+00 -0.00000000000E+00 -0.10000000000E+04  0.10000000000E+04  0.00000000000E+00 0.  1.
    9000005    2    1    2  501    0 -0.26963166210E+02  0.53965844629E+02 -0.36440557896E+03  0.36938424358E+03  0.37374732682E+01 0.  0.
         13    1    3    3    0    0 -0.24308095736E+02  0.49378437723E+02 -0.33805006361E+03  0.34250103524E+03  0.00000000000E+00 0.  1.
          1    1    3    3  501    0 -0.26550704739E+01  0.45874069057E+01 -0.26355515347E+02  0.26883208338E+02  0.00000000000E+00 0.  1.
         -1    1    1    2    0  502  0.26963166210E+02 -0.53965844629E+02 -0.63166799528E+03  0.63454218219E+03  0.00000000000E+00 0. -1.
<mgrwt>
<rscale>  1 0.30000000E+03</rscale>
<asrwt>0</asrwt>
<pdfrwt beam="1">  1       21 0.14277942E-01 0.30000000E+03</pdfrwt>
<pdfrwt beam="2">0</pdfrwt>
<totfact> 0.45106183E+03</totfact>
</mgrwt>
</event>
<event>
 6    1  0.8397183E-002  0.3000000E+03  0.7818608E-02  0.1093470E+00
         21   -1    0    0  501  502  0.00000000000E+00  0.00000000000E+00  0.13614872468E+01  0.13614872468E+01  0.00000000000E+00 0. -1.
         13   -1    0    0    0    0 -0.00000000000E+00 -0.00000000000E+00 -0.10000000000E+04  0.10000000000E+04  0.00000000000E+00 0.  1.
    9000005    2    1    2  501    0 -0.26809430678E+01  0.36259149473E+02 -0.58186261155E+03  0.58300271155E+03  0.24798350769E+01 0.  0.
         13    1    3    3    0    0 -0.17867720618E+00  0.18723434588E+02 -0.29419106925E+03  0.29478633644E+03  0.00000000000E+00 0.  1.
          3    1    3    3  501    0 -0.25022658616E+01  0.17535714885E+02 -0.28767154230E+03  0.28821637511E+03  0.00000000000E+00 0.  1.
         -1    1    1    2    0  502  0.26809430678E+01 -0.36259149473E+02 -0.41677590120E+03  0.41835877569E+03  0.00000000000E+00 0. -1.
<mgrwt>
<rscale>  1 0.30000000E+03</rscale>
<asrwt>0</asrwt>
<pdfrwt beam="1">  1       21 0.49508732E-02 0.30000000E+03</pdfrwt>
<pdfrwt beam="2">0</pdfrwt>
<totfact> 0.29293491E+04</totfact>
</mgrwt>
</event>
<event>
 6    1  0.8397183E-002  0.3000000E+03  0.7818608E-02  0.1093470E+00
         21   -1    0    0  501  502  0.00000000000E+00  0.00000000000E+00  0.11808726156E+01  0.11808726156E+01  0.00000000000E+00 0. -1.
         13   -1    0    0    0    0 -0.00000000000E+00 -0.00000000000E+00 -0.10000000000E+04  0.10000000000E+04  0.00000000000E+00 0.  1.
    9000005    2    1    2  501    0 -0.75388645076E+01 -0.33332578177E+02 -0.46445726664E+03  0.46572733265E+03  0.36743154920E+01 0.  0.
         13    1    3    3    0    0  0.33313096260E+00 -0.26435227053E+01 -0.41012091746E+02  0.41098550557E+02  0.00000000000E+00 0.  1.
          1    1    3    3  501    0 -0.78719954702E+01 -0.30689055472E+02 -0.42344517490E+03  0.42462878209E+03  0.00000000000E+00 0.  1.
         -3    1    1    2    0  502  0.75388645076E+01  0.33332578177E+02 -0.53436186074E+03  0.53545353996E+03  0.00000000000E+00 0. -1.
<mgrwt>
<rscale>  1 0.30000000E+03</rscale>
<asrwt>0</asrwt>
<pdfrwt beam="1">  1       21 0.42940913E-02 0.30000000E+03</pdfrwt>
<pdfrwt beam="2">0</pdfrwt>
<totfact> 0.37303389E+04</totfact>
</mgrwt>
</event>
<event>
 6    1  0.8397183E-002  0.3000000E+03  0.7818608E-02  0.1093470E+00
         21   -1    0    0  501  502  0.00000000000E+00  0.00000000000E+00  0.11674533738E+02  0.11674533738E+02  0.00000000000E+00 0. -1.
         13   -1    0    0    0    0 -0.00000000000E+00 -0.00000000000E+00 -0.10000000000E+04  0.10000000000E+04  0.00000000000E+00 0.  1.
    9000005    2    1    2  501    0  0.56174439266E+02 -0.88412745854E+02 -0.61784973886E+03  0.62667499367E+03  0.32964570557E+01 0.  0.
         13    1    3    3    0    0  0.28743457145E+02 -0.48304514817E+02 -0.33143120145E+03  0.33616387935E+03  0.00000000000E+00 0.  1.
          1    1    3    3  501    0  0.27430982122E+02 -0.40108231037E+02 -0.28641853740E+03  0.29051111432E+03  0.00000000000E+00 0.  1.
         -1    1    1    2    0  502 -0.56174439266E+02  0.88412745854E+02 -0.37047572740E+03  0.38499954007E+03  0.00000000000E+00 0. -1.
<mgrwt>
<rscale>  1 0.30000000E+03</rscale>
<asrwt>0</asrwt>
<pdfrwt beam="1">  1       21 0.42452939E-01 0.30000000E+03</pdfrwt>
<pdfrwt beam="2">0</pdfrwt>
<totfact> 0.53303513E+02</totfact>
</mgrwt>
</event>
<event>
 6    1  0.8397183E-002  0.3000000E+03  0.7818608E-02  0.1093470E+00
         21   -1    0    0  501  502  0.00000000000E+00  0.00000000000E+00  0.25569552657E+01  0.25569552657E+01  0.00000000000E+00 0. -1.
         13   -1    0    0    0    0 -0.00000000000E+00 -0.00000000000E+00 -0.10000000000E+04  0.10000000000E+04  0.00000000000E+00 0.  1.
    9000005    2    1    2  501    0  0.28464615145E+02 -0.41552472880E+02 -0.48431617569E+03  0.48696406737E+03  0.59162955247E+01 0.  0.
         13    1    3    3    0    0  0.15990350740E+02 -0.27040591754E+02 -0.28171903121E+03  0.28346516093E+03  0.00000000000E+00 0.  1.
          3    1    3    3  501    0  0.12474264404E+02 -0.14511881126E+02 -0.20259714448E+03  0.20349890643E+03  0.00000000000E+00 0.  1.
         -1    1    1    2    0  502 -0.28464615145E+02  0.41552472880E+02 -0.51312686904E+03  0.51559288790E+03  0.00000000000E+00 0. -1.
<mgrwt>
<rscale>  1 0.30000000E+03</rscale>
<asrwt>0</asrwt>
<pdfrwt beam="1">  1       21 0.92980388E-02 0.30000000E+03</pdfrwt>
<pdfrwt beam="2">0</pdfrwt>
<totfact> 0.97951619E+03</totfact>
</mgrwt>
</event>
<event>
 6    1  0.8397183E-002  0.3000000E+03  0.7818608E-02  0.1093470E+00
         21   -1    0    0  501  502  0.00000000000E+00  0.00000000000E+00  0.31507800646E+01  0.31507800646E+01  0.00000000000E+00 0. -1.
         13   -1    0    0    0    0 -0.00000000000E+00 -0.00000000000E+00 -0.10000000000E+04  0.10000000000E+04  0.00000000000E+00 0.  1.
    9000005    2    1    2  501    0  0.25867385279E+02 -0.49249686385E+02 -0.43567677273E+03  0.43922776339E+03  0.34820407987E+01 0.  0.
         13    1    3    3    0    0  0.25275457898E+02 -0.47740091748E+02 -0.42671071429E+03  0.43011626198E+03  0.00000000000E+00 0.  1.
          1    1    3    3  501    0  0.59192738099E+00 -0.15095946363E+01 -0.89660584441E+01  0.91115014138E+01  0.00000000000E+00 0.  1.
         -1    1    1    2    0  502 -0.25867385279E+02  0.49249686385E+02 -0.56117244720E+03  0.56392301667E+03  0.00000000000E+00 0. -1.
<mgrwt>
<rscale>  1 0.30000000E+03</rscale>
<asrwt>0</asrwt>
<pdfrwt beam="1">  1       21 0.11457406E-01 0.30000000E+03</pdfrwt>
<pdfrwt beam="2">0</pdfrwt>
<totfact> 0.67385671E+03</totfact>
</mgrwt>
</event>
<event>
 6    1  0.8397183E-002  0.3000000E+03  0.7818608E-02  0.1093470E+00
         21   -1    0    0  501  502  0.00000000000E+00  0.00000000000E+00  0.25231058372E+01  0.25231058372E+01  0.00000000000E+00 0. -1.
         13   -1    0    0    0    0 -0.00000000000E+00 -0.00000000000E+00 -0.10000000000E+04  0.10000000000E+04  0.00000000000E+00 0.  1.
    9000005    2    1    2  501    0 -0.21892445682E+02  0.45044312097E+02 -0.46264586286E+03  0.46535227521E+03  0.18100809744E+01 0.  0.
         13    1    3    3    0    0 -0.10468526080E+02  0.22121715748E+02 -0.21801160469E+03  0.21938099308E+03  0.00000000000E+00 0.  1.
          3    1    3    3  501    0 -0.11423919602E+02  0.22922596349E+02 -0.24463425817E+03  0.24597128213E+03  0.00000000000E+00 0.  1.
         -1    1    1    2    0  502  0.21892445682E+02 -0.45044312097E+02 -0.53483103130E+03  0.53717083062E+03  0.00000000000E+00 0. -1.
<mgrwt>
<rscale>  1 0.30000000E+03</rscale>
<asrwt>0</asrwt>
<pdfrwt beam="1">  1       21 0.91749497E-02 0.30000000E+03</pdfrwt>
<pdfrwt beam="2">0</pdfrwt>
<totfact> 0.10029769E+04</totfact>
</mgrwt>
</event>
<event>
 6    1  0.8397183E-002  0.3000000E+03  0.7818608E-02  0.1093470E+00
         21   -1    0    0  501  502  0.00000000000E+00  0.00000000000E+00  0.10415746207E+01  0.10415746207E+01  0.00000000000E+00 0. -1.
         13   -1    0    0    0    0 -0.00000000000E+00 -0.00000000000E+00 -0.10000000000E+04  0.10000000000E+04  0.00000000000E+00 0.  1.
    9000005    2    1    2  501    0  0.32065484818E+02  0.24048752237E+01 -0.47546821392E+03  0.47656471123E+03  0.31500472047E+01 0.  0.
         13    1    3    3    0    0  0.49208214829E+01  0.54450474184E+00 -0.91363770244E+02  0.91497811355E+02  0.00000000000E+00 0.  1.
          1    1    3    3  501    0  0.27144663335E+02  0.18603704818E+01 -0.38410444368E+03  0.38506689987E+03  0.00000000000E+00 0.  1.
         -3    1    1    2    0  502 -0.32065484818E+02 -0.24048752237E+01 -0.52349021146E+03  0.52447686339E+03  0.00000000000E+00 0. -1.
<mgrwt>
<rscale>  1 0.30000000E+03</rscale>
<asrwt>0</asrwt>
<pdfrwt beam="1">  1       21 0.37875521E-02 0.30000000E+03</pdfrwt>
<pdfrwt beam="2">0</pdfrwt>
<totfact> 0.46089447E+04</totfact>
</mgrwt>
</event>
<event>
 6    1  0.8397183E-002  0.3000000E+03  0.7818608E-02  0.1093470E+00
         21   -1    0    0  501  502  0.00000000000E+00  0.00000000000E+00  0.14448998788E+01  0.14448998788E+01  0.00000000000E+00 0. -1.
         13   -1    0    0    0    0 -0.00000000000E+00 -0.00000000000E+00 -0.10000000000E+04  0.10000000000E+04  0.00000000000E+00 0.  1.
    9000005    2    1    2  501    0  0.36333681659E+02 -0.95353707050E+01 -0.43063761950E+03  0.43228646454E+03  0.34305075540E+01 0.  0.
         13    1    3    3    0    0  0.28426663207E+02 -0.77826594484E+01 -0.32104976504E+03  0.32239974659E+03  0.00000000000E+00 0.  1.
          1    1    3    3  501    0  0.79070184520E+01 -0.17527112565E+01 -0.10958785446E+03  0.10988671795E+03  0.00000000000E+00 0.  1.
         -1    1    1    2    0  502 -0.36333681659E+02  0.95353707050E+01 -0.56791748063E+03  0.56915843534E+03  0.00000000000E+00 0. -1.
<mgrwt>
<rscale>  1 0.30000000E+03</rscale>
<asrwt>0</asrwt>
<pdfrwt beam="1">  1       21 0.52541925E-02 0.30000000E+03</pdfrwt>
<pdfrwt beam="2">0</pdfrwt>
<totfact> 0.26466794E+04</totfact>
</mgrwt>
</event>
<event>
 6    1  0.8397183E-002  0.3000000E+03  0.7818608E-02  0.1093470E+00
         21   -1    0    0  501  502  0.00000000000E+00  0.00000000000E+00  0.12910601443E+01  0.12910601443E+01  0.00000000000E+00 0. -1.
         13   -1    0    0    0    0 -0.00000000000E+00 -0.00000000000E+00 -0.10000000000E+04  0.10000000000E+04  0.00000000000E+00 0.  1.
    9000005    2    1    2  501    0  0.25132210779E+02 -0.25544906603E+02 -0.48967084154E+03  0.49099315127E+03  0.35455973311E+01 0.  0.
         13    1    3    3    0    0  0.23318921109E+02 -0.22427880276E+02 -0.43221732096E+03  0.43342657329E+03  0.00000000000E+00 0.  1.
          1    1    3    3  501    0  0.18132896705E+01 -0.31170263273E+01 -0.57453520587E+02  0.57566577981E+02  0.00000000000E+00 0.  1.
         -3    1    1    2    0  502 -0.25132210779E+02  0.25544906603E+02 -0.50903809831E+03  0.51029790888E+03  0.00000000000E+00 0. -1.
<mgrwt>
<rscale>  1 0.30000000E+03</rscale>
<asrwt>0</asrwt>
<pdfrwt beam="1">  1       21 0.46947741E-02 0.30000000E+03</pdfrwt>
<pdfrwt beam="2">0</pdfrwt>
<totfact> 0.32064926E+04</totfact>
</mgrwt>
</event>
<event>
 6    1  0.8397183E-002  0.3000000E+03  0.7818608E-02  0.1093470E+00
         21   -1    0    0  501  502  0.00000000000E+00  0.00000000000E+00  0.11385493315E+01  0.11385493315E+01  0.00000000000E+00 0. -1.
         13   -1    0    0    0    0 -0.00000000000E+00 -0.00000000000E+00 -0.10000000000E+04  0.10000000000E+04  0.00000000000E+00 0.  1.
    9000005    2    1    2  501    0  0.24673711084E+02  0.18235350936E+02 -0.70589787776E+03  0.70657280948E+03  0.34642790210E+01 0.  0.
         13    1    3    3    0    0  0.17913695560E+02  0.13229907843E+02 -0.47494176511E+03  0.47546357504E+03  0.00000000000E+00 0.  1.
          3    1    3    3  501    0  0.67600155243E+01  0.50054430931E+01 -0.23095611266E+03  0.23110923444E+03  0.00000000000E+00 0.  1.
         -3    1    1    2    0  502 -0.24673711084E+02 -0.18235350936E+02 -0.29296357290E+03  0.29456573985E+03  0.00000000000E+00 0. -1.
<mgrwt>
<rscale>  1 0.30000000E+03</rscale>
<asrwt>0</asrwt>
<pdfrwt beam="1">  1       21 0.41401881E-02 0.30000000E+03</pdfrwt>
<pdfrwt beam="2">0</pdfrwt>
<totfact> 0.39675471E+04</totfact>
</mgrwt>
</event>
<event>
 6    1  0.8397183E-002  0.3000000E+03  0.7818608E-02  0.1093470E+00
         21   -1    0    0  501  502  0.00000000000E+00  0.00000000000E+00  0.13807972485E+01  0.13807972485E+01  0.00000000000E+00 0. -1.
         13   -1    0    0    0    0 -0.00000000000E+00 -0.00000000000E+00 -0.10000000000E+04  0.10000000000E+04  0.00000000000E+00 0.  1.
    9000005    2    1    2  501    0  0.23944776720E+02  0.24527188081E+02 -0.69075897436E+03  0.69161821798E+03  0.35865723334E+01 0.  0.
         13    1    3    3    0    0  0.23840925512E+02  0.24153553210E+02 -0.67315106959E+03  0.67400604326E+03  0.00000000000E+00 0.  1.
          1    1    3    3  501    0  0.10385120871E+00  0.37363487140E+00 -0.17607904772E+02  0.17612174725E+02  0.00000000000E+00 0.  1.
         -1    1    1    2    0  502 -0.23944776720E+02 -0.24527188081E+02 -0.30786022839E+03  0.30976257927E+03  0.00000000000E+00 0. -1.
<mgrwt>
<rscale>  1 0.30000000E+03</rscale>
<asrwt>0</asrwt>
<pdfrwt beam="1">  1       21 0.50210915E-02 0.30000000E+03</pdfrwt>
<pdfrwt beam="2">0</pdfrwt>
<totfact> 0.28598674E+04</totfact>
</mgrwt>
</event>
<event>
 6    1  0.8397183E-002  0.3000000E+03  0.7818608E-02  0.1093470E+00
         21   -1    0    0  501  502  0.00000000000E+00  0.00000000000E+00  0.17409750582E+01  0.17409750582E+01  0.00000000000E+00 0. -1.
         13   -1    0    0    0    0 -0.00000000000E+00 -0.00000000000E+00 -0.10000000000E+04  0.10000000000E+04  0.00000000000E+00 0.  1.
    9000005    2    1    2  501    0  0.31070621198E+02 -0.27721685169E+02 -0.48019470895E+03  0.48200593599E+03  0.29813581633E+01 0.  0.
         13    1    3    3    0    0  0.22444990624E+01 -0.31551056048E+01 -0.44207032469E+02  0.44376279555E+02  0.00000000000E+00 0.  1.
          3    1    3    3  501    0  0.28826122136E+02 -0.24566579564E+02 -0.43598767648E+03  0.43762965643E+03  0.00000000000E+00 0.  1.
         -3    1    1    2    0  502 -0.31070621198E+02  0.27721685169E+02 -0.51806431599E+03  0.51973503907E+03  0.00000000000E+00 0. -1.
<mgrwt>
<rscale>  1 0.30000000E+03</rscale>
<asrwt>0</asrwt>
<pdfrwt beam="1">  1       21 0.63308317E-02 0.30000000E+03</pdfrwt>
<pdfrwt beam="2">0</pdfrwt>
<totfact> 0.19206636E+04</totfact>
</mgrwt>
</event>
<event>
 6    1  0.8397183E-002  0.3000000E+03  0.7818608E-02  0.1093470E+00
         21   -1    0    0  501  502  0.00000000000E+00  0.00000000000E+00  0.21940875156E+01  0.21940875156E+01  0.00000000000E+00 0. -1.
         13   -1    0    0    0    0 -0.00000000000E+00 -0.00000000000E+00 -0.10000000000E+04  0.10000000000E+04  0.00000000000E+00 0.  1.
    9000005    2    1    2  501    0  0.11920900727E+02  0.44542989303E+02 -0.58481658975E+03  0.58663859608E+03  0.28658319822E+01 0.  0.
         13    1    3    3    0    0  0.26068159196E+01  0.11119732398E+02 -0.16040163816E+03  0.16080774068E+03  0.00000000000E+00 0.  1.
          3    1    3    3  501    0  0.93140848072E+01  0.33423256905E+02 -0.42441495158E+03  0.42583085539E+03  0.00000000000E+00 0.  1.
         -3    1    1    2    0  502 -0.11920900727E+02 -0.44542989303E+02 -0.41298932274E+03  0.41555549144E+03  0.00000000000E+00 0. -1.
<mgrwt>
<rscale>  1 0.30000000E+03</rscale>
<asrwt>0</asrwt>
<pdfrwt beam="1">  1       21 0.79785169E-02 0.30000000E+03</pdfrwt>
<pdfrwt beam="2">0</pdfrwt>
<totfact> 0.12834339E+04</totfact>
</mgrwt>
</event>
<event>
 6    1  0.8397183E-002  0.3000000E+03  0.7818608E-02  0.1093470E+00
         21   -1    0    0  501  502  0.00000000000E+00  0.00000000000E+00  0.14791266852E+01  0.14791266852E+01  0.00000000000E+00 0. -1.
         13   -1    0    0    0    0 -0.00000000000E+00 -0.00000000000E+00 -0.10000000000E+04  0.10000000000E+04  0.00000000000E+00 0.  1.
    9000005    2    1    2  501    0 -0.12224588208E+02 -0.31509891157E+02 -0.73601074090E+03  0.73680218508E+03  0.48306748278E+01 0.  0.
         13    1    3    3    0    0 -0.38657937548E+01 -0.63596087957E+01 -0.13100963437E+03  0.13122085689E+03  0.00000000000E+00 0.  1.
          1    1    3    3  501    0 -0.83587944535E+01 -0.25150282361E+02 -0.60500110653E+03  0.60558132819E+03  0.00000000000E+00 0.  1.
         -1    1    1    2    0  502  0.12224588208E+02  0.31509891157E+02 -0.26251013241E+03  0.26467694160E+03  0.00000000000E+00 0. -1.
<mgrwt>
<rscale>  1 0.30000000E+03</rscale>
<asrwt>0</asrwt>
<pdfrwt beam="1">  1       21 0.53786538E-02 0.30000000E+03</pdfrwt>
<pdfrwt beam="2">0</pdfrwt>
<totfact> 0.25427752E+04</totfact>
</mgrwt>
</event>
<event>
 6    1  0.8397183E-002  0.3000000E+03  0.7818608E-02  0.1093470E+00
         21   -1    0    0  501  502  0.00000000000E+00  0.00000000000E+00  0.45470457032E+01  0.45470457032E+01  0.00000000000E+00 0. -1.
         13   -1    0    0    0    0 -0.00000000000E+00 -0.00000000000E+00 -0.10000000000E+04  0.10000000000E+04  0.00000000000E+00 0.  1.
    9000005    2    1    2  501    0  0.55771485638E+02  0.13438813268E+02 -0.76135431494E+03  0.76352166683E+03  0.37259265720E+01 0.  0.
         13    1    3    3    0    0  0.21564130819E+02  0.35821005174E+01 -0.27779421139E+03  0.27865295094E+03  0.00000000000E+00 0.  1.
          1    1    3    3  501    0  0.34207354818E+02  0.98567127510E+01 -0.48356010354E+03  0.48486871589E+03  0.00000000000E+00 0.  1.
         -1    1    1    2    0  502 -0.55771485638E+02 -0.13438813268E+02 -0.23409863936E+03  0.24102537888E+03  0.00000000000E+00 0. -1.
<mgrwt>
<rscale>  1 0.30000000E+03</rscale>
<asrwt>0</asrwt>
<pdfrwt beam="1">  1       21 0.16534747E-01 0.30000000E+03</pdfrwt>
<pdfrwt beam="2">0</pdfrwt>
<totfact> 0.34353028E+03</totfact>
</mgrwt>
</event>
<event>
 6    1  0.8397183E-002  0.3000000E+03  0.7818608E-02  0.1093470E+00
         21   -1    0    0  501  502  0.00000000000E+00  0.00000000000E+00  0.10891350514E+01  0.10891350514E+01  0.00000000000E+00 0. -1.
         13   -1    0    0    0    0 -0.00000000000E+00 -0.00000000000E+00 -0.10000000000E+04  0.10000000000E+04  0.00000000000E+00 0.  1.
    9000005    2    1    2  501    0 -0.32552584620E+02  0.37094088277E+01 -0.54450779771E+03  0.54550645540E+03  0.38885267988E+01 0.  0.
         13    1    3    3    0    0 -0.10415430922E+02  0.28010586677E+01 -0.16421868123E+03  0.16457248371E+03  0.00000000000E+00 0.  1.
          1    1    3    3  501    0 -0.22137153698E+02  0.90835016004E+00 -0.38028911648E+03  0.38093397169E+03  0.00000000000E+00 0.  1.
         -1    1    1    2    0  502  0.32552584620E+02 -0.37094088277E+01 -0.45440306724E+03  0.45558267965E+03  0.00000000000E+00 0. -1.
<mgrwt>
<rscale>  1 0.30000000E+03</rscale>
<asrwt>0</asrwt>
<pdfrwt beam="1">  1       21 0.39604994E-02 0.30000000E+03</pdfrwt>
<pdfrwt beam="2">0</pdfrwt>
<totfact> 0.42755777E+04</totfact>
</mgrwt>
</event>
<event>
 6    1  0.8397183E-002  0.3000000E+03  0.7818608E-02  0.1093470E+00
         21   -1    0    0  501  502  0.00000000000E+00  0.00000000000E+00  0.29465651489E+01  0.29465651489E+01  0.00000000000E+00 0. -1.
         13   -1    0    0    0    0 -0.00000000000E+00 -0.00000000000E+00 -0.10000000000E+04  0.10000000000E+04  0.00000000000E+00 0.  1.
    9000005    2    1    2  501    0  0.83519905124E+01 -0.44702609133E+02 -0.22630583766E+03  0.23085852769E+03  0.36398681370E+01 0.  0.
         13    1    3    3    0    0  0.77850605205E+01 -0.37427458937E+02 -0.18421307547E+03  0.18813792553E+03  0.00000000000E+00 0.  1.
          1    1    3    3  501    0  0.56692999188E+00 -0.72751501961E+01 -0.42092762184E+02  0.42720602152E+02  0.00000000000E+00 0.  1.
         -3    1    1    2    0  502 -0.83519905124E+01  0.44702609133E+02 -0.77074759720E+03  0.77208803746E+03  0.00000000000E+00 0. -1.
<mgrwt>
<rscale>  1 0.30000000E+03</rscale>
<asrwt>0</asrwt>
<pdfrwt beam="1">  1       21 0.10714805E-01 0.30000000E+03</pdfrwt>
<pdfrwt beam="2">0</pdfrwt>
<totfact> 0.76025986E+03</totfact>
</mgrwt>
</event>
<event>
 6    1  0.8397183E-002  0.3000000E+03  0.7818608E-02  0.1093470E+00
         21   -1    0    0  501  502  0.00000000000E+00  0.00000000000E+00  0.15217467734E+01  0.15217467734E+01  0.00000000000E+00 0. -1.
         13   -1    0    0    0    0 -0.00000000000E+00 -0.00000000000E+00 -0.10000000000E+04  0.10000000000E+04  0.00000000000E+00 0.  1.
    9000005    2    1    2  501    0  0.33915100623E+02 -0.17775245929E+02 -0.40763803159E+03  0.40944205541E+03  0.27997364020E+01 0.  0.
         13    1    3    3    0    0  0.26432273930E+01 -0.22595217349E+01 -0.39117220970E+02  0.39271479040E+02  0.00000000000E+00 0.  1.
          3    1    3    3  501    0  0.31271873230E+02 -0.15515724194E+02 -0.36852081062E+03  0.37017057637E+03  0.00000000000E+00 0.  1.
         -1    1    1    2    0  502 -0.33915100623E+02  0.17775245929E+02 -0.59084022164E+03  0.59207969136E+03  0.00000000000E+00 0. -1.
<mgrwt>
<rscale>  1 0.30000000E+03</rscale>
<asrwt>0</asrwt>
<pdfrwt beam="1">  1       21 0.55336363E-02 0.30000000E+03</pdfrwt>
<pdfrwt beam="2">0</pdfrwt>
<totfact> 0.24219560E+04</totfact>
</mgrwt>
</event>
<event>
 6    1  0.8397183E-002  0.3000000E+03  0.7818608E-02  0.1093470E+00
         21   -1    0    0  501  502  0.00000000000E+00  0.00000000000E+00  0.26468048590E+01  0.26468048590E+01  0.00000000000E+00 0. -1.
         13   -1    0    0    0    0 -0.00000000000E+00 -0.00000000000E+00 -0.10000000000E+04  0.10000000000E+04  0.00000000000E+00 0.  1.
    9000005    2    1    2  501    0 -0.49028497223E+02 -0.77963822686E+00 -0.64917819687E+03  0.65103589661E+03  0.33175312085E+01 0.  0.
         13    1    3    3    0    0 -0.42809568018E+02  0.42427463504E+00 -0.56430621775E+03  0.56592786335E+03  0.00000000000E+00 0.  1.
          1    1    3    3  501    0 -0.62189292051E+01 -0.12039128619E+01 -0.84871979119E+02  0.85108033265E+02  0.00000000000E+00 0.  1.
         -3    1    1    2    0  502  0.49028497223E+02  0.77963822686E+00 -0.34817499827E+03  0.35161090825E+03  0.00000000000E+00 0. -1.
<mgrwt>
<rscale>  1 0.30000000E+03</rscale>
<asrwt>0</asrwt>
<pdfrwt beam="1">  1       21 0.96247652E-02 0.30000000E+03</pdfrwt>
<pdfrwt beam="2">0</pdfrwt>
<totfact> 0.92110026E+03</totfact>
</mgrwt>
</event>
<event>
 6    1  0.8397183E-002  0.3000000E+03  0.7818608E-02  0.1093470E+00
         21   -1    0    0  501  502  0.00000000000E+00  0.00000000000E+00  0.12028716621E+01  0.12028716621E+01  0.00000000000E+00 0. -1.
         13   -1    0    0    0    0 -0.00000000000E+00 -0.00000000000E+00 -0.10000000000E+04  0.10000000000E+04  0.00000000000E+00 0.  1.
    9000005    2    1    2  501    0  0.30748575307E+02  0.15513157419E+02 -0.54533450200E+03  0.54643426411E+03  0.38148364400E+01 0.  0.
         13    1    3    3    0    0  0.29522807153E+02  0.15486209624E+02 -0.53198718861E+03  0.53303075678E+03  0.00000000000E+00 0.  1.
          3    1    3    3  501    0  0.12257681541E+01  0.26947795190E-01 -0.13347313394E+02  0.13403507324E+02  0.00000000000E+00 0.  1.
         -1    1    1    2    0  502 -0.30748575307E+02 -0.15513157419E+02 -0.45346262633E+03  0.45476860756E+03  0.00000000000E+00 0. -1.
<mgrwt>
<rscale>  1 0.30000000E+03</rscale>
<asrwt>0</asrwt>
<pdfrwt beam="1">  1       21 0.43740880E-02 0.30000000E+03</pdfrwt>
<pdfrwt beam="2">0</pdfrwt>
<totfact> 0.36156281E+04</totfact>
</mgrwt>
</event>
<event>
 6    1  0.8397183E-002  0.3000000E+03  0.7818608E-02  0.1093470E+00
         21   -1    0    0  501  502  0.00000000000E+00  0.00000000000E+00  0.97097564134E+00  0.97097564134E+00  0.00000000000E+00 0. -1.
         13   -1    0    0    0    0 -0.00000000000E+00 -0.00000000000E+00 -0.10000000000E+04  0.10000000000E+04  0.00000000000E+00 0.  1.
    9000005    2    1    2  501    0  0.30481878025E+02  0.33153026773E+01 -0.58013356664E+03  0.58095485616E+03  0.36679208649E+01 0.  0.
         13    1    3    3    0    0  0.28974759310E+02  0.28892578386E+01 -0.53249237919E+03  0.53328793197E+03  0.00000000000E+00 0.  1.
          3    1    3    3  501    0  0.15071187145E+01  0.42604483865E+00 -0.47641187443E+02  0.47666924193E+02  0.00000000000E+00 0.  1.
         -1    1    1    2    0  502 -0.30481878025E+02 -0.33153026773E+01 -0.41889545772E+03  0.42001611948E+03  0.00000000000E+00 0. -1.
<mgrwt>
<rscale>  1 0.30000000E+03</rscale>
<asrwt>0</asrwt>
<pdfrwt beam="1">  1       21 0.35308280E-02 0.30000000E+03</pdfrwt>
<pdfrwt beam="2">0</pdfrwt>
<totfact> 0.51849575E+04</totfact>
</mgrwt>
</event>
<event>
 6    1  0.8397183E-002  0.3000000E+03  0.7818608E-02  0.1093470E+00
         21   -1    0    0  501  502  0.00000000000E+00  0.00000000000E+00  0.12006117603E+01  0.12006117603E+01  0.00000000000E+00 0. -1.
         13   -1    0    0    0    0 -0.00000000000E+00 -0.00000000000E+00 -0.10000000000E+04  0.10000000000E+04  0.00000000000E+00 0.  1.
    9000005    2    1    2  501    0  0.27391038838E+02 -0.13212119802E+02 -0.26281877597E+03  0.26459197025E+03  0.32206517130E+01 0.  0.
         13    1    3    3    0    0  0.39397055103E+01 -0.26251521386E+01 -0.49921011406E+02  0.50144990607E+02  0.00000000000E+00 0.  1.
          3    1    3    3  501    0  0.23451333328E+02 -0.10586967663E+02 -0.21289776456E+03  0.21444697964E+03  0.00000000000E+00 0.  1.
         -1    1    1    2    0  502 -0.27391038838E+02  0.13212119802E+02 -0.73598061227E+03  0.73660864152E+03  0.00000000000E+00 0. -1.
<mgrwt>
<rscale>  1 0.30000000E+03</rscale>
<asrwt>0</asrwt>
<pdfrwt beam="1">  1       21 0.43658702E-02 0.30000000E+03</pdfrwt>
<pdfrwt beam="2">0</pdfrwt>
<totfact> 0.36271585E+04</totfact>
</mgrwt>
</event>
<event>
 6    1  0.8397183E-002  0.3000000E+03  0.7818608E-02  0.1093470E+00
         21   -1    0    0  501  502  0.00000000000E+00  0.00000000000E+00  0.15089192712E+01  0.15089192712E+01  0.00000000000E+00 0. -1.
         13   -1    0    0    0    0 -0.00000000000E+00 -0.00000000000E+00 -0.10000000000E+04  0.10000000000E+04  0.00000000000E+00 0.  1.
    9000005    2    1    2  501    0 -0.76737044506E+01 -0.31879480058E+02 -0.23348507284E+03  0.23580050278E+03  0.33779994939E+01 0.  0.
         13    1    3    3    0    0 -0.17131868360E+01 -0.13270208485E+02 -0.10084779619E+03  0.10173156560E+03  0.00000000000E+00 0.  1.
          3    1    3    3  501    0 -0.59605176146E+01 -0.18609271574E+02 -0.13263727665E+03  0.13406893717E+03  0.00000000000E+00 0.  1.
         -3    1    1    2    0  502  0.76737044506E+01  0.31879480058E+02 -0.76500600789E+03  0.76570841650E+03  0.00000000000E+00 0. -1.
<mgrwt>
<rscale>  1 0.30000000E+03</rscale>
<asrwt>0</asrwt>
<pdfrwt beam="1">  1       21 0.54869907E-02 0.30000000E+03</pdfrwt>
<pdfrwt beam="2">0</pdfrwt>
<totfact> 0.24573721E+04</totfact>
</mgrwt>
</event>
<event>
 6    1  0.8397183E-002  0.3000000E+03  0.7818608E-02  0.1093470E+00
         21   -1    0    0  501  502  0.00000000000E+00  0.00000000000E+00  0.16737645475E+01  0.16737645475E+01  0.00000000000E+00 0. -1.
         13   -1    0    0    0    0 -0.00000000000E+00 -0.00000000000E+00 -0.10000000000E+04  0.10000000000E+04  0.00000000000E+00 0.  1.
    9000005    2    1    2  501    0  0.28019966131E+02  0.29603676407E+02 -0.53154064426E+03  0.53311183235E+03  0.33575487449E+01 0.  0.
         13    1    3    3    0    0  0.24900283987E+02  0.27014414469E+02 -0.48912398484E+03  0.49050186062E+03  0.00000000000E+00 0.  1.
          1    1    3    3  501    0  0.31196821448E+01  0.25892619376E+01 -0.42416659422E+02  0.42609971727E+02  0.00000000000E+00 0.  1.
         -3    1    1    2    0  502 -0.28019966131E+02 -0.29603676407E+02 -0.46678559119E+03  0.46856193220E+03  0.00000000000E+00 0. -1.
<mgrwt>
<rscale>  1 0.30000000E+03</rscale>
<asrwt>0</asrwt>
<pdfrwt beam="1">  1       21 0.60864294E-02 0.30000000E+03</pdfrwt>
<pdfrwt beam="2">0</pdfrwt>
<totfact> 0.20558121E+04</totfact>
</mgrwt>
</event>
<event>
 6    1  0.8397183E-002  0.3000000E+03  0.7818608E-02  0.1093470E+00
         21   -1    0    0  501  502  0.00000000000E+00  0.00000000000E+00  0.97485811973E+00  0.97485811973E+00  0.00000000000E+00 0. -1.
         13   -1    0    0    0    0 -0.00000000000E+00 -0.00000000000E+00 -0.10000000000E+04  0.10000000000E+04  0.00000000000E+00 0.  1.
    9000005    2    1    2  501    0 -0.30347332519E+02 -0.62152332172E+01 -0.55184612715E+03  0.55272419060E+03  0.32082879044E+01 0.  0.
         13    1    3    3    0    0 -0.26446384570E+02 -0.55591671706E+01 -0.49820190511E+03  0.49893431817E+03  0.00000000000E+00 0.  1.
          1    1    3    3  501    0 -0.39009479482E+01 -0.65606604653E+00 -0.53644222043E+02  0.53789872431E+02  0.00000000000E+00 0.  1.
         -1    1    1    2    0  502  0.30347332519E+02  0.62152332172E+01 -0.44717901473E+03  0.44825066752E+03  0.00000000000E+00 0. -1.
<mgrwt>
<rscale>  1 0.30000000E+03</rscale>
<asrwt>0</asrwt>
<pdfrwt beam="1">  1       21 0.35449461E-02 0.30000000E+03</pdfrwt>
<pdfrwt beam="2">0</pdfrwt>
<totfact> 0.51503992E+04</totfact>
</mgrwt>
</event>
<event>
 6    1  0.8397183E-002  0.3000000E+03  0.7818608E-02  0.1093470E+00
         21   -1    0    0  501  502  0.00000000000E+00  0.00000000000E+00  0.96453613824E+00  0.96453613824E+00  0.00000000000E+00 0. -1.
         13   -1    0    0    0    0 -0.00000000000E+00 -0.00000000000E+00 -0.10000000000E+04  0.10000000000E+04  0.00000000000E+00 0.  1.
    9000005    2    1    2  501    0 -0.17057896540E+02 -0.24804165266E+02 -0.38318480895E+03  0.38437857489E+03  0.31737325343E+01 0.  0.
         13    1    3    3    0    0 -0.11280799416E+02 -0.14254105718E+02 -0.24267915521E+03  0.24335901122E+03  0.00000000000E+00 0.  1.
          3    1    3    3  501    0 -0.57770971234E+01 -0.10550059547E+02 -0.14050565373E+03  0.14101956367E+03  0.00000000000E+00 0.  1.
         -3    1    1    2    0  502  0.17057896540E+02  0.24804165266E+02 -0.61585065491E+03  0.61658596125E+03  0.00000000000E+00 0. -1.
<mgrwt>
<rscale>  1 0.30000000E+03</rscale>
<asrwt>0</asrwt>
<pdfrwt beam="1">  1       21 0.35074115E-02 0.30000000E+03</pdfrwt>
<pdfrwt beam="2">0</pdfrwt>
<totfact> 0.52430750E+04</totfact>
</mgrwt>
</event>
<event>
 6    1  0.8397183E-002  0.3000000E+03  0.7818608E-02  0.1093470E+00
         21   -1    0    0  501  502  0.00000000000E+00  0.00000000000E+00  0.96192567007E+00  0.96192567007E+00  0.00000000000E+00 0. -1.
         13   -1    0    0    0    0 -0.00000000000E+00 -0.00000000000E+00 -0.10000000000E+04  0.10000000000E+04  0.00000000000E+00 0.  1.
    9000005    2    1    2  501    0 -0.57441779923E+01 -0.30320224698E+02 -0.53324623587E+03  0.53414895629E+03  0.33537782352E+01 0.  0.
         13    1    3    3    0    0 -0.17429190922E+01 -0.14039916352E+02 -0.22002230171E+03  0.22047668872E+03  0.00000000000E+00 0.  1.
          1    1    3    3  501    0 -0.40012589001E+01 -0.16280308347E+02 -0.31322393415E+03  0.31367226756E+03  0.00000000000E+00 0.  1.
         -1    1    1    2    0  502  0.57441779923E+01  0.30320224698E+02 -0.46579183846E+03  0.46681296938E+03  0.00000000000E+00 0. -1.
<mgrwt>
<rscale>  1 0.30000000E+03</rscale>
<asrwt>0</asrwt>
<pdfrwt beam="1">  1       21 0.34979189E-02 0.30000000E+03</pdfrwt>
<pdfrwt beam="2">0</pdfrwt>
<totfact> 0.52669235E+04</totfact>
</mgrwt>
</event>
<event>
 6    1  0.8397183E-002  0.3000000E+03  0.7818608E-02  0.1093470E+00
         21   -1    0    0  501  502  0.00000000000E+00  0.00000000000E+00  0.25850705669E+01  0.25850705669E+01  0.00000000000E+00 0. -1.
         13   -1    0    0    0    0 -0.00000000000E+00 -0.00000000000E+00 -0.10000000000E+04  0.10000000000E+04  0.00000000000E+00 0.  1.
    9000005    2    1    2  501    0 -0.98072417565E+01 -0.45226372060E+02 -0.70589413794E+03  0.70741397003E+03  0.25267156840E+01 0.  0.
         13    1    3    3    0    0 -0.43090779431E+01 -0.20294657629E+02 -0.29743970699E+03  0.29816240637E+03  0.00000000000E+00 0.  1.
          3    1    3    3  501    0 -0.54981638134E+01 -0.24931714431E+02 -0.40845443095E+03  0.40925156365E+03  0.00000000000E+00 0.  1.
         -3    1    1    2    0  502  0.98072417565E+01  0.45226372060E+02 -0.29152079149E+03  0.29517110054E+03  0.00000000000E+00 0. -1.
<mgrwt>
<rscale>  1 0.30000000E+03</rscale>
<asrwt>0</asrwt>
<pdfrwt beam="1">  1       21 0.94002764E-02 0.30000000E+03</pdfrwt>
<pdfrwt beam="2">0</pdfrwt>
<totfact> 0.96065195E+03</totfact>
</mgrwt>
</event>
<event>
 6    1  0.8397183E-002  0.3000000E+03  0.7818608E-02  0.1093470E+00
         21   -1    0    0  501  502  0.00000000000E+00  0.00000000000E+00  0.39286120224E+01  0.39286120224E+01  0.00000000000E+00 0. -1.
         13   -1    0    0    0    0 -0.00000000000E+00 -0.00000000000E+00 -0.10000000000E+04  0.10000000000E+04  0.00000000000E+00 0.  1.
    9000005    2    1    2  501    0  0.42856810326E+02  0.76681563807E+01 -0.13797394792E+03  0.14472739959E+03  0.37017662724E+01 0.  0.
         13    1    3    3    0    0  0.23673552242E+02  0.57307778738E+01 -0.80640607972E+02  0.84238866000E+02  0.00000000000E+00 0.  1.
          1    1    3    3  501    0  0.19183258084E+02  0.19373785069E+01 -0.57333339944E+02  0.60488533586E+02  0.00000000000E+00 0.  1.
         -3    1    1    2    0  502 -0.42856810326E+02 -0.76681563807E+01 -0.85809744006E+03  0.85920121244E+03  0.00000000000E+00 0. -1.
<mgrwt>
<rscale>  1 0.30000000E+03</rscale>
<asrwt>0</asrwt>
<pdfrwt beam="1">  1       21 0.14285892E-01 0.30000000E+03</pdfrwt>
<pdfrwt beam="2">0</pdfrwt>
<totfact> 0.45059984E+03</totfact>
</mgrwt>
</event>
<event>
 6    1  0.8397183E-002  0.3000000E+03  0.7818608E-02  0.1093470E+00
         21   -1    0    0  501  502  0.00000000000E+00  0.00000000000E+00  0.11109562228E+01  0.11109562228E+01  0.00000000000E+00 0. -1.
         13   -1    0    0    0    0 -0.00000000000E+00 -0.00000000000E+00 -0.10000000000E+04  0.10000000000E+04  0.00000000000E+00 0.  1.
    9000005    2    1    2  501    0 -0.26704160382E+02  0.18306439343E+02 -0.61349862078E+03  0.61436295553E+03  0.36118587225E+01 0.  0.
         13    1    3    3    0    0 -0.76171289635E+01  0.56856171219E+01 -0.21172499866E+03  0.21193825033E+03  0.00000000000E+00 0.  1.
          3    1    3    3  501    0 -0.19087031418E+02  0.12620822221E+02 -0.40177362213E+03  0.40242470520E+03  0.00000000000E+00 0.  1.
         -1    1    1    2    0  502  0.26704160382E+02 -0.18306439343E+02 -0.38539042299E+03  0.38674800069E+03  0.00000000000E+00 0. -1.
<mgrwt>
<rscale>  1 0.30000000E+03</rscale>
<asrwt>0</asrwt>
<pdfrwt beam="1">  1       21 0.40398493E-02 0.30000000E+03</pdfrwt>
<pdfrwt beam="2">0</pdfrwt>
<totfact> 0.41351043E+04</totfact>
</mgrwt>
</event>
<event>
 6    1  0.8397183E-002  0.3000000E+03  0.7818608E-02  0.1093470E+00
         21   -1    0    0  501  502  0.00000000000E+00  0.00000000000E+00  0.14667735741E+01  0.14667735741E+01  0.00000000000E+00 0. -1.
         13   -1    0    0    0    0 -0.00000000000E+00 -0.00000000000E+00 -0.10000000000E+04  0.10000000000E+04  0.00000000000E+00 0.  1.
    9000005    2    1    2  501    0  0.37790606852E+02  0.23283253345E+01 -0.43156584414E+03  0.43323657054E+03  0.33611246584E+01 0.  0.
         13    1    3    3    0    0  0.33080203446E+02  0.30718129362E+01 -0.37257629932E+03  0.37405458787E+03  0.00000000000E+00 0.  1.
          3    1    3    3  501    0  0.47104034070E+01 -0.74348760169E+00 -0.58989544824E+02  0.59181982669E+02  0.00000000000E+00 0.  1.
         -1    1    1    2    0  502 -0.37790606852E+02 -0.23283253345E+01 -0.56696738229E+03  0.56823020304E+03  0.00000000000E+00 0. -1.
<mgrwt>
<rscale>  1 0.30000000E+03</rscale>
<asrwt>0</asrwt>
<pdfrwt beam="1">  1       21 0.53337333E-02 0.30000000E+03</pdfrwt>
<pdfrwt beam="2">0</pdfrwt>
<totfact> 0.25795369E+04</totfact>
</mgrwt>
</event>
<event>
 6    1  0.8397183E-002  0.3000000E+03  0.7818608E-02  0.1093470E+00
         21   -1    0    0  501  502  0.00000000000E+00  0.00000000000E+00  0.21723382274E+01  0.21723382274E+01  0.00000000000E+00 0. -1.
         13   -1    0    0    0    0 -0.00000000000E+00 -0.00000000000E+00 -0.10000000000E+04  0.10000000000E+04  0.00000000000E+00 0.  1.
    9000005    2    1    2  501    0  0.42377933103E+02  0.13743525881E+02 -0.35394633812E+03  0.35675159742E+03  0.29863479992E+01 0.  0.
         13    1    3    3    0    0  0.17763645867E+02  0.73134721278E+01 -0.15283938783E+03  0.15404191787E+03  0.00000000000E+00 0.  1.
          1    1    3    3  501    0  0.24614287236E+02  0.64300537534E+01 -0.20110695029E+03  0.20270967955E+03  0.00000000000E+00 0.  1.
         -3    1    1    2    0  502 -0.42377933103E+02 -0.13743525881E+02 -0.64388132365E+03  0.64542074081E+03  0.00000000000E+00 0. -1.
<mgrwt>
<rscale>  1 0.30000000E+03</rscale>
<asrwt>0</asrwt>
<pdfrwt beam="1">  1       21 0.78994284E-02 0.30000000E+03</pdfrwt>
<pdfrwt beam="2">0</pdfrwt>
<totfact> 0.13060794E+04</totfact>
</mgrwt>
</event>
<event>
 6    1  0.8397183E-002  0.3000000E+03  0.7818608E-02  0.1093470E+00
         21   -1    0    0  501  502  0.00000000000E+00  0.00000000000E+00  0.93537987805E+00  0.93537987805E+00  0.00000000000E+00 0. -1.
         13   -1    0    0    0    0 -0.00000000000E+00 -0.00000000000E+00 -0.10000000000E+04  0.10000000000E+04  0.00000000000E+00 0.  1.
    9000005    2    1    2  501    0 -0.23396263475E+02 -0.19103055136E+02 -0.47244226350E+03  0.47344754272E+03  0.62105959848E+01 0.  0.
         13    1    3    3    0    0 -0.18764083536E+02 -0.13044451030E+02 -0.32027216446E+03  0.32108644921E+03  0.00000000000E+00 0.  1.
          1    1    3    3  501    0 -0.46321799391E+01 -0.60586041063E+01 -0.15217009904E+03  0.15236109351E+03  0.00000000000E+00 0.  1.
         -1    1    1    2    0  502  0.23396263475E+02  0.19103055136E+02 -0.52662235662E+03  0.52748783716E+03  0.00000000000E+00 0. -1.
<mgrwt>
<rscale>  1 0.30000000E+03</rscale>
<asrwt>0</asrwt>
<pdfrwt beam="1">  1       21 0.34013885E-02 0.30000000E+03</pdfrwt>
<pdfrwt beam="2">0</pdfrwt>
<totfact> 0.55193347E+04</totfact>
</mgrwt>
</event>
<event>
 6    1  0.8397183E-002  0.3000000E+03  0.7818608E-02  0.1093470E+00
         21   -1    0    0  501  502  0.00000000000E+00  0.00000000000E+00  0.93807332484E+00  0.93807332484E+00  0.00000000000E+00 0. -1.
         13   -1    0    0    0    0 -0.00000000000E+00 -0.00000000000E+00 -0.10000000000E+04  0.10000000000E+04  0.00000000000E+00 0.  1.
    9000005    2    1    2  501    0 -0.11961567738E+02  0.27680142080E+02 -0.42186257695E+03  0.42295160402E+03  0.32796569467E+01 0.  0.
         13    1    3    3    0    0 -0.82681357385E+00  0.46916376478E+01 -0.60319246114E+02  0.60507078398E+02  0.00000000000E+00 0.  1.
          3    1    3    3  501    0 -0.11134754164E+02  0.22988504433E+02 -0.36154333083E+03  0.36244452562E+03  0.00000000000E+00 0.  1.
         -3    1    1    2    0  502  0.11961567738E+02 -0.27680142080E+02 -0.57719934973E+03  0.57798646930E+03  0.00000000000E+00 0. -1.
<mgrwt>
<rscale>  1 0.30000000E+03</rscale>
<asrwt>0</asrwt>
<pdfrwt beam="1">  1       21 0.34111829E-02 0.30000000E+03</pdfrwt>
<pdfrwt beam="2">0</pdfrwt>
<totfact> 0.54928742E+04</totfact>
</mgrwt>
</event>
<event>
 6    1  0.8397183E-002  0.3000000E+03  0.7818608E-02  0.1093470E+00
         21   -1    0    0  501  502  0.00000000000E+00  0.00000000000E+00  0.98863259267E+00  0.98863259267E+00  0.00000000000E+00 0. -1.
         13   -1    0    0    0    0 -0.00000000000E+00 -0.00000000000E+00 -0.10000000000E+04  0.10000000000E+04  0.00000000000E+00 0.  1.
    9000005    2    1    2  501    0  0.22666558347E+02  0.21576167596E+02 -0.49497307506E+03  0.49597981680E+03  0.42813273235E+01 0.  0.
         13    1    3    3    0    0  0.20367486888E+02  0.18816354173E+02 -0.45568420186E+03  0.45652708740E+03  0.00000000000E+00 0.  1.
          3    1    3    3  501    0  0.22990714587E+01  0.27598134238E+01 -0.39288873202E+02  0.39452729401E+02  0.00000000000E+00 0.  1.
         -3    1    1    2    0  502 -0.22666558347E+02 -0.21576167596E+02 -0.50403829235E+03  0.50500881579E+03  0.00000000000E+00 0. -1.
<mgrwt>
<rscale>  1 0.30000000E+03</rscale>
<asrwt>0</asrwt>
<pdfrwt beam="1">  1       21 0.35950352E-02 0.30000000E+03</pdfrwt>
<pdfrwt beam="2">0</pdfrwt>
<totfact> 0.50306599E+04</totfact>
</mgrwt>
</event>
<event>
 6    1  0.8397183E-002  0.3000000E+03  0.7818608E-02  0.1093470E+00
         21   -1    0    0  501  502  0.00000000000E+00  0.00000000000E+00  0.49408284739E+01  0.49408284739E+01  0.00000000000E+00 0. -1.
         13   -1    0    0    0    0 -0.00000000000E+00 -0.00000000000E+00 -0.10000000000E+04  0.10000000000E+04  0.00000000000E+00 0.  1.
    9000005    2    1    2  501    0 -0.21350355432E+02 -0.66826522870E+02 -0.47077476739E+03  0.47598359177E+03  0.31426408992E+01 0.  0.
         13    1    3    3    0    0 -0.86117981966E+01 -0.26025359183E+02 -0.17383598819E+03  0.17598418445E+03  0.00000000000E+00 0.  1.
          1    1    3    3  501    0 -0.12738557235E+02 -0.40801163687E+02 -0.29693877920E+03  0.29999940732E+03  0.00000000000E+00 0.  1.
         -1    1    1    2    0  502  0.21350355432E+02  0.66826522870E+02 -0.52428440414E+03  0.52895723670E+03  0.00000000000E+00 0. -1.
<mgrwt>
<rscale>  1 0.30000000E+03</rscale>
<asrwt>0</asrwt>
<pdfrwt beam="1">  1       21 0.17966687E-01 0.30000000E+03</pdfrwt>
<pdfrwt beam="2">0</pdfrwt>
<totfact> 0.29397900E+03</totfact>
</mgrwt>
</event>
<event>
 6    1  0.8397183E-002  0.3000000E+03  0.7818608E-02  0.1093470E+00
         21   -1    0    0  501  502  0.00000000000E+00  0.00000000000E+00  0.99724548890E+00  0.99724548890E+00  0.00000000000E+00 0. -1.
         13   -1    0    0    0    0 -0.00000000000E+00 -0.00000000000E+00 -0.10000000000E+04  0.10000000000E+04  0.00000000000E+00 0.  1.
    9000005    2    1    2  501    0  0.29659689172E+02 -0.10032579396E+02 -0.44986203441E+03  0.45096462801E+03  0.35910871441E+01 0.  0.
         13    1    3    3    0    0  0.22553928176E+02 -0.60953921244E+01 -0.32511681259E+03  0.32595517377E+03  0.00000000000E+00 0.  1.
          1    1    3    3  501    0  0.71057609953E+01 -0.39371872714E+01 -0.12474522182E+03  0.12500945424E+03  0.00000000000E+00 0.  1.
         -1    1    1    2    0  502 -0.29659689172E+02  0.10032579396E+02 -0.54914072010E+03  0.55003261748E+03  0.00000000000E+00 0. -1.
<mgrwt>
<rscale>  1 0.30000000E+03</rscale>
<asrwt>0</asrwt>
<pdfrwt beam="1">  1       21 0.36263549E-02 0.30000000E+03</pdfrwt>
<pdfrwt beam="2">0</pdfrwt>
<totfact> 0.49580059E+04</totfact>
</mgrwt>
</event>
<event>
 6    1  0.8397183E-002  0.3000000E+03  0.7818608E-02  0.1093470E+00
         21   -1    0    0  501  502  0.00000000000E+00  0.00000000000E+00  0.10104178302E+01  0.10104178302E+01  0.00000000000E+00 0. -1.
         13   -1    0    0    0    0 -0.00000000000E+00 -0.00000000000E+00 -0.10000000000E+04  0.10000000000E+04  0.00000000000E+00 0.  1.
    9000005    2    1    2  501    0  0.22516161319E+02  0.22146759144E+02 -0.54727218760E+03  0.54819029790E+03  0.28807854367E+01 0.  0.
         13    1    3    3    0    0  0.86278260263E+00  0.68974102222E+00 -0.11983094314E+02  0.12033897367E+02  0.00000000000E+00 0.  1.
          3    1    3    3  501    0  0.21653378716E+02  0.21457018122E+02 -0.53528909329E+03  0.53615640053E+03  0.00000000000E+00 0.  1.
         -3    1    1    2    0  502 -0.22516161319E+02 -0.22146759144E+02 -0.45171739457E+03  0.45282011993E+03  0.00000000000E+00 0. -1.
<mgrwt>
<rscale>  1 0.30000000E+03</rscale>
<asrwt>0</asrwt>
<pdfrwt beam="1">  1       21 0.36742544E-02 0.30000000E+03</pdfrwt>
<pdfrwt beam="2">0</pdfrwt>
<totfact> 0.48500478E+04</totfact>
</mgrwt>
</event>
<event>
 6    1  0.8397183E-002  0.3000000E+03  0.7818608E-02  0.1093470E+00
         21   -1    0    0  501  502  0.00000000000E+00  0.00000000000E+00  0.13046681632E+01  0.13046681632E+01  0.00000000000E+00 0. -1.
         13   -1    0    0    0    0 -0.00000000000E+00 -0.00000000000E+00 -0.10000000000E+04  0.10000000000E+04  0.00000000000E+00 0.  1.
    9000005    2    1    2  501    0  0.34209906867E+02  0.89684049941E+01 -0.40753311259E+03  0.40908551998E+03  0.41200461054E+01 0.  0.
         13    1    3    3    0    0  0.95711146482E+01  0.33801864064E+01 -0.13684288872E+03  0.13721883285E+03  0.00000000000E+00 0.  1.
          3    1    3    3  501    0  0.24638792218E+02  0.55882185877E+01 -0.27069022387E+03  0.27186668713E+03  0.00000000000E+00 0.  1.
         -1    1    1    2    0  502 -0.34209906867E+02 -0.89684049941E+01 -0.59116221924E+03  0.59221914819E+03  0.00000000000E+00 0. -1.
<mgrwt>
<rscale>  1 0.30000000E+03</rscale>
<asrwt>0</asrwt>
<pdfrwt beam="1">  1       21 0.47442579E-02 0.30000000E+03</pdfrwt>
<pdfrwt beam="2">0</pdfrwt>
<totfact> 0.31498287E+04</totfact>
</mgrwt>
</event>
<event>
 6    1  0.8397183E-002  0.3000000E+03  0.7818608E-02  0.1093470E+00
         21   -1    0    0  501  502  0.00000000000E+00  0.00000000000E+00  0.16556677367E+01  0.16556677367E+01  0.00000000000E+00 0. -1.
         13   -1    0    0    0    0 -0.00000000000E+00 -0.00000000000E+00 -0.10000000000E+04  0.10000000000E+04  0.00000000000E+00 0.  1.
    9000005    2    1    2  501    0  0.37607522855E+02 -0.10498617428E+02 -0.36208414459E+03  0.36419855298E+03  0.33333889549E+01 0.  0.
         13    1    3    3    0    0  0.32661178051E+02 -0.10245895333E+02 -0.31804385243E+03  0.31988063867E+03  0.00000000000E+00 0.  1.
          1    1    3    3  501    0  0.49463448046E+01 -0.25272209494E+00 -0.44040292159E+02  0.44317914310E+02  0.00000000000E+00 0.  1.
         -1    1    1    2    0  502 -0.37607522855E+02  0.10498617428E+02 -0.63626018767E+03  0.63745711476E+03  0.00000000000E+00 0. -1.
<mgrwt>
<rscale>  1 0.30000000E+03</rscale>
<asrwt>0</asrwt>
<pdfrwt beam="1">  1       21 0.60206226E-02 0.30000000E+03</pdfrwt>
<pdfrwt beam="2">0</pdfrwt>
<totfact> 0.20947331E+04</totfact>
</mgrwt>
</event>
<event>
 6    1  0.8397183E-002  0.3000000E+03  0.7818608E-02  0.1093470E+00
         21   -1    0    0  501  502  0.00000000000E+00  0.00000000000E+00  0.11399276106E+01  0.11399276106E+01  0.00000000000E+00 0. -1.
         13   -1    0    0    0    0 -0.00000000000E+00 -0.00000000000E+00 -0.10000000000E+04  0.10000000000E+04  0.00000000000E+00 0.  1.
    9000005    2    1    2  501    0  0.24489351412E+02 -0.20475466460E+02 -0.34450557264E+03  0.34600728119E+03  0.42398112664E+01 0.  0.
         13    1    3    3    0    0  0.16592855572E+02 -0.11820793696E+02 -0.23235274513E+03  0.23324419004E+03  0.00000000000E+00 0.  1.
          1    1    3    3  501    0  0.78964958401E+01 -0.86546727637E+01 -0.11215282751E+03  0.11276309115E+03  0.00000000000E+00 0.  1.
         -1    1    1    2    0  502 -0.24489351412E+02  0.20475466460E+02 -0.65435449975E+03  0.65513264642E+03  0.00000000000E+00 0. -1.
<mgrwt>
<rscale>  1 0.30000000E+03</rscale>
<asrwt>0</asrwt>
<pdfrwt beam="1">  1       21 0.41452001E-02 0.30000000E+03</pdfrwt>
<pdfrwt beam="2">0</pdfrwt>
<totfact> 0.39594566E+04</totfact>
</mgrwt>
</event>
<event>
 6    1  0.8397183E-002  0.3000000E+03  0.7818608E-02  0.1093470E+00
         21   -1    0    0  501  502  0.00000000000E+00  0.00000000000E+00  0.24445479035E+01  0.24445479035E+01  0.00000000000E+00 0. -1.
         13   -1    0    0    0    0 -0.00000000000E+00 -0.00000000000E+00 -0.10000000000E+04  0.10000000000E+04  0.00000000000E+00 0.  1.
    9000005    2    1    2  501    0  0.46647501688E+02 -0.12576967888E+02 -0.60293252495E+03  0.60487515250E+03  0.34858183633E+01 0.  0.
         13    1    3    3    0    0  0.34024817844E+02 -0.77049945368E+01 -0.44254312127E+03  0.44391606116E+03  0.00000000000E+00 0.  1.
          3    1    3    3  501    0  0.12622683844E+02 -0.48719733509E+01 -0.16038940368E+03  0.16095909134E+03  0.00000000000E+00 0.  1.
         -3    1    1    2    0  502 -0.46647501688E+02  0.12576967888E+02 -0.39462292715E+03  0.39756939541E+03  0.00000000000E+00 0. -1.
<mgrwt>
<rscale>  1 0.30000000E+03</rscale>
<asrwt>0</asrwt>
<pdfrwt beam="1">  1       21 0.88892838E-02 0.30000000E+03</pdfrwt>
<pdfrwt beam="2">0</pdfrwt>
<totfact> 0.10608063E+04</totfact>
</mgrwt>
</event>
<event>
 6    1  0.8397183E-002  0.3000000E+03  0.7818608E-02  0.1093470E+00
         21   -1    0    0  501  502  0.00000000000E+00  0.00000000000E+00  0.28633420440E+01  0.28633420440E+01  0.00000000000E+00 0. -1.
         13   -1    0    0    0    0 -0.00000000000E+00 -0.00000000000E+00 -0.10000000000E+04  0.10000000000E+04  0.00000000000E+00 0.  1.
    9000005    2    1    2  501    0  0.44220519954E+02  0.23790463492E+02 -0.32739503735E+03  0.33124196142E+03  0.35051371297E+01 0.  0.
         13    1    3    3    0    0  0.16302242542E+02  0.73213597298E+01 -0.10928485644E+03  0.11073637735E+03  0.00000000000E+00 0.  1.
          3    1    3    3  501    0  0.27918277412E+02  0.16469103762E+02 -0.21811018090E+03  0.22050558407E+03  0.00000000000E+00 0.  1.
         -1    1    1    2    0  502 -0.44220519954E+02 -0.23790463492E+02 -0.66974162061E+03  0.67162138063E+03  0.00000000000E+00 0. -1.
<mgrwt>
<rscale>  1 0.30000000E+03</rscale>
<asrwt>0</asrwt>
<pdfrwt beam="1">  1       21 0.10412175E-01 0.30000000E+03</pdfrwt>
<pdfrwt beam="2">0</pdfrwt>
<totfact> 0.80034350E+03</totfact>
</mgrwt>
</event>
<event>
 6    1  0.8397183E-002  0.3000000E+03  0.7818608E-02  0.1093470E+00
         21   -1    0    0  501  502  0.00000000000E+00  0.00000000000E+00  0.12076703495E+01  0.12076703495E+01  0.00000000000E+00 0. -1.
         13   -1    0    0    0    0 -0.00000000000E+00 -0.00000000000E+00 -0.10000000000E+04  0.10000000000E+04  0.00000000000E+00 0.  1.
    9000005    2    1    2  501    0 -0.22030134231E+02 -0.22075362378E+02 -0.71668441544E+03  0.71738109708E+03  0.51418540495E+01 0.  0.
         13    1    3    3    0    0 -0.11933369818E+02 -0.12085356258E+02 -0.44753217253E+03  0.44785433636E+03  0.00000000000E+00 0.  1.
          1    1    3    3  501    0 -0.10096764413E+02 -0.99900061199E+01 -0.26915224292E+03  0.26952676071E+03  0.00000000000E+00 0.  1.
         -3    1    1    2    0  502  0.22030134231E+02  0.22075362378E+02 -0.28210791421E+03  0.28382657327E+03  0.00000000000E+00 0. -1.
<mgrwt>
<rscale>  1 0.30000000E+03</rscale>
<asrwt>0</asrwt>
<pdfrwt beam="1">  1       21 0.43915378E-02 0.30000000E+03</pdfrwt>
<pdfrwt beam="2">0</pdfrwt>
<totfact> 0.35913319E+04</totfact>
</mgrwt>
</event>
<event>
 6    1  0.8397183E-002  0.3000000E+03  0.7818608E-02  0.1093470E+00
         21   -1    0    0  501  502  0.00000000000E+00  0.00000000000E+00  0.17971075622E+01  0.17971075622E+01  0.00000000000E+00 0. -1.
         13   -1    0    0    0    0 -0.00000000000E+00 -0.00000000000E+00 -0.10000000000E+04  0.10000000000E+04  0.00000000000E+00 0.  1.
    9000005    2    1    2  501    0  0.22703697864E+00 -0.39241716569E+02 -0.68780167164E+03  0.68892511818E+03  0.25913487443E+01 0.  0.
         13    1    3    3    0    0 -0.73947940086E+00 -0.12636588713E+02 -0.23766565059E+03  0.23800250350E+03  0.00000000000E+00 0.  1.
          1    1    3    3  501    0  0.96651637950E+00 -0.26605127856E+02 -0.45013602105E+03  0.45092261468E+03  0.00000000000E+00 0.  1.
         -1    1    1    2    0  502 -0.22703697864E+00  0.39241716569E+02 -0.31040122080E+03  0.31287198938E+03  0.00000000000E+00 0. -1.
<mgrwt>
<rscale>  1 0.30000000E+03</rscale>
<asrwt>0</asrwt>
<pdfrwt beam="1">  1       21 0.65349504E-02 0.30000000E+03</pdfrwt>
<pdfrwt beam="2">0</pdfrwt>
<totfact> 0.18180432E+04</totfact>
</mgrwt>
</event>
<event>
 6    1  0.8397183E-002  0.3000000E+03  0.7818608E-02  0.1093470E+00
         21   -1    0    0  501  502  0.00000000000E+00  0.00000000000E+00  0.12101532425E+01  0.12101532425E+01  0.00000000000E+00 0. -1.
         13   -1    0    0    0    0 -0.00000000000E+00 -0.00000000000E+00 -0.10000000000E+04  0.10000000000E+04  0.00000000000E+00 0.  1.
    9000005    2    1    2  501    0 -0.23504097544E+02 -0.22393570738E+02 -0.32333151357E+03  0.32497212231E+03  0.31141607537E+01 0.  0.
         13    1    3    3    0    0 -0.19832158722E+02 -0.19974432967E+02 -0.27195603201E+03  0.27340880717E+03  0.00000000000E+00 0.  1.
          3    1    3    3  501    0 -0.36719388221E+01 -0.24191377711E+01 -0.51375481567E+02  0.51563315142E+02  0.00000000000E+00 0.  1.
         -1    1    1    2    0  502  0.23504097544E+02  0.22393570738E+02 -0.67545833318E+03  0.67623803093E+03  0.00000000000E+00 0. -1.
<mgrwt>
<rscale>  1 0.30000000E+03</rscale>
<asrwt>0</asrwt>
<pdfrwt beam="1">  1       21 0.44005665E-02 0.30000000E+03</pdfrwt>
<pdfrwt beam="2">0</pdfrwt>
<totfact> 0.35788598E+04</totfact>
</mgrwt>
</event>
<event>
 6    1  0.8397183E-002  0.3000000E+03  0.7818608E-02  0.1093470E+00
         21   -1    0    0  501  502  0.00000000000E+00  0.00000000000E+00  0.16843956063E+01  0.16843956063E+01  0.00000000000E+00 0. -1.
         13   -1    0    0    0    0 -0.00000000000E+00 -0.00000000000E+00 -0.10000000000E+04  0.10000000000E+04  0.00000000000E+00 0.  1.
    9000005    2    1    2  501    0  0.35532024042E+02 -0.17495690981E+02 -0.37220383923E+03  0.37432121019E+03  0.34708107690E+01 0.  0.
         13    1    3    3    0    0  0.16334678819E+02 -0.76426459742E+01 -0.18549165412E+03  0.18636626711E+03  0.00000000000E+00 0.  1.
          1    1    3    3  501    0  0.19197345223E+02 -0.98530450063E+01 -0.18671218511E+03  0.18795494308E+03  0.00000000000E+00 0.  1.
         -3    1    1    2    0  502 -0.35532024042E+02  0.17495690981E+02 -0.62611176517E+03  0.62736318542E+03  0.00000000000E+00 0. -1.
<mgrwt>
<rscale>  1 0.30000000E+03</rscale>
<asrwt>0</asrwt>
<pdfrwt beam="1">  1       21 0.61250878E-02 0.30000000E+03</pdfrwt>
<pdfrwt beam="2">0</pdfrwt>
<totfact> 0.20334696E+04</totfact>
</mgrwt>
</event>
<event>
 6    1  0.8397183E-002  0.3000000E+03  0.7818608E-02  0.1093470E+00
         21   -1    0    0  501  502  0.00000000000E+00  0.00000000000E+00  0.12688849051E+01  0.12688849051E+01  0.00000000000E+00 0. -1.
         13   -1    0    0    0    0 -0.00000000000E+00 -0.00000000000E+00 -0.10000000000E+04  0.10000000000E+04  0.00000000000E+00 0.  1.
    9000005    2    1    2  501    0  0.30393027476E+02 -0.16598331019E+02 -0.38722291569E+03  0.38878091061E+03  0.31255896336E+01 0.  0.
         13    1    3    3    0    0  0.30348557599E+02 -0.16693917819E+02 -0.38665353459E+03  0.38820185169E+03  0.00000000000E+00 0.  1.
          3    1    3    3  501    0  0.44469877446E-01  0.95586800566E-01 -0.56938109627E+00  0.57905892552E+00  0.00000000000E+00 0.  1.
         -3    1    1    2    0  502 -0.30393027476E+02  0.16598331019E+02 -0.61150819941E+03  0.61248797429E+03  0.00000000000E+00 0. -1.
<mgrwt>
<rscale>  1 0.30000000E+03</rscale>
<asrwt>0</asrwt>
<pdfrwt beam="1">  1       21 0.46141367E-02 0.30000000E+03</pdfrwt>
<pdfrwt beam="2">0</pdfrwt>
<totfact> 0.33023169E+04</totfact>
</mgrwt>
</event>
<event>
 6    1  0.8397183E-002  0.3000000E+03  0.7818608E-02  0.1093470E+00
         21   -1    0    0  501  502  0.00000000000E+00  0.00000000000E+00  0.18260645337E+01  0.18260645337E+01  0.00000000000E+00 0. -1.
         13   -1    0    0    0    0 -0.00000000000E+00 -0.00000000000E+00 -0.10000000000E+04  0.10000000000E+04  0.00000000000E+00 0.  1.
    9000005    2    1    2  501    0 -0.77102714271E+01 -0.37857961647E+02 -0.28707273145E+03  0.28967608321E+03  0.29675741483E+01 0.  0.
         13    1    3    3    0    0 -0.49719644553E+01 -0.19837151896E+02 -0.16047618015E+03  0.16177403197E+03  0.00000000000E+00 0.  1.
          1    1    3    3  501    0 -0.27383069719E+01 -0.18020809751E+02 -0.12659655130E+03  0.12790205124E+03  0.00000000000E+00 0.  1.
         -1    1    1    2    0  502  0.77102714271E+01  0.37857961647E+02 -0.71110120402E+03  0.71214998133E+03  0.00000000000E+00 0. -1.
<mgrwt>
<rscale>  1 0.30000000E+03</rscale>
<asrwt>0</asrwt>
<pdfrwt beam="1">  1       21 0.66402487E-02 0.30000000E+03</pdfrwt>
<pdfrwt beam="2">0</pdfrwt>
<totfact> 0.17683776E+04</totfact>
</mgrwt>
</event>
<event>
 6    1  0.8397183E-002  0.3000000E+03  0.7818608E-02  0.1093470E+00
         21   -1    0    0  501  502  0.00000000000E+00  0.00000000000E+00  0.31068818202E+01  0.31068818202E+01  0.00000000000E+00 0. -1.
         13   -1    0    0    0    0 -0.00000000000E+00 -0.00000000000E+00 -0.10000000000E+04  0.10000000000E+04  0.00000000000E+00 0.  1.
    9000005    2    1    2  501    0  0.16693868478E+02  0.52091786427E+02 -0.40343139093E+03  0.40712948194E+03  0.22996562545E+01 0.  0.
         13    1    3    3    0    0  0.60800246053E+01  0.15699163029E+02 -0.12674456548E+03  0.12785779326E+03  0.00000000000E+00 0.  1.
          3    1    3    3  501    0  0.10613843873E+02  0.36392623398E+02 -0.27668682545E+03  0.27927168868E+03  0.00000000000E+00 0.  1.
         -3    1    1    2    0  502 -0.16693868478E+02 -0.52091786427E+02 -0.59346172725E+03  0.59597739988E+03  0.00000000000E+00 0. -1.
<mgrwt>
<rscale>  1 0.30000000E+03</rscale>
<asrwt>0</asrwt>
<pdfrwt beam="1">  1       21 0.11297776E-01 0.30000000E+03</pdfrwt>
<pdfrwt beam="2">0</pdfrwt>
<totfact> 0.69113687E+03</totfact>
</mgrwt>
</event>
<event>
 6    1  0.8397183E-002  0.3000000E+03  0.7818608E-02  0.1093470E+00
         21   -1    0    0  501  502  0.00000000000E+00  0.00000000000E+00  0.20645896777E+01  0.20645896777E+01  0.00000000000E+00 0. -1.
         13   -1    0    0    0    0 -0.00000000000E+00 -0.00000000000E+00 -0.10000000000E+04  0.10000000000E+04  0.00000000000E+00 0.  1.
    9000005    2    1    2  501    0  0.41195045284E+02 -0.16995363439E+02 -0.40555587111E+03  0.40801123129E+03  0.34243441193E+01 0.  0.
         13    1    3    3    0    0  0.28718698373E+02 -0.13505730293E+02 -0.29026990479E+03  0.29199963359E+03  0.00000000000E+00 0.  1.
          1    1    3    3  501    0  0.12476346911E+02 -0.34896331466E+01 -0.11528596631E+03  0.11601159770E+03  0.00000000000E+00 0.  1.
         -1    1    1    2    0  502 -0.41195045284E+02  0.16995363439E+02 -0.59237953922E+03  0.59405335839E+03  0.00000000000E+00 0. -1.
<mgrwt>
<rscale>  1 0.30000000E+03</rscale>
<asrwt>0</asrwt>
<pdfrwt beam="1">  1       21 0.75076147E-02 0.30000000E+03</pdfrwt>
<pdfrwt beam="2">0</pdfrwt>
<totfact> 0.14279070E+04</totfact>
</mgrwt>
</event>
<event>
 6    1  0.8397183E-002  0.3000000E+03  0.7818608E-02  0.1093470E+00
         21   -1    0    0  501  502  0.00000000000E+00  0.00000000000E+00  0.12420698621E+01  0.12420698621E+01  0.00000000000E+00 0. -1.
         13   -1    0    0    0    0 -0.00000000000E+00 -0.00000000000E+00 -0.10000000000E+04  0.10000000000E+04  0.00000000000E+00 0.  1.
    9000005    2    1    2  501    0  0.21088868784E+02 -0.21381120474E+02 -0.24110812601E+03  0.24299730833E+03  0.35595964797E+01 0.  0.
         13    1    3    3    0    0  0.21203219533E+02 -0.20995744723E+02 -0.23801043577E+03  0.23987364455E+03  0.00000000000E+00 0.  1.
          1    1    3    3  501    0 -0.11435074832E+00 -0.38537575056E+00 -0.30976902393E+01  0.31236637754E+01  0.00000000000E+00 0.  1.
         -3    1    1    2    0  502 -0.21088868784E+02  0.21381120474E+02 -0.75764980413E+03  0.75824476153E+03  0.00000000000E+00 0. -1.
<mgrwt>
<rscale>  1 0.30000000E+03</rscale>
<asrwt>0</asrwt>
<pdfrwt beam="1">  1       21 0.45166272E-02 0.30000000E+03</pdfrwt>
<pdfrwt beam="2">0</pdfrwt>
<totfact> 0.34243178E+04</totfact>
</mgrwt>
</event>
<event>
 6    1  0.8397183E-002  0.3000000E+03  0.7818608E-02  0.1093470E+00
         21   -1    0    0  501  502  0.00000000000E+00  0.00000000000E+00  0.27127954451E+01  0.27127954451E+01  0.00000000000E+00 0. -1.
         13   -1    0    0    0    0 -0.00000000000E+00 -0.00000000000E+00 -0.10000000000E+04  0.10000000000E+04  0.00000000000E+00 0.  1.
    9000005    2    1    2  501    0  0.18846295096E+02  0.48309947222E+02 -0.47033999442E+03  0.47322021182E+03  0.53502046221E+01 0.  0.
         13    1    3    3    0    0  0.14096754045E+02  0.29296060995E+02 -0.28675996546E+03  0.28859704686E+03  0.00000000000E+00 0.  1.
          3    1    3    3  501    0  0.47495410516E+01  0.19013886227E+02 -0.18358002895E+03  0.18462316496E+03  0.00000000000E+00 0.  1.
         -3    1    1    2    0  502 -0.18846295096E+02 -0.48309947222E+02 -0.52694721014E+03  0.52949258362E+03  0.00000000000E+00 0. -1.
<mgrwt>
<rscale>  1 0.30000000E+03</rscale>
<asrwt>0</asrwt>
<pdfrwt beam="1">  1       21 0.98647315E-02 0.30000000E+03</pdfrwt>
<pdfrwt beam="2">0</pdfrwt>
<totfact> 0.88150413E+03</totfact>
</mgrwt>
</event>
<event>
 6    1  0.8397183E-002  0.3000000E+03  0.7818608E-02  0.1093470E+00
         21   -1    0    0  501  502  0.00000000000E+00  0.00000000000E+00  0.10152972518E+02  0.10152972518E+02  0.00000000000E+00 0. -1.
         13   -1    0    0    0    0 -0.00000000000E+00 -0.00000000000E+00 -0.10000000000E+04  0.10000000000E+04  0.00000000000E+00 0.  1.
    9000005    2    1    2  501    0  0.98699526815E+02  0.10518768402E+02 -0.40909816150E+03  0.42098280489E+03  0.36021088841E+01 0.  0.
         13    1    3    3    0    0  0.59554249630E+02  0.53412323285E+01 -0.25250519225E+03  0.25948816837E+03  0.00000000000E+00 0.  1.
          1    1    3    3  501    0  0.39145277185E+02  0.51775360738E+01 -0.15659296925E+03  0.16149463652E+03  0.00000000000E+00 0.  1.
         -3    1    1    2    0  502 -0.98699526815E+02 -0.10518768402E+02 -0.58074886598E+03  0.58917016762E+03  0.00000000000E+00 0. -1.
<mgrwt>
<rscale>  1 0.30000000E+03</rscale>
<asrwt>0</asrwt>
<pdfrwt beam="1">  1       21 0.36919978E-01 0.30000000E+03</pdfrwt>
<pdfrwt beam="2">0</pdfrwt>
<totfact> 0.71317547E+02</totfact>
</mgrwt>
</event>
<event>
 6    1  0.8397183E-002  0.3000000E+03  0.7818608E-02  0.1093470E+00
         21   -1    0    0  501  502  0.00000000000E+00  0.00000000000E+00  0.44832829346E+01  0.44832829346E+01  0.00000000000E+00 0. -1.
         13   -1    0    0    0    0 -0.00000000000E+00 -0.00000000000E+00 -0.10000000000E+04  0.10000000000E+04  0.00000000000E+00 0.  1.
    9000005    2    1    2  501    0 -0.60074141606E+02  0.22227530342E+02 -0.35248328962E+03  0.35826741002E+03  0.28464058113E+01 0.  0.
         13    1    3    3    0    0 -0.37160680383E+02  0.15164178830E+02 -0.21858970476E+03  0.22224384697E+03  0.00000000000E+00 0.  1.
          3    1    3    3  501    0 -0.22913461224E+02  0.70633515121E+01 -0.13389358485E+03  0.13602356305E+03  0.00000000000E+00 0.  1.
         -3    1    1    2    0  502  0.60074141606E+02 -0.22227530342E+02 -0.64303342745E+03  0.64621587292E+03  0.00000000000E+00 0. -1.
<mgrwt>
<rscale>  1 0.30000000E+03</rscale>
<asrwt>0</asrwt>
<pdfrwt beam="1">  1       21 0.16302881E-01 0.30000000E+03</pdfrwt>
<pdfrwt beam="2">0</pdfrwt>
<totfact> 0.35271093E+03</totfact>
</mgrwt>
</event>
<event>
 6    1  0.8397183E-002  0.3000000E+03  0.7818608E-02  0.1093470E+00
         21   -1    0    0  501  502  0.00000000000E+00  0.00000000000E+00  0.10317844047E+01  0.10317844047E+01  0.00000000000E+00 0. -1.
         13   -1    0    0    0    0 -0.00000000000E+00 -0.00000000000E+00 -0.10000000000E+04  0.10000000000E+04  0.00000000000E+00 0.  1.
    9000005    2    1    2  501    0 -0.25133300118E+01 -0.31939054626E+02 -0.51004384189E+03  0.51105886347E+03  0.31656360529E+01 0.  0.
         13    1    3    3    0    0 -0.13669679109E+01 -0.14338541014E+02 -0.20481095282E+03  0.20531680095E+03  0.00000000000E+00 0.  1.
          3    1    3    3  501    0 -0.11463621010E+01 -0.17600513612E+02 -0.30523288907E+03  0.30574206252E+03  0.00000000000E+00 0.  1.
         -1    1    1    2    0  502  0.25133300118E+01  0.31939054626E+02 -0.48892437371E+03  0.48997292093E+03  0.00000000000E+00 0. -1.
<mgrwt>
<rscale>  1 0.30000000E+03</rscale>
<asrwt>0</asrwt>
<pdfrwt beam="1">  1       21 0.37519512E-02 0.30000000E+03</pdfrwt>
<pdfrwt beam="2">0</pdfrwt>
<totfact> 0.46826351E+04</totfact>
</mgrwt>
</event>
<event>
 6    1  0.8397183E-002  0.3000000E+03  0.7818608E-02  0.1093470E+00
         21   -1    0    0  501  502  0.00000000000E+00  0.00000000000E+00  0.15252667580E+01  0.15252667580E+01  0.00000000000E+00 0. -1.
         13   -1    0    0    0    0 -0.00000000000E+00 -0.00000000000E+00 -0.10000000000E+04  0.10000000000E+04  0.00000000000E+00 0.  1.
    9000005    2    1    2  501    0 -0.32726520200E+02 -0.12900008110E+02 -0.71484893643E+03  0.71572633752E+03  0.42134282861E+01 0.  0.
         13    1    3    3    0    0 -0.56234108256E+01 -0.10976074301E+01 -0.94603641678E+02  0.94776983019E+02  0.00000000000E+00 0.  1.
          1    1    3    3  501    0 -0.27103109374E+02 -0.11802400680E+02 -0.62024529475E+03  0.62094935450E+03  0.00000000000E+00 0.  1.
         -1    1    1    2    0  502  0.32726520200E+02  0.12900008110E+02 -0.28362579681E+03  0.28579892924E+03  0.00000000000E+00 0. -1.
<mgrwt>
<rscale>  1 0.30000000E+03</rscale>
<asrwt>0</asrwt>
<pdfrwt beam="1">  1       21 0.55464363E-02 0.30000000E+03</pdfrwt>
<pdfrwt beam="2">0</pdfrwt>
<totfact> 0.24123748E+04</totfact>
</mgrwt>
</event>
<event>
 6    1  0.8397183E-002  0.3000000E+03  0.7818608E-02  0.1093470E+00
         21   -1    0    0  501  502  0.00000000000E+00  0.00000000000E+00  0.18650583389E+01  0.18650583389E+01  0.00000000000E+00 0. -1.
         13   -1    0    0    0    0 -0.00000000000E+00 -0.00000000000E+00 -0.10000000000E+04  0.10000000000E+04  0.00000000000E+00 0.  1.
    9000005    2    1    2  501    0  0.11940630487E+02 -0.38766737359E+02 -0.33018644707E+03  0.33268598663E+03  0.33819065278E+01 0.  0.
         13    1    3    3    0    0  0.38112971711E+01 -0.14557067833E+02 -0.13494653656E+03  0.13578292212E+03  0.00000000000E+00 0.  1.
          3    1    3    3  501    0  0.81293333161E+01 -0.24209669527E+02 -0.19523991051E+03  0.19690306451E+03  0.00000000000E+00 0.  1.
         -1    1    1    2    0  502 -0.11940630487E+02  0.38766737359E+02 -0.66794849459E+03  0.66917907171E+03  0.00000000000E+00 0. -1.
<mgrwt>
<rscale>  1 0.30000000E+03</rscale>
<asrwt>0</asrwt>
<pdfrwt beam="1">  1       21 0.67820446E-02 0.30000000E+03</pdfrwt>
<pdfrwt beam="2">0</pdfrwt>
<totfact> 0.17047278E+04</totfact>
</mgrwt>
</event>
<event>
 6    1  0.8397183E-002  0.3000000E+03  0.7818608E-02  0.1093470E+00
         21   -1    0    0  501  502  0.00000000000E+00  0.00000000000E+00  0.13358204835E+01  0.13358204835E+01  0.00000000000E+00 0. -1.
         13   -1    0    0    0    0 -0.00000000000E+00 -0.00000000000E+00 -0.10000000000E+04  0.10000000000E+04  0.00000000000E+00 0.  1.
    9000005    2    1    2  501    0 -0.22433535034E+02 -0.26482328311E+02 -0.34627633245E+03  0.34802541937E+03  0.31331938583E+01 0.  0.
         13    1    3    3    0    0 -0.82734060777E+01 -0.83066701901E+01 -0.12845325647E+03  0.12898716648E+03  0.00000000000E+00 0.  1.
          1    1    3    3  501    0 -0.14160128956E+02 -0.18175658121E+02 -0.21782307598E+03  0.21903825289E+03  0.00000000000E+00 0.  1.
         -1    1    1    2    0  502  0.22433535034E+02  0.26482328311E+02 -0.65238784706E+03  0.65331040111E+03  0.00000000000E+00 0. -1.
<mgrwt>
<rscale>  1 0.30000000E+03</rscale>
<asrwt>0</asrwt>
<pdfrwt beam="1">  1       21 0.48575393E-02 0.30000000E+03</pdfrwt>
<pdfrwt beam="2">0</pdfrwt>
<totfact> 0.30258589E+04</totfact>
</mgrwt>
</event>
<event>
 6    1  0.8397183E-002  0.3000000E+03  0.7818608E-02  0.1093470E+00
         21   -1    0    0  501  502  0.00000000000E+00  0.00000000000E+00  0.40802770442E+01  0.40802770442E+01  0.00000000000E+00 0. -1.
         13   -1    0    0    0    0 -0.00000000000E+00 -0.00000000000E+00 -0.10000000000E+04  0.10000000000E+04  0.00000000000E+00 0.  1.
    9000005    2    1    2  501    0 -0.57139516276E+02  0.26941376238E+02 -0.42676160260E+03  0.43142704162E+03  0.36145143721E+01 0.  0.
         13    1    3    3    0    0 -0.45621340807E+02  0.20710062524E+02 -0.32933222134E+03  0.33312148751E+03  0.00000000000E+00 0.  1.
          3    1    3    3  501    0 -0.11518175469E+02  0.62313137141E+01 -0.97429381257E+02  0.98305554110E+02  0.00000000000E+00 0.  1.
         -1    1    1    2    0  502  0.57139516276E+02 -0.26941376238E+02 -0.56915812035E+03  0.57265323542E+03  0.00000000000E+00 0. -1.
<mgrwt>
<rscale>  1 0.30000000E+03</rscale>
<asrwt>0</asrwt>
<pdfrwt beam="1">  1       21 0.14837402E-01 0.30000000E+03</pdfrwt>
<pdfrwt beam="2">0</pdfrwt>
<totfact> 0.42018976E+03</totfact>
</mgrwt>
</event>
<event>
 6    1  0.8397183E-002  0.3000000E+03  0.7818608E-02  0.1093470E+00
         21   -1    0    0  501  502  0.00000000000E+00  0.00000000000E+00  0.95259316733E+00  0.95259316733E+00  0.00000000000E+00 0. -1.
         13   -1    0    0    0    0 -0.00000000000E+00 -0.00000000000E+00 -0.10000000000E+04  0.10000000000E+04  0.00000000000E+00 0.  1.
    9000005    2    1    2  501    0 -0.22194820912E+02  0.21264740137E+02 -0.47719897857E+03  0.47819970573E+03  0.33606784051E+01 0.  0.
         13    1    3    3    0    0 -0.95546409664E+01  0.69420636892E+01 -0.18754356919E+03  0.18791507059E+03  0.00000000000E+00 0.  1.
          3    1    3    3  501    0 -0.12640179946E+02  0.14322676448E+02 -0.28965540939E+03  0.29028463514E+03  0.00000000000E+00 0.  1.
         -1    1    1    2    0  502  0.22194820912E+02 -0.21264740137E+02 -0.52184842826E+03  0.52275288744E+03  0.00000000000E+00 0. -1.
<mgrwt>
<rscale>  1 0.30000000E+03</rscale>
<asrwt>0</asrwt>
<pdfrwt beam="1">  1       21 0.34639825E-02 0.30000000E+03</pdfrwt>
<pdfrwt beam="2">0</pdfrwt>
<totfact> 0.53535764E+04</totfact>
</mgrwt>
</event>
<event>
 6    1  0.8397183E-002  0.3000000E+03  0.7818608E-02  0.1093470E+00
         21   -1    0    0  501  502  0.00000000000E+00  0.00000000000E+00  0.16448330703E+01  0.16448330703E+01  0.00000000000E+00 0. -1.
         13   -1    0    0    0    0 -0.00000000000E+00 -0.00000000000E+00 -0.10000000000E+04  0.10000000000E+04  0.00000000000E+00 0.  1.
    9000005    2    1    2  501    0  0.14103380994E+02 -0.36817711163E+02 -0.38687066592E+03  0.38889060487E+03  0.35413543459E+01 0.  0.
         13    1    3    3    0    0  0.75027215653E+01 -0.23448969804E+02 -0.23081796809E+03  0.23212729139E+03  0.00000000000E+00 0.  1.
          1    1    3    3  501    0  0.66006594290E+01 -0.13368741359E+02 -0.15605269783E+03  0.15676331347E+03  0.00000000000E+00 0.  1.
         -3    1    1    2    0  502 -0.14103380994E+02  0.36817711163E+02 -0.61148450101E+03  0.61275422820E+03  0.00000000000E+00 0. -1.
<mgrwt>
<rscale>  1 0.30000000E+03</rscale>
<asrwt>0</asrwt>
<pdfrwt beam="1">  1       21 0.59812238E-02 0.30000000E+03</pdfrwt>
<pdfrwt beam="2">0</pdfrwt>
<totfact> 0.21185870E+04</totfact>
</mgrwt>
</event>
<event>
 6    1  0.8397183E-002  0.3000000E+03  0.7818608E-02  0.1093470E+00
         21   -1    0    0  501  502  0.00000000000E+00  0.00000000000E+00  0.14708148580E+01  0.14708148580E+01  0.00000000000E+00 0. -1.
         13   -1    0    0    0    0 -0.00000000000E+00 -0.00000000000E+00 -0.10000000000E+04  0.10000000000E+04  0.00000000000E+00 0.  1.
    9000005    2    1    2  501    0  0.29678010158E+02 -0.23054625946E+02 -0.58569430014E+03  0.58692896855E+03  0.59582584962E+01 0.  0.
         13    1    3    3    0    0  0.16666609286E+02 -0.16369140770E+02 -0.37608147397E+03  0.37680631589E+03  0.00000000000E+00 0.  1.
          1    1    3    3  501    0  0.13011400872E+02 -0.66854851751E+01 -0.20961282617E+03  0.21012265266E+03  0.00000000000E+00 0.  1.
         -1    1    1    2    0  502 -0.29678010158E+02  0.23054625946E+02 -0.41283488500E+03  0.41454184631E+03  0.00000000000E+00 0. -1.
<mgrwt>
<rscale>  1 0.30000000E+03</rscale>
<asrwt>0</asrwt>
<pdfrwt beam="1">  1       21 0.53484289E-02 0.30000000E+03</pdfrwt>
<pdfrwt beam="2">0</pdfrwt>
<totfact> 0.25674205E+04</totfact>
</mgrwt>
</event>
<event>
 6    1  0.8397183E-002  0.3000000E+03  0.7818608E-02  0.1093470E+00
         21   -1    0    0  501  502  0.00000000000E+00  0.00000000000E+00  0.38314368455E+01  0.38314368455E+01  0.00000000000E+00 0. -1.
         13   -1    0    0    0    0 -0.00000000000E+00 -0.00000000000E+00 -0.10000000000E+04  0.10000000000E+04  0.00000000000E+00 0.  1.
    9000005    2    1    2  501    0  0.47661949492E+01 -0.58316730411E+02 -0.66131383142E+03  0.66390313701E+03  0.27989376940E+01 0.  0.
         13    1    3    3    0    0  0.45993051546E+01 -0.40732508946E+02 -0.46044519073E+03  0.46226622693E+03  0.00000000000E+00 0.  1.
          3    1    3    3  501    0  0.16688979459E+00 -0.17584221465E+02 -0.20086864069E+03  0.20163691008E+03  0.00000000000E+00 0.  1.
         -1    1    1    2    0  502 -0.47661949492E+01  0.58316730411E+02 -0.33485473174E+03  0.33992829983E+03  0.00000000000E+00 0. -1.
<mgrwt>
<rscale>  1 0.30000000E+03</rscale>
<asrwt>0</asrwt>
<pdfrwt beam="1">  1       21 0.13932527E-01 0.30000000E+03</pdfrwt>
<pdfrwt beam="2">0</pdfrwt>
<totfact> 0.47183646E+03</totfact>
</mgrwt>
</event>
<event>
 6    1  0.8397183E-002  0.3000000E+03  0.7818608E-02  0.1093470E+00
         21   -1    0    0  501  502  0.00000000000E+00  0.00000000000E+00  0.42934259199E+01  0.42934259199E+01  0.00000000000E+00 0. -1.
         13   -1    0    0    0    0 -0.00000000000E+00 -0.00000000000E+00 -0.10000000000E+04  0.10000000000E+04  0.00000000000E+00 0.  1.
    9000005    2    1    2  501    0  0.53588717085E+02  0.11081881391E+02 -0.77377083392E+03  0.77571076810E+03  0.33665460437E+01 0.  0.
         13    1    3    3    0    0  0.25444828921E+02  0.35750809092E+01 -0.35833008663E+03  0.35925015172E+03  0.00000000000E+00 0.  1.
          3    1    3    3  501    0  0.28143888164E+02  0.75068004821E+01 -0.41544074729E+03  0.41646061639E+03  0.00000000000E+00 0.  1.
         -1    1    1    2    0  502 -0.53588717085E+02 -0.11081881391E+02 -0.22193574016E+03  0.22858265782E+03  0.00000000000E+00 0. -1.
<mgrwt>
<rscale>  1 0.30000000E+03</rscale>
<asrwt>0</asrwt>
<pdfrwt beam="1">  1       21 0.15612491E-01 0.30000000E+03</pdfrwt>
<pdfrwt beam="2">0</pdfrwt>
<totfact> 0.38233066E+03</totfact>
</mgrwt>
</event>
<event>
 6    1  0.8397183E-002  0.3000000E+03  0.7818608E-02  0.1093470E+00
         21   -1    0    0  501  502  0.00000000000E+00  0.00000000000E+00  0.17063418877E+01  0.17063418877E+01  0.00000000000E+00 0. -1.
         13   -1    0    0    0    0 -0.00000000000E+00 -0.00000000000E+00 -0.10000000000E+04  0.10000000000E+04  0.00000000000E+00 0.  1.
    9000005    2    1    2  501    0 -0.30733752294E+02 -0.16871279478E+02 -0.23662722340E+03  0.23923341688E+03  0.33138040279E+01 0.  0.
         13    1    3    3    0    0 -0.24071413670E+02 -0.13923221533E+02 -0.19513017400E+03  0.19710168406E+03  0.00000000000E+00 0.  1.
          1    1    3    3  501    0 -0.66623386240E+01 -0.29480579453E+01 -0.41497049397E+02  0.42131732818E+02  0.00000000000E+00 0.  1.
         -1    1    1    2    0  502  0.30733752294E+02  0.16871279478E+02 -0.76166643471E+03  0.76247292501E+03  0.00000000000E+00 0. -1.
<mgrwt>
<rscale>  1 0.30000000E+03</rscale>
<asrwt>0</asrwt>
<pdfrwt beam="1">  1       21 0.62048927E-02 0.30000000E+03</pdfrwt>
<pdfrwt beam="2">0</pdfrwt>
<totfact> 0.19885231E+04</totfact>
</mgrwt>
</event>
<event>
 6    1  0.8397183E-002  0.3000000E+03  0.7818608E-02  0.1093470E+00
         21   -1    0    0  501  502  0.00000000000E+00  0.00000000000E+00  0.16668053879E+01  0.16668053879E+01  0.00000000000E+00 0. -1.
         13   -1    0    0    0    0 -0.00000000000E+00 -0.00000000000E+00 -0.10000000000E+04  0.10000000000E+04  0.00000000000E+00 0.  1.
    9000005    2    1    2  501    0 -0.59123287204E+01 -0.33353374628E+02 -0.77855790307E+03  0.77929643416E+03  0.17665286595E+01 0.  0.
         13    1    3    3    0    0 -0.54055126177E+01 -0.32120586224E+02 -0.75204489061E+03  0.75274993797E+03  0.00000000000E+00 0.  1.
          1    1    3    3  501    0 -0.50681610279E+00 -0.12327884037E+01 -0.26513012461E+02  0.26546496183E+02  0.00000000000E+00 0.  1.
         -3    1    1    2    0  502  0.59123287204E+01  0.33353374628E+02 -0.21977529154E+03  0.22237037123E+03  0.00000000000E+00 0. -1.
<mgrwt>
<rscale>  1 0.30000000E+03</rscale>
<asrwt>0</asrwt>
<pdfrwt beam="1">  1       21 0.60611233E-02 0.30000000E+03</pdfrwt>
<pdfrwt beam="2">0</pdfrwt>
<totfact> 0.20706451E+04</totfact>
</mgrwt>
</event>
<event>
 6    1  0.8397183E-002  0.3000000E+03  0.7818608E-02  0.1093470E+00
         21   -1    0    0  501  502  0.00000000000E+00  0.00000000000E+00  0.11067708846E+01  0.11067708846E+01  0.00000000000E+00 0. -1.
         13   -1    0    0    0    0 -0.00000000000E+00 -0.00000000000E+00 -0.10000000000E+04  0.10000000000E+04  0.00000000000E+00 0.  1.
    9000005    2    1    2  501    0 -0.30103738760E+02  0.35805406112E+01 -0.70405285509E+03  0.70471193032E+03  0.30702793544E+01 0.  0.
         13    1    3    3    0    0 -0.63607979217E+01  0.68120234024E+00 -0.12162811520E+03  0.12179623226E+03  0.00000000000E+00 0.  1.
          1    1    3    3  501    0 -0.23742940839E+02  0.28993382710E+01 -0.58242473989E+03  0.58291569805E+03  0.00000000000E+00 0.  1.
         -3    1    1    2    0  502  0.30103738760E+02 -0.35805406112E+01 -0.29484037403E+03  0.29639484057E+03  0.00000000000E+00 0. -1.
<mgrwt>
<rscale>  1 0.30000000E+03</rscale>
<asrwt>0</asrwt>
<pdfrwt beam="1">  1       21 0.40246299E-02 0.30000000E+03</pdfrwt>
<pdfrwt beam="2">0</pdfrwt>
<totfact> 0.41614828E+04</totfact>
</mgrwt>
</event>
<event>
 6    1  0.8397183E-002  0.3000000E+03  0.7818608E-02  0.1093470E+00
         21   -1    0    0  501  502  0.00000000000E+00  0.00000000000E+00  0.12496067143E+01  0.12496067143E+01  0.00000000000E+00 0. -1.
         13   -1    0    0    0    0 -0.00000000000E+00 -0.00000000000E+00 -0.10000000000E+04  0.10000000000E+04  0.00000000000E+00 0.  1.
    9000005    2    1    2  501    0  0.24567565798E+02 -0.25272667102E+02 -0.51538166833E+03  0.51659756941E+03  0.35371859820E+01 0.  0.
         13    1    3    3    0    0  0.12579356432E+02 -0.13589390142E+02 -0.24566545376E+03  0.24636238938E+03  0.00000000000E+00 0.  1.
          3    1    3    3  501    0  0.11988209366E+02 -0.11683276959E+02 -0.26971621457E+03  0.27023518003E+03  0.00000000000E+00 0.  1.
         -1    1    1    2    0  502 -0.24567565798E+02  0.25272667102E+02 -0.48336872496E+03  0.48465203730E+03  0.00000000000E+00 0. -1.
<mgrwt>
<rscale>  1 0.30000000E+03</rscale>
<asrwt>0</asrwt>
<pdfrwt beam="1">  1       21 0.45440340E-02 0.30000000E+03</pdfrwt>
<pdfrwt beam="2">0</pdfrwt>
<totfact> 0.33893257E+04</totfact>
</mgrwt>
</event>
<event>
 6    1  0.8397183E-002  0.3000000E+03  0.7818608E-02  0.1093470E+00
         21   -1    0    0  501  502  0.00000000000E+00  0.00000000000E+00  0.16660402431E+01  0.16660402431E+01  0.00000000000E+00 0. -1.
         13   -1    0    0    0    0 -0.00000000000E+00 -0.00000000000E+00 -0.10000000000E+04  0.10000000000E+04  0.00000000000E+00 0.  1.
    9000005    2    1    2  501    0 -0.39402239330E+02  0.75696684061E+01 -0.58681623936E+03  0.58819697182E+03  0.35415441227E+01 0.  0.
         13    1    3    3    0    0 -0.23648853300E+02  0.60890485188E+01 -0.36808732685E+03  0.36889649627E+03  0.00000000000E+00 0.  1.
          3    1    3    3  501    0 -0.15753386030E+02  0.14806198873E+01 -0.21872891252E+03  0.21930047555E+03  0.00000000000E+00 0.  1.
         -3    1    1    2    0  502  0.39402239330E+02 -0.75696684061E+01 -0.41151772039E+03  0.41346906842E+03  0.00000000000E+00 0. -1.
<mgrwt>
<rscale>  1 0.30000000E+03</rscale>
<asrwt>0</asrwt>
<pdfrwt beam="1">  1       21 0.60583409E-02 0.30000000E+03</pdfrwt>
<pdfrwt beam="2">0</pdfrwt>
<totfact> 0.20722861E+04</totfact>
</mgrwt>
</event>
<event>
 6    1  0.8397183E-002  0.3000000E+03  0.7818608E-02  0.1093470E+00
         21   -1    0    0  501  502  0.00000000000E+00  0.00000000000E+00  0.92654339802E+00  0.92654339802E+00  0.00000000000E+00 0. -1.
         13   -1    0    0    0    0 -0.00000000000E+00 -0.00000000000E+00 -0.10000000000E+04  0.10000000000E+04  0.00000000000E+00 0.  1.
    9000005    2    1    2  501    0 -0.16346846823E+02  0.25548398794E+02 -0.51233264084E+03  0.51324164328E+03  0.35084806989E+01 0.  0.
         13    1    3    3    0    0 -0.13575704919E+02  0.22695499217E+02 -0.42928645718E+03  0.43010027641E+03  0.00000000000E+00 0.  1.
          1    1    3    3  501    0 -0.27711419036E+01  0.28528995766E+01 -0.83046183668E+02  0.83141366871E+02  0.00000000000E+00 0.  1.
         -1    1    1    2    0  502  0.16346846823E+02 -0.25548398794E+02 -0.48674081576E+03  0.48768490012E+03  0.00000000000E+00 0. -1.
<mgrwt>
<rscale>  1 0.30000000E+03</rscale>
<asrwt>0</asrwt>
<pdfrwt beam="1">  1       21 0.33692558E-02 0.30000000E+03</pdfrwt>
<pdfrwt beam="2">0</pdfrwt>
<totfact> 0.56075549E+04</totfact>
</mgrwt>
</event>
<event>
 6    1  0.8397183E-002  0.3000000E+03  0.7818608E-02  0.1093470E+00
         21   -1    0    0  501  502  0.00000000000E+00  0.00000000000E+00  0.11097024629E+01  0.11097024629E+01  0.00000000000E+00 0. -1.
         13   -1    0    0    0    0 -0.00000000000E+00 -0.00000000000E+00 -0.10000000000E+04  0.10000000000E+04  0.00000000000E+00 0.  1.
    9000005    2    1    2  501    0  0.91075441625E+01 -0.31565504883E+02 -0.43397671802E+03  0.43524162527E+03  0.44891121809E+01 0.  0.
         13    1    3    3    0    0  0.86629467698E+00 -0.29713429629E+01 -0.26597637459E+02  0.26777110820E+02  0.00000000000E+00 0.  1.
          1    1    3    3  501    0  0.82412494855E+01 -0.28594161920E+02 -0.40737908056E+03  0.40846451445E+03  0.00000000000E+00 0.  1.
         -1    1    1    2    0  502 -0.91075441625E+01  0.31565504883E+02 -0.56491357952E+03  0.56586807719E+03  0.00000000000E+00 0. -1.
<mgrwt>
<rscale>  1 0.30000000E+03</rscale>
<asrwt>0</asrwt>
<pdfrwt beam="1">  1       21 0.40352902E-02 0.30000000E+03</pdfrwt>
<pdfrwt beam="2">0</pdfrwt>
<totfact> 0.41429787E+04</totfact>
</mgrwt>
</event>
<event>
 6    1  0.8397183E-002  0.3000000E+03  0.7818608E-02  0.1093470E+00
         21   -1    0    0  501  502  0.00000000000E+00  0.00000000000E+00  0.31842726516E+01  0.31842726516E+01  0.00000000000E+00 0. -1.
         13   -1    0    0    0    0 -0.00000000000E+00 -0.00000000000E+00 -0.10000000000E+04  0.10000000000E+04  0.00000000000E+00 0.  1.
    9000005    2    1    2  501    0 -0.19746757647E+02 -0.46243781295E+02 -0.27206843401E+03  0.27669472631E+03  0.32120142646E+01 0.  0.
         13    1    3    3    0    0 -0.11940876647E+02 -0.27550920522E+02 -0.15375271378E+03  0.15665738014E+03  0.00000000000E+00 0.  1.
          3    1    3    3  501    0 -0.78058809999E+01 -0.18692860773E+02 -0.11831572023E+03  0.12003734617E+03  0.00000000000E+00 0.  1.
         -3    1    1    2    0  502  0.19746757647E+02  0.46243781295E+02 -0.72474729334E+03  0.72648954634E+03  0.00000000000E+00 0. -1.
<mgrwt>
<rscale>  1 0.30000000E+03</rscale>
<asrwt>0</asrwt>
<pdfrwt beam="1">  1       21 0.11579198E-01 0.30000000E+03</pdfrwt>
<pdfrwt beam="2">0</pdfrwt>
<totfact> 0.66110455E+03</totfact>
</mgrwt>
</event>
<event>
 6    1  0.8397183E-002  0.3000000E+03  0.7818608E-02  0.1093470E+00
         21   -1    0    0  501  502  0.00000000000E+00  0.00000000000E+00  0.10574729264E+01  0.10574729264E+01  0.00000000000E+00 0. -1.
         13   -1    0    0    0    0 -0.00000000000E+00 -0.00000000000E+00 -0.10000000000E+04  0.10000000000E+04  0.00000000000E+00 0.  1.
    9000005    2    1    2  501    0 -0.25785611930E+02 -0.19533174851E+02 -0.46497179586E+03  0.46610777015E+03  0.33525738148E+01 0.  0.
         13    1    3    3    0    0 -0.35830783730E+01 -0.38120232573E+01 -0.63371796054E+02  0.63587376947E+02  0.00000000000E+00 0.  1.
          3    1    3    3  501    0 -0.22202533557E+02 -0.15721151594E+02 -0.40159999980E+03  0.40252039320E+03  0.00000000000E+00 0.  1.
         -3    1    1    2    0  502  0.25785611930E+02  0.19533174851E+02 -0.53397073122E+03  0.53494970278E+03  0.00000000000E+00 0. -1.
<mgrwt>
<rscale>  1 0.30000000E+03</rscale>
<asrwt>0</asrwt>
<pdfrwt beam="1">  1       21 0.38453642E-02 0.30000000E+03</pdfrwt>
<pdfrwt beam="2">0</pdfrwt>
<totfact> 0.44931006E+04</totfact>
</mgrwt>
</event>
<event>
 6    1  0.8397183E-002  0.3000000E+03  0.7818608E-02  0.1093470E+00
         21   -1    0    0  501  502  0.00000000000E+00  0.00000000000E+00  0.59350015327E+01  0.59350015327E+01  0.00000000000E+00 0. -1.
         13   -1    0    0    0    0 -0.00000000000E+00 -0.00000000000E+00 -0.10000000000E+04  0.10000000000E+04  0.00000000000E+00 0.  1.
    9000005    2    1    2  501    0  0.37037605195E+02 -0.66536628977E+02 -0.42285154947E+03  0.42966795275E+03  0.34942151388E+01 0.  0.
         13    1    3    3    0    0  0.17813334154E+02 -0.28788028739E+02 -0.19209670487E+03  0.19505693911E+03  0.00000000000E+00 0.  1.
          3    1    3    3  501    0  0.19224271041E+02 -0.37748600237E+02 -0.23075484460E+03  0.23461101364E+03  0.00000000000E+00 0.  1.
         -1    1    1    2    0  502 -0.37037605195E+02  0.66536628977E+02 -0.57121344900E+03  0.57626704878E+03  0.00000000000E+00 0. -1.
<mgrwt>
<rscale>  1 0.30000000E+03</rscale>
<asrwt>0</asrwt>
<pdfrwt beam="1">  1       21 0.21581869E-01 0.30000000E+03</pdfrwt>
<pdfrwt beam="2">0</pdfrwt>
<totfact> 0.20737402E+03</totfact>
</mgrwt>
</event>
<event>
 6    1  0.8397183E-002  0.3000000E+03  0.7818608E-02  0.1093470E+00
         21   -1    0    0  501  502  0.00000000000E+00  0.00000000000E+00  0.27876998700E+01  0.27876998700E+01  0.00000000000E+00 0. -1.
         13   -1    0    0    0    0 -0.00000000000E+00 -0.00000000000E+00 -0.10000000000E+04  0.10000000000E+04  0.00000000000E+00 0.  1.
    9000005    2    1    2  501    0 -0.22725761724E+02  0.40899528395E+02 -0.26768345808E+03  0.27175995549E+03  0.31317742567E+01 0.  0.
         13    1    3    3    0    0 -0.20730859872E+02  0.36158938072E+02 -0.24263553314E+03  0.24618943782E+03  0.00000000000E+00 0.  1.
          3    1    3    3  501    0 -0.19949018522E+01  0.47405903232E+01 -0.25047924941E+02  0.25570517669E+02  0.00000000000E+00 0.  1.
         -3    1    1    2    0  502  0.22725761724E+02 -0.40899528395E+02 -0.72952884205E+03  0.73102774438E+03  0.00000000000E+00 0. -1.
<mgrwt>
<rscale>  1 0.30000000E+03</rscale>
<asrwt>0</asrwt>
<pdfrwt beam="1">  1       21 0.10137112E-01 0.30000000E+03</pdfrwt>
<pdfrwt beam="2">0</pdfrwt>
<totfact> 0.83962966E+03</totfact>
</mgrwt>
</event>
<event>
 6    1  0.8397183E-002  0.3000000E+03  0.7818608E-02  0.1093470E+00
         21   -1    0    0  501  502  0.00000000000E+00  0.00000000000E+00  0.17971385012E+01  0.17971385012E+01  0.00000000000E+00 0. -1.
         13   -1    0    0    0    0 -0.00000000000E+00 -0.00000000000E+00 -0.10000000000E+04  0.10000000000E+04  0.00000000000E+00 0.  1.
    9000005    2    1    2  501    0  0.12237851533E+02  0.33225787248E+02 -0.77387171375E+03  0.77468883438E+03  0.34121591032E+01 0.  0.
         13    1    3    3    0    0  0.94023616946E+01  0.20795400875E+02 -0.49613693904E+03  0.49666157027E+03  0.00000000000E+00 0.  1.
          1    1    3    3  501    0  0.28354898381E+01  0.12430386373E+02 -0.27773477471E+03  0.27802726411E+03  0.00000000000E+00 0.  1.
         -3    1    1    2    0  502 -0.12237851533E+02 -0.33225787248E+02 -0.22433114775E+03  0.22710830412E+03  0.00000000000E+00 0. -1.
<mgrwt>
<rscale>  1 0.30000000E+03</rscale>
<asrwt>0</asrwt>
<pdfrwt beam="1">  1       21 0.65350629E-02 0.30000000E+03</pdfrwt>
<pdfrwt beam="2">0</pdfrwt>
<totfact> 0.18179890E+04</totfact>
</mgrwt>
</event>
<event>
 6    1  0.8397183E-002  0.3000000E+03  0.7818608E-02  0.1093470E+00
         21   -1    0    0  501  502  0.00000000000E+00  0.00000000000E+00  0.22289594059E+01  0.22289594059E+01  0.00000000000E+00 0. -1.
         13   -1    0    0    0    0 -0.00000000000E+00 -0.00000000000E+00 -0.10000000000E+04  0.10000000000E+04  0.00000000000E+00 0.  1.
    9000005    2    1    2  501    0 -0.82621750960E+01 -0.44550502301E+02 -0.63797391167E+03  0.63959004151E+03  0.34202969816E+01 0.  0.
         13    1    3    3    0    0 -0.68881381738E+00 -0.49637605363E+01 -0.57079873396E+02  0.57299435687E+02  0.00000000000E+00 0.  1.
          1    1    3    3  501    0 -0.75733612786E+01 -0.39586741764E+02 -0.58089403827E+03  0.58229060582E+03  0.00000000000E+00 0.  1.
         -3    1    1    2    0  502  0.82621750960E+01  0.44550502301E+02 -0.35979712892E+03  0.36263891790E+03  0.00000000000E+00 0. -1.
<mgrwt>
<rscale>  1 0.30000000E+03</rscale>
<asrwt>0</asrwt>
<pdfrwt beam="1">  1       21 0.81053240E-02 0.30000000E+03</pdfrwt>
<pdfrwt beam="2">0</pdfrwt>
<totfact> 0.12483641E+04</totfact>
</mgrwt>
</event>
<event>
 6    1  0.8397183E-002  0.3000000E+03  0.7818608E-02  0.1093470E+00
         21   -1    0    0  501  502  0.00000000000E+00  0.00000000000E+00  0.22373347369E+01  0.22373347369E+01  0.00000000000E+00 0. -1.
         13   -1    0    0    0    0 -0.00000000000E+00 -0.00000000000E+00 -0.10000000000E+04  0.10000000000E+04  0.00000000000E+00 0.  1.
    9000005    2    1    2  501    0  0.22925421519E+02  0.41209452952E+02 -0.47046240226E+03  0.47283261118E+03  0.34658747468E+01 0.  0.
         13    1    3    3    0    0  0.78348303154E+01  0.11295896334E+02 -0.12900906649E+03  0.12973943532E+03  0.00000000000E+00 0.  1.
          1    1    3    3  501    0  0.15090591204E+02  0.29913556617E+02 -0.34145333578E+03  0.34309317586E+03  0.00000000000E+00 0.  1.
         -1    1    1    2    0  502 -0.22925421519E+02 -0.41209452952E+02 -0.52730026300E+03  0.52940472356E+03  0.00000000000E+00 0. -1.
<mgrwt>
<rscale>  1 0.30000000E+03</rscale>
<asrwt>0</asrwt>
<pdfrwt beam="1">  1       21 0.81357798E-02 0.30000000E+03</pdfrwt>
<pdfrwt beam="2">0</pdfrwt>
<totfact> 0.12401603E+04</totfact>
</mgrwt>
</event>
<event>
 6    1  0.8397183E-002  0.3000000E+03  0.7818608E-02  0.1093470E+00
         21   -1    0    0  501  502  0.00000000000E+00  0.00000000000E+00  0.11765490672E+01  0.11765490672E+01  0.00000000000E+00 0. -1.
         13   -1    0    0    0    0 -0.00000000000E+00 -0.00000000000E+00 -0.10000000000E+04  0.10000000000E+04  0.00000000000E+00 0.  1.
    9000005    2    1    2  501    0  0.85811982248E+01  0.31357644602E+02 -0.65482326218E+03  0.65564352793E+03  0.42417189131E+01 0.  0.
         13    1    3    3    0    0  0.39776352713E+01  0.14803541098E+02 -0.26673517056E+03  0.26717525638E+03  0.00000000000E+00 0.  1.
          1    1    3    3  501    0  0.46035629535E+01  0.16554103504E+02 -0.38808809163E+03  0.38846827155E+03  0.00000000000E+00 0.  1.
         -3    1    1    2    0  502 -0.85811982248E+01 -0.31357644602E+02 -0.34400018875E+03  0.34553302114E+03  0.00000000000E+00 0. -1.
<mgrwt>
<rscale>  1 0.30000000E+03</rscale>
<asrwt>0</asrwt>
<pdfrwt beam="1">  1       21 0.42783693E-02 0.30000000E+03</pdfrwt>
<pdfrwt beam="2">0</pdfrwt>
<totfact> 0.37535466E+04</totfact>
</mgrwt>
</event>
<event>
 6    1  0.8397183E-002  0.3000000E+03  0.7818608E-02  0.1093470E+00
         21   -1    0    0  501  502  0.00000000000E+00  0.00000000000E+00  0.15630052448E+01  0.15630052448E+01  0.00000000000E+00 0. -1.
         13   -1    0    0    0    0 -0.00000000000E+00 -0.00000000000E+00 -0.10000000000E+04  0.10000000000E+04  0.00000000000E+00 0.  1.
    9000005    2    1    2  501    0  0.16641487779E+02  0.33597221756E+02 -0.34371334543E+03  0.34576671873E+03  0.31697834506E+01 0.  0.
         13    1    3    3    0    0  0.99047576494E+01  0.20214271626E+02 -0.19187444662E+03  0.19319038347E+03  0.00000000000E+00 0.  1.
          3    1    3    3  501    0  0.67367301295E+01  0.13382950130E+02 -0.15183889881E+03  0.15257633525E+03  0.00000000000E+00 0.  1.
         -1    1    1    2    0  502 -0.16641487779E+02 -0.33597221756E+02 -0.65472364933E+03  0.65579628652E+03  0.00000000000E+00 0. -1.
<mgrwt>
<rscale>  1 0.30000000E+03</rscale>
<asrwt>0</asrwt>
<pdfrwt beam="1">  1       21 0.56836674E-02 0.30000000E+03</pdfrwt>
<pdfrwt beam="2">0</pdfrwt>
<totfact> 0.23132103E+04</totfact>
</mgrwt>
</event>
<event>
 6    1  0.8397183E-002  0.3000000E+03  0.7818608E-02  0.1093470E+00
         21   -1    0    0  501  502  0.00000000000E+00  0.00000000000E+00  0.92297489258E+00  0.92297489258E+00  0.00000000000E+00 0. -1.
         13   -1    0    0    0    0 -0.00000000000E+00 -0.00000000000E+00 -0.10000000000E+04  0.10000000000E+04  0.00000000000E+00 0.  1.
    9000005    2    1    2  501    0  0.14410184870E+02  0.26372501256E+02 -0.56307799132E+03  0.56388942959E+03  0.33618821015E+01 0.  0.
         13    1    3    3    0    0  0.58702424291E+01  0.10704349407E+02 -0.19859839861E+03  0.19897328156E+03  0.00000000000E+00 0.  1.
          3    1    3    3  501    0  0.85399424411E+01  0.15668151849E+02 -0.36447959271E+03  0.36491614804E+03  0.00000000000E+00 0.  1.
         -3    1    1    2    0  502 -0.14410184870E+02 -0.26372501256E+02 -0.43599903379E+03  0.43703354530E+03  0.00000000000E+00 0. -1.
<mgrwt>
<rscale>  1 0.30000000E+03</rscale>
<asrwt>0</asrwt>
<pdfrwt beam="1">  1       21 0.33562794E-02 0.30000000E+03</pdfrwt>
<pdfrwt beam="2">0</pdfrwt>
<totfact> 0.56438067E+04</totfact>
</mgrwt>
</event>
<event>
 6    1  0.8397183E-002  0.3000000E+03  0.7818608E-02  0.1093470E+00
         21   -1    0    0  501  502  0.00000000000E+00  0.00000000000E+00  0.15139593721E+01  0.15139593721E+01  0.00000000000E+00 0. -1.
         13   -1    0    0    0    0 -0.00000000000E+00 -0.00000000000E+00 -0.10000000000E+04  0.10000000000E+04  0.00000000000E+00 0.  1.
    9000005    2    1    2  501    0 -0.22666661175E+02  0.29539304828E+02 -0.64218273456E+03  0.64327047517E+03  0.34484198507E+01 0.  0.
         13    1    3    3    0    0 -0.12658808433E+02  0.14076115584E+02 -0.31009085923E+03  0.31066818865E+03  0.00000000000E+00 0.  1.
          3    1    3    3  501    0 -0.10007852742E+02  0.15463189244E+02 -0.33209187533E+03  0.33260228652E+03  0.00000000000E+00 0.  1.
         -3    1    1    2    0  502  0.22666661175E+02 -0.29539304828E+02 -0.35630330606E+03  0.35824348420E+03  0.00000000000E+00 0. -1.
<mgrwt>
<rscale>  1 0.30000000E+03</rscale>
<asrwt>0</asrwt>
<pdfrwt beam="1">  1       21 0.55053184E-02 0.30000000E+03</pdfrwt>
<pdfrwt beam="2">0</pdfrwt>
<totfact> 0.24433621E+04</totfact>
</mgrwt>
</event>
<event>
 6    1  0.8397183E-002  0.3000000E+03  0.7818608E-02  0.1093470E+00
         21   -1    0    0  501  502  0.00000000000E+00  0.00000000000E+00  0.10005960493E+01  0.10005960493E+01  0.00000000000E+00 0. -1.
         13   -1    0    0    0    0 -0.00000000000E+00 -0.00000000000E+00 -0.10000000000E+04  0.10000000000E+04  0.00000000000E+00 0.  1.
    9000005    2    1    2  501    0  0.14031700457E+02 -0.28248609183E+02 -0.51468099306E+03  0.51565618672E+03  0.31473398068E+01 0.  0.
         13    1    3    3    0    0  0.10605692941E+02 -0.18035567051E+02 -0.33631947472E+03  0.33696965958E+03  0.00000000000E+00 0.  1.
          1    1    3    3  501    0  0.34260075153E+01 -0.10213042132E+02 -0.17836151834E+03  0.17868652714E+03  0.00000000000E+00 0.  1.
         -3    1    1    2    0  502 -0.14031700457E+02  0.28248609183E+02 -0.48431841089E+03  0.48534440932E+03  0.00000000000E+00 0. -1.
<mgrwt>
<rscale>  1 0.30000000E+03</rscale>
<asrwt>0</asrwt>
<pdfrwt beam="1">  1       21 0.36385388E-02 0.30000000E+03</pdfrwt>
<pdfrwt beam="2">0</pdfrwt>
<totfact> 0.49301886E+04</totfact>
</mgrwt>
</event>
<event>
 6    1  0.8397183E-002  0.3000000E+03  0.7818608E-02  0.1093470E+00
         21   -1    0    0  501  502  0.00000000000E+00  0.00000000000E+00  0.37148597508E+01  0.37148597508E+01  0.00000000000E+00 0. -1.
         13   -1    0    0    0    0 -0.00000000000E+00 -0.00000000000E+00 -0.10000000000E+04  0.10000000000E+04  0.00000000000E+00 0.  1.
    9000005    2    1    2  501    0  0.41164183396E+02  0.38426852297E+02 -0.68946923970E+03  0.69177398426E+03  0.35071119812E+01 0.  0.
         13    1    3    3    0    0  0.73360538333E+01  0.77796015612E+01 -0.11681939411E+03  0.11730776073E+03  0.00000000000E+00 0.  1.
          1    1    3    3  501    0  0.33828129563E+02  0.30647250735E+02 -0.57264984559E+03  0.57446622353E+03  0.00000000000E+00 0.  1.
         -3    1    1    2    0  502 -0.41164183396E+02 -0.38426852297E+02 -0.30681590055E+03  0.31194087549E+03  0.00000000000E+00 0. -1.
<mgrwt>
<rscale>  1 0.30000000E+03</rscale>
<asrwt>0</asrwt>
<pdfrwt beam="1">  1       21 0.13508609E-01 0.30000000E+03</pdfrwt>
<pdfrwt beam="2">0</pdfrwt>
<totfact> 0.49934673E+03</totfact>
</mgrwt>
</event>
<event>
 6    1  0.8397183E-002  0.3000000E+03  0.7818608E-02  0.1093470E+00
         21   -1    0    0  501  502  0.00000000000E+00  0.00000000000E+00  0.19333520252E+01  0.19333520252E+01  0.00000000000E+00 0. -1.
         13   -1    0    0    0    0 -0.00000000000E+00 -0.00000000000E+00 -0.10000000000E+04  0.10000000000E+04  0.00000000000E+00 0.  1.
    9000005    2    1    2  501    0  0.45989563156E+01  0.32892998731E+02 -0.17232579096E+03  0.17552481945E+03  0.31119526432E+01 0.  0.
         13    1    3    3    0    0  0.10710420764E+01  0.16393444552E+02 -0.79866766419E+02  0.81538901965E+02  0.00000000000E+00 0.  1.
          3    1    3    3  501    0  0.35279142392E+01  0.16499554179E+02 -0.92459024537E+02  0.93985917484E+02  0.00000000000E+00 0.  1.
         -1    1    1    2    0  502 -0.45989563156E+01 -0.32892998731E+02 -0.82574085702E+03  0.82640853258E+03  0.00000000000E+00 0. -1.
<mgrwt>
<rscale>  1 0.30000000E+03</rscale>
<asrwt>0</asrwt>
<pdfrwt beam="1">  1       21 0.70303858E-02 0.30000000E+03</pdfrwt>
<pdfrwt beam="2">0</pdfrwt>
<totfact> 0.16014093E+04</totfact>
</mgrwt>
</event>
<event>
 6    1  0.8397183E-002  0.3000000E+03  0.7818608E-02  0.1093470E+00
         21   -1    0    0  501  502  0.00000000000E+00  0.00000000000E+00  0.10741791548E+01  0.10741791548E+01  0.00000000000E+00 0. -1.
         13   -1    0    0    0    0 -0.00000000000E+00 -0.00000000000E+00 -0.10000000000E+04  0.10000000000E+04  0.00000000000E+00 0.  1.
    9000005    2    1    2  501    0 -0.91364667250E+01 -0.31254452929E+02 -0.45501222337E+03  0.45618674365E+03  0.31473503377E+01 0.  0.
         13    1    3    3    0    0  0.18243405710E+00 -0.20305765979E+01 -0.29527219494E+02  0.29597520412E+02  0.00000000000E+00 0.  1.
          3    1    3    3  501    0 -0.93189007821E+01 -0.29223876332E+02 -0.42548500388E+03  0.42658922324E+03  0.00000000000E+00 0.  1.
         -1    1    1    2    0  502  0.91364667250E+01  0.31254452929E+02 -0.54391359748E+03  0.54488743550E+03  0.00000000000E+00 0. -1.
<mgrwt>
<rscale>  1 0.30000000E+03</rscale>
<asrwt>0</asrwt>
<pdfrwt beam="1">  1       21 0.39061143E-02 0.30000000E+03</pdfrwt>
<pdfrwt beam="2">0</pdfrwt>
<totfact> 0.43762203E+04</totfact>
</mgrwt>
</event>
<event>
 6    1  0.8397183E-002  0.3000000E+03  0.7818608E-02  0.1093470E+00
         21   -1    0    0  501  502  0.00000000000E+00  0.00000000000E+00  0.12157441503E+01  0.12157441503E+01  0.00000000000E+00 0. -1.
         13   -1    0    0    0    0 -0.00000000000E+00 -0.00000000000E+00 -0.10000000000E+04  0.10000000000E+04  0.00000000000E+00 0.  1.
    9000005    2    1    2  501    0  0.31101004874E+02 -0.81155930693E+01 -0.68428169784E+03  0.68507496167E+03  0.72887411919E+01 0.  0.
         13    1    3    3    0    0  0.12313644983E+01 -0.18414088019E+01 -0.70593587398E+02  0.70628334446E+02  0.00000000000E+00 0.  1.
          1    1    3    3  501    0  0.29869640376E+02 -0.62741842674E+01 -0.61368811044E+03  0.61444662722E+03  0.00000000000E+00 0.  1.
         -1    1    1    2    0  502 -0.31101004874E+02  0.81155930693E+01 -0.31450255801E+03  0.31614078248E+03  0.00000000000E+00 0. -1.
<mgrwt>
<rscale>  1 0.30000000E+03</rscale>
<asrwt>0</asrwt>
<pdfrwt beam="1">  1       21 0.44208971E-02 0.30000000E+03</pdfrwt>
<pdfrwt beam="2">0</pdfrwt>
<totfact> 0.35510195E+04</totfact>
</mgrwt>
</event>
<event>
 6    1  0.8397183E-002  0.3000000E+03  0.7818608E-02  0.1093470E+00
         21   -1    0    0  501  502  0.00000000000E+00  0.00000000000E+00  0.99976977240E+00  0.99976977240E+00  0.00000000000E+00 0. -1.
         13   -1    0    0    0    0 -0.00000000000E+00 -0.00000000000E+00 -0.10000000000E+04  0.10000000000E+04  0.00000000000E+00 0.  1.
    9000005    2    1    2  501    0 -0.88764824172E+01 -0.29538476963E+02 -0.39912237671E+03  0.40032951689E+03  0.37063376021E+01 0.  0.
         13    1    3    3    0    0 -0.81681612578E+01 -0.28304895306E+02 -0.36927240254E+03  0.37044566840E+03  0.00000000000E+00 0.  1.
          3    1    3    3  501    0 -0.70832115936E+00 -0.12335816566E+01 -0.29849974170E+02  0.29883848489E+02  0.00000000000E+00 0.  1.
         -3    1    1    2    0  502  0.88764824172E+01  0.29538476963E+02 -0.59987785352E+03  0.60067025289E+03  0.00000000000E+00 0. -1.
<mgrwt>
<rscale>  1 0.30000000E+03</rscale>
<asrwt>0</asrwt>
<pdfrwt beam="1">  1       21 0.36355341E-02 0.30000000E+03</pdfrwt>
<pdfrwt beam="2">0</pdfrwt>
<totfact> 0.49370257E+04</totfact>
</mgrwt>
</event>
<event>
 6    1  0.8397183E-002  0.3000000E+03  0.7818608E-02  0.1093470E+00
         21   -1    0    0  501  502  0.00000000000E+00  0.00000000000E+00  0.11316097446E+01  0.11316097446E+01  0.00000000000E+00 0. -1.
         13   -1    0    0    0    0 -0.00000000000E+00 -0.00000000000E+00 -0.10000000000E+04  0.10000000000E+04  0.00000000000E+00 0.  1.
    9000005    2    1    2  501    0  0.17961966393E+02  0.27824506131E+02 -0.41795028614E+03  0.41927021811E+03  0.28703200107E+01 0.  0.
         13    1    3    3    0    0  0.17763444796E+02  0.27760006832E+02 -0.41191432774E+03  0.41323065151E+03  0.00000000000E+00 0.  1.
          1    1    3    3  501    0  0.19852159679E+00  0.64499299684E-01 -0.60359583938E+01  0.60395666000E+01  0.00000000000E+00 0.  1.
         -1    1    1    2    0  502 -0.17961966393E+02 -0.27824506131E+02 -0.58091810412E+03  0.58186139163E+03  0.00000000000E+00 0. -1.
<mgrwt>
<rscale>  1 0.30000000E+03</rscale>
<asrwt>0</asrwt>
<pdfrwt beam="1">  1       21 0.41149532E-02 0.30000000E+03</pdfrwt>
<pdfrwt beam="2">0</pdfrwt>
<totfact> 0.40086771E+04</totfact>
</mgrwt>
</event>
<event>
 6    1  0.1657098E-001  0.3000000E+03  0.7818608E-02  0.1093470E+00
         21   -1    0    0  501  502  0.00000000000E+00  0.00000000000E+00  0.12309693037E+01  0.12309693037E+01  0.00000000000E+00 0. -1.
         13   -1    0    0    0    0 -0.00000000000E+00 -0.00000000000E+00 -0.10000000000E+04  0.10000000000E+04  0.00000000000E+00 0.  1.
    9000005    2    1    2  501    0 -0.11769040299E+02 -0.28944162753E+02 -0.70999918064E+03  0.71077563510E+03  0.11264638142E+02 0.  0.
         13    1    3    3    0    0 -0.27048878472E+01 -0.17892141031E+02 -0.47282319969E+03  0.47316933892E+03  0.00000000000E+00 0.  1.
          1    1    3    3  501    0 -0.90641524518E+01 -0.11052021722E+02 -0.23717598095E+03  0.23760629617E+03  0.00000000000E+00 0.  1.
         -1    1    1    2    0  502  0.11769040299E+02  0.28944162753E+02 -0.28876985006E+03  0.29045533421E+03  0.00000000000E+00 0. -1.
<mgrwt>
<rscale>  1 0.30000000E+03</rscale>
<asrwt>0</asrwt>
<pdfrwt beam="1">  1       21 0.44762615E-02 0.30000000E+03</pdfrwt>
<pdfrwt beam="2">0</pdfrwt>
<totfact> 0.34768786E+04</totfact>
</mgrwt>
</event>
<event>
 6    1  0.8397183E-002  0.3000000E+03  0.7818608E-02  0.1093470E+00
         21   -1    0    0  501  502  0.00000000000E+00  0.00000000000E+00  0.98988478700E+00  0.98988478700E+00  0.00000000000E+00 0. -1.
         13   -1    0    0    0    0 -0.00000000000E+00 -0.00000000000E+00 -0.10000000000E+04  0.10000000000E+04  0.00000000000E+00 0.  1.
    9000005    2    1    2  501    0 -0.73387149550E+01 -0.30427362540E+02 -0.46163653703E+03  0.46270553274E+03  0.29045790964E+01 0.  0.
         13    1    3    3    0    0 -0.87622849703E+00 -0.41402937374E+01 -0.49246916779E+02  0.49428419162E+02  0.00000000000E+00 0.  1.
          3    1    3    3  501    0 -0.64624864580E+01 -0.26287068803E+02 -0.41238962025E+03  0.41327711358E+03  0.00000000000E+00 0.  1.
         -3    1    1    2    0  502  0.73387149550E+01  0.30427362540E+02 -0.53737357818E+03  0.53828435205E+03  0.00000000000E+00 0. -1.
<mgrwt>
<rscale>  1 0.30000000E+03</rscale>
<asrwt>0</asrwt>
<pdfrwt beam="1">  1       21 0.35995886E-02 0.30000000E+03</pdfrwt>
<pdfrwt beam="2">0</pdfrwt>
<totfact> 0.50199930E+04</totfact>
</mgrwt>
</event>
<event>
 6    1  0.8397183E-002  0.3000000E+03  0.7818608E-02  0.1093470E+00
         21   -1    0    0  501  502  0.00000000000E+00  0.00000000000E+00  0.10785596531E+01  0.10785596531E+01  0.00000000000E+00 0. -1.
         13   -1    0    0    0    0 -0.00000000000E+00 -0.00000000000E+00 -0.10000000000E+04  0.10000000000E+04  0.00000000000E+00 0.  1.
    9000005    2    1    2  501    0 -0.88546320563E+01  0.30989999577E+02 -0.58618980043E+03  0.58709040623E+03  0.42282835286E+01 0.  0.
         13    1    3    3    0    0 -0.71119461012E+01  0.21741337124E+02 -0.38264027204E+03  0.38332341867E+03  0.00000000000E+00 0.  1.
          1    1    3    3  501    0 -0.17426859551E+01  0.92486624522E+01 -0.20354952839E+03  0.20376698756E+03  0.00000000000E+00 0.  1.
         -1    1    1    2    0  502  0.88546320563E+01 -0.30989999577E+02 -0.41273163992E+03  0.41398815342E+03  0.00000000000E+00 0. -1.
<mgrwt>
<rscale>  1 0.30000000E+03</rscale>
<asrwt>0</asrwt>
<pdfrwt beam="1">  1       21 0.39220434E-02 0.30000000E+03</pdfrwt>
<pdfrwt beam="2">0</pdfrwt>
<totfact> 0.43463614E+04</totfact>
</mgrwt>
</event>
<event>
 6    1  0.8397183E-002  0.3000000E+03  0.7818608E-02  0.1093470E+00
         21   -1    0    0  501  502  0.00000000000E+00  0.00000000000E+00  0.13673523313E+01  0.13673523313E+01  0.00000000000E+00 0. -1.
         13   -1    0    0    0    0 -0.00000000000E+00 -0.00000000000E+00 -0.10000000000E+04  0.10000000000E+04  0.00000000000E+00 0.  1.
    9000005    2    1    2  501    0 -0.27325234183E+02 -0.24114001188E+02 -0.57855221033E+03  0.57970904598E+03  0.34299332770E+01 0.  0.
         13    1    3    3    0    0 -0.89551890519E+01 -0.10079676199E+02 -0.21738199480E+03  0.21779974046E+03  0.00000000000E+00 0.  1.
          1    1    3    3  501    0 -0.18370045131E+02 -0.14034324989E+02 -0.36117021553E+03  0.36190930552E+03  0.00000000000E+00 0.  1.
         -1    1    1    2    0  502  0.27325234183E+02  0.24114001188E+02 -0.42008043734E+03  0.42165830635E+03  0.00000000000E+00 0. -1.
<mgrwt>
<rscale>  1 0.30000000E+03</rscale>
<asrwt>0</asrwt>
<pdfrwt beam="1">  1       21 0.49722008E-02 0.30000000E+03</pdfrwt>
<pdfrwt beam="2">0</pdfrwt>
<totfact> 0.29079695E+04</totfact>
</mgrwt>
</event>
<event>
 6    1  0.8397183E-002  0.3000000E+03  0.7818608E-02  0.1093470E+00
         21   -1    0    0  501  502  0.00000000000E+00  0.00000000000E+00  0.17064678995E+01  0.17064678995E+01  0.00000000000E+00 0. -1.
         13   -1    0    0    0    0 -0.00000000000E+00 -0.00000000000E+00 -0.10000000000E+04  0.10000000000E+04  0.00000000000E+00 0.  1.
    9000005    2    1    2  501    0 -0.39390599729E+02  0.70534179179E+01 -0.37878572878E+03  0.38090755648E+03  0.32508769296E+01 0.  0.
         13    1    3    3    0    0 -0.10918790587E+02  0.16409586927E+01 -0.11850896867E+03  0.11902221804E+03  0.00000000000E+00 0.  1.
          1    1    3    3  501    0 -0.28471809141E+02  0.54124592252E+01 -0.26027676012E+03  0.26188533844E+03  0.00000000000E+00 0.  1.
         -1    1    1    2    0  502  0.39390599729E+02 -0.70534179179E+01 -0.61950780332E+03  0.62079891142E+03  0.00000000000E+00 0. -1.
<mgrwt>
<rscale>  1 0.30000000E+03</rscale>
<asrwt>0</asrwt>
<pdfrwt beam="1">  1       21 0.62053509E-02 0.30000000E+03</pdfrwt>
<pdfrwt beam="2">0</pdfrwt>
<totfact> 0.19882695E+04</totfact>
</mgrwt>
</event>
<event>
 6    1  0.8397183E-002  0.3000000E+03  0.7818608E-02  0.1093470E+00
         21   -1    0    0  501  502  0.00000000000E+00  0.00000000000E+00  0.61366956322E+01  0.61366956322E+01  0.00000000000E+00 0. -1.
         13   -1    0    0    0    0 -0.00000000000E+00 -0.00000000000E+00 -0.10000000000E+04  0.10000000000E+04  0.00000000000E+00 0.  1.
    9000005    2    1    2  501    0  0.46564174533E+02 -0.43284685082E+02 -0.79069840271E+03  0.79325700290E+03  0.33048884536E+01 0.  0.
         13    1    3    3    0    0  0.45419961640E+02 -0.42105307495E+02 -0.76275452886E+03  0.76526485685E+03  0.00000000000E+00 0.  1.
          1    1    3    3  501    0  0.11442128937E+01 -0.11793775867E+01 -0.27943873844E+02  0.27992146042E+02  0.00000000000E+00 0.  1.
         -1    1    1    2    0  502 -0.46564174533E+02  0.43284685082E+02 -0.20316490166E+03  0.21287969274E+03  0.00000000000E+00 0. -1.
<mgrwt>
<rscale>  1 0.30000000E+03</rscale>
<asrwt>0</asrwt>
<pdfrwt beam="1">  1       21 0.22315304E-01 0.30000000E+03</pdfrwt>
<pdfrwt beam="2">0</pdfrwt>
<totfact> 0.19445381E+03</totfact>
</mgrwt>
</event>
<event>
 6    1  0.8397183E-002  0.3000000E+03  0.7818608E-02  0.1093470E+00
         21   -1    0    0  501  502  0.00000000000E+00  0.00000000000E+00  0.18688830882E+01  0.18688830882E+01  0.00000000000E+00 0. -1.
         13   -1    0    0    0    0 -0.00000000000E+00 -0.00000000000E+00 -0.10000000000E+04  0.10000000000E+04  0.00000000000E+00 0.  1.
    9000005    2    1    2  501    0  0.18719719445E+02 -0.29404788382E+02 -0.20494741759E+03  0.20791960867E+03  0.34713423497E+01 0.  0.
         13    1    3    3    0    0  0.98781948293E+01 -0.12344155622E+02 -0.94204564445E+02  0.95522022976E+02  0.00000000000E+00 0.  1.
          3    1    3    3  501    0  0.88415246158E+01 -0.17060632760E+02 -0.11074285315E+03  0.11239758570E+03  0.00000000000E+00 0.  1.
         -1    1    1    2    0  502 -0.18719719445E+02  0.29404788382E+02 -0.79318369932E+03  0.79394927441E+03  0.00000000000E+00 0. -1.
<mgrwt>
<rscale>  1 0.30000000E+03</rscale>
<asrwt>0</asrwt>
<pdfrwt beam="1">  1       21 0.67959528E-02 0.30000000E+03</pdfrwt>
<pdfrwt beam="2">0</pdfrwt>
<totfact> 0.16986748E+04</totfact>
</mgrwt>
</event>
<event>
 6    1  0.8397183E-002  0.3000000E+03  0.7818608E-02  0.1093470E+00
         21   -1    0    0  501  502  0.00000000000E+00  0.00000000000E+00  0.20409612711E+01  0.20409612711E+01  0.00000000000E+00 0. -1.
         13   -1    0    0    0    0 -0.00000000000E+00 -0.00000000000E+00 -0.10000000000E+04  0.10000000000E+04  0.00000000000E+00 0.  1.
    9000005    2    1    2  501    0 -0.11997772062E+02 -0.39749437254E+02 -0.30473587675E+03  0.30757547142E+03  0.38407995768E+01 0.  0.
         13    1    3    3    0    0 -0.13978496148E+01 -0.98601644057E+01 -0.68295967517E+02  0.69018229510E+02  0.00000000000E+00 0.  1.
          3    1    3    3  501    0 -0.10599922448E+02 -0.29889272848E+02 -0.23643990924E+03  0.23855724191E+03  0.00000000000E+00 0.  1.
         -1    1    1    2    0  502  0.11997772062E+02  0.39749437254E+02 -0.69322316198E+03  0.69446548985E+03  0.00000000000E+00 0. -1.
<mgrwt>
<rscale>  1 0.30000000E+03</rscale>
<asrwt>0</asrwt>
<pdfrwt beam="1">  1       21 0.74216930E-02 0.30000000E+03</pdfrwt>
<pdfrwt beam="2">0</pdfrwt>
<totfact> 0.14569689E+04</totfact>
</mgrwt>
</event>
<event>
 6    1  0.8397183E-002  0.3000000E+03  0.7818608E-02  0.1093470E+00
         21   -1    0    0  501  502  0.00000000000E+00  0.00000000000E+00  0.47377644950E+01  0.47377644950E+01  0.00000000000E+00 0. -1.
         13   -1    0    0    0    0 -0.00000000000E+00 -0.00000000000E+00 -0.10000000000E+04  0.10000000000E+04  0.00000000000E+00 0.  1.
    9000005    2    1    2  501    0  0.53463590575E+01 -0.41780348955E+02 -0.10088522133E+03  0.10936944665E+03  0.31091580807E+01 0.  0.
         13    1    3    3    0    0  0.20615875391E+01 -0.71583815974E+01 -0.18664641991E+02  0.20096303912E+02  0.00000000000E+00 0.  1.
          3    1    3    3  501    0  0.32847715184E+01 -0.34621967357E+02 -0.82220579336E+02  0.89273142736E+02  0.00000000000E+00 0.  1.
         -3    1    1    2    0  502 -0.53463590575E+01  0.41780348955E+02 -0.89437701418E+03  0.89536831785E+03  0.00000000000E+00 0. -1.
<mgrwt>
<rscale>  1 0.30000000E+03</rscale>
<asrwt>0</asrwt>
<pdfrwt beam="1">  1       21 0.17228271E-01 0.30000000E+03</pdfrwt>
<pdfrwt beam="2">0</pdfrwt>
<totfact> 0.31810032E+03</totfact>
</mgrwt>
</event>
<event>
 6    1  0.8397183E-002  0.3000000E+03  0.7818608E-02  0.1093470E+00
         21   -1    0    0  501  502  0.00000000000E+00  0.00000000000E+00  0.55612380828E+01  0.55612380828E+01  0.00000000000E+00 0. -1.
         13   -1    0    0    0    0 -0.00000000000E+00 -0.00000000000E+00 -0.10000000000E+04  0.10000000000E+04  0.00000000000E+00 0.  1.
    9000005    2    1    2  501    0 -0.22817647846E+02 -0.69266850133E+02 -0.39352647966E+03  0.40023974289E+03  0.31968751495E+01 0.  0.
         13    1    3    3    0    0 -0.18633998070E+02 -0.53806881737E+02 -0.31251497353E+03  0.31766021956E+03  0.00000000000E+00 0.  1.
          3    1    3    3  501    0 -0.41836497766E+01 -0.15459968396E+02 -0.81011506129E+02  0.82579523331E+02  0.00000000000E+00 0.  1.
         -1    1    1    2    0  502  0.22817647846E+02  0.69266850133E+02 -0.60091228225E+03  0.60532149519E+03  0.00000000000E+00 0. -1.
<mgrwt>
<rscale>  1 0.30000000E+03</rscale>
<asrwt>0</asrwt>
<pdfrwt beam="1">  1       21 0.20222727E-01 0.30000000E+03</pdfrwt>
<pdfrwt beam="2">0</pdfrwt>
<totfact> 0.23490023E+03</totfact>
</mgrwt>
</event>
<event>
 6    1  0.8397183E-002  0.3000000E+03  0.7818608E-02  0.1093470E+00
         21   -1    0    0  501  502  0.00000000000E+00  0.00000000000E+00  0.16214997544E+01  0.16214997544E+01  0.00000000000E+00 0. -1.
         13   -1    0    0    0    0 -0.00000000000E+00 -0.00000000000E+00 -0.10000000000E+04  0.10000000000E+04  0.00000000000E+00 0.  1.
    9000005    2    1    2  501    0 -0.23309980624E+02 -0.32093732218E+02 -0.42252421062E+03  0.42440271478E+03  0.41943903267E+01 0.  0.
         13    1    3    3    0    0 -0.21707103460E+02 -0.29701529524E+02 -0.40156690329E+03  0.40324850528E+03  0.00000000000E+00 0.  1.
          1    1    3    3  501    0 -0.16028771637E+01 -0.23922026944E+01 -0.20957307327E+02  0.21154209494E+02  0.00000000000E+00 0.  1.
         -3    1    1    2    0  502  0.23309980624E+02  0.32093732218E+02 -0.57585428963E+03  0.57721878498E+03  0.00000000000E+00 0. -1.
<mgrwt>
<rscale>  1 0.30000000E+03</rscale>
<asrwt>0</asrwt>
<pdfrwt beam="1">  1       21 0.58963752E-02 0.30000000E+03</pdfrwt>
<pdfrwt beam="2">0</pdfrwt>
<totfact> 0.21714177E+04</totfact>
</mgrwt>
</event>
<event>
 6    1  0.8397183E-002  0.3000000E+03  0.7818608E-02  0.1093470E+00
         21   -1    0    0  501  502  0.00000000000E+00  0.00000000000E+00  0.95081634041E+00  0.95081634041E+00  0.00000000000E+00 0. -1.
         13   -1    0    0    0    0 -0.00000000000E+00 -0.00000000000E+00 -0.10000000000E+04  0.10000000000E+04  0.00000000000E+00 0.  1.
    9000005    2    1    2  501    0 -0.26689690468E+02  0.14851157545E+02 -0.44050580579E+03  0.44157294636E+03  0.28992357475E+01 0.  0.
         13    1    3    3    0    0 -0.85776924919E+01  0.62206237859E+01 -0.14445950867E+03  0.14484758408E+03  0.00000000000E+00 0.  1.
          1    1    3    3  501    0 -0.18111997976E+02  0.86305337596E+01 -0.29604629712E+03  0.29672536228E+03  0.00000000000E+00 0.  1.
         -3    1    1    2    0  502  0.26689690468E+02 -0.14851157545E+02 -0.55854337787E+03  0.55937786998E+03  0.00000000000E+00 0. -1.
<mgrwt>
<rscale>  1 0.30000000E+03</rscale>
<asrwt>0</asrwt>
<pdfrwt beam="1">  1       21 0.34575213E-02 0.30000000E+03</pdfrwt>
<pdfrwt beam="2">0</pdfrwt>
<totfact> 0.53703255E+04</totfact>
</mgrwt>
</event>
<event>
 6    1  0.8397183E-002  0.3000000E+03  0.7818608E-02  0.1093470E+00
         21   -1    0    0  501  502  0.00000000000E+00  0.00000000000E+00  0.18288996160E+01  0.18288996160E+01  0.00000000000E+00 0. -1.
         13   -1    0    0    0    0 -0.00000000000E+00 -0.00000000000E+00 -0.10000000000E+04  0.10000000000E+04  0.00000000000E+00 0.  1.
    9000005    2    1    2  501    0  0.23376369843E+02  0.21985756256E+02 -0.82950181623E+03  0.83013395047E+03  0.43914062763E+01 0.  0.
         13    1    3    3    0    0  0.74198460439E+01  0.44956416010E+01 -0.24102657943E+03  0.24118266294E+03  0.00000000000E+00 0.  1.
          3    1    3    3  501    0  0.15956523799E+02  0.17490114655E+02 -0.58847523680E+03  0.58895128753E+03  0.00000000000E+00 0.  1.
         -1    1    1    2    0  502 -0.23376369843E+02 -0.21985756256E+02 -0.16866928415E+03  0.17169494915E+03  0.00000000000E+00 0. -1.
<mgrwt>
<rscale>  1 0.30000000E+03</rscale>
<asrwt>0</asrwt>
<pdfrwt beam="1">  1       21 0.66505581E-02 0.30000000E+03</pdfrwt>
<pdfrwt beam="2">0</pdfrwt>
<totfact> 0.17636276E+04</totfact>
</mgrwt>
</event>
<event>
 6    1  0.8397183E-002  0.3000000E+03  0.7818608E-02  0.1093470E+00
         21   -1    0    0  501  502  0.00000000000E+00  0.00000000000E+00  0.37501696060E+01  0.37501696060E+01  0.00000000000E+00 0. -1.
         13   -1    0    0    0    0 -0.00000000000E+00 -0.00000000000E+00 -0.10000000000E+04  0.10000000000E+04  0.00000000000E+00 0.  1.
    9000005    2    1    2  501    0  0.30298593455E+02 -0.37453803681E+02 -0.80773637843E+03  0.80917855363E+03  0.33290276754E+01 0.  0.
         13    1    3    3    0    0  0.27095588134E+02 -0.32031546370E+02 -0.71256675122E+03  0.71380078860E+03  0.00000000000E+00 0.  1.
          1    1    3    3  501    0  0.32030053212E+01 -0.54222573118E+01 -0.95169627211E+02  0.95377765024E+02  0.00000000000E+00 0.  1.
         -3    1    1    2    0  502 -0.30298593455E+02  0.37453803681E+02 -0.18851345196E+03  0.19457161598E+03  0.00000000000E+00 0. -1.
<mgrwt>
<rscale>  1 0.30000000E+03</rscale>
<asrwt>0</asrwt>
<pdfrwt beam="1">  1       21 0.13637009E-01 0.30000000E+03</pdfrwt>
<pdfrwt beam="2">0</pdfrwt>
<totfact> 0.49076583E+03</totfact>
</mgrwt>
</event>
<event>
 6    1  0.8397183E-002  0.3000000E+03  0.7818608E-02  0.1093470E+00
         21   -1    0    0  501  502  0.00000000000E+00  0.00000000000E+00  0.11036003142E+01  0.11036003142E+01  0.00000000000E+00 0. -1.
         13   -1    0    0    0    0 -0.00000000000E+00 -0.00000000000E+00 -0.10000000000E+04  0.10000000000E+04  0.00000000000E+00 0.  1.
    9000005    2    1    2  501    0 -0.30028869293E+02  0.29996747914E+01 -0.70229572080E+03  0.70297159305E+03  0.62490112316E+01 0.  0.
         13    1    3    3    0    0 -0.29419684017E+02  0.25342441272E+01 -0.65013476184E+03  0.65080500056E+03  0.00000000000E+00 0.  1.
          1    1    3    3  501    0 -0.60918527561E+00  0.46543066423E+00 -0.52160958958E+02  0.52166592488E+02  0.00000000000E+00 0.  1.
         -3    1    1    2    0  502  0.30028869293E+02 -0.29996747914E+01 -0.29660067889E+03  0.29813200727E+03  0.00000000000E+00 0. -1.
<mgrwt>
<rscale>  1 0.30000000E+03</rscale>
<asrwt>0</asrwt>
<pdfrwt beam="1">  1       21 0.40131005E-02 0.30000000E+03</pdfrwt>
<pdfrwt beam="2">0</pdfrwt>
<totfact> 0.41816411E+04</totfact>
</mgrwt>
</event>
<event>
 6    1  0.8397183E-002  0.3000000E+03  0.7818608E-02  0.1093470E+00
         21   -1    0    0  501  502  0.00000000000E+00  0.00000000000E+00  0.10831074546E+01  0.10831074546E+01  0.00000000000E+00 0. -1.
         13   -1    0    0    0    0 -0.00000000000E+00 -0.00000000000E+00 -0.10000000000E+04  0.10000000000E+04  0.00000000000E+00 0.  1.
    9000005    2    1    2  501    0 -0.62616975397E-01  0.32813172217E+02 -0.51746161009E+03  0.51851093959E+03  0.32199949339E+01 0.  0.
         13    1    3    3    0    0  0.54149712878E+00  0.19650769968E+02 -0.28629175443E+03  0.28696587713E+03  0.00000000000E+00 0.  1.
          3    1    3    3  501    0 -0.60411410418E+00  0.13162402249E+02 -0.23116985566E+03  0.23154506246E+03  0.00000000000E+00 0.  1.
         -1    1    1    2    0  502  0.62616975397E-01 -0.32813172217E+02 -0.48145528246E+03  0.48257216787E+03  0.00000000000E+00 0. -1.
<mgrwt>
<rscale>  1 0.30000000E+03</rscale>
<asrwt>0</asrwt>
<pdfrwt beam="1">  1       21 0.39385809E-02 0.30000000E+03</pdfrwt>
<pdfrwt beam="2">0</pdfrwt>
<totfact> 0.43156986E+04</totfact>
</mgrwt>
</event>
<event>
 6    1  0.8397183E-002  0.3000000E+03  0.7818608E-02  0.1093470E+00
         21   -1    0    0  501  502  0.00000000000E+00  0.00000000000E+00  0.14494787777E+01  0.14494787777E+01  0.00000000000E+00 0. -1.
         13   -1    0    0    0    0 -0.00000000000E+00 -0.00000000000E+00 -0.10000000000E+04  0.10000000000E+04  0.00000000000E+00 0.  1.
    9000005    2    1    2  501    0  0.31114579334E+02  0.11341984823E+02 -0.74133488264E+03  0.74211062246E+03  0.73491548305E+01 0.  0.
         13    1    3    3    0    0  0.11252334103E+02  0.21339944437E+01 -0.19368233230E+03  0.19402065560E+03  0.00000000000E+00 0.  1.
          1    1    3    3  501    0  0.19862245231E+02  0.92079903793E+01 -0.54765255034E+03  0.54808996686E+03  0.00000000000E+00 0.  1.
         -1    1    1    2    0  502 -0.31114579334E+02 -0.11341984823E+02 -0.25721563858E+03  0.25933885632E+03  0.00000000000E+00 0. -1.
<mgrwt>
<rscale>  1 0.30000000E+03</rscale>
<asrwt>0</asrwt>
<pdfrwt beam="1">  1       21 0.52708430E-02 0.30000000E+03</pdfrwt>
<pdfrwt beam="2">0</pdfrwt>
<totfact> 0.26324020E+04</totfact>
</mgrwt>
</event>
<event>
 6    1  0.8397183E-002  0.3000000E+03  0.7818608E-02  0.1093470E+00
         21   -1    0    0  501  502  0.00000000000E+00  0.00000000000E+00  0.27480975075E+01  0.27480975075E+01  0.00000000000E+00 0. -1.
         13   -1    0    0    0    0 -0.00000000000E+00 -0.00000000000E+00 -0.10000000000E+04  0.10000000000E+04  0.00000000000E+00 0.  1.
    9000005    2    1    2  501    0 -0.51324784379E+02 -0.80891909548E+01 -0.43268379467E+03  0.43579411624E+03  0.12558183869E+01 0.  0.
         13    1    3    3    0    0 -0.20083547701E+01 -0.72669017094E-01 -0.16563380531E+02  0.16684853738E+02  0.00000000000E+00 0.  1.
          3    1    3    3  501    0 -0.49316429609E+02 -0.80165219377E+01 -0.41612041413E+03  0.41910926250E+03  0.00000000000E+00 0.  1.
         -3    1    1    2    0  502  0.51324784379E+02  0.80891909548E+01 -0.56456810783E+03  0.56695398127E+03  0.00000000000E+00 0. -1.
<mgrwt>
<rscale>  1 0.30000000E+03</rscale>
<asrwt>0</asrwt>
<pdfrwt beam="1">  1       21 0.99931029E-02 0.30000000E+03</pdfrwt>
<pdfrwt beam="2">0</pdfrwt>
<totfact> 0.86138102E+03</totfact>
</mgrwt>
</event>
<event>
 6    1  0.8397183E-002  0.3000000E+03  0.7818608E-02  0.1093470E+00
         21   -1    0    0  501  502  0.00000000000E+00  0.00000000000E+00  0.49499039960E+01  0.49499039960E+01  0.00000000000E+00 0. -1.
         13   -1    0    0    0    0 -0.00000000000E+00 -0.00000000000E+00 -0.10000000000E+04  0.10000000000E+04  0.00000000000E+00 0.  1.
    9000005    2    1    2  501    0  0.63707049650E+01 -0.49576522021E+02 -0.14464997010E+03  0.15308207883E+03  0.34772965391E+01 0.  0.
         13    1    3    3    0    0  0.80847238241E+00 -0.67565537749E+01 -0.16296498419E+02  0.17660138935E+02  0.00000000000E+00 0.  1.
          1    1    3    3  501    0  0.55622325826E+01 -0.42819968246E+02 -0.12835347168E+03  0.13542193990E+03  0.00000000000E+00 0.  1.
         -3    1    1    2    0  502 -0.63707049650E+01  0.49576522021E+02 -0.85040012590E+03  0.85186782516E+03  0.00000000000E+00 0. -1.
<mgrwt>
<rscale>  1 0.30000000E+03</rscale>
<asrwt>0</asrwt>
<pdfrwt beam="1">  1       21 0.17999689E-01 0.30000000E+03</pdfrwt>
<pdfrwt beam="2">0</pdfrwt>
<totfact> 0.29296476E+03</totfact>
</mgrwt>
</event>
<event>
 6    1  0.8397183E-002  0.3000000E+03  0.7818608E-02  0.1093470E+00
         21   -1    0    0  501  502  0.00000000000E+00  0.00000000000E+00  0.21143610156E+01  0.21143610156E+01  0.00000000000E+00 0. -1.
         13   -1    0    0    0    0 -0.00000000000E+00 -0.00000000000E+00 -0.10000000000E+04  0.10000000000E+04  0.00000000000E+00 0.  1.
    9000005    2    1    2  501    0 -0.17676480055E+02 -0.42151535888E+02 -0.54789512885E+03  0.54980841463E+03  0.33182307658E+01 0.  0.
         13    1    3    3    0    0 -0.12567623512E+02 -0.26778479252E+02 -0.36582034408E+03  0.36701438154E+03  0.00000000000E+00 0.  1.
          1    1    3    3  501    0 -0.51088565424E+01 -0.15373056636E+02 -0.18207478477E+03  0.18279403309E+03  0.00000000000E+00 0.  1.
         -3    1    1    2    0  502  0.17676480055E+02  0.42151535888E+02 -0.44999051014E+03  0.45230594639E+03  0.00000000000E+00 0. -1.
<mgrwt>
<rscale>  1 0.30000000E+03</rscale>
<asrwt>0</asrwt>
<pdfrwt beam="1">  1       21 0.76886017E-02 0.30000000E+03</pdfrwt>
<pdfrwt beam="2">0</pdfrwt>
<totfact> 0.13695445E+04</totfact>
</mgrwt>
</event>
<event>
 6    1  0.8397183E-002  0.3000000E+03  0.7818608E-02  0.1093470E+00
         21   -1    0    0  501  502  0.00000000000E+00  0.00000000000E+00  0.12692201313E+01  0.12692201313E+01  0.00000000000E+00 0. -1.
         13   -1    0    0    0    0 -0.00000000000E+00 -0.00000000000E+00 -0.10000000000E+04  0.10000000000E+04  0.00000000000E+00 0.  1.
    9000005    2    1    2  501    0  0.14099673142E+02  0.32573646973E+02 -0.50032466818E+03  0.50160083467E+03  0.43336466564E+01 0.  0.
         13    1    3    3    0    0  0.73172835119E+01  0.21333213253E+02 -0.33177267038E+03  0.33253834882E+03  0.00000000000E+00 0.  1.
          1    1    3    3  501    0  0.67823896303E+01  0.11240433720E+02 -0.16855199780E+03  0.16906248585E+03  0.00000000000E+00 0.  1.
         -3    1    1    2    0  502 -0.14099673142E+02 -0.32573646973E+02 -0.49840611169E+03  0.49966838546E+03  0.00000000000E+00 0. -1.
<mgrwt>
<rscale>  1 0.30000000E+03</rscale>
<asrwt>0</asrwt>
<pdfrwt beam="1">  1       21 0.46153557E-02 0.30000000E+03</pdfrwt>
<pdfrwt beam="2">0</pdfrwt>
<totfact> 0.33008350E+04</totfact>
</mgrwt>
</event>
<event>
 6    1  0.8397183E-002  0.3000000E+03  0.7818608E-02  0.1093470E+00
         21   -1    0    0  501  502  0.00000000000E+00  0.00000000000E+00  0.17681883572E+01  0.17681883572E+01  0.00000000000E+00 0. -1.
         13   -1    0    0    0    0 -0.00000000000E+00 -0.00000000000E+00 -0.10000000000E+04  0.10000000000E+04  0.00000000000E+00 0.  1.
    9000005    2    1    2  501    0 -0.14065907358E+02  0.35653238126E+02 -0.70407395824E+03  0.70512387970E+03  0.32471397156E+01 0.  0.
         13    1    3    3    0    0 -0.90914844467E+01  0.21350042476E+02 -0.39882007957E+03  0.39949459980E+03  0.00000000000E+00 0.  1.
          3    1    3    3  501    0 -0.49744229109E+01  0.14303195650E+02 -0.30525387868E+03  0.30562927991E+03  0.00000000000E+00 0.  1.
         -1    1    1    2    0  502  0.14065907358E+02 -0.35653238126E+02 -0.29415785340E+03  0.29664430865E+03  0.00000000000E+00 0. -1.
<mgrwt>
<rscale>  1 0.30000000E+03</rscale>
<asrwt>0</asrwt>
<pdfrwt beam="1">  1       21 0.64297894E-02 0.30000000E+03</pdfrwt>
<pdfrwt beam="2">0</pdfrwt>
<totfact> 0.18698246E+04</totfact>
</mgrwt>
</event>
<event>
 6    1  0.8397183E-002  0.3000000E+03  0.7818608E-02  0.1093470E+00
         21   -1    0    0  501  502  0.00000000000E+00  0.00000000000E+00  0.98317991917E+00  0.98317991917E+00  0.00000000000E+00 0. -1.
         13   -1    0    0    0    0 -0.00000000000E+00 -0.00000000000E+00 -0.10000000000E+04  0.10000000000E+04  0.00000000000E+00 0.  1.
    9000005    2    1    2  501    0  0.30428926321E+02  0.32546451473E+01 -0.39869561599E+03  0.39988247259E+03  0.33593752277E+01 0.  0.
         13    1    3    3    0    0  0.53082883194E+01 -0.70555302772E+00 -0.70192680362E+02  0.70396648403E+02  0.00000000000E+00 0.  1.
          3    1    3    3  501    0  0.25120638002E+02  0.39601981751E+01 -0.32850293563E+03  0.32948582418E+03  0.00000000000E+00 0.  1.
         -1    1    1    2    0  502 -0.30428926321E+02 -0.32546451473E+01 -0.60032120409E+03  0.60110070733E+03  0.00000000000E+00 0. -1.
<mgrwt>
<rscale>  1 0.30000000E+03</rscale>
<asrwt>0</asrwt>
<pdfrwt beam="1">  1       21 0.35752072E-02 0.30000000E+03</pdfrwt>
<pdfrwt beam="2">0</pdfrwt>
<totfact> 0.50775285E+04</totfact>
</mgrwt>
</event>
<event>
 6    1  0.8397183E-002  0.3000000E+03  0.7818608E-02  0.1093470E+00
         21   -1    0    0  501  502  0.00000000000E+00  0.00000000000E+00  0.11557387042E+01  0.11557387042E+01  0.00000000000E+00 0. -1.
         13   -1    0    0    0    0 -0.00000000000E+00 -0.00000000000E+00 -0.10000000000E+04  0.10000000000E+04  0.00000000000E+00 0.  1.
    9000005    2    1    2  501    0  0.33849933277E+02  0.17088171587E+01 -0.51650995954E+03  0.51763209224E+03  0.34214871980E+01 0.  0.
         13    1    3    3    0    0  0.28563513196E+02  0.25183172595E+01 -0.42540424346E+03  0.42636954225E+03  0.00000000000E+00 0.  1.
          3    1    3    3  501    0  0.52864200810E+01 -0.80950010088E+00 -0.91105716084E+02  0.91262549991E+02  0.00000000000E+00 0.  1.
         -1    1    1    2    0  502 -0.33849933277E+02 -0.17088171587E+01 -0.48233430175E+03  0.48352364646E+03  0.00000000000E+00 0. -1.
<mgrwt>
<rscale>  1 0.30000000E+03</rscale>
<asrwt>0</asrwt>
<pdfrwt beam="1">  1       21 0.42026951E-02 0.30000000E+03</pdfrwt>
<pdfrwt beam="2">0</pdfrwt>
<totfact> 0.38684531E+04</totfact>
</mgrwt>
</event>
<event>
 6    1  0.8397183E-002  0.3000000E+03  0.7818608E-02  0.1093470E+00
         21   -1    0    0  501  502  0.00000000000E+00  0.00000000000E+00  0.22306851188E+01  0.22306851188E+01  0.00000000000E+00 0. -1.
         13   -1    0    0    0    0 -0.00000000000E+00 -0.00000000000E+00 -0.10000000000E+04  0.10000000000E+04  0.00000000000E+00 0.  1.
    9000005    2    1    2  501    0 -0.31442026714E+02  0.34437616958E+02 -0.57294328776E+03  0.57485297884E+03  0.41696264726E+01 0.  0.
         13    1    3    3    0    0 -0.56591000571E+01  0.48064864604E+01 -0.77273602741E+02  0.77629487993E+02  0.00000000000E+00 0.  1.
          3    1    3    3  501    0 -0.25782926657E+02  0.29631130497E+02 -0.49566968502E+03  0.49722349085E+03  0.00000000000E+00 0.  1.
         -3    1    1    2    0  502  0.31442026714E+02 -0.34437616958E+02 -0.42482602712E+03  0.42737770628E+03  0.00000000000E+00 0. -1.
<mgrwt>
<rscale>  1 0.30000000E+03</rscale>
<asrwt>0</asrwt>
<pdfrwt beam="1">  1       21 0.81115994E-02 0.30000000E+03</pdfrwt>
<pdfrwt beam="2">0</pdfrwt>
<totfact> 0.12466670E+04</totfact>
</mgrwt>
</event>
<event>
 6    1  0.8397183E-002  0.3000000E+03  0.7818608E-02  0.1093470E+00
         21   -1    0    0  501  502  0.00000000000E+00  0.00000000000E+00  0.94620785917E+00  0.94620785917E+00  0.00000000000E+00 0. -1.
         13   -1    0    0    0    0 -0.00000000000E+00 -0.00000000000E+00 -0.10000000000E+04  0.10000000000E+04  0.00000000000E+00 0.  1.
    9000005    2    1    2  501    0 -0.92678485826E+01 -0.28868425388E+02 -0.57037364418E+03  0.57119517731E+03  0.43078539967E+01 0.  0.
         13    1    3    3    0    0 -0.23239023149E+01 -0.13116709823E+02 -0.27058609759E+03  0.27091379590E+03  0.00000000000E+00 0.  1.
          1    1    3    3  501    0 -0.69439462677E+01 -0.15751715566E+02 -0.29978754659E+03  0.30028138141E+03  0.00000000000E+00 0.  1.
         -1    1    1    2    0  502  0.92678485826E+01  0.28868425388E+02 -0.42868014796E+03  0.42975103055E+03  0.00000000000E+00 0. -1.
<mgrwt>
<rscale>  1 0.30000000E+03</rscale>
<asrwt>0</asrwt>
<pdfrwt beam="1">  1       21 0.34407631E-02 0.30000000E+03</pdfrwt>
<pdfrwt beam="2">0</pdfrwt>
<totfact> 0.54141490E+04</totfact>
</mgrwt>
</event>
<event>
 6    1  0.8397183E-002  0.3000000E+03  0.7818608E-02  0.1093470E+00
         21   -1    0    0  501  502  0.00000000000E+00  0.00000000000E+00  0.94135276894E+00  0.94135276894E+00  0.00000000000E+00 0. -1.
         13   -1    0    0    0    0 -0.00000000000E+00 -0.00000000000E+00 -0.10000000000E+04  0.10000000000E+04  0.00000000000E+00 0.  1.
    9000005    2    1    2  501    0 -0.29132993261E+02  0.94053768909E+01 -0.51265774958E+03  0.51357801228E+03  0.26859055364E+01 0.  0.
         13    1    3    3    0    0 -0.11541002381E+02  0.25622108717E+01 -0.20915114006E+03  0.20948498526E+03  0.00000000000E+00 0.  1.
          1    1    3    3  501    0 -0.17591990879E+02  0.68431660192E+01 -0.30350660952E+03  0.30409302703E+03  0.00000000000E+00 0.  1.
         -1    1    1    2    0  502  0.29132993261E+02 -0.94053768909E+01 -0.48640089766E+03  0.48736334049E+03  0.00000000000E+00 0. -1.
<mgrwt>
<rscale>  1 0.30000000E+03</rscale>
<asrwt>0</asrwt>
<pdfrwt beam="1">  1       21 0.34231082E-02 0.30000000E+03</pdfrwt>
<pdfrwt beam="2">0</pdfrwt>
<totfact> 0.54609229E+04</totfact>
</mgrwt>
</event>
<event>
 6    1  0.8397183E-002  0.3000000E+03  0.7818608E-02  0.1093470E+00
         21   -1    0    0  501  502  0.00000000000E+00  0.00000000000E+00  0.16737322683E+01  0.16737322683E+01  0.00000000000E+00 0. -1.
         13   -1    0    0    0    0 -0.00000000000E+00 -0.00000000000E+00 -0.10000000000E+04  0.10000000000E+04  0.00000000000E+00 0.  1.
    9000005    2    1    2  501    0 -0.32481946990E+02 -0.16907184605E+01 -0.80225508088E+03  0.80292301976E+03  0.37716645486E+01 0.  0.
         13    1    3    3    0    0 -0.25805442720E+02 -0.28102651620E+01 -0.62586606123E+03  0.62640413876E+03  0.00000000000E+00 0.  1.
          1    1    3    3  501    0 -0.66765042696E+01  0.11195467015E+01 -0.17638901965E+03  0.17651888099E+03  0.00000000000E+00 0.  1.
         -3    1    1    2    0  502  0.32481946990E+02  0.16907184605E+01 -0.19607118686E+03  0.19875071251E+03  0.00000000000E+00 0. -1.
<mgrwt>
<rscale>  1 0.30000000E+03</rscale>
<asrwt>0</asrwt>
<pdfrwt beam="1">  1       21 0.60863120E-02 0.30000000E+03</pdfrwt>
<pdfrwt beam="2">0</pdfrwt>
<totfact> 0.20558806E+04</totfact>
</mgrwt>
</event>
<event>
 6    1  0.8397183E-002  0.3000000E+03  0.7818608E-02  0.1093470E+00
         21   -1    0    0  501  502  0.00000000000E+00  0.00000000000E+00  0.12321863931E+01  0.12321863931E+01  0.00000000000E+00 0. -1.
         13   -1    0    0    0    0 -0.00000000000E+00 -0.00000000000E+00 -0.10000000000E+04  0.10000000000E+04  0.00000000000E+00 0.  1.
    9000005    2    1    2  501    0 -0.34299655167E+02 -0.27082981586E+01 -0.41208199045E+03  0.41353834065E+03  0.43117416710E+01 0.  0.
         13    1    3    3    0    0 -0.94096898742E+01 -0.17664154346E+01 -0.13501199609E+03  0.13535103094E+03  0.00000000000E+00 0.  1.
          1    1    3    3  501    0 -0.24889965292E+02 -0.94188272405E+00 -0.27706999436E+03  0.27818730972E+03  0.00000000000E+00 0.  1.
         -1    1    1    2    0  502  0.34299655167E+02  0.27082981586E+01 -0.58668582316E+03  0.58769384574E+03  0.00000000000E+00 0. -1.
<mgrwt>
<rscale>  1 0.30000000E+03</rscale>
<asrwt>0</asrwt>
<pdfrwt beam="1">  1       21 0.44806872E-02 0.30000000E+03</pdfrwt>
<pdfrwt beam="2">0</pdfrwt>
<totfact> 0.34710552E+04</totfact>
</mgrwt>
</event>
<event>
 6    1  0.8397183E-002  0.3000000E+03  0.7818608E-02  0.1093470E+00
         21   -1    0    0  501  502  0.00000000000E+00  0.00000000000E+00  0.38617640359E+01  0.38617640359E+01  0.00000000000E+00 0. -1.
         13   -1    0    0    0    0 -0.00000000000E+00 -0.00000000000E+00 -0.10000000000E+04  0.10000000000E+04  0.00000000000E+00 0.  1.
    9000005    2    1    2  501    0  0.57907278896E+02  0.17296710362E+02 -0.38253791405E+03  0.38729239714E+03  0.27777796834E+01 0.  0.
         13    1    3    3    0    0  0.29577924551E+02  0.10213109812E+02 -0.20061180714E+03  0.20303757878E+03  0.00000000000E+00 0.  1.
          1    1    3    3  501    0  0.28329354345E+02  0.70836005502E+01 -0.18192610691E+03  0.18425481836E+03  0.00000000000E+00 0.  1.
         -1    1    1    2    0  502 -0.57907278896E+02 -0.17296710362E+02 -0.61360032192E+03  0.61656936690E+03  0.00000000000E+00 0. -1.
<mgrwt>
<rscale>  1 0.30000000E+03</rscale>
<asrwt>0</asrwt>
<pdfrwt beam="1">  1       21 0.14042808E-01 0.30000000E+03</pdfrwt>
<pdfrwt beam="2">0</pdfrwt>
<totfact> 0.46505129E+03</totfact>
</mgrwt>
</event>
<event>
 6    1  0.8397183E-002  0.3000000E+03  0.7818608E-02  0.1093470E+00
         21   -1    0    0  501  502  0.00000000000E+00  0.00000000000E+00  0.25496282215E+01  0.25496282215E+01  0.00000000000E+00 0. -1.
         13   -1    0    0    0    0 -0.00000000000E+00 -0.00000000000E+00 -0.10000000000E+04  0.10000000000E+04  0.00000000000E+00 0.  1.
    9000005    2    1    2  501    0 -0.46424136288E+02  0.14903487795E+02 -0.62757095032E+03  0.62947041305E+03  0.32231715155E+01 0.  0.
         13    1    3    3    0    0 -0.41744589362E+02  0.13682405894E+02 -0.55235913448E+03  0.55410326873E+03  0.00000000000E+00 0.  1.
          1    1    3    3  501    0 -0.46795469256E+01  0.12210819008E+01 -0.75211815841E+02  0.75367144318E+02  0.00000000000E+00 0.  1.
         -3    1    1    2    0  502  0.46424136288E+02 -0.14903487795E+02 -0.36987942145E+03  0.37307921517E+03  0.00000000000E+00 0. -1.
<mgrwt>
<rscale>  1 0.30000000E+03</rscale>
<asrwt>0</asrwt>
<pdfrwt beam="1">  1       21 0.92713949E-02 0.30000000E+03</pdfrwt>
<pdfrwt beam="2">0</pdfrwt>
<totfact> 0.98452388E+03</totfact>
</mgrwt>
</event>
<event>
 6    1  0.8397183E-002  0.3000000E+03  0.7818608E-02  0.1093470E+00
         21   -1    0    0  501  502  0.00000000000E+00  0.00000000000E+00  0.30827668413E+01  0.30827668413E+01  0.00000000000E+00 0. -1.
         13   -1    0    0    0    0 -0.00000000000E+00 -0.00000000000E+00 -0.10000000000E+04  0.10000000000E+04  0.00000000000E+00 0.  1.
    9000005    2    1    2  501    0  0.30195880550E+02  0.31928814494E+02 -0.19308422791E+03  0.19804938820E+03  0.32864421689E+01 0.  0.
         13    1    3    3    0    0  0.28645877610E+02  0.29507257983E+02 -0.17746648615E+03  0.18216920235E+03  0.00000000000E+00 0.  1.
          1    1    3    3  501    0  0.15500029399E+01  0.24215565112E+01 -0.15617741759E+02  0.15880185852E+02  0.00000000000E+00 0.  1.
         -1    1    1    2    0  502 -0.30195880550E+02 -0.31928814494E+02 -0.80383300525E+03  0.80503337864E+03  0.00000000000E+00 0. -1.
<mgrwt>
<rscale>  1 0.30000000E+03</rscale>
<asrwt>0</asrwt>
<pdfrwt beam="1">  1       21 0.11210085E-01 0.30000000E+03</pdfrwt>
<pdfrwt beam="2">0</pdfrwt>
<totfact> 0.70091417E+03</totfact>
</mgrwt>
</event>
<event>
 6    1  0.8397183E-002  0.3000000E+03  0.7818608E-02  0.1093470E+00
         21   -1    0    0  501  502  0.00000000000E+00  0.00000000000E+00  0.14326353350E+01  0.14326353350E+01  0.00000000000E+00 0. -1.
         13   -1    0    0    0    0 -0.00000000000E+00 -0.00000000000E+00 -0.10000000000E+04  0.10000000000E+04  0.00000000000E+00 0.  1.
    9000005    2    1    2  501    0 -0.25071429295E+02 -0.26864588029E+02 -0.61596912614E+03  0.61707382539E+03  0.34436857827E+01 0.  0.
         13    1    3    3    0    0 -0.37478452171E+01 -0.26648069560E+01 -0.66446703665E+02  0.66605645164E+02  0.00000000000E+00 0.  1.
          1    1    3    3  501    0 -0.21323584078E+02 -0.24199781073E+02 -0.54952242248E+03  0.55046818023E+03  0.00000000000E+00 0.  1.
         -1    1    1    2    0  502  0.25071429295E+02  0.26864588029E+02 -0.38259823852E+03  0.38435880994E+03  0.00000000000E+00 0. -1.
<mgrwt>
<rscale>  1 0.30000000E+03</rscale>
<asrwt>0</asrwt>
<pdfrwt beam="1">  1       21 0.52095940E-02 0.30000000E+03</pdfrwt>
<pdfrwt beam="2">0</pdfrwt>
<totfact> 0.26855179E+04</totfact>
</mgrwt>
</event>
<event>
 6    1  0.8397183E-002  0.3000000E+03  0.7818608E-02  0.1093470E+00
         21   -1    0    0  501  502  0.00000000000E+00  0.00000000000E+00  0.11461874398E+01  0.11461874398E+01  0.00000000000E+00 0. -1.
         13   -1    0    0    0    0 -0.00000000000E+00 -0.00000000000E+00 -0.10000000000E+04  0.10000000000E+04  0.00000000000E+00 0.  1.
    9000005    2    1    2  501    0 -0.32227872559E+02  0.87442036394E+01 -0.54218938196E+03  0.54326246963E+03  0.70489802756E+01 0.  0.
         13    1    3    3    0    0 -0.14669724084E+01 -0.83730511902E+00 -0.16360632851E+02  0.16447595423E+02  0.00000000000E+00 0.  1.
          1    1    3    3  501    0 -0.30760900150E+02  0.95815087584E+01 -0.52582874911E+03  0.52681487420E+03  0.00000000000E+00 0.  1.
         -3    1    1    2    0  502  0.32227872559E+02 -0.87442036394E+01 -0.45666443060E+03  0.45788371781E+03  0.00000000000E+00 0. -1.
<mgrwt>
<rscale>  1 0.30000000E+03</rscale>
<asrwt>0</asrwt>
<pdfrwt beam="1">  1       21 0.41679631E-02 0.30000000E+03</pdfrwt>
<pdfrwt beam="2">0</pdfrwt>
<totfact> 0.39230324E+04</totfact>
</mgrwt>
</event>
<event>
 6    1  0.8397183E-002  0.3000000E+03  0.7818608E-02  0.1093470E+00
         21   -1    0    0  501  502  0.00000000000E+00  0.00000000000E+00  0.54779445532E+01  0.54779445532E+01  0.00000000000E+00 0. -1.
         13   -1    0    0    0    0 -0.00000000000E+00 -0.00000000000E+00 -0.10000000000E+04  0.10000000000E+04  0.00000000000E+00 0.  1.
    9000005    2    1    2  501    0  0.65290044206E+02 -0.33991734298E+02 -0.44772579116E+03  0.45374940396E+03  0.34510355437E+01 0.  0.
         13    1    3    3    0    0  0.41907869739E+02 -0.20172460754E+02 -0.28755853855E+03  0.29129557294E+03  0.00000000000E+00 0.  1.
          1    1    3    3  501    0  0.23382174467E+02 -0.13819273543E+02 -0.16016725261E+03  0.16245383102E+03  0.00000000000E+00 0.  1.
         -1    1    1    2    0  502 -0.65290044206E+02  0.33991734298E+02 -0.54679626428E+03  0.55172854059E+03  0.00000000000E+00 0. -1.
<mgrwt>
<rscale>  1 0.30000000E+03</rscale>
<asrwt>0</asrwt>
<pdfrwt beam="1">  1       21 0.19919840E-01 0.30000000E+03</pdfrwt>
<pdfrwt beam="2">0</pdfrwt>
<totfact> 0.24176812E+03</totfact>
</mgrwt>
</event>
<event>
 6    1  0.8397183E-002  0.3000000E+03  0.7818608E-02  0.1093470E+00
         21   -1    0    0  501  502  0.00000000000E+00  0.00000000000E+00  0.16831476129E+01  0.16831476129E+01  0.00000000000E+00 0. -1.
         13   -1    0    0    0    0 -0.00000000000E+00 -0.00000000000E+00 -0.10000000000E+04  0.10000000000E+04  0.00000000000E+00 0.  1.
    9000005    2    1    2  501    0 -0.23576517629E+02 -0.30770781987E+02 -0.33862937346E+03  0.34085770693E+03  0.33809159111E+01 0.  0.
         13    1    3    3    0    0 -0.61409189922E+01 -0.81172733188E+01 -0.76484799993E+02  0.77159093062E+02  0.00000000000E+00 0.  1.
          1    1    3    3  501    0 -0.17435598636E+02 -0.22653508669E+02 -0.26214457347E+03  0.26369861387E+03  0.00000000000E+00 0.  1.
         -1    1    1    2    0  502  0.23576517629E+02  0.30770781987E+02 -0.65968747892E+03  0.66082544068E+03  0.00000000000E+00 0. -1.
<mgrwt>
<rscale>  1 0.30000000E+03</rscale>
<asrwt>0</asrwt>
<pdfrwt beam="1">  1       21 0.61205497E-02 0.30000000E+03</pdfrwt>
<pdfrwt beam="2">0</pdfrwt>
<totfact> 0.20360728E+04</totfact>
</mgrwt>
</event>
<event>
 6    1  0.8397183E-002  0.3000000E+03  0.7818608E-02  0.1093470E+00
         21   -1    0    0  501  502  0.00000000000E+00  0.00000000000E+00  0.16125177049E+01  0.16125177049E+01  0.00000000000E+00 0. -1.
         13   -1    0    0    0    0 -0.00000000000E+00 -0.00000000000E+00 -0.10000000000E+04  0.10000000000E+04  0.00000000000E+00 0.  1.
    9000005    2    1    2  501    0  0.40086641536E+02  0.77870554379E+00 -0.51849204405E+03  0.52004510097E+03  0.23156183054E+01 0.  0.
         13    1    3    3    0    0  0.11634082858E+02  0.79683032913E+00 -0.13954506114E+03  0.14003146400E+03  0.00000000000E+00 0.  1.
          1    1    3    3  501    0  0.28452558677E+02 -0.18124785337E-01 -0.37894698291E+03  0.38001363696E+03  0.00000000000E+00 0.  1.
         -1    1    1    2    0  502 -0.40086641536E+02 -0.77870554379E+00 -0.47989543825E+03  0.48156741674E+03  0.00000000000E+00 0. -1.
<mgrwt>
<rscale>  1 0.30000000E+03</rscale>
<asrwt>0</asrwt>
<pdfrwt beam="1">  1       21 0.58637131E-02 0.30000000E+03</pdfrwt>
<pdfrwt beam="2">0</pdfrwt>
<totfact> 0.21923039E+04</totfact>
</mgrwt>
</event>
<event>
 6    1  0.8397183E-002  0.3000000E+03  0.7818608E-02  0.1093470E+00
         21   -1    0    0  501  502  0.00000000000E+00  0.00000000000E+00  0.15519415103E+01  0.15519415103E+01  0.00000000000E+00 0. -1.
         13   -1    0    0    0    0 -0.00000000000E+00 -0.00000000000E+00 -0.10000000000E+04  0.10000000000E+04  0.00000000000E+00 0.  1.
    9000005    2    1    2  501    0 -0.37865621348E+02  0.11793835061E+01 -0.36702000644E+03  0.36898844182E+03  0.36863048818E+01 0.  0.
         13    1    3    3    0    0 -0.17070350423E+02  0.21093726666E+01 -0.17519053558E+03  0.17603286645E+03  0.00000000000E+00 0.  1.
          1    1    3    3  501    0 -0.20795270926E+02 -0.92998916052E+00 -0.19182947086E+03  0.19295557536E+03  0.00000000000E+00 0.  1.
         -1    1    1    2    0  502  0.37865621348E+02 -0.11793835061E+01 -0.63142805205E+03  0.63256349969E+03  0.00000000000E+00 0. -1.
<mgrwt>
<rscale>  1 0.30000000E+03</rscale>
<asrwt>0</asrwt>
<pdfrwt beam="1">  1       21 0.56434356E-02 0.30000000E+03</pdfrwt>
<pdfrwt beam="2">0</pdfrwt>
<totfact> 0.23416240E+04</totfact>
</mgrwt>
</event>
<event>
 6    1  0.8397183E-002  0.3000000E+03  0.7818608E-02  0.1093470E+00
         21   -1    0    0  501  502  0.00000000000E+00  0.00000000000E+00  0.30387662806E+01  0.30387662806E+01  0.00000000000E+00 0. -1.
         13   -1    0    0    0    0 -0.00000000000E+00 -0.00000000000E+00 -0.10000000000E+04  0.10000000000E+04  0.00000000000E+00 0.  1.
    9000005    2    1    2  501    0 -0.23609513356E+02  0.43176794949E+02 -0.28058024022E+03  0.28496956865E+03  0.77935300060E+01 0.  0.
         13    1    3    3    0    0 -0.31865700532E+00 -0.30996952054E+00 -0.15655325214E+01  0.16274260248E+01  0.00000000000E+00 0.  1.
          3    1    3    3  501    0 -0.23290856350E+02  0.43486764470E+02 -0.27901470770E+03  0.28334214262E+03  0.00000000000E+00 0.  1.
         -1    1    1    2    0  502  0.23609513356E+02 -0.43176794949E+02 -0.71638099350E+03  0.71806919763E+03  0.00000000000E+00 0. -1.
<mgrwt>
<rscale>  1 0.30000000E+03</rscale>
<asrwt>0</asrwt>
<pdfrwt beam="1">  1       21 0.11050083E-01 0.30000000E+03</pdfrwt>
<pdfrwt beam="2">0</pdfrwt>
<totfact> 0.71929836E+03</totfact>
</mgrwt>
</event>
<event>
 6    1  0.8397183E-002  0.3000000E+03  0.7818608E-02  0.1093470E+00
         21   -1    0    0  501  502  0.00000000000E+00  0.00000000000E+00  0.99008116366E+00  0.99008116366E+00  0.00000000000E+00 0. -1.
         13   -1    0    0    0    0 -0.00000000000E+00 -0.00000000000E+00 -0.10000000000E+04  0.10000000000E+04  0.00000000000E+00 0.  1.
    9000005    2    1    2  501    0  0.23780845241E+02  0.19832443241E+02 -0.42434989234E+03  0.42549637967E+03  0.39349178681E+01 0.  0.
         13    1    3    3    0    0  0.21660929016E+02  0.18408889027E+02 -0.40127276038E+03  0.40227840019E+03  0.00000000000E+00 0.  1.
          1    1    3    3  501    0  0.21199162254E+01  0.14235542140E+01 -0.23077131961E+02  0.23217979476E+02  0.00000000000E+00 0.  1.
         -3    1    1    2    0  502 -0.23780845241E+02 -0.19832443241E+02 -0.57466002650E+03  0.57549370149E+03  0.00000000000E+00 0. -1.
<mgrwt>
<rscale>  1 0.30000000E+03</rscale>
<asrwt>0</asrwt>
<pdfrwt beam="1">  1       21 0.36003027E-02 0.30000000E+03</pdfrwt>
<pdfrwt beam="2">0</pdfrwt>
<totfact> 0.50183234E+04</totfact>
</mgrwt>
</event>
<event>
 6    1  0.8397183E-002  0.3000000E+03  0.7818608E-02  0.1093470E+00
         21   -1    0    0  501  502  0.00000000000E+00  0.00000000000E+00  0.17562934381E+01  0.17562934381E+01  0.00000000000E+00 0. -1.
         13   -1    0    0    0    0 -0.00000000000E+00 -0.00000000000E+00 -0.10000000000E+04  0.10000000000E+04  0.00000000000E+00 0.  1.
    9000005    2    1    2  501    0 -0.22926116075E+02  0.30512226430E+02 -0.30437557159E+03  0.30683932610E+03  0.70200215847E+01 0.  0.
         13    1    3    3    0    0 -0.21217923503E+02  0.29858743340E+02 -0.27839271943E+03  0.28079218483E+03  0.00000000000E+00 0.  1.
          1    1    3    3  501    0 -0.17081925716E+01  0.65348309016E+00 -0.25982852162E+02  0.26047141273E+02  0.00000000000E+00 0.  1.
         -1    1    1    2    0  502  0.22926116075E+02 -0.30512226430E+02 -0.69386813497E+03  0.69491696734E+03  0.00000000000E+00 0. -1.
<mgrwt>
<rscale>  1 0.30000000E+03</rscale>
<asrwt>0</asrwt>
<pdfrwt beam="1">  1       21 0.63865351E-02 0.30000000E+03</pdfrwt>
<pdfrwt beam="2">0</pdfrwt>
<totfact> 0.18917871E+04</totfact>
</mgrwt>
</event>
<event>
 6    1  0.8397183E-002  0.3000000E+03  0.7818608E-02  0.1093470E+00
         21   -1    0    0  501  502  0.00000000000E+00  0.00000000000E+00  0.10358575799E+01  0.10358575799E+01  0.00000000000E+00 0. -1.
         13   -1    0    0    0    0 -0.00000000000E+00 -0.00000000000E+00 -0.10000000000E+04  0.10000000000E+04  0.00000000000E+00 0.  1.
    9000005    2    1    2  501    0  0.14905523156E+02  0.27603891530E+02 -0.60337918718E+03  0.60420893528E+03  0.42242756008E+01 0.  0.
         13    1    3    3    0    0  0.13847611220E+01  0.18065359297E+01 -0.67990925216E+02  0.68029016215E+02  0.00000000000E+00 0.  1.
          3    1    3    3  501    0  0.13520762034E+02  0.25797355600E+02 -0.53538826196E+03  0.53617991906E+03  0.00000000000E+00 0.  1.
         -3    1    1    2    0  502 -0.14905523156E+02 -0.27603891530E+02 -0.39558495524E+03  0.39682692230E+03  0.00000000000E+00 0. -1.
<mgrwt>
<rscale>  1 0.30000000E+03</rscale>
<asrwt>0</asrwt>
<pdfrwt beam="1">  1       21 0.37667628E-02 0.30000000E+03</pdfrwt>
<pdfrwt beam="2">0</pdfrwt>
<totfact> 0.46517531E+04</totfact>
</mgrwt>
</event>
<event>
 6    1  0.8397183E-002  0.3000000E+03  0.7818608E-02  0.1093470E+00
         21   -1    0    0  501  502  0.00000000000E+00  0.00000000000E+00  0.10055412600E+01  0.10055412600E+01  0.00000000000E+00 0. -1.
         13   -1    0    0    0    0 -0.00000000000E+00 -0.00000000000E+00 -0.10000000000E+04  0.10000000000E+04  0.00000000000E+00 0.  1.
    9000005    2    1    2  501    0  0.18077498190E+02 -0.25611698081E+02 -0.56677224839E+03  0.56764795896E+03  0.32663043321E+01 0.  0.
         13    1    3    3    0    0  0.14980705833E+01 -0.36527806737E+01 -0.83063558904E+02  0.83157331848E+02  0.00000000000E+00 0.  1.
          1    1    3    3  501    0  0.16579427607E+02 -0.21958917407E+02 -0.48370868949E+03  0.48449062711E+03  0.00000000000E+00 0.  1.
         -1    1    1    2    0  502 -0.18077498190E+02  0.25611698081E+02 -0.43222221035E+03  0.43335758230E+03  0.00000000000E+00 0. -1.
<mgrwt>
<rscale>  1 0.30000000E+03</rscale>
<asrwt>0</asrwt>
<pdfrwt beam="1">  1       21 0.36565214E-02 0.30000000E+03</pdfrwt>
<pdfrwt beam="2">0</pdfrwt>
<totfact> 0.48895794E+04</totfact>
</mgrwt>
</event>
<event>
 6    1  0.8397183E-002  0.3000000E+03  0.7818608E-02  0.1093470E+00
         21   -1    0    0  501  502  0.00000000000E+00  0.00000000000E+00  0.11035898374E+01  0.11035898374E+01  0.00000000000E+00 0. -1.
         13   -1    0    0    0    0 -0.00000000000E+00 -0.00000000000E+00 -0.10000000000E+04  0.10000000000E+04  0.00000000000E+00 0.  1.
    9000005    2    1    2  501    0 -0.29140675390E+02 -0.13946415600E+02 -0.38679215875E+03  0.38814739559E+03  0.25583513404E+01 0.  0.
         13    1    3    3    0    0 -0.25544494763E+02 -0.12447787440E+02 -0.32957144124E+03  0.33079420113E+03  0.00000000000E+00 0.  1.
          3    1    3    3  501    0 -0.35961806277E+01 -0.14986281604E+01 -0.57220717518E+02  0.57353194460E+02  0.00000000000E+00 0.  1.
         -3    1    1    2    0  502  0.29140675390E+02  0.13946415600E+02 -0.61210425141E+03  0.61295619424E+03  0.00000000000E+00 0. -1.
<mgrwt>
<rscale>  1 0.30000000E+03</rscale>
<asrwt>0</asrwt>
<pdfrwt beam="1">  1       21 0.40130624E-02 0.30000000E+03</pdfrwt>
<pdfrwt beam="2">0</pdfrwt>
<totfact> 0.41817080E+04</totfact>
</mgrwt>
</event>
<event>
 6    1  0.8397183E-002  0.3000000E+03  0.7818608E-02  0.1093470E+00
         21   -1    0    0  501  502  0.00000000000E+00  0.00000000000E+00  0.21770534428E+01  0.21770534428E+01  0.00000000000E+00 0. -1.
         13   -1    0    0    0    0 -0.00000000000E+00 -0.00000000000E+00 -0.10000000000E+04  0.10000000000E+04  0.00000000000E+00 0.  1.
    9000005    2    1    2  501    0 -0.24247267171E+02 -0.37727644950E+02 -0.36888297401E+03  0.37164014396E+03  0.55175108293E+01 0.  0.
         13    1    3    3    0    0 -0.11136577098E+02 -0.18021326327E+02 -0.19681968472E+03  0.19795650999E+03  0.00000000000E+00 0.  1.
          3    1    3    3  501    0 -0.13110690073E+02 -0.19706318623E+02 -0.17206328929E+03  0.17368363397E+03  0.00000000000E+00 0.  1.
         -3    1    1    2    0  502  0.24247267171E+02  0.37727644950E+02 -0.62893997254E+03  0.63053690948E+03  0.00000000000E+00 0. -1.
<mgrwt>
<rscale>  1 0.30000000E+03</rscale>
<asrwt>0</asrwt>
<pdfrwt beam="1">  1       21 0.79165747E-02 0.30000000E+03</pdfrwt>
<pdfrwt beam="2">0</pdfrwt>
<totfact> 0.13011180E+04</totfact>
</mgrwt>
</event>
<event>
 6    1  0.8397183E-002  0.3000000E+03  0.7818608E-02  0.1093470E+00
         21   -1    0    0  501  502  0.00000000000E+00  0.00000000000E+00  0.22268466263E+01  0.22268466263E+01  0.00000000000E+00 0. -1.
         13   -1    0    0    0    0 -0.00000000000E+00 -0.00000000000E+00 -0.10000000000E+04  0.10000000000E+04  0.00000000000E+00 0.  1.
    9000005    2    1    2  501    0 -0.34729698857E+02  0.75158407298E+01 -0.17065637616E+03  0.17434714342E+03  0.32692273749E+01 0.  0.
         13    1    3    3    0    0 -0.29415912634E+02  0.58777300179E+01 -0.13822765242E+03  0.14144513961E+03  0.00000000000E+00 0.  1.
          1    1    3    3  501    0 -0.53137862227E+01  0.16381107119E+01 -0.32428723740E+02  0.32902003801E+02  0.00000000000E+00 0.  1.
         -1    1    1    2    0  502  0.34729698857E+02 -0.75158407298E+01 -0.82711677721E+03  0.82787970321E+03  0.00000000000E+00 0. -1.
<mgrwt>
<rscale>  1 0.30000000E+03</rscale>
<asrwt>0</asrwt>
<pdfrwt beam="1">  1       21 0.80976412E-02 0.30000000E+03</pdfrwt>
<pdfrwt beam="2">0</pdfrwt>
<totfact> 0.12504468E+04</totfact>
</mgrwt>
</event>
<event>
 6    1  0.8397183E-002  0.3000000E+03  0.7818608E-02  0.1093470E+00
         21   -1    0    0  501  502  0.00000000000E+00  0.00000000000E+00  0.30765943995E+01  0.30765943995E+01  0.00000000000E+00 0. -1.
         13   -1    0    0    0    0 -0.00000000000E+00 -0.00000000000E+00 -0.10000000000E+04  0.10000000000E+04  0.00000000000E+00 0.  1.
    9000005    2    1    2  501    0 -0.14712204845E+01 -0.51478299572E+02 -0.68403231949E+03  0.68597564583E+03  0.31926083365E+01 0.  0.
         13    1    3    3    0    0 -0.15797525480E+01 -0.49807902743E+02 -0.65334925728E+03  0.65524695710E+03  0.00000000000E+00 0.  1.
          3    1    3    3  501    0  0.10853206357E+00 -0.16703968289E+01 -0.30683062213E+02  0.30728688737E+02  0.00000000000E+00 0.  1.
         -3    1    1    2    0  502  0.14712204845E+01  0.51478299572E+02 -0.31289108611E+03  0.31710094857E+03  0.00000000000E+00 0. -1.
<mgrwt>
<rscale>  1 0.30000000E+03</rscale>
<asrwt>0</asrwt>
<pdfrwt beam="1">  1       21 0.11187640E-01 0.30000000E+03</pdfrwt>
<pdfrwt beam="2">0</pdfrwt>
<totfact> 0.70345019E+03</totfact>
</mgrwt>
</event>
<event>
 6    1  0.8397183E-002  0.3000000E+03  0.7818608E-02  0.1093470E+00
         21   -1    0    0  501  502  0.00000000000E+00  0.00000000000E+00  0.14422038243E+01  0.14422038243E+01  0.00000000000E+00 0. -1.
         13   -1    0    0    0    0 -0.00000000000E+00 -0.00000000000E+00 -0.10000000000E+04  0.10000000000E+04  0.00000000000E+00 0.  1.
    9000005    2    1    2  501    0 -0.37475503035E+02  0.24657507355E+01 -0.56760656322E+03  0.56885757807E+03  0.33526498314E+01 0.  0.
         13    1    3    3    0    0 -0.10077126575E+02  0.26075209470E-01 -0.17330662917E+03  0.17359935736E+03  0.00000000000E+00 0.  1.
          3    1    3    3  501    0 -0.27398376461E+02  0.24396755261E+01 -0.39429993404E+03  0.39525822071E+03  0.00000000000E+00 0.  1.
         -1    1    1    2    0  502  0.37475503035E+02 -0.24657507355E+01 -0.43095123296E+03  0.43258462576E+03  0.00000000000E+00 0. -1.
<mgrwt>
<rscale>  1 0.30000000E+03</rscale>
<asrwt>0</asrwt>
<pdfrwt beam="1">  1       21 0.52443886E-02 0.30000000E+03</pdfrwt>
<pdfrwt beam="2">0</pdfrwt>
<totfact> 0.26551421E+04</totfact>
</mgrwt>
</event>
<event>
 6    1  0.8397183E-002  0.3000000E+03  0.7818608E-02  0.1093470E+00
         21   -1    0    0  501  502  0.00000000000E+00  0.00000000000E+00  0.15897164753E+01  0.15897164753E+01  0.00000000000E+00 0. -1.
         13   -1    0    0    0    0 -0.00000000000E+00 -0.00000000000E+00 -0.10000000000E+04  0.10000000000E+04  0.00000000000E+00 0.  1.
    9000005    2    1    2  501    0 -0.16156428165E+02 -0.36359841209E+02 -0.51433268554E+03  0.51587973192E+03  0.32738615809E+01 0.  0.
         13    1    3    3    0    0 -0.24120663711E+01 -0.81698244193E+01 -0.10050810265E+03  0.10086844300E+03  0.00000000000E+00 0.  1.
          3    1    3    3  501    0 -0.13744361794E+02 -0.28190016790E+02 -0.41382458289E+03  0.41501128892E+03  0.00000000000E+00 0.  1.
         -3    1    1    2    0  502  0.16156428165E+02  0.36359841209E+02 -0.48407759798E+03  0.48570998455E+03  0.00000000000E+00 0. -1.
<mgrwt>
<rscale>  1 0.30000000E+03</rscale>
<asrwt>0</asrwt>
<pdfrwt beam="1">  1       21 0.57807994E-02 0.30000000E+03</pdfrwt>
<pdfrwt beam="2">0</pdfrwt>
<totfact> 0.22467490E+04</totfact>
</mgrwt>
</event>
<event>
 6    1  0.8397183E-002  0.3000000E+03  0.7818608E-02  0.1093470E+00
         21   -1    0    0  501  502  0.00000000000E+00  0.00000000000E+00  0.10673474473E+01  0.10673474473E+01  0.00000000000E+00 0. -1.
         13   -1    0    0    0    0 -0.00000000000E+00 -0.00000000000E+00 -0.10000000000E+04  0.10000000000E+04  0.00000000000E+00 0.  1.
    9000005    2    1    2  501    0  0.57629165230E+01 -0.30415806559E+02 -0.36247794014E+03  0.36386021202E+03  0.67575367429E+01 0.  0.
         13    1    3    3    0    0  0.51713299680E+01 -0.11570501125E+02 -0.16384389860E+03  0.16433332668E+03  0.00000000000E+00 0.  1.
          1    1    3    3  501    0  0.59158655495E+00 -0.18845305434E+02 -0.19863404155E+03  0.19952688534E+03  0.00000000000E+00 0.  1.
         -3    1    1    2    0  502 -0.57629165230E+01  0.30415806559E+02 -0.63645471241E+03  0.63720713543E+03  0.00000000000E+00 0. -1.
<mgrwt>
<rscale>  1 0.30000000E+03</rscale>
<asrwt>0</asrwt>
<pdfrwt beam="1">  1       21 0.38812716E-02 0.30000000E+03</pdfrwt>
<pdfrwt beam="2">0</pdfrwt>
<totfact> 0.44234334E+04</totfact>
</mgrwt>
</event>
<event>
 6    1  0.8397183E-002  0.3000000E+03  0.7818608E-02  0.1093470E+00
         21   -1    0    0  501  502  0.00000000000E+00  0.00000000000E+00  0.94649486773E+01  0.94649486773E+01  0.00000000000E+00 0. -1.
         13   -1    0    0    0    0 -0.00000000000E+00 -0.00000000000E+00 -0.10000000000E+04  0.10000000000E+04  0.00000000000E+00 0.  1.
    9000005    2    1    2  501    0 -0.51042619645E+02  0.54119032268E+02 -0.82044465982E+03  0.82381754106E+03  0.34179606794E+01 0.  0.
         13    1    3    3    0    0 -0.23044197733E+02  0.22435133283E+02 -0.34350160942E+03  0.34500395060E+03  0.00000000000E+00 0.  1.
          1    1    3    3  501    0 -0.27998421912E+02  0.31683898985E+02 -0.47694305040E+03  0.47881359046E+03  0.00000000000E+00 0.  1.
         -3    1    1    2    0  502  0.51042619645E+02 -0.54119032268E+02 -0.17009039150E+03  0.18564740762E+03  0.00000000000E+00 0. -1.
<mgrwt>
<rscale>  1 0.30000000E+03</rscale>
<asrwt>0</asrwt>
<pdfrwt beam="1">  1       21 0.34418068E-01 0.30000000E+03</pdfrwt>
<pdfrwt beam="2">0</pdfrwt>
<totfact> 0.82353173E+02</totfact>
</mgrwt>
</event>
<event>
 6    1  0.8397183E-002  0.3000000E+03  0.7818608E-02  0.1093470E+00
         21   -1    0    0  501  502  0.00000000000E+00  0.00000000000E+00  0.16146571556E+01  0.16146571556E+01  0.00000000000E+00 0. -1.
         13   -1    0    0    0    0 -0.00000000000E+00 -0.00000000000E+00 -0.10000000000E+04  0.10000000000E+04  0.00000000000E+00 0.  1.
    9000005    2    1    2  501    0  0.82154259002E+01 -0.36293465875E+02 -0.68694395251E+03  0.68795807983E+03  0.31011000774E+01 0.  0.
         13    1    3    3    0    0  0.71445440207E+01 -0.25516739377E+02 -0.47937528276E+03  0.48010708203E+03  0.00000000000E+00 0.  1.
          1    1    3    3  501    0  0.10708818795E+01 -0.10776726498E+02 -0.20756866975E+03  0.20785099780E+03  0.00000000000E+00 0.  1.
         -3    1    1    2    0  502 -0.82154259002E+01  0.36293465875E+02 -0.31144139033E+03  0.31365657733E+03  0.00000000000E+00 0. -1.
<mgrwt>
<rscale>  1 0.30000000E+03</rscale>
<asrwt>0</asrwt>
<pdfrwt beam="1">  1       21 0.58714929E-02 0.30000000E+03</pdfrwt>
<pdfrwt beam="2">0</pdfrwt>
<totfact> 0.21873006E+04</totfact>
</mgrwt>
</event>
<event>
 6    1  0.8397183E-002  0.3000000E+03  0.7818608E-02  0.1093470E+00
         21   -1    0    0  501  502  0.00000000000E+00  0.00000000000E+00  0.56412412338E+01  0.56412412338E+01  0.00000000000E+00 0. -1.
         13   -1    0    0    0    0 -0.00000000000E+00 -0.00000000000E+00 -0.10000000000E+04  0.10000000000E+04  0.00000000000E+00 0.  1.
    9000005    2    1    2  501    0 -0.64746926830E+02  0.37900391803E+02 -0.51448456409E+03  0.51993778547E+03  0.35113859451E+01 0.  0.
         13    1    3    3    0    0 -0.48129894117E+02  0.27094066245E+02 -0.38699982275E+03  0.39092126822E+03  0.00000000000E+00 0.  1.
          1    1    3    3  501    0 -0.16617032713E+02  0.10806325558E+02 -0.12748474134E+03  0.12901651725E+03  0.00000000000E+00 0.  1.
         -3    1    1    2    0  502  0.64746926830E+02 -0.37900391803E+02 -0.47987419467E+03  0.48570345577E+03  0.00000000000E+00 0. -1.
<mgrwt>
<rscale>  1 0.30000000E+03</rscale>
<asrwt>0</asrwt>
<pdfrwt beam="1">  1       21 0.20513648E-01 0.30000000E+03</pdfrwt>
<pdfrwt beam="2">0</pdfrwt>
<totfact> 0.22857194E+03</totfact>
</mgrwt>
</event>
<event>
 6    1  0.8397183E-002  0.3000000E+03  0.7818608E-02  0.1093470E+00
         21   -1    0    0  501  502  0.00000000000E+00  0.00000000000E+00  0.15743583572E+01  0.15743583572E+01  0.00000000000E+00 0. -1.
         13   -1    0    0    0    0 -0.00000000000E+00 -0.00000000000E+00 -0.10000000000E+04  0.10000000000E+04  0.00000000000E+00 0.  1.
    9000005    2    1    2  501    0 -0.24969091234E+02  0.17746776074E+02 -0.18229459300E+03  0.18486860220E+03  0.25841565371E+01 0.  0.
         13    1    3    3    0    0 -0.14415060146E+02  0.11241162369E+02 -0.10269046194E+03  0.10430478734E+03  0.00000000000E+00 0.  1.
          3    1    3    3  501    0 -0.10554031088E+02  0.65056137045E+01 -0.79604131060E+02  0.80563814853E+02  0.00000000000E+00 0.  1.
         -3    1    1    2    0  502  0.24969091234E+02 -0.17746776074E+02 -0.81613104865E+03  0.81670575616E+03  0.00000000000E+00 0. -1.
<mgrwt>
<rscale>  1 0.30000000E+03</rscale>
<asrwt>0</asrwt>
<pdfrwt beam="1">  1       21 0.57249516E-02 0.30000000E+03</pdfrwt>
<pdfrwt beam="2">0</pdfrwt>
<totfact> 0.22845991E+04</totfact>
</mgrwt>
</event>
<event>
 6    1  0.8397183E-002  0.3000000E+03  0.7818608E-02  0.1093470E+00
         21   -1    0    0  501  502  0.00000000000E+00  0.00000000000E+00  0.15434212569E+01  0.15434212569E+01  0.00000000000E+00 0. -1.
         13   -1    0    0    0    0 -0.00000000000E+00 -0.00000000000E+00 -0.10000000000E+04  0.10000000000E+04  0.00000000000E+00 0.  1.
    9000005    2    1    2  501    0  0.38435365237E+02  0.64132732965E+01 -0.44448878884E+03  0.44620683897E+03  0.34427263117E+01 0.  0.
         13    1    3    3    0    0  0.18546584726E+02  0.48159933828E+01 -0.22095888835E+03  0.22178818710E+03  0.00000000000E+00 0.  1.
          3    1    3    3  501    0  0.19888780510E+02  0.15972799137E+01 -0.22352990050E+03  0.22441865187E+03  0.00000000000E+00 0.  1.
         -1    1    1    2    0  502 -0.38435365237E+02 -0.64132732965E+01 -0.55396778990E+03  0.55533658228E+03  0.00000000000E+00 0. -1.
<mgrwt>
<rscale>  1 0.30000000E+03</rscale>
<asrwt>0</asrwt>
<pdfrwt beam="1">  1       21 0.56124528E-02 0.30000000E+03</pdfrwt>
<pdfrwt beam="2">0</pdfrwt>
<totfact> 0.23638724E+04</totfact>
</mgrwt>
</event>
<event>
 6    1  0.8397183E-002  0.3000000E+03  0.7818608E-02  0.1093470E+00
         21   -1    0    0  501  502  0.00000000000E+00  0.00000000000E+00  0.21247974637E+01  0.21247974637E+01  0.00000000000E+00 0. -1.
         13   -1    0    0    0    0 -0.00000000000E+00 -0.00000000000E+00 -0.10000000000E+04  0.10000000000E+04  0.00000000000E+00 0.  1.
    9000005    2    1    2  501    0 -0.15555261806E+02  0.35280768485E+02 -0.22584960143E+03  0.22913694014E+03  0.29993464754E+01 0.  0.
         13    1    3    3    0    0 -0.74834800915E+01  0.16658315265E+02 -0.98161049592E+02  0.99845348408E+02  0.00000000000E+00 0.  1.
          3    1    3    3  501    0 -0.80717817146E+01  0.18622453220E+02 -0.12768855183E+03  0.12929159173E+03  0.00000000000E+00 0.  1.
         -1    1    1    2    0  502  0.15555261806E+02 -0.35280768485E+02 -0.77202560111E+03  0.77298785732E+03  0.00000000000E+00 0. -1.
<mgrwt>
<rscale>  1 0.30000000E+03</rscale>
<asrwt>0</asrwt>
<pdfrwt beam="1">  1       21 0.77265525E-02 0.30000000E+03</pdfrwt>
<pdfrwt beam="2">0</pdfrwt>
<totfact> 0.13577740E+04</totfact>
</mgrwt>
</event>
<event>
 6    1  0.8397183E-002  0.3000000E+03  0.7818608E-02  0.1093470E+00
         21   -1    0    0  501  502  0.00000000000E+00  0.00000000000E+00  0.16257851681E+01  0.16257851681E+01  0.00000000000E+00 0. -1.
         13   -1    0    0    0    0 -0.00000000000E+00 -0.00000000000E+00 -0.10000000000E+04  0.10000000000E+04  0.00000000000E+00 0.  1.
    9000005    2    1    2  501    0  0.55787936943E+01  0.38650845416E+02 -0.37939189889E+03  0.38141282316E+03  0.35380700026E+01 0.  0.
         13    1    3    3    0    0  0.84817825711E+00  0.13258906985E+02 -0.14183309837E+03  0.14245401298E+03  0.00000000000E+00 0.  1.
          1    1    3    3  501    0  0.47306154372E+01  0.25391938430E+02 -0.23755880051E+03  0.23895881018E+03  0.00000000000E+00 0.  1.
         -3    1    1    2    0  502 -0.55787936943E+01 -0.38650845416E+02 -0.61898231595E+03  0.62021296201E+03  0.00000000000E+00 0. -1.
<mgrwt>
<rscale>  1 0.30000000E+03</rscale>
<asrwt>0</asrwt>
<pdfrwt beam="1">  1       21 0.59119585E-02 0.30000000E+03</pdfrwt>
<pdfrwt beam="2">0</pdfrwt>
<totfact> 0.21615619E+04</totfact>
</mgrwt>
</event>
<event>
 6    1  0.8397183E-002  0.3000000E+03  0.7818608E-02  0.1093470E+00
         21   -1    0    0  501  502  0.00000000000E+00  0.00000000000E+00  0.69115263125E+01  0.69115263125E+01  0.00000000000E+00 0. -1.
         13   -1    0    0    0    0 -0.00000000000E+00 -0.00000000000E+00 -0.10000000000E+04  0.10000000000E+04  0.00000000000E+00 0.  1.
    9000005    2    1    2  501    0 -0.57659192578E+02 -0.31276798859E+02 -0.80571708022E+03  0.80838984053E+03  0.33615888840E+01 0.  0.
         13    1    3    3    0    0 -0.55211530098E+02 -0.30169611949E+02 -0.77973066647E+03  0.78226493643E+03  0.00000000000E+00 0.  1.
          3    1    3    3  501    0 -0.24476624804E+01 -0.11071869097E+01 -0.25986413749E+02  0.26124904095E+02  0.00000000000E+00 0.  1.
         -1    1    1    2    0  502  0.57659192578E+02  0.31276798859E+02 -0.18737139347E+03  0.19852168579E+03  0.00000000000E+00 0. -1.
<mgrwt>
<rscale>  1 0.30000000E+03</rscale>
<asrwt>0</asrwt>
<pdfrwt beam="1">  1       21 0.25132876E-01 0.30000000E+03</pdfrwt>
<pdfrwt beam="2">0</pdfrwt>
<totfact> 0.15434934E+03</totfact>
</mgrwt>
</event>
<event>
 6    1  0.8397183E-002  0.3000000E+03  0.7818608E-02  0.1093470E+00
         21   -1    0    0  501  502  0.00000000000E+00  0.00000000000E+00  0.14356293380E+01  0.14356293380E+01  0.00000000000E+00 0. -1.
         13   -1    0    0    0    0 -0.00000000000E+00 -0.00000000000E+00 -0.10000000000E+04  0.10000000000E+04  0.00000000000E+00 0.  1.
    9000005    2    1    2  501    0  0.34944448588E+02 -0.14328198246E+02 -0.52317674912E+03  0.52455010590E+03  0.35342643977E+01 0.  0.
         13    1    3    3    0    0  0.74009809519E+01 -0.18590062522E+01 -0.11855031861E+03  0.11879565845E+03  0.00000000000E+00 0.  1.
          1    1    3    3  501    0  0.27543467636E+02 -0.12469191994E+02 -0.40462643051E+03  0.40575444745E+03  0.00000000000E+00 0.  1.
         -1    1    1    2    0  502 -0.34944448588E+02  0.14328198246E+02 -0.47538762154E+03  0.47688552344E+03  0.00000000000E+00 0. -1.
<mgrwt>
<rscale>  1 0.30000000E+03</rscale>
<asrwt>0</asrwt>
<pdfrwt beam="1">  1       21 0.52204813E-02 0.30000000E+03</pdfrwt>
<pdfrwt beam="2">0</pdfrwt>
<totfact> 0.26759556E+04</totfact>
</mgrwt>
</event>
<event>
 6    1  0.8397183E-002  0.3000000E+03  0.7818608E-02  0.1093470E+00
         21   -1    0    0  501  502  0.00000000000E+00  0.00000000000E+00  0.16780322145E+01  0.16780322145E+01  0.00000000000E+00 0. -1.
         13   -1    0    0    0    0 -0.00000000000E+00 -0.00000000000E+00 -0.10000000000E+04  0.10000000000E+04  0.00000000000E+00 0.  1.
    9000005    2    1    2  501    0 -0.34139095020E+02 -0.97063156072E+01 -0.24988931878E+03  0.25240430355E+03  0.18895603131E+01 0.  0.
         13    1    3    3    0    0 -0.57299093427E+01 -0.11088627968E+01 -0.37699279261E+02  0.38148356381E+02  0.00000000000E+00 0.  1.
          3    1    3    3  501    0 -0.28409185677E+02 -0.85974528104E+01 -0.21219003952E+03  0.21425594717E+03  0.00000000000E+00 0.  1.
         -3    1    1    2    0  502  0.34139095020E+02  0.97063156072E+01 -0.74843264900E+03  0.74927372867E+03  0.00000000000E+00 0. -1.
<mgrwt>
<rscale>  1 0.30000000E+03</rscale>
<asrwt>0</asrwt>
<pdfrwt beam="1">  1       21 0.61019482E-02 0.30000000E+03</pdfrwt>
<pdfrwt beam="2">0</pdfrwt>
<totfact> 0.20467975E+04</totfact>
</mgrwt>
</event>
<event>
 6    1  0.8397183E-002  0.3000000E+03  0.7818608E-02  0.1093470E+00
         21   -1    0    0  501  502  0.00000000000E+00  0.00000000000E+00  0.23787227024E+01  0.23787227024E+01  0.00000000000E+00 0. -1.
         13   -1    0    0    0    0 -0.00000000000E+00 -0.00000000000E+00 -0.10000000000E+04  0.10000000000E+04  0.00000000000E+00 0.  1.
    9000005    2    1    2  501    0  0.29431142072E+02 -0.37495235830E+02 -0.39676096689E+03  0.39963068458E+03  0.36516269349E+01 0.  0.
         13    1    3    3    0    0  0.74337125187E+01 -0.11405845860E+02 -0.12287934686E+03  0.12363125530E+03  0.00000000000E+00 0.  1.
          1    1    3    3  501    0  0.21997429553E+02 -0.26089389970E+02 -0.27388162003E+03  0.27599942929E+03  0.00000000000E+00 0.  1.
         -3    1    1    2    0  502 -0.29431142072E+02  0.37495235830E+02 -0.60086031041E+03  0.60274803812E+03  0.00000000000E+00 0. -1.
<mgrwt>
<rscale>  1 0.30000000E+03</rscale>
<asrwt>0</asrwt>
<pdfrwt beam="1">  1       21 0.86499190E-02 0.30000000E+03</pdfrwt>
<pdfrwt beam="2">0</pdfrwt>
<totfact> 0.11132465E+04</totfact>
</mgrwt>
</event>
<event>
 6    1  0.8397183E-002  0.3000000E+03  0.7818608E-02  0.1093470E+00
         21   -1    0    0  501  502  0.00000000000E+00  0.00000000000E+00  0.13351766637E+01  0.13351766637E+01  0.00000000000E+00 0. -1.
         13   -1    0    0    0    0 -0.00000000000E+00 -0.00000000000E+00 -0.10000000000E+04  0.10000000000E+04  0.00000000000E+00 0.  1.
    9000005    2    1    2  501    0  0.27814348296E+02 -0.15025414053E+02 -0.25050899910E+03  0.25251174061E+03  0.28318685111E+01 0.  0.
         13    1    3    3    0    0  0.63478907734E+01 -0.24775266257E+01 -0.47730986733E+02  0.48214945296E+02  0.00000000000E+00 0.  1.
          3    1    3    3  501    0  0.21466457523E+02 -0.12547887427E+02 -0.20277801237E+03  0.20429679532E+03  0.00000000000E+00 0.  1.
         -1    1    1    2    0  502 -0.27814348296E+02  0.15025414053E+02 -0.74815582424E+03  0.74882343605E+03  0.00000000000E+00 0. -1.
<mgrwt>
<rscale>  1 0.30000000E+03</rscale>
<asrwt>0</asrwt>
<pdfrwt beam="1">  1       21 0.48551981E-02 0.30000000E+03</pdfrwt>
<pdfrwt beam="2">0</pdfrwt>
<totfact> 0.30283432E+04</totfact>
</mgrwt>
</event>
<event>
 6    1  0.8397183E-002  0.3000000E+03  0.7818608E-02  0.1093470E+00
         21   -1    0    0  501  502  0.00000000000E+00  0.00000000000E+00  0.21618833815E+01  0.21618833815E+01  0.00000000000E+00 0. -1.
         13   -1    0    0    0    0 -0.00000000000E+00 -0.00000000000E+00 -0.10000000000E+04  0.10000000000E+04  0.00000000000E+00 0.  1.
    9000005    2    1    2  501    0 -0.37737040826E+02 -0.23816166478E+02 -0.36965972249E+03  0.37240050883E+03  0.65218482182E+01 0.  0.
         13    1    3    3    0    0 -0.11298399610E+02 -0.51835793176E+01 -0.12374585320E+03  0.12436864360E+03  0.00000000000E+00 0.  1.
          3    1    3    3  501    0 -0.26438641216E+02 -0.18632587160E+02 -0.24591386930E+03  0.24803186522E+03  0.00000000000E+00 0.  1.
         -1    1    1    2    0  502  0.37737040826E+02  0.23816166478E+02 -0.62817839412E+03  0.62976137455E+03  0.00000000000E+00 0. -1.
<mgrwt>
<rscale>  1 0.30000000E+03</rscale>
<asrwt>0</asrwt>
<pdfrwt beam="1">  1       21 0.78614107E-02 0.30000000E+03</pdfrwt>
<pdfrwt beam="2">0</pdfrwt>
<totfact> 0.13171846E+04</totfact>
</mgrwt>
</event>
<event>
 6    1  0.8397183E-002  0.3000000E+03  0.7818608E-02  0.1093470E+00
         21   -1    0    0  501  502  0.00000000000E+00  0.00000000000E+00  0.15100630218E+01  0.15100630218E+01  0.00000000000E+00 0. -1.
         13   -1    0    0    0    0 -0.00000000000E+00 -0.00000000000E+00 -0.10000000000E+04  0.10000000000E+04  0.00000000000E+00 0.  1.
    9000005    2    1    2  501    0 -0.41303544783E+01 -0.30559659723E+02 -0.80273782652E+03  0.80334386666E+03  0.47325837118E+01 0.  0.
         13    1    3    3    0    0 -0.12821455960E+00 -0.14910926677E+02 -0.34822055094E+03  0.34853967389E+03  0.00000000000E+00 0.  1.
          3    1    3    3  501    0 -0.40021399188E+01 -0.15648733046E+02 -0.45451727557E+03  0.45480419277E+03  0.00000000000E+00 0.  1.
         -1    1    1    2    0  502  0.41303544783E+01  0.30559659723E+02 -0.19575211046E+03  0.19816619636E+03  0.00000000000E+00 0. -1.
<mgrwt>
<rscale>  1 0.30000000E+03</rscale>
<asrwt>0</asrwt>
<pdfrwt beam="1">  1       21 0.54911498E-02 0.30000000E+03</pdfrwt>
<pdfrwt beam="2">0</pdfrwt>
<totfact> 0.24541820E+04</totfact>
</mgrwt>
</event>
<event>
 6    1  0.8397183E-002  0.3000000E+03  0.7818608E-02  0.1093470E+00
         21   -1    0    0  501  502  0.00000000000E+00  0.00000000000E+00  0.48032590941E+01  0.48032590941E+01  0.00000000000E+00 0. -1.
         13   -1    0    0    0    0 -0.00000000000E+00 -0.00000000000E+00 -0.10000000000E+04  0.10000000000E+04  0.00000000000E+00 0.  1.
    9000005    2    1    2  501    0  0.54540371041E+02  0.40142673726E+02 -0.39253964951E+03  0.39835321487E+03  0.34381730971E+01 0.  0.
         13    1    3    3    0    0  0.11063660630E+02  0.99032074464E+01 -0.86541492769E+02  0.87806082221E+02  0.00000000000E+00 0.  1.
          3    1    3    3  501    0  0.43476710411E+02  0.30239466280E+02 -0.30599815674E+03  0.31054713265E+03  0.00000000000E+00 0.  1.
         -3    1    1    2    0  502 -0.54540371041E+02 -0.40142673726E+02 -0.60265709139E+03  0.60645004422E+03  0.00000000000E+00 0. -1.
<mgrwt>
<rscale>  1 0.30000000E+03</rscale>
<asrwt>0</asrwt>
<pdfrwt beam="1">  1       21 0.17466434E-01 0.30000000E+03</pdfrwt>
<pdfrwt beam="2">0</pdfrwt>
<totfact> 0.31001012E+03</totfact>
</mgrwt>
</event>
<event>
 6    1  0.8397183E-002  0.3000000E+03  0.7818608E-02  0.1093470E+00
         21   -1    0    0  501  502  0.00000000000E+00  0.00000000000E+00  0.57778130003E+01  0.57778130003E+01  0.00000000000E+00 0. -1.
         13   -1    0    0    0    0 -0.00000000000E+00 -0.00000000000E+00 -0.10000000000E+04  0.10000000000E+04  0.00000000000E+00 0.  1.
    9000005    2    1    2  501    0 -0.73865514128E+02  0.16450280779E+02 -0.45316109197E+03  0.45945022403E+03  0.35787107942E+01 0.  0.
         13    1    3    3    0    0 -0.84094795067E+01  0.30454270628E+01 -0.52659428219E+02  0.53413568987E+02  0.00000000000E+00 0.  1.
          1    1    3    3  501    0 -0.65456034621E+02  0.13404853716E+02 -0.40050166375E+03  0.40603665504E+03  0.00000000000E+00 0.  1.
         -1    1    1    2    0  502  0.73865514128E+02 -0.16450280779E+02 -0.54106109503E+03  0.54632758897E+03  0.00000000000E+00 0. -1.
<mgrwt>
<rscale>  1 0.30000000E+03</rscale>
<asrwt>0</asrwt>
<pdfrwt beam="1">  1       21 0.21010273E-01 0.30000000E+03</pdfrwt>
<pdfrwt beam="2">0</pdfrwt>
<totfact> 0.21833748E+03</totfact>
</mgrwt>
</event>
<event>
 6    1  0.8397183E-002  0.3000000E+03  0.7818608E-02  0.1093470E+00
         21   -1    0    0  501  502  0.00000000000E+00  0.00000000000E+00  0.32697946684E+01  0.32697946684E+01  0.00000000000E+00 0. -1.
         13   -1    0    0    0    0 -0.00000000000E+00 -0.00000000000E+00 -0.10000000000E+04  0.10000000000E+04  0.00000000000E+00 0.  1.
    9000005    2    1    2  501    0  0.38715705706E+02 -0.41710604928E+02 -0.45497045265E+03  0.45852920497E+03  0.34983711290E+01 0.  0.
         13    1    3    3    0    0  0.33703422402E+02 -0.35952967763E+02 -0.40275139202E+03  0.40575512362E+03  0.00000000000E+00 0.  1.
          3    1    3    3  501    0  0.50122833040E+01 -0.57576371646E+01 -0.52219060627E+02  0.52774081351E+02  0.00000000000E+00 0.  1.
         -1    1    1    2    0  502 -0.38715705706E+02  0.41710604928E+02 -0.54175975268E+03  0.54474058969E+03  0.00000000000E+00 0. -1.
<mgrwt>
<rscale>  1 0.30000000E+03</rscale>
<asrwt>0</asrwt>
<pdfrwt beam="1">  1       21 0.11890188E-01 0.30000000E+03</pdfrwt>
<pdfrwt beam="2">0</pdfrwt>
<totfact> 0.63013299E+03</totfact>
</mgrwt>
</event>
<event>
 6    1  0.8397183E-002  0.3000000E+03  0.7818608E-02  0.1093470E+00
         21   -1    0    0  501  502  0.00000000000E+00  0.00000000000E+00  0.11629645505E+01  0.11629645505E+01  0.00000000000E+00 0. -1.
         13   -1    0    0    0    0 -0.00000000000E+00 -0.00000000000E+00 -0.10000000000E+04  0.10000000000E+04  0.00000000000E+00 0.  1.
    9000005    2    1    2  501    0 -0.56503187347E+01  0.33163345851E+02 -0.42869884479E+03  0.43003312812E+03  0.37494197829E+01 0.  0.
         13    1    3    3    0    0 -0.52033128128E+01  0.19945447727E+02 -0.26648870418E+03  0.26728472610E+03  0.00000000000E+00 0.  1.
          1    1    3    3  501    0 -0.44700592194E+00  0.13217898124E+02 -0.16221014061E+03  0.16274840202E+03  0.00000000000E+00 0.  1.
         -1    1    1    2    0  502  0.56503187347E+01 -0.33163345851E+02 -0.57013819066E+03  0.57112983643E+03  0.00000000000E+00 0. -1.
<mgrwt>
<rscale>  1 0.30000000E+03</rscale>
<asrwt>0</asrwt>
<pdfrwt beam="1">  1       21 0.42289709E-02 0.30000000E+03</pdfrwt>
<pdfrwt beam="2">0</pdfrwt>
<totfact> 0.38279427E+04</totfact>
</mgrwt>
</event>
<event>
 6    1  0.8397183E-002  0.3000000E+03  0.7818608E-02  0.1093470E+00
         21   -1    0    0  501  502  0.00000000000E+00  0.00000000000E+00  0.25001019153E+01  0.25001019153E+01  0.00000000000E+00 0. -1.
         13   -1    0    0    0    0 -0.00000000000E+00 -0.00000000000E+00 -0.10000000000E+04  0.10000000000E+04  0.00000000000E+00 0.  1.
    9000005    2    1    2  501    0  0.63481480558E+01 -0.49508083876E+02 -0.48702568037E+03  0.48959145868E+03  0.37991737063E+01 0.  0.
         13    1    3    3    0    0  0.29225714674E+01 -0.28920174885E+02 -0.29995864169E+03  0.30136374145E+03  0.00000000000E+00 0.  1.
          3    1    3    3  501    0  0.34255765884E+01 -0.20587908991E+02 -0.18706703868E+03  0.18822771722E+03  0.00000000000E+00 0.  1.
         -1    1    1    2    0  502 -0.63481480558E+01  0.49508083876E+02 -0.51047421772E+03  0.51290864324E+03  0.00000000000E+00 0. -1.
<mgrwt>
<rscale>  1 0.30000000E+03</rscale>
<asrwt>0</asrwt>
<pdfrwt beam="1">  1       21 0.90912989E-02 0.30000000E+03</pdfrwt>
<pdfrwt beam="2">0</pdfrwt>
<totfact> 0.10194076E+04</totfact>
</mgrwt>
</event>
<event>
 6    1  0.8397183E-002  0.3000000E+03  0.7818608E-02  0.1093470E+00
         21   -1    0    0  501  502  0.00000000000E+00  0.00000000000E+00  0.18329756492E+01  0.18329756492E+01  0.00000000000E+00 0. -1.
         13   -1    0    0    0    0 -0.00000000000E+00 -0.00000000000E+00 -0.10000000000E+04  0.10000000000E+04  0.00000000000E+00 0.  1.
    9000005    2    1    2  501    0 -0.17658376260E+02  0.37727746592E+02 -0.38763307720E+03  0.38987962634E+03  0.33940205395E+01 0.  0.
         13    1    3    3    0    0 -0.91941165520E+01  0.15679970097E+02 -0.16940335683E+03  0.17037573345E+03  0.00000000000E+00 0.  1.
          1    1    3    3  501    0 -0.84642597080E+01  0.22047776495E+02 -0.21822972037E+03  0.21950389289E+03  0.00000000000E+00 0.  1.
         -3    1    1    2    0  502  0.17658376260E+02 -0.37727746592E+02 -0.61053394715E+03  0.61195334931E+03  0.00000000000E+00 0. -1.
<mgrwt>
<rscale>  1 0.30000000E+03</rscale>
<asrwt>0</asrwt>
<pdfrwt beam="1">  1       21 0.66653801E-02 0.30000000E+03</pdfrwt>
<pdfrwt beam="2">0</pdfrwt>
<totfact> 0.17568328E+04</totfact>
</mgrwt>
</event>
<event>
 6    1  0.8397183E-002  0.3000000E+03  0.7818608E-02  0.1093470E+00
         21   -1    0    0  501  502  0.00000000000E+00  0.00000000000E+00  0.17227583003E+01  0.17227583003E+01  0.00000000000E+00 0. -1.
         13   -1    0    0    0    0 -0.00000000000E+00 -0.00000000000E+00 -0.10000000000E+04  0.10000000000E+04  0.00000000000E+00 0.  1.
    9000005    2    1    2  501    0 -0.22622623033E+02  0.30940819287E+02 -0.68715853703E+03  0.68825192111E+03  0.58936009839E+01 0.  0.
         13    1    3    3    0    0 -0.22114490505E+02  0.30124572145E+02 -0.68038141820E+03  0.68140693772E+03  0.00000000000E+00 0.  1.
          1    1    3    3  501    0 -0.50813252841E+00  0.81624714248E+00 -0.67771188236E+01  0.68449833903E+01  0.00000000000E+00 0.  1.
         -3    1    1    2    0  502  0.22622623033E+02 -0.30940819287E+02 -0.31111870467E+03  0.31347083719E+03  0.00000000000E+00 0. -1.
<mgrwt>
<rscale>  1 0.30000000E+03</rscale>
<asrwt>0</asrwt>
<pdfrwt beam="1">  1       21 0.62645888E-02 0.30000000E+03</pdfrwt>
<pdfrwt beam="2">0</pdfrwt>
<totfact> 0.19559015E+04</totfact>
</mgrwt>
</event>
<event>
 6    1  0.8397183E-002  0.3000000E+03  0.7818608E-02  0.1093470E+00
         21   -1    0    0  501  502  0.00000000000E+00  0.00000000000E+00  0.18629662748E+01  0.18629662748E+01  0.00000000000E+00 0. -1.
         13   -1    0    0    0    0 -0.00000000000E+00 -0.00000000000E+00 -0.10000000000E+04  0.10000000000E+04  0.00000000000E+00 0.  1.
    9000005    2    1    2  501    0  0.18058969816E+02 -0.36603868010E+02 -0.33927548693E+03  0.34173835123E+03  0.33578452839E+01 0.  0.
         13    1    3    3    0    0  0.40826470613E+01 -0.10678050707E+02 -0.10403029260E+03  0.10465653612E+03  0.00000000000E+00 0.  1.
          1    1    3    3  501    0  0.13976322755E+02 -0.25925817303E+02 -0.23524519433E+03  0.23708181511E+03  0.00000000000E+00 0.  1.
         -3    1    1    2    0  502 -0.18058969816E+02  0.36603868010E+02 -0.65886154679E+03  0.66012461505E+03  0.00000000000E+00 0. -1.
<mgrwt>
<rscale>  1 0.30000000E+03</rscale>
<asrwt>0</asrwt>
<pdfrwt beam="1">  1       21 0.67744371E-02 0.30000000E+03</pdfrwt>
<pdfrwt beam="2">0</pdfrwt>
<totfact> 0.17080527E+04</totfact>
</mgrwt>
</event>
<event>
 6    1  0.8397183E-002  0.3000000E+03  0.7818608E-02  0.1093470E+00
         21   -1    0    0  501  502  0.00000000000E+00  0.00000000000E+00  0.13831466449E+01  0.13831466449E+01  0.00000000000E+00 0. -1.
         13   -1    0    0    0    0 -0.00000000000E+00 -0.00000000000E+00 -0.10000000000E+04  0.10000000000E+04  0.00000000000E+00 0.  1.
    9000005    2    1    2  501    0 -0.27452394825E+02  0.22108247024E+02 -0.65626902927E+03  0.65722556468E+03  0.37410589200E+01 0.  0.
         13    1    3    3    0    0 -0.17921231357E+02  0.16252447440E+02 -0.42963827807E+03  0.43031890798E+03  0.00000000000E+00 0.  1.
          3    1    3    3  501    0 -0.95311634682E+01  0.58557995842E+01 -0.22663075120E+03  0.22690665670E+03  0.00000000000E+00 0.  1.
         -1    1    1    2    0  502  0.27452394825E+02 -0.22108247024E+02 -0.34234782409E+03  0.34415758197E+03  0.00000000000E+00 0. -1.
<mgrwt>
<rscale>  1 0.30000000E+03</rscale>
<asrwt>0</asrwt>
<pdfrwt beam="1">  1       21 0.50296348E-02 0.30000000E+03</pdfrwt>
<pdfrwt beam="2">0</pdfrwt>
<totfact> 0.28515892E+04</totfact>
</mgrwt>
</event>
<event>
 6    1  0.8397183E-002  0.3000000E+03  0.7818608E-02  0.1093470E+00
         21   -1    0    0  501  502  0.00000000000E+00  0.00000000000E+00  0.13188921624E+01  0.13188921624E+01  0.00000000000E+00 0. -1.
         13   -1    0    0    0    0 -0.00000000000E+00 -0.00000000000E+00 -0.10000000000E+04  0.10000000000E+04  0.00000000000E+00 0.  1.
    9000005    2    1    2  501    0 -0.30429256493E+02  0.19232413405E+02 -0.52027494821E+03  0.52156032898E+03  0.65825265586E+01 0.  0.
         13    1    3    3    0    0 -0.11891104838E+02  0.43840391862E+01 -0.15786686085E+03  0.15837475786E+03  0.00000000000E+00 0.  1.
          3    1    3    3  501    0 -0.18538151655E+02  0.14848374219E+02 -0.36240808736E+03  0.36318557111E+03  0.00000000000E+00 0.  1.
         -1    1    1    2    0  502  0.30429256493E+02 -0.19232413405E+02 -0.47840615963E+03  0.47975856318E+03  0.00000000000E+00 0. -1.
<mgrwt>
<rscale>  1 0.30000000E+03</rscale>
<asrwt>0</asrwt>
<pdfrwt beam="1">  1       21 0.47959816E-02 0.30000000E+03</pdfrwt>
<pdfrwt beam="2">0</pdfrwt>
<totfact> 0.30922578E+04</totfact>
</mgrwt>
</event>
<event>
 6    1  0.8397183E-002  0.3000000E+03  0.7818608E-02  0.1093470E+00
         21   -1    0    0  501  502  0.00000000000E+00  0.00000000000E+00  0.18063966261E+01  0.18063966261E+01  0.00000000000E+00 0. -1.
         13   -1    0    0    0    0 -0.00000000000E+00 -0.00000000000E+00 -0.10000000000E+04  0.10000000000E+04  0.00000000000E+00 0.  1.
    9000005    2    1    2  501    0 -0.36587272457E+02  0.19700412809E+02 -0.39786636339E+03  0.40004271390E+03  0.31297066491E+01 0.  0.
         13    1    3    3    0    0 -0.16501474679E+02  0.71872205822E+01 -0.17582607629E+03  0.17674491198E+03  0.00000000000E+00 0.  1.
          3    1    3    3  501    0 -0.20085797778E+02  0.12513192227E+02 -0.22204028710E+03  0.22329780193E+03  0.00000000000E+00 0.  1.
         -3    1    1    2    0  502  0.36587272457E+02 -0.19700412809E+02 -0.60032723999E+03  0.60176368272E+03  0.00000000000E+00 0. -1.
<mgrwt>
<rscale>  1 0.30000000E+03</rscale>
<asrwt>0</asrwt>
<pdfrwt beam="1">  1       21 0.65687289E-02 0.30000000E+03</pdfrwt>
<pdfrwt beam="2">0</pdfrwt>
<totfact> 0.18018792E+04</totfact>
</mgrwt>
</event>
<event>
 6    1  0.8397183E-002  0.3000000E+03  0.7818608E-02  0.1093470E+00
         21   -1    0    0  501  502  0.00000000000E+00  0.00000000000E+00  0.12047868717E+01  0.12047868717E+01  0.00000000000E+00 0. -1.
         13   -1    0    0    0    0 -0.00000000000E+00 -0.00000000000E+00 -0.10000000000E+04  0.10000000000E+04  0.00000000000E+00 0.  1.
    9000005    2    1    2  501    0 -0.56041506924E+01 -0.32781867876E+02 -0.63942652485E+03  0.64030049003E+03  0.35184485177E+01 0.  0.
         13    1    3    3    0    0 -0.21379905232E+01 -0.21047003600E+02 -0.38770571866E+03  0.38828246373E+03  0.00000000000E+00 0.  1.
          1    1    3    3  501    0 -0.34661601692E+01 -0.11734864277E+02 -0.25172080619E+03  0.25201802629E+03  0.00000000000E+00 0.  1.
         -3    1    1    2    0  502  0.56041506924E+01  0.32781867876E+02 -0.35936868828E+03  0.36090429685E+03  0.00000000000E+00 0. -1.
<mgrwt>
<rscale>  1 0.30000000E+03</rscale>
<asrwt>0</asrwt>
<pdfrwt beam="1">  1       21 0.43810524E-02 0.30000000E+03</pdfrwt>
<pdfrwt beam="2">0</pdfrwt>
<totfact> 0.36059008E+04</totfact>
</mgrwt>
</event>
<event>
 6    1  0.1273692E-001  0.3000000E+03  0.7818608E-02  0.1093470E+00
         21   -1    0    0  501  502  0.00000000000E+00  0.00000000000E+00  0.16992503913E+01  0.16992503913E+01  0.00000000000E+00 0. -1.
         13   -1    0    0    0    0 -0.00000000000E+00 -0.00000000000E+00 -0.10000000000E+04  0.10000000000E+04  0.00000000000E+00 0.  1.
    9000005    2    1    2  501    0  0.32035844071E+02 -0.22659381786E+02 -0.63269873230E+03  0.63399749904E+03  0.10266452357E+02 0.  0.
         13    1    3    3    0    0  0.18267340615E+02 -0.82550268333E+01 -0.37105446404E+03  0.37159555499E+03  0.00000000000E+00 0.  1.
          3    1    3    3  501    0  0.13768503455E+02 -0.14404354952E+02 -0.26164426826E+03  0.26240194405E+03  0.00000000000E+00 0.  1.
         -3    1    1    2    0  502 -0.32035844071E+02  0.22659381786E+02 -0.36560201731E+03  0.36770175135E+03  0.00000000000E+00 0. -1.
<mgrwt>
<rscale>  1 0.30000000E+03</rscale>
<asrwt>0</asrwt>
<pdfrwt beam="1">  1       21 0.61791054E-02 0.30000000E+03</pdfrwt>
<pdfrwt beam="2">0</pdfrwt>
<totfact> 0.20028765E+04</totfact>
</mgrwt>
</event>
<event>
 6    1  0.8397183E-002  0.3000000E+03  0.7818608E-02  0.1093470E+00
         21   -1    0    0  501  502  0.00000000000E+00  0.00000000000E+00  0.11085664566E+01  0.11085664566E+01  0.00000000000E+00 0. -1.
         13   -1    0    0    0    0 -0.00000000000E+00 -0.00000000000E+00 -0.10000000000E+04  0.10000000000E+04  0.00000000000E+00 0.  1.
    9000005    2    1    2  501    0 -0.32102035857E+02  0.67676493940E+01 -0.57261901350E+03  0.57357550590E+03  0.44704088400E+01 0.  0.
         13    1    3    3    0    0 -0.35557873094E+01  0.22369797672E+01 -0.76486754783E+02  0.76602032343E+02  0.00000000000E+00 0.  1.
          1    1    3    3  501    0 -0.28546248548E+02  0.45306696268E+01 -0.49613225872E+03  0.49697347356E+03  0.00000000000E+00 0.  1.
         -1    1    1    2    0  502  0.32102035857E+02 -0.67676493940E+01 -0.42627242004E+03  0.42753306056E+03  0.00000000000E+00 0. -1.
<mgrwt>
<rscale>  1 0.30000000E+03</rscale>
<asrwt>0</asrwt>
<pdfrwt beam="1">  1       21 0.40311593E-02 0.30000000E+03</pdfrwt>
<pdfrwt beam="2">0</pdfrwt>
<totfact> 0.41501339E+04</totfact>
</mgrwt>
</event>
<event>
 6    1  0.8397183E-002  0.3000000E+03  0.7818608E-02  0.1093470E+00
         21   -1    0    0  501  502  0.00000000000E+00  0.00000000000E+00  0.19500301625E+01  0.19500301625E+01  0.00000000000E+00 0. -1.
         13   -1    0    0    0    0 -0.00000000000E+00 -0.00000000000E+00 -0.10000000000E+04  0.10000000000E+04  0.00000000000E+00 0.  1.
    9000005    2    1    2  501    0 -0.37262706023E+02  0.18900008871E+02 -0.65960258278E+03  0.66093338335E+03  0.34132717649E+01 0.  0.
         13    1    3    3    0    0 -0.20904961312E+02  0.11889878728E+02 -0.39841493036E+03  0.39914012998E+03  0.00000000000E+00 0.  1.
          1    1    3    3  501    0 -0.16357744711E+02  0.70101301434E+01 -0.26118765242E+03  0.26179325337E+03  0.00000000000E+00 0.  1.
         -1    1    1    2    0  502  0.37262706023E+02 -0.18900008871E+02 -0.33844738706E+03  0.34101664681E+03  0.00000000000E+00 0. -1.
<mgrwt>
<rscale>  1 0.30000000E+03</rscale>
<asrwt>0</asrwt>
<pdfrwt beam="1">  1       21 0.70910337E-02 0.30000000E+03</pdfrwt>
<pdfrwt beam="2">0</pdfrwt>
<totfact> 0.15776316E+04</totfact>
</mgrwt>
</event>
<event>
 6    1  0.8397183E-002  0.3000000E+03  0.7818608E-02  0.1093470E+00
         21   -1    0    0  501  502  0.00000000000E+00  0.00000000000E+00  0.13855448162E+01  0.13855448162E+01  0.00000000000E+00 0. -1.
         13   -1    0    0    0    0 -0.00000000000E+00 -0.00000000000E+00 -0.10000000000E+04  0.10000000000E+04  0.00000000000E+00 0.  1.
    9000005    2    1    2  501    0 -0.21016610717E+01 -0.36157228478E+02 -0.61037704123E+03  0.61146240913E+03  0.37925145752E+01 0.  0.
         13    1    3    3    0    0 -0.25413126109E+01 -0.35465057607E+02 -0.59165636119E+03  0.59272377910E+03  0.00000000000E+00 0.  1.
          3    1    3    3  501    0  0.43965153918E+00 -0.69217087106E+00 -0.18720680041E+02  0.18738630024E+02  0.00000000000E+00 0.  1.
         -3    1    1    2    0  502  0.21016610717E+01  0.36157228478E+02 -0.38823741395E+03  0.38992313569E+03  0.00000000000E+00 0. -1.
<mgrwt>
<rscale>  1 0.30000000E+03</rscale>
<asrwt>0</asrwt>
<pdfrwt beam="1">  1       21 0.50383554E-02 0.30000000E+03</pdfrwt>
<pdfrwt beam="2">0</pdfrwt>
<totfact> 0.28431775E+04</totfact>
</mgrwt>
</event>
<event>
 6    1  0.8397183E-002  0.3000000E+03  0.7818608E-02  0.1093470E+00
         21   -1    0    0  501  502  0.00000000000E+00  0.00000000000E+00  0.32347794034E+01  0.32347794034E+01  0.00000000000E+00 0. -1.
         13   -1    0    0    0    0 -0.00000000000E+00 -0.00000000000E+00 -0.10000000000E+04  0.10000000000E+04  0.00000000000E+00 0.  1.
    9000005    2    1    2  501    0  0.43383530229E+02 -0.33215280296E+02 -0.63652817233E+03  0.63887765174E+03  0.33397865380E+01 0.  0.
         13    1    3    3    0    0  0.26512097805E+02 -0.18317284373E+02 -0.38030369532E+03  0.38166649698E+03  0.00000000000E+00 0.  1.
          1    1    3    3  501    0  0.16871432423E+02 -0.14897995923E+02 -0.25622447701E+03  0.25721115476E+03  0.00000000000E+00 0.  1.
         -1    1    1    2    0  502 -0.43383530229E+02  0.33215280296E+02 -0.36023704826E+03  0.36435712767E+03  0.00000000000E+00 0. -1.
<mgrwt>
<rscale>  1 0.30000000E+03</rscale>
<asrwt>0</asrwt>
<pdfrwt beam="1">  1       21 0.11762859E-01 0.30000000E+03</pdfrwt>
<pdfrwt beam="2">0</pdfrwt>
<totfact> 0.64254630E+03</totfact>
</mgrwt>
</event>
<event>
 6    1  0.8397183E-002  0.3000000E+03  0.7818608E-02  0.1093470E+00
         21   -1    0    0  501  502  0.00000000000E+00  0.00000000000E+00  0.12608447927E+01  0.12608447927E+01  0.00000000000E+00 0. -1.
         13   -1    0    0    0    0 -0.00000000000E+00 -0.00000000000E+00 -0.10000000000E+04  0.10000000000E+04  0.00000000000E+00 0.  1.
    9000005    2    1    2  501    0 -0.64669773295E+01 -0.33492366537E+02 -0.36500293331E+03  0.36660727050E+03  0.31920291236E+01 0.  0.
         13    1    3    3    0    0 -0.41255609809E+01 -0.27344431774E+02 -0.28889689998E+03  0.29021743060E+03  0.00000000000E+00 0.  1.
          1    1    3    3  501    0 -0.23414163486E+01 -0.61479347631E+01 -0.76106033322E+02  0.76389839903E+02  0.00000000000E+00 0.  1.
         -1    1    1    2    0  502  0.64669773295E+01  0.33492366537E+02 -0.63373622190E+03  0.63465357429E+03  0.00000000000E+00 0. -1.
<mgrwt>
<rscale>  1 0.30000000E+03</rscale>
<asrwt>0</asrwt>
<pdfrwt beam="1">  1       21 0.45848998E-02 0.30000000E+03</pdfrwt>
<pdfrwt beam="2">0</pdfrwt>
<totfact> 0.33381734E+04</totfact>
</mgrwt>
</event>
<event>
 6    1  0.8397183E-002  0.3000000E+03  0.7818608E-02  0.1093470E+00
         21   -1    0    0  501  502  0.00000000000E+00  0.00000000000E+00  0.48859956793E+01  0.48859956793E+01  0.00000000000E+00 0. -1.
         13   -1    0    0    0    0 -0.00000000000E+00 -0.00000000000E+00 -0.10000000000E+04  0.10000000000E+04  0.00000000000E+00 0.  1.
    9000005    2    1    2  501    0 -0.59306374613E+02 -0.14298672525E+02 -0.25298875772E+03  0.26025751130E+03  0.29937518285E+01 0.  0.
         13    1    3    3    0    0 -0.54044016192E+02 -0.12694648010E+02 -0.23335180659E+03  0.23986449385E+03  0.00000000000E+00 0.  1.
          3    1    3    3  501    0 -0.52623584207E+01 -0.16040245152E+01 -0.19636951134E+02  0.20393017448E+02  0.00000000000E+00 0.  1.
         -3    1    1    2    0  502  0.59306374613E+02  0.14298672525E+02 -0.74212524660E+03  0.74462848438E+03  0.00000000000E+00 0. -1.
<mgrwt>
<rscale>  1 0.30000000E+03</rscale>
<asrwt>0</asrwt>
<pdfrwt beam="1">  1       21 0.17767294E-01 0.30000000E+03</pdfrwt>
<pdfrwt beam="2">0</pdfrwt>
<totfact> 0.30021853E+03</totfact>
</mgrwt>
</event>
<event>
 6    1  0.8397183E-002  0.3000000E+03  0.7818608E-02  0.1093470E+00
         21   -1    0    0  501  502  0.00000000000E+00  0.00000000000E+00  0.16424499371E+01  0.16424499371E+01  0.00000000000E+00 0. -1.
         13   -1    0    0    0    0 -0.00000000000E+00 -0.00000000000E+00 -0.10000000000E+04  0.10000000000E+04  0.00000000000E+00 0.  1.
    9000005    2    1    2  501    0 -0.69750857493E+01  0.39618481141E+02 -0.55198790437E+03  0.55346376184E+03  0.36350006066E+01 0.  0.
         13    1    3    3    0    0 -0.49657379976E+00  0.98542244395E+01 -0.12211972107E+03  0.12251766648E+03  0.00000000000E+00 0.  1.
          1    1    3    3  501    0 -0.64785119495E+01  0.29764256701E+02 -0.42986818330E+03  0.43094609536E+03  0.00000000000E+00 0.  1.
         -1    1    1    2    0  502  0.69750857493E+01 -0.39618481141E+02 -0.44636964569E+03  0.44817868810E+03  0.00000000000E+00 0. -1.
<mgrwt>
<rscale>  1 0.30000000E+03</rscale>
<asrwt>0</asrwt>
<pdfrwt beam="1">  1       21 0.59725578E-02 0.30000000E+03</pdfrwt>
<pdfrwt beam="2">0</pdfrwt>
<totfact> 0.21238905E+04</totfact>
</mgrwt>
</event>
<event>
 6    1  0.8397183E-002  0.3000000E+03  0.7818608E-02  0.1093470E+00
         21   -1    0    0  501  502  0.00000000000E+00  0.00000000000E+00  0.11205654823E+01  0.11205654823E+01  0.00000000000E+00 0. -1.
         13   -1    0    0    0    0 -0.00000000000E+00 -0.00000000000E+00 -0.10000000000E+04  0.10000000000E+04  0.00000000000E+00 0.  1.
    9000005    2    1    2  501    0  0.24841387553E+02 -0.18888074506E+02 -0.67859121188E+03  0.67931565648E+03  0.31423575873E+01 0.  0.
         13    1    3    3    0    0  0.20742167709E+02 -0.17138076760E+02 -0.58399816973E+03  0.58461766433E+03  0.00000000000E+00 0.  1.
          3    1    3    3  501    0  0.40992198446E+01 -0.17499977460E+01 -0.94593042147E+02  0.94697992154E+02  0.00000000000E+00 0.  1.
         -3    1    1    2    0  502 -0.24841387553E+02  0.18888074506E+02 -0.32028822264E+03  0.32180490900E+03  0.00000000000E+00 0. -1.
<mgrwt>
<rscale>  1 0.30000000E+03</rscale>
<asrwt>0</asrwt>
<pdfrwt beam="1">  1       21 0.40747922E-02 0.30000000E+03</pdfrwt>
<pdfrwt beam="2">0</pdfrwt>
<totfact> 0.40755200E+04</totfact>
</mgrwt>
</event>
<event>
 6    1  0.8397183E-002  0.3000000E+03  0.7818608E-02  0.1093470E+00
         21   -1    0    0  501  502  0.00000000000E+00  0.00000000000E+00  0.39095534280E+01  0.39095534280E+01  0.00000000000E+00 0. -1.
         13   -1    0    0    0    0 -0.00000000000E+00 -0.00000000000E+00 -0.10000000000E+04  0.10000000000E+04  0.00000000000E+00 0.  1.
    9000005    2    1    2  501    0  0.37984057466E+02  0.31268125094E+02 -0.19158897240E+03  0.19790514512E+03  0.62950655967E+01 0.  0.
         13    1    3    3    0    0  0.28268532258E+02  0.20570956976E+02 -0.12742368596E+03  0.13213277387E+03  0.00000000000E+00 0.  1.
          3    1    3    3  501    0  0.97155252079E+01  0.10697168119E+02 -0.64165286444E+02  0.65772371253E+02  0.00000000000E+00 0.  1.
         -1    1    1    2    0  502 -0.37984057466E+02 -0.31268125094E+02 -0.80450147417E+03  0.80600440831E+03  0.00000000000E+00 0. -1.
<mgrwt>
<rscale>  1 0.30000000E+03</rscale>
<asrwt>0</asrwt>
<pdfrwt beam="1">  1       21 0.14216588E-01 0.30000000E+03</pdfrwt>
<pdfrwt beam="2">0</pdfrwt>
<totfact> 0.45465103E+03</totfact>
</mgrwt>
</event>
<event>
 6    1  0.8397183E-002  0.3000000E+03  0.7818608E-02  0.1093470E+00
         21   -1    0    0  501  502  0.00000000000E+00  0.00000000000E+00  0.36527101039E+01  0.36527101039E+01  0.00000000000E+00 0. -1.
         13   -1    0    0    0    0 -0.00000000000E+00 -0.00000000000E+00 -0.10000000000E+04  0.10000000000E+04  0.00000000000E+00 0.  1.
    9000005    2    1    2  501    0  0.35698992198E+02  0.45110154348E+02 -0.34607065406E+03  0.35083646705E+03  0.34619282844E+01 0.  0.
         13    1    3    3    0    0  0.31082694367E+02  0.39675478070E+02 -0.29593583109E+03  0.30019709121E+03  0.00000000000E+00 0.  1.
          1    1    3    3  501    0  0.46162978310E+01  0.54346762781E+01 -0.50134822971E+02  0.50639375848E+02  0.00000000000E+00 0.  1.
         -3    1    1    2    0  502 -0.35698992198E+02 -0.45110154348E+02 -0.65027663584E+03  0.65281624305E+03  0.00000000000E+00 0. -1.
<mgrwt>
<rscale>  1 0.30000000E+03</rscale>
<asrwt>0</asrwt>
<pdfrwt beam="1">  1       21 0.13282610E-01 0.30000000E+03</pdfrwt>
<pdfrwt beam="2">0</pdfrwt>
<totfact> 0.51500713E+03</totfact>
</mgrwt>
</event>
<event>
 6    1  0.8397183E-002  0.3000000E+03  0.7818608E-02  0.1093470E+00
         21   -1    0    0  501  502  0.00000000000E+00  0.00000000000E+00  0.96385846009E+00  0.96385846009E+00  0.00000000000E+00 0. -1.
         13   -1    0    0    0    0 -0.00000000000E+00 -0.00000000000E+00 -0.10000000000E+04  0.10000000000E+04  0.00000000000E+00 0.  1.
    9000005    2    1    2  501    0  0.27274518698E+02  0.13220066014E+02 -0.60287158366E+03  0.60364153787E+03  0.32078570334E+01 0.  0.
         13    1    3    3    0    0  0.52762466766E+01  0.38714733194E+01 -0.11852818677E+03  0.11870871132E+03  0.00000000000E+00 0.  1.
          3    1    3    3  501    0  0.21998272021E+02  0.93485926948E+01 -0.48434339689E+03  0.48493282656E+03  0.00000000000E+00 0.  1.
         -1    1    1    2    0  502 -0.27274518698E+02 -0.13220066014E+02 -0.39616455788E+03  0.39732232059E+03  0.00000000000E+00 0. -1.
<mgrwt>
<rscale>  1 0.30000000E+03</rscale>
<asrwt>0</asrwt>
<pdfrwt beam="1">  1       21 0.35049472E-02 0.30000000E+03</pdfrwt>
<pdfrwt beam="2">0</pdfrwt>
<totfact> 0.52492499E+04</totfact>
</mgrwt>
</event>
<event>
 6    1  0.8397183E-002  0.3000000E+03  0.7818608E-02  0.1093470E+00
         21   -1    0    0  501  502  0.00000000000E+00  0.00000000000E+00  0.15621824819E+01  0.15621824819E+01  0.00000000000E+00 0. -1.
         13   -1    0    0    0    0 -0.00000000000E+00 -0.00000000000E+00 -0.10000000000E+04  0.10000000000E+04  0.00000000000E+00 0.  1.
    9000005    2    1    2  501    0 -0.71978168296E+01 -0.36639747607E+02 -0.66091102997E+03  0.66197624051E+03  0.38566556813E+01 0.  0.
         13    1    3    3    0    0 -0.30302421932E+01 -0.22832507097E+02 -0.38460967502E+03  0.38529872549E+03  0.00000000000E+00 0.  1.
          3    1    3    3  501    0 -0.41675746364E+01 -0.13807240510E+02 -0.27630135495E+03  0.27667751502E+03  0.00000000000E+00 0.  1.
         -3    1    1    2    0  502  0.71978168296E+01  0.36639747607E+02 -0.33752678755E+03  0.33958594197E+03  0.00000000000E+00 0. -1.
<mgrwt>
<rscale>  1 0.30000000E+03</rscale>
<asrwt>0</asrwt>
<pdfrwt beam="1">  1       21 0.56806755E-02 0.30000000E+03</pdfrwt>
<pdfrwt beam="2">0</pdfrwt>
<totfact> 0.23153050E+04</totfact>
</mgrwt>
</event>
<event>
 6    1  0.8397183E-002  0.3000000E+03  0.7818608E-02  0.1093470E+00
         21   -1    0    0  501  502  0.00000000000E+00  0.00000000000E+00  0.19434225101E+01  0.19434225101E+01  0.00000000000E+00 0. -1.
         13   -1    0    0    0    0 -0.00000000000E+00 -0.00000000000E+00 -0.10000000000E+04  0.10000000000E+04  0.00000000000E+00 0.  1.
    9000005    2    1    2  501    0  0.27757831538E+02 -0.19613354553E+02 -0.18159338550E+03  0.18477310687E+03  0.31244962089E+01 0.  0.
         13    1    3    3    0    0  0.21479175663E+02 -0.13806424535E+02 -0.14003472554E+03  0.14234358680E+03  0.00000000000E+00 0.  1.
          1    1    3    3  501    0  0.62786558753E+01 -0.58069300182E+01 -0.41558659954E+02  0.42429520066E+02  0.00000000000E+00 0.  1.
         -1    1    1    2    0  502 -0.27757831538E+02  0.19613354553E+02 -0.81646319199E+03  0.81717031564E+03  0.00000000000E+00 0. -1.
<mgrwt>
<rscale>  1 0.30000000E+03</rscale>
<asrwt>0</asrwt>
<pdfrwt beam="1">  1       21 0.70670058E-02 0.30000000E+03</pdfrwt>
<pdfrwt beam="2">0</pdfrwt>
<totfact> 0.15869872E+04</totfact>
</mgrwt>
</event>
<event>
 6    1  0.8397183E-002  0.3000000E+03  0.7818608E-02  0.1093470E+00
         21   -1    0    0  501  502  0.00000000000E+00  0.00000000000E+00  0.27819015374E+01  0.27819015374E+01  0.00000000000E+00 0. -1.
         13   -1    0    0    0    0 -0.00000000000E+00 -0.00000000000E+00 -0.10000000000E+04  0.10000000000E+04  0.00000000000E+00 0.  1.
    9000005    2    1    2  501    0 -0.29715109624E+02 -0.28598593662E+02 -0.18693095869E+03  0.19144589459E+03  0.27349472861E+01 0.  0.
         13    1    3    3    0    0 -0.19462616257E+02 -0.17027540252E+02 -0.11926494370E+03  0.12203629523E+03  0.00000000000E+00 0.  1.
          3    1    3    3  501    0 -0.10252493367E+02 -0.11571053410E+02 -0.67666014995E+02  0.69409599355E+02  0.00000000000E+00 0.  1.
         -3    1    1    2    0  502  0.29715109624E+02  0.28598593662E+02 -0.81028713977E+03  0.81133600695E+03  0.00000000000E+00 0. -1.
<mgrwt>
<rscale>  1 0.30000000E+03</rscale>
<asrwt>0</asrwt>
<pdfrwt beam="1">  1       21 0.10116027E-01 0.30000000E+03</pdfrwt>
<pdfrwt beam="2">0</pdfrwt>
<totfact> 0.84276167E+03</totfact>
</mgrwt>
</event>
<event>
 6    1  0.8397183E-002  0.3000000E+03  0.7818608E-02  0.1093470E+00
         21   -1    0    0  501  502  0.00000000000E+00  0.00000000000E+00  0.10129956070E+01  0.10129956070E+01  0.00000000000E+00 0. -1.
         13   -1    0    0    0    0 -0.00000000000E+00 -0.00000000000E+00 -0.10000000000E+04  0.10000000000E+04  0.00000000000E+00 0.  1.
    9000005    2    1    2  501    0 -0.25440114793E+02  0.17600254761E+02 -0.39359940860E+03  0.39483553847E+03  0.41999494693E+01 0.  0.
         13    1    3    3    0    0 -0.14782582104E+02  0.78333284012E+01 -0.20207751946E+03  0.20276885766E+03  0.00000000000E+00 0.  1.
          1    1    3    3  501    0 -0.10657532689E+02  0.97669263598E+01 -0.19152188915E+03  0.19206668081E+03  0.00000000000E+00 0.  1.
         -3    1    1    2    0  502  0.25440114793E+02 -0.17600254761E+02 -0.60538759579E+03  0.60617745714E+03  0.00000000000E+00 0. -1.
<mgrwt>
<rscale>  1 0.30000000E+03</rscale>
<asrwt>0</asrwt>
<pdfrwt beam="1">  1       21 0.36836282E-02 0.30000000E+03</pdfrwt>
<pdfrwt beam="2">0</pdfrwt>
<totfact> 0.48293543E+04</totfact>
</mgrwt>
</event>
<event>
 6    1  0.8397183E-002  0.3000000E+03  0.7818608E-02  0.1093470E+00
         21   -1    0    0  501  502  0.00000000000E+00  0.00000000000E+00  0.25753067155E+01  0.25753067155E+01  0.00000000000E+00 0. -1.
         13   -1    0    0    0    0 -0.00000000000E+00 -0.00000000000E+00 -0.10000000000E+04  0.10000000000E+04  0.00000000000E+00 0.  1.
    9000005    2    1    2  501    0 -0.49518032211E+02  0.10822104425E+02 -0.48556220571E+03  0.48820932840E+03  0.29222027202E+01 0.  0.
         13    1    3    3    0    0 -0.43176003600E+02  0.93359362363E+01 -0.41319594837E+03  0.41555050084E+03  0.00000000000E+00 0.  1.
          1    1    3    3  501    0 -0.63420286108E+01  0.14861681890E+01 -0.72366257336E+02  0.72658827568E+02  0.00000000000E+00 0.  1.
         -3    1    1    2    0  502  0.49518032211E+02 -0.10822104425E+02 -0.51186248758E+03  0.51436597831E+03  0.00000000000E+00 0. -1.
<mgrwt>
<rscale>  1 0.30000000E+03</rscale>
<asrwt>0</asrwt>
<pdfrwt beam="1">  1       21 0.93647714E-02 0.30000000E+03</pdfrwt>
<pdfrwt beam="2">0</pdfrwt>
<totfact> 0.96714073E+03</totfact>
</mgrwt>
</event>
<event>
 6    1  0.8397183E-002  0.3000000E+03  0.7818608E-02  0.1093470E+00
         21   -1    0    0  501  502  0.00000000000E+00  0.00000000000E+00  0.21794360767E+01  0.21794360767E+01  0.00000000000E+00 0. -1.
         13   -1    0    0    0    0 -0.00000000000E+00 -0.00000000000E+00 -0.10000000000E+04  0.10000000000E+04  0.00000000000E+00 0.  1.
    9000005    2    1    2  501    0  0.45521957624E+02  0.54870596433E+01 -0.41276184105E+03  0.41532675809E+03  0.46499580199E+01 0.  0.
         13    1    3    3    0    0  0.41909821600E+02  0.38263976690E+01 -0.38092602610E+03  0.38324367161E+03  0.00000000000E+00 0.  1.
          3    1    3    3  501    0  0.36121360242E+01  0.16606619744E+01 -0.31835814945E+02  0.32083086479E+02  0.00000000000E+00 0.  1.
         -3    1    1    2    0  502 -0.45521957624E+02 -0.54870596433E+01 -0.58505872288E+03  0.58685267799E+03  0.00000000000E+00 0. -1.
<mgrwt>
<rscale>  1 0.30000000E+03</rscale>
<asrwt>0</asrwt>
<pdfrwt beam="1">  1       21 0.79252388E-02 0.30000000E+03</pdfrwt>
<pdfrwt beam="2">0</pdfrwt>
<totfact> 0.12986220E+04</totfact>
</mgrwt>
</event>
<event>
 6    1  0.8397183E-002  0.3000000E+03  0.7818608E-02  0.1093470E+00
         21   -1    0    0  501  502  0.00000000000E+00  0.00000000000E+00  0.12520467675E+01  0.12520467675E+01  0.00000000000E+00 0. -1.
         13   -1    0    0    0    0 -0.00000000000E+00 -0.00000000000E+00 -0.10000000000E+04  0.10000000000E+04  0.00000000000E+00 0.  1.
    9000005    2    1    2  501    0 -0.30927493344E+02  0.16312657084E+02 -0.56895374876E+03  0.57003786469E+03  0.34908921340E+01 0.  0.
         13    1    3    3    0    0 -0.19739838971E+02  0.12267198245E+02 -0.37338530572E+03  0.37410791481E+03  0.00000000000E+00 0.  1.
          3    1    3    3  501    0 -0.11187654373E+02  0.40454588386E+01 -0.19556844304E+03  0.19592994988E+03  0.00000000000E+00 0.  1.
         -3    1    1    2    0  502  0.30927493344E+02 -0.16312657084E+02 -0.42979420447E+03  0.43121418208E+03  0.00000000000E+00 0. -1.
<mgrwt>
<rscale>  1 0.30000000E+03</rscale>
<asrwt>0</asrwt>
<pdfrwt beam="1">  1       21 0.45529069E-02 0.30000000E+03</pdfrwt>
<pdfrwt beam="2">0</pdfrwt>
<totfact> 0.33781152E+04</totfact>
</mgrwt>
</event>
<event>
 6    1  0.8397183E-002  0.3000000E+03  0.7818608E-02  0.1093470E+00
         21   -1    0    0  501  502  0.00000000000E+00  0.00000000000E+00  0.30607590644E+01  0.30607590644E+01  0.00000000000E+00 0. -1.
         13   -1    0    0    0    0 -0.00000000000E+00 -0.00000000000E+00 -0.10000000000E+04  0.10000000000E+04  0.00000000000E+00 0.  1.
    9000005    2    1    2  501    0 -0.11544689852E+02  0.51941438948E+02 -0.63453075044E+03  0.63676701502E+03  0.34300463471E+01 0.  0.
         13    1    3    3    0    0 -0.70622871910E+01  0.29952569673E+02 -0.38642227043E+03  0.38764571895E+03  0.00000000000E+00 0.  1.
          3    1    3    3  501    0 -0.44824026613E+01  0.21988869275E+02 -0.24810848000E+03  0.24912129607E+03  0.00000000000E+00 0.  1.
         -3    1    1    2    0  502  0.11544689852E+02 -0.51941438948E+02 -0.36240849050E+03  0.36629374405E+03  0.00000000000E+00 0. -1.
<mgrwt>
<rscale>  1 0.30000000E+03</rscale>
<asrwt>0</asrwt>
<pdfrwt beam="1">  1       21 0.11130056E-01 0.30000000E+03</pdfrwt>
<pdfrwt beam="2">0</pdfrwt>
<totfact> 0.71001982E+03</totfact>
</mgrwt>
</event>
<event>
 6    1  0.8397183E-002  0.3000000E+03  0.7818608E-02  0.1093470E+00
         21   -1    0    0  501  502  0.00000000000E+00  0.00000000000E+00  0.14408718750E+01  0.14408718750E+01  0.00000000000E+00 0. -1.
         13   -1    0    0    0    0 -0.00000000000E+00 -0.00000000000E+00 -0.10000000000E+04  0.10000000000E+04  0.00000000000E+00 0.  1.
    9000005    2    1    2  501    0 -0.34666660034E+02 -0.18011341835E+00 -0.29698872079E+03  0.29901447274E+03  0.23547548819E+01 0.  0.
         13    1    3    3    0    0 -0.28241831127E+02 -0.10594303076E+01 -0.24223820639E+03  0.24388126630E+03  0.00000000000E+00 0.  1.
          3    1    3    3  501    0 -0.64248289072E+01  0.87931688921E+00 -0.54750514399E+02  0.55133206434E+02  0.00000000000E+00 0.  1.
         -3    1    1    2    0  502  0.34666660034E+02  0.18011341835E+00 -0.70157040734E+03  0.70242639914E+03  0.00000000000E+00 0. -1.
<mgrwt>
<rscale>  1 0.30000000E+03</rscale>
<asrwt>0</asrwt>
<pdfrwt beam="1">  1       21 0.52395451E-02 0.30000000E+03</pdfrwt>
<pdfrwt beam="2">0</pdfrwt>
<totfact> 0.26593385E+04</totfact>
</mgrwt>
</event>
<event>
 6    1  0.8397183E-002  0.3000000E+03  0.7818608E-02  0.1093470E+00
         21   -1    0    0  501  502  0.00000000000E+00  0.00000000000E+00  0.16751272282E+01  0.16751272282E+01  0.00000000000E+00 0. -1.
         13   -1    0    0    0    0 -0.00000000000E+00 -0.00000000000E+00 -0.10000000000E+04  0.10000000000E+04  0.00000000000E+00 0.  1.
    9000005    2    1    2  501    0  0.20897330560E+02  0.34522457055E+02 -0.57872885939E+03  0.58014302535E+03  0.32153862946E+01 0.  0.
         13    1    3    3    0    0  0.15146804579E+02  0.26061359717E+02 -0.41280175024E+03  0.41390083977E+03  0.00000000000E+00 0.  1.
          1    1    3    3  501    0  0.57505259812E+01  0.84610973380E+01 -0.16592710914E+03  0.16624218558E+03  0.00000000000E+00 0.  1.
         -3    1    1    2    0  502 -0.20897330560E+02 -0.34522457055E+02 -0.41959601339E+03  0.42153210188E+03  0.00000000000E+00 0. -1.
<mgrwt>
<rscale>  1 0.30000000E+03</rscale>
<asrwt>0</asrwt>
<pdfrwt beam="1">  1       21 0.60913846E-02 0.30000000E+03</pdfrwt>
<pdfrwt beam="2">0</pdfrwt>
<totfact> 0.20529270E+04</totfact>
</mgrwt>
</event>
<event>
 6    1  0.8397183E-002  0.3000000E+03  0.7818608E-02  0.1093470E+00
         21   -1    0    0  501  502  0.00000000000E+00  0.00000000000E+00  0.11463663417E+01  0.11463663417E+01  0.00000000000E+00 0. -1.
         13   -1    0    0    0    0 -0.00000000000E+00 -0.00000000000E+00 -0.10000000000E+04  0.10000000000E+04  0.00000000000E+00 0.  1.
    9000005    2    1    2  501    0 -0.12430881175E+02  0.31160619146E+02 -0.44009324362E+03  0.44137973240E+03  0.29144649674E+01 0.  0.
         13    1    3    3    0    0 -0.39609409079E+01  0.13467882128E+02 -0.17592143898E+03  0.17648066634E+03  0.00000000000E+00 0.  1.
          3    1    3    3  501    0 -0.84699402670E+01  0.17692737018E+02 -0.26417180464E+03  0.26489906606E+03  0.00000000000E+00 0.  1.
         -3    1    1    2    0  502  0.12430881175E+02 -0.31160619146E+02 -0.55876039004E+03  0.55976663394E+03  0.00000000000E+00 0. -1.
<mgrwt>
<rscale>  1 0.30000000E+03</rscale>
<asrwt>0</asrwt>
<pdfrwt beam="1">  1       21 0.41686137E-02 0.30000000E+03</pdfrwt>
<pdfrwt beam="2">0</pdfrwt>
<totfact> 0.39219991E+04</totfact>
</mgrwt>
</event>
<event>
 6    1  0.8397183E-002  0.3000000E+03  0.7818608E-02  0.1093470E+00
         21   -1    0    0  501  502  0.00000000000E+00  0.00000000000E+00  0.96959893205E+00  0.96959893205E+00  0.00000000000E+00 0. -1.
         13   -1    0    0    0    0 -0.00000000000E+00 -0.00000000000E+00 -0.10000000000E+04  0.10000000000E+04  0.00000000000E+00 0.  1.
    9000005    2    1    2  501    0  0.18428443359E+02  0.24721626855E+02 -0.44286562432E+03  0.44395072560E+03  0.33939936156E+01 0.  0.
         13    1    3    3    0    0  0.96289856227E+01  0.11185932635E+02 -0.19236443889E+03  0.19292983129E+03  0.00000000000E+00 0.  1.
          1    1    3    3  501    0  0.87994577362E+01  0.13535694220E+02 -0.25050118544E+03  0.25102089431E+03  0.00000000000E+00 0.  1.
         -3    1    1    2    0  502 -0.18428443359E+02 -0.24721626855E+02 -0.55616477674E+03  0.55701887333E+03  0.00000000000E+00 0. -1.
<mgrwt>
<rscale>  1 0.30000000E+03</rscale>
<asrwt>0</asrwt>
<pdfrwt beam="1">  1       21 0.35258217E-02 0.30000000E+03</pdfrwt>
<pdfrwt beam="2">0</pdfrwt>
<totfact> 0.51972982E+04</totfact>
</mgrwt>
</event>
<event>
 6    1  0.8397183E-002  0.3000000E+03  0.7818608E-02  0.1093470E+00
         21   -1    0    0  501  502  0.00000000000E+00  0.00000000000E+00  0.12026475081E+01  0.12026475081E+01  0.00000000000E+00 0. -1.
         13   -1    0    0    0    0 -0.00000000000E+00 -0.00000000000E+00 -0.10000000000E+04  0.10000000000E+04  0.00000000000E+00 0.  1.
    9000005    2    1    2  501    0  0.13589074912E+02  0.28920037743E+02 -0.69192753283E+03  0.69267368978E+03  0.34782581140E+01 0.  0.
         13    1    3    3    0    0  0.80436092776E+01  0.13042490839E+02 -0.33238155298E+03  0.33273458339E+03  0.00000000000E+00 0.  1.
          3    1    3    3  501    0  0.55454656347E+01  0.15877546904E+02 -0.35954597985E+03  0.35993910639E+03  0.00000000000E+00 0.  1.
         -1    1    1    2    0  502 -0.13589074912E+02 -0.28920037743E+02 -0.30686981966E+03  0.30852895773E+03  0.00000000000E+00 0. -1.
<mgrwt>
<rscale>  1 0.30000000E+03</rscale>
<asrwt>0</asrwt>
<pdfrwt beam="1">  1       21 0.43732729E-02 0.30000000E+03</pdfrwt>
<pdfrwt beam="2">0</pdfrwt>
<totfact> 0.36167693E+04</totfact>
</mgrwt>
</event>
<event>
 6    1  0.8397183E-002  0.3000000E+03  0.7818608E-02  0.1093470E+00
         21   -1    0    0  501  502  0.00000000000E+00  0.00000000000E+00  0.12457669388E+01  0.12457669388E+01  0.00000000000E+00 0. -1.
         13   -1    0    0    0    0 -0.00000000000E+00 -0.00000000000E+00 -0.10000000000E+04  0.10000000000E+04  0.00000000000E+00 0.  1.
    9000005    2    1    2  501    0 -0.32976920903E+02  0.84054639853E+01 -0.61802872860E+03  0.61900233811E+03  0.68011816106E+01 0.  0.
         13    1    3    3    0    0 -0.26876036749E+02  0.75155283669E+01 -0.54490175351E+03  0.54561591389E+03  0.00000000000E+00 0.  1.
          3    1    3    3  501    0 -0.61008841547E+01  0.88993561840E+00 -0.73126975094E+02  0.73386424216E+02  0.00000000000E+00 0.  1.
         -1    1    1    2    0  502  0.32976920903E+02 -0.84054639853E+01 -0.38072550446E+03  0.38224342883E+03  0.00000000000E+00 0. -1.
<mgrwt>
<rscale>  1 0.30000000E+03</rscale>
<asrwt>0</asrwt>
<pdfrwt beam="1">  1       21 0.45300711E-02 0.30000000E+03</pdfrwt>
<pdfrwt beam="2">0</pdfrwt>
<totfact> 0.34070838E+04</totfact>
</mgrwt>
</event>
<event>
 6    1  0.8397183E-002  0.3000000E+03  0.7818608E-02  0.1093470E+00
         21   -1    0    0  501  502  0.00000000000E+00  0.00000000000E+00  0.94095887929E+00  0.94095887929E+00  0.00000000000E+00 0. -1.
         13   -1    0    0    0    0 -0.00000000000E+00 -0.00000000000E+00 -0.10000000000E+04  0.10000000000E+04  0.00000000000E+00 0.  1.
    9000005    2    1    2  501    0 -0.29521098156E+02  0.59471754260E+01 -0.41157701291E+03  0.41268761414E+03  0.29266316593E+01 0.  0.
         13    1    3    3    0    0 -0.23735863644E+02  0.54066357319E+01 -0.31805363542E+03  0.31898391486E+03  0.00000000000E+00 0.  1.
          1    1    3    3  501    0 -0.57852345122E+01  0.54053969410E+00 -0.93523377491E+02  0.93703699280E+02  0.00000000000E+00 0.  1.
         -1    1    1    2    0  502  0.29521098156E+02 -0.59471754260E+01 -0.58748202821E+03  0.58825334474E+03  0.00000000000E+00 0. -1.
<mgrwt>
<rscale>  1 0.30000000E+03</rscale>
<asrwt>0</asrwt>
<pdfrwt beam="1">  1       21 0.34216759E-02 0.30000000E+03</pdfrwt>
<pdfrwt beam="2">0</pdfrwt>
<totfact> 0.54647452E+04</totfact>
</mgrwt>
</event>
<event>
 6    1  0.8397183E-002  0.3000000E+03  0.7818608E-02  0.1093470E+00
         21   -1    0    0  501  502  0.00000000000E+00  0.00000000000E+00  0.24537566885E+01  0.24537566885E+01  0.00000000000E+00 0. -1.
         13   -1    0    0    0    0 -0.00000000000E+00 -0.00000000000E+00 -0.10000000000E+04  0.10000000000E+04  0.00000000000E+00 0.  1.
    9000005    2    1    2  501    0 -0.44187395698E+02 -0.22086374862E+02 -0.52837398149E+03  0.53068798307E+03  0.32151467521E+01 0.  0.
         13    1    3    3    0    0 -0.33294608307E+02 -0.15071856753E+02 -0.38845818614E+03  0.39017362057E+03  0.00000000000E+00 0.  1.
          3    1    3    3  501    0 -0.10892787391E+02 -0.70145181087E+01 -0.13991579535E+03  0.14051436250E+03  0.00000000000E+00 0.  1.
         -3    1    1    2    0  502  0.44187395698E+02  0.22086374862E+02 -0.46917226182E+03  0.47176577362E+03  0.00000000000E+00 0. -1.
<mgrwt>
<rscale>  1 0.30000000E+03</rscale>
<asrwt>0</asrwt>
<pdfrwt beam="1">  1       21 0.89227704E-02 0.30000000E+03</pdfrwt>
<pdfrwt beam="2">0</pdfrwt>
<totfact> 0.10537699E+04</totfact>
</mgrwt>
</event>
<event>
 6    1  0.8397183E-002  0.3000000E+03  0.7818608E-02  0.1093470E+00
         21   -1    0    0  501  502  0.00000000000E+00  0.00000000000E+00  0.11501857295E+01  0.11501857295E+01  0.00000000000E+00 0. -1.
         13   -1    0    0    0    0 -0.00000000000E+00 -0.00000000000E+00 -0.10000000000E+04  0.10000000000E+04  0.00000000000E+00 0.  1.
    9000005    2    1    2  501    0  0.23367944104E+02 -0.20966961660E+02 -0.31417387218E+03  0.31575481081E+03  0.31944157344E+01 0.  0.
         13    1    3    3    0    0  0.68973376498E+01 -0.64339364833E+01 -0.10956641138E+03  0.10997166594E+03  0.00000000000E+00 0.  1.
          1    1    3    3  501    0  0.16470606454E+02 -0.14533025177E+02 -0.20460746080E+03  0.20578314487E+03  0.00000000000E+00 0.  1.
         -3    1    1    2    0  502 -0.23367944104E+02  0.20966961660E+02 -0.68467594209E+03  0.68539537492E+03  0.00000000000E+00 0. -1.
<mgrwt>
<rscale>  1 0.30000000E+03</rscale>
<asrwt>0</asrwt>
<pdfrwt beam="1">  1       21 0.41825024E-02 0.30000000E+03</pdfrwt>
<pdfrwt beam="2">0</pdfrwt>
<totfact> 0.39000398E+04</totfact>
</mgrwt>
</event>
<event>
 6    1  0.8397183E-002  0.3000000E+03  0.7818608E-02  0.1093470E+00
         21   -1    0    0  501  502  0.00000000000E+00  0.00000000000E+00  0.11506284180E+01  0.11506284180E+01  0.00000000000E+00 0. -1.
         13   -1    0    0    0    0 -0.00000000000E+00 -0.00000000000E+00 -0.10000000000E+04  0.10000000000E+04  0.00000000000E+00 0.  1.
    9000005    2    1    2  501    0  0.25075673431E+02 -0.19047850412E+02 -0.31829554781E+03  0.31986866252E+03  0.35064946949E+01 0.  0.
         13    1    3    3    0    0  0.17846556129E+02 -0.14323538264E+02 -0.21578738318E+03  0.21699736877E+03  0.00000000000E+00 0.  1.
          3    1    3    3  501    0  0.72291173019E+01 -0.47243121477E+01 -0.10250816463E+03  0.10287129375E+03  0.00000000000E+00 0.  1.
         -1    1    1    2    0  502 -0.25075673431E+02  0.19047850412E+02 -0.68055382377E+03  0.68128196590E+03  0.00000000000E+00 0. -1.
<mgrwt>
<rscale>  1 0.30000000E+03</rscale>
<asrwt>0</asrwt>
<pdfrwt beam="1">  1       21 0.41841122E-02 0.30000000E+03</pdfrwt>
<pdfrwt beam="2">0</pdfrwt>
<totfact> 0.38975070E+04</totfact>
</mgrwt>
</event>
<event>
 6    1  0.1845289E-001  0.3000000E+03  0.7818608E-02  0.1093470E+00
         21   -1    0    0  501  502  0.00000000000E+00  0.00000000000E+00  0.35641614272E+01  0.35641614272E+01  0.00000000000E+00 0. -1.
         13   -1    0    0    0    0 -0.00000000000E+00 -0.00000000000E+00 -0.10000000000E+04  0.10000000000E+04  0.00000000000E+00 0.  1.
    9000005    2    1    2  501    0  0.47254251038E+02  0.35643678315E+02 -0.53287302773E+03  0.53623781331E+03  0.96898245578E+01 0.  0.
         13    1    3    3    0    0  0.43497662797E+02  0.31020618801E+02 -0.49824039074E+03  0.50109660987E+03  0.00000000000E+00 0.  1.
          1    1    3    3  501    0  0.37565882409E+01  0.46230595140E+01 -0.34632636984E+02  0.35141203436E+02  0.00000000000E+00 0.  1.
         -3    1    1    2    0  502 -0.47254251038E+02 -0.35643678315E+02 -0.46356281085E+03  0.46732634812E+03  0.00000000000E+00 0. -1.
<mgrwt>
<rscale>  1 0.30000000E+03</rscale>
<asrwt>0</asrwt>
<pdfrwt beam="1">  1       21 0.12960614E-01 0.30000000E+03</pdfrwt>
<pdfrwt beam="2">0</pdfrwt>
<totfact> 0.53862840E+03</totfact>
</mgrwt>
</event>
<event>
 6    1  0.8397183E-002  0.3000000E+03  0.7818608E-02  0.1093470E+00
         21   -1    0    0  501  502  0.00000000000E+00  0.00000000000E+00  0.12385614835E+01  0.12385614835E+01  0.00000000000E+00 0. -1.
         13   -1    0    0    0    0 -0.00000000000E+00 -0.00000000000E+00 -0.10000000000E+04  0.10000000000E+04  0.00000000000E+00 0.  1.
    9000005    2    1    2  501    0  0.16749522281E+02 -0.30452999985E+02 -0.42932320922E+03  0.43074068358E+03  0.33446694473E+01 0.  0.
         13    1    3    3    0    0  0.14669480692E+02 -0.26392979624E+02 -0.38545221583E+03  0.38663315135E+03  0.00000000000E+00 0.  1.
          1    1    3    3  501    0  0.20800415895E+01 -0.40600203613E+01 -0.43870993393E+02  0.44107532232E+02  0.00000000000E+00 0.  1.
         -3    1    1    2    0  502 -0.16749522281E+02  0.30452999985E+02 -0.56943822929E+03  0.57049787790E+03  0.00000000000E+00 0. -1.
<mgrwt>
<rscale>  1 0.30000000E+03</rscale>
<asrwt>0</asrwt>
<pdfrwt beam="1">  1       21 0.45038694E-02 0.30000000E+03</pdfrwt>
<pdfrwt beam="2">0</pdfrwt>
<totfact> 0.34407967E+04</totfact>
</mgrwt>
</event>
<event>
 6    1  0.8397183E-002  0.3000000E+03  0.7818608E-02  0.1093470E+00
         21   -1    0    0  501  502  0.00000000000E+00  0.00000000000E+00  0.98488415702E+00  0.98488415702E+00  0.00000000000E+00 0. -1.
         13   -1    0    0    0    0 -0.00000000000E+00 -0.00000000000E+00 -0.10000000000E+04  0.10000000000E+04  0.00000000000E+00 0.  1.
    9000005    2    1    2  501    0 -0.29465980457E+02  0.98181664819E+01 -0.56196665497E+03  0.56283422793E+03  0.33476018768E+01 0.  0.
         13    1    3    3    0    0 -0.25531435434E+02  0.72852487153E+01 -0.48239556519E+03  0.48312566726E+03  0.00000000000E+00 0.  1.
          3    1    3    3  501    0 -0.39345450235E+01  0.25329177666E+01 -0.79571089776E+02  0.79708560677E+02  0.00000000000E+00 0.  1.
         -3    1    1    2    0  502  0.29465980457E+02 -0.98181664819E+01 -0.43704846087E+03  0.43815065622E+03  0.00000000000E+00 0. -1.
<mgrwt>
<rscale>  1 0.30000000E+03</rscale>
<asrwt>0</asrwt>
<pdfrwt beam="1">  1       21 0.35814045E-02 0.30000000E+03</pdfrwt>
<pdfrwt beam="2">0</pdfrwt>
<totfact> 0.50628059E+04</totfact>
</mgrwt>
</event>
<event>
 6    1  0.8397183E-002  0.3000000E+03  0.7818608E-02  0.1093470E+00
         21   -1    0    0  501  502  0.00000000000E+00  0.00000000000E+00  0.13769104506E+01  0.13769104506E+01  0.00000000000E+00 0. -1.
         13   -1    0    0    0    0 -0.00000000000E+00 -0.00000000000E+00 -0.10000000000E+04  0.10000000000E+04  0.00000000000E+00 0.  1.
    9000005    2    1    2  501    0 -0.25927127463E+02  0.26315427095E+02 -0.53608598949E+03  0.53736690348E+03  0.32067400266E+01 0.  0.
         13    1    3    3    0    0 -0.13391870065E+02  0.13182274234E+02 -0.24976997199E+03  0.25047585402E+03  0.00000000000E+00 0.  1.
          3    1    3    3  501    0 -0.12535257398E+02  0.13133152861E+02 -0.28631601750E+03  0.28689104946E+03  0.00000000000E+00 0.  1.
         -3    1    1    2    0  502  0.25927127463E+02 -0.26315427095E+02 -0.46253710006E+03  0.46401000697E+03  0.00000000000E+00 0. -1.
<mgrwt>
<rscale>  1 0.30000000E+03</rscale>
<asrwt>0</asrwt>
<pdfrwt beam="1">  1       21 0.50069577E-02 0.30000000E+03</pdfrwt>
<pdfrwt beam="2">0</pdfrwt>
<totfact> 0.28736452E+04</totfact>
</mgrwt>
</event>
<event>
 6    1  0.8397183E-002  0.3000000E+03  0.7818608E-02  0.1093470E+00
         21   -1    0    0  501  502  0.00000000000E+00  0.00000000000E+00  0.17764470792E+01  0.17764470792E+01  0.00000000000E+00 0. -1.
         13   -1    0    0    0    0 -0.00000000000E+00 -0.00000000000E+00 -0.10000000000E+04  0.10000000000E+04  0.00000000000E+00 0.  1.
    9000005    2    1    2  501    0 -0.29345065891E+02 -0.20751936955E+02 -0.75988876217E+03  0.76074688818E+03  0.36223235817E+01 0.  0.
         13    1    3    3    0    0 -0.21214722825E+02 -0.15908722211E+02 -0.58838633919E+03  0.58898356179E+03  0.00000000000E+00 0.  1.
          3    1    3    3  501    0 -0.81303430656E+01 -0.48432147449E+01 -0.17150242298E+03  0.17176332639E+03  0.00000000000E+00 0.  1.
         -1    1    1    2    0  502  0.29345065891E+02  0.20751936955E+02 -0.23833479075E+03  0.24102955890E+03  0.00000000000E+00 0. -1.
<mgrwt>
<rscale>  1 0.30000000E+03</rscale>
<asrwt>0</asrwt>
<pdfrwt beam="1">  1       21 0.64598212E-02 0.30000000E+03</pdfrwt>
<pdfrwt beam="2">0</pdfrwt>
<totfact> 0.18548069E+04</totfact>
</mgrwt>
</event>
<event>
 6    1  0.8397183E-002  0.3000000E+03  0.7818608E-02  0.1093470E+00
         21   -1    0    0  501  502  0.00000000000E+00  0.00000000000E+00  0.10458356337E+01  0.10458356337E+01  0.00000000000E+00 0. -1.
         13   -1    0    0    0    0 -0.00000000000E+00 -0.00000000000E+00 -0.10000000000E+04  0.10000000000E+04  0.00000000000E+00 0.  1.
    9000005    2    1    2  501    0  0.22159003605E+02  0.20752304072E+02 -0.33089550123E+03  0.33229770894E+03  0.28731632809E+01 0.  0.
         13    1    3    3    0    0  0.15825357722E+02  0.13764566166E+02 -0.23968991654E+03  0.24060582146E+03  0.00000000000E+00 0.  1.
          1    1    3    3  501    0  0.63336458837E+01  0.69877379061E+01 -0.91205584688E+02  0.91691887479E+02  0.00000000000E+00 0.  1.
         -3    1    1    2    0  502 -0.22159003605E+02 -0.20752304072E+02 -0.66805866314E+03  0.66874812670E+03  0.00000000000E+00 0. -1.
<mgrwt>
<rscale>  1 0.30000000E+03</rscale>
<asrwt>0</asrwt>
<pdfrwt beam="1">  1       21 0.38030467E-02 0.30000000E+03</pdfrwt>
<pdfrwt beam="2">0</pdfrwt>
<totfact> 0.45774402E+04</totfact>
</mgrwt>
</event>
<event>
 6    1  0.8397183E-002  0.3000000E+03  0.7818608E-02  0.1093470E+00
         21   -1    0    0  501  502  0.00000000000E+00  0.00000000000E+00  0.81510216225E+01  0.81510216225E+01  0.00000000000E+00 0. -1.
         13   -1    0    0    0    0 -0.00000000000E+00 -0.00000000000E+00 -0.10000000000E+04  0.10000000000E+04  0.00000000000E+00 0.  1.
    9000005    2    1    2  501    0  0.69472037156E+02 -0.37149118555E+01 -0.17516079851E+03  0.18850491039E+03  0.35540668466E+01 0.  0.
         13    1    3    3    0    0  0.36418866251E+02 -0.26940248251E+01 -0.96270953499E+02  0.10296449911E+03  0.00000000000E+00 0.  1.
          3    1    3    3  501    0  0.33053170906E+02 -0.10208870304E+01 -0.78889845008E+02  0.85540411284E+02  0.00000000000E+00 0.  1.
         -1    1    1    2    0  502 -0.69472037156E+02  0.37149118555E+01 -0.81668817987E+03  0.81964611123E+03  0.00000000000E+00 0. -1.
<mgrwt>
<rscale>  1 0.30000000E+03</rscale>
<asrwt>0</asrwt>
<pdfrwt beam="1">  1       21 0.29640141E-01 0.30000000E+03</pdfrwt>
<pdfrwt beam="2">0</pdfrwt>
<totfact> 0.11138239E+03</totfact>
</mgrwt>
</event>
<event>
 6    1  0.8397183E-002  0.3000000E+03  0.7818608E-02  0.1093470E+00
         21   -1    0    0  501  502  0.00000000000E+00  0.00000000000E+00  0.23608270911E+01  0.23608270911E+01  0.00000000000E+00 0. -1.
         13   -1    0    0    0    0 -0.00000000000E+00 -0.00000000000E+00 -0.10000000000E+04  0.10000000000E+04  0.00000000000E+00 0.  1.
    9000005    2    1    2  501    0  0.46532466556E+02  0.11995108711E+02 -0.42937874854E+03  0.43207224840E+03  0.33414168354E+01 0.  0.
         13    1    3    3    0    0  0.27358465440E+02  0.69595400843E+01 -0.23732864935E+03  0.23900169169E+03  0.00000000000E+00 0.  1.
          3    1    3    3  501    0  0.19174001116E+02  0.50355686267E+01 -0.19205009919E+03  0.19307055671E+03  0.00000000000E+00 0.  1.
         -1    1    1    2    0  502 -0.46532466556E+02 -0.11995108711E+02 -0.56826042437E+03  0.57028857869E+03  0.00000000000E+00 0. -1.
<mgrwt>
<rscale>  1 0.30000000E+03</rscale>
<asrwt>0</asrwt>
<pdfrwt beam="1">  1       21 0.85848439E-02 0.30000000E+03</pdfrwt>
<pdfrwt beam="2">0</pdfrwt>
<totfact> 0.11281856E+04</totfact>
</mgrwt>
</event>
<event>
 6    1  0.8397183E-002  0.3000000E+03  0.7818608E-02  0.1093470E+00
         21   -1    0    0  501  502  0.00000000000E+00  0.00000000000E+00  0.30244144548E+01  0.30244144548E+01  0.00000000000E+00 0. -1.
         13   -1    0    0    0    0 -0.00000000000E+00 -0.00000000000E+00 -0.10000000000E+04  0.10000000000E+04  0.00000000000E+00 0.  1.
    9000005    2    1    2  501    0 -0.22782896654E+02  0.21116439296E+02 -0.85633493860E+02  0.91153057045E+02  0.32893995435E+01 0.  0.
         13    1    3    3    0    0 -0.73904389720E+01  0.51977288113E+01 -0.27422129253E+02  0.28872272958E+02  0.00000000000E+00 0.  1.
          3    1    3    3  501    0 -0.15392457682E+02  0.15918710485E+02 -0.58211364607E+02  0.62280784086E+02  0.00000000000E+00 0.  1.
         -3    1    1    2    0  502  0.22782896654E+02 -0.21116439296E+02 -0.91134209168E+03  0.91187135741E+03  0.00000000000E+00 0. -1.
<mgrwt>
<rscale>  1 0.30000000E+03</rscale>
<asrwt>0</asrwt>
<pdfrwt beam="1">  1       21 0.10997894E-01 0.30000000E+03</pdfrwt>
<pdfrwt beam="2">0</pdfrwt>
<totfact> 0.72545214E+03</totfact>
</mgrwt>
</event>
<event>
 6    1  0.8397183E-002  0.3000000E+03  0.7818608E-02  0.1093470E+00
         21   -1    0    0  501  502  0.00000000000E+00  0.00000000000E+00  0.15594412421E+01  0.15594412421E+01  0.00000000000E+00 0. -1.
         13   -1    0    0    0    0 -0.00000000000E+00 -0.00000000000E+00 -0.10000000000E+04  0.10000000000E+04  0.00000000000E+00 0.  1.
    9000005    2    1    2  501    0  0.16468062625E+02 -0.30783751945E+02 -0.27295847191E+03  0.27523782185E+03  0.55402810973E+01 0.  0.
         13    1    3    3    0    0  0.15387625236E+02 -0.27391823492E+02 -0.23067086017E+03  0.23280063732E+03  0.00000000000E+00 0.  1.
          3    1    3    3  501    0  0.10804373890E+01 -0.33919284531E+01 -0.42287611746E+02  0.42437184529E+02  0.00000000000E+00 0.  1.
         -1    1    1    2    0  502 -0.16468062625E+02  0.30783751945E+02 -0.72548208684E+03  0.72632161940E+03  0.00000000000E+00 0. -1.
<mgrwt>
<rscale>  1 0.30000000E+03</rscale>
<asrwt>0</asrwt>
<pdfrwt beam="1">  1       21 0.56707074E-02 0.30000000E+03</pdfrwt>
<pdfrwt beam="2">0</pdfrwt>
<totfact> 0.23223053E+04</totfact>
</mgrwt>
</event>
<event>
 6    1  0.8397183E-002  0.3000000E+03  0.7818608E-02  0.1093470E+00
         21   -1    0    0  501  502  0.00000000000E+00  0.00000000000E+00  0.30204762942E+01  0.30204762942E+01  0.00000000000E+00 0. -1.
         13   -1    0    0    0    0 -0.00000000000E+00 -0.00000000000E+00 -0.10000000000E+04  0.10000000000E+04  0.00000000000E+00 0.  1.
    9000005    2    1    2  501    0 -0.19421388653E+02  0.50500473995E+02 -0.41307980679E+03  0.41661927607E+03  0.30341726591E+01 0.  0.
         13    1    3    3    0    0 -0.23721542389E+01  0.46020988496E+01 -0.45151493977E+02  0.45447374378E+02  0.00000000000E+00 0.  1.
          3    1    3    3  501    0 -0.17049234414E+02  0.45898375146E+02 -0.36792831282E+03  0.37117190169E+03  0.00000000000E+00 0.  1.
         -3    1    1    2    0  502  0.19421388653E+02 -0.50500473995E+02 -0.58389971691E+03  0.58640120022E+03  0.00000000000E+00 0. -1.
<mgrwt>
<rscale>  1 0.30000000E+03</rscale>
<asrwt>0</asrwt>
<pdfrwt beam="1">  1       21 0.10983573E-01 0.30000000E+03</pdfrwt>
<pdfrwt beam="2">0</pdfrwt>
<totfact> 0.72715463E+03</totfact>
</mgrwt>
</event>
<event>
 6    1  0.8397183E-002  0.3000000E+03  0.7818608E-02  0.1093470E+00
         21   -1    0    0  501  502  0.00000000000E+00  0.00000000000E+00  0.16701360665E+01  0.16701360665E+01  0.00000000000E+00 0. -1.
         13   -1    0    0    0    0 -0.00000000000E+00 -0.00000000000E+00 -0.10000000000E+04  0.10000000000E+04  0.00000000000E+00 0.  1.
    9000005    2    1    2  501    0  0.26673203228E+02  0.28494495812E+02 -0.64394113144E+03  0.64513855292E+03  0.44917304575E+01 0.  0.
         13    1    3    3    0    0  0.20722942215E+02  0.22950292139E+02 -0.47900212570E+03  0.47999915903E+03  0.00000000000E+00 0.  1.
          3    1    3    3  501    0  0.59502610125E+01  0.55442036721E+01 -0.16493900573E+03  0.16513939389E+03  0.00000000000E+00 0.  1.
         -3    1    1    2    0  502 -0.26673203228E+02 -0.28494495812E+02 -0.35438873250E+03  0.35653158315E+03  0.00000000000E+00 0. -1.
<mgrwt>
<rscale>  1 0.30000000E+03</rscale>
<asrwt>0</asrwt>
<pdfrwt beam="1">  1       21 0.60732349E-02 0.30000000E+03</pdfrwt>
<pdfrwt beam="2">0</pdfrwt>
<totfact> 0.20635253E+04</totfact>
</mgrwt>
</event>
<event>
 6    1  0.8397183E-002  0.3000000E+03  0.7818608E-02  0.1093470E+00
         21   -1    0    0  501  502  0.00000000000E+00  0.00000000000E+00  0.96758982529E+00  0.96758982529E+00  0.00000000000E+00 0. -1.
         13   -1    0    0    0    0 -0.00000000000E+00 -0.00000000000E+00 -0.10000000000E+04  0.10000000000E+04  0.00000000000E+00 0.  1.
    9000005    2    1    2  501    0 -0.44200790279E+01  0.30512540308E+02 -0.56092869150E+03  0.56178036263E+03  0.23720612308E+01 0.  0.
         13    1    3    3    0    0 -0.10738760801E+01  0.36058158541E+01 -0.78997695065E+02  0.79087236286E+02  0.00000000000E+00 0.  1.
          3    1    3    3  501    0 -0.33462029478E+01  0.26906724453E+02 -0.48193099643E+03  0.48269312634E+03  0.00000000000E+00 0.  1.
         -1    1    1    2    0  502  0.44200790279E+01 -0.30512540308E+02 -0.43810371868E+03  0.43918722720E+03  0.00000000000E+00 0. -1.
<mgrwt>
<rscale>  1 0.30000000E+03</rscale>
<asrwt>0</asrwt>
<pdfrwt beam="1">  1       21 0.35185159E-02 0.30000000E+03</pdfrwt>
<pdfrwt beam="2">0</pdfrwt>
<totfact> 0.52153896E+04</totfact>
</mgrwt>
</event>
<event>
 6    1  0.8397183E-002  0.3000000E+03  0.7818608E-02  0.1093470E+00
         21   -1    0    0  501  502  0.00000000000E+00  0.00000000000E+00  0.13274665920E+01  0.13274665920E+01  0.00000000000E+00 0. -1.
         13   -1    0    0    0    0 -0.00000000000E+00 -0.00000000000E+00 -0.10000000000E+04  0.10000000000E+04  0.00000000000E+00 0.  1.
    9000005    2    1    2  501    0  0.36006701344E+02 -0.49227241710E+01 -0.51752773307E+03  0.51881214595E+03  0.32206429939E+01 0.  0.
         13    1    3    3    0    0  0.34633941423E+02 -0.52617702516E+01 -0.49230024452E+03  0.49354506063E+03  0.00000000000E+00 0.  1.
          1    1    3    3  501    0  0.13727599214E+01  0.33904608064E+00 -0.25227488550E+02  0.25267085320E+02  0.00000000000E+00 0.  1.
         -3    1    1    2    0  502 -0.36006701344E+02  0.49227241710E+01 -0.48114480034E+03  0.48251532064E+03  0.00000000000E+00 0. -1.
<mgrwt>
<rscale>  1 0.30000000E+03</rscale>
<asrwt>0</asrwt>
<pdfrwt beam="1">  1       21 0.48271614E-02 0.30000000E+03</pdfrwt>
<pdfrwt beam="2">0</pdfrwt>
<totfact> 0.30583443E+04</totfact>
</mgrwt>
</event>
<event>
 6    1  0.8397183E-002  0.3000000E+03  0.7818608E-02  0.1093470E+00
         21   -1    0    0  501  502  0.00000000000E+00  0.00000000000E+00  0.12457506129E+01  0.12457506129E+01  0.00000000000E+00 0. -1.
         13   -1    0    0    0    0 -0.00000000000E+00 -0.00000000000E+00 -0.10000000000E+04  0.10000000000E+04  0.00000000000E+00 0.  1.
    9000005    2    1    2  501    0 -0.48015494612E+01  0.34620698877E+02 -0.46243130211E+03  0.46378509955E+03  0.56799403918E+01 0.  0.
         13    1    3    3    0    0  0.53560706109E+00  0.31252421227E+01 -0.27483741614E+02  0.27666045369E+02  0.00000000000E+00 0.  1.
          3    1    3    3  501    0 -0.53371565223E+01  0.31495456755E+02 -0.43494756050E+03  0.43611905418E+03  0.00000000000E+00 0.  1.
         -1    1    1    2    0  502  0.48015494612E+01 -0.34620698877E+02 -0.53632294727E+03  0.53746065106E+03  0.00000000000E+00 0. -1.
<mgrwt>
<rscale>  1 0.30000000E+03</rscale>
<asrwt>0</asrwt>
<pdfrwt beam="1">  1       21 0.45300118E-02 0.30000000E+03</pdfrwt>
<pdfrwt beam="2">0</pdfrwt>
<totfact> 0.34071596E+04</totfact>
</mgrwt>
</event>
<event>
 6    1  0.8397183E-002  0.3000000E+03  0.7818608E-02  0.1093470E+00
         21   -1    0    0  501  502  0.00000000000E+00  0.00000000000E+00  0.68898500021E+01  0.68898500021E+01  0.00000000000E+00 0. -1.
         13   -1    0    0    0    0 -0.00000000000E+00 -0.00000000000E+00 -0.10000000000E+04  0.10000000000E+04  0.00000000000E+00 0.  1.
    9000005    2    1    2  501    0  0.67196825841E+02  0.40073733295E+02 -0.66216112512E+03  0.66681842432E+03  0.82545671267E+01 0.  0.
         13    1    3    3    0    0  0.23865733930E+02  0.14153368110E+02 -0.20240689228E+03  0.20429988039E+03  0.00000000000E+00 0.  1.
          1    1    3    3  501    0  0.43331091911E+02  0.25920365185E+02 -0.45975423285E+03  0.46251854393E+03  0.00000000000E+00 0.  1.
         -3    1    1    2    0  502 -0.67196825841E+02 -0.40073733295E+02 -0.33094902487E+03  0.34007142569E+03  0.00000000000E+00 0. -1.
<mgrwt>
<rscale>  1 0.30000000E+03</rscale>
<asrwt>0</asrwt>
<pdfrwt beam="1">  1       21 0.25054053E-01 0.30000000E+03</pdfrwt>
<pdfrwt beam="2">0</pdfrwt>
<totfact> 0.15530179E+03</totfact>
</mgrwt>
</event>
<event>
 6    1  0.8397183E-002  0.3000000E+03  0.7818608E-02  0.1093470E+00
         21   -1    0    0  501  502  0.00000000000E+00  0.00000000000E+00  0.24947928804E+01  0.24947928804E+01  0.00000000000E+00 0. -1.
         13   -1    0    0    0    0 -0.00000000000E+00 -0.00000000000E+00 -0.10000000000E+04  0.10000000000E+04  0.00000000000E+00 0.  1.
    9000005    2    1    2  501    0 -0.29479033014E+02 -0.12350951026E+02 -0.11480830529E+03  0.11921942253E+03  0.32809091252E+01 0.  0.
         13    1    3    3    0    0 -0.13812648945E+02 -0.60031126998E+01 -0.60160555090E+02  0.62017086530E+02  0.00000000000E+00 0.  1.
          1    1    3    3  501    0 -0.15666384069E+02 -0.63478383264E+01 -0.54647750201E+02  0.57202335995E+02  0.00000000000E+00 0.  1.
         -3    1    1    2    0  502  0.29479033014E+02  0.12350951026E+02 -0.88269690183E+03  0.88327537036E+03  0.00000000000E+00 0. -1.
<mgrwt>
<rscale>  1 0.30000000E+03</rscale>
<asrwt>0</asrwt>
<pdfrwt beam="1">  1       21 0.90719932E-02 0.30000000E+03</pdfrwt>
<pdfrwt beam="2">0</pdfrwt>
<totfact> 0.10232573E+04</totfact>
</mgrwt>
</event>
<event>
 6    1  0.8397183E-002  0.3000000E+03  0.7818608E-02  0.1093470E+00
         21   -1    0    0  501  502  0.00000000000E+00  0.00000000000E+00  0.96031207219E+00  0.96031207219E+00  0.00000000000E+00 0. -1.
         13   -1    0    0    0    0 -0.00000000000E+00 -0.00000000000E+00 -0.10000000000E+04  0.10000000000E+04  0.00000000000E+00 0.  1.
    9000005    2    1    2  501    0  0.27001016539E+02 -0.13931420683E+02 -0.41150969452E+03  0.41264523277E+03  0.35665207619E+01 0.  0.
         13    1    3    3    0    0  0.65698346920E+01 -0.51579260884E+01 -0.11532529290E+03  0.11562737613E+03  0.00000000000E+00 0.  1.
          3    1    3    3  501    0  0.20431181847E+02 -0.87734945951E+01 -0.29618440162E+03  0.29701785664E+03  0.00000000000E+00 0.  1.
         -3    1    1    2    0  502 -0.27001016539E+02  0.13931420683E+02 -0.58752999341E+03  0.58831507930E+03  0.00000000000E+00 0. -1.
<mgrwt>
<rscale>  1 0.30000000E+03</rscale>
<asrwt>0</asrwt>
<pdfrwt beam="1">  1       21 0.34920513E-02 0.30000000E+03</pdfrwt>
<pdfrwt beam="2">0</pdfrwt>
<totfact> 0.52817493E+04</totfact>
</mgrwt>
</event>
<event>
 6    1  0.8397183E-002  0.3000000E+03  0.7818608E-02  0.1093470E+00
         21   -1    0    0  501  502  0.00000000000E+00  0.00000000000E+00  0.24479176658E+01  0.24479176658E+01  0.00000000000E+00 0. -1.
         13   -1    0    0    0    0 -0.00000000000E+00 -0.00000000000E+00 -0.10000000000E+04  0.10000000000E+04  0.00000000000E+00 0.  1.
    9000005    2    1    2  501    0 -0.62250424777E+01 -0.48335653940E+02 -0.42143284362E+03  0.42427107291E+03  0.50214570133E+01 0.  0.
         13    1    3    3    0    0 -0.70440181454E+01 -0.41042740739E+02 -0.35497068170E+03  0.35740496586E+03  0.00000000000E+00 0.  1.
          3    1    3    3  501    0  0.81897566767E+00 -0.72929132007E+01 -0.66462161923E+02  0.66866107046E+02  0.00000000000E+00 0.  1.
         -1    1    1    2    0  502  0.62250424777E+01  0.48335653940E+02 -0.57611923872E+03  0.57817684476E+03  0.00000000000E+00 0. -1.
<mgrwt>
<rscale>  1 0.30000000E+03</rscale>
<asrwt>0</asrwt>
<pdfrwt beam="1">  1       21 0.89015376E-02 0.30000000E+03</pdfrwt>
<pdfrwt beam="2">0</pdfrwt>
<totfact> 0.10582232E+04</totfact>
</mgrwt>
</event>
<event>
 6    1  0.8397183E-002  0.3000000E+03  0.7818608E-02  0.1093470E+00
         21   -1    0    0  501  502  0.00000000000E+00  0.00000000000E+00  0.16442489545E+01  0.16442489545E+01  0.00000000000E+00 0. -1.
         13   -1    0    0    0    0 -0.00000000000E+00 -0.00000000000E+00 -0.10000000000E+04  0.10000000000E+04  0.00000000000E+00 0.  1.
    9000005    2    1    2  501    0  0.34589835922E+02  0.42559903583E+01 -0.24914214875E+03  0.25162052129E+03  0.51484215826E+01 0.  0.
         13    1    3    3    0    0  0.22136963481E+01  0.32789037505E+00 -0.27615891765E+02  0.27706415170E+02  0.00000000000E+00 0.  1.
          1    1    3    3  501    0  0.32376139574E+02  0.39280999833E+01 -0.22152625699E+03  0.22391410612E+03  0.00000000000E+00 0.  1.
         -3    1    1    2    0  502 -0.34589835922E+02 -0.42559903583E+01 -0.74921360229E+03  0.75002372767E+03  0.00000000000E+00 0. -1.
<mgrwt>
<rscale>  1 0.30000000E+03</rscale>
<asrwt>0</asrwt>
<pdfrwt beam="1">  1       21 0.59790997E-02 0.30000000E+03</pdfrwt>
<pdfrwt beam="2">0</pdfrwt>
<totfact> 0.21198850E+04</totfact>
</mgrwt>
</event>
<event>
 6    1  0.8397183E-002  0.3000000E+03  0.7818608E-02  0.1093470E+00
         21   -1    0    0  501  502  0.00000000000E+00  0.00000000000E+00  0.31898755122E+01  0.31898755122E+01  0.00000000000E+00 0. -1.
         13   -1    0    0    0    0 -0.00000000000E+00 -0.00000000000E+00 -0.10000000000E+04  0.10000000000E+04  0.00000000000E+00 0.  1.
    9000005    2    1    2  501    0 -0.52473865807E+02  0.19300179829E+02 -0.56690800066E+03  0.56966728140E+03  0.31822556745E+01 0.  0.
         13    1    3    3    0    0 -0.29032386808E+01  0.18779790727E+01 -0.35490438274E+02  0.35658474576E+02  0.00000000000E+00 0.  1.
          3    1    3    3  501    0 -0.49570627126E+02  0.17422200756E+02 -0.53141756238E+03  0.53400880682E+03  0.00000000000E+00 0.  1.
         -3    1    1    2    0  502  0.52473865807E+02 -0.19300179829E+02 -0.42990212383E+03  0.43352259412E+03  0.00000000000E+00 0. -1.
<mgrwt>
<rscale>  1 0.30000000E+03</rscale>
<asrwt>0</asrwt>
<pdfrwt beam="1">  1       21 0.11599572E-01 0.30000000E+03</pdfrwt>
<pdfrwt beam="2">0</pdfrwt>
<totfact> 0.65900659E+03</totfact>
</mgrwt>
</event>
<event>
 6    1  0.8397183E-002  0.3000000E+03  0.7818608E-02  0.1093470E+00
         21   -1    0    0  501  502  0.00000000000E+00  0.00000000000E+00  0.27912213242E+01  0.27912213242E+01  0.00000000000E+00 0. -1.
         13   -1    0    0    0    0 -0.00000000000E+00 -0.00000000000E+00 -0.10000000000E+04  0.10000000000E+04  0.00000000000E+00 0.  1.
    9000005    2    1    2  501    0 -0.27123441569E+02 -0.44715426534E+02 -0.43080863950E+03  0.43398170302E+03  0.29806437945E+01 0.  0.
         13    1    3    3    0    0 -0.22944502828E+02 -0.36623948935E+02 -0.36332600193E+03  0.36588734267E+03  0.00000000000E+00 0.  1.
          1    1    3    3  501    0 -0.41789387416E+01 -0.80914775988E+01 -0.67482637566E+02  0.68094360351E+02  0.00000000000E+00 0.  1.
         -1    1    1    2    0  502  0.27123441569E+02  0.44715426534E+02 -0.56640013918E+03  0.56880951830E+03  0.00000000000E+00 0. -1.
<mgrwt>
<rscale>  1 0.30000000E+03</rscale>
<asrwt>0</asrwt>
<pdfrwt beam="1">  1       21 0.10149917E-01 0.30000000E+03</pdfrwt>
<pdfrwt beam="2">0</pdfrwt>
<totfact> 0.83773617E+03</totfact>
</mgrwt>
</event>
<event>
 6    1  0.8397183E-002  0.3000000E+03  0.7818608E-02  0.1093470E+00
         21   -1    0    0  501  502  0.00000000000E+00  0.00000000000E+00  0.12297343159E+01  0.12297343159E+01  0.00000000000E+00 0. -1.
         13   -1    0    0    0    0 -0.00000000000E+00 -0.00000000000E+00 -0.10000000000E+04  0.10000000000E+04  0.00000000000E+00 0.  1.
    9000005    2    1    2  501    0  0.26702304005E+02 -0.22003261585E+02 -0.42811927971E+03  0.42953077127E+03  0.36618635986E+01 0.  0.
         13    1    3    3    0    0  0.13940518583E+02 -0.92300835562E+01 -0.21274469429E+03  0.21340065007E+03  0.00000000000E+00 0.  1.
          3    1    3    3  501    0  0.12761785422E+02 -0.12773178029E+02 -0.21537458542E+03  0.21613012120E+03  0.00000000000E+00 0.  1.
         -3    1    1    2    0  502 -0.26702304005E+02  0.22003261585E+02 -0.57065098597E+03  0.57169896305E+03  0.00000000000E+00 0. -1.
<mgrwt>
<rscale>  1 0.30000000E+03</rscale>
<asrwt>0</asrwt>
<pdfrwt beam="1">  1       21 0.44717706E-02 0.30000000E+03</pdfrwt>
<pdfrwt beam="2">0</pdfrwt>
<totfact> 0.34828031E+04</totfact>
</mgrwt>
</event>
<event>
 6    1  0.8397183E-002  0.3000000E+03  0.7818608E-02  0.1093470E+00
         21   -1    0    0  501  502  0.00000000000E+00  0.00000000000E+00  0.95734595657E+00  0.95734595657E+00  0.00000000000E+00 0. -1.
         13   -1    0    0    0    0 -0.00000000000E+00 -0.00000000000E+00 -0.10000000000E+04  0.10000000000E+04  0.00000000000E+00 0.  1.
    9000005    2    1    2  501    0 -0.28113665988E+02 -0.12695029798E+02 -0.50690228854E+03  0.50785118968E+03  0.33702727942E+01 0.  0.
         13    1    3    3    0    0 -0.15177444542E+02 -0.86714995890E+01 -0.28196949727E+03  0.28251079116E+03  0.00000000000E+00 0.  1.
          3    1    3    3  501    0 -0.12936221446E+02 -0.40235302089E+01 -0.22493279127E+03  0.22534039853E+03  0.00000000000E+00 0.  1.
         -1    1    1    2    0  502  0.28113665988E+02  0.12695029798E+02 -0.49214036550E+03  0.49310615627E+03  0.00000000000E+00 0. -1.
<mgrwt>
<rscale>  1 0.30000000E+03</rscale>
<asrwt>0</asrwt>
<pdfrwt beam="1">  1       21 0.34812654E-02 0.30000000E+03</pdfrwt>
<pdfrwt beam="2">0</pdfrwt>
<totfact> 0.53091717E+04</totfact>
</mgrwt>
</event>
<event>
 6    1  0.8397183E-002  0.3000000E+03  0.7818608E-02  0.1093470E+00
         21   -1    0    0  501  502  0.00000000000E+00  0.00000000000E+00  0.16256837143E+01  0.16256837143E+01  0.00000000000E+00 0. -1.
         13   -1    0    0    0    0 -0.00000000000E+00 -0.00000000000E+00 -0.10000000000E+04  0.10000000000E+04  0.00000000000E+00 0.  1.
    9000005    2    1    2  501    0 -0.34542299108E+02  0.10561923205E+02 -0.72101237083E+03  0.72192160180E+03  0.26899097262E+01 0.  0.
         13    1    3    3    0    0 -0.14915874272E+02  0.39008655767E+01 -0.28444094791E+03  0.28485847873E+03  0.00000000000E+00 0.  1.
          1    1    3    3  501    0 -0.19626424836E+02  0.66610576278E+01 -0.43657142292E+03  0.43706312307E+03  0.00000000000E+00 0.  1.
         -3    1    1    2    0  502  0.34542299108E+02 -0.10561923205E+02 -0.27736194546E+03  0.27970408191E+03  0.00000000000E+00 0. -1.
<mgrwt>
<rscale>  1 0.30000000E+03</rscale>
<asrwt>0</asrwt>
<pdfrwt beam="1">  1       21 0.59115896E-02 0.30000000E+03</pdfrwt>
<pdfrwt beam="2">0</pdfrwt>
<totfact> 0.21617944E+04</totfact>
</mgrwt>
</event>
<event>
 6    1  0.8397183E-002  0.3000000E+03  0.7818608E-02  0.1093470E+00
         21   -1    0    0  501  502  0.00000000000E+00  0.00000000000E+00  0.12383600452E+01  0.12383600452E+01  0.00000000000E+00 0. -1.
         13   -1    0    0    0    0 -0.00000000000E+00 -0.00000000000E+00 -0.10000000000E+04  0.10000000000E+04  0.00000000000E+00 0.  1.
    9000005    2    1    2  501    0 -0.28791188686E+02  0.18855878376E+02 -0.59631159326E+03  0.59731941176E+03  0.42996185193E+01 0.  0.
         13    1    3    3    0    0 -0.39013083816E+00  0.10967075466E+01 -0.24365568309E+02  0.24393357468E+02  0.00000000000E+00 0.  1.
          3    1    3    3  501    0 -0.28401057848E+02  0.17759170830E+02 -0.57194602495E+03  0.57292605429E+03  0.00000000000E+00 0.  1.
         -1    1    1    2    0  502  0.28791188686E+02 -0.18855878376E+02 -0.40245004670E+03  0.40391894828E+03  0.00000000000E+00 0. -1.
<mgrwt>
<rscale>  1 0.30000000E+03</rscale>
<asrwt>0</asrwt>
<pdfrwt beam="1">  1       21 0.45031369E-02 0.30000000E+03</pdfrwt>
<pdfrwt beam="2">0</pdfrwt>
<totfact> 0.34417465E+04</totfact>
</mgrwt>
</event>
<event>
 6    1  0.8397183E-002  0.3000000E+03  0.7818608E-02  0.1093470E+00
         21   -1    0    0  501  502  0.00000000000E+00  0.00000000000E+00  0.16832106234E+01  0.16832106234E+01  0.00000000000E+00 0. -1.
         13   -1    0    0    0    0 -0.00000000000E+00 -0.00000000000E+00 -0.10000000000E+04  0.10000000000E+04  0.00000000000E+00 0.  1.
    9000005    2    1    2  501    0 -0.14736312220E+02 -0.35326576795E+02 -0.67763111056E+03  0.67872124611E+03  0.36717833602E+01 0.  0.
         13    1    3    3    0    0 -0.74658726267E+01 -0.22515909344E+02 -0.42072241922E+03  0.42139062574E+03  0.00000000000E+00 0.  1.
          1    1    3    3  501    0 -0.72704395934E+01 -0.12810667451E+02 -0.25690869134E+03  0.25733062037E+03  0.00000000000E+00 0.  1.
         -3    1    1    2    0  502  0.14736312220E+02  0.35326576795E+02 -0.32068567881E+03  0.32296196451E+03  0.00000000000E+00 0. -1.
<mgrwt>
<rscale>  1 0.30000000E+03</rscale>
<asrwt>0</asrwt>
<pdfrwt beam="1">  1       21 0.61207788E-02 0.30000000E+03</pdfrwt>
<pdfrwt beam="2">0</pdfrwt>
<totfact> 0.20359412E+04</totfact>
</mgrwt>
</event>
<event>
 6    1  0.8397183E-002  0.3000000E+03  0.7818608E-02  0.1093470E+00
         21   -1    0    0  501  502  0.00000000000E+00  0.00000000000E+00  0.26554883125E+01  0.26554883125E+01  0.00000000000E+00 0. -1.
         13   -1    0    0    0    0 -0.00000000000E+00 -0.00000000000E+00 -0.10000000000E+04  0.10000000000E+04  0.00000000000E+00 0.  1.
    9000005    2    1    2  501    0 -0.15624399542E+02 -0.40644157526E+02 -0.76623930421E+03  0.76748387794E+03  0.35724192586E+01 0.  0.
         13    1    3    3    0    0 -0.45368860121E+00 -0.11415067924E+01 -0.34696632562E+02  0.34718369522E+02  0.00000000000E+00 0.  1.
          3    1    3    3  501    0 -0.15170710941E+02 -0.39502650734E+02 -0.73154267165E+03  0.73276550842E+03  0.00000000000E+00 0.  1.
         -1    1    1    2    0  502  0.15624399542E+02  0.40644157526E+02 -0.23110520748E+03  0.23517161038E+03  0.00000000000E+00 0. -1.
<mgrwt>
<rscale>  1 0.30000000E+03</rscale>
<asrwt>0</asrwt>
<pdfrwt beam="1">  1       21 0.96563415E-02 0.30000000E+03</pdfrwt>
<pdfrwt beam="2">0</pdfrwt>
<totfact> 0.91573608E+03</totfact>
</mgrwt>
</event>
<event>
 6    1  0.8397183E-002  0.3000000E+03  0.7818608E-02  0.1093470E+00
         21   -1    0    0  501  502  0.00000000000E+00  0.00000000000E+00  0.19806473440E+01  0.19806473440E+01  0.00000000000E+00 0. -1.
         13   -1    0    0    0    0 -0.00000000000E+00 -0.00000000000E+00 -0.10000000000E+04  0.10000000000E+04  0.00000000000E+00 0.  1.
    9000005    2    1    2  501    0  0.27145112534E+01 -0.44357929782E+02 -0.51648348530E+03  0.51839840402E+03  0.25923347005E+01 0.  0.
         13    1    3    3    0    0  0.60799478030E-01 -0.21968648366E+02 -0.25261350131E+03  0.25356696601E+03  0.00000000000E+00 0.  1.
          3    1    3    3  501    0  0.26537117754E+01 -0.22389281416E+02 -0.26386998399E+03  0.26483143801E+03  0.00000000000E+00 0.  1.
         -1    1    1    2    0  502 -0.27145112534E+01  0.44357929782E+02 -0.48153586735E+03  0.48358224332E+03  0.00000000000E+00 0. -1.
<mgrwt>
<rscale>  1 0.30000000E+03</rscale>
<asrwt>0</asrwt>
<pdfrwt beam="1">  1       21 0.72023692E-02 0.30000000E+03</pdfrwt>
<pdfrwt beam="2">0</pdfrwt>
<totfact> 0.15353599E+04</totfact>
</mgrwt>
</event>
<event>
 6    1  0.8397183E-002  0.3000000E+03  0.7818608E-02  0.1093470E+00
         21   -1    0    0  501  502  0.00000000000E+00  0.00000000000E+00  0.23447302240E+01  0.23447302240E+01  0.00000000000E+00 0. -1.
         13   -1    0    0    0    0 -0.00000000000E+00 -0.00000000000E+00 -0.10000000000E+04  0.10000000000E+04  0.00000000000E+00 0.  1.
    9000005    2    1    2  501    0 -0.43890322111E+01  0.41329208327E+02 -0.24341227839E+03  0.24695750693E+03  0.33325504013E+01 0.  0.
         13    1    3    3    0    0 -0.74476243312E+00  0.16095414556E+02 -0.10213265034E+03  0.10339581861E+03  0.00000000000E+00 0.  1.
          1    1    3    3  501    0 -0.36442697780E+01  0.25233793771E+02 -0.14127962805E+03  0.14356168832E+03  0.00000000000E+00 0.  1.
         -1    1    1    2    0  502  0.43890322111E+01 -0.41329208327E+02 -0.75424299139E+03  0.75538722330E+03  0.00000000000E+00 0. -1.
<mgrwt>
<rscale>  1 0.30000000E+03</rscale>
<asrwt>0</asrwt>
<pdfrwt beam="1">  1       21 0.85263097E-02 0.30000000E+03</pdfrwt>
<pdfrwt beam="2">0</pdfrwt>
<totfact> 0.11418856E+04</totfact>
</mgrwt>
</event>
<event>
 6    1  0.8397183E-002  0.3000000E+03  0.7818608E-02  0.1093470E+00
         21   -1    0    0  501  502  0.00000000000E+00  0.00000000000E+00  0.24177419701E+01  0.24177419701E+01  0.00000000000E+00 0. -1.
         13   -1    0    0    0    0 -0.00000000000E+00 -0.00000000000E+00 -0.10000000000E+04  0.10000000000E+04  0.00000000000E+00 0.  1.
    9000005    2    1    2  501    0  0.36562092858E+02 -0.25275454621E+02 -0.29251976116E+03  0.29595559880E+03  0.68022460577E+01 0.  0.
         13    1    3    3    0    0  0.24121072163E+02 -0.20042842730E+02 -0.21361455549E+03  0.21590442327E+03  0.00000000000E+00 0.  1.
          3    1    3    3  501    0  0.12441020695E+02 -0.52326118905E+01 -0.78905205667E+02  0.80051175535E+02  0.00000000000E+00 0.  1.
         -3    1    1    2    0  502 -0.36562092858E+02  0.25275454621E+02 -0.70506249687E+03  0.70646214317E+03  0.00000000000E+00 0. -1.
<mgrwt>
<rscale>  1 0.30000000E+03</rscale>
<asrwt>0</asrwt>
<pdfrwt beam="1">  1       21 0.87918075E-02 0.30000000E+03</pdfrwt>
<pdfrwt beam="2">0</pdfrwt>
<totfact> 0.10816991E+04</totfact>
</mgrwt>
</event>
<event>
 6    1  0.8397183E-002  0.3000000E+03  0.7818608E-02  0.1093470E+00
         21   -1    0    0  501  502  0.00000000000E+00  0.00000000000E+00  0.13779325950E+01  0.13779325950E+01  0.00000000000E+00 0. -1.
         13   -1    0    0    0    0 -0.00000000000E+00 -0.00000000000E+00 -0.10000000000E+04  0.10000000000E+04  0.00000000000E+00 0.  1.
    9000005    2    1    2  501    0 -0.24546152196E+02 -0.26303806891E+02 -0.61062217106E+03  0.61171355982E+03  0.62960015731E+01 0.  0.
         13    1    3    3    0    0 -0.20415099061E+02 -0.21041644140E+02 -0.53202947044E+03  0.53283663958E+03  0.00000000000E+00 0.  1.
          1    1    3    3  501    0 -0.41310531346E+01 -0.52621627506E+01 -0.78592700623E+02  0.78876920249E+02  0.00000000000E+00 0.  1.
         -3    1    1    2    0  502  0.24546152196E+02  0.26303806891E+02 -0.38799989634E+03  0.38966437277E+03  0.00000000000E+00 0. -1.
<mgrwt>
<rscale>  1 0.30000000E+03</rscale>
<asrwt>0</asrwt>
<pdfrwt beam="1">  1       21 0.50106745E-02 0.30000000E+03</pdfrwt>
<pdfrwt beam="2">0</pdfrwt>
<totfact> 0.28700119E+04</totfact>
</mgrwt>
</event>
<event>
 6    1  0.8397183E-002  0.3000000E+03  0.7818608E-02  0.1093470E+00
         21   -1    0    0  501  502  0.00000000000E+00  0.00000000000E+00  0.16278231197E+01  0.16278231197E+01  0.00000000000E+00 0. -1.
         13   -1    0    0    0    0 -0.00000000000E+00 -0.00000000000E+00 -0.10000000000E+04  0.10000000000E+04  0.00000000000E+00 0.  1.
    9000005    2    1    2  501    0  0.20625860540E+02  0.22244480235E+02 -0.17145404557E+03  0.17415344955E+03  0.35624744423E+01 0.  0.
         13    1    3    3    0    0  0.12657801386E+02  0.15780716016E+02 -0.10877242351E+03  0.11063765657E+03  0.00000000000E+00 0.  1.
          1    1    3    3  501    0  0.79680591544E+01  0.64637642188E+01 -0.62681622060E+02  0.63515792986E+02  0.00000000000E+00 0.  1.
         -1    1    1    2    0  502 -0.20625860540E+02 -0.22244480235E+02 -0.82691813131E+03  0.82747437357E+03  0.00000000000E+00 0. -1.
<mgrwt>
<rscale>  1 0.30000000E+03</rscale>
<asrwt>0</asrwt>
<pdfrwt beam="1">  1       21 0.59193693E-02 0.30000000E+03</pdfrwt>
<pdfrwt beam="2">0</pdfrwt>
<totfact> 0.21568994E+04</totfact>
</mgrwt>
</event>
<event>
 6    1  0.8397183E-002  0.3000000E+03  0.7818608E-02  0.1093470E+00
         21   -1    0    0  501  502  0.00000000000E+00  0.00000000000E+00  0.10599544736E+01  0.10599544736E+01  0.00000000000E+00 0. -1.
         13   -1    0    0    0    0 -0.00000000000E+00 -0.00000000000E+00 -0.10000000000E+04  0.10000000000E+04  0.00000000000E+00 0.  1.
    9000005    2    1    2  501    0 -0.61606410402E+00  0.30320373493E+02 -0.67933916998E+03  0.68002347020E+03  0.32415385625E+01 0.  0.
         13    1    3    3    0    0 -0.16951079799E+01  0.23449816501E+02 -0.51045165117E+03  0.51099281352E+03  0.00000000000E+00 0.  1.
          3    1    3    3  501    0  0.10790438759E+01  0.68705569920E+01 -0.16888751881E+03  0.16903065668E+03  0.00000000000E+00 0.  1.
         -3    1    1    2    0  502  0.61606410402E+00 -0.30320373493E+02 -0.31960087555E+03  0.32103648427E+03  0.00000000000E+00 0. -1.
<mgrwt>
<rscale>  1 0.30000000E+03</rscale>
<asrwt>0</asrwt>
<pdfrwt beam="1">  1       21 0.38543880E-02 0.30000000E+03</pdfrwt>
<pdfrwt beam="2">0</pdfrwt>
<totfact> 0.44754315E+04</totfact>
</mgrwt>
</event>
<event>
 6    1  0.8397183E-002  0.3000000E+03  0.7818608E-02  0.1093470E+00
         21   -1    0    0  501  502  0.00000000000E+00  0.00000000000E+00  0.10625696730E+01  0.10625696730E+01  0.00000000000E+00 0. -1.
         13   -1    0    0    0    0 -0.00000000000E+00 -0.00000000000E+00 -0.10000000000E+04  0.10000000000E+04  0.00000000000E+00 0.  1.
    9000005    2    1    2  501    0  0.25829606035E+02  0.15811932260E+02 -0.68245585427E+03  0.68313526079E+03  0.32566483262E+01 0.  0.
         13    1    3    3    0    0  0.13816706705E+02  0.68724022242E+01 -0.36667454463E+03  0.36699911850E+03  0.00000000000E+00 0.  1.
          3    1    3    3  501    0  0.12012899331E+02  0.89395300360E+01 -0.31578130963E+03  0.31613614229E+03  0.00000000000E+00 0.  1.
         -3    1    1    2    0  502 -0.25829606035E+02 -0.15811932260E+02 -0.31648157606E+03  0.31792730889E+03  0.00000000000E+00 0. -1.
<mgrwt>
<rscale>  1 0.30000000E+03</rscale>
<asrwt>0</asrwt>
<pdfrwt beam="1">  1       21 0.38638979E-02 0.30000000E+03</pdfrwt>
<pdfrwt beam="2">0</pdfrwt>
<totfact> 0.44569285E+04</totfact>
</mgrwt>
</event>
<event>
 6    1  0.8397183E-002  0.3000000E+03  0.7818608E-02  0.1093470E+00
         21   -1    0    0  501  502  0.00000000000E+00  0.00000000000E+00  0.12061739556E+01  0.12061739556E+01  0.00000000000E+00 0. -1.
         13   -1    0    0    0    0 -0.00000000000E+00 -0.00000000000E+00 -0.10000000000E+04  0.10000000000E+04  0.00000000000E+00 0.  1.
    9000005    2    1    2  501    0 -0.26841053719E+02 -0.21759915147E+02 -0.53511745360E+03  0.53624411697E+03  0.36232260363E+01 0.  0.
         13    1    3    3    0    0 -0.11731419728E+02 -0.10969864342E+02 -0.22660922305E+03  0.22717769279E+03  0.00000000000E+00 0.  1.
          1    1    3    3  501    0 -0.15109633991E+02 -0.10790050805E+02 -0.30850823055E+03  0.30906642417E+03  0.00000000000E+00 0.  1.
         -1    1    1    2    0  502  0.26841053719E+02  0.21759915147E+02 -0.46367637245E+03  0.46496205699E+03  0.00000000000E+00 0. -1.
<mgrwt>
<rscale>  1 0.30000000E+03</rscale>
<asrwt>0</asrwt>
<pdfrwt beam="1">  1       21 0.43860964E-02 0.30000000E+03</pdfrwt>
<pdfrwt beam="2">0</pdfrwt>
<totfact> 0.35988811E+04</totfact>
</mgrwt>
</event>
<event>
 6    1  0.8397183E-002  0.3000000E+03  0.7818608E-02  0.1093470E+00
         21   -1    0    0  501  502  0.00000000000E+00  0.00000000000E+00  0.20970841961E+01  0.20970841961E+01  0.00000000000E+00 0. -1.
         13   -1    0    0    0    0 -0.00000000000E+00 -0.00000000000E+00 -0.10000000000E+04  0.10000000000E+04  0.00000000000E+00 0.  1.
    9000005    2    1    2  501    0 -0.34526837485E+02  0.16065260273E+02 -0.22810157750E+03  0.23135439331E+03  0.66581193358E+01 0.  0.
         13    1    3    3    0    0 -0.16823811895E+01 -0.60074797851E+00 -0.85053095795E+01  0.86908915333E+01  0.00000000000E+00 0.  1.
          1    1    3    3  501    0 -0.32844456296E+02  0.16666008251E+02 -0.21959626792E+03  0.22266350178E+03  0.00000000000E+00 0.  1.
         -1    1    1    2    0  502  0.34526837485E+02 -0.16065260273E+02 -0.76980133831E+03  0.77074269089E+03  0.00000000000E+00 0. -1.
<mgrwt>
<rscale>  1 0.30000000E+03</rscale>
<asrwt>0</asrwt>
<pdfrwt beam="1">  1       21 0.76257768E-02 0.30000000E+03</pdfrwt>
<pdfrwt beam="2">0</pdfrwt>
<totfact> 0.13893791E+04</totfact>
</mgrwt>
</event>
<event>
 6    1  0.8397183E-002  0.3000000E+03  0.7818608E-02  0.1093470E+00
         21   -1    0    0  501  502  0.00000000000E+00  0.00000000000E+00  0.92069572082E+00  0.92069572082E+00  0.00000000000E+00 0. -1.
         13   -1    0    0    0    0 -0.00000000000E+00 -0.00000000000E+00 -0.10000000000E+04  0.10000000000E+04  0.00000000000E+00 0.  1.
    9000005    2    1    2  501    0 -0.29860178565E+02  0.36223352773E+01 -0.44865380249E+03  0.44967394100E+03  0.34157200849E+01 0.  0.
         13    1    3    3    0    0 -0.14500099142E+02  0.91426086961E+00 -0.19436849055E+03  0.19491074590E+03  0.00000000000E+00 0.  1.
          3    1    3    3  501    0 -0.15360079423E+02  0.27080744077E+01 -0.25428531195E+03  0.25476319510E+03  0.00000000000E+00 0.  1.
         -1    1    1    2    0  502  0.29860178565E+02 -0.36223352773E+01 -0.55042550179E+03  0.55124675472E+03  0.00000000000E+00 0. -1.
<mgrwt>
<rscale>  1 0.30000000E+03</rscale>
<asrwt>0</asrwt>
<pdfrwt beam="1">  1       21 0.33479915E-02 0.30000000E+03</pdfrwt>
<pdfrwt beam="2">0</pdfrwt>
<totfact> 0.56671523E+04</totfact>
</mgrwt>
</event>
<event>
 6    1  0.8397183E-002  0.3000000E+03  0.7818608E-02  0.1093470E+00
         21   -1    0    0  501  502  0.00000000000E+00  0.00000000000E+00  0.85979770069E+01  0.85979770069E+01  0.00000000000E+00 0. -1.
         13   -1    0    0    0    0 -0.00000000000E+00 -0.00000000000E+00 -0.10000000000E+04  0.10000000000E+04  0.00000000000E+00 0.  1.
    9000005    2    1    2  501    0 -0.40768053833E+02  0.78463566871E+02 -0.34456472816E+03  0.35574496788E+03  0.33263704364E+01 0.  0.
         13    1    3    3    0    0 -0.39878228532E+02  0.75536583037E+02 -0.33168843645E+03  0.34251024417E+03  0.00000000000E+00 0.  1.
          1    1    3    3  501    0 -0.88982530093E+00  0.29269838344E+01 -0.12876291713E+02  0.13234723711E+02  0.00000000000E+00 0.  1.
         -1    1    1    2    0  502  0.40768053833E+02 -0.78463566871E+02 -0.64683729483E+03  0.65285300913E+03  0.00000000000E+00 0. -1.
<mgrwt>
<rscale>  1 0.30000000E+03</rscale>
<asrwt>0</asrwt>
<pdfrwt beam="1">  1       21 0.31265437E-01 0.30000000E+03</pdfrwt>
<pdfrwt beam="2">0</pdfrwt>
<totfact> 0.10007694E+03</totfact>
</mgrwt>
</event>
<event>
 6    1  0.8397183E-002  0.3000000E+03  0.7818608E-02  0.1093470E+00
         21   -1    0    0  501  502  0.00000000000E+00  0.00000000000E+00  0.11165588165E+01  0.11165588165E+01  0.00000000000E+00 0. -1.
         13   -1    0    0    0    0 -0.00000000000E+00 -0.00000000000E+00 -0.10000000000E+04  0.10000000000E+04  0.00000000000E+00 0.  1.
    9000005    2    1    2  501    0 -0.27857246169E+02  0.15111792960E+02 -0.34641466345E+03  0.34787854831E+03  0.34601838159E+01 0.  0.
         13    1    3    3    0    0 -0.24037049963E+02  0.13905767523E+02 -0.31128685250E+03  0.31252304663E+03  0.00000000000E+00 0.  1.
          3    1    3    3  501    0 -0.38201962061E+01  0.12060254369E+01 -0.35127810956E+02  0.35355501679E+02  0.00000000000E+00 0.  1.
         -1    1    1    2    0  502  0.27857246169E+02 -0.15111792960E+02 -0.65246877773E+03  0.65323801050E+03  0.00000000000E+00 0. -1.
<mgrwt>
<rscale>  1 0.30000000E+03</rscale>
<asrwt>0</asrwt>
<pdfrwt beam="1">  1       21 0.40602224E-02 0.30000000E+03</pdfrwt>
<pdfrwt beam="2">0</pdfrwt>
<totfact> 0.41002002E+04</totfact>
</mgrwt>
</event>
<event>
 6    1  0.8397183E-002  0.3000000E+03  0.7818608E-02  0.1093470E+00
         21   -1    0    0  501  502  0.00000000000E+00  0.00000000000E+00  0.10265344862E+01  0.10265344862E+01  0.00000000000E+00 0. -1.
         13   -1    0    0    0    0 -0.00000000000E+00 -0.00000000000E+00 -0.10000000000E+04  0.10000000000E+04  0.00000000000E+00 0.  1.
    9000005    2    1    2  501    0 -0.11684114147E+02  0.29700331045E+02 -0.47469128116E+03  0.47577379816E+03  0.32041252126E+01 0.  0.
         13    1    3    3    0    0 -0.10491204160E+02  0.25072831927E+02 -0.38787142450E+03  0.38882252277E+03  0.00000000000E+00 0.  1.
          3    1    3    3  501    0 -0.11929099871E+01  0.46274991184E+01 -0.86819856658E+02  0.86951275393E+02  0.00000000000E+00 0.  1.
         -1    1    1    2    0  502  0.11684114147E+02 -0.29700331045E+02 -0.52428218435E+03  0.52525273632E+03  0.00000000000E+00 0. -1.
<mgrwt>
<rscale>  1 0.30000000E+03</rscale>
<asrwt>0</asrwt>
<pdfrwt beam="1">  1       21 0.37328605E-02 0.30000000E+03</pdfrwt>
<pdfrwt beam="2">0</pdfrwt>
<totfact> 0.47229172E+04</totfact>
</mgrwt>
</event>
<event>
 6    1  0.8397183E-002  0.3000000E+03  0.7818608E-02  0.1093470E+00
         21   -1    0    0  501  502  0.00000000000E+00  0.00000000000E+00  0.95485807983E+00  0.95485807983E+00  0.00000000000E+00 0. -1.
         13   -1    0    0    0    0 -0.00000000000E+00 -0.00000000000E+00 -0.10000000000E+04  0.10000000000E+04  0.00000000000E+00 0.  1.
    9000005    2    1    2  501    0 -0.20429321636E+02  0.22637765114E+02 -0.57417719031E+03  0.57499405953E+03  0.29827899482E+01 0.  0.
         13    1    3    3    0    0 -0.12430190975E+01  0.10257197992E+01 -0.44358539061E+02  0.44387804465E+02  0.00000000000E+00 0.  1.
          1    1    3    3  501    0 -0.19186302539E+02  0.21612045315E+02 -0.52981865124E+03  0.53060625507E+03  0.00000000000E+00 0.  1.
         -1    1    1    2    0  502  0.20429321636E+02 -0.22637765114E+02 -0.42486795161E+03  0.42596079855E+03  0.00000000000E+00 0. -1.
<mgrwt>
<rscale>  1 0.30000000E+03</rscale>
<asrwt>0</asrwt>
<pdfrwt beam="1">  1       21 0.34722185E-02 0.30000000E+03</pdfrwt>
<pdfrwt beam="2">0</pdfrwt>
<totfact> 0.53323439E+04</totfact>
</mgrwt>
</event>
<event>
 6    1  0.8397183E-002  0.3000000E+03  0.7818608E-02  0.1093470E+00
         21   -1    0    0  501  502  0.00000000000E+00  0.00000000000E+00  0.13717830585E+01  0.13717830585E+01  0.00000000000E+00 0. -1.
         13   -1    0    0    0    0 -0.00000000000E+00 -0.00000000000E+00 -0.10000000000E+04  0.10000000000E+04  0.00000000000E+00 0.  1.
    9000005    2    1    2  501    0 -0.36611043716E+02  0.42313341946E+01 -0.53972994657E+03  0.54099596347E+03  0.31534990739E+01 0.  0.
         13    1    3    3    0    0 -0.15632682360E+02  0.32548370833E+01 -0.24206738688E+03  0.24259347582E+03  0.00000000000E+00 0.  1.
          3    1    3    3  501    0 -0.20978361355E+02  0.97649711137E+00 -0.29766255969E+03  0.29840248765E+03  0.00000000000E+00 0.  1.
         -3    1    1    2    0  502  0.36611043716E+02 -0.42313341946E+01 -0.45889827037E+03  0.46037581959E+03  0.00000000000E+00 0. -1.
<mgrwt>
<rscale>  1 0.30000000E+03</rscale>
<asrwt>0</asrwt>
<pdfrwt beam="1">  1       21 0.49883126E-02 0.30000000E+03</pdfrwt>
<pdfrwt beam="2">0</pdfrwt>
<totfact> 0.28919793E+04</totfact>
</mgrwt>
</event>
<event>
 6    1  0.8397183E-002  0.3000000E+03  0.7818608E-02  0.1093470E+00
         21   -1    0    0  501  502  0.00000000000E+00  0.00000000000E+00  0.16974846426E+01  0.16974846426E+01  0.00000000000E+00 0. -1.
         13   -1    0    0    0    0 -0.00000000000E+00 -0.00000000000E+00 -0.10000000000E+04  0.10000000000E+04  0.00000000000E+00 0.  1.
    9000005    2    1    2  501    0 -0.19161263932E+02 -0.28946924969E+02 -0.76812249157E+03  0.76891449160E+03  0.35006900800E+01 0.  0.
         13    1    3    3    0    0 -0.12349193929E+02 -0.15896753401E+02 -0.42549210224E+03  0.42596800165E+03  0.00000000000E+00 0.  1.
          3    1    3    3  501    0 -0.68120700030E+01 -0.13050171568E+02 -0.34263038933E+03  0.34294648995E+03  0.00000000000E+00 0.  1.
         -3    1    1    2    0  502  0.19161263932E+02  0.28946924969E+02 -0.23018002379E+03  0.23278299305E+03  0.00000000000E+00 0. -1.
<mgrwt>
<rscale>  1 0.30000000E+03</rscale>
<asrwt>0</asrwt>
<pdfrwt beam="1">  1       21 0.61726844E-02 0.30000000E+03</pdfrwt>
<pdfrwt beam="2">0</pdfrwt>
<totfact> 0.20064755E+04</totfact>
</mgrwt>
</event>
<event>
 6    1  0.8397183E-002  0.3000000E+03  0.7818608E-02  0.1093470E+00
         21   -1    0    0  501  502  0.00000000000E+00  0.00000000000E+00  0.12402954547E+02  0.12402954547E+02  0.00000000000E+00 0. -1.
         13   -1    0    0    0    0 -0.00000000000E+00 -0.00000000000E+00 -0.10000000000E+04  0.10000000000E+04  0.00000000000E+00 0.  1.
    9000005    2    1    2  501    0  0.45958800051E+02 -0.95503620163E+02 -0.64860846366E+03  0.65723199381E+03  0.52727399777E+01 0.  0.
         13    1    3    3    0    0  0.41797325867E+02 -0.83742392199E+02 -0.56571937968E+03  0.57340929644E+03  0.00000000000E+00 0.  1.
          3    1    3    3  501    0  0.41614741846E+01 -0.11761227964E+02 -0.82889083980E+02  0.83822697365E+02  0.00000000000E+00 0.  1.
         -1    1    1    2    0  502 -0.45958800051E+02  0.95503620163E+02 -0.33898858180E+03  0.35517096074E+03  0.00000000000E+00 0. -1.
<mgrwt>
<rscale>  1 0.30000000E+03</rscale>
<asrwt>0</asrwt>
<pdfrwt beam="1">  1       21 0.45101748E-01 0.30000000E+03</pdfrwt>
<pdfrwt beam="2">0</pdfrwt>
<totfact> 0.46883327E+02</totfact>
</mgrwt>
</event>
<event>
 6    1  0.8397183E-002  0.3000000E+03  0.7818608E-02  0.1093470E+00
         21   -1    0    0  501  502  0.00000000000E+00  0.00000000000E+00  0.13482016948E+01  0.13482016948E+01  0.00000000000E+00 0. -1.
         13   -1    0    0    0    0 -0.00000000000E+00 -0.00000000000E+00 -0.10000000000E+04  0.10000000000E+04  0.00000000000E+00 0.  1.
    9000005    2    1    2  501    0 -0.22174060100E+02 -0.20230488263E+02 -0.21414629765E+03  0.21626868843E+03  0.35422026412E+01 0.  0.
         13    1    3    3    0    0 -0.17144014453E+02 -0.16711669480E+02 -0.17836371877E+03  0.17996336655E+03  0.00000000000E+00 0.  1.
          3    1    3    3  501    0 -0.50300456465E+01 -0.35188187824E+01 -0.35782578882E+02  0.36305321873E+02  0.00000000000E+00 0.  1.
         -3    1    1    2    0  502  0.22174060100E+02  0.20230488263E+02 -0.78450550065E+03  0.78507951327E+03  0.00000000000E+00 0. -1.
<mgrwt>
<rscale>  1 0.30000000E+03</rscale>
<asrwt>0</asrwt>
<pdfrwt beam="1">  1       21 0.49025620E-02 0.30000000E+03</pdfrwt>
<pdfrwt beam="2">0</pdfrwt>
<totfact> 0.29786944E+04</totfact>
</mgrwt>
</event>
<event>
 6    1  0.8397183E-002  0.3000000E+03  0.7818608E-02  0.1093470E+00
         21   -1    0    0  501  502  0.00000000000E+00  0.00000000000E+00  0.33110221601E+01  0.33110221601E+01  0.00000000000E+00 0. -1.
         13   -1    0    0    0    0 -0.00000000000E+00 -0.00000000000E+00 -0.10000000000E+04  0.10000000000E+04  0.00000000000E+00 0.  1.
    9000005    2    1    2  501    0  0.31848742350E+02  0.46410388847E+02 -0.39684242538E+03  0.40082936013E+03  0.34639255103E+01 0.  0.
         13    1    3    3    0    0  0.28560776055E+02  0.40719004217E+02 -0.35710863237E+03  0.36055558594E+03  0.00000000000E+00 0.  1.
          3    1    3    3  501    0  0.32879662951E+01  0.56913846298E+01 -0.39733793003E+02  0.40273774193E+02  0.00000000000E+00 0.  1.
         -3    1    1    2    0  502 -0.31848742350E+02 -0.46410388847E+02 -0.59984655246E+03  0.60248166203E+03  0.00000000000E+00 0. -1.
<mgrwt>
<rscale>  1 0.30000000E+03</rscale>
<asrwt>0</asrwt>
<pdfrwt beam="1">  1       21 0.12040106E-01 0.30000000E+03</pdfrwt>
<pdfrwt beam="2">0</pdfrwt>
<totfact> 0.61596984E+03</totfact>
</mgrwt>
</event>
<event>
 6    1  0.8397183E-002  0.3000000E+03  0.7818608E-02  0.1093470E+00
         21   -1    0    0  501  502  0.00000000000E+00  0.00000000000E+00  0.29287618874E+01  0.29287618874E+01  0.00000000000E+00 0. -1.
         13   -1    0    0    0    0 -0.00000000000E+00 -0.00000000000E+00 -0.10000000000E+04  0.10000000000E+04  0.00000000000E+00 0.  1.
    9000005    2    1    2  501    0  0.11133552790E+02  0.41569171725E+02 -0.20093194086E+03  0.20562723005E+03  0.75472409448E+01 0.  0.
         13    1    3    3    0    0  0.33464118772E+01  0.16276564580E+02 -0.94816781951E+02  0.96261867666E+02  0.00000000000E+00 0.  1.
          3    1    3    3  501    0  0.77871409129E+01  0.25292607145E+02 -0.10611515891E+03  0.10936536238E+03  0.00000000000E+00 0.  1.
         -1    1    1    2    0  502 -0.11133552790E+02 -0.41569171725E+02 -0.79613929725E+03  0.79730153184E+03  0.00000000000E+00 0. -1.
<mgrwt>
<rscale>  1 0.30000000E+03</rscale>
<asrwt>0</asrwt>
<pdfrwt beam="1">  1       21 0.10650066E-01 0.30000000E+03</pdfrwt>
<pdfrwt beam="2">0</pdfrwt>
<totfact> 0.76857473E+03</totfact>
</mgrwt>
</event>
<event>
 6    1  0.8397183E-002  0.3000000E+03  0.7818608E-02  0.1093470E+00
         21   -1    0    0  501  502  0.00000000000E+00  0.00000000000E+00  0.16328772785E+01  0.16328772785E+01  0.00000000000E+00 0. -1.
         13   -1    0    0    0    0 -0.00000000000E+00 -0.00000000000E+00 -0.10000000000E+04  0.10000000000E+04  0.00000000000E+00 0.  1.
    9000005    2    1    2  501    0  0.37200962184E+02  0.92292061272E+01 -0.65463510237E+03  0.65577048897E+03  0.43274834067E+01 0.  0.
         13    1    3    3    0    0  0.26428897122E+02  0.84605878887E+01 -0.48117126014E+03  0.48197079760E+03  0.00000000000E+00 0.  1.
          1    1    3    3  501    0  0.10772065062E+02  0.76861823845E+00 -0.17346384223E+03  0.17379969137E+03  0.00000000000E+00 0.  1.
         -1    1    1    2    0  502 -0.37200962184E+02 -0.92292061272E+01 -0.34373202035E+03  0.34586238831E+03  0.00000000000E+00 0. -1.
<mgrwt>
<rscale>  1 0.30000000E+03</rscale>
<asrwt>0</asrwt>
<pdfrwt beam="1">  1       21 0.59377481E-02 0.30000000E+03</pdfrwt>
<pdfrwt beam="2">0</pdfrwt>
<totfact> 0.21454036E+04</totfact>
</mgrwt>
</event>
<event>
 6    1  0.8397183E-002  0.3000000E+03  0.7818608E-02  0.1093470E+00
         21   -1    0    0  501  502  0.00000000000E+00  0.00000000000E+00  0.11824147003E+01  0.11824147003E+01  0.00000000000E+00 0. -1.
         13   -1    0    0    0    0 -0.00000000000E+00 -0.00000000000E+00 -0.10000000000E+04  0.10000000000E+04  0.00000000000E+00 0.  1.
    9000005    2    1    2  501    0 -0.27977083434E+02 -0.19838245807E+02 -0.51035527133E+03  0.51151752381E+03  0.33765373417E+01 0.  0.
         13    1    3    3    0    0 -0.23793325321E+02 -0.17254380763E+02 -0.45259816467E+03  0.45355146857E+03  0.00000000000E+00 0.  1.
          1    1    3    3  501    0 -0.41837581136E+01 -0.25838650440E+01 -0.57757106661E+02  0.57966055242E+02  0.00000000000E+00 0.  1.
         -1    1    1    2    0  502  0.27977083434E+02  0.19838245807E+02 -0.48846231397E+03  0.48966489089E+03  0.00000000000E+00 0. -1.
<mgrwt>
<rscale>  1 0.30000000E+03</rscale>
<asrwt>0</asrwt>
<pdfrwt beam="1">  1       21 0.42996989E-02 0.30000000E+03</pdfrwt>
<pdfrwt beam="2">0</pdfrwt>
<totfact> 0.37221152E+04</totfact>
</mgrwt>
</event>
<event>
 6    1  0.8397183E-002  0.3000000E+03  0.7818608E-02  0.1093470E+00
         21   -1    0    0  501  502  0.00000000000E+00  0.00000000000E+00  0.12488455487E+01  0.12488455487E+01  0.00000000000E+00 0. -1.
         13   -1    0    0    0    0 -0.00000000000E+00 -0.00000000000E+00 -0.10000000000E+04  0.10000000000E+04  0.00000000000E+00 0.  1.
    9000005    2    1    2  501    0  0.49589085992E+00  0.31143240333E+02 -0.73459772249E+03  0.73526541948E+03  0.33579561969E+01 0.  0.
         13    1    3    3    0    0  0.71961470708E+00  0.17954405901E+02 -0.38542769788E+03  0.38584632800E+03  0.00000000000E+00 0.  1.
          1    1    3    3  501    0 -0.22372384715E+00  0.13188834431E+02 -0.34917002461E+03  0.34941909148E+03  0.00000000000E+00 0.  1.
         -1    1    1    2    0  502 -0.49589085992E+00 -0.31143240333E+02 -0.26415343197E+03  0.26598342607E+03  0.00000000000E+00 0. -1.
<mgrwt>
<rscale>  1 0.30000000E+03</rscale>
<asrwt>0</asrwt>
<pdfrwt beam="1">  1       21 0.45412661E-02 0.30000000E+03</pdfrwt>
<pdfrwt beam="2">0</pdfrwt>
<totfact> 0.33928346E+04</totfact>
</mgrwt>
</event>
<event>
 6    1  0.8397183E-002  0.3000000E+03  0.7818608E-02  0.1093470E+00
         21   -1    0    0  501  502  0.00000000000E+00  0.00000000000E+00  0.30903665865E+01  0.30903665865E+01  0.00000000000E+00 0. -1.
         13   -1    0    0    0    0 -0.00000000000E+00 -0.00000000000E+00 -0.10000000000E+04  0.10000000000E+04  0.00000000000E+00 0.  1.
    9000005    2    1    2  501    0  0.52932710036E+02 -0.78408221951E+01 -0.36452052905E+03  0.36844138518E+03  0.32385072365E+01 0.  0.
         13    1    3    3    0    0  0.10162347974E+01  0.28329563973E-01 -0.46253704894E+01  0.47357774327E+01  0.00000000000E+00 0.  1.
          1    1    3    3  501    0  0.51916475238E+02 -0.78691517590E+01 -0.35989515856E+03  0.36370560775E+03  0.00000000000E+00 0.  1.
         -3    1    1    2    0  502 -0.52932710036E+02  0.78408221951E+01 -0.63238910436E+03  0.63464898140E+03  0.00000000000E+00 0. -1.
<mgrwt>
<rscale>  1 0.30000000E+03</rscale>
<asrwt>0</asrwt>
<pdfrwt beam="1">  1       21 0.11237720E-01 0.30000000E+03</pdfrwt>
<pdfrwt beam="2">0</pdfrwt>
<totfact> 0.69781058E+03</totfact>
</mgrwt>
</event>
<event>
 6    1  0.8397183E-002  0.3000000E+03  0.7818608E-02  0.1093470E+00
         21   -1    0    0  501  502  0.00000000000E+00  0.00000000000E+00  0.30074529175E+01  0.30074529175E+01  0.00000000000E+00 0. -1.
         13   -1    0    0    0    0 -0.00000000000E+00 -0.00000000000E+00 -0.10000000000E+04  0.10000000000E+04  0.00000000000E+00 0.  1.
    9000005    2    1    2  501    0  0.43984492038E+02 -0.32529392382E+02 -0.51353201334E+03  0.51646158191E+03  0.49638648822E+01 0.  0.
         13    1    3    3    0    0  0.79682902139E+01 -0.63666750590E+01 -0.11485529124E+03  0.11530726832E+03  0.00000000000E+00 0.  1.
          3    1    3    3  501    0  0.36016201825E+02 -0.26162717323E+02 -0.39867672210E+03  0.40115431359E+03  0.00000000000E+00 0.  1.
         -1    1    1    2    0  502 -0.43984492038E+02  0.32529392382E+02 -0.48346053374E+03  0.48654587101E+03  0.00000000000E+00 0. -1.
<mgrwt>
<rscale>  1 0.30000000E+03</rscale>
<asrwt>0</asrwt>
<pdfrwt beam="1">  1       21 0.10936215E-01 0.30000000E+03</pdfrwt>
<pdfrwt beam="2">0</pdfrwt>
<totfact> 0.73282786E+03</totfact>
</mgrwt>
</event>
<event>
 6    1  0.8397183E-002  0.3000000E+03  0.7818608E-02  0.1093470E+00
         21   -1    0    0  501  502  0.00000000000E+00  0.00000000000E+00  0.25985943090E+02  0.25985943090E+02  0.00000000000E+00 0. -1.
         13   -1    0    0    0    0 -0.00000000000E+00 -0.00000000000E+00 -0.10000000000E+04  0.10000000000E+04  0.00000000000E+00 0.  1.
    9000005    2    1    2  501    0  0.36878832730E+02 -0.15689310615E+03 -0.47986383897E+03  0.50621682805E+03  0.32677187173E+01 0.  0.
         13    1    3    3    0    0  0.11868653854E+02 -0.44788483367E+02 -0.13575961965E+03  0.14344876268E+03  0.00000000000E+00 0.  1.
          1    1    3    3  501    0  0.25010178877E+02 -0.11210462279E+03 -0.34410421933E+03  0.36276806537E+03  0.00000000000E+00 0.  1.
         -1    1    1    2    0  502 -0.36878832730E+02  0.15689310615E+03 -0.49415021794E+03  0.51976911504E+03  0.00000000000E+00 0. -1.
<mgrwt>
<rscale>  1 0.30000000E+03</rscale>
<asrwt>0</asrwt>
<pdfrwt beam="1">  1       21 0.94494538E-01 0.30000000E+03</pdfrwt>
<pdfrwt beam="2">0</pdfrwt>
<totfact> 0.85108058E+01</totfact>
</mgrwt>
</event>
<event>
 6    1  0.8397183E-002  0.3000000E+03  0.7818608E-02  0.1093470E+00
         21   -1    0    0  501  502  0.00000000000E+00  0.00000000000E+00  0.44621869247E+01  0.44621869247E+01  0.00000000000E+00 0. -1.
         13   -1    0    0    0    0 -0.00000000000E+00 -0.00000000000E+00 -0.10000000000E+04  0.10000000000E+04  0.00000000000E+00 0.  1.
    9000005    2    1    2  501    0  0.41638699413E+02  0.41914226437E+02 -0.26444870505E+03  0.27098971468E+03  0.34240609528E+01 0.  0.
         13    1    3    3    0    0  0.38973217511E+02  0.40158249766E+02 -0.24819105889E+03  0.25442169409E+03  0.00000000000E+00 0.  1.
          3    1    3    3  501    0  0.26654819027E+01  0.17559766711E+01 -0.16257646152E+02  0.16568020590E+02  0.00000000000E+00 0.  1.
         -1    1    1    2    0  502 -0.41638699413E+02 -0.41914226437E+02 -0.73108910803E+03  0.73347247225E+03  0.00000000000E+00 0. -1.
<mgrwt>
<rscale>  1 0.30000000E+03</rscale>
<asrwt>0</asrwt>
<pdfrwt beam="1">  1       21 0.16226168E-01 0.30000000E+03</pdfrwt>
<pdfrwt beam="2">0</pdfrwt>
<totfact> 0.35582918E+03</totfact>
</mgrwt>
</event>
<event>
 6    1  0.8397183E-002  0.3000000E+03  0.7818608E-02  0.1093470E+00
         21   -1    0    0  501  502  0.00000000000E+00  0.00000000000E+00  0.16231232392E+01  0.16231232392E+01  0.00000000000E+00 0. -1.
         13   -1    0    0    0    0 -0.00000000000E+00 -0.00000000000E+00 -0.10000000000E+04  0.10000000000E+04  0.00000000000E+00 0.  1.
    9000005    2    1    2  501    0  0.22736505281E+02 -0.29243071651E+02 -0.30518617646E+03  0.30744342540E+03  0.32789641410E+01 0.  0.
         13    1    3    3    0    0  0.76920547573E+01 -0.80452997561E+01 -0.83563309059E+02  0.84301371137E+02  0.00000000000E+00 0.  1.
          1    1    3    3  501    0  0.15044450524E+02 -0.21197771895E+02 -0.22162286740E+03  0.22314205426E+03  0.00000000000E+00 0.  1.
         -3    1    1    2    0  502 -0.22736505281E+02  0.29243071651E+02 -0.69319070030E+03  0.69417969784E+03  0.00000000000E+00 0. -1.
<mgrwt>
<rscale>  1 0.30000000E+03</rscale>
<asrwt>0</asrwt>
<pdfrwt beam="1">  1       21 0.59022788E-02 0.30000000E+03</pdfrwt>
<pdfrwt beam="2">0</pdfrwt>
<totfact> 0.21676757E+04</totfact>
</mgrwt>
</event>
<event>
 6    1  0.8397183E-002  0.3000000E+03  0.7818608E-02  0.1093470E+00
         21   -1    0    0  501  502  0.00000000000E+00  0.00000000000E+00  0.20701215701E+01  0.20701215701E+01  0.00000000000E+00 0. -1.
         13   -1    0    0    0    0 -0.00000000000E+00 -0.00000000000E+00 -0.10000000000E+04  0.10000000000E+04  0.00000000000E+00 0.  1.
    9000005    2    1    2  501    0  0.13923071117E+02 -0.32866057334E+02 -0.18996965806E+03  0.19332186201E+03  0.32926760070E+01 0.  0.
         13    1    3    3    0    0  0.95611465682E+01 -0.18460985427E+02 -0.11163731790E+03  0.11355665659E+03  0.00000000000E+00 0.  1.
          1    1    3    3  501    0  0.43619245491E+01 -0.14405071907E+02 -0.78332340152E+02  0.79765205423E+02  0.00000000000E+00 0.  1.
         -1    1    1    2    0  502 -0.13923071117E+02  0.32866057334E+02 -0.80796022037E+03  0.80874825956E+03  0.00000000000E+00 0. -1.
<mgrwt>
<rscale>  1 0.30000000E+03</rscale>
<asrwt>0</asrwt>
<pdfrwt beam="1">  1       21 0.75277307E-02 0.30000000E+03</pdfrwt>
<pdfrwt beam="2">0</pdfrwt>
<totfact> 0.14212322E+04</totfact>
</mgrwt>
</event>
<event>
 6    1  0.8397183E-002  0.3000000E+03  0.7818608E-02  0.1093470E+00
         21   -1    0    0  501  502  0.00000000000E+00  0.00000000000E+00  0.18548210370E+01  0.18548210370E+01  0.00000000000E+00 0. -1.
         13   -1    0    0    0    0 -0.00000000000E+00 -0.00000000000E+00 -0.10000000000E+04  0.10000000000E+04  0.00000000000E+00 0.  1.
    9000005    2    1    2  501    0 -0.13582666492E+01  0.36773110654E+02 -0.24072296180E+03  0.24353923923E+03  0.31161118017E+01 0.  0.
         13    1    3    3    0    0 -0.79928890979E-01  0.27585710647E+01 -0.24241603877E+02  0.24398185619E+02  0.00000000000E+00 0.  1.
          3    1    3    3  501    0 -0.12783377582E+01  0.34014539589E+02 -0.21648135792E+03  0.21914105362E+03  0.00000000000E+00 0.  1.
         -3    1    1    2    0  502  0.13582666492E+01 -0.36773110654E+02 -0.75742221716E+03  0.75831558180E+03  0.00000000000E+00 0. -1.
<mgrwt>
<rscale>  1 0.30000000E+03</rscale>
<asrwt>0</asrwt>
<pdfrwt beam="1">  1       21 0.67448180E-02 0.30000000E+03</pdfrwt>
<pdfrwt beam="2">0</pdfrwt>
<totfact> 0.17210931E+04</totfact>
</mgrwt>
</event>
<event>
 6    1  0.8397183E-002  0.3000000E+03  0.7818608E-02  0.1093470E+00
         21   -1    0    0  501  502  0.00000000000E+00  0.00000000000E+00  0.14458819355E+01  0.14458819355E+01  0.00000000000E+00 0. -1.
         13   -1    0    0    0    0 -0.00000000000E+00 -0.00000000000E+00 -0.10000000000E+04  0.10000000000E+04  0.00000000000E+00 0.  1.
    9000005    2    1    2  501    0 -0.28280801153E+02  0.20693497806E+02 -0.69258845697E+03  0.69347995796E+03  0.27670904101E+01 0.  0.
         13    1    3    3    0    0 -0.27705275295E+02  0.20419259271E+02 -0.67098804727E+03  0.67187014222E+03  0.00000000000E+00 0.  1.
          1    1    3    3  501    0 -0.57552585830E+00  0.27423853539E+00 -0.21600409699E+02  0.21609815732E+02  0.00000000000E+00 0.  1.
         -3    1    1    2    0  502  0.28280801153E+02 -0.20693497806E+02 -0.30596566109E+03  0.30796592398E+03  0.00000000000E+00 0. -1.
<mgrwt>
<rscale>  1 0.30000000E+03</rscale>
<asrwt>0</asrwt>
<pdfrwt beam="1">  1       21 0.52577636E-02 0.30000000E+03</pdfrwt>
<pdfrwt beam="2">0</pdfrwt>
<totfact> 0.26436072E+04</totfact>
</mgrwt>
</event>
<event>
 6    1  0.8397183E-002  0.3000000E+03  0.7818608E-02  0.1093470E+00
         21   -1    0    0  501  502  0.00000000000E+00  0.00000000000E+00  0.30780469157E+01  0.30780469157E+01  0.00000000000E+00 0. -1.
         13   -1    0    0    0    0 -0.00000000000E+00 -0.00000000000E+00 -0.10000000000E+04  0.10000000000E+04  0.00000000000E+00 0.  1.
    9000005    2    1    2  501    0 -0.23009304460E+02  0.43681033358E+02 -0.27104154458E+03  0.27552060711E+03  0.32596451762E+01 0.  0.
         13    1    3    3    0    0 -0.14266952119E+02  0.28781171920E+02 -0.18357737283E+03  0.18636671804E+03  0.00000000000E+00 0.  1.
          3    1    3    3  501    0 -0.87423523411E+01  0.14899861438E+02 -0.87464171754E+02  0.89153889068E+02  0.00000000000E+00 0.  1.
         -1    1    1    2    0  502  0.23009304460E+02 -0.43681033358E+02 -0.72588040850E+03  0.72755743980E+03  0.00000000000E+00 0. -1.
<mgrwt>
<rscale>  1 0.30000000E+03</rscale>
<asrwt>0</asrwt>
<pdfrwt beam="1">  1       21 0.11192921E-01 0.30000000E+03</pdfrwt>
<pdfrwt beam="2">0</pdfrwt>
<totfact> 0.70285217E+03</totfact>
</mgrwt>
</event>
<event>
 6    1  0.8397183E-002  0.3000000E+03  0.7818608E-02  0.1093470E+00
         21   -1    0    0  501  502  0.00000000000E+00  0.00000000000E+00  0.26393165070E+01  0.26393165070E+01  0.00000000000E+00 0. -1.
         13   -1    0    0    0    0 -0.00000000000E+00 -0.00000000000E+00 -0.10000000000E+04  0.10000000000E+04  0.00000000000E+00 0.  1.
    9000005    2    1    2  501    0  0.48998525263E+02  0.14377759792E+02 -0.45072313873E+03  0.45362184793E+03  0.37225906684E+01 0.  0.
         13    1    3    3    0    0  0.29212124964E+02  0.84280810675E+01 -0.25198610377E+03  0.25381366647E+03  0.00000000000E+00 0.  1.
          1    1    3    3  501    0  0.19786400298E+02  0.59496787241E+01 -0.19873703496E+03  0.19980818146E+03  0.00000000000E+00 0.  1.
         -1    1    1    2    0  502 -0.48998525263E+02 -0.14377759792E+02 -0.54663754476E+03  0.54901746857E+03  0.00000000000E+00 0. -1.
<mgrwt>
<rscale>  1 0.30000000E+03</rscale>
<asrwt>0</asrwt>
<pdfrwt beam="1">  1       21 0.95975348E-02 0.30000000E+03</pdfrwt>
<pdfrwt beam="2">0</pdfrwt>
<totfact> 0.92576493E+03</totfact>
</mgrwt>
</event>
<event>
 6    1  0.8397183E-002  0.3000000E+03  0.7818608E-02  0.1093470E+00
         21   -1    0    0  501  502  0.00000000000E+00  0.00000000000E+00  0.25152001055E+01  0.25152001055E+01  0.00000000000E+00 0. -1.
         13   -1    0    0    0    0 -0.00000000000E+00 -0.00000000000E+00 -0.10000000000E+04  0.10000000000E+04  0.00000000000E+00 0.  1.
    9000005    2    1    2  501    0 -0.14570853292E+02  0.28648850451E+02 -0.11578241998E+03  0.12022717846E+03  0.39924009571E+01 0.  0.
         13    1    3    3    0    0 -0.10418850570E+02  0.23343918994E+02 -0.95060521471E+02  0.98437765840E+02  0.00000000000E+00 0.  1.
          1    1    3    3  501    0 -0.41520027223E+01  0.53049314573E+01 -0.20721898507E+02  0.21789412615E+02  0.00000000000E+00 0.  1.
         -1    1    1    2    0  502  0.14570853292E+02 -0.28648850451E+02 -0.88170237992E+03  0.88228802165E+03  0.00000000000E+00 0. -1.
<mgrwt>
<rscale>  1 0.30000000E+03</rscale>
<asrwt>0</asrwt>
<pdfrwt beam="1">  1       21 0.91462015E-02 0.30000000E+03</pdfrwt>
<pdfrwt beam="2">0</pdfrwt>
<totfact> 0.10085782E+04</totfact>
</mgrwt>
</event>
<event>
 6    1  0.8397183E-002  0.3000000E+03  0.7818608E-02  0.1093470E+00
         21   -1    0    0  501  502  0.00000000000E+00  0.00000000000E+00  0.22107178917E+01  0.22107178917E+01  0.00000000000E+00 0. -1.
         13   -1    0    0    0    0 -0.00000000000E+00 -0.00000000000E+00 -0.10000000000E+04  0.10000000000E+04  0.00000000000E+00 0.  1.
    9000005    2    1    2  501    0 -0.44365591946E+02 -0.95988230582E+01 -0.37153159613E+03  0.37431014264E+03  0.34514936610E+01 0.  0.
         13    1    3    3    0    0 -0.14762109031E+02 -0.19680376772E+01 -0.11290708360E+03  0.11388504100E+03  0.00000000000E+00 0.  1.
          3    1    3    3  501    0 -0.29603482915E+02 -0.76307853810E+01 -0.25862451253E+03  0.26042510164E+03  0.00000000000E+00 0.  1.
         -1    1    1    2    0  502  0.44365591946E+02  0.95988230582E+01 -0.62625768598E+03  0.62790057525E+03  0.00000000000E+00 0. -1.
<mgrwt>
<rscale>  1 0.30000000E+03</rscale>
<asrwt>0</asrwt>
<pdfrwt beam="1">  1       21 0.80389911E-02 0.30000000E+03</pdfrwt>
<pdfrwt beam="2">0</pdfrwt>
<totfact> 0.12665229E+04</totfact>
</mgrwt>
</event>
<event>
 6    1  0.8397183E-002  0.3000000E+03  0.7818608E-02  0.1093470E+00
         21   -1    0    0  501  502  0.00000000000E+00  0.00000000000E+00  0.12280506389E+01  0.12280506389E+01  0.00000000000E+00 0. -1.
         13   -1    0    0    0    0 -0.00000000000E+00 -0.00000000000E+00 -0.10000000000E+04  0.10000000000E+04  0.00000000000E+00 0.  1.
    9000005    2    1    2  501    0 -0.34323596592E+02 -0.52379574366E+01 -0.44537174283E+03  0.44673969722E+03  0.38499721646E+01 0.  0.
         13    1    3    3    0    0 -0.89189184677E+01 -0.12994860119E+01 -0.13852015625E+03  0.13881307380E+03  0.00000000000E+00 0.  1.
          1    1    3    3  501    0 -0.25404678124E+02 -0.39384714247E+01 -0.30685158657E+03  0.30792662342E+03  0.00000000000E+00 0.  1.
         -3    1    1    2    0  502  0.34323596592E+02  0.52379574366E+01 -0.55340020653E+03  0.55448835342E+03  0.00000000000E+00 0. -1.
<mgrwt>
<rscale>  1 0.30000000E+03</rscale>
<asrwt>0</asrwt>
<pdfrwt beam="1">  1       21 0.44656481E-02 0.30000000E+03</pdfrwt>
<pdfrwt beam="2">0</pdfrwt>
<totfact> 0.34909051E+04</totfact>
</mgrwt>
</event>
<event>
 6    1  0.8397183E-002  0.3000000E+03  0.7818608E-02  0.1093470E+00
         21   -1    0    0  501  502  0.00000000000E+00  0.00000000000E+00  0.13035107705E+01  0.13035107705E+01  0.00000000000E+00 0. -1.
         13   -1    0    0    0    0 -0.00000000000E+00 -0.00000000000E+00 -0.10000000000E+04  0.10000000000E+04  0.00000000000E+00 0.  1.
    9000005    2    1    2  501    0 -0.16425897585E+02  0.25662081742E+02 -0.76661438036E+03  0.76722989456E+03  0.39686740217E+01 0.  0.
         13    1    3    3    0    0 -0.32442540439E+01  0.28101520820E+01 -0.12387568441E+03  0.12395001947E+03  0.00000000000E+00 0.  1.
          1    1    3    3  501    0 -0.13181643541E+02  0.22851929660E+02 -0.64273869596E+03  0.64327987509E+03  0.00000000000E+00 0.  1.
         -3    1    1    2    0  502  0.16425897585E+02 -0.25662081742E+02 -0.23208210887E+03  0.23407361621E+03  0.00000000000E+00 0. -1.
<mgrwt>
<rscale>  1 0.30000000E+03</rscale>
<asrwt>0</asrwt>
<pdfrwt beam="1">  1       21 0.47400492E-02 0.30000000E+03</pdfrwt>
<pdfrwt beam="2">0</pdfrwt>
<totfact> 0.31545868E+04</totfact>
</mgrwt>
</event>
<event>
 6    1  0.8397183E-002  0.3000000E+03  0.7818608E-02  0.1093470E+00
         21   -1    0    0  501  502  0.00000000000E+00  0.00000000000E+00  0.12292196546E+01  0.12292196546E+01  0.00000000000E+00 0. -1.
         13   -1    0    0    0    0 -0.00000000000E+00 -0.00000000000E+00 -0.10000000000E+04  0.10000000000E+04  0.00000000000E+00 0.  1.
    9000005    2    1    2  501    0  0.15822151103E+02 -0.30904472856E+02 -0.56257691619E+03  0.56365578121E+03  0.31026037750E+01 0.  0.
         13    1    3    3    0    0  0.36591362314E+01 -0.53164211300E+01 -0.91020630351E+02  0.91249157591E+02  0.00000000000E+00 0.  1.
          1    1    3    3  501    0  0.12163014871E+02 -0.25588051726E+02 -0.47155628584E+03  0.47240662362E+03  0.00000000000E+00 0.  1.
         -1    1    1    2    0  502 -0.15822151103E+02  0.30904472856E+02 -0.43619386415E+03  0.43757343844E+03  0.00000000000E+00 0. -1.
<mgrwt>
<rscale>  1 0.30000000E+03</rscale>
<asrwt>0</asrwt>
<pdfrwt beam="1">  1       21 0.44698991E-02 0.30000000E+03</pdfrwt>
<pdfrwt beam="2">0</pdfrwt>
<totfact> 0.34852766E+04</totfact>
</mgrwt>
</event>
<event>
 6    1  0.8397183E-002  0.3000000E+03  0.7818608E-02  0.1093470E+00
         21   -1    0    0  501  502  0.00000000000E+00  0.00000000000E+00  0.29517632354E+01  0.29517632354E+01  0.00000000000E+00 0. -1.
         13   -1    0    0    0    0 -0.00000000000E+00 -0.00000000000E+00 -0.10000000000E+04  0.10000000000E+04  0.00000000000E+00 0.  1.
    9000005    2    1    2  501    0 -0.39737219363E+02 -0.96070002323E+01 -0.82834514471E+03  0.82936583545E+03  0.45463383197E+01 0.  0.
         13    1    3    3    0    0 -0.29945646151E+01 -0.20286506791E+01 -0.74478276969E+02  0.74566055153E+02  0.00000000000E+00 0.  1.
          1    1    3    3  501    0 -0.36742654748E+02 -0.75783495533E+01 -0.75386686774E+03  0.75479978029E+03  0.00000000000E+00 0.  1.
         -3    1    1    2    0  502  0.39737219363E+02  0.96070002323E+01 -0.16870309206E+03  0.17358592779E+03  0.00000000000E+00 0. -1.
<mgrwt>
<rscale>  1 0.30000000E+03</rscale>
<asrwt>0</asrwt>
<pdfrwt beam="1">  1       21 0.10733707E-01 0.30000000E+03</pdfrwt>
<pdfrwt beam="2">0</pdfrwt>
<totfact> 0.75785781E+03</totfact>
</mgrwt>
</event>
<event>
 6    1  0.8397183E-002  0.3000000E+03  0.7818608E-02  0.1093470E+00
         21   -1    0    0  501  502  0.00000000000E+00  0.00000000000E+00  0.13450635699E+01  0.13450635699E+01  0.00000000000E+00 0. -1.
         13   -1    0    0    0    0 -0.00000000000E+00 -0.00000000000E+00 -0.10000000000E+04  0.10000000000E+04  0.00000000000E+00 0.  1.
    9000005    2    1    2  501    0 -0.31397347966E+02 -0.17900280840E+02 -0.58006917537E+03  0.58120192977E+03  0.30366832741E+01 0.  0.
         13    1    3    3    0    0 -0.25315134429E+02 -0.14167990719E+02 -0.44531136428E+03  0.44625530714E+03  0.00000000000E+00 0.  1.
          1    1    3    3  501    0 -0.60822135372E+01 -0.37322901211E+01 -0.13475781109E+03  0.13494662263E+03  0.00000000000E+00 0.  1.
         -1    1    1    2    0  502  0.31397347966E+02  0.17900280840E+02 -0.41858576106E+03  0.42014313380E+03  0.00000000000E+00 0. -1.
<mgrwt>
<rscale>  1 0.30000000E+03</rscale>
<asrwt>0</asrwt>
<pdfrwt beam="1">  1       21 0.48911506E-02 0.30000000E+03</pdfrwt>
<pdfrwt beam="2">0</pdfrwt>
<totfact> 0.29905395E+04</totfact>
</mgrwt>
</event>
<event>
 6    1  0.8397183E-002  0.3000000E+03  0.7818608E-02  0.1093470E+00
         21   -1    0    0  501  502  0.00000000000E+00  0.00000000000E+00  0.12441987121E+01  0.12441987121E+01  0.00000000000E+00 0. -1.
         13   -1    0    0    0    0 -0.00000000000E+00 -0.00000000000E+00 -0.10000000000E+04  0.10000000000E+04  0.00000000000E+00 0.  1.
    9000005    2    1    2  501    0 -0.43567304567E+01 -0.34892894806E+02 -0.50635254542E+03  0.50758696784E+03  0.38903025818E+01 0.  0.
         13    1    3    3    0    0 -0.73606015403E+00 -0.15323144043E+01 -0.16830808174E+02  0.16916438035E+02  0.00000000000E+00 0.  1.
          1    1    3    3  501    0 -0.36206703027E+01 -0.33360580401E+02 -0.48952173725E+03  0.49067052980E+03  0.00000000000E+00 0.  1.
         -3    1    1    2    0  502  0.43567304567E+01  0.34892894806E+02 -0.49240325587E+03  0.49365723087E+03  0.00000000000E+00 0. -1.
<mgrwt>
<rscale>  1 0.30000000E+03</rscale>
<asrwt>0</asrwt>
<pdfrwt beam="1">  1       21 0.45243685E-02 0.30000000E+03</pdfrwt>
<pdfrwt beam="2">0</pdfrwt>
<totfact> 0.34143777E+04</totfact>
</mgrwt>
</event>
<event>
 6    1  0.8397183E-002  0.3000000E+03  0.7818608E-02  0.1093470E+00
         21   -1    0    0  501  502  0.00000000000E+00  0.00000000000E+00  0.12531718407E+01  0.12531718407E+01  0.00000000000E+00 0. -1.
         13   -1    0    0    0    0 -0.00000000000E+00 -0.00000000000E+00 -0.10000000000E+04  0.10000000000E+04  0.00000000000E+00 0.  1.
    9000005    2    1    2  501    0  0.11578051051E+02  0.33273188879E+02 -0.46498447197E+03  0.46632943031E+03  0.33796507682E+01 0.  0.
         13    1    3    3    0    0  0.49674926284E+01  0.18686316802E+02 -0.26552957714E+03  0.26623262526E+03  0.00000000000E+00 0.  1.
          3    1    3    3  501    0  0.66105584225E+01  0.14586872076E+02 -0.19945489483E+03  0.20009680505E+03  0.00000000000E+00 0.  1.
         -1    1    1    2    0  502 -0.11578051051E+02 -0.33273188879E+02 -0.53376235619E+03  0.53492374153E+03  0.00000000000E+00 0. -1.
<mgrwt>
<rscale>  1 0.30000000E+03</rscale>
<asrwt>0</asrwt>
<pdfrwt beam="1">  1       21 0.45569981E-02 0.30000000E+03</pdfrwt>
<pdfrwt beam="2">0</pdfrwt>
<totfact> 0.33729658E+04</totfact>
</mgrwt>
</event>
<event>
 6    1  0.8397183E-002  0.3000000E+03  0.7818608E-02  0.1093470E+00
         21   -1    0    0  501  502  0.00000000000E+00  0.00000000000E+00  0.10221757185E+01  0.10221757185E+01  0.00000000000E+00 0. -1.
         13   -1    0    0    0    0 -0.00000000000E+00 -0.00000000000E+00 -0.10000000000E+04  0.10000000000E+04  0.00000000000E+00 0.  1.
    9000005    2    1    2  501    0  0.50815478226E+01 -0.31427791915E+02 -0.47217395450E+03  0.47325722288E+03  0.32599788993E+01 0.  0.
         13    1    3    3    0    0  0.10083728008E+01 -0.16042444259E+02 -0.23052978453E+03  0.23108950298E+03  0.00000000000E+00 0.  1.
          1    1    3    3  501    0  0.40731750217E+01 -0.15385347656E+02 -0.24164416997E+03  0.24216771990E+03  0.00000000000E+00 0.  1.
         -1    1    1    2    0  502 -0.50815478226E+01  0.31427791915E+02 -0.52680386978E+03  0.52776495284E+03  0.00000000000E+00 0. -1.
<mgrwt>
<rscale>  1 0.30000000E+03</rscale>
<asrwt>0</asrwt>
<pdfrwt beam="1">  1       21 0.37170105E-02 0.30000000E+03</pdfrwt>
<pdfrwt beam="2">0</pdfrwt>
<totfact> 0.47567776E+04</totfact>
</mgrwt>
</event>
<event>
 6    1  0.8397183E-002  0.3000000E+03  0.7818608E-02  0.1093470E+00
         21   -1    0    0  501  502  0.00000000000E+00  0.00000000000E+00  0.12227223561E+01  0.12227223561E+01  0.00000000000E+00 0. -1.
         13   -1    0    0    0    0 -0.00000000000E+00 -0.00000000000E+00 -0.10000000000E+04  0.10000000000E+04  0.00000000000E+00 0.  1.
    9000005    2    1    2  501    0 -0.14543074234E+02  0.30971182726E+02 -0.57870114514E+03  0.57975543743E+03  0.71159447748E+01 0.  0.
         13    1    3    3    0    0 -0.50081861917E+01  0.15722637958E+02 -0.32420022967E+03  0.32461988878E+03  0.00000000000E+00 0.  1.
          3    1    3    3  501    0 -0.95348880425E+01  0.15248544767E+02 -0.25450091547E+03  0.25513554865E+03  0.00000000000E+00 0.  1.
         -3    1    1    2    0  502  0.14543074234E+02 -0.30971182726E+02 -0.42007613250E+03  0.42146728493E+03  0.00000000000E+00 0. -1.
<mgrwt>
<rscale>  1 0.30000000E+03</rscale>
<asrwt>0</asrwt>
<pdfrwt beam="1">  1       21 0.44462725E-02 0.30000000E+03</pdfrwt>
<pdfrwt beam="2">0</pdfrwt>
<totfact> 0.35167381E+04</totfact>
</mgrwt>
</event>
<event>
 6    1  0.8397183E-002  0.3000000E+03  0.7818608E-02  0.1093470E+00
         21   -1    0    0  501  502  0.00000000000E+00  0.00000000000E+00  0.26724365461E+01  0.26724365461E+01  0.00000000000E+00 0. -1.
         13   -1    0    0    0    0 -0.00000000000E+00 -0.00000000000E+00 -0.10000000000E+04  0.10000000000E+04  0.00000000000E+00 0.  1.
    9000005    2    1    2  501    0 -0.21949688298E+02  0.38741407791E+02 -0.24534849127E+03  0.24937620631E+03  0.31503346257E+01 0.  0.
         13    1    3    3    0    0 -0.23720884356E+01  0.46513319338E+01 -0.34743598611E+02  0.35133735024E+02  0.00000000000E+00 0.  1.
          3    1    3    3  501    0 -0.19577599862E+02  0.34090075857E+02 -0.21060489266E+03  0.21424247128E+03  0.00000000000E+00 0.  1.
         -1    1    1    2    0  502  0.21949688298E+02 -0.38741407791E+02 -0.75197907218E+03  0.75329623024E+03  0.00000000000E+00 0. -1.
<mgrwt>
<rscale>  1 0.30000000E+03</rscale>
<asrwt>0</asrwt>
<pdfrwt beam="1">  1       21 0.97179716E-02 0.30000000E+03</pdfrwt>
<pdfrwt beam="2">0</pdfrwt>
<totfact> 0.90540323E+03</totfact>
</mgrwt>
</event>
<event>
 6    1  0.8397183E-002  0.3000000E+03  0.7818608E-02  0.1093470E+00
         21   -1    0    0  501  502  0.00000000000E+00  0.00000000000E+00  0.12864168182E+01  0.12864168182E+01  0.00000000000E+00 0. -1.
         13   -1    0    0    0    0 -0.00000000000E+00 -0.00000000000E+00 -0.10000000000E+04  0.10000000000E+04  0.00000000000E+00 0.  1.
    9000005    2    1    2  501    0  0.26620143003E+02 -0.21135881958E+02 -0.34484837178E+03  0.34653831853E+03  0.36123643812E+01 0.  0.
         13    1    3    3    0    0  0.49788180434E+01 -0.42756553912E+01 -0.53443259956E+02  0.53844701623E+02  0.00000000000E+00 0.  1.
          1    1    3    3  501    0  0.21641324960E+02 -0.16860226566E+02 -0.29140511182E+03  0.29269361691E+03  0.00000000000E+00 0.  1.
         -3    1    1    2    0  502 -0.26620143003E+02  0.21135881958E+02 -0.65386521141E+03  0.65474809828E+03  0.00000000000E+00 0. -1.
<mgrwt>
<rscale>  1 0.30000000E+03</rscale>
<asrwt>0</asrwt>
<pdfrwt beam="1">  1       21 0.46778892E-02 0.30000000E+03</pdfrwt>
<pdfrwt beam="2">0</pdfrwt>
<totfact> 0.32261936E+04</totfact>
</mgrwt>
</event>
<event>
 6    1  0.8397183E-002  0.3000000E+03  0.7818608E-02  0.1093470E+00
         21   -1    0    0  501  502  0.00000000000E+00  0.00000000000E+00  0.18287754866E+01  0.18287754866E+01  0.00000000000E+00 0. -1.
         13   -1    0    0    0    0 -0.00000000000E+00 -0.00000000000E+00 -0.10000000000E+04  0.10000000000E+04  0.00000000000E+00 0.  1.
    9000005    2    1    2  501    0  0.37547732521E+02 -0.17308684554E+02 -0.37519106903E+03  0.37747815532E+03  0.34636229853E+01 0.  0.
         13    1    3    3    0    0  0.17131490661E+02 -0.63409604551E+01 -0.17433931458E+03  0.17529373167E+03  0.00000000000E+00 0.  1.
          3    1    3    3  501    0  0.20416241859E+02 -0.10967724099E+02 -0.20085175445E+03  0.20218442365E+03  0.00000000000E+00 0.  1.
         -3    1    1    2    0  502 -0.37547732521E+02  0.17308684554E+02 -0.62298015548E+03  0.62435062017E+03  0.00000000000E+00 0. -1.
<mgrwt>
<rscale>  1 0.30000000E+03</rscale>
<asrwt>0</asrwt>
<pdfrwt beam="1">  1       21 0.66501067E-02 0.30000000E+03</pdfrwt>
<pdfrwt beam="2">0</pdfrwt>
<totfact> 0.17638351E+04</totfact>
</mgrwt>
</event>
<event>
 6    1  0.8397183E-002  0.3000000E+03  0.7818608E-02  0.1093470E+00
         21   -1    0    0  501  502  0.00000000000E+00  0.00000000000E+00  0.11156271197E+01  0.11156271197E+01  0.00000000000E+00 0. -1.
         13   -1    0    0    0    0 -0.00000000000E+00 -0.00000000000E+00 -0.10000000000E+04  0.10000000000E+04  0.00000000000E+00 0.  1.
    9000005    2    1    2  501    0  0.51875966485E+01  0.32627461850E+02 -0.44189750222E+03  0.44314982484E+03  0.41112481807E+01 0.  0.
         13    1    3    3    0    0  0.30940869499E+01  0.23547316782E+02 -0.33920579848E+03  0.34003620869E+03  0.00000000000E+00 0.  1.
          1    1    3    3  501    0  0.20935096986E+01  0.90801450680E+01 -0.10269170375E+03  0.10311361615E+03  0.00000000000E+00 0.  1.
         -3    1    1    2    0  502 -0.51875966485E+01 -0.32627461850E+02 -0.55698687066E+03  0.55796580228E+03  0.00000000000E+00 0. -1.
<mgrwt>
<rscale>  1 0.30000000E+03</rscale>
<asrwt>0</asrwt>
<pdfrwt beam="1">  1       21 0.40568344E-02 0.30000000E+03</pdfrwt>
<pdfrwt beam="2">0</pdfrwt>
<totfact> 0.41059727E+04</totfact>
</mgrwt>
</event>
<event>
 6    1  0.8397183E-002  0.3000000E+03  0.7818608E-02  0.1093470E+00
         21   -1    0    0  501  502  0.00000000000E+00  0.00000000000E+00  0.13670599367E+01  0.13670599367E+01  0.00000000000E+00 0. -1.
         13   -1    0    0    0    0 -0.00000000000E+00 -0.00000000000E+00 -0.10000000000E+04  0.10000000000E+04  0.00000000000E+00 0.  1.
    9000005    2    1    2  501    0  0.19871775670E+02 -0.24855640347E+02 -0.24736821457E+03  0.24942864617E+03  0.33053934688E+01 0.  0.
         13    1    3    3    0    0  0.12486220944E+02 -0.17738408219E+02 -0.17399900052E+03  0.17534596950E+03  0.00000000000E+00 0.  1.
          1    1    3    3  501    0  0.73855547251E+01 -0.71172321280E+01 -0.73369214053E+02  0.74082676669E+02  0.00000000000E+00 0.  1.
         -1    1    1    2    0  502 -0.19871775670E+02  0.24855640347E+02 -0.75126472549E+03  0.75193841376E+03  0.00000000000E+00 0. -1.
<mgrwt>
<rscale>  1 0.30000000E+03</rscale>
<asrwt>0</asrwt>
<pdfrwt beam="1">  1       21 0.49711375E-02 0.30000000E+03</pdfrwt>
<pdfrwt beam="2">0</pdfrwt>
<totfact> 0.29090296E+04</totfact>
</mgrwt>
</event>
<event>
 6    1  0.8397183E-002  0.3000000E+03  0.7818608E-02  0.1093470E+00
         21   -1    0    0  501  502  0.00000000000E+00  0.00000000000E+00  0.94955658075E+00  0.94955658075E+00  0.00000000000E+00 0. -1.
         13   -1    0    0    0    0 -0.00000000000E+00 -0.00000000000E+00 -0.10000000000E+04  0.10000000000E+04  0.00000000000E+00 0.  1.
    9000005    2    1    2  501    0  0.28796935231E+02 -0.10267229271E+02 -0.45081221111E+03  0.45185954680E+03  0.32742743845E+01 0.  0.
         13    1    3    3    0    0  0.13048151049E+02 -0.36572142237E+01 -0.21916774477E+03  0.21958626963E+03  0.00000000000E+00 0.  1.
          3    1    3    3  501    0  0.15748784181E+02 -0.66100150475E+01 -0.23164446635E+03  0.23227327718E+03  0.00000000000E+00 0.  1.
         -3    1    1    2    0  502 -0.28796935231E+02  0.10267229271E+02 -0.54823823230E+03  0.54909000978E+03  0.00000000000E+00 0. -1.
<mgrwt>
<rscale>  1 0.30000000E+03</rscale>
<asrwt>0</asrwt>
<pdfrwt beam="1">  1       21 0.34529403E-02 0.30000000E+03</pdfrwt>
<pdfrwt beam="2">0</pdfrwt>
<totfact> 0.53822500E+04</totfact>
</mgrwt>
</event>
<event>
 6    1  0.8397183E-002  0.3000000E+03  0.7818608E-02  0.1093470E+00
         21   -1    0    0  501  502  0.00000000000E+00  0.00000000000E+00  0.49138794961E+01  0.49138794961E+01  0.00000000000E+00 0. -1.
         13   -1    0    0    0    0 -0.00000000000E+00 -0.00000000000E+00 -0.10000000000E+04  0.10000000000E+04  0.00000000000E+00 0.  1.
    9000005    2    1    2  501    0 -0.99913776141E+01  0.69041769857E+02 -0.45142897131E+03  0.45679921131E+03  0.32878113153E+01 0.  0.
         13    1    3    3    0    0 -0.10217489586E+01  0.16856041937E+02 -0.10987206397E+03  0.11116222632E+03  0.00000000000E+00 0.  1.
          3    1    3    3  501    0 -0.89696286556E+01  0.52185727921E+02 -0.34155690734E+03  0.34563698499E+03  0.00000000000E+00 0.  1.
         -1    1    1    2    0  502  0.99913776141E+01 -0.69041769857E+02 -0.54365714919E+03  0.54811466819E+03  0.00000000000E+00 0. -1.
<mgrwt>
<rscale>  1 0.30000000E+03</rscale>
<asrwt>0</asrwt>
<pdfrwt beam="1">  1       21 0.17868690E-01 0.30000000E+03</pdfrwt>
<pdfrwt beam="2">0</pdfrwt>
<totfact> 0.29702141E+03</totfact>
</mgrwt>
</event>
<event>
 6    1  0.8397183E-002  0.3000000E+03  0.7818608E-02  0.1093470E+00
         21   -1    0    0  501  502  0.00000000000E+00  0.00000000000E+00  0.16009473112E+01  0.16009473112E+01  0.00000000000E+00 0. -1.
         13   -1    0    0    0    0 -0.00000000000E+00 -0.00000000000E+00 -0.10000000000E+04  0.10000000000E+04  0.00000000000E+00 0.  1.
    9000005    2    1    2  501    0 -0.25588706197E+02 -0.30648604773E+02 -0.48651406644E+03  0.48816121569E+03  0.33640454210E+01 0.  0.
         13    1    3    3    0    0 -0.66947993437E+01 -0.69302452205E+01 -0.13334475409E+03  0.13369245334E+03  0.00000000000E+00 0.  1.
          1    1    3    3  501    0 -0.18893906853E+02 -0.23718359553E+02 -0.35316931235E+03  0.35446876235E+03  0.00000000000E+00 0.  1.
         -3    1    1    2    0  502  0.25588706197E+02  0.30648604773E+02 -0.51188498625E+03  0.51343973162E+03  0.00000000000E+00 0. -1.
<mgrwt>
<rscale>  1 0.30000000E+03</rscale>
<asrwt>0</asrwt>
<pdfrwt beam="1">  1       21 0.58216389E-02 0.30000000E+03</pdfrwt>
<pdfrwt beam="2">0</pdfrwt>
<totfact> 0.22196741E+04</totfact>
</mgrwt>
</event>
<event>
 6    1  0.8397183E-002  0.3000000E+03  0.7818608E-02  0.1093470E+00
         21   -1    0    0  501  502  0.00000000000E+00  0.00000000000E+00  0.10998111223E+01  0.10998111223E+01  0.00000000000E+00 0. -1.
         13   -1    0    0    0    0 -0.00000000000E+00 -0.00000000000E+00 -0.10000000000E+04  0.10000000000E+04  0.00000000000E+00 0.  1.
    9000005    2    1    2  501    0 -0.10023720316E+02 -0.31240257506E+02 -0.53578218740E+03  0.53682111039E+03  0.61582116363E+01 0.  0.
         13    1    3    3    0    0 -0.10701495987E+02 -0.26285063430E+02 -0.45440949422E+03  0.45529486601E+03  0.00000000000E+00 0.  1.
          3    1    3    3  501    0  0.67777567109E+00 -0.49551940766E+01 -0.81372693179E+02  0.81526244385E+02  0.00000000000E+00 0.  1.
         -1    1    1    2    0  502  0.10023720316E+02  0.31240257506E+02 -0.46311800148E+03  0.46427870073E+03  0.00000000000E+00 0. -1.
<mgrwt>
<rscale>  1 0.30000000E+03</rscale>
<asrwt>0</asrwt>
<pdfrwt beam="1">  1       21 0.39993216E-02 0.30000000E+03</pdfrwt>
<pdfrwt beam="2">0</pdfrwt>
<totfact> 0.42059335E+04</totfact>
</mgrwt>
</event>
<event>
 6    1  0.8397183E-002  0.3000000E+03  0.7818608E-02  0.1093470E+00
         21   -1    0    0  501  502  0.00000000000E+00  0.00000000000E+00  0.25693951845E+01  0.25693951845E+01  0.00000000000E+00 0. -1.
         13   -1    0    0    0    0 -0.00000000000E+00 -0.00000000000E+00 -0.10000000000E+04  0.10000000000E+04  0.00000000000E+00 0.  1.
    9000005    2    1    2  501    0 -0.16754948304E+02  0.47791273721E+02 -0.49424219218E+03  0.49683892077E+03  0.29722935080E+01 0.  0.
         13    1    3    3    0    0 -0.11074466507E+02  0.30865893272E+02 -0.33348390488E+03  0.33509231860E+03  0.00000000000E+00 0.  1.
          3    1    3    3  501    0 -0.56804817974E+01  0.16925380449E+02 -0.16075828730E+03  0.16174660217E+03  0.00000000000E+00 0.  1.
         -1    1    1    2    0  502  0.16754948304E+02 -0.47791273721E+02 -0.50318841264E+03  0.50573047441E+03  0.00000000000E+00 0. -1.
<mgrwt>
<rscale>  1 0.30000000E+03</rscale>
<asrwt>0</asrwt>
<pdfrwt beam="1">  1       21 0.93432749E-02 0.30000000E+03</pdfrwt>
<pdfrwt beam="2">0</pdfrwt>
<totfact> 0.97110143E+03</totfact>
</mgrwt>
</event>
<event>
 6    1  0.8397183E-002  0.3000000E+03  0.7818608E-02  0.1093470E+00
         21   -1    0    0  501  502  0.00000000000E+00  0.00000000000E+00  0.17482380196E+01  0.17482380196E+01  0.00000000000E+00 0. -1.
         13   -1    0    0    0    0 -0.00000000000E+00 -0.00000000000E+00 -0.10000000000E+04  0.10000000000E+04  0.00000000000E+00 0.  1.
    9000005    2    1    2  501    0  0.25510296577E+02 -0.21362558333E+02 -0.80210835234E+03  0.80280258897E+03  0.26559056668E+01 0.  0.
         13    1    3    3    0    0  0.16209569538E+02 -0.14167572821E+02 -0.48960002404E+03  0.49007311067E+03  0.00000000000E+00 0.  1.
          3    1    3    3  501    0  0.93007270385E+01 -0.71949855126E+01 -0.31250832830E+03  0.31272947830E+03  0.00000000000E+00 0.  1.
         -3    1    1    2    0  502 -0.25510296577E+02  0.21362558333E+02 -0.19614340964E+03  0.19894564905E+03  0.00000000000E+00 0. -1.
<mgrwt>
<rscale>  1 0.30000000E+03</rscale>
<asrwt>0</asrwt>
<pdfrwt beam="1">  1       21 0.63572426E-02 0.30000000E+03</pdfrwt>
<pdfrwt beam="2">0</pdfrwt>
<totfact> 0.19068878E+04</totfact>
</mgrwt>
</event>
<event>
 6    1  0.8397183E-002  0.3000000E+03  0.7818608E-02  0.1093470E+00
         21   -1    0    0  501  502  0.00000000000E+00  0.00000000000E+00  0.15285079811E+01  0.15285079811E+01  0.00000000000E+00 0. -1.
         13   -1    0    0    0    0 -0.00000000000E+00 -0.00000000000E+00 -0.10000000000E+04  0.10000000000E+04  0.00000000000E+00 0.  1.
    9000005    2    1    2  501    0  0.17505879323E+02 -0.25555745928E+02 -0.80413856211E+03  0.80474222897E+03  0.34170237666E+01 0.  0.
         13    1    3    3    0    0  0.63223322973E+01 -0.67934873653E+01 -0.25927639695E+03  0.25944242785E+03  0.00000000000E+00 0.  1.
          1    1    3    3  501    0  0.11183547025E+02 -0.18762258563E+02 -0.54486216516E+03  0.54529980112E+03  0.00000000000E+00 0.  1.
         -3    1    1    2    0  502 -0.17505879323E+02  0.25555745928E+02 -0.19433292991E+03  0.19678627901E+03  0.00000000000E+00 0. -1.
<mgrwt>
<rscale>  1 0.30000000E+03</rscale>
<asrwt>0</asrwt>
<pdfrwt beam="1">  1       21 0.55582226E-02 0.30000000E+03</pdfrwt>
<pdfrwt beam="2">0</pdfrwt>
<totfact> 0.24036038E+04</totfact>
</mgrwt>
</event>
<event>
 6    1  0.8397183E-002  0.3000000E+03  0.7818608E-02  0.1093470E+00
         21   -1    0    0  501  502  0.00000000000E+00  0.00000000000E+00  0.37236225180E+01  0.37236225180E+01  0.00000000000E+00 0. -1.
         13   -1    0    0    0    0 -0.00000000000E+00 -0.00000000000E+00 -0.10000000000E+04  0.10000000000E+04  0.00000000000E+00 0.  1.
    9000005    2    1    2  501    0 -0.54348802383E+02  0.27435005515E+01 -0.72472726134E+03  0.72677553787E+03  0.34292846115E+01 0.  0.
         13    1    3    3    0    0 -0.12616483381E+02  0.20279581629E+01 -0.16432117727E+03  0.16481728540E+03  0.00000000000E+00 0.  1.
          1    1    3    3  501    0 -0.41732319002E+02  0.71554238860E+00 -0.56040608408E+03  0.56195825247E+03  0.00000000000E+00 0.  1.
         -1    1    1    2    0  502  0.54348802383E+02 -0.27435005515E+01 -0.27154911614E+03  0.27694808465E+03  0.00000000000E+00 0. -1.
<mgrwt>
<rscale>  1 0.30000000E+03</rscale>
<asrwt>0</asrwt>
<pdfrwt beam="1">  1       21 0.13540474E-01 0.30000000E+03</pdfrwt>
<pdfrwt beam="2">0</pdfrwt>
<totfact> 0.49719635E+03</totfact>
</mgrwt>
</event>
<event>
 6    1  0.8397183E-002  0.3000000E+03  0.7818608E-02  0.1093470E+00
         21   -1    0    0  501  502  0.00000000000E+00  0.00000000000E+00  0.20220263604E+01  0.20220263604E+01  0.00000000000E+00 0. -1.
         13   -1    0    0    0    0 -0.00000000000E+00 -0.00000000000E+00 -0.10000000000E+04  0.10000000000E+04  0.00000000000E+00 0.  1.
    9000005    2    1    2  501    0 -0.29820468411E+02  0.32998198687E+02 -0.42988063364E+03  0.43218632270E+03  0.30849467342E+01 0.  0.
         13    1    3    3    0    0 -0.10925454742E+02  0.13156644184E+02 -0.15259809787E+03  0.15355338590E+03  0.00000000000E+00 0.  1.
          3    1    3    3  501    0 -0.18895013669E+02  0.19841554503E+02 -0.27728253577E+03  0.27863293680E+03  0.00000000000E+00 0.  1.
         -3    1    1    2    0  502  0.29820468411E+02 -0.32998198687E+02 -0.56809734000E+03  0.56983570366E+03  0.00000000000E+00 0. -1.
<mgrwt>
<rscale>  1 0.30000000E+03</rscale>
<asrwt>0</asrwt>
<pdfrwt beam="1">  1       21 0.73528386E-02 0.30000000E+03</pdfrwt>
<pdfrwt beam="2">0</pdfrwt>
<totfact> 0.14809123E+04</totfact>
</mgrwt>
</event>
<event>
 6    1  0.8397183E-002  0.3000000E+03  0.7818608E-02  0.1093470E+00
         21   -1    0    0  501  502  0.00000000000E+00  0.00000000000E+00  0.15309176892E+01  0.15309176892E+01  0.00000000000E+00 0. -1.
         13   -1    0    0    0    0 -0.00000000000E+00 -0.00000000000E+00 -0.10000000000E+04  0.10000000000E+04  0.00000000000E+00 0.  1.
    9000005    2    1    2  501    0  0.60370780321E+01  0.37039537455E+02 -0.36095669791E+03  0.36291490324E+03  0.30192022009E+01 0.  0.
         13    1    3    3    0    0  0.20233518528E+01  0.19831924758E+02 -0.20019393332E+03  0.20118402056E+03  0.00000000000E+00 0.  1.
          3    1    3    3  501    0  0.40137261793E+01  0.17207612697E+02 -0.16076276459E+03  0.16173088268E+03  0.00000000000E+00 0.  1.
         -3    1    1    2    0  502 -0.60370780321E+01 -0.37039537455E+02 -0.63751238440E+03  0.63861601444E+03  0.00000000000E+00 0. -1.
<mgrwt>
<rscale>  1 0.30000000E+03</rscale>
<asrwt>0</asrwt>
<pdfrwt beam="1">  1       21 0.55669852E-02 0.30000000E+03</pdfrwt>
<pdfrwt beam="2">0</pdfrwt>
<totfact> 0.23971147E+04</totfact>
</mgrwt>
</event>
<event>
 6    1  0.8397183E-002  0.3000000E+03  0.7818608E-02  0.1093470E+00
         21   -1    0    0  501  502  0.00000000000E+00  0.00000000000E+00  0.37927545283E+01  0.37927545283E+01  0.00000000000E+00 0. -1.
         13   -1    0    0    0    0 -0.00000000000E+00 -0.00000000000E+00 -0.10000000000E+04  0.10000000000E+04  0.00000000000E+00 0.  1.
    9000005    2    1    2  501    0  0.19184301849E+02  0.28331095529E+02 -0.91532056089E+03  0.91596710819E+03  0.36504376195E+01 0.  0.
         13    1    3    3    0    0  0.17541164293E+02  0.24766927609E+02 -0.83372702516E+03  0.83427923721E+03  0.00000000000E+00 0.  1.
          1    1    3    3  501    0  0.16431375561E+01  0.35641679203E+01 -0.81593535728E+02  0.81687870988E+02  0.00000000000E+00 0.  1.
         -1    1    1    2    0  502 -0.19184301849E+02 -0.28331095529E+02 -0.80886684582E+02  0.87825646334E+02  0.00000000000E+00 0. -1.
<mgrwt>
<rscale>  1 0.30000000E+03</rscale>
<asrwt>0</asrwt>
<pdfrwt beam="1">  1       21 0.13791864E-01 0.30000000E+03</pdfrwt>
<pdfrwt beam="2">0</pdfrwt>
<totfact> 0.48070777E+03</totfact>
</mgrwt>
</event>
<event>
 6    1  0.8397183E-002  0.3000000E+03  0.7818608E-02  0.1093470E+00
         21   -1    0    0  501  502  0.00000000000E+00  0.00000000000E+00  0.24768900469E+01  0.24768900469E+01  0.00000000000E+00 0. -1.
         13   -1    0    0    0    0 -0.00000000000E+00 -0.00000000000E+00 -0.10000000000E+04  0.10000000000E+04  0.00000000000E+00 0.  1.
    9000005    2    1    2  501    0 -0.26301293961E+02  0.17437926192E+02 -0.11275143204E+03  0.11714262472E+03  0.36972644104E+01 0.  0.
         13    1    3    3    0    0 -0.58185055339E+01  0.40052659259E+01 -0.19976156940E+02  0.21188298844E+02  0.00000000000E+00 0.  1.
          1    1    3    3  501    0 -0.20482788427E+02  0.13432660266E+02 -0.92775275100E+02  0.95954325871E+02  0.00000000000E+00 0.  1.
         -3    1    1    2    0  502  0.26301293961E+02 -0.17437926192E+02 -0.88477167791E+03  0.88533426533E+03  0.00000000000E+00 0. -1.
<mgrwt>
<rscale>  1 0.30000000E+03</rscale>
<asrwt>0</asrwt>
<pdfrwt beam="1">  1       21 0.90068919E-02 0.30000000E+03</pdfrwt>
<pdfrwt beam="2">0</pdfrwt>
<totfact> 0.10364024E+04</totfact>
</mgrwt>
</event>
<event>
 6    1  0.8397183E-002  0.3000000E+03  0.7818608E-02  0.1093470E+00
         21   -1    0    0  501  502  0.00000000000E+00  0.00000000000E+00  0.96274042052E+00  0.96274042052E+00  0.00000000000E+00 0. -1.
         13   -1    0    0    0    0 -0.00000000000E+00 -0.00000000000E+00 -0.10000000000E+04  0.10000000000E+04  0.00000000000E+00 0.  1.
    9000005    2    1    2  501    0 -0.27137126377E+02  0.14786433703E+02 -0.47633193638E+03  0.47734463803E+03  0.32753001513E+01 0.  0.
         13    1    3    3    0    0 -0.26734321197E+02  0.14232300276E+02 -0.47023485257E+03  0.47120918802E+03  0.00000000000E+00 0.  1.
          3    1    3    3  501    0 -0.40280517997E+00  0.55413342645E+00 -0.60970838101E+01  0.61354500124E+01  0.00000000000E+00 0.  1.
         -1    1    1    2    0  502  0.27137126377E+02 -0.14786433703E+02 -0.52270532320E+03  0.52361810239E+03  0.00000000000E+00 0. -1.
<mgrwt>
<rscale>  1 0.30000000E+03</rscale>
<asrwt>0</asrwt>
<pdfrwt beam="1">  1       21 0.35008816E-02 0.30000000E+03</pdfrwt>
<pdfrwt beam="2">0</pdfrwt>
<totfact> 0.52594621E+04</totfact>
</mgrwt>
</event>
<event>
 6    1  0.8397183E-002  0.3000000E+03  0.7818608E-02  0.1093470E+00
         21   -1    0    0  501  502  0.00000000000E+00  0.00000000000E+00  0.15524245769E+01  0.15524245769E+01  0.00000000000E+00 0. -1.
         13   -1    0    0    0    0 -0.00000000000E+00 -0.00000000000E+00 -0.10000000000E+04  0.10000000000E+04  0.00000000000E+00 0.  1.
    9000005    2    1    2  501    0 -0.27407719486E+02  0.25674986178E+02 -0.64450133069E+03  0.64561938009E+03  0.56595648069E+01 0.  0.
         13    1    3    3    0    0 -0.17582770595E+02  0.15347945604E+02 -0.35397558543E+03  0.35474417308E+03  0.00000000000E+00 0.  1.
          3    1    3    3  501    0 -0.98249488917E+01  0.10327040574E+02 -0.29052574527E+03  0.29087520701E+03  0.00000000000E+00 0.  1.
         -1    1    1    2    0  502  0.27407719486E+02 -0.25674986178E+02 -0.35394624473E+03  0.35593304449E+03  0.00000000000E+00 0. -1.
<mgrwt>
<rscale>  1 0.30000000E+03</rscale>
<asrwt>0</asrwt>
<pdfrwt beam="1">  1       21 0.56451922E-02 0.30000000E+03</pdfrwt>
<pdfrwt beam="2">0</pdfrwt>
<totfact> 0.23403723E+04</totfact>
</mgrwt>
</event>
<event>
 6    1  0.8397183E-002  0.3000000E+03  0.7818608E-02  0.1093470E+00
         21   -1    0    0  501  502  0.00000000000E+00  0.00000000000E+00  0.10194568753E+01  0.10194568753E+01  0.00000000000E+00 0. -1.
         13   -1    0    0    0    0 -0.00000000000E+00 -0.00000000000E+00 -0.10000000000E+04  0.10000000000E+04  0.00000000000E+00 0.  1.
    9000005    2    1    2  501    0  0.26138437138E+02  0.15809868039E+02 -0.36831334267E+03  0.36961286239E+03  0.50773847433E+01 0.  0.
         13    1    3    3    0    0  0.19862736525E+02  0.98198768505E+01 -0.27943726970E+03  0.28031436992E+03  0.00000000000E+00 0.  1.
          3    1    3    3  501    0  0.62757006135E+01  0.59899911884E+01 -0.88876072967E+02  0.89298492477E+02  0.00000000000E+00 0.  1.
         -3    1    1    2    0  502 -0.26138437138E+02 -0.15809868039E+02 -0.63066720046E+03  0.63140659448E+03  0.00000000000E+00 0. -1.
<mgrwt>
<rscale>  1 0.30000000E+03</rscale>
<asrwt>0</asrwt>
<pdfrwt beam="1">  1       21 0.37071237E-02 0.30000000E+03</pdfrwt>
<pdfrwt beam="2">0</pdfrwt>
<totfact> 0.47780924E+04</totfact>
</mgrwt>
</event>
<event>
 6    1  0.8397183E-002  0.3000000E+03  0.7818608E-02  0.1093470E+00
         21   -1    0    0  501  502  0.00000000000E+00  0.00000000000E+00  0.10993969971E+01  0.10993969971E+01  0.00000000000E+00 0. -1.
         13   -1    0    0    0    0 -0.00000000000E+00 -0.00000000000E+00 -0.10000000000E+04  0.10000000000E+04  0.00000000000E+00 0.  1.
    9000005    2    1    2  501    0  0.42584159441E+01 -0.32699458765E+02 -0.54213397084E+03  0.54314400073E+03  0.29621754969E+01 0.  0.
         13    1    3    3    0    0  0.24674755521E+01 -0.27353878526E+02 -0.45356314850E+03  0.45439394009E+03  0.00000000000E+00 0.  1.
          3    1    3    3  501    0  0.17909403920E+01 -0.53455802392E+01 -0.88570822338E+02  0.88750060649E+02  0.00000000000E+00 0.  1.
         -3    1    1    2    0  502 -0.42584159441E+01  0.32699458765E+02 -0.45676663216E+03  0.45795539626E+03  0.00000000000E+00 0. -1.
<mgrwt>
<rscale>  1 0.30000000E+03</rscale>
<asrwt>0</asrwt>
<pdfrwt beam="1">  1       21 0.39978157E-02 0.30000000E+03</pdfrwt>
<pdfrwt beam="2">0</pdfrwt>
<totfact> 0.42086018E+04</totfact>
</mgrwt>
</event>
<event>
 6    1  0.8397183E-002  0.3000000E+03  0.7818608E-02  0.1093470E+00
         21   -1    0    0  501  502  0.00000000000E+00  0.00000000000E+00  0.11138078053E+01  0.11138078053E+01  0.00000000000E+00 0. -1.
         13   -1    0    0    0    0 -0.00000000000E+00 -0.00000000000E+00 -0.10000000000E+04  0.10000000000E+04  0.00000000000E+00 0.  1.
    9000005    2    1    2  501    0  0.15234078595E+01 -0.32536083532E+02 -0.40046546669E+03  0.40180730675E+03  0.39502198595E+01 0.  0.
         13    1    3    3    0    0  0.21653695934E+01 -0.11379935609E+02 -0.15351793009E+03  0.15395436537E+03  0.00000000000E+00 0.  1.
          1    1    3    3  501    0 -0.64196173387E+00 -0.21156147923E+02 -0.24694753661E+03  0.24785294137E+03  0.00000000000E+00 0.  1.
         -1    1    1    2    0  502 -0.15234078595E+01  0.32536083532E+02 -0.59842072550E+03  0.59930650106E+03  0.00000000000E+00 0. -1.
<mgrwt>
<rscale>  1 0.30000000E+03</rscale>
<asrwt>0</asrwt>
<pdfrwt beam="1">  1       21 0.40502187E-02 0.30000000E+03</pdfrwt>
<pdfrwt beam="2">0</pdfrwt>
<totfact> 0.41172812E+04</totfact>
</mgrwt>
</event>
<event>
 6    1  0.8397183E-002  0.3000000E+03  0.7818608E-02  0.1093470E+00
         21   -1    0    0  501  502  0.00000000000E+00  0.00000000000E+00  0.15380024381E+01  0.15380024381E+01  0.00000000000E+00 0. -1.
         13   -1    0    0    0    0 -0.00000000000E+00 -0.00000000000E+00 -0.10000000000E+04  0.10000000000E+04  0.00000000000E+00 0.  1.
    9000005    2    1    2  501    0 -0.33009124455E+02  0.19491079454E+02 -0.39877966167E+03  0.40063167990E+03  0.33196248047E+01 0.  0.
         13    1    3    3    0    0 -0.20362809783E+02  0.13869186666E+02 -0.25424150002E+03  0.25543245427E+03  0.00000000000E+00 0.  1.
          3    1    3    3  501    0 -0.12646314672E+02  0.56218927885E+01 -0.14453816165E+03  0.14519922564E+03  0.00000000000E+00 0.  1.
         -1    1    1    2    0  502  0.33009124455E+02 -0.19491079454E+02 -0.59968233590E+03  0.60090632253E+03  0.00000000000E+00 0. -1.
<mgrwt>
<rscale>  1 0.30000000E+03</rscale>
<asrwt>0</asrwt>
<pdfrwt beam="1">  1       21 0.55927479E-02 0.30000000E+03</pdfrwt>
<pdfrwt beam="2">0</pdfrwt>
<totfact> 0.23781915E+04</totfact>
</mgrwt>
</event>
<event>
 6    1  0.8397183E-002  0.3000000E+03  0.7818608E-02  0.1093470E+00
         21   -1    0    0  501  502  0.00000000000E+00  0.00000000000E+00  0.18847656553E+01  0.18847656553E+01  0.00000000000E+00 0. -1.
         13   -1    0    0    0    0 -0.00000000000E+00 -0.00000000000E+00 -0.10000000000E+04  0.10000000000E+04  0.00000000000E+00 0.  1.
    9000005    2    1    2  501    0 -0.26088234635E+02  0.25841147761E+02 -0.23549876309E+03  0.23838477015E+03  0.43897972325E+01 0.  0.
         13    1    3    3    0    0 -0.23734360678E+02  0.23196923074E+02 -0.21983129504E+03  0.22232232320E+03  0.00000000000E+00 0.  1.
          1    1    3    3  501    0 -0.23538739569E+01  0.26442246875E+01 -0.15667468055E+02  0.16062446951E+02  0.00000000000E+00 0.  1.
         -1    1    1    2    0  502  0.26088234635E+02 -0.25841147761E+02 -0.76261647125E+03  0.76349999550E+03  0.00000000000E+00 0. -1.
<mgrwt>
<rscale>  1 0.30000000E+03</rscale>
<asrwt>0</asrwt>
<pdfrwt beam="1">  1       21 0.68537077E-02 0.30000000E+03</pdfrwt>
<pdfrwt beam="2">0</pdfrwt>
<totfact> 0.16738887E+04</totfact>
</mgrwt>
</event>
<event>
 6    1  0.8397183E-002  0.3000000E+03  0.7818608E-02  0.1093470E+00
         21   -1    0    0  501  502  0.00000000000E+00  0.00000000000E+00  0.10349394937E+01  0.10349394937E+01  0.00000000000E+00 0. -1.
         13   -1    0    0    0    0 -0.00000000000E+00 -0.00000000000E+00 -0.10000000000E+04  0.10000000000E+04  0.00000000000E+00 0.  1.
    9000005    2    1    2  501    0  0.15847030293E+02 -0.27544806007E+02 -0.43042639556E+03  0.43160886155E+03  0.30793934217E+01 0.  0.
         13    1    3    3    0    0  0.15371853344E+02 -0.25578737502E+02 -0.40896625375E+03  0.41005360917E+03  0.00000000000E+00 0.  1.
          1    1    3    3  501    0  0.47517694888E+00 -0.19660685052E+01 -0.21460141805E+02  0.21555252371E+02  0.00000000000E+00 0.  1.
         -1    1    1    2    0  502 -0.15847030293E+02  0.27544806007E+02 -0.56853866495E+03  0.56942607795E+03  0.00000000000E+00 0. -1.
<mgrwt>
<rscale>  1 0.30000000E+03</rscale>
<asrwt>0</asrwt>
<pdfrwt beam="1">  1       21 0.37634243E-02 0.30000000E+03</pdfrwt>
<pdfrwt beam="2">0</pdfrwt>
<totfact> 0.46586858E+04</totfact>
</mgrwt>
</event>
<event>
 6    1  0.8397183E-002  0.3000000E+03  0.7818608E-02  0.1093470E+00
         21   -1    0    0  501  502  0.00000000000E+00  0.00000000000E+00  0.38594720209E+01  0.38594720209E+01  0.00000000000E+00 0. -1.
         13   -1    0    0    0    0 -0.00000000000E+00 -0.00000000000E+00 -0.10000000000E+04  0.10000000000E+04  0.00000000000E+00 0.  1.
    9000005    2    1    2  501    0 -0.22663035580E+00  0.60547693957E+02 -0.38741591092E+03  0.39213099138E+03  0.30905933510E+01 0.  0.
         13    1    3    3    0    0 -0.14197100862E+01  0.31836127949E+02 -0.20908262900E+03  0.21149728217E+03  0.00000000000E+00 0.  1.
          1    1    3    3  501    0  0.11930797304E+01  0.28711566008E+02 -0.17833328192E+03  0.18063370921E+03  0.00000000000E+00 0.  1.
         -3    1    1    2    0  502  0.22663035580E+00 -0.60547693957E+02 -0.60872461706E+03  0.61172848064E+03  0.00000000000E+00 0. -1.
<mgrwt>
<rscale>  1 0.30000000E+03</rscale>
<asrwt>0</asrwt>
<pdfrwt beam="1">  1       21 0.14034473E-01 0.30000000E+03</pdfrwt>
<pdfrwt beam="2">0</pdfrwt>
<totfact> 0.46555898E+03</totfact>
</mgrwt>
</event>
<event>
 6    1  0.8397183E-002  0.3000000E+03  0.7818608E-02  0.1093470E+00
         21   -1    0    0  501  502  0.00000000000E+00  0.00000000000E+00  0.16116794155E+01  0.16116794155E+01  0.00000000000E+00 0. -1.
         13   -1    0    0    0    0 -0.00000000000E+00 -0.00000000000E+00 -0.10000000000E+04  0.10000000000E+04  0.00000000000E+00 0.  1.
    9000005    2    1    2  501    0 -0.31432899697E+02  0.24429771688E+02 -0.44507573961E+03  0.44686880817E+03  0.38048392598E+01 0.  0.
         13    1    3    3    0    0 -0.76072417140E+01  0.56968081152E+01 -0.89234259172E+02  0.89738936695E+02  0.00000000000E+00 0.  1.
          3    1    3    3  501    0 -0.23825657983E+02  0.18732963573E+02 -0.35584148044E+03  0.35712987148E+03  0.00000000000E+00 0.  1.
         -1    1    1    2    0  502  0.31432899697E+02 -0.24429771688E+02 -0.55331258097E+03  0.55474287124E+03  0.00000000000E+00 0. -1.
<mgrwt>
<rscale>  1 0.30000000E+03</rscale>
<asrwt>0</asrwt>
<pdfrwt beam="1">  1       21 0.58606648E-02 0.30000000E+03</pdfrwt>
<pdfrwt beam="2">0</pdfrwt>
<totfact> 0.21942691E+04</totfact>
</mgrwt>
</event>
<event>
 6    1  0.8397183E-002  0.3000000E+03  0.7818608E-02  0.1093470E+00
         21   -1    0    0  501  502  0.00000000000E+00  0.00000000000E+00  0.13499832835E+01  0.13499832835E+01  0.00000000000E+00 0. -1.
         13   -1    0    0    0    0 -0.00000000000E+00 -0.00000000000E+00 -0.10000000000E+04  0.10000000000E+04  0.00000000000E+00 0.  1.
    9000005    2    1    2  501    0 -0.11475671763E+02  0.33906920464E+02 -0.60925450636E+03  0.61031260171E+03  0.30079885558E+01 0.  0.
         13    1    3    3    0    0 -0.19666242524E+01  0.31142030450E+01 -0.67369540833E+02  0.67470148241E+02  0.00000000000E+00 0.  1.
          1    1    3    3  501    0 -0.95090475104E+01  0.30792717419E+02 -0.54188496552E+03  0.54284245347E+03  0.00000000000E+00 0.  1.
         -3    1    1    2    0  502  0.11475671763E+02 -0.33906920464E+02 -0.38939551036E+03  0.39103738157E+03  0.00000000000E+00 0. -1.
<mgrwt>
<rscale>  1 0.30000000E+03</rscale>
<asrwt>0</asrwt>
<pdfrwt beam="1">  1       21 0.49090405E-02 0.30000000E+03</pdfrwt>
<pdfrwt beam="2">0</pdfrwt>
<totfact> 0.29720023E+04</totfact>
</mgrwt>
</event>
<event>
 6    1  0.8397183E-002  0.3000000E+03  0.7818608E-02  0.1093470E+00
         21   -1    0    0  501  502  0.00000000000E+00  0.00000000000E+00  0.18448211227E+01  0.18448211227E+01  0.00000000000E+00 0. -1.
         13   -1    0    0    0    0 -0.00000000000E+00 -0.00000000000E+00 -0.10000000000E+04  0.10000000000E+04  0.00000000000E+00 0.  1.
    9000005    2    1    2  501    0  0.15642462034E+02  0.39598772022E+02 -0.56038550869E+03  0.56200958663E+03  0.31792690287E+01 0.  0.
         13    1    3    3    0    0  0.79439319225E+01  0.17198415313E+02 -0.26442228544E+03  0.26510005013E+03  0.00000000000E+00 0.  1.
          1    1    3    3  501    0  0.76985301118E+01  0.22400356709E+02 -0.29596322325E+03  0.29690953650E+03  0.00000000000E+00 0.  1.
         -3    1    1    2    0  502 -0.15642462034E+02 -0.39598772022E+02 -0.43776967019E+03  0.43983523450E+03  0.00000000000E+00 0. -1.
<mgrwt>
<rscale>  1 0.30000000E+03</rscale>
<asrwt>0</asrwt>
<pdfrwt beam="1">  1       21 0.67084546E-02 0.30000000E+03</pdfrwt>
<pdfrwt beam="2">0</pdfrwt>
<totfact> 0.17373132E+04</totfact>
</mgrwt>
</event>
<event>
 6    1  0.8397183E-002  0.3000000E+03  0.7818608E-02  0.1093470E+00
         21   -1    0    0  501  502  0.00000000000E+00  0.00000000000E+00  0.17486152433E+01  0.17486152433E+01  0.00000000000E+00 0. -1.
         13   -1    0    0    0    0 -0.00000000000E+00 -0.00000000000E+00 -0.10000000000E+04  0.10000000000E+04  0.00000000000E+00 0.  1.
    9000005    2    1    2  501    0  0.21184291139E+02  0.23784169901E+02 -0.17677139162E+03  0.17965139468E+03  0.34695514562E+01 0.  0.
         13    1    3    3    0    0  0.10122945860E+02  0.12680327953E+02 -0.81503672306E+02  0.83103028521E+02  0.00000000000E+00 0.  1.
          1    1    3    3  501    0  0.11061345279E+02  0.11103841949E+02 -0.95267719312E+02  0.96548366160E+02  0.00000000000E+00 0.  1.
         -1    1    1    2    0  502 -0.21184291139E+02 -0.23784169901E+02 -0.82147999314E+03  0.82209722056E+03  0.00000000000E+00 0. -1.
<mgrwt>
<rscale>  1 0.30000000E+03</rscale>
<asrwt>0</asrwt>
<pdfrwt beam="1">  1       21 0.63586143E-02 0.30000000E+03</pdfrwt>
<pdfrwt beam="2">0</pdfrwt>
<totfact> 0.19061765E+04</totfact>
</mgrwt>
</event>
<event>
 6    1  0.8397183E-002  0.3000000E+03  0.7818608E-02  0.1093470E+00
         21   -1    0    0  501  502  0.00000000000E+00  0.00000000000E+00  0.15223116607E+01  0.15223116607E+01  0.00000000000E+00 0. -1.
         13   -1    0    0    0    0 -0.00000000000E+00 -0.00000000000E+00 -0.10000000000E+04  0.10000000000E+04  0.00000000000E+00 0.  1.
    9000005    2    1    2  501    0  0.49024993970E+00 -0.33317948106E+02 -0.24163376445E+03  0.24394521913E+03  0.34738738235E+01 0.  0.
         13    1    3    3    0    0 -0.24773734595E+00 -0.20249916335E+02 -0.13482364321E+03  0.13633611134E+03  0.00000000000E+00 0.  1.
          1    1    3    3  501    0  0.73798728565E+00 -0.13068031771E+02 -0.10681012124E+03  0.10760910779E+03  0.00000000000E+00 0.  1.
         -1    1    1    2    0  502 -0.49024993970E+00  0.33317948106E+02 -0.75684392389E+03  0.75757709254E+03  0.00000000000E+00 0. -1.
<mgrwt>
<rscale>  1 0.30000000E+03</rscale>
<asrwt>0</asrwt>
<pdfrwt beam="1">  1       21 0.55356904E-02 0.30000000E+03</pdfrwt>
<pdfrwt beam="2">0</pdfrwt>
<totfact> 0.24204145E+04</totfact>
</mgrwt>
</event>
<event>
 6    1  0.8397183E-002  0.3000000E+03  0.7818608E-02  0.1093470E+00
         21   -1    0    0  501  502  0.00000000000E+00  0.00000000000E+00  0.10904555728E+01  0.10904555728E+01  0.00000000000E+00 0. -1.
         13   -1    0    0    0    0 -0.00000000000E+00 -0.00000000000E+00 -0.10000000000E+04  0.10000000000E+04  0.00000000000E+00 0.  1.
    9000005    2    1    2  501    0 -0.31348742932E+02 -0.97736906744E+01 -0.54291643663E+03  0.54391654658E+03  0.29468217916E+01 0.  0.
         13    1    3    3    0    0 -0.63930615190E+01 -0.10885208240E+01 -0.94517650173E+02  0.94739866516E+02  0.00000000000E+00 0.  1.
          1    1    3    3  501    0 -0.24955681413E+02 -0.86851698503E+01 -0.44839878646E+03  0.44917668006E+03  0.00000000000E+00 0.  1.
         -3    1    1    2    0  502  0.31348742932E+02  0.97736906744E+01 -0.45599310779E+03  0.45717390900E+03  0.00000000000E+00 0. -1.
<mgrwt>
<rscale>  1 0.30000000E+03</rscale>
<asrwt>0</asrwt>
<pdfrwt beam="1">  1       21 0.39653014E-02 0.30000000E+03</pdfrwt>
<pdfrwt beam="2">0</pdfrwt>
<totfact> 0.42668660E+04</totfact>
</mgrwt>
</event>
<event>
 6    1  0.8397183E-002  0.3000000E+03  0.7818608E-02  0.1093470E+00
         21   -1    0    0  501  502  0.00000000000E+00  0.00000000000E+00  0.13115002049E+01  0.13115002049E+01  0.00000000000E+00 0. -1.
         13   -1    0    0    0    0 -0.00000000000E+00 -0.00000000000E+00 -0.10000000000E+04  0.10000000000E+04  0.00000000000E+00 0.  1.
    9000005    2    1    2  501    0  0.58410508728E+01 -0.35365241745E+02 -0.55946186522E+03  0.56062470131E+03  0.42022477211E+01 0.  0.
         13    1    3    3    0    0  0.27870661467E+01 -0.26770660240E+02 -0.40418264910E+03  0.40507783180E+03  0.00000000000E+00 0.  1.
          1    1    3    3  501    0  0.30539847261E+01 -0.85945815055E+01 -0.15527921612E+03  0.15554686951E+03  0.00000000000E+00 0.  1.
         -3    1    1    2    0  502 -0.58410508728E+01  0.35365241745E+02 -0.43922663458E+03  0.44068679889E+03  0.00000000000E+00 0. -1.
<mgrwt>
<rscale>  1 0.30000000E+03</rscale>
<asrwt>0</asrwt>
<pdfrwt beam="1">  1       21 0.47691017E-02 0.30000000E+03</pdfrwt>
<pdfrwt beam="2">0</pdfrwt>
<totfact> 0.31219689E+04</totfact>
</mgrwt>
</event>
<event>
 6    1  0.8397183E-002  0.3000000E+03  0.7818608E-02  0.1093470E+00
         21   -1    0    0  501  502  0.00000000000E+00  0.00000000000E+00  0.35305039686E+01  0.35305039686E+01  0.00000000000E+00 0. -1.
         13   -1    0    0    0    0 -0.00000000000E+00 -0.00000000000E+00 -0.10000000000E+04  0.10000000000E+04  0.00000000000E+00 0.  1.
    9000005    2    1    2  501    0  0.18804394781E+02 -0.42017156153E+02 -0.18211059668E+03  0.18787159019E+03  0.35239612652E+01 0.  0.
         13    1    3    3    0    0  0.97878567827E+01 -0.25360914971E+02 -0.11131134003E+03  0.11458268878E+03  0.00000000000E+00 0.  1.
          3    1    3    3  501    0  0.90165379982E+01 -0.16656241182E+02 -0.70799256651E+02  0.73288901412E+02  0.00000000000E+00 0.  1.
         -1    1    1    2    0  502 -0.18804394781E+02  0.42017156153E+02 -0.81435889935E+03  0.81565891378E+03  0.00000000000E+00 0. -1.
<mgrwt>
<rscale>  1 0.30000000E+03</rscale>
<asrwt>0</asrwt>
<pdfrwt beam="1">  1       21 0.12838223E-01 0.30000000E+03</pdfrwt>
<pdfrwt beam="2">0</pdfrwt>
<totfact> 0.54803720E+03</totfact>
</mgrwt>
</event>
<event>
 6    1  0.8397183E-002  0.3000000E+03  0.7818608E-02  0.1093470E+00
         21   -1    0    0  501  502  0.00000000000E+00  0.00000000000E+00  0.11566258150E+01  0.11566258150E+01  0.00000000000E+00 0. -1.
         13   -1    0    0    0    0 -0.00000000000E+00 -0.00000000000E+00 -0.10000000000E+04  0.10000000000E+04  0.00000000000E+00 0.  1.
    9000005    2    1    2  501    0  0.30026063872E+02 -0.14184073764E+02 -0.39946500242E+03  0.40085904544E+03  0.35963447144E+01 0.  0.
         13    1    3    3    0    0  0.13242983818E+02 -0.56088239878E+01 -0.15297015738E+03  0.15364473494E+03  0.00000000000E+00 0.  1.
          3    1    3    3  501    0  0.16783080054E+02 -0.85752497758E+01 -0.24649484504E+03  0.24721431050E+03  0.00000000000E+00 0.  1.
         -1    1    1    2    0  502 -0.30026063872E+02  0.14184073764E+02 -0.59937837176E+03  0.60029758037E+03  0.00000000000E+00 0. -1.
<mgrwt>
<rscale>  1 0.30000000E+03</rscale>
<asrwt>0</asrwt>
<pdfrwt beam="1">  1       21 0.42059209E-02 0.30000000E+03</pdfrwt>
<pdfrwt beam="2">0</pdfrwt>
<totfact> 0.38634438E+04</totfact>
</mgrwt>
</event>
<event>
 6    1  0.8397183E-002  0.3000000E+03  0.7818608E-02  0.1093470E+00
         21   -1    0    0  501  502  0.00000000000E+00  0.00000000000E+00  0.95182542559E+00  0.95182542559E+00  0.00000000000E+00 0. -1.
         13   -1    0    0    0    0 -0.00000000000E+00 -0.00000000000E+00 -0.10000000000E+04  0.10000000000E+04  0.00000000000E+00 0.  1.
    9000005    2    1    2  501    0  0.16951481356E+02 -0.25664364435E+02 -0.48673375165E+03  0.48771495978E+03  0.31819294872E+01 0.  0.
         13    1    3    3    0    0  0.13515345964E+02 -0.22386861897E+02 -0.41841631421E+03  0.41923268976E+03  0.00000000000E+00 0.  1.
          1    1    3    3  501    0  0.34361353923E+01 -0.32775025382E+01 -0.68317437436E+02  0.68482270020E+02  0.00000000000E+00 0.  1.
         -1    1    1    2    0  502 -0.16951481356E+02  0.25664364435E+02 -0.51231442293E+03  0.51323686565E+03  0.00000000000E+00 0. -1.
<mgrwt>
<rscale>  1 0.30000000E+03</rscale>
<asrwt>0</asrwt>
<pdfrwt beam="1">  1       21 0.34611907E-02 0.30000000E+03</pdfrwt>
<pdfrwt beam="2">0</pdfrwt>
<totfact> 0.53608034E+04</totfact>
</mgrwt>
</event>
<event>
 6    1  0.8397183E-002  0.3000000E+03  0.7818608E-02  0.1093470E+00
         21   -1    0    0  501  502  0.00000000000E+00  0.00000000000E+00  0.12159935481E+01  0.12159935481E+01  0.00000000000E+00 0. -1.
         13   -1    0    0    0    0 -0.00000000000E+00 -0.00000000000E+00 -0.10000000000E+04  0.10000000000E+04  0.00000000000E+00 0.  1.
    9000005    2    1    2  501    0 -0.29947081894E+02 -0.14976700913E+02 -0.63477948715E+03  0.63567472453E+03  0.40285002083E+01 0.  0.
         13    1    3    3    0    0 -0.19742922730E+02 -0.10223725518E+02 -0.45537923336E+03  0.45592165307E+03  0.00000000000E+00 0.  1.
          1    1    3    3  501    0 -0.10204159164E+02 -0.47529753947E+01 -0.17940025379E+03  0.17975307146E+03  0.00000000000E+00 0.  1.
         -1    1    1    2    0  502  0.29947081894E+02  0.14976700913E+02 -0.36400451930E+03  0.36554126902E+03  0.00000000000E+00 0. -1.
<mgrwt>
<rscale>  1 0.30000000E+03</rscale>
<asrwt>0</asrwt>
<pdfrwt beam="1">  1       21 0.44218040E-02 0.30000000E+03</pdfrwt>
<pdfrwt beam="2">0</pdfrwt>
<totfact> 0.35497854E+04</totfact>
</mgrwt>
</event>
<event>
 6    1  0.8397183E-002  0.3000000E+03  0.7818608E-02  0.1093470E+00
         21   -1    0    0  501  502  0.00000000000E+00  0.00000000000E+00  0.12902970049E+01  0.12902970049E+01  0.00000000000E+00 0. -1.
         13   -1    0    0    0    0 -0.00000000000E+00 -0.00000000000E+00 -0.10000000000E+04  0.10000000000E+04  0.00000000000E+00 0.  1.
    9000005    2    1    2  501    0 -0.24097468688E+02  0.24529462724E+02 -0.35884791770E+03  0.36050524192E+03  0.31335085491E+01 0.  0.
         13    1    3    3    0    0 -0.46573664601E+01  0.65302109921E+01 -0.79112348110E+02  0.79517912079E+02  0.00000000000E+00 0.  1.
          3    1    3    3  501    0 -0.19440102228E+02  0.17999251732E+02 -0.27973556959E+03  0.28098732984E+03  0.00000000000E+00 0.  1.
         -1    1    1    2    0  502  0.24097468688E+02 -0.24529462724E+02 -0.63986178529E+03  0.64078505508E+03  0.00000000000E+00 0. -1.
<mgrwt>
<rscale>  1 0.30000000E+03</rscale>
<asrwt>0</asrwt>
<pdfrwt beam="1">  1       21 0.46919990E-02 0.30000000E+03</pdfrwt>
<pdfrwt beam="2">0</pdfrwt>
<totfact> 0.32097176E+04</totfact>
</mgrwt>
</event>
<event>
 6    1  0.8397183E-002  0.3000000E+03  0.7818608E-02  0.1093470E+00
         21   -1    0    0  501  502  0.00000000000E+00  0.00000000000E+00  0.52788479441E+01  0.52788479441E+01  0.00000000000E+00 0. -1.
         13   -1    0    0    0    0 -0.00000000000E+00 -0.00000000000E+00 -0.10000000000E+04  0.10000000000E+04  0.00000000000E+00 0.  1.
    9000005    2    1    2  501    0  0.57347036783E+02 -0.36769671632E+02 -0.67161914472E+03  0.67507345955E+03  0.33479628828E+01 0.  0.
         13    1    3    3    0    0  0.32900926186E+01 -0.15175105058E+01 -0.30537857129E+02  0.30752044901E+02  0.00000000000E+00 0.  1.
          1    1    3    3  501    0  0.54056944165E+02 -0.35252161126E+02 -0.64108128759E+03  0.64432141465E+03  0.00000000000E+00 0.  1.
         -3    1    1    2    0  502 -0.57347036783E+02  0.36769671632E+02 -0.32310200734E+03  0.33020538840E+03  0.00000000000E+00 0. -1.
<mgrwt>
<rscale>  1 0.30000000E+03</rscale>
<asrwt>0</asrwt>
<pdfrwt beam="1">  1       21 0.19195851E-01 0.30000000E+03</pdfrwt>
<pdfrwt beam="2">0</pdfrwt>
<totfact> 0.25941374E+03</totfact>
</mgrwt>
</event>
<event>
 6    1  0.8397183E-002  0.3000000E+03  0.7818608E-02  0.1093470E+00
         21   -1    0    0  501  502  0.00000000000E+00  0.00000000000E+00  0.10981680540E+01  0.10981680540E+01  0.00000000000E+00 0. -1.
         13   -1    0    0    0    0 -0.00000000000E+00 -0.00000000000E+00 -0.10000000000E+04  0.10000000000E+04  0.00000000000E+00 0.  1.
    9000005    2    1    2  501    0 -0.31730978338E+02  0.81985656654E+01 -0.43782335387E+03  0.43906335594E+03  0.36427835651E+01 0.  0.
         13    1    3    3    0    0 -0.38700711388E+01 -0.19757467940E+00 -0.52673693264E+02  0.52816043476E+02  0.00000000000E+00 0.  1.
          3    1    3    3  501    0 -0.27860907199E+02  0.83961403448E+01 -0.38514966061E+03  0.38624731247E+03  0.00000000000E+00 0.  1.
         -3    1    1    2    0  502  0.31730978338E+02 -0.81985656654E+01 -0.56107847808E+03  0.56203481211E+03  0.00000000000E+00 0. -1.
<mgrwt>
<rscale>  1 0.30000000E+03</rscale>
<asrwt>0</asrwt>
<pdfrwt beam="1">  1       21 0.39933468E-02 0.30000000E+03</pdfrwt>
<pdfrwt beam="2">0</pdfrwt>
<totfact> 0.42165359E+04</totfact>
</mgrwt>
</event>
<event>
 6    1  0.8397183E-002  0.3000000E+03  0.7818608E-02  0.1093470E+00
         21   -1    0    0  501  502  0.00000000000E+00  0.00000000000E+00  0.16927923347E+01  0.16927923347E+01  0.00000000000E+00 0. -1.
         13   -1    0    0    0    0 -0.00000000000E+00 -0.00000000000E+00 -0.10000000000E+04  0.10000000000E+04  0.00000000000E+00 0.  1.
    9000005    2    1    2  501    0  0.40031390434E+02  0.33472945019E+01 -0.60311720509E+03  0.60446633962E+03  0.39339621166E+01 0.  0.
         13    1    3    3    0    0  0.40128532688E+01  0.15330830394E+01 -0.66625716844E+02  0.66764058295E+02  0.00000000000E+00 0.  1.
          3    1    3    3  501    0  0.36018537165E+02  0.18142114625E+01 -0.53649148824E+03  0.53770228132E+03  0.00000000000E+00 0.  1.
         -3    1    1    2    0  502 -0.40031390434E+02 -0.33472945019E+01 -0.39519000258E+03  0.39722645272E+03  0.00000000000E+00 0. -1.
<mgrwt>
<rscale>  1 0.30000000E+03</rscale>
<asrwt>0</asrwt>
<pdfrwt beam="1">  1       21 0.61556215E-02 0.30000000E+03</pdfrwt>
<pdfrwt beam="2">0</pdfrwt>
<totfact> 0.20160883E+04</totfact>
</mgrwt>
</event>
<event>
 6    1  0.8397183E-002  0.3000000E+03  0.7818608E-02  0.1093470E+00
         21   -1    0    0  501  502  0.00000000000E+00  0.00000000000E+00  0.11985782488E+01  0.11985782488E+01  0.00000000000E+00 0. -1.
         13   -1    0    0    0    0 -0.00000000000E+00 -0.00000000000E+00 -0.10000000000E+04  0.10000000000E+04  0.00000000000E+00 0.  1.
    9000005    2    1    2  501    0 -0.88278644797E+01 -0.32207006471E+02 -0.37228844720E+03  0.37379621155E+03  0.31140639331E+01 0.  0.
         13    1    3    3    0    0 -0.71197626974E+01 -0.23022783112E+02 -0.25487741277E+03  0.25601413067E+03  0.00000000000E+00 0.  1.
          3    1    3    3  501    0 -0.17081017824E+01 -0.91842233588E+01 -0.11741103443E+03  0.11778208088E+03  0.00000000000E+00 0.  1.
         -1    1    1    2    0  502  0.88278644797E+01  0.32207006471E+02 -0.62651297455E+03  0.62740236670E+03  0.00000000000E+00 0. -1.
<mgrwt>
<rscale>  1 0.30000000E+03</rscale>
<asrwt>0</asrwt>
<pdfrwt beam="1">  1       21 0.43584756E-02 0.30000000E+03</pdfrwt>
<pdfrwt beam="2">0</pdfrwt>
<totfact> 0.36375824E+04</totfact>
</mgrwt>
</event>
<event>
 6    1  0.8397183E-002  0.3000000E+03  0.7818608E-02  0.1093470E+00
         21   -1    0    0  501  502  0.00000000000E+00  0.00000000000E+00  0.19618267795E+01  0.19618267795E+01  0.00000000000E+00 0. -1.
         13   -1    0    0    0    0 -0.00000000000E+00 -0.00000000000E+00 -0.10000000000E+04  0.10000000000E+04  0.00000000000E+00 0.  1.
    9000005    2    1    2  501    0 -0.43867084155E+02  0.36302548419E+01 -0.45163845174E+03  0.45379200322E+03  0.35201246954E+01 0.  0.
         13    1    3    3    0    0 -0.39686587579E+02  0.35134545212E+01 -0.41803214567E+03  0.41992647501E+03  0.00000000000E+00 0.  1.
          1    1    3    3  501    0 -0.41804965757E+01  0.11680032069E+00 -0.33606306064E+02  0.33865528214E+02  0.00000000000E+00 0.  1.
         -3    1    1    2    0  502  0.43867084155E+02 -0.36302548419E+01 -0.54639972148E+03  0.54816982356E+03  0.00000000000E+00 0. -1.
<mgrwt>
<rscale>  1 0.30000000E+03</rscale>
<asrwt>0</asrwt>
<pdfrwt beam="1">  1       21 0.71339306E-02 0.30000000E+03</pdfrwt>
<pdfrwt beam="2">0</pdfrwt>
<totfact> 0.15611370E+04</totfact>
</mgrwt>
</event>
<event>
 6    1  0.8397183E-002  0.3000000E+03  0.7818608E-02  0.1093470E+00
         21   -1    0    0  501  502  0.00000000000E+00  0.00000000000E+00  0.21486958900E+01  0.21486958900E+01  0.00000000000E+00 0. -1.
         13   -1    0    0    0    0 -0.00000000000E+00 -0.00000000000E+00 -0.10000000000E+04  0.10000000000E+04  0.00000000000E+00 0.  1.
    9000005    2    1    2  501    0  0.34315885292E+02 -0.22564353499E+02 -0.72989584488E+03  0.73106409993E+03  0.44770314361E+01 0.  0.
         13    1    3    3    0    0  0.33235415061E+01 -0.35021099234E+01 -0.70478015262E+02  0.70643197389E+02  0.00000000000E+00 0.  1.
          3    1    3    3  501    0  0.30992343786E+02 -0.19062243576E+02 -0.65941782961E+03  0.66042090254E+03  0.00000000000E+00 0.  1.
         -1    1    1    2    0  502 -0.34315885292E+02  0.22564353499E+02 -0.26795545923E+03  0.27108459596E+03  0.00000000000E+00 0. -1.
<mgrwt>
<rscale>  1 0.30000000E+03</rscale>
<asrwt>0</asrwt>
<pdfrwt beam="1">  1       21 0.78134561E-02 0.30000000E+03</pdfrwt>
<pdfrwt beam="2">0</pdfrwt>
<totfact> 0.13314010E+04</totfact>
</mgrwt>
</event>
<event>
 6    1  0.8397183E-002  0.3000000E+03  0.7818608E-02  0.1093470E+00
         21   -1    0    0  501  502  0.00000000000E+00  0.00000000000E+00  0.10221405694E+01  0.10221405694E+01  0.00000000000E+00 0. -1.
         13   -1    0    0    0    0 -0.00000000000E+00 -0.00000000000E+00 -0.10000000000E+04  0.10000000000E+04  0.00000000000E+00 0.  1.
    9000005    2    1    2  501    0  0.11735431958E+02 -0.29192809734E+02 -0.41879239323E+03  0.41998417649E+03  0.31143822682E+01 0.  0.
         13    1    3    3    0    0  0.40811874663E+01 -0.10844388796E+02 -0.17438861674E+03  0.17477312868E+03  0.00000000000E+00 0.  1.
          1    1    3    3  501    0  0.76542444916E+01 -0.18348420938E+02 -0.24440377649E+03  0.24521104781E+03  0.00000000000E+00 0.  1.
         -1    1    1    2    0  502 -0.11735431958E+02  0.29192809734E+02 -0.58018546621E+03  0.58103796408E+03  0.00000000000E+00 0. -1.
<mgrwt>
<rscale>  1 0.30000000E+03</rscale>
<asrwt>0</asrwt>
<pdfrwt beam="1">  1       21 0.37168826E-02 0.30000000E+03</pdfrwt>
<pdfrwt beam="2">0</pdfrwt>
<totfact> 0.47570522E+04</totfact>
</mgrwt>
</event>
<event>
 6    1  0.8397183E-002  0.3000000E+03  0.7818608E-02  0.1093470E+00
         21   -1    0    0  501  502  0.00000000000E+00  0.00000000000E+00  0.21323168072E+01  0.21323168072E+01  0.00000000000E+00 0. -1.
         13   -1    0    0    0    0 -0.00000000000E+00 -0.00000000000E+00 -0.10000000000E+04  0.10000000000E+04  0.00000000000E+00 0.  1.
    9000005    2    1    2  501    0  0.34407230113E+02  0.19776379150E+02 -0.75453330768E+03  0.75558296888E+03  0.31855625810E+01 0.  0.
         13    1    3    3    0    0  0.31633044058E+01  0.22975552277E+01 -0.59589400844E+02  0.59717517930E+02  0.00000000000E+00 0.  1.
          1    1    3    3  501    0  0.31243925707E+02  0.17478823923E+02 -0.69494390683E+03  0.69586545095E+03  0.00000000000E+00 0.  1.
         -1    1    1    2    0  502 -0.34407230113E+02 -0.19776379150E+02 -0.24333437552E+03  0.24654934793E+03  0.00000000000E+00 0. -1.
<mgrwt>
<rscale>  1 0.30000000E+03</rscale>
<asrwt>0</asrwt>
<pdfrwt beam="1">  1       21 0.77538956E-02 0.30000000E+03</pdfrwt>
<pdfrwt beam="2">0</pdfrwt>
<totfact> 0.13493898E+04</totfact>
</mgrwt>
</event>
<event>
 6    1  0.8397183E-002  0.3000000E+03  0.7818608E-02  0.1093470E+00
         21   -1    0    0  501  502  0.00000000000E+00  0.00000000000E+00  0.16307195880E+01  0.16307195880E+01  0.00000000000E+00 0. -1.
         13   -1    0    0    0    0 -0.00000000000E+00 -0.00000000000E+00 -0.10000000000E+04  0.10000000000E+04  0.00000000000E+00 0.  1.
    9000005    2    1    2  501    0 -0.26953203220E+02  0.29811001733E+02 -0.53929908271E+03  0.54080470317E+03  0.33249620349E+01 0.  0.
         13    1    3    3    0    0 -0.50390738810E+01  0.49000096050E+01 -0.11116565089E+03  0.11138763081E+03  0.00000000000E+00 0.  1.
          3    1    3    3  501    0 -0.21914129339E+02  0.24910992128E+02 -0.42813343182E+03  0.42941707236E+03  0.00000000000E+00 0.  1.
         -1    1    1    2    0  502  0.26953203220E+02 -0.29811001733E+02 -0.45907019771E+03  0.46082601642E+03  0.00000000000E+00 0. -1.
<mgrwt>
<rscale>  1 0.30000000E+03</rscale>
<asrwt>0</asrwt>
<pdfrwt beam="1">  1       21 0.59299019E-02 0.30000000E+03</pdfrwt>
<pdfrwt beam="2">0</pdfrwt>
<totfact> 0.21502996E+04</totfact>
</mgrwt>
</event>
<event>
 6    1  0.8397183E-002  0.3000000E+03  0.7818608E-02  0.1093470E+00
         21   -1    0    0  501  502  0.00000000000E+00  0.00000000000E+00  0.36989755818E+01  0.36989755818E+01  0.00000000000E+00 0. -1.
         13   -1    0    0    0    0 -0.00000000000E+00 -0.00000000000E+00 -0.10000000000E+04  0.10000000000E+04  0.00000000000E+00 0.  1.
    9000005    2    1    2  501    0  0.55772523110E+02  0.14561953837E+02 -0.33964274719E+03  0.34451560360E+03  0.33437370595E+01 0.  0.
         13    1    3    3    0    0  0.22826654252E+02  0.70062874397E+01 -0.14841614111E+03  0.15032463255E+03  0.00000000000E+00 0.  1.
          3    1    3    3  501    0  0.32945868858E+02  0.75556663969E+01 -0.19122660608E+03  0.19419097106E+03  0.00000000000E+00 0.  1.
         -3    1    1    2    0  502 -0.55772523110E+02 -0.14561953837E+02 -0.65665827723E+03  0.65918337198E+03  0.00000000000E+00 0. -1.
<mgrwt>
<rscale>  1 0.30000000E+03</rscale>
<asrwt>0</asrwt>
<pdfrwt beam="1">  1       21 0.13450849E-01 0.30000000E+03</pdfrwt>
<pdfrwt beam="2">0</pdfrwt>
<totfact> 0.50328045E+03</totfact>
</mgrwt>
</event>
<event>
 6    1  0.8397183E-002  0.3000000E+03  0.7818608E-02  0.1093470E+00
         21   -1    0    0  501  502  0.00000000000E+00  0.00000000000E+00  0.12646482575E+01  0.12646482575E+01  0.00000000000E+00 0. -1.
         13   -1    0    0    0    0 -0.00000000000E+00 -0.00000000000E+00 -0.10000000000E+04  0.10000000000E+04  0.00000000000E+00 0.  1.
    9000005    2    1    2  501    0 -0.19599669511E+02 -0.23823570058E+02 -0.25643116921E+03  0.25831969139E+03  0.45176188740E+01 0.  0.
         13    1    3    3    0    0 -0.32717622802E+01 -0.65388163541E+01 -0.69016305640E+02  0.69402528714E+02  0.00000000000E+00 0.  1.
          1    1    3    3  501    0 -0.16327907231E+02 -0.17284753703E+02 -0.18741486357E+03  0.18891716267E+03  0.00000000000E+00 0.  1.
         -1    1    1    2    0  502  0.19599669511E+02  0.23823570058E+02 -0.74230418253E+03  0.74294495687E+03  0.00000000000E+00 0. -1.
<mgrwt>
<rscale>  1 0.30000000E+03</rscale>
<asrwt>0</asrwt>
<pdfrwt beam="1">  1       21 0.45987306E-02 0.30000000E+03</pdfrwt>
<pdfrwt beam="2">0</pdfrwt>
<totfact> 0.33211353E+04</totfact>
</mgrwt>
</event>
<event>
 6    1  0.8397183E-002  0.3000000E+03  0.7818608E-02  0.1093470E+00
         21   -1    0    0  501  502  0.00000000000E+00  0.00000000000E+00  0.21871827747E+01  0.21871827747E+01  0.00000000000E+00 0. -1.
         13   -1    0    0    0    0 -0.00000000000E+00 -0.00000000000E+00 -0.10000000000E+04  0.10000000000E+04  0.00000000000E+00 0.  1.
    9000005    2    1    2  501    0 -0.30727025196E+02 -0.34701006437E+02 -0.55993207504E+03  0.56186019712E+03  0.38265541102E+01 0.  0.
         13    1    3    3    0    0 -0.12201088186E+02 -0.16255905703E+02 -0.25648315070E+03  0.25728724728E+03  0.00000000000E+00 0.  1.
          3    1    3    3  501    0 -0.18525937009E+02 -0.18445100734E+02 -0.30344892435E+03  0.30457294984E+03  0.00000000000E+00 0.  1.
         -3    1    1    2    0  502  0.30727025196E+02  0.34701006437E+02 -0.43788074218E+03  0.44032698566E+03  0.00000000000E+00 0. -1.
<mgrwt>
<rscale>  1 0.30000000E+03</rscale>
<asrwt>0</asrwt>
<pdfrwt beam="1">  1       21 0.79534087E-02 0.30000000E+03</pdfrwt>
<pdfrwt beam="2">0</pdfrwt>
<totfact> 0.12905573E+04</totfact>
</mgrwt>
</event>
<event>
 6    1  0.8397183E-002  0.3000000E+03  0.7818608E-02  0.1093470E+00
         21   -1    0    0  501  502  0.00000000000E+00  0.00000000000E+00  0.12542026586E+01  0.12542026586E+01  0.00000000000E+00 0. -1.
         13   -1    0    0    0    0 -0.00000000000E+00 -0.00000000000E+00 -0.10000000000E+04  0.10000000000E+04  0.00000000000E+00 0.  1.
    9000005    2    1    2  501    0  0.14438372176E+02 -0.31860069774E+02 -0.42849384772E+03  0.42993046196E+03  0.31135111278E+01 0.  0.
         13    1    3    3    0    0  0.84520521073E+01 -0.16278381611E+02 -0.20949826962E+03  0.21029966207E+03  0.00000000000E+00 0.  1.
          3    1    3    3  501    0  0.59863200688E+01 -0.15581688163E+02 -0.21899557810E+03  0.21963079989E+03  0.00000000000E+00 0.  1.
         -3    1    1    2    0  502 -0.14438372176E+02  0.31860069774E+02 -0.57025194962E+03  0.57132374070E+03  0.00000000000E+00 0. -1.
<mgrwt>
<rscale>  1 0.30000000E+03</rscale>
<asrwt>0</asrwt>
<pdfrwt beam="1">  1       21 0.45607466E-02 0.30000000E+03</pdfrwt>
<pdfrwt beam="2">0</pdfrwt>
<totfact> 0.33682586E+04</totfact>
</mgrwt>
</event>
<event>
 6    1  0.8397183E-002  0.3000000E+03  0.7818608E-02  0.1093470E+00
         21   -1    0    0  501  502  0.00000000000E+00  0.00000000000E+00  0.17010169099E+01  0.17010169099E+01  0.00000000000E+00 0. -1.
         13   -1    0    0    0    0 -0.00000000000E+00 -0.00000000000E+00 -0.10000000000E+04  0.10000000000E+04  0.00000000000E+00 0.  1.
    9000005    2    1    2  501    0  0.39645620791E+02 -0.79463776220E+00 -0.63534659184E+03  0.63658891767E+03  0.27841768379E+01 0.  0.
         13    1    3    3    0    0  0.66001628766E+01  0.64684952308E+00 -0.95571482534E+02  0.95801298728E+02  0.00000000000E+00 0.  1.
          3    1    3    3  501    0  0.33045457914E+02 -0.14414872853E+01 -0.53977510931E+03  0.54078761894E+03  0.00000000000E+00 0.  1.
         -1    1    1    2    0  502 -0.39645620791E+02  0.79463776220E+00 -0.36295239125E+03  0.36511209924E+03  0.00000000000E+00 0. -1.
<mgrwt>
<rscale>  1 0.30000000E+03</rscale>
<asrwt>0</asrwt>
<pdfrwt beam="1">  1       21 0.61855291E-02 0.30000000E+03</pdfrwt>
<pdfrwt beam="2">0</pdfrwt>
<totfact> 0.19992860E+04</totfact>
</mgrwt>
</event>
<event>
 6    1  0.8397183E-002  0.3000000E+03  0.7818608E-02  0.1093470E+00
         21   -1    0    0  501  502  0.00000000000E+00  0.00000000000E+00  0.10615812336E+01  0.10615812336E+01  0.00000000000E+00 0. -1.
         13   -1    0    0    0    0 -0.00000000000E+00 -0.00000000000E+00 -0.10000000000E+04  0.10000000000E+04  0.00000000000E+00 0.  1.
    9000005    2    1    2  501    0 -0.11251209255E+01  0.30372905345E+02 -0.32462476245E+03  0.32606329503E+03  0.35009566143E+01 0.  0.
         13    1    3    3    0    0  0.12045341529E+01  0.95518716930E+01 -0.97338941238E+02  0.97813897973E+02  0.00000000000E+00 0.  1.
          3    1    3    3  501    0 -0.23296550784E+01  0.20821033652E+02 -0.22728582121E+03  0.22824939706E+03  0.00000000000E+00 0.  1.
         -3    1    1    2    0  502  0.11251209255E+01 -0.30372905345E+02 -0.67431365632E+03  0.67499828620E+03  0.00000000000E+00 0. -1.
<mgrwt>
<rscale>  1 0.30000000E+03</rscale>
<asrwt>0</asrwt>
<pdfrwt beam="1">  1       21 0.38603035E-02 0.30000000E+03</pdfrwt>
<pdfrwt beam="2">0</pdfrwt>
<totfact> 0.44639077E+04</totfact>
</mgrwt>
</event>
<event>
 6    1  0.8397183E-002  0.3000000E+03  0.7818608E-02  0.1093470E+00
         21   -1    0    0  501  502  0.00000000000E+00  0.00000000000E+00  0.10610697210E+01  0.10610697210E+01  0.00000000000E+00 0. -1.
         13   -1    0    0    0    0 -0.00000000000E+00 -0.00000000000E+00 -0.10000000000E+04  0.10000000000E+04  0.00000000000E+00 0.  1.
    9000005    2    1    2  501    0  0.18092873543E+02 -0.25446620896E+02 -0.64025797067E+03  0.64102369198E+03  0.24944095209E+01 0.  0.
         13    1    3    3    0    0  0.78329794896E+01 -0.12855337959E+02 -0.29476170454E+03  0.29514585842E+03  0.00000000000E+00 0.  1.
          3    1    3    3  501    0  0.10259894053E+02 -0.12591282937E+02 -0.34549626614E+03  0.34587783356E+03  0.00000000000E+00 0.  1.
         -1    1    1    2    0  502 -0.18092873543E+02  0.25446620896E+02 -0.35868095960E+03  0.36003737774E+03  0.00000000000E+00 0. -1.
<mgrwt>
<rscale>  1 0.30000000E+03</rscale>
<asrwt>0</asrwt>
<pdfrwt beam="1">  1       21 0.38584435E-02 0.30000000E+03</pdfrwt>
<pdfrwt beam="2">0</pdfrwt>
<totfact> 0.44675262E+04</totfact>
</mgrwt>
</event>
<event>
 6    1  0.8397183E-002  0.3000000E+03  0.7818608E-02  0.1093470E+00
         21   -1    0    0  501  502  0.00000000000E+00  0.00000000000E+00  0.14557028897E+01  0.14557028897E+01  0.00000000000E+00 0. -1.
         13   -1    0    0    0    0 -0.00000000000E+00 -0.00000000000E+00 -0.10000000000E+04  0.10000000000E+04  0.00000000000E+00 0.  1.
    9000005    2    1    2  501    0  0.18669607123E+02 -0.32787277360E+02 -0.43715519422E+03  0.43880013806E+03  0.41638376034E+01 0.  0.
         13    1    3    3    0    0  0.81675293335E+01 -0.12246414758E+02 -0.15053352692E+03  0.15125153202E+03  0.00000000000E+00 0.  1.
          3    1    3    3  501    0  0.10502077790E+02 -0.20540862602E+02 -0.28662166730E+03  0.28754860605E+03  0.00000000000E+00 0.  1.
         -1    1    1    2    0  502 -0.18669607123E+02  0.32787277360E+02 -0.56138910289E+03  0.56265556482E+03  0.00000000000E+00 0. -1.
<mgrwt>
<rscale>  1 0.30000000E+03</rscale>
<asrwt>0</asrwt>
<pdfrwt beam="1">  1       21 0.52934762E-02 0.30000000E+03</pdfrwt>
<pdfrwt beam="2">0</pdfrwt>
<totfact> 0.26131852E+04</totfact>
</mgrwt>
</event>
<event>
 6    1  0.8397183E-002  0.3000000E+03  0.7818608E-02  0.1093470E+00
         21   -1    0    0  501  502  0.00000000000E+00  0.00000000000E+00  0.15947873531E+01  0.15947873531E+01  0.00000000000E+00 0. -1.
         13   -1    0    0    0    0 -0.00000000000E+00 -0.00000000000E+00 -0.10000000000E+04  0.10000000000E+04  0.00000000000E+00 0.  1.
    9000005    2    1    2  501    0 -0.28519833780E+02  0.19101779838E+02 -0.24612204999E+03  0.24852890994E+03  0.35066609828E+01 0.  0.
         13    1    3    3    0    0 -0.27928838134E+02  0.18420761522E+02 -0.23489164163E+03  0.23726236061E+03  0.00000000000E+00 0.  1.
          3    1    3    3  501    0 -0.59099564596E+00  0.68101831598E+00 -0.11230408364E+02  0.11266549330E+02  0.00000000000E+00 0.  1.
         -3    1    1    2    0  502  0.28519833780E+02 -0.19101779838E+02 -0.75228316265E+03  0.75306587741E+03  0.00000000000E+00 0. -1.
<mgrwt>
<rscale>  1 0.30000000E+03</rscale>
<asrwt>0</asrwt>
<pdfrwt beam="1">  1       21 0.57992390E-02 0.30000000E+03</pdfrwt>
<pdfrwt beam="2">0</pdfrwt>
<totfact> 0.22344622E+04</totfact>
</mgrwt>
</event>
<event>
 6    1  0.8397183E-002  0.3000000E+03  0.7818608E-02  0.1093470E+00
         21   -1    0    0  501  502  0.00000000000E+00  0.00000000000E+00  0.10933941219E+01  0.10933941219E+01  0.00000000000E+00 0. -1.
         13   -1    0    0    0    0 -0.00000000000E+00 -0.00000000000E+00 -0.10000000000E+04  0.10000000000E+04  0.00000000000E+00 0.  1.
    9000005    2    1    2  501    0  0.13725114890E+02 -0.28543067905E+02 -0.36003524967E+03  0.36143747467E+03  0.29294347856E+01 0.  0.
         13    1    3    3    0    0  0.40976458279E+01 -0.67088766138E+01 -0.78421125182E+02  0.78814164980E+02  0.00000000000E+00 0.  1.
          1    1    3    3  501    0  0.96274690625E+01 -0.21834191291E+02 -0.28161412449E+03  0.28262330969E+03  0.00000000000E+00 0.  1.
         -3    1    1    2    0  502 -0.13725114890E+02  0.28543067905E+02 -0.63887135621E+03  0.63965591945E+03  0.00000000000E+00 0. -1.
<mgrwt>
<rscale>  1 0.30000000E+03</rscale>
<asrwt>0</asrwt>
<pdfrwt beam="1">  1       21 0.39759870E-02 0.30000000E+03</pdfrwt>
<pdfrwt beam="2">0</pdfrwt>
<totfact> 0.42475793E+04</totfact>
</mgrwt>
</event>
<event>
 6    1  0.8397183E-002  0.3000000E+03  0.7818608E-02  0.1093470E+00
         21   -1    0    0  501  502  0.00000000000E+00  0.00000000000E+00  0.14641274570E+01  0.14641274570E+01  0.00000000000E+00 0. -1.
         13   -1    0    0    0    0 -0.00000000000E+00 -0.00000000000E+00 -0.10000000000E+04  0.10000000000E+04  0.00000000000E+00 0.  1.
    9000005    2    1    2  501    0  0.38074783848E+02 -0.24762452469E+01 -0.51904712082E+03  0.52045967427E+03  0.35408975563E+01 0.  0.
         13    1    3    3    0    0  0.10636224294E+01  0.34803949851E+00 -0.10421866281E+02  0.10481780428E+02  0.00000000000E+00 0.  1.
          3    1    3    3  501    0  0.37011161419E+02 -0.28242847454E+01 -0.50862525453E+03  0.50997789384E+03  0.00000000000E+00 0.  1.
         -1    1    1    2    0  502 -0.38074783848E+02  0.24762452469E+01 -0.47948875173E+03  0.48100445319E+03  0.00000000000E+00 0. -1.
<mgrwt>
<rscale>  1 0.30000000E+03</rscale>
<asrwt>0</asrwt>
<pdfrwt beam="1">  1       21 0.53241111E-02 0.30000000E+03</pdfrwt>
<pdfrwt beam="2">0</pdfrwt>
<totfact> 0.25875183E+04</totfact>
</mgrwt>
</event>
<event>
 6    1  0.8397183E-002  0.3000000E+03  0.7818608E-02  0.1093470E+00
         21   -1    0    0  501  502  0.00000000000E+00  0.00000000000E+00  0.33160928185E+01  0.33160928185E+01  0.00000000000E+00 0. -1.
         13   -1    0    0    0    0 -0.00000000000E+00 -0.00000000000E+00 -0.10000000000E+04  0.10000000000E+04  0.00000000000E+00 0.  1.
    9000005    2    1    2  501    0  0.15547517446E+02 -0.54565199966E+02 -0.58170072138E+03  0.58447229038E+03  0.36114564824E+01 0.  0.
         13    1    3    3    0    0  0.34790207383E+01 -0.17627734300E+02 -0.19207990063E+03  0.19291845124E+03  0.00000000000E+00 0.  1.
          3    1    3    3  501    0  0.12068496708E+02 -0.36937465666E+02 -0.38962082075E+03  0.39155383914E+03  0.00000000000E+00 0.  1.
         -3    1    1    2    0  502 -0.15547517446E+02  0.54565199966E+02 -0.41498318580E+03  0.41884380244E+03  0.00000000000E+00 0. -1.
<mgrwt>
<rscale>  1 0.30000000E+03</rscale>
<asrwt>0</asrwt>
<pdfrwt beam="1">  1       21 0.12058545E-01 0.30000000E+03</pdfrwt>
<pdfrwt beam="2">0</pdfrwt>
<totfact> 0.61426064E+03</totfact>
</mgrwt>
</event>
<event>
 6    1  0.8397183E-002  0.3000000E+03  0.7818608E-02  0.1093470E+00
         21   -1    0    0  501  502  0.00000000000E+00  0.00000000000E+00  0.14579155409E+01  0.14579155409E+01  0.00000000000E+00 0. -1.
         13   -1    0    0    0    0 -0.00000000000E+00 -0.00000000000E+00 -0.10000000000E+04  0.10000000000E+04  0.00000000000E+00 0.  1.
    9000005    2    1    2  501    0 -0.37340002678E+02  0.28875613716E+01 -0.59293526999E+03  0.59412573935E+03  0.32474540949E+01 0.  0.
         13    1    3    3    0    0 -0.16245982995E+02  0.22495936491E+01 -0.27954757788E+03  0.28002828596E+03  0.00000000000E+00 0.  1.
          1    1    3    3  501    0 -0.21094019683E+02  0.63796772252E+00 -0.31338769210E+03  0.31409745340E+03  0.00000000000E+00 0.  1.
         -3    1    1    2    0  502  0.37340002678E+02 -0.28875613716E+01 -0.40560681447E+03  0.40733217619E+03  0.00000000000E+00 0. -1.
<mgrwt>
<rscale>  1 0.30000000E+03</rscale>
<asrwt>0</asrwt>
<pdfrwt beam="1">  1       21 0.53015222E-02 0.30000000E+03</pdfrwt>
<pdfrwt beam="2">0</pdfrwt>
<totfact> 0.26064059E+04</totfact>
</mgrwt>
</event>
<event>
 6    1  0.8397183E-002  0.3000000E+03  0.7818608E-02  0.1093470E+00
         21   -1    0    0  501  502  0.00000000000E+00  0.00000000000E+00  0.10977351749E+02  0.10977351749E+02  0.00000000000E+00 0. -1.
         13   -1    0    0    0    0 -0.00000000000E+00 -0.00000000000E+00 -0.10000000000E+04  0.10000000000E+04  0.00000000000E+00 0.  1.
    9000005    2    1    2  501    0 -0.74005210505E+02  0.98184046433E+01 -0.84909259039E+03  0.85237850767E+03  0.42096345091E+01 0.  0.
         13    1    3    3    0    0 -0.52215816445E+02  0.77742926313E+01 -0.61944346478E+03  0.62168893923E+03  0.00000000000E+00 0.  1.
          1    1    3    3  501    0 -0.21789394060E+02  0.20441120120E+01 -0.22964912562E+03  0.23068956843E+03  0.00000000000E+00 0.  1.
         -3    1    1    2    0  502  0.74005210505E+02 -0.98184046433E+01 -0.13993005786E+03  0.15859884408E+03  0.00000000000E+00 0. -1.
<mgrwt>
<rscale>  1 0.30000000E+03</rscale>
<asrwt>0</asrwt>
<pdfrwt beam="1">  1       21 0.39917727E-01 0.30000000E+03</pdfrwt>
<pdfrwt beam="2">0</pdfrwt>
<totfact> 0.60662030E+02</totfact>
</mgrwt>
</event>
<event>
 6    1  0.8397183E-002  0.3000000E+03  0.7818608E-02  0.1093470E+00
         21   -1    0    0  501  502  0.00000000000E+00  0.00000000000E+00  0.26475669599E+01  0.26475669599E+01  0.00000000000E+00 0. -1.
         13   -1    0    0    0    0 -0.00000000000E+00 -0.00000000000E+00 -0.10000000000E+04  0.10000000000E+04  0.00000000000E+00 0.  1.
    9000005    2    1    2  501    0 -0.24438228003E+02 -0.33794982730E+02 -0.79189337574E+03  0.79299845041E+03  0.34779243684E+01 0.  0.
         13    1    3    3    0    0  0.21915638018E-02 -0.14663067535E-01 -0.93649727475E-02  0.17535997719E-01  0.00000000000E+00 0.  1.
          3    1    3    3  501    0 -0.24440419567E+02 -0.33780319662E+02 -0.79188401077E+03  0.79298091441E+03  0.00000000000E+00 0.  1.
         -3    1    1    2    0  502  0.24438228003E+02  0.33794982730E+02 -0.20545905730E+03  0.20964911655E+03  0.00000000000E+00 0. -1.
<mgrwt>
<rscale>  1 0.30000000E+03</rscale>
<asrwt>0</asrwt>
<pdfrwt beam="1">  1       21 0.96275365E-02 0.30000000E+03</pdfrwt>
<pdfrwt beam="2">0</pdfrwt>
<totfact> 0.92062755E+03</totfact>
</mgrwt>
</event>
<event>
 6    1  0.8397183E-002  0.3000000E+03  0.7818608E-02  0.1093470E+00
         21   -1    0    0  501  502  0.00000000000E+00  0.00000000000E+00  0.18439583418E+01  0.18439583418E+01  0.00000000000E+00 0. -1.
         13   -1    0    0    0    0 -0.00000000000E+00 -0.00000000000E+00 -0.10000000000E+04  0.10000000000E+04  0.00000000000E+00 0.  1.
    9000005    2    1    2  501    0 -0.10873653685E+02  0.40310275876E+02 -0.61324616357E+03  0.61467633452E+03  0.36033873739E+01 0.  0.
         13    1    3    3    0    0 -0.23993755103E+01  0.69492237909E+01 -0.12794507521E+03  0.12815611957E+03  0.00000000000E+00 0.  1.
          1    1    3    3  501    0 -0.84742781744E+01  0.33361052085E+02 -0.48530108836E+03  0.48652021494E+03  0.00000000000E+00 0.  1.
         -3    1    1    2    0  502  0.10873653685E+02 -0.40310275876E+02 -0.38490987809E+03  0.38716762382E+03  0.00000000000E+00 0. -1.
<mgrwt>
<rscale>  1 0.30000000E+03</rscale>
<asrwt>0</asrwt>
<pdfrwt beam="1">  1       21 0.67053172E-02 0.30000000E+03</pdfrwt>
<pdfrwt beam="2">0</pdfrwt>
<totfact> 0.17387236E+04</totfact>
</mgrwt>
</event>
<event>
 6    1  0.8397183E-002  0.3000000E+03  0.7818608E-02  0.1093470E+00
         21   -1    0    0  501  502  0.00000000000E+00  0.00000000000E+00  0.10167848575E+01  0.10167848575E+01  0.00000000000E+00 0. -1.
         13   -1    0    0    0    0 -0.00000000000E+00 -0.00000000000E+00 -0.10000000000E+04  0.10000000000E+04  0.00000000000E+00 0.  1.
    9000005    2    1    2  501    0  0.26544674870E+02  0.16446552466E+02 -0.40774629383E+03  0.40895580322E+03  0.35637066307E+01 0.  0.
         13    1    3    3    0    0  0.63819224553E+01  0.50308941812E+01 -0.90209700967E+02  0.90574990914E+02  0.00000000000E+00 0.  1.
          1    1    3    3  501    0  0.20162752415E+02  0.11415658285E+02 -0.31753659286E+03  0.31838081231E+03  0.00000000000E+00 0.  1.
         -1    1    1    2    0  502 -0.26544674870E+02 -0.16446552466E+02 -0.59123692131E+03  0.59206098164E+03  0.00000000000E+00 0. -1.
<mgrwt>
<rscale>  1 0.30000000E+03</rscale>
<asrwt>0</asrwt>
<pdfrwt beam="1">  1       21 0.36974073E-02 0.30000000E+03</pdfrwt>
<pdfrwt beam="2">0</pdfrwt>
<totfact> 0.47991870E+04</totfact>
</mgrwt>
</event>
<event>
 6    1  0.8397183E-002  0.3000000E+03  0.7818608E-02  0.1093470E+00
         21   -1    0    0  501  502  0.00000000000E+00  0.00000000000E+00  0.15571316460E+01  0.15571316460E+01  0.00000000000E+00 0. -1.
         13   -1    0    0    0    0 -0.00000000000E+00 -0.00000000000E+00 -0.10000000000E+04  0.10000000000E+04  0.00000000000E+00 0.  1.
    9000005    2    1    2  501    0  0.30677400066E+02 -0.23932002048E+02 -0.57793957740E+03  0.57925763922E+03  0.33784430059E+01 0.  0.
         13    1    3    3    0    0  0.23473631453E+01 -0.10091291031E+01 -0.30819850780E+02  0.30925582571E+02  0.00000000000E+00 0.  1.
          3    1    3    3  501    0  0.28330036921E+02 -0.22922872945E+02 -0.54711972662E+03  0.54833205665E+03  0.00000000000E+00 0.  1.
         -1    1    1    2    0  502 -0.30677400066E+02  0.23932002048E+02 -0.42050329096E+03  0.42229949243E+03  0.00000000000E+00 0. -1.
<mgrwt>
<rscale>  1 0.30000000E+03</rscale>
<asrwt>0</asrwt>
<pdfrwt beam="1">  1       21 0.56623088E-02 0.30000000E+03</pdfrwt>
<pdfrwt beam="2">0</pdfrwt>
<totfact> 0.23282285E+04</totfact>
</mgrwt>
</event>
<event>
 6    1  0.8397183E-002  0.3000000E+03  0.7818608E-02  0.1093470E+00
         21   -1    0    0  501  502  0.00000000000E+00  0.00000000000E+00  0.11567249231E+01  0.11567249231E+01  0.00000000000E+00 0. -1.
         13   -1    0    0    0    0 -0.00000000000E+00 -0.00000000000E+00 -0.10000000000E+04  0.10000000000E+04  0.00000000000E+00 0.  1.
    9000005    2    1    2  501    0  0.20260899015E+02  0.24735467251E+02 -0.66384139053E+03  0.66463241671E+03  0.53394934587E+01 0.  0.
         13    1    3    3    0    0  0.76267863838E+01  0.11535826876E+02 -0.33274676415E+03  0.33303401061E+03  0.00000000000E+00 0.  1.
          3    1    3    3  501    0  0.12634112632E+02  0.13199640375E+02 -0.33109462638E+03  0.33159840610E+03  0.00000000000E+00 0.  1.
         -3    1    1    2    0  502 -0.20260899015E+02 -0.24735467251E+02 -0.33500188454E+03  0.33652430821E+03  0.00000000000E+00 0. -1.
<mgrwt>
<rscale>  1 0.30000000E+03</rscale>
<asrwt>0</asrwt>
<pdfrwt beam="1">  1       21 0.42062813E-02 0.30000000E+03</pdfrwt>
<pdfrwt beam="2">0</pdfrwt>
<totfact> 0.38628848E+04</totfact>
</mgrwt>
</event>
<event>
 6    1  0.8397183E-002  0.3000000E+03  0.7818608E-02  0.1093470E+00
         21   -1    0    0  501  502  0.00000000000E+00  0.00000000000E+00  0.19665979227E+01  0.19665979227E+01  0.00000000000E+00 0. -1.
         13   -1    0    0    0    0 -0.00000000000E+00 -0.00000000000E+00 -0.10000000000E+04  0.10000000000E+04  0.00000000000E+00 0.  1.
    9000005    2    1    2  501    0  0.40000619613E+02  0.86113308167E+01 -0.30883173007E+03  0.31155139727E+03  0.36098556804E+01 0.  0.
         13    1    3    3    0    0  0.24450084005E+01  0.12909680172E+01 -0.24943567251E+02  0.25096338611E+02  0.00000000000E+00 0.  1.
          3    1    3    3  501    0  0.37555611213E+02  0.73203627996E+01 -0.28388816282E+03  0.28645505866E+03  0.00000000000E+00 0.  1.
         -1    1    1    2    0  502 -0.40000619613E+02 -0.86113308167E+01 -0.68920167201E+03  0.69041520065E+03  0.00000000000E+00 0. -1.
<mgrwt>
<rscale>  1 0.30000000E+03</rscale>
<asrwt>0</asrwt>
<pdfrwt beam="1">  1       21 0.71512803E-02 0.30000000E+03</pdfrwt>
<pdfrwt beam="2">0</pdfrwt>
<totfact> 0.15545403E+04</totfact>
</mgrwt>
</event>
<event>
 6    1  0.8397183E-002  0.3000000E+03  0.7818608E-02  0.1093470E+00
         21   -1    0    0  501  502  0.00000000000E+00  0.00000000000E+00  0.10008255661E+01  0.10008255661E+01  0.00000000000E+00 0. -1.
         13   -1    0    0    0    0 -0.00000000000E+00 -0.00000000000E+00 -0.10000000000E+04  0.10000000000E+04  0.00000000000E+00 0.  1.
    9000005    2    1    2  501    0  0.54408099925E+01 -0.30768250295E+02 -0.56982876013E+03  0.57069450194E+03  0.33333215605E+01 0.  0.
         13    1    3    3    0    0  0.41969080856E+01 -0.24494585862E+02 -0.47569861865E+03  0.47634732555E+03  0.00000000000E+00 0.  1.
          3    1    3    3  501    0  0.12439019069E+01 -0.62736644323E+01 -0.94130141483E+02  0.94347176391E+02  0.00000000000E+00 0.  1.
         -3    1    1    2    0  502 -0.54408099925E+01  0.30768250295E+02 -0.42917041430E+03  0.43030632362E+03  0.00000000000E+00 0. -1.
<mgrwt>
<rscale>  1 0.30000000E+03</rscale>
<asrwt>0</asrwt>
<pdfrwt beam="1">  1       21 0.36393734E-02 0.30000000E+03</pdfrwt>
<pdfrwt beam="2">0</pdfrwt>
<totfact> 0.49282921E+04</totfact>
</mgrwt>
</event>
<event>
 6    1  0.8397183E-002  0.3000000E+03  0.7818608E-02  0.1093470E+00
         21   -1    0    0  501  502  0.00000000000E+00  0.00000000000E+00  0.10741329421E+01  0.10741329421E+01  0.00000000000E+00 0. -1.
         13   -1    0    0    0    0 -0.00000000000E+00 -0.00000000000E+00 -0.10000000000E+04  0.10000000000E+04  0.00000000000E+00 0.  1.
    9000005    2    1    2  501    0  0.20958180940E+02  0.24846386170E+02 -0.54148717953E+03  0.54248200359E+03  0.46658731794E+01 0.  0.
         13    1    3    3    0    0  0.13073763238E+02  0.12003277759E+02 -0.28339487153E+03  0.28395009274E+03  0.00000000000E+00 0.  1.
          1    1    3    3  501    0  0.78844177018E+01  0.12843108411E+02 -0.25809230801E+03  0.25853191085E+03  0.00000000000E+00 0.  1.
         -3    1    1    2    0  502 -0.20958180940E+02 -0.24846386170E+02 -0.45743868753E+03  0.45859212935E+03  0.00000000000E+00 0. -1.
<mgrwt>
<rscale>  1 0.30000000E+03</rscale>
<asrwt>0</asrwt>
<pdfrwt beam="1">  1       21 0.39059462E-02 0.30000000E+03</pdfrwt>
<pdfrwt beam="2">0</pdfrwt>
<totfact> 0.43765370E+04</totfact>
</mgrwt>
</event>
<event>
 6    1  0.8397183E-002  0.3000000E+03  0.7818608E-02  0.1093470E+00
         21   -1    0    0  501  502  0.00000000000E+00  0.00000000000E+00  0.22882256435E+01  0.22882256435E+01  0.00000000000E+00 0. -1.
         13   -1    0    0    0    0 -0.00000000000E+00 -0.00000000000E+00 -0.10000000000E+04  0.10000000000E+04  0.00000000000E+00 0.  1.
    9000005    2    1    2  501    0  0.34451384770E+02  0.69160706180E+01 -0.16027663874E+03  0.16411620493E+03  0.32860080365E+01 0.  0.
         13    1    3    3    0    0  0.11775433321E+02  0.34287884311E+01 -0.50524153683E+02  0.51991417805E+02  0.00000000000E+00 0.  1.
          3    1    3    3  501    0  0.22675951449E+02  0.34872821869E+01 -0.10975248506E+03  0.11212478712E+03  0.00000000000E+00 0.  1.
         -1    1    1    2    0  502 -0.34451384770E+02 -0.69160706180E+01 -0.83743513562E+03  0.83817202071E+03  0.00000000000E+00 0. -1.
<mgrwt>
<rscale>  1 0.30000000E+03</rscale>
<asrwt>0</asrwt>
<pdfrwt beam="1">  1       21 0.83208381E-02 0.30000000E+03</pdfrwt>
<pdfrwt beam="2">0</pdfrwt>
<totfact> 0.11920425E+04</totfact>
</mgrwt>
</event>
<event>
 6    1  0.8397183E-002  0.3000000E+03  0.7818608E-02  0.1093470E+00
         21   -1    0    0  501  502  0.00000000000E+00  0.00000000000E+00  0.26255051535E+01  0.26255051535E+01  0.00000000000E+00 0. -1.
         13   -1    0    0    0    0 -0.00000000000E+00 -0.00000000000E+00 -0.10000000000E+04  0.10000000000E+04  0.00000000000E+00 0.  1.
    9000005    2    1    2  501    0 -0.11911384525E+02 -0.48167076843E+02 -0.62233918307E+03  0.62432214348E+03  0.31830307341E+01 0.  0.
         13    1    3    3    0    0 -0.78987543426E+01 -0.27756225052E+02 -0.34637338698E+03  0.34757347649E+03  0.00000000000E+00 0.  1.
          3    1    3    3  501    0 -0.40126301823E+01 -0.20410851790E+02 -0.27596579609E+03  0.27674866699E+03  0.00000000000E+00 0.  1.
         -1    1    1    2    0  502  0.11911384525E+02  0.48167076843E+02 -0.37503531178E+03  0.37830336167E+03  0.00000000000E+00 0. -1.
<mgrwt>
<rscale>  1 0.30000000E+03</rscale>
<asrwt>0</asrwt>
<pdfrwt beam="1">  1       21 0.95473116E-02 0.30000000E+03</pdfrwt>
<pdfrwt beam="2">0</pdfrwt>
<totfact> 0.93446387E+03</totfact>
</mgrwt>
</event>
<event>
 6    1  0.8397183E-002  0.3000000E+03  0.7818608E-02  0.1093470E+00
         21   -1    0    0  501  502  0.00000000000E+00  0.00000000000E+00  0.20845380612E+01  0.20845380612E+01  0.00000000000E+00 0. -1.
         13   -1    0    0    0    0 -0.00000000000E+00 -0.00000000000E+00 -0.10000000000E+04  0.10000000000E+04  0.00000000000E+00 0.  1.
    9000005    2    1    2  501    0 -0.40780079932E+02  0.57249524716E+01 -0.28584680092E+03  0.28882612206E+03  0.40429178146E+01 0.  0.
         13    1    3    3    0    0 -0.19939791172E+02  0.28830712646E+01 -0.12578258375E+03  0.12738589304E+03  0.00000000000E+00 0.  1.
          3    1    3    3  501    0 -0.20840288760E+02  0.28418812070E+01 -0.16006421717E+03  0.16144022901E+03  0.00000000000E+00 0.  1.
         -3    1    1    2    0  502  0.40780079932E+02 -0.57249524716E+01 -0.71206866102E+03  0.71325841601E+03  0.00000000000E+00 0. -1.
<mgrwt>
<rscale>  1 0.30000000E+03</rscale>
<asrwt>0</asrwt>
<pdfrwt beam="1">  1       21 0.75801544E-02 0.30000000E+03</pdfrwt>
<pdfrwt beam="2">0</pdfrwt>
<totfact> 0.14040621E+04</totfact>
</mgrwt>
</event>
<event>
 6    1  0.8397183E-002  0.3000000E+03  0.7818608E-02  0.1093470E+00
         21   -1    0    0  501  502  0.00000000000E+00  0.00000000000E+00  0.10386743620E+01  0.10386743620E+01  0.00000000000E+00 0. -1.
         13   -1    0    0    0    0 -0.00000000000E+00 -0.00000000000E+00 -0.10000000000E+04  0.10000000000E+04  0.00000000000E+00 0.  1.
    9000005    2    1    2  501    0 -0.33319337244E+01  0.31230418767E+02 -0.60146105128E+03  0.60229952535E+03  0.47834290504E+01 0.  0.
         13    1    3    3    0    0 -0.44817302561E+00  0.18303433757E+01 -0.63528109638E+02  0.63556051876E+02  0.00000000000E+00 0.  1.
          1    1    3    3  501    0 -0.28837606988E+01  0.29400075391E+02 -0.53793294164E+03  0.53874347348E+03  0.00000000000E+00 0.  1.
         -3    1    1    2    0  502  0.33319337244E+01 -0.31230418767E+02 -0.39750027436E+03  0.39873914901E+03  0.00000000000E+00 0. -1.
<mgrwt>
<rscale>  1 0.30000000E+03</rscale>
<asrwt>0</asrwt>
<pdfrwt beam="1">  1       21 0.37770056E-02 0.30000000E+03</pdfrwt>
<pdfrwt beam="2">0</pdfrwt>
<totfact> 0.46305836E+04</totfact>
</mgrwt>
</event>
<event>
 6    1  0.8397183E-002  0.3000000E+03  0.7818608E-02  0.1093470E+00
         21   -1    0    0  501  502  0.00000000000E+00  0.00000000000E+00  0.11555067507E+01  0.11555067507E+01  0.00000000000E+00 0. -1.
         13   -1    0    0    0    0 -0.00000000000E+00 -0.00000000000E+00 -0.10000000000E+04  0.10000000000E+04  0.00000000000E+00 0.  1.
    9000005    2    1    2  501    0  0.33187005573E+02 -0.27699491846E+01 -0.43065204437E+03  0.43198794889E+03  0.65844292786E+01 0.  0.
         13    1    3    3    0    0  0.21230156550E+02  0.91317400103E+00 -0.29227161727E+03  0.29304308846E+03  0.00000000000E+00 0.  1.
          1    1    3    3  501    0  0.11956849023E+02 -0.36831231856E+01 -0.13838042710E+03  0.13894486043E+03  0.00000000000E+00 0.  1.
         -1    1    1    2    0  502 -0.33187005573E+02  0.27699491846E+01 -0.56819244888E+03  0.56916755786E+03  0.00000000000E+00 0. -1.
<mgrwt>
<rscale>  1 0.30000000E+03</rscale>
<asrwt>0</asrwt>
<pdfrwt beam="1">  1       21 0.42018516E-02 0.30000000E+03</pdfrwt>
<pdfrwt beam="2">0</pdfrwt>
<totfact> 0.38697645E+04</totfact>
</mgrwt>
</event>
<event>
 6    1  0.8397183E-002  0.3000000E+03  0.7818608E-02  0.1093470E+00
         21   -1    0    0  501  502  0.00000000000E+00  0.00000000000E+00  0.11285257759E+01  0.11285257759E+01  0.00000000000E+00 0. -1.
         13   -1    0    0    0    0 -0.00000000000E+00 -0.00000000000E+00 -0.10000000000E+04  0.10000000000E+04  0.00000000000E+00 0.  1.
    9000005    2    1    2  501    0  0.23988056674E+02 -0.18913644126E+02 -0.29480009989E+03  0.29639477963E+03  0.31005968640E+01 0.  0.
         13    1    3    3    0    0  0.97023594703E+01 -0.84653244524E+01 -0.13777090569E+03  0.13837131188E+03  0.00000000000E+00 0.  1.
          3    1    3    3  501    0  0.14285697204E+02 -0.10448319674E+02 -0.15702919420E+03  0.15802346775E+03  0.00000000000E+00 0.  1.
         -1    1    1    2    0  502 -0.23988056674E+02  0.18913644126E+02 -0.70407137434E+03  0.70473374615E+03  0.00000000000E+00 0. -1.
<mgrwt>
<rscale>  1 0.30000000E+03</rscale>
<asrwt>0</asrwt>
<pdfrwt beam="1">  1       21 0.41037387E-02 0.30000000E+03</pdfrwt>
<pdfrwt beam="2">0</pdfrwt>
<totfact> 0.40271690E+04</totfact>
</mgrwt>
</event>
<event>
 6    1  0.8397183E-002  0.3000000E+03  0.7818608E-02  0.1093470E+00
         21   -1    0    0  501  502  0.00000000000E+00  0.00000000000E+00  0.25425452739E+01  0.25425452739E+01  0.00000000000E+00 0. -1.
         13   -1    0    0    0    0 -0.00000000000E+00 -0.00000000000E+00 -0.10000000000E+04  0.10000000000E+04  0.00000000000E+00 0.  1.
    9000005    2    1    2  501    0  0.29091722752E+01 -0.39237763470E+02 -0.81203056773E+03  0.81298728740E+03  0.25731663969E+01 0.  0.
         13    1    3    3    0    0  0.15632149990E+01 -0.16405152187E+02 -0.31513108859E+03  0.31556168280E+03  0.00000000000E+00 0.  1.
          1    1    3    3  501    0  0.13459572763E+01 -0.22832611283E+02 -0.49689947914E+03  0.49742560460E+03  0.00000000000E+00 0.  1.
         -1    1    1    2    0  502 -0.29091722752E+01  0.39237763470E+02 -0.18542688700E+03  0.18955525787E+03  0.00000000000E+00 0. -1.
<mgrwt>
<rscale>  1 0.30000000E+03</rscale>
<asrwt>0</asrwt>
<pdfrwt beam="1">  1       21 0.92456387E-02 0.30000000E+03</pdfrwt>
<pdfrwt beam="2">0</pdfrwt>
<totfact> 0.98940147E+03</totfact>
</mgrwt>
</event>
<event>
 6    1  0.8397183E-002  0.3000000E+03  0.7818608E-02  0.1093470E+00
         21   -1    0    0  501  502  0.00000000000E+00  0.00000000000E+00  0.13230035280E+01  0.13230035280E+01  0.00000000000E+00 0. -1.
         13   -1    0    0    0    0 -0.00000000000E+00 -0.00000000000E+00 -0.10000000000E+04  0.10000000000E+04  0.00000000000E+00 0.  1.
    9000005    2    1    2  501    0 -0.63709979027E+01 -0.31901530618E+02 -0.72133697951E+03  0.72208156269E+03  0.40556017219E+01 0.  0.
         13    1    3    3    0    0 -0.55838681189E+01 -0.18133792414E+02 -0.42981721389E+03  0.43023580902E+03  0.00000000000E+00 0.  1.
          1    1    3    3  501    0 -0.78712978380E+00 -0.13767738205E+02 -0.29151976562E+03  0.29184575367E+03  0.00000000000E+00 0.  1.
         -1    1    1    2    0  502  0.63709979027E+01  0.31901530618E+02 -0.27734001697E+03  0.27924144084E+03  0.00000000000E+00 0. -1.
<mgrwt>
<rscale>  1 0.30000000E+03</rscale>
<asrwt>0</asrwt>
<pdfrwt beam="1">  1       21 0.48109321E-02 0.30000000E+03</pdfrwt>
<pdfrwt beam="2">0</pdfrwt>
<totfact> 0.30759236E+04</totfact>
</mgrwt>
</event>
<event>
 6    1  0.8397183E-002  0.3000000E+03  0.7818608E-02  0.1093470E+00
         21   -1    0    0  501  502  0.00000000000E+00  0.00000000000E+00  0.95936787056E+00  0.95936787056E+00  0.00000000000E+00 0. -1.
         13   -1    0    0    0    0 -0.00000000000E+00 -0.00000000000E+00 -0.10000000000E+04  0.10000000000E+04  0.00000000000E+00 0.  1.
    9000005    2    1    2  501    0  0.29159543653E+02  0.91021991920E+01 -0.57636651066E+03  0.57718284424E+03  0.29243912590E+01 0.  0.
         13    1    3    3    0    0  0.57160361024E+01  0.59421978886E+00 -0.10682253051E+03  0.10697700309E+03  0.00000000000E+00 0.  1.
          3    1    3    3  501    0  0.23443507550E+02  0.85079794031E+01 -0.46954398015E+03  0.47020584115E+03  0.00000000000E+00 0.  1.
         -3    1    1    2    0  502 -0.29159543653E+02 -0.91021991920E+01 -0.42267412147E+03  0.42377652363E+03  0.00000000000E+00 0. -1.
<mgrwt>
<rscale>  1 0.30000000E+03</rscale>
<asrwt>0</asrwt>
<pdfrwt beam="1">  1       21 0.34886178E-02 0.30000000E+03</pdfrwt>
<pdfrwt beam="2">0</pdfrwt>
<totfact> 0.52904547E+04</totfact>
</mgrwt>
</event>
<event>
 6    1  0.8397183E-002  0.3000000E+03  0.7818608E-02  0.1093470E+00
         21   -1    0    0  501  502  0.00000000000E+00  0.00000000000E+00  0.27025418119E+01  0.27025418119E+01  0.00000000000E+00 0. -1.
         13   -1    0    0    0    0 -0.00000000000E+00 -0.00000000000E+00 -0.10000000000E+04  0.10000000000E+04  0.00000000000E+00 0.  1.
    9000005    2    1    2  501    0 -0.45060245291E+01  0.45923971958E+02 -0.26930070936E+03  0.27324481050E+03  0.32463747971E+01 0.  0.
         13    1    3    3    0    0 -0.46607353023E+01  0.42836614631E+02 -0.25486342023E+03  0.25848029127E+03  0.00000000000E+00 0.  1.
          3    1    3    3  501    0  0.15471077315E+00  0.30873573265E+01 -0.14437289131E+02  0.14764519231E+02  0.00000000000E+00 0.  1.
         -3    1    1    2    0  502  0.45060245291E+01 -0.45923971958E+02 -0.72799674883E+03  0.72945773131E+03  0.00000000000E+00 0. -1.
<mgrwt>
<rscale>  1 0.30000000E+03</rscale>
<asrwt>0</asrwt>
<pdfrwt beam="1">  1       21 0.98274455E-02 0.30000000E+03</pdfrwt>
<pdfrwt beam="2">0</pdfrwt>
<totfact> 0.88748372E+03</totfact>
</mgrwt>
</event>
<event>
 6    1  0.8397183E-002  0.3000000E+03  0.7818608E-02  0.1093470E+00
         21   -1    0    0  501  502  0.00000000000E+00  0.00000000000E+00  0.19301946229E+01  0.19301946229E+01  0.00000000000E+00 0. -1.
         13   -1    0    0    0    0 -0.00000000000E+00 -0.00000000000E+00 -0.10000000000E+04  0.10000000000E+04  0.00000000000E+00 0.  1.
    9000005    2    1    2  501    0  0.22782038042E+02 -0.31779531394E+02 -0.27321879393E+03  0.27602527752E+03  0.35333557083E+01 0.  0.
         13    1    3    3    0    0  0.10988490913E+02 -0.17457191426E+02 -0.13499309939E+03  0.13656001372E+03  0.00000000000E+00 0.  1.
          3    1    3    3  501    0  0.11793547129E+02 -0.14322339968E+02 -0.13822569454E+03  0.13946526380E+03  0.00000000000E+00 0.  1.
         -3    1    1    2    0  502 -0.22782038042E+02  0.31779531394E+02 -0.72485101145E+03  0.72590491710E+03  0.00000000000E+00 0. -1.
<mgrwt>
<rscale>  1 0.30000000E+03</rscale>
<asrwt>0</asrwt>
<pdfrwt beam="1">  1       21 0.70189043E-02 0.30000000E+03</pdfrwt>
<pdfrwt beam="2">0</pdfrwt>
<totfact> 0.16059723E+04</totfact>
</mgrwt>
</event>
<event>
 6    1  0.8397183E-002  0.3000000E+03  0.7818608E-02  0.1093470E+00
         21   -1    0    0  501  502  0.00000000000E+00  0.00000000000E+00  0.11744011085E+01  0.11744011085E+01  0.00000000000E+00 0. -1.
         13   -1    0    0    0    0 -0.00000000000E+00 -0.00000000000E+00 -0.10000000000E+04  0.10000000000E+04  0.00000000000E+00 0.  1.
    9000005    2    1    2  501    0  0.18792737382E+02 -0.26022024155E+02 -0.67222280016E+03  0.67299807524E+03  0.35501417129E+01 0.  0.
         13    1    3    3    0    0  0.13349895213E+02 -0.15569461509E+02 -0.42815920014E+03  0.42865012364E+03  0.00000000000E+00 0.  1.
          1    1    3    3  501    0  0.54428421691E+01 -0.10452562646E+02 -0.24406360002E+03  0.24434795160E+03  0.00000000000E+00 0.  1.
         -3    1    1    2    0  502 -0.18792737382E+02  0.26022024155E+02 -0.32660279874E+03  0.32817632587E+03  0.00000000000E+00 0. -1.
<mgrwt>
<rscale>  1 0.30000000E+03</rscale>
<asrwt>0</asrwt>
<pdfrwt beam="1">  1       21 0.42705585E-02 0.30000000E+03</pdfrwt>
<pdfrwt beam="2">0</pdfrwt>
<totfact> 0.37651598E+04</totfact>
</mgrwt>
</event>
<event>
 6    1  0.8397183E-002  0.3000000E+03  0.7818608E-02  0.1093470E+00
         21   -1    0    0  501  502  0.00000000000E+00  0.00000000000E+00  0.16893723005E+01  0.16893723005E+01  0.00000000000E+00 0. -1.
         13   -1    0    0    0    0 -0.00000000000E+00 -0.00000000000E+00 -0.10000000000E+04  0.10000000000E+04  0.00000000000E+00 0.  1.
    9000005    2    1    2  501    0  0.32740728910E+02  0.23264408176E+02 -0.60222239795E+03  0.60356995082E+03  0.34177357482E+01 0.  0.
         13    1    3    3    0    0  0.18923273991E+02  0.15492661949E+02 -0.36624554542E+03  0.36706118347E+03  0.00000000000E+00 0.  1.
          1    1    3    3  501    0  0.13817454919E+02  0.77717462267E+01 -0.23597685253E+03  0.23650876735E+03  0.00000000000E+00 0.  1.
         -1    1    1    2    0  502 -0.32740728910E+02 -0.23264408176E+02 -0.39608822975E+03  0.39811942148E+03  0.00000000000E+00 0. -1.
<mgrwt>
<rscale>  1 0.30000000E+03</rscale>
<asrwt>0</asrwt>
<pdfrwt beam="1">  1       21 0.61431850E-02 0.30000000E+03</pdfrwt>
<pdfrwt beam="2">0</pdfrwt>
<totfact> 0.20231398E+04</totfact>
</mgrwt>
</event>
<event>
 6    1  0.8397183E-002  0.3000000E+03  0.7818608E-02  0.1093470E+00
         21   -1    0    0  501  502  0.00000000000E+00  0.00000000000E+00  0.12146034423E+01  0.12146034423E+01  0.00000000000E+00 0. -1.
         13   -1    0    0    0    0 -0.00000000000E+00 -0.00000000000E+00 -0.10000000000E+04  0.10000000000E+04  0.00000000000E+00 0.  1.
    9000005    2    1    2  501    0  0.16411217821E+02  0.27955826973E+02 -0.31907031192E+03  0.32072694549E+03  0.30088680470E+01 0.  0.
         13    1    3    3    0    0  0.78800407432E+01  0.13241655229E+02 -0.13695537457E+03  0.13781948737E+03  0.00000000000E+00 0.  1.
          1    1    3    3  501    0  0.85311770783E+01  0.14714171743E+02 -0.18211493735E+03  0.18290745813E+03  0.00000000000E+00 0.  1.
         -1    1    1    2    0  502 -0.16411217821E+02 -0.27955826973E+02 -0.67971508464E+03  0.68048765795E+03  0.00000000000E+00 0. -1.
<mgrwt>
<rscale>  1 0.30000000E+03</rscale>
<asrwt>0</asrwt>
<pdfrwt beam="1">  1       21 0.44167491E-02 0.30000000E+03</pdfrwt>
<pdfrwt beam="2">0</pdfrwt>
<totfact> 0.35566725E+04</totfact>
</mgrwt>
</event>
<event>
 6    1  0.8397183E-002  0.3000000E+03  0.7818608E-02  0.1093470E+00
         21   -1    0    0  501  502  0.00000000000E+00  0.00000000000E+00  0.48505297003E+01  0.48505297003E+01  0.00000000000E+00 0. -1.
         13   -1    0    0    0    0 -0.00000000000E+00 -0.00000000000E+00 -0.10000000000E+04  0.10000000000E+04  0.00000000000E+00 0.  1.
    9000005    2    1    2  501    0  0.35977871559E+02 -0.54141326127E+02 -0.31854738607E+03  0.32513288919E+03  0.36425299519E+01 0.  0.
         13    1    3    3    0    0  0.33253675544E+02 -0.51057039246E+02 -0.29470366854E+03  0.30093667182E+03  0.00000000000E+00 0.  1.
          3    1    3    3  501    0  0.27241960149E+01 -0.30842868817E+01 -0.23843717528E+02  0.24196217371E+02  0.00000000000E+00 0.  1.
         -1    1    1    2    0  502 -0.35977871559E+02  0.54141326127E+02 -0.67660208423E+03  0.67971764051E+03  0.00000000000E+00 0. -1.
<mgrwt>
<rscale>  1 0.30000000E+03</rscale>
<asrwt>0</asrwt>
<pdfrwt beam="1">  1       21 0.17638327E-01 0.30000000E+03</pdfrwt>
<pdfrwt beam="2">0</pdfrwt>
<totfact> 0.30435897E+03</totfact>
</mgrwt>
</event>
<event>
 6    1  0.8397183E-002  0.3000000E+03  0.7818608E-02  0.1093470E+00
         21   -1    0    0  501  502  0.00000000000E+00  0.00000000000E+00  0.92455481085E+01  0.92455481085E+01  0.00000000000E+00 0. -1.
         13   -1    0    0    0    0 -0.00000000000E+00 -0.00000000000E+00 -0.10000000000E+04  0.10000000000E+04  0.00000000000E+00 0.  1.
    9000005    2    1    2  501    0  0.43819952054E+02  0.62903446723E+02 -0.19130487590E+03  0.20612870956E+03  0.38023090557E+01 0.  0.
         13    1    3    3    0    0  0.37512904588E+02  0.51346737199E+02 -0.15865607643E+03  0.17092529368E+03  0.00000000000E+00 0.  1.
          1    1    3    3  501    0  0.63070474663E+01  0.11556709524E+02 -0.32648799473E+02  0.35203415882E+02  0.00000000000E+00 0.  1.
         -1    1    1    2    0  502 -0.43819952054E+02 -0.62903446723E+02 -0.79944957599E+03  0.80311683855E+03  0.00000000000E+00 0. -1.
<mgrwt>
<rscale>  1 0.30000000E+03</rscale>
<asrwt>0</asrwt>
<pdfrwt beam="1">  1       21 0.33620246E-01 0.30000000E+03</pdfrwt>
<pdfrwt beam="2">0</pdfrwt>
<totfact> 0.86386691E+02</totfact>
</mgrwt>
</event>
<event>
 6    1  0.8397183E-002  0.3000000E+03  0.7818608E-02  0.1093470E+00
         21   -1    0    0  501  502  0.00000000000E+00  0.00000000000E+00  0.14740179002E+01  0.14740179002E+01  0.00000000000E+00 0. -1.
         13   -1    0    0    0    0 -0.00000000000E+00 -0.00000000000E+00 -0.10000000000E+04  0.10000000000E+04  0.00000000000E+00 0.  1.
    9000005    2    1    2  501    0  0.30355204705E+02 -0.19722053629E+02 -0.66069640237E+03  0.66171053724E+03  0.55408603658E+01 0.  0.
         13    1    3    3    0    0  0.29652201211E+02 -0.17928058440E+02 -0.63243018593E+03  0.63337872430E+03  0.00000000000E+00 0.  1.
          1    1    3    3  501    0  0.70300349429E+00 -0.17939951891E+01 -0.28266216440E+02  0.28331812940E+02  0.00000000000E+00 0.  1.
         -3    1    1    2    0  502 -0.30355204705E+02  0.19722053629E+02 -0.33782957973E+03  0.33976348066E+03  0.00000000000E+00 0. -1.
<mgrwt>
<rscale>  1 0.30000000E+03</rscale>
<asrwt>0</asrwt>
<pdfrwt beam="1">  1       21 0.53600764E-02 0.30000000E+03</pdfrwt>
<pdfrwt beam="2">0</pdfrwt>
<totfact> 0.25578796E+04</totfact>
</mgrwt>
</event>
<event>
 6    1  0.8397183E-002  0.3000000E+03  0.7818608E-02  0.1093470E+00
         21   -1    0    0  501  502  0.00000000000E+00  0.00000000000E+00  0.13930708923E+01  0.13930708923E+01  0.00000000000E+00 0. -1.
         13   -1    0    0    0    0 -0.00000000000E+00 -0.00000000000E+00 -0.10000000000E+04  0.10000000000E+04  0.00000000000E+00 0.  1.
    9000005    2    1    2  501    0 -0.28749026385E+02  0.23315797167E+02 -0.44590714042E+03  0.44745517786E+03  0.35812575232E+01 0.  0.
         13    1    3    3    0    0 -0.20762997449E+02  0.18101946517E+02 -0.34530138040E+03  0.34639836292E+03  0.00000000000E+00 0.  1.
          3    1    3    3  501    0 -0.79860289360E+01  0.52138506502E+01 -0.10060576002E+03  0.10105681494E+03  0.00000000000E+00 0.  1.
         -3    1    1    2    0  502  0.28749026385E+02 -0.23315797167E+02 -0.55269978869E+03  0.55393789303E+03  0.00000000000E+00 0. -1.
<mgrwt>
<rscale>  1 0.30000000E+03</rscale>
<asrwt>0</asrwt>
<pdfrwt beam="1">  1       21 0.50657230E-02 0.30000000E+03</pdfrwt>
<pdfrwt beam="2">0</pdfrwt>
<totfact> 0.28170287E+04</totfact>
</mgrwt>
</event>
<event>
 6    1  0.8397183E-002  0.3000000E+03  0.7818608E-02  0.1093470E+00
         21   -1    0    0  501  502  0.00000000000E+00  0.00000000000E+00  0.19629412440E+01  0.19629412440E+01  0.00000000000E+00 0. -1.
         13   -1    0    0    0    0 -0.00000000000E+00 -0.00000000000E+00 -0.10000000000E+04  0.10000000000E+04  0.00000000000E+00 0.  1.
    9000005    2    1    2  501    0  0.93341618444E+01  0.37867018253E+02 -0.26395737036E+03  0.26684796618E+03  0.36477442307E+01 0.  0.
         13    1    3    3    0    0  0.52528352770E+00  0.82330728392E+01 -0.53813775634E+02  0.54442463750E+02  0.00000000000E+00 0.  1.
          3    1    3    3  501    0  0.88088783167E+01  0.29633945414E+02 -0.21014359473E+03  0.21240550243E+03  0.00000000000E+00 0.  1.
         -3    1    1    2    0  502 -0.93341618444E+01 -0.37867018253E+02 -0.73407968840E+03  0.73511497506E+03  0.00000000000E+00 0. -1.
<mgrwt>
<rscale>  1 0.30000000E+03</rscale>
<asrwt>0</asrwt>
<pdfrwt beam="1">  1       21 0.71379832E-02 0.30000000E+03</pdfrwt>
<pdfrwt beam="2">0</pdfrwt>
<totfact> 0.15595923E+04</totfact>
</mgrwt>
</event>
<event>
 6    1  0.8397183E-002  0.3000000E+03  0.7818608E-02  0.1093470E+00
         21   -1    0    0  501  502  0.00000000000E+00  0.00000000000E+00  0.42714146220E+01  0.42714146220E+01  0.00000000000E+00 0. -1.
         13   -1    0    0    0    0 -0.00000000000E+00 -0.00000000000E+00 -0.10000000000E+04  0.10000000000E+04  0.00000000000E+00 0.  1.
    9000005    2    1    2  501    0 -0.18212348693E+02  0.61182025820E+02 -0.60437056577E+03  0.60774142907E+03  0.33066468587E+01 0.  0.
         13    1    3    3    0    0 -0.14563967705E+01  0.82191364732E+01 -0.84651624734E+02  0.85062170593E+02  0.00000000000E+00 0.  1.
          1    1    3    3  501    0 -0.16755951923E+02  0.52962889347E+02 -0.51971894103E+03  0.52267925848E+03  0.00000000000E+00 0.  1.
         -3    1    1    2    0  502  0.18212348693E+02 -0.61182025820E+02 -0.39135801961E+03  0.39652998555E+03  0.00000000000E+00 0. -1.
<mgrwt>
<rscale>  1 0.30000000E+03</rscale>
<asrwt>0</asrwt>
<pdfrwt beam="1">  1       21 0.15532450E-01 0.30000000E+03</pdfrwt>
<pdfrwt beam="2">0</pdfrwt>
<totfact> 0.38600290E+03</totfact>
</mgrwt>
</event>
<event>
 6    1  0.8397183E-002  0.3000000E+03  0.7818608E-02  0.1093470E+00
         21   -1    0    0  501  502  0.00000000000E+00  0.00000000000E+00  0.92828128768E+00  0.92828128768E+00  0.00000000000E+00 0. -1.
         13   -1    0    0    0    0 -0.00000000000E+00 -0.00000000000E+00 -0.10000000000E+04  0.10000000000E+04  0.00000000000E+00 0.  1.
    9000005    2    1    2  501    0  0.15535511985E+02  0.25949212050E+02 -0.53656299370E+03  0.53743175007E+03  0.42808919527E+01 0.  0.
         13    1    3    3    0    0  0.12899623905E+02  0.17813887413E+02 -0.38671151667E+03  0.38733645840E+03  0.00000000000E+00 0.  1.
          1    1    3    3  501    0  0.26358880808E+01  0.81353246372E+01 -0.14985147703E+03  0.15009529167E+03  0.00000000000E+00 0.  1.
         -3    1    1    2    0  502 -0.15535511985E+02 -0.25949212050E+02 -0.46250872501E+03  0.46349653122E+03  0.00000000000E+00 0. -1.
<mgrwt>
<rscale>  1 0.30000000E+03</rscale>
<asrwt>0</asrwt>
<pdfrwt beam="1">  1       21 0.33755754E-02 0.30000000E+03</pdfrwt>
<pdfrwt beam="2">0</pdfrwt>
<totfact> 0.55900315E+04</totfact>
</mgrwt>
</event>
<event>
 6    1  0.8397183E-002  0.3000000E+03  0.7818608E-02  0.1093470E+00
         21   -1    0    0  501  502  0.00000000000E+00  0.00000000000E+00  0.13652221581E+01  0.13652221581E+01  0.00000000000E+00 0. -1.
         13   -1    0    0    0    0 -0.00000000000E+00 -0.00000000000E+00 -0.10000000000E+04  0.10000000000E+04  0.00000000000E+00 0.  1.
    9000005    2    1    2  501    0  0.32981522913E+02 -0.12595892513E+02 -0.35794407426E+03  0.35970252649E+03  0.39382610460E+01 0.  0.
         13    1    3    3    0    0  0.20940515698E+02 -0.59573263083E+01 -0.22154016512E+03  0.22260736667E+03  0.00000000000E+00 0.  1.
          3    1    3    3  501    0  0.12041007215E+02 -0.66385662046E+01 -0.13640390915E+03  0.13709515982E+03  0.00000000000E+00 0.  1.
         -3    1    1    2    0  502 -0.32981522913E+02  0.12595892513E+02 -0.64069070358E+03  0.64166269567E+03  0.00000000000E+00 0. -1.
<mgrwt>
<rscale>  1 0.30000000E+03</rscale>
<asrwt>0</asrwt>
<pdfrwt beam="1">  1       21 0.49644547E-02 0.30000000E+03</pdfrwt>
<pdfrwt beam="2">0</pdfrwt>
<totfact> 0.29157063E+04</totfact>
</mgrwt>
</event>
<event>
 6    1  0.8397183E-002  0.3000000E+03  0.7818608E-02  0.1093470E+00
         21   -1    0    0  501  502  0.00000000000E+00  0.00000000000E+00  0.10906766772E+01  0.10906766772E+01  0.00000000000E+00 0. -1.
         13   -1    0    0    0    0 -0.00000000000E+00 -0.00000000000E+00 -0.10000000000E+04  0.10000000000E+04  0.00000000000E+00 0.  1.
    9000005    2    1    2  501    0  0.93961809025E+01  0.31577904418E+02 -0.50855600914E+03  0.50963180251E+03  0.31476084598E+01 0.  0.
         13    1    3    3    0    0  0.73602606295E+01  0.19446829260E+02 -0.31655493058E+03  0.31723709852E+03  0.00000000000E+00 0.  1.
          3    1    3    3  501    0  0.20359202729E+01  0.12131075159E+02 -0.19200107856E+03  0.19239470399E+03  0.00000000000E+00 0.  1.
         -3    1    1    2    0  502 -0.93961809025E+01 -0.31577904418E+02 -0.49035331419E+03  0.49145887417E+03  0.00000000000E+00 0. -1.
<mgrwt>
<rscale>  1 0.30000000E+03</rscale>
<asrwt>0</asrwt>
<pdfrwt beam="1">  1       21 0.39661054E-02 0.30000000E+03</pdfrwt>
<pdfrwt beam="2">0</pdfrwt>
<totfact> 0.42654100E+04</totfact>
</mgrwt>
</event>
<event>
 6    1  0.8397183E-002  0.3000000E+03  0.7818608E-02  0.1093470E+00
         21   -1    0    0  501  502  0.00000000000E+00  0.00000000000E+00  0.39135815811E+01  0.39135815811E+01  0.00000000000E+00 0. -1.
         13   -1    0    0    0    0 -0.00000000000E+00 -0.00000000000E+00 -0.10000000000E+04  0.10000000000E+04  0.00000000000E+00 0.  1.
    9000005    2    1    2  501    0  0.30704400861E+02  0.49190907724E+02 -0.68590704233E+03  0.68836049415E+03  0.30320878744E+01 0.  0.
         13    1    3    3    0    0  0.18238767267E+02  0.28173894450E+02 -0.38030335873E+03  0.38178143698E+03  0.00000000000E+00 0.  1.
          1    1    3    3  501    0  0.12465633594E+02  0.21017013274E+02 -0.30560368359E+03  0.30657905717E+03  0.00000000000E+00 0.  1.
         -1    1    1    2    0  502 -0.30704400861E+02 -0.49190907724E+02 -0.31017937609E+03  0.31555308743E+03  0.00000000000E+00 0. -1.
<mgrwt>
<rscale>  1 0.30000000E+03</rscale>
<asrwt>0</asrwt>
<pdfrwt beam="1">  1       21 0.14231236E-01 0.30000000E+03</pdfrwt>
<pdfrwt beam="2">0</pdfrwt>
<totfact> 0.45379028E+03</totfact>
</mgrwt>
</event>
<event>
 6    1  0.8397183E-002  0.3000000E+03  0.7818608E-02  0.1093470E+00
         21   -1    0    0  501  502  0.00000000000E+00  0.00000000000E+00  0.94855984067E+00  0.94855984067E+00  0.00000000000E+00 0. -1.
         13   -1    0    0    0    0 -0.00000000000E+00 -0.00000000000E+00 -0.10000000000E+04  0.10000000000E+04  0.00000000000E+00 0.  1.
    9000005    2    1    2  501    0  0.30302893860E+02  0.18509053876E+01 -0.42464067928E+03  0.42573606568E+03  0.31304779872E+01 0.  0.
         13    1    3    3    0    0  0.29509489334E+02  0.17641907243E+01 -0.40409494028E+03  0.40517483027E+03  0.00000000000E+00 0.  1.
          3    1    3    3  501    0  0.79340452588E+00  0.86714663290E-01 -0.20545739001E+02  0.20561235402E+02  0.00000000000E+00 0.  1.
         -3    1    1    2    0  502 -0.30302893860E+02 -0.18509053876E+01 -0.57441076088E+03  0.57521249417E+03  0.00000000000E+00 0. -1.
<mgrwt>
<rscale>  1 0.30000000E+03</rscale>
<asrwt>0</asrwt>
<pdfrwt beam="1">  1       21 0.34493158E-02 0.30000000E+03</pdfrwt>
<pdfrwt beam="2">0</pdfrwt>
<totfact> 0.53917140E+04</totfact>
</mgrwt>
</event>
<event>
 6    1  0.8397183E-002  0.3000000E+03  0.7818608E-02  0.1093470E+00
         21   -1    0    0  501  502  0.00000000000E+00  0.00000000000E+00  0.16460023663E+01  0.16460023663E+01  0.00000000000E+00 0. -1.
         13   -1    0    0    0    0 -0.00000000000E+00 -0.00000000000E+00 -0.10000000000E+04  0.10000000000E+04  0.00000000000E+00 0.  1.
    9000005    2    1    2  501    0  0.40381308451E+02 -0.18680300455E+01 -0.51511210378E+03  0.51671624706E+03  0.45892160715E+01 0.  0.
         13    1    3    3    0    0  0.11424154616E+02  0.15043316822E+00 -0.17157479069E+03  0.17195476946E+03  0.00000000000E+00 0.  1.
          1    1    3    3  501    0  0.28957153835E+02 -0.20184632137E+01 -0.34353731309E+03  0.34476147760E+03  0.00000000000E+00 0.  1.
         -1    1    1    2    0  502 -0.40381308451E+02  0.18680300455E+01 -0.48324189386E+03  0.48492975531E+03  0.00000000000E+00 0. -1.
<mgrwt>
<rscale>  1 0.30000000E+03</rscale>
<asrwt>0</asrwt>
<pdfrwt beam="1">  1       21 0.59854758E-02 0.30000000E+03</pdfrwt>
<pdfrwt beam="2">0</pdfrwt>
<totfact> 0.21159923E+04</totfact>
</mgrwt>
</event>
<event>
 6    1  0.8397183E-002  0.3000000E+03  0.7818608E-02  0.1093470E+00
         21   -1    0    0  501  502  0.00000000000E+00  0.00000000000E+00  0.42673532960E+01  0.42673532960E+01  0.00000000000E+00 0. -1.
         13   -1    0    0    0    0 -0.00000000000E+00 -0.00000000000E+00 -0.10000000000E+04  0.10000000000E+04  0.00000000000E+00 0.  1.
    9000005    2    1    2  501    0 -0.13055359107E+02 -0.59314925293E+02 -0.68238102433E+03  0.68508411124E+03  0.27702610184E+01 0.  0.
         13    1    3    3    0    0 -0.35148807483E+00 -0.45694119214E+01 -0.47603473903E+02  0.47823569470E+02  0.00000000000E+00 0.  1.
          1    1    3    3  501    0 -0.12703871033E+02 -0.54745513371E+02 -0.63477755043E+03  0.63726054177E+03  0.00000000000E+00 0.  1.
         -1    1    1    2    0  502  0.13055359107E+02  0.59314925293E+02 -0.31335162238E+03  0.31918324206E+03  0.00000000000E+00 0. -1.
<mgrwt>
<rscale>  1 0.30000000E+03</rscale>
<asrwt>0</asrwt>
<pdfrwt beam="1">  1       21 0.15517681E-01 0.30000000E+03</pdfrwt>
<pdfrwt beam="2">0</pdfrwt>
<totfact> 0.38668611E+03</totfact>
</mgrwt>
</event>
<event>
 6    1  0.8397183E-002  0.3000000E+03  0.7818608E-02  0.1093470E+00
         21   -1    0    0  501  502  0.00000000000E+00  0.00000000000E+00  0.18783808638E+01  0.18783808638E+01  0.00000000000E+00 0. -1.
         13   -1    0    0    0    0 -0.00000000000E+00 -0.00000000000E+00 -0.10000000000E+04  0.10000000000E+04  0.00000000000E+00 0.  1.
    9000005    2    1    2  501    0  0.38769050212E+02  0.99679998656E+01 -0.32091762689E+03  0.32349232013E+03  0.75337681503E+01 0.  0.
         13    1    3    3    0    0  0.52278847101E+01  0.14475662498E+01 -0.26627248170E+02  0.27174189440E+02  0.00000000000E+00 0.  1.
          3    1    3    3  501    0  0.33541165502E+02  0.85204336158E+01 -0.29429037872E+03  0.29631813069E+03  0.00000000000E+00 0.  1.
         -1    1    1    2    0  502 -0.38769050212E+02 -0.99679998656E+01 -0.67720399225E+03  0.67838606073E+03  0.00000000000E+00 0. -1.
<mgrwt>
<rscale>  1 0.30000000E+03</rscale>
<asrwt>0</asrwt>
<pdfrwt beam="1">  1       21 0.68304903E-02 0.30000000E+03</pdfrwt>
<pdfrwt beam="2">0</pdfrwt>
<totfact> 0.16837856E+04</totfact>
</mgrwt>
</event>
<event>
 6    1  0.8397183E-002  0.3000000E+03  0.7818608E-02  0.1093470E+00
         21   -1    0    0  501  502  0.00000000000E+00  0.00000000000E+00  0.35057111463E+01  0.35057111463E+01  0.00000000000E+00 0. -1.
         13   -1    0    0    0    0 -0.00000000000E+00 -0.00000000000E+00 -0.10000000000E+04  0.10000000000E+04  0.00000000000E+00 0.  1.
    9000005    2    1    2  501    0  0.54020649464E+02 -0.23480187714E+02 -0.54454541306E+03  0.54773456669E+03  0.37281206971E+01 0.  0.
         13    1    3    3    0    0  0.22507438651E+02 -0.96886481211E+01 -0.20968185809E+03  0.21110882574E+03  0.00000000000E+00 0.  1.
          3    1    3    3  501    0  0.31513210813E+02 -0.13791539593E+02 -0.33486355497E+03  0.33662574095E+03  0.00000000000E+00 0.  1.
         -1    1    1    2    0  502 -0.54020649464E+02  0.23480187714E+02 -0.45194887580E+03  0.45577114445E+03  0.00000000000E+00 0. -1.
<mgrwt>
<rscale>  1 0.30000000E+03</rscale>
<asrwt>0</asrwt>
<pdfrwt beam="1">  1       21 0.12748067E-01 0.30000000E+03</pdfrwt>
<pdfrwt beam="2">0</pdfrwt>
<totfact> 0.55512764E+03</totfact>
</mgrwt>
</event>
<event>
 6    1  0.8397183E-002  0.3000000E+03  0.7818608E-02  0.1093470E+00
         21   -1    0    0  501  502  0.00000000000E+00  0.00000000000E+00  0.95034407098E+00  0.95034407098E+00  0.00000000000E+00 0. -1.
         13   -1    0    0    0    0 -0.00000000000E+00 -0.00000000000E+00 -0.10000000000E+04  0.10000000000E+04  0.00000000000E+00 0.  1.
    9000005    2    1    2  501    0 -0.18261446598E+02 -0.24314798661E+02 -0.43251131523E+03  0.43359650268E+03  0.38986489300E+01 0.  0.
         13    1    3    3    0    0 -0.14427660580E+02 -0.17392225933E+02 -0.30073617417E+03  0.30158397399E+03  0.00000000000E+00 0.  1.
          1    1    3    3  501    0 -0.38337860189E+01 -0.69225727275E+01 -0.13177514107E+03  0.13201252869E+03  0.00000000000E+00 0.  1.
         -1    1    1    2    0  502  0.18261446598E+02  0.24314798661E+02 -0.56653834069E+03  0.56735384139E+03  0.00000000000E+00 0. -1.
<mgrwt>
<rscale>  1 0.30000000E+03</rscale>
<asrwt>0</asrwt>
<pdfrwt beam="1">  1       21 0.34558039E-02 0.30000000E+03</pdfrwt>
<pdfrwt beam="2">0</pdfrwt>
<totfact> 0.53747910E+04</totfact>
</mgrwt>
</event>
<event>
 6    1  0.8397183E-002  0.3000000E+03  0.7818608E-02  0.1093470E+00
         21   -1    0    0  501  502  0.00000000000E+00  0.00000000000E+00  0.20052176570E+01  0.20052176570E+01  0.00000000000E+00 0. -1.
         13   -1    0    0    0    0 -0.00000000000E+00 -0.00000000000E+00 -0.10000000000E+04  0.10000000000E+04  0.00000000000E+00 0.  1.
    9000005    2    1    2  501    0  0.12036484738E+02 -0.42973502775E+02 -0.47063302126E+03  0.47275855876E+03  0.36898876601E+01 0.  0.
         13    1    3    3    0    0  0.99517410480E+01 -0.37322758942E+02 -0.39382239435E+03  0.39571214762E+03  0.00000000000E+00 0.  1.
          1    1    3    3  501    0  0.20847436900E+01 -0.56507438329E+01 -0.76810626911E+02  0.77046411134E+02  0.00000000000E+00 0.  1.
         -3    1    1    2    0  502 -0.12036484738E+02  0.42973502775E+02 -0.52736176108E+03  0.52924665890E+03  0.00000000000E+00 0. -1.
<mgrwt>
<rscale>  1 0.30000000E+03</rscale>
<asrwt>0</asrwt>
<pdfrwt beam="1">  1       21 0.72917159E-02 0.30000000E+03</pdfrwt>
<pdfrwt beam="2">0</pdfrwt>
<totfact> 0.15026704E+04</totfact>
</mgrwt>
</event>
<event>
 6    1  0.8397183E-002  0.3000000E+03  0.7818608E-02  0.1093470E+00
         21   -1    0    0  501  502  0.00000000000E+00  0.00000000000E+00  0.20754084503E+01  0.20754084503E+01  0.00000000000E+00 0. -1.
         13   -1    0    0    0    0 -0.00000000000E+00 -0.00000000000E+00 -0.10000000000E+04  0.10000000000E+04  0.00000000000E+00 0.  1.
    9000005    2    1    2  501    0  0.14181652938E+02  0.31651470316E+02 -0.17555884423E+03  0.17897859931E+03  0.30816181092E+01 0.  0.
         13    1    3    3    0    0  0.11926000051E+02  0.24974609460E+02 -0.13427751775E+03  0.13710000863E+03  0.00000000000E+00 0.  1.
          1    1    3    3  501    0  0.22556528870E+01  0.66768608557E+01 -0.41281326489E+02  0.41878590682E+02  0.00000000000E+00 0.  1.
         -1    1    1    2    0  502 -0.14181652938E+02 -0.31651470316E+02 -0.82236574731E+03  0.82309680914E+03  0.00000000000E+00 0. -1.
<mgrwt>
<rscale>  1 0.30000000E+03</rscale>
<asrwt>0</asrwt>
<pdfrwt beam="1">  1       21 0.75469557E-02 0.30000000E+03</pdfrwt>
<pdfrwt beam="2">0</pdfrwt>
<totfact> 0.14148980E+04</totfact>
</mgrwt>
</event>
<event>
 6    1  0.8397183E-002  0.3000000E+03  0.7818608E-02  0.1093470E+00
         21   -1    0    0  501  502  0.00000000000E+00  0.00000000000E+00  0.12927182245E+01  0.12927182245E+01  0.00000000000E+00 0. -1.
         13   -1    0    0    0    0 -0.00000000000E+00 -0.00000000000E+00 -0.10000000000E+04  0.10000000000E+04  0.00000000000E+00 0.  1.
    9000005    2    1    2  501    0 -0.35768083668E+01 -0.34530231702E+02 -0.37401682534E+03  0.37563842325E+03  0.32417471072E+01 0.  0.
         13    1    3    3    0    0 -0.34533218383E+01 -0.31743318573E+02 -0.35207576717E+03  0.35352073423E+03  0.00000000000E+00 0.  1.
          3    1    3    3  501    0 -0.12348652843E+00 -0.27869131290E+01 -0.21941058173E+02  0.22117689017E+02  0.00000000000E+00 0.  1.
         -3    1    1    2    0  502  0.35768083668E+01  0.34530231702E+02 -0.62469045643E+03  0.62565429497E+03  0.00000000000E+00 0. -1.
<mgrwt>
<rscale>  1 0.30000000E+03</rscale>
<asrwt>0</asrwt>
<pdfrwt beam="1">  1       21 0.47008035E-02 0.30000000E+03</pdfrwt>
<pdfrwt beam="2">0</pdfrwt>
<totfact> 0.31995033E+04</totfact>
</mgrwt>
</event>
<event>
 6    1  0.8397183E-002  0.3000000E+03  0.7818608E-02  0.1093470E+00
         21   -1    0    0  501  502  0.00000000000E+00  0.00000000000E+00  0.17422218555E+01  0.17422218555E+01  0.00000000000E+00 0. -1.
         13   -1    0    0    0    0 -0.00000000000E+00 -0.00000000000E+00 -0.10000000000E+04  0.10000000000E+04  0.00000000000E+00 0.  1.
    9000005    2    1    2  501    0 -0.21478071353E+02  0.26823485396E+02 -0.78302295865E+03  0.78378159596E+03  0.27981199421E+01 0.  0.
         13    1    3    3    0    0 -0.58306826520E+01  0.61192385442E+01 -0.17135337519E+03  0.17156171230E+03  0.00000000000E+00 0.  1.
          1    1    3    3  501    0 -0.15647388701E+02  0.20704246852E+02 -0.61166958346E+03  0.61221988366E+03  0.00000000000E+00 0.  1.
         -1    1    1    2    0  502  0.21478071353E+02 -0.26823485396E+02 -0.21523481949E+03  0.21796062589E+03  0.00000000000E+00 0. -1.
<mgrwt>
<rscale>  1 0.30000000E+03</rscale>
<asrwt>0</asrwt>
<pdfrwt beam="1">  1       21 0.63353656E-02 0.30000000E+03</pdfrwt>
<pdfrwt beam="2">0</pdfrwt>
<totfact> 0.19182878E+04</totfact>
</mgrwt>
</event>
<event>
 6    1  0.8397183E-002  0.3000000E+03  0.7818608E-02  0.1093470E+00
         21   -1    0    0  501  502  0.00000000000E+00  0.00000000000E+00  0.23085520171E+01  0.23085520171E+01  0.00000000000E+00 0. -1.
         13   -1    0    0    0    0 -0.00000000000E+00 -0.00000000000E+00 -0.10000000000E+04  0.10000000000E+04  0.00000000000E+00 0.  1.
    9000005    2    1    2  501    0 -0.38099128060E+02 -0.43488614491E+01 -0.19967400960E+03  0.20337032655E+03  0.43958452040E+01 0.  0.
         13    1    3    3    0    0 -0.22282083151E+01 -0.69760330672E+00 -0.79685621691E+01  0.83035863163E+01  0.00000000000E+00 0.  1.
          3    1    3    3  501    0 -0.35870919745E+02 -0.36512581424E+01 -0.19170544743E+03  0.19506674023E+03  0.00000000000E+00 0.  1.
         -3    1    1    2    0  502  0.38099128060E+02  0.43488614491E+01 -0.79801743838E+03  0.79893822547E+03  0.00000000000E+00 0. -1.
<mgrwt>
<rscale>  1 0.30000000E+03</rscale>
<asrwt>0</asrwt>
<pdfrwt beam="1">  1       21 0.83947523E-02 0.30000000E+03</pdfrwt>
<pdfrwt beam="2">0</pdfrwt>
<totfact> 0.11736187E+04</totfact>
</mgrwt>
</event>
<event>
 6    1  0.8397183E-002  0.3000000E+03  0.7818608E-02  0.1093470E+00
         21   -1    0    0  501  502  0.00000000000E+00  0.00000000000E+00  0.14767722353E+01  0.14767722353E+01  0.00000000000E+00 0. -1.
         13   -1    0    0    0    0 -0.00000000000E+00 -0.00000000000E+00 -0.10000000000E+04  0.10000000000E+04  0.00000000000E+00 0.  1.
    9000005    2    1    2  501    0 -0.34548550874E+02 -0.12677946459E+02 -0.35583854870E+03  0.35773930292E+03  0.14154221825E+01 0.  0.
         13    1    3    3    0    0 -0.29696379152E+02 -0.11105072268E+02 -0.31072404759E+03  0.31233736779E+03  0.00000000000E+00 0.  1.
          3    1    3    3  501    0 -0.48521717222E+01 -0.15728741909E+01 -0.45114501105E+02  0.45401935130E+02  0.00000000000E+00 0.  1.
         -3    1    1    2    0  502  0.34548550874E+02  0.12677946459E+02 -0.64268467907E+03  0.64373746932E+03  0.00000000000E+00 0. -1.
<mgrwt>
<rscale>  1 0.30000000E+03</rscale>
<asrwt>0</asrwt>
<pdfrwt beam="1">  1       21 0.53700922E-02 0.30000000E+03</pdfrwt>
<pdfrwt beam="2">0</pdfrwt>
<totfact> 0.25497191E+04</totfact>
</mgrwt>
</event>
<event>
 6    1  0.8397183E-002  0.3000000E+03  0.7818608E-02  0.1093470E+00
         21   -1    0    0  501  502  0.00000000000E+00  0.00000000000E+00  0.21218448483E+01  0.21218448483E+01  0.00000000000E+00 0. -1.
         13   -1    0    0    0    0 -0.00000000000E+00 -0.00000000000E+00 -0.10000000000E+04  0.10000000000E+04  0.00000000000E+00 0.  1.
    9000005    2    1    2  501    0 -0.38571608652E+02 -0.99377216715E+01 -0.74984840699E+03  0.75091419512E+03  0.36010651303E+01 0.  0.
         13    1    3    3    0    0 -0.29119935148E+02 -0.59005267062E+01 -0.55235599579E+03  0.55315452897E+03  0.00000000000E+00 0.  1.
          3    1    3    3  501    0 -0.94516735038E+01 -0.40371949654E+01 -0.19749241119E+03  0.19775966615E+03  0.00000000000E+00 0.  1.
         -1    1    1    2    0  502  0.38571608652E+02  0.99377216715E+01 -0.24802974817E+03  0.25120764973E+03  0.00000000000E+00 0. -1.
<mgrwt>
<rscale>  1 0.30000000E+03</rscale>
<asrwt>0</asrwt>
<pdfrwt beam="1">  1       21 0.77158157E-02 0.30000000E+03</pdfrwt>
<pdfrwt beam="2">0</pdfrwt>
<totfact> 0.13610881E+04</totfact>
</mgrwt>
</event>
<event>
 6    1  0.8397183E-002  0.3000000E+03  0.7818608E-02  0.1093470E+00
         21   -1    0    0  501  502  0.00000000000E+00  0.00000000000E+00  0.37260506659E+01  0.37260506659E+01  0.00000000000E+00 0. -1.
         13   -1    0    0    0    0 -0.00000000000E+00 -0.00000000000E+00 -0.10000000000E+04  0.10000000000E+04  0.00000000000E+00 0.  1.
    9000005    2    1    2  501    0 -0.30368670391E+02  0.13923584385E+02 -0.78928223289E+02  0.85772182851E+02  0.33287499177E+01 0.  0.
         13    1    3    3    0    0 -0.22304959804E+02  0.86425283751E+01 -0.55127376365E+02  0.60093528382E+02  0.00000000000E+00 0.  1.
          1    1    3    3  501    0 -0.80637105875E+01  0.52810560098E+01 -0.23800846925E+02  0.25678654469E+02  0.00000000000E+00 0.  1.
         -3    1    1    2    0  502  0.30368670391E+02 -0.13923584385E+02 -0.91734572604E+03  0.91795386781E+03  0.00000000000E+00 0. -1.
<mgrwt>
<rscale>  1 0.30000000E+03</rscale>
<asrwt>0</asrwt>
<pdfrwt beam="1">  1       21 0.13549304E-01 0.30000000E+03</pdfrwt>
<pdfrwt beam="2">0</pdfrwt>
<totfact> 0.49660295E+03</totfact>
</mgrwt>
</event>
<event>
 6    1  0.8397183E-002  0.3000000E+03  0.7818608E-02  0.1093470E+00
         21   -1    0    0  501  502  0.00000000000E+00  0.00000000000E+00  0.14790138400E+01  0.14790138400E+01  0.00000000000E+00 0. -1.
         13   -1    0    0    0    0 -0.00000000000E+00 -0.00000000000E+00 -0.10000000000E+04  0.10000000000E+04  0.00000000000E+00 0.  1.
    9000005    2    1    2  501    0  0.28051597354E+02  0.26038889998E+02 -0.45658589918E+03  0.45819404772E+03  0.24871940626E+01 0.  0.
         13    1    3    3    0    0  0.11169581156E+02  0.99126793575E+01 -0.19225264815E+03  0.19283179581E+03  0.00000000000E+00 0.  1.
          1    1    3    3  501    0  0.16882016198E+02  0.16126210641E+02 -0.26433325103E+03  0.26536225191E+03  0.00000000000E+00 0.  1.
         -1    1    1    2    0  502 -0.28051597354E+02 -0.26038889998E+02 -0.54193508698E+03  0.54328496612E+03  0.00000000000E+00 0. -1.
<mgrwt>
<rscale>  1 0.30000000E+03</rscale>
<asrwt>0</asrwt>
<pdfrwt beam="1">  1       21 0.53782435E-02 0.30000000E+03</pdfrwt>
<pdfrwt beam="2">0</pdfrwt>
<totfact> 0.25431073E+04</totfact>
</mgrwt>
</event>
<event>
 6    1  0.8397183E-002  0.3000000E+03  0.7818608E-02  0.1093470E+00
         21   -1    0    0  501  502  0.00000000000E+00  0.00000000000E+00  0.11661371319E+01  0.11661371319E+01  0.00000000000E+00 0. -1.
         13   -1    0    0    0    0 -0.00000000000E+00 -0.00000000000E+00 -0.10000000000E+04  0.10000000000E+04  0.00000000000E+00 0.  1.
    9000005    2    1    2  501    0 -0.33441907371E+02 -0.15647679458E+01 -0.59411038652E+03  0.59506036030E+03  0.29784835793E+01 0.  0.
         13    1    3    3    0    0 -0.16157100421E+02 -0.17854167134E+01 -0.26890902082E+03  0.26939989065E+03  0.00000000000E+00 0.  1.
          1    1    3    3  501    0 -0.17284806950E+02  0.22064876759E+00 -0.32520136570E+03  0.32566046965E+03  0.00000000000E+00 0.  1.
         -1    1    1    2    0  502  0.33441907371E+02  0.15647679458E+01 -0.40472347635E+03  0.40610577683E+03  0.00000000000E+00 0. -1.
<mgrwt>
<rscale>  1 0.30000000E+03</rscale>
<asrwt>0</asrwt>
<pdfrwt beam="1">  1       21 0.42405076E-02 0.30000000E+03</pdfrwt>
<pdfrwt beam="2">0</pdfrwt>
<totfact> 0.38103642E+04</totfact>
</mgrwt>
</event>
<event>
 6    1  0.8397183E-002  0.3000000E+03  0.7818608E-02  0.1093470E+00
         21   -1    0    0  501  502  0.00000000000E+00  0.00000000000E+00  0.23989343838E+01  0.23989343838E+01  0.00000000000E+00 0. -1.
         13   -1    0    0    0    0 -0.00000000000E+00 -0.00000000000E+00 -0.10000000000E+04  0.10000000000E+04  0.00000000000E+00 0.  1.
    9000005    2    1    2  501    0  0.34730509050E+02  0.24276665647E+02 -0.74960168577E+03  0.75080549814E+03  0.32625118458E+01 0.  0.
         13    1    3    3    0    0  0.32692130788E+01  0.12039677595E+01 -0.62684963904E+02  0.62781701093E+02  0.00000000000E+00 0.  1.
          1    1    3    3  501    0  0.31461295971E+02  0.23072697888E+02 -0.68691672186E+03  0.68802379705E+03  0.00000000000E+00 0.  1.
         -1    1    1    2    0  502 -0.34730509050E+02 -0.24276665647E+02 -0.24799937985E+03  0.25159343624E+03  0.00000000000E+00 0. -1.
<mgrwt>
<rscale>  1 0.30000000E+03</rscale>
<asrwt>0</asrwt>
<pdfrwt beam="1">  1       21 0.87234162E-02 0.30000000E+03</pdfrwt>
<pdfrwt beam="2">0</pdfrwt>
<totfact> 0.10967332E+04</totfact>
</mgrwt>
</event>
<event>
 6    1  0.8397183E-002  0.3000000E+03  0.7818608E-02  0.1093470E+00
         21   -1    0    0  501  502  0.00000000000E+00  0.00000000000E+00  0.11987523068E+01  0.11987523068E+01  0.00000000000E+00 0. -1.
         13   -1    0    0    0    0 -0.00000000000E+00 -0.00000000000E+00 -0.10000000000E+04  0.10000000000E+04  0.00000000000E+00 0.  1.
    9000005    2    1    2  501    0 -0.31823116845E+02 -0.13203481663E+01 -0.30737161898E+03  0.30903592064E+03  0.33814203473E+01 0.  0.
         13    1    3    3    0    0 -0.13338639100E+02  0.64919691658E+00 -0.11747570367E+03  0.11823232089E+03  0.00000000000E+00 0.  1.
          3    1    3    3  501    0 -0.18484477745E+02 -0.19695450829E+01 -0.18989591531E+03  0.19080359975E+03  0.00000000000E+00 0.  1.
         -3    1    1    2    0  502  0.31823116845E+02  0.13203481663E+01 -0.69142962871E+03  0.69216283167E+03  0.00000000000E+00 0. -1.
<mgrwt>
<rscale>  1 0.30000000E+03</rscale>
<asrwt>0</asrwt>
<pdfrwt beam="1">  1       21 0.43591085E-02 0.30000000E+03</pdfrwt>
<pdfrwt beam="2">0</pdfrwt>
<totfact> 0.36366884E+04</totfact>
</mgrwt>
</event>
<event>
 6    1  0.8397183E-002  0.3000000E+03  0.7818608E-02  0.1093470E+00
         21   -1    0    0  501  502  0.00000000000E+00  0.00000000000E+00  0.19151569593E+01  0.19151569593E+01  0.00000000000E+00 0. -1.
         13   -1    0    0    0    0 -0.00000000000E+00 -0.00000000000E+00 -0.10000000000E+04  0.10000000000E+04  0.00000000000E+00 0.  1.
    9000005    2    1    2  501    0  0.96042409759E+01 -0.41150468506E+02 -0.37291434397E+03  0.37531819287E+03  0.36104645735E+01 0.  0.
         13    1    3    3    0    0  0.24170277999E+01 -0.14775102547E+02 -0.11979383735E+03  0.12072576007E+03  0.00000000000E+00 0.  1.
          3    1    3    3  501    0  0.71872131760E+01 -0.26375365959E+02 -0.25312050663E+03  0.25459243280E+03  0.00000000000E+00 0.  1.
         -3    1    1    2    0  502 -0.96042409759E+01  0.41150468506E+02 -0.62517049907E+03  0.62659696409E+03  0.00000000000E+00 0. -1.
<mgrwt>
<rscale>  1 0.30000000E+03</rscale>
<asrwt>0</asrwt>
<pdfrwt beam="1">  1       21 0.69642218E-02 0.30000000E+03</pdfrwt>
<pdfrwt beam="2">0</pdfrwt>
<totfact> 0.16279794E+04</totfact>
</mgrwt>
</event>
<event>
 6    1  0.8397183E-002  0.3000000E+03  0.7818608E-02  0.1093470E+00
         21   -1    0    0  501  502  0.00000000000E+00  0.00000000000E+00  0.37332051059E+01  0.37332051059E+01  0.00000000000E+00 0. -1.
         13   -1    0    0    0    0 -0.00000000000E+00 -0.00000000000E+00 -0.10000000000E+04  0.10000000000E+04  0.00000000000E+00 0.  1.
    9000005    2    1    2  501    0  0.57020863806E+02  0.15372505394E+01 -0.31994756370E+03  0.32501275858E+03  0.36204521965E+01 0.  0.
         13    1    3    3    0    0  0.31094657866E+02 -0.82058766574E+00 -0.17819152511E+03  0.18088607114E+03  0.00000000000E+00 0.  1.
          3    1    3    3  501    0  0.25926205940E+02  0.23578382051E+01 -0.14175603859E+03  0.14412668744E+03  0.00000000000E+00 0.  1.
         -1    1    1    2    0  502 -0.57020863806E+02 -0.15372505394E+01 -0.67631923120E+03  0.67872044653E+03  0.00000000000E+00 0. -1.
<mgrwt>
<rscale>  1 0.30000000E+03</rscale>
<asrwt>0</asrwt>
<pdfrwt beam="1">  1       21 0.13575320E-01 0.30000000E+03</pdfrwt>
<pdfrwt beam="2">0</pdfrwt>
<totfact> 0.49486066E+03</totfact>
</mgrwt>
</event>
<event>
 6    1  0.8397183E-002  0.3000000E+03  0.7818608E-02  0.1093470E+00
         21   -1    0    0  501  502  0.00000000000E+00  0.00000000000E+00  0.11974182882E+01  0.11974182882E+01  0.00000000000E+00 0. -1.
         13   -1    0    0    0    0 -0.00000000000E+00 -0.00000000000E+00 -0.10000000000E+04  0.10000000000E+04  0.00000000000E+00 0.  1.
    9000005    2    1    2  501    0  0.22081080759E+02 -0.26151802353E+02 -0.56420308273E+03  0.56525222058E+03  0.36692518879E+01 0.  0.
         13    1    3    3    0    0  0.16927167793E+02 -0.19934137604E+02 -0.45499962553E+03  0.45575054370E+03  0.00000000000E+00 0.  1.
          1    1    3    3  501    0  0.51539129664E+01 -0.62176647493E+01 -0.10920345720E+03  0.10950167687E+03  0.00000000000E+00 0.  1.
         -1    1    1    2    0  502 -0.22081080759E+02  0.26151802353E+02 -0.43459949898E+03  0.43594519771E+03  0.00000000000E+00 0. -1.
<mgrwt>
<rscale>  1 0.30000000E+03</rscale>
<asrwt>0</asrwt>
<pdfrwt beam="1">  1       21 0.43542575E-02 0.30000000E+03</pdfrwt>
<pdfrwt beam="2">0</pdfrwt>
<totfact> 0.36435493E+04</totfact>
</mgrwt>
</event>
<event>
 6    1  0.8397183E-002  0.3000000E+03  0.7818608E-02  0.1093470E+00
         21   -1    0    0  501  502  0.00000000000E+00  0.00000000000E+00  0.10664332218E+01  0.10664332218E+01  0.00000000000E+00 0. -1.
         13   -1    0    0    0    0 -0.00000000000E+00 -0.00000000000E+00 -0.10000000000E+04  0.10000000000E+04  0.00000000000E+00 0.  1.
    9000005    2    1    2  501    0  0.31291048437E+02 -0.89102346572E+01 -0.49683671069E+03  0.49791657991E+03  0.39599831142E+01 0.  0.
         13    1    3    3    0    0  0.18827072806E+02 -0.73404406914E+01 -0.30205931961E+03  0.30273449309E+03  0.00000000000E+00 0.  1.
          3    1    3    3  501    0  0.12463975631E+02 -0.15697939658E+01 -0.19477739108E+03  0.19518208682E+03  0.00000000000E+00 0.  1.
         -1    1    1    2    0  502 -0.31291048437E+02  0.89102346572E+01 -0.50209685609E+03  0.50314985331E+03  0.00000000000E+00 0. -1.
<mgrwt>
<rscale>  1 0.30000000E+03</rscale>
<asrwt>0</asrwt>
<pdfrwt beam="1">  1       21 0.38779472E-02 0.30000000E+03</pdfrwt>
<pdfrwt beam="2">0</pdfrwt>
<totfact> 0.44298120E+04</totfact>
</mgrwt>
</event>
<event>
 6    1  0.8397183E-002  0.3000000E+03  0.7818608E-02  0.1093470E+00
         21   -1    0    0  501  502  0.00000000000E+00  0.00000000000E+00  0.11356539795E+01  0.11356539795E+01  0.00000000000E+00 0. -1.
         13   -1    0    0    0    0 -0.00000000000E+00 -0.00000000000E+00 -0.10000000000E+04  0.10000000000E+04  0.00000000000E+00 0.  1.
    9000005    2    1    2  501    0  0.20724518682E+02 -0.26485817887E+02 -0.50910442624E+03  0.51022244042E+03  0.29355863786E+01 0.  0.
         13    1    3    3    0    0  0.79774917209E+01 -0.81398056999E+01 -0.18067371075E+03  0.18103283285E+03  0.00000000000E+00 0.  1.
          1    1    3    3  501    0  0.12747026961E+02 -0.18346012187E+02 -0.32843071549E+03  0.32918960757E+03  0.00000000000E+00 0.  1.
         -3    1    1    2    0  502 -0.20724518682E+02  0.26485817887E+02 -0.48975991978E+03  0.49091321356E+03  0.00000000000E+00 0. -1.
<mgrwt>
<rscale>  1 0.30000000E+03</rscale>
<asrwt>0</asrwt>
<pdfrwt beam="1">  1       21 0.41296595E-02 0.30000000E+03</pdfrwt>
<pdfrwt beam="2">0</pdfrwt>
<totfact> 0.39846271E+04</totfact>
</mgrwt>
</event>
<event>
 6    1  0.8397183E-002  0.3000000E+03  0.7818608E-02  0.1093470E+00
         21   -1    0    0  501  502  0.00000000000E+00  0.00000000000E+00  0.20611269206E+01  0.20611269206E+01  0.00000000000E+00 0. -1.
         13   -1    0    0    0    0 -0.00000000000E+00 -0.00000000000E+00 -0.10000000000E+04  0.10000000000E+04  0.00000000000E+00 0.  1.
    9000005    2    1    2  501    0  0.13778100041E+02  0.36359499974E+02 -0.75710928273E+03  0.75811289293E+03  0.29737437666E+01 0.  0.
         13    1    3    3    0    0  0.82604672586E+01  0.25391374221E+02 -0.50810839452E+03  0.50880949066E+03  0.00000000000E+00 0.  1.
          3    1    3    3  501    0  0.55176327826E+01  0.10968125753E+02 -0.24900088821E+03  0.24930340227E+03  0.00000000000E+00 0.  1.
         -3    1    1    2    0  502 -0.13778100041E+02 -0.36359499974E+02 -0.24082959035E+03  0.24394823399E+03  0.00000000000E+00 0. -1.
<mgrwt>
<rscale>  1 0.30000000E+03</rscale>
<asrwt>0</asrwt>
<pdfrwt beam="1">  1       21 0.74950228E-02 0.30000000E+03</pdfrwt>
<pdfrwt beam="2">0</pdfrwt>
<totfact> 0.14321099E+04</totfact>
</mgrwt>
</event>
<event>
 6    1  0.8397183E-002  0.3000000E+03  0.7818608E-02  0.1093470E+00
         21   -1    0    0  501  502  0.00000000000E+00  0.00000000000E+00  0.13125038054E+01  0.13125038054E+01  0.00000000000E+00 0. -1.
         13   -1    0    0    0    0 -0.00000000000E+00 -0.00000000000E+00 -0.10000000000E+04  0.10000000000E+04  0.00000000000E+00 0.  1.
    9000005    2    1    2  501    0 -0.20044709624E+02 -0.24424426771E+02 -0.74298673858E+03  0.74366697124E+03  0.35954691348E+01 0.  0.
         13    1    3    3    0    0 -0.14200401078E+02 -0.14983616909E+02 -0.46219662172E+03  0.46265740813E+03  0.00000000000E+00 0.  1.
          3    1    3    3  501    0 -0.58443085455E+01 -0.94408098621E+01 -0.28079011686E+03  0.28100956311E+03  0.00000000000E+00 0.  1.
         -1    1    1    2    0  502  0.20044709624E+02  0.24424426771E+02 -0.25570075762E+03  0.25764553257E+03  0.00000000000E+00 0. -1.
<mgrwt>
<rscale>  1 0.30000000E+03</rscale>
<asrwt>0</asrwt>
<pdfrwt beam="1">  1       21 0.47727512E-02 0.30000000E+03</pdfrwt>
<pdfrwt beam="2">0</pdfrwt>
<totfact> 0.31179089E+04</totfact>
</mgrwt>
</event>
<event>
 6    1  0.8397183E-002  0.3000000E+03  0.7818608E-02  0.1093470E+00
         21   -1    0    0  501  502  0.00000000000E+00  0.00000000000E+00  0.20327609434E+01  0.20327609434E+01  0.00000000000E+00 0. -1.
         13   -1    0    0    0    0 -0.00000000000E+00 -0.00000000000E+00 -0.10000000000E+04  0.10000000000E+04  0.00000000000E+00 0.  1.
    9000005    2    1    2  501    0 -0.30220208496E+02 -0.30036382402E+02 -0.33764358956E+03  0.34033587615E+03  0.31416158317E+01 0.  0.
         13    1    3    3    0    0 -0.30171896667E+02 -0.30066915373E+02 -0.33571605533E+03  0.33840749483E+03  0.00000000000E+00 0.  1.
          1    1    3    3  501    0 -0.48311829260E-01  0.30532970928E-01 -0.19275342318E+01  0.19283813186E+01  0.00000000000E+00 0.  1.
         -1    1    1    2    0  502  0.30220208496E+02  0.30036382402E+02 -0.66032364949E+03  0.66169688480E+03  0.00000000000E+00 0. -1.
<mgrwt>
<rscale>  1 0.30000000E+03</rscale>
<asrwt>0</asrwt>
<pdfrwt beam="1">  1       21 0.73918736E-02 0.30000000E+03</pdfrwt>
<pdfrwt beam="2">0</pdfrwt>
<totfact> 0.14672658E+04</totfact>
</mgrwt>
</event>
<event>
 6    1  0.8397183E-002  0.3000000E+03  0.7818608E-02  0.1093470E+00
         21   -1    0    0  501  502  0.00000000000E+00  0.00000000000E+00  0.10901514646E+01  0.10901514646E+01  0.00000000000E+00 0. -1.
         13   -1    0    0    0    0 -0.00000000000E+00 -0.00000000000E+00 -0.10000000000E+04  0.10000000000E+04  0.00000000000E+00 0.  1.
    9000005    2    1    2  501    0 -0.88973308931E+00 -0.32834940873E+02 -0.53932233773E+03  0.54033033870E+03  0.30603892095E+01 0.  0.
         13    1    3    3    0    0 -0.23027742727E-01 -0.66099168474E+01 -0.12986695390E+03  0.13003506160E+03  0.00000000000E+00 0.  1.
          1    1    3    3  501    0 -0.86670534658E+00 -0.26225024025E+02 -0.40945538382E+03  0.41029527709E+03  0.00000000000E+00 0.  1.
         -1    1    1    2    0  502  0.88973308931E+00  0.32834940873E+02 -0.45958751081E+03  0.46075981277E+03  0.00000000000E+00 0. -1.
<mgrwt>
<rscale>  1 0.30000000E+03</rscale>
<asrwt>0</asrwt>
<pdfrwt beam="1">  1       21 0.39641955E-02 0.30000000E+03</pdfrwt>
<pdfrwt beam="2">0</pdfrwt>
<totfact> 0.42688698E+04</totfact>
</mgrwt>
</event>
<event>
 6    1  0.8397183E-002  0.3000000E+03  0.7818608E-02  0.1093470E+00
         21   -1    0    0  501  502  0.00000000000E+00  0.00000000000E+00  0.13024119350E+01  0.13024119350E+01  0.00000000000E+00 0. -1.
         13   -1    0    0    0    0 -0.00000000000E+00 -0.00000000000E+00 -0.10000000000E+04  0.10000000000E+04  0.00000000000E+00 0.  1.
    9000005    2    1    2  501    0  0.10315639679E+01 -0.35794650541E+02 -0.54243551120E+03  0.54363724622E+03  0.47802223876E+01 0.  0.
         13    1    3    3    0    0 -0.18073495401E+01 -0.88057455829E+01 -0.13459339051E+03  0.13489324830E+03  0.00000000000E+00 0.  1.
          3    1    3    3  501    0  0.28389135080E+01 -0.26988904958E+02 -0.40784212070E+03  0.40874399792E+03  0.00000000000E+00 0.  1.
         -3    1    1    2    0  502 -0.10315639679E+01  0.35794650541E+02 -0.45626207686E+03  0.45766516572E+03  0.00000000000E+00 0. -1.
<mgrwt>
<rscale>  1 0.30000000E+03</rscale>
<asrwt>0</asrwt>
<pdfrwt beam="1">  1       21 0.47360534E-02 0.30000000E+03</pdfrwt>
<pdfrwt beam="2">0</pdfrwt>
<totfact> 0.31591147E+04</totfact>
</mgrwt>
</event>
<event>
 6    1  0.8397183E-002  0.3000000E+03  0.7818608E-02  0.1093470E+00
         21   -1    0    0  501  502  0.00000000000E+00  0.00000000000E+00  0.34312409603E+01  0.34312409603E+01  0.00000000000E+00 0. -1.
         13   -1    0    0    0    0 -0.00000000000E+00 -0.00000000000E+00 -0.10000000000E+04  0.10000000000E+04  0.00000000000E+00 0.  1.
    9000005    2    1    2  501    0 -0.57296844273E+02  0.89230198705E+00 -0.39760851492E+03  0.40173605351E+03  0.39498082676E+01 0.  0.
         13    1    3    3    0    0 -0.55697546408E+02  0.11156967970E+01 -0.38994444652E+03  0.39390371010E+03  0.00000000000E+00 0.  1.
          3    1    3    3  501    0 -0.15992978647E+01 -0.22339480996E+00 -0.76640684000E+01  0.78323434131E+01  0.00000000000E+00 0.  1.
         -3    1    1    2    0  502  0.57296844273E+02 -0.89230198705E+00 -0.59896024412E+03  0.60169518745E+03  0.00000000000E+00 0. -1.
<mgrwt>
<rscale>  1 0.30000000E+03</rscale>
<asrwt>0</asrwt>
<pdfrwt beam="1">  1       21 0.12477266E-01 0.30000000E+03</pdfrwt>
<pdfrwt beam="2">0</pdfrwt>
<totfact> 0.57728015E+03</totfact>
</mgrwt>
</event>
<event>
 6    1  0.8397183E-002  0.3000000E+03  0.7818608E-02  0.1093470E+00
         21   -1    0    0  501  502  0.00000000000E+00  0.00000000000E+00  0.16172034085E+01  0.16172034085E+01  0.00000000000E+00 0. -1.
         13   -1    0    0    0    0 -0.00000000000E+00 -0.00000000000E+00 -0.10000000000E+04  0.10000000000E+04  0.00000000000E+00 0.  1.
    9000005    2    1    2  501    0 -0.12379732724E+02 -0.38023858788E+02 -0.46275814540E+03  0.46450190984E+03  0.42251027262E+01 0.  0.
         13    1    3    3    0    0 -0.12092997921E+02 -0.34230952622E+02 -0.42769444352E+03  0.42923249613E+03  0.00000000000E+00 0.  1.
          3    1    3    3  501    0 -0.28673480268E+00 -0.37929061662E+01 -0.35063701877E+02  0.35269413709E+02  0.00000000000E+00 0.  1.
         -3    1    1    2    0  502  0.12379732724E+02  0.38023858788E+02 -0.53562465120E+03  0.53711529357E+03  0.00000000000E+00 0. -1.
<mgrwt>
<rscale>  1 0.30000000E+03</rscale>
<asrwt>0</asrwt>
<pdfrwt beam="1">  1       21 0.58807521E-02 0.30000000E+03</pdfrwt>
<pdfrwt beam="2">0</pdfrwt>
<totfact> 0.21813692E+04</totfact>
</mgrwt>
</event>
<event>
 6    1  0.8397183E-002  0.3000000E+03  0.7818608E-02  0.1093470E+00
         21   -1    0    0  501  502  0.00000000000E+00  0.00000000000E+00  0.11129277202E+01  0.11129277202E+01  0.00000000000E+00 0. -1.
         13   -1    0    0    0    0 -0.00000000000E+00 -0.00000000000E+00 -0.10000000000E+04  0.10000000000E+04  0.00000000000E+00 0.  1.
    9000005    2    1    2  501    0  0.15109830448E+02 -0.29548941858E+02 -0.53978013897E+03  0.54080800361E+03  0.30416127318E+01 0.  0.
         13    1    3    3    0    0  0.83637469436E+01 -0.13510553308E+02 -0.27055465913E+03  0.27102086800E+03  0.00000000000E+00 0.  1.
          3    1    3    3  501    0  0.67460835040E+01 -0.16038388550E+02 -0.26922547984E+03  0.26978713562E+03  0.00000000000E+00 0.  1.
         -3    1    1    2    0  502 -0.15109830448E+02  0.29548941858E+02 -0.45910693331E+03  0.46030492411E+03  0.00000000000E+00 0. -1.
<mgrwt>
<rscale>  1 0.30000000E+03</rscale>
<asrwt>0</asrwt>
<pdfrwt beam="1">  1       21 0.40470184E-02 0.30000000E+03</pdfrwt>
<pdfrwt beam="2">0</pdfrwt>
<totfact> 0.41227691E+04</totfact>
</mgrwt>
</event>
<event>
 6    1  0.8397183E-002  0.3000000E+03  0.7818608E-02  0.1093470E+00
         21   -1    0    0  501  502  0.00000000000E+00  0.00000000000E+00  0.26124592844E+01  0.26124592844E+01  0.00000000000E+00 0. -1.
         13   -1    0    0    0    0 -0.00000000000E+00 -0.00000000000E+00 -0.10000000000E+04  0.10000000000E+04  0.00000000000E+00 0.  1.
    9000005    2    1    2  501    0  0.50332031631E+02 -0.31810016910E+00 -0.43100257567E+03  0.43399541484E+03  0.74421285598E+01 0.  0.
         13    1    3    3    0    0  0.37633444726E+02  0.30029782616E+01 -0.32126272799E+03  0.32347339061E+03  0.00000000000E+00 0.  1.
          1    1    3    3  501    0  0.12698586906E+02 -0.33210784307E+01 -0.10973984768E+03  0.11052202423E+03  0.00000000000E+00 0.  1.
         -3    1    1    2    0  502 -0.50332031631E+02  0.31810016910E+00 -0.56638496505E+03  0.56861704444E+03  0.00000000000E+00 0. -1.
<mgrwt>
<rscale>  1 0.30000000E+03</rscale>
<asrwt>0</asrwt>
<pdfrwt beam="1">  1       21 0.94998720E-02 0.30000000E+03</pdfrwt>
<pdfrwt beam="2">0</pdfrwt>
<totfact> 0.94279502E+03</totfact>
</mgrwt>
</event>
<event>
 6    1  0.8397183E-002  0.3000000E+03  0.7818608E-02  0.1093470E+00
         21   -1    0    0  501  502  0.00000000000E+00  0.00000000000E+00  0.11734447339E+01  0.11734447339E+01  0.00000000000E+00 0. -1.
         13   -1    0    0    0    0 -0.00000000000E+00 -0.00000000000E+00 -0.10000000000E+04  0.10000000000E+04  0.00000000000E+00 0.  1.
    9000005    2    1    2  501    0 -0.33618399054E+02  0.38454228926E+01 -0.57352401231E+03  0.57452694343E+03  0.25361379345E+01 0.  0.
         13    1    3    3    0    0 -0.18513176587E+02  0.14605539748E+01 -0.33269977338E+03  0.33321766180E+03  0.00000000000E+00 0.  1.
          1    1    3    3  501    0 -0.15105222467E+02  0.23848689178E+01 -0.24082423893E+03  0.24130928163E+03  0.00000000000E+00 0.  1.
         -1    1    1    2    0  502  0.33618399054E+02 -0.38454228926E+01 -0.42530254296E+03  0.42664650131E+03  0.00000000000E+00 0. -1.
<mgrwt>
<rscale>  1 0.30000000E+03</rscale>
<asrwt>0</asrwt>
<pdfrwt beam="1">  1       21 0.42670808E-02 0.30000000E+03</pdfrwt>
<pdfrwt beam="2">0</pdfrwt>
<totfact> 0.37703485E+04</totfact>
</mgrwt>
</event>
<event>
 6    1  0.8397183E-002  0.3000000E+03  0.7818608E-02  0.1093470E+00
         21   -1    0    0  501  502  0.00000000000E+00  0.00000000000E+00  0.14582196068E+01  0.14582196068E+01  0.00000000000E+00 0. -1.
         13   -1    0    0    0    0 -0.00000000000E+00 -0.00000000000E+00 -0.10000000000E+04  0.10000000000E+04  0.00000000000E+00 0.  1.
    9000005    2    1    2  501    0 -0.26648608146E+01 -0.37947161924E+02 -0.47160144724E+03  0.47314656605E+03  0.35579971724E+01 0.  0.
         13    1    3    3    0    0 -0.26254169153E+01 -0.37291954515E+02 -0.46755933866E+03  0.46905150875E+03  0.00000000000E+00 0.  1.
          1    1    3    3  501    0 -0.39443899292E-01 -0.65520740926E+00 -0.40421085762E+01  0.40950573026E+01  0.00000000000E+00 0.  1.
         -3    1    1    2    0  502  0.26648608146E+01  0.37947161924E+02 -0.52694033315E+03  0.52831165356E+03  0.00000000000E+00 0. -1.
<mgrwt>
<rscale>  1 0.30000000E+03</rscale>
<asrwt>0</asrwt>
<pdfrwt beam="1">  1       21 0.53026279E-02 0.30000000E+03</pdfrwt>
<pdfrwt beam="2">0</pdfrwt>
<totfact> 0.26054765E+04</totfact>
</mgrwt>
</event>
<event>
 6    1  0.8397183E-002  0.3000000E+03  0.7818608E-02  0.1093470E+00
         21   -1    0    0  501  502  0.00000000000E+00  0.00000000000E+00  0.14001398670E+01  0.14001398670E+01  0.00000000000E+00 0. -1.
         13   -1    0    0    0    0 -0.00000000000E+00 -0.00000000000E+00 -0.10000000000E+04  0.10000000000E+04  0.00000000000E+00 0.  1.
    9000005    2    1    2  501    0  0.21257242489E+02  0.30313232008E+02 -0.56634167290E+03  0.56755926717E+03  0.31414795283E+01 0.  0.
         13    1    3    3    0    0  0.19540252469E+02  0.28844846786E+02 -0.52351334676E+03  0.52467139324E+03  0.00000000000E+00 0.  1.
          1    1    3    3  501    0  0.17169900202E+01  0.14683852220E+01 -0.42828326139E+02  0.42887873925E+02  0.00000000000E+00 0.  1.
         -3    1    1    2    0  502 -0.21257242489E+02 -0.30313232008E+02 -0.43225818724E+03  0.43384087270E+03  0.00000000000E+00 0. -1.
<mgrwt>
<rscale>  1 0.30000000E+03</rscale>
<asrwt>0</asrwt>
<pdfrwt beam="1">  1       21 0.50914284E-02 0.30000000E+03</pdfrwt>
<pdfrwt beam="2">0</pdfrwt>
<totfact> 0.27928072E+04</totfact>
</mgrwt>
</event>
<event>
 6    1  0.8397183E-002  0.3000000E+03  0.7818608E-02  0.1093470E+00
         21   -1    0    0  501  502  0.00000000000E+00  0.00000000000E+00  0.16552118909E+01  0.16552118909E+01  0.00000000000E+00 0. -1.
         13   -1    0    0    0    0 -0.00000000000E+00 -0.00000000000E+00 -0.10000000000E+04  0.10000000000E+04  0.00000000000E+00 0.  1.
    9000005    2    1    2  501    0  0.20583477876E+02  0.32941553944E+02 -0.35757812461E+03  0.35971226849E+03  0.46877884746E+01 0.  0.
         13    1    3    3    0    0  0.91492960443E+01  0.12964625519E+02 -0.12677175541E+03  0.12776098427E+03  0.00000000000E+00 0.  1.
          3    1    3    3  501    0  0.11434181832E+02  0.19976928425E+02 -0.23080636921E+03  0.23195128422E+03  0.00000000000E+00 0.  1.
         -1    1    1    2    0  502 -0.20583477876E+02 -0.32941553944E+02 -0.64076666350E+03  0.64194294340E+03  0.00000000000E+00 0. -1.
<mgrwt>
<rscale>  1 0.30000000E+03</rscale>
<asrwt>0</asrwt>
<pdfrwt beam="1">  1       21 0.60189650E-02 0.30000000E+03</pdfrwt>
<pdfrwt beam="2">0</pdfrwt>
<totfact> 0.20957283E+04</totfact>
</mgrwt>
</event>
<event>
 6    1  0.8397183E-002  0.3000000E+03  0.7818608E-02  0.1093470E+00
         21   -1    0    0  501  502  0.00000000000E+00  0.00000000000E+00  0.18207010889E+01  0.18207010889E+01  0.00000000000E+00 0. -1.
         13   -1    0    0    0    0 -0.00000000000E+00 -0.00000000000E+00 -0.10000000000E+04  0.10000000000E+04  0.00000000000E+00 0.  1.
    9000005    2    1    2  501    0 -0.14279553899E+02 -0.40130395435E+02 -0.51203812069E+03  0.51381701313E+03  0.32452498976E+01 0.  0.
         13    1    3    3    0    0 -0.67203156739E+01 -0.16377413655E+02 -0.22917377676E+03  0.22985648190E+03  0.00000000000E+00 0.  1.
          3    1    3    3  501    0 -0.75592382248E+01 -0.23752981780E+02 -0.28286434393E+03  0.28396053123E+03  0.00000000000E+00 0.  1.
         -3    1    1    2    0  502  0.14279553899E+02  0.40130395435E+02 -0.48614117822E+03  0.48800368796E+03  0.00000000000E+00 0. -1.
<mgrwt>
<rscale>  1 0.30000000E+03</rscale>
<asrwt>0</asrwt>
<pdfrwt beam="1">  1       21 0.66207452E-02 0.30000000E+03</pdfrwt>
<pdfrwt beam="2">0</pdfrwt>
<totfact> 0.17774177E+04</totfact>
</mgrwt>
</event>
<event>
 6    1  0.8397183E-002  0.3000000E+03  0.7818608E-02  0.1093470E+00
         21   -1    0    0  501  502  0.00000000000E+00  0.00000000000E+00  0.25610464639E+01  0.25610464639E+01  0.00000000000E+00 0. -1.
         13   -1    0    0    0    0 -0.00000000000E+00 -0.00000000000E+00 -0.10000000000E+04  0.10000000000E+04  0.00000000000E+00 0.  1.
    9000005    2    1    2  501    0  0.43142644410E+02 -0.21930575017E+02 -0.64012204270E+03  0.64198149538E+03  0.64632018742E+01 0.  0.
         13    1    3    3    0    0  0.41230075515E+02 -0.21243783134E+02 -0.59088734558E+03  0.59270487817E+03  0.00000000000E+00 0.  1.
          3    1    3    3  501    0  0.19125688950E+01 -0.68679188237E+00 -0.49234697122E+02  0.49276617209E+02  0.00000000000E+00 0.  1.
         -3    1    1    2    0  502 -0.43142644410E+02  0.21930575017E+02 -0.35731691084E+03  0.36057955108E+03  0.00000000000E+00 0. -1.
<mgrwt>
<rscale>  1 0.30000000E+03</rscale>
<asrwt>0</asrwt>
<pdfrwt beam="1">  1       21 0.93129159E-02 0.30000000E+03</pdfrwt>
<pdfrwt beam="2">0</pdfrwt>
<totfact> 0.97673671E+03</totfact>
</mgrwt>
</event>
<event>
 6    1  0.8397183E-002  0.3000000E+03  0.7818608E-02  0.1093470E+00
         21   -1    0    0  501  502  0.00000000000E+00  0.00000000000E+00  0.12586604709E+01  0.12586604709E+01  0.00000000000E+00 0. -1.
         13   -1    0    0    0    0 -0.00000000000E+00 -0.00000000000E+00 -0.10000000000E+04  0.10000000000E+04  0.00000000000E+00 0.  1.
    9000005    2    1    2  501    0 -0.18119942203E+02  0.27691495849E+02 -0.32659077725E+03  0.32829392913E+03  0.44963179749E+01 0.  0.
         13    1    3    3    0    0 -0.44895534684E+00  0.75044479667E+00 -0.19045181991E+02  0.19065248107E+02  0.00000000000E+00 0.  1.
          1    1    3    3  501    0 -0.17670986856E+02  0.26941051052E+02 -0.30754559525E+03  0.30922868103E+03  0.00000000000E+00 0.  1.
         -1    1    1    2    0  502  0.18119942203E+02 -0.27691495849E+02 -0.67215056228E+03  0.67296473134E+03  0.00000000000E+00 0. -1.
<mgrwt>
<rscale>  1 0.30000000E+03</rscale>
<asrwt>0</asrwt>
<pdfrwt beam="1">  1       21 0.45769568E-02 0.30000000E+03</pdfrwt>
<pdfrwt beam="2">0</pdfrwt>
<totfact> 0.33480205E+04</totfact>
</mgrwt>
</event>
<event>
 6    1  0.8397183E-002  0.3000000E+03  0.7818608E-02  0.1093470E+00
         21   -1    0    0  501  502  0.00000000000E+00  0.00000000000E+00  0.11971524218E+01  0.11971524218E+01  0.00000000000E+00 0. -1.
         13   -1    0    0    0    0 -0.00000000000E+00 -0.00000000000E+00 -0.10000000000E+04  0.10000000000E+04  0.00000000000E+00 0.  1.
    9000005    2    1    2  501    0  0.19248926990E+02 -0.28261274221E+02 -0.52044477690E+03  0.52161852008E+03  0.73412453064E+01 0.  0.
         13    1    3    3    0    0  0.64342519671E+01 -0.44458319005E+01 -0.13473894748E+03  0.13496573264E+03  0.00000000000E+00 0.  1.
          3    1    3    3  501    0  0.12814675023E+02 -0.23815442320E+02 -0.38570582942E+03  0.38665278744E+03  0.00000000000E+00 0.  1.
         -1    1    1    2    0  502 -0.19248926990E+02  0.28261274221E+02 -0.47835807068E+03  0.47957863234E+03  0.00000000000E+00 0. -1.
<mgrwt>
<rscale>  1 0.30000000E+03</rscale>
<asrwt>0</asrwt>
<pdfrwt beam="1">  1       21 0.43532907E-02 0.30000000E+03</pdfrwt>
<pdfrwt beam="2">0</pdfrwt>
<totfact> 0.36449191E+04</totfact>
</mgrwt>
</event>
<event>
 6    1  0.8397183E-002  0.3000000E+03  0.7818608E-02  0.1093470E+00
         21   -1    0    0  501  502  0.00000000000E+00  0.00000000000E+00  0.13630272933E+01  0.13630272933E+01  0.00000000000E+00 0. -1.
         13   -1    0    0    0    0 -0.00000000000E+00 -0.00000000000E+00 -0.10000000000E+04  0.10000000000E+04  0.00000000000E+00 0.  1.
    9000005    2    1    2  501    0 -0.35609998838E+02 -0.87268640858E+01 -0.49382571653E+03  0.49522210370E+03  0.60715329098E+01 0.  0.
         13    1    3    3    0    0 -0.34933551035E+02 -0.90495742707E+01 -0.46948340526E+03  0.47086825716E+03  0.00000000000E+00 0.  1.
          1    1    3    3  501    0 -0.67644780241E+00  0.32271018485E+00 -0.24342311269E+02  0.24353846542E+02  0.00000000000E+00 0.  1.
         -1    1    1    2    0  502  0.35609998838E+02  0.87268640858E+01 -0.50481125618E+03  0.50614092359E+03  0.00000000000E+00 0. -1.
<mgrwt>
<rscale>  1 0.30000000E+03</rscale>
<asrwt>0</asrwt>
<pdfrwt beam="1">  1       21 0.49564733E-02 0.30000000E+03</pdfrwt>
<pdfrwt beam="2">0</pdfrwt>
<totfact> 0.29237116E+04</totfact>
</mgrwt>
</event>
<event>
 6    1  0.8397183E-002  0.3000000E+03  0.7818608E-02  0.1093470E+00
         21   -1    0    0  501  502  0.00000000000E+00  0.00000000000E+00  0.29091273362E+01  0.29091273362E+01  0.00000000000E+00 0. -1.
         13   -1    0    0    0    0 -0.00000000000E+00 -0.00000000000E+00 -0.10000000000E+04  0.10000000000E+04  0.00000000000E+00 0.  1.
    9000005    2    1    2  501    0 -0.48924343518E+02  0.20613274028E+02 -0.41947019464E+03  0.42285383158E+03  0.56231872769E+01 0.  0.
         13    1    3    3    0    0 -0.43439662300E+02  0.18441366526E+02 -0.38513972381E+03  0.38802022514E+03  0.00000000000E+00 0.  1.
          3    1    3    3  501    0 -0.54846812188E+01  0.21719075011E+01 -0.34330470828E+02  0.34833606439E+02  0.00000000000E+00 0.  1.
         -1    1    1    2    0  502  0.48924343518E+02 -0.20613274028E+02 -0.57762067802E+03  0.58005529575E+03  0.00000000000E+00 0. -1.
<mgrwt>
<rscale>  1 0.30000000E+03</rscale>
<asrwt>0</asrwt>
<pdfrwt beam="1">  1       21 0.10578667E-01 0.30000000E+03</pdfrwt>
<pdfrwt beam="2">0</pdfrwt>
<totfact> 0.77790568E+03</totfact>
</mgrwt>
</event>
<event>
 6    1  0.8397183E-002  0.3000000E+03  0.7818608E-02  0.1093470E+00
         21   -1    0    0  501  502  0.00000000000E+00  0.00000000000E+00  0.31078211251E+01  0.31078211251E+01  0.00000000000E+00 0. -1.
         13   -1    0    0    0    0 -0.00000000000E+00 -0.00000000000E+00 -0.10000000000E+04  0.10000000000E+04  0.00000000000E+00 0.  1.
    9000005    2    1    2  501    0 -0.38532547334E+02 -0.25049169828E+02 -0.21526666969E+03  0.22013230764E+03  0.25051293528E+01 0.  0.
         13    1    3    3    0    0 -0.37876232400E+02 -0.24746416642E+02 -0.21017489603E+03  0.21498949053E+03  0.00000000000E+00 0.  1.
          1    1    3    3  501    0 -0.65631493413E+00 -0.30275318556E+00 -0.50917736612E+01  0.51428171074E+01  0.00000000000E+00 0.  1.
         -3    1    1    2    0  502  0.38532547334E+02  0.25049169828E+02 -0.78162550918E+03  0.78297551349E+03  0.00000000000E+00 0. -1.
<mgrwt>
<rscale>  1 0.30000000E+03</rscale>
<asrwt>0</asrwt>
<pdfrwt beam="1">  1       21 0.11301192E-01 0.30000000E+03</pdfrwt>
<pdfrwt beam="2">0</pdfrwt>
<totfact> 0.69076019E+03</totfact>
</mgrwt>
</event>
<event>
 6    1  0.8397183E-002  0.3000000E+03  0.7818608E-02  0.1093470E+00
         21   -1    0    0  501  502  0.00000000000E+00  0.00000000000E+00  0.41098227647E+01  0.41098227647E+01  0.00000000000E+00 0. -1.
         13   -1    0    0    0    0 -0.00000000000E+00 -0.00000000000E+00 -0.10000000000E+04  0.10000000000E+04  0.00000000000E+00 0.  1.
    9000005    2    1    2  501    0  0.32270217391E+02 -0.54956809594E+02 -0.44797830653E+03  0.45250395268E+03  0.36940789141E+01 0.  0.
         13    1    3    3    0    0  0.26763966890E+02 -0.45183874925E+02 -0.35877361122E+03  0.36259674100E+03  0.00000000000E+00 0.  1.
          3    1    3    3  501    0  0.55062505009E+01 -0.97729346690E+01 -0.89204695315E+02  0.89907211685E+02  0.00000000000E+00 0.  1.
         -1    1    1    2    0  502 -0.32270217391E+02  0.54956809594E+02 -0.54791187070E+03  0.55160587008E+03  0.00000000000E+00 0. -1.
<mgrwt>
<rscale>  1 0.30000000E+03</rscale>
<asrwt>0</asrwt>
<pdfrwt beam="1">  1       21 0.14944842E-01 0.30000000E+03</pdfrwt>
<pdfrwt beam="2">0</pdfrwt>
<totfact> 0.41462054E+03</totfact>
</mgrwt>
</event>
<event>
 6    1  0.8397183E-002  0.3000000E+03  0.7818608E-02  0.1093470E+00
         21   -1    0    0  501  502  0.00000000000E+00  0.00000000000E+00  0.15130300588E+01  0.15130300588E+01  0.00000000000E+00 0. -1.
         13   -1    0    0    0    0 -0.00000000000E+00 -0.00000000000E+00 -0.10000000000E+04  0.10000000000E+04  0.00000000000E+00 0.  1.
    9000005    2    1    2  501    0 -0.31244689303E+02  0.33976209497E+01 -0.79332547563E+03  0.79395818626E+03  0.40640868892E+01 0.  0.
         13    1    3    3    0    0 -0.21273722201E+02  0.38180755997E+01 -0.51295009207E+03  0.51340524531E+03  0.00000000000E+00 0.  1.
          1    1    3    3  501    0 -0.99709671027E+01 -0.42045465003E+00 -0.28037538356E+03  0.28055294095E+03  0.00000000000E+00 0.  1.
         -3    1    1    2    0  502  0.31244689303E+02 -0.33976209497E+01 -0.20516149431E+03  0.20755484380E+03  0.00000000000E+00 0. -1.
<mgrwt>
<rscale>  1 0.30000000E+03</rscale>
<asrwt>0</asrwt>
<pdfrwt beam="1">  1       21 0.55019391E-02 0.30000000E+03</pdfrwt>
<pdfrwt beam="2">0</pdfrwt>
<totfact> 0.24459361E+04</totfact>
</mgrwt>
</event>
<event>
 6    1  0.8397183E-002  0.3000000E+03  0.7818608E-02  0.1093470E+00
         21   -1    0    0  501  502  0.00000000000E+00  0.00000000000E+00  0.95167695776E+01  0.95167695776E+01  0.00000000000E+00 0. -1.
         13   -1    0    0    0    0 -0.00000000000E+00 -0.00000000000E+00 -0.10000000000E+04  0.10000000000E+04  0.00000000000E+00 0.  1.
    9000005    2    1    2  501    0 -0.69840576160E+02  0.65842699640E+02 -0.58489329997E+03  0.59272406468E+03  0.29457295384E+01 0.  0.
         13    1    3    3    0    0 -0.29013292141E+02  0.25394735088E+02 -0.23338913094E+03  0.23655263712E+03  0.00000000000E+00 0.  1.
          1    1    3    3  501    0 -0.40827284019E+02  0.40447964553E+02 -0.35150416903E+03  0.35617142755E+03  0.00000000000E+00 0.  1.
         -1    1    1    2    0  502  0.69840576160E+02 -0.65842699640E+02 -0.40558993045E+03  0.41679270490E+03  0.00000000000E+00 0. -1.
<mgrwt>
<rscale>  1 0.30000000E+03</rscale>
<asrwt>0</asrwt>
<pdfrwt beam="1">  1       21 0.34606508E-01 0.30000000E+03</pdfrwt>
<pdfrwt beam="2">0</pdfrwt>
<totfact> 0.81440032E+02</totfact>
</mgrwt>
</event>
<event>
 6    1  0.8397183E-002  0.3000000E+03  0.7818608E-02  0.1093470E+00
         21   -1    0    0  501  502  0.00000000000E+00  0.00000000000E+00  0.91076485520E+00  0.91076485520E+00  0.00000000000E+00 0. -1.
         13   -1    0    0    0    0 -0.00000000000E+00 -0.00000000000E+00 -0.10000000000E+04  0.10000000000E+04  0.00000000000E+00 0.  1.
    9000005    2    1    2  501    0 -0.28703198884E+02  0.88516024870E+01 -0.49016167883E+03  0.49109758136E+03  0.40172786547E+01 0.  0.
         13    1    3    3    0    0 -0.20457442917E+02  0.60016814165E+01 -0.37528709275E+03  0.37589217754E+03  0.00000000000E+00 0.  1.
          1    1    3    3  501    0 -0.82457559664E+01  0.28499210704E+01 -0.11487458608E+03  0.11520540382E+03  0.00000000000E+00 0.  1.
         -3    1    1    2    0  502  0.28703198884E+02 -0.88516024870E+01 -0.50892755631E+03  0.50981318350E+03  0.00000000000E+00 0. -1.
<mgrwt>
<rscale>  1 0.30000000E+03</rscale>
<asrwt>0</asrwt>
<pdfrwt beam="1">  1       21 0.33118792E-02 0.30000000E+03</pdfrwt>
<pdfrwt beam="2">0</pdfrwt>
<totfact> 0.57706567E+04</totfact>
</mgrwt>
</event>
<event>
 6    1  0.8397183E-002  0.3000000E+03  0.7818608E-02  0.1093470E+00
         21   -1    0    0  501  502  0.00000000000E+00  0.00000000000E+00  0.25051922424E+01  0.25051922424E+01  0.00000000000E+00 0. -1.
         13   -1    0    0    0    0 -0.00000000000E+00 -0.00000000000E+00 -0.10000000000E+04  0.10000000000E+04  0.00000000000E+00 0.  1.
    9000005    2    1    2  501    0  0.34507891450E+02  0.26958833549E+01 -0.13796427717E+03  0.14227801564E+03  0.32908356126E+01 0.  0.
         13    1    3    3    0    0  0.30636354410E+02  0.25343026996E+01 -0.12628440672E+03  0.12997215195E+03  0.00000000000E+00 0.  1.
          3    1    3    3  501    0  0.38715370393E+01  0.16158065530E+00 -0.11679870450E+02  0.12305863687E+02  0.00000000000E+00 0.  1.
         -3    1    1    2    0  502 -0.34507891450E+02 -0.26958833549E+01 -0.85953053059E+03  0.86022717661E+03  0.00000000000E+00 0. -1.
<mgrwt>
<rscale>  1 0.30000000E+03</rscale>
<asrwt>0</asrwt>
<pdfrwt beam="1">  1       21 0.91098092E-02 0.30000000E+03</pdfrwt>
<pdfrwt beam="2">0</pdfrwt>
<totfact> 0.10157369E+04</totfact>
</mgrwt>
</event>
<event>
 6    1  0.8397183E-002  0.3000000E+03  0.7818608E-02  0.1093470E+00
         21   -1    0    0  501  502  0.00000000000E+00  0.00000000000E+00  0.14372009118E+01  0.14372009118E+01  0.00000000000E+00 0. -1.
         13   -1    0    0    0    0 -0.00000000000E+00 -0.00000000000E+00 -0.10000000000E+04  0.10000000000E+04  0.00000000000E+00 0.  1.
    9000005    2    1    2  501    0  0.11006798433E+02  0.35544359589E+02 -0.59172647997E+03  0.59290281844E+03  0.29956472948E+01 0.  0.
         13    1    3    3    0    0  0.63620553289E+01  0.23601045268E+02 -0.37039504863E+03  0.37120072351E+03  0.00000000000E+00 0.  1.
          1    1    3    3  501    0  0.46447431037E+01  0.11943314321E+02 -0.22133143134E+03  0.22170209492E+03  0.00000000000E+00 0.  1.
         -1    1    1    2    0  502 -0.11006798433E+02 -0.35544359589E+02 -0.40683631912E+03  0.40853438248E+03  0.00000000000E+00 0. -1.
<mgrwt>
<rscale>  1 0.30000000E+03</rscale>
<asrwt>0</asrwt>
<pdfrwt beam="1">  1       21 0.52261962E-02 0.30000000E+03</pdfrwt>
<pdfrwt beam="2">0</pdfrwt>
<totfact> 0.26709573E+04</totfact>
</mgrwt>
</event>
<event>
 6    1  0.8397183E-002  0.3000000E+03  0.7818608E-02  0.1093470E+00
         21   -1    0    0  501  502  0.00000000000E+00  0.00000000000E+00  0.11561805513E+01  0.11561805513E+01  0.00000000000E+00 0. -1.
         13   -1    0    0    0    0 -0.00000000000E+00 -0.00000000000E+00 -0.10000000000E+04  0.10000000000E+04  0.00000000000E+00 0.  1.
    9000005    2    1    2  501    0 -0.16179712266E+02  0.26606084117E+02 -0.32273164728E+03  0.32432729808E+03  0.79254853951E+01 0.  0.
         13    1    3    3    0    0 -0.80543026743E-01  0.67730012029E+00 -0.14854633001E+01  0.16345714570E+01  0.00000000000E+00 0.  1.
          3    1    3    3  501    0 -0.16099169240E+02  0.25928783997E+02 -0.32124618398E+03  0.32269272662E+03  0.00000000000E+00 0.  1.
         -1    1    1    2    0  502  0.16179712266E+02 -0.26606084117E+02 -0.67611217217E+03  0.67682888248E+03  0.00000000000E+00 0. -1.
<mgrwt>
<rscale>  1 0.30000000E+03</rscale>
<asrwt>0</asrwt>
<pdfrwt beam="1">  1       21 0.42043018E-02 0.30000000E+03</pdfrwt>
<pdfrwt beam="2">0</pdfrwt>
<totfact> 0.38659568E+04</totfact>
</mgrwt>
</event>
<event>
 6    1  0.8397183E-002  0.3000000E+03  0.7818608E-02  0.1093470E+00
         21   -1    0    0  501  502  0.00000000000E+00  0.00000000000E+00  0.15002595116E+01  0.15002595116E+01  0.00000000000E+00 0. -1.
         13   -1    0    0    0    0 -0.00000000000E+00 -0.00000000000E+00 -0.10000000000E+04  0.10000000000E+04  0.00000000000E+00 0.  1.
    9000005    2    1    2  501    0  0.34915754023E+02  0.88768181793E+01 -0.31919173045E+03  0.32123760415E+03  0.35113745316E+01 0.  0.
         13    1    3    3    0    0  0.45381912456E+01  0.25599129016E+00 -0.47514874114E+02  0.47731792062E+02  0.00000000000E+00 0.  1.
          3    1    3    3  501    0  0.30377562777E+02  0.86208268892E+01 -0.27167685633E+03  0.27350581209E+03  0.00000000000E+00 0.  1.
         -1    1    1    2    0  502 -0.34915754023E+02 -0.88768181793E+01 -0.67930801004E+03  0.68026265536E+03  0.00000000000E+00 0. -1.
<mgrwt>
<rscale>  1 0.30000000E+03</rscale>
<asrwt>0</asrwt>
<pdfrwt beam="1">  1       21 0.54555006E-02 0.30000000E+03</pdfrwt>
<pdfrwt beam="2">0</pdfrwt>
<totfact> 0.24817345E+04</totfact>
</mgrwt>
</event>
<event>
 6    1  0.8397183E-002  0.3000000E+03  0.7818608E-02  0.1093470E+00
         21   -1    0    0  501  502  0.00000000000E+00  0.00000000000E+00  0.13289169971E+01  0.13289169971E+01  0.00000000000E+00 0. -1.
         13   -1    0    0    0    0 -0.00000000000E+00 -0.00000000000E+00 -0.10000000000E+04  0.10000000000E+04  0.00000000000E+00 0.  1.
    9000005    2    1    2  501    0  0.13346119531E+02  0.31761566694E+02 -0.33950498980E+03  0.34126312145E+03  0.31565702817E+01 0.  0.
         13    1    3    3    0    0  0.33499060019E+01  0.95088578261E+01 -0.86866618509E+02  0.87449697876E+02  0.00000000000E+00 0.  1.
          1    1    3    3  501    0  0.99962135293E+01  0.22252708868E+02 -0.25263837129E+03  0.25381342357E+03  0.00000000000E+00 0.  1.
         -3    1    1    2    0  502 -0.13346119531E+02 -0.31761566694E+02 -0.65916609320E+03  0.66006579555E+03  0.00000000000E+00 0. -1.
<mgrwt>
<rscale>  1 0.30000000E+03</rscale>
<asrwt>0</asrwt>
<pdfrwt beam="1">  1       21 0.48324356E-02 0.30000000E+03</pdfrwt>
<pdfrwt beam="2">0</pdfrwt>
<totfact> 0.30526652E+04</totfact>
</mgrwt>
</event>
<event>
 6    1  0.8397183E-002  0.3000000E+03  0.7818608E-02  0.1093470E+00
         21   -1    0    0  501  502  0.00000000000E+00  0.00000000000E+00  0.11425733802E+01  0.11425733802E+01  0.00000000000E+00 0. -1.
         13   -1    0    0    0    0 -0.00000000000E+00 -0.00000000000E+00 -0.10000000000E+04  0.10000000000E+04  0.00000000000E+00 0.  1.
    9000005    2    1    2  501    0 -0.51495100398E+01  0.33284509470E+02 -0.52699987511E+03  0.52808451675E+03  0.31642443918E+01 0.  0.
         13    1    3    3    0    0 -0.47937054314E+01  0.32781204802E+02 -0.51104439225E+03  0.51211713294E+03  0.00000000000E+00 0.  1.
          3    1    3    3  501    0 -0.35580460838E+00  0.50330466780E+00 -0.15955482853E+02  0.15967383805E+02  0.00000000000E+00 0.  1.
         -3    1    1    2    0  502  0.51495100398E+01 -0.33284509470E+02 -0.47185755151E+03  0.47305805663E+03  0.00000000000E+00 0. -1.
<mgrwt>
<rscale>  1 0.30000000E+03</rscale>
<asrwt>0</asrwt>
<pdfrwt beam="1">  1       21 0.41548211E-02 0.30000000E+03</pdfrwt>
<pdfrwt beam="2">0</pdfrwt>
<totfact> 0.39439976E+04</totfact>
</mgrwt>
</event>
<event>
 6    1  0.8397183E-002  0.3000000E+03  0.7818608E-02  0.1093470E+00
         21   -1    0    0  501  502  0.00000000000E+00  0.00000000000E+00  0.10590145078E+02  0.10590145078E+02  0.00000000000E+00 0. -1.
         13   -1    0    0    0    0 -0.00000000000E+00 -0.00000000000E+00 -0.10000000000E+04  0.10000000000E+04  0.00000000000E+00 0.  1.
    9000005    2    1    2  501    0  0.30345653677E+02 -0.50671123508E+02 -0.81624143361E+02  0.10088507223E+03  0.51841647838E+01 0.  0.
         13    1    3    3    0    0  0.27900273206E+02 -0.46026117391E+02 -0.76604222918E+02  0.93621769348E+02  0.00000000000E+00 0.  1.
          1    1    3    3  501    0  0.24453804708E+01 -0.46450061171E+01 -0.50199204429E+01  0.72633028801E+01  0.00000000000E+00 0.  1.
         -1    1    1    2    0  502 -0.30345653677E+02  0.50671123508E+02 -0.90778571156E+03  0.90970507285E+03  0.00000000000E+00 0. -1.
<mgrwt>
<rscale>  1 0.30000000E+03</rscale>
<asrwt>0</asrwt>
<pdfrwt beam="1">  1       21 0.38509700E-01 0.30000000E+03</pdfrwt>
<pdfrwt beam="2">0</pdfrwt>
<totfact> 0.65367044E+02</totfact>
</mgrwt>
</event>
<event>
 6    1  0.8397183E-002  0.3000000E+03  0.7818608E-02  0.1093470E+00
         21   -1    0    0  501  502  0.00000000000E+00  0.00000000000E+00  0.10253727996E+01  0.10253727996E+01  0.00000000000E+00 0. -1.
         13   -1    0    0    0    0 -0.00000000000E+00 -0.00000000000E+00 -0.10000000000E+04  0.10000000000E+04  0.00000000000E+00 0.  1.
    9000005    2    1    2  501    0 -0.29025519106E+02 -0.12393716906E+02 -0.42453069802E+03  0.42571509760E+03  0.33084414811E+01 0.  0.
         13    1    3    3    0    0 -0.52698191714E+01 -0.31084204104E+01 -0.69037748914E+02  0.69308325955E+02  0.00000000000E+00 0.  1.
          1    1    3    3  501    0 -0.23755699935E+02 -0.92852964956E+01 -0.35549294911E+03  0.35640677165E+03  0.00000000000E+00 0.  1.
         -3    1    1    2    0  502  0.29025519106E+02  0.12393716906E+02 -0.57444392918E+03  0.57531027520E+03  0.00000000000E+00 0. -1.
<mgrwt>
<rscale>  1 0.30000000E+03</rscale>
<asrwt>0</asrwt>
<pdfrwt beam="1">  1       21 0.37286362E-02 0.30000000E+03</pdfrwt>
<pdfrwt beam="2">0</pdfrwt>
<totfact> 0.47319044E+04</totfact>
</mgrwt>
</event>
<event>
 6    1  0.8397183E-002  0.3000000E+03  0.7818608E-02  0.1093470E+00
         21   -1    0    0  501  502  0.00000000000E+00  0.00000000000E+00  0.22410638103E+01  0.22410638103E+01  0.00000000000E+00 0. -1.
         13   -1    0    0    0    0 -0.00000000000E+00 -0.00000000000E+00 -0.10000000000E+04  0.10000000000E+04  0.00000000000E+00 0.  1.
    9000005    2    1    2  501    0 -0.12774627819E+02 -0.30095643890E+02 -0.86110186734E+03  0.86172738703E+03  0.29537629901E+01 0.  0.
         13    1    3    3    0    0 -0.39916467187E+01 -0.10050918758E+02 -0.25004444760E+03  0.25027820518E+03  0.00000000000E+00 0.  1.
          1    1    3    3  501    0 -0.87829811005E+01 -0.20044725132E+02 -0.61105741974E+03  0.61144918185E+03  0.00000000000E+00 0.  1.
         -1    1    1    2    0  502  0.12774627819E+02  0.30095643890E+02 -0.13665706885E+03  0.14051367679E+03  0.00000000000E+00 0. -1.
<mgrwt>
<rscale>  1 0.30000000E+03</rscale>
<asrwt>0</asrwt>
<pdfrwt beam="1">  1       21 0.81493401E-02 0.30000000E+03</pdfrwt>
<pdfrwt beam="2">0</pdfrwt>
<totfact> 0.12365342E+04</totfact>
</mgrwt>
</event>
<event>
 6    1  0.8397183E-002  0.3000000E+03  0.7818608E-02  0.1093470E+00
         21   -1    0    0  501  502  0.00000000000E+00  0.00000000000E+00  0.38044862513E+01  0.38044862513E+01  0.00000000000E+00 0. -1.
         13   -1    0    0    0    0 -0.00000000000E+00 -0.00000000000E+00 -0.10000000000E+04  0.10000000000E+04  0.00000000000E+00 0.  1.
    9000005    2    1    2  501    0 -0.46797850047E+02 -0.67545542721E+01 -0.82024698965E+03  0.82161352625E+03  0.28283776991E+01 0.  0.
         13    1    3    3    0    0 -0.21795040282E+02 -0.24947769470E+01 -0.40226787696E+03  0.40286560107E+03  0.00000000000E+00 0.  1.
          3    1    3    3  501    0 -0.25002809765E+02 -0.42597773251E+01 -0.41797911269E+03  0.41874792519E+03  0.00000000000E+00 0.  1.
         -3    1    1    2    0  502  0.46797850047E+02  0.67545542721E+01 -0.17594852410E+03  0.18219096000E+03  0.00000000000E+00 0. -1.
<mgrwt>
<rscale>  1 0.30000000E+03</rscale>
<asrwt>0</asrwt>
<pdfrwt beam="1">  1       21 0.13834525E-01 0.30000000E+03</pdfrwt>
<pdfrwt beam="2">0</pdfrwt>
<totfact> 0.47799107E+03</totfact>
</mgrwt>
</event>
<event>
 6    1  0.8397183E-002  0.3000000E+03  0.7818608E-02  0.1093470E+00
         21   -1    0    0  501  502  0.00000000000E+00  0.00000000000E+00  0.13333589474E+01  0.13333589474E+01  0.00000000000E+00 0. -1.
         13   -1    0    0    0    0 -0.00000000000E+00 -0.00000000000E+00 -0.10000000000E+04  0.10000000000E+04  0.00000000000E+00 0.  1.
    9000005    2    1    2  501    0  0.23915354999E+02 -0.25833803585E+02 -0.37053004180E+03  0.37221102034E+03  0.30335086824E+01 0.  0.
         13    1    3    3    0    0  0.12157364746E+02 -0.11105254123E+02 -0.16618727263E+03  0.16700101129E+03  0.00000000000E+00 0.  1.
          3    1    3    3  501    0  0.11757990253E+02 -0.14728549462E+02 -0.20434276917E+03  0.20521000905E+03  0.00000000000E+00 0.  1.
         -1    1    1    2    0  502 -0.23915354999E+02  0.25833803585E+02 -0.62813659925E+03  0.62912233861E+03  0.00000000000E+00 0. -1.
<mgrwt>
<rscale>  1 0.30000000E+03</rscale>
<asrwt>0</asrwt>
<pdfrwt beam="1">  1       21 0.48485882E-02 0.30000000E+03</pdfrwt>
<pdfrwt beam="2">0</pdfrwt>
<totfact> 0.30353747E+04</totfact>
</mgrwt>
</event>
<event>
 6    1  0.8397183E-002  0.3000000E+03  0.7818608E-02  0.1093470E+00
         21   -1    0    0  501  502  0.00000000000E+00  0.00000000000E+00  0.98803504099E+00  0.98803504099E+00  0.00000000000E+00 0. -1.
         13   -1    0    0    0    0 -0.00000000000E+00 -0.00000000000E+00 -0.10000000000E+04  0.10000000000E+04  0.00000000000E+00 0.  1.
    9000005    2    1    2  501    0  0.12111994328E+02  0.28715340213E+02 -0.55055315077E+03  0.55144762619E+03  0.38001885053E+01 0.  0.
         13    1    3    3    0    0  0.88257353552E+00  0.58709955075E+01 -0.10073478394E+03  0.10090958438E+03  0.00000000000E+00 0.  1.
          3    1    3    3  501    0  0.11229420792E+02  0.22844344706E+02 -0.44981836684E+03  0.45053804181E+03  0.00000000000E+00 0.  1.
         -3    1    1    2    0  502 -0.12111994328E+02 -0.28715340213E+02 -0.44845881418E+03  0.44954040885E+03  0.00000000000E+00 0. -1.
<mgrwt>
<rscale>  1 0.30000000E+03</rscale>
<asrwt>0</asrwt>
<pdfrwt beam="1">  1       21 0.35928623E-02 0.30000000E+03</pdfrwt>
<pdfrwt beam="2">0</pdfrwt>
<totfact> 0.50357628E+04</totfact>
</mgrwt>
</event>
<event>
 6    1  0.8397183E-002  0.3000000E+03  0.7818608E-02  0.1093470E+00
         21   -1    0    0  501  502  0.00000000000E+00  0.00000000000E+00  0.11205116838E+01  0.11205116838E+01  0.00000000000E+00 0. -1.
         13   -1    0    0    0    0 -0.00000000000E+00 -0.00000000000E+00 -0.10000000000E+04  0.10000000000E+04  0.00000000000E+00 0.  1.
    9000005    2    1    2  501    0  0.32697444444E+02  0.56338097556E+01 -0.55924847414E+03  0.56023924500E+03  0.28797789583E+01 0.  0.
         13    1    3    3    0    0  0.12718002192E+02  0.11631576283E+01 -0.19880038812E+03  0.19921017753E+03  0.00000000000E+00 0.  1.
          3    1    3    3  501    0  0.19979442252E+02  0.44706521273E+01 -0.36044808602E+03  0.36102906747E+03  0.00000000000E+00 0.  1.
         -1    1    1    2    0  502 -0.32697444444E+02 -0.56338097556E+01 -0.43963101418E+03  0.44088126668E+03  0.00000000000E+00 0. -1.
<mgrwt>
<rscale>  1 0.30000000E+03</rscale>
<asrwt>0</asrwt>
<pdfrwt beam="1">  1       21 0.40745965E-02 0.30000000E+03</pdfrwt>
<pdfrwt beam="2">0</pdfrwt>
<totfact> 0.40758498E+04</totfact>
</mgrwt>
</event>
<event>
 6    1  0.8397183E-002  0.3000000E+03  0.7818608E-02  0.1093470E+00
         21   -1    0    0  501  502  0.00000000000E+00  0.00000000000E+00  0.98855221699E+00  0.98855221699E+00  0.00000000000E+00 0. -1.
         13   -1    0    0    0    0 -0.00000000000E+00 -0.00000000000E+00 -0.10000000000E+04  0.10000000000E+04  0.00000000000E+00 0.  1.
    9000005    2    1    2  501    0  0.29229854804E+02  0.94893254225E+01 -0.50581339663E+03  0.50683397177E+03  0.94366852146E+01 0.  0.
         13    1    3    3    0    0  0.43677866976E+00  0.18471700375E+01 -0.15385344897E+02  0.15501988594E+02  0.00000000000E+00 0.  1.
          3    1    3    3  501    0  0.28793076135E+02  0.76421553850E+01 -0.49042805173E+03  0.49133198318E+03  0.00000000000E+00 0.  1.
         -1    1    1    2    0  502 -0.29229854804E+02 -0.94893254225E+01 -0.49319805115E+03  0.49415458044E+03  0.00000000000E+00 0. -1.
<mgrwt>
<rscale>  1 0.30000000E+03</rscale>
<asrwt>0</asrwt>
<pdfrwt beam="1">  1       21 0.35947429E-02 0.30000000E+03</pdfrwt>
<pdfrwt beam="2">0</pdfrwt>
<totfact> 0.50313458E+04</totfact>
</mgrwt>
</event>
<event>
 6    1  0.8397183E-002  0.3000000E+03  0.7818608E-02  0.1093470E+00
         21   -1    0    0  501  502  0.00000000000E+00  0.00000000000E+00  0.96161949975E+00  0.96161949975E+00  0.00000000000E+00 0. -1.
         13   -1    0    0    0    0 -0.00000000000E+00 -0.00000000000E+00 -0.10000000000E+04  0.10000000000E+04  0.00000000000E+00 0.  1.
    9000005    2    1    2  501    0  0.25033367804E+02  0.17821790779E+02 -0.55750518489E+03  0.55836038977E+03  0.31635356289E+01 0.  0.
         13    1    3    3    0    0  0.20750745389E+02  0.13412826367E+02 -0.45694542584E+03  0.45761295823E+03  0.00000000000E+00 0.  1.
          3    1    3    3  501    0  0.42826224145E+01  0.44089644114E+01 -0.10055975905E+03  0.10074743154E+03  0.00000000000E+00 0.  1.
         -3    1    1    2    0  502 -0.25033367804E+02 -0.17821790779E+02 -0.44153319561E+03  0.44260122973E+03  0.00000000000E+00 0. -1.
<mgrwt>
<rscale>  1 0.30000000E+03</rscale>
<asrwt>0</asrwt>
<pdfrwt beam="1">  1       21 0.34968056E-02 0.30000000E+03</pdfrwt>
<pdfrwt beam="2">0</pdfrwt>
<totfact> 0.52697316E+04</totfact>
</mgrwt>
</event>
<event>
 6    1  0.8397183E-002  0.3000000E+03  0.7818608E-02  0.1093470E+00
         21   -1    0    0  501  502  0.00000000000E+00  0.00000000000E+00  0.60625123463E+01  0.60625123463E+01  0.00000000000E+00 0. -1.
         13   -1    0    0    0    0 -0.00000000000E+00 -0.00000000000E+00 -0.10000000000E+04  0.10000000000E+04  0.00000000000E+00 0.  1.
    9000005    2    1    2  501    0 -0.70751695398E+02  0.27180040752E+02 -0.61168823723E+03  0.61637154958E+03  0.26135304697E+01 0.  0.
         13    1    3    3    0    0 -0.51039073301E+02  0.18359057381E+02 -0.43600937902E+03  0.43937025455E+03  0.00000000000E+00 0.  1.
          3    1    3    3  501    0 -0.19712622097E+02  0.88209833701E+01 -0.17567885821E+03  0.17700129503E+03  0.00000000000E+00 0.  1.
         -3    1    1    2    0  502  0.70751695398E+02 -0.27180040752E+02 -0.38224925042E+03  0.38969096277E+03  0.00000000000E+00 0. -1.
<mgrwt>
<rscale>  1 0.30000000E+03</rscale>
<asrwt>0</asrwt>
<pdfrwt beam="1">  1       21 0.22045546E-01 0.30000000E+03</pdfrwt>
<pdfrwt beam="2">0</pdfrwt>
<totfact> 0.19906499E+03</totfact>
</mgrwt>
</event>
<event>
 6    1  0.8397183E-002  0.3000000E+03  0.7818608E-02  0.1093470E+00
         21   -1    0    0  501  502  0.00000000000E+00  0.00000000000E+00  0.99881655224E+00  0.99881655224E+00  0.00000000000E+00 0. -1.
         13   -1    0    0    0    0 -0.00000000000E+00 -0.00000000000E+00 -0.10000000000E+04  0.10000000000E+04  0.00000000000E+00 0.  1.
    9000005    2    1    2  501    0  0.59579887704E+01 -0.30588267577E+02 -0.57526594901E+03  0.57611919990E+03  0.33586690954E+01 0.  0.
         13    1    3    3    0    0  0.17484457409E+01 -0.38308084175E+01 -0.88690020933E+02  0.88789931686E+02  0.00000000000E+00 0.  1.
          1    1    3    3  501    0  0.42095430296E+01 -0.26757459160E+02 -0.48657592807E+03  0.48732926821E+03  0.00000000000E+00 0.  1.
         -1    1    1    2    0  502 -0.59579887704E+01  0.30588267577E+02 -0.42373523444E+03  0.42487961666E+03  0.00000000000E+00 0. -1.
<mgrwt>
<rscale>  1 0.30000000E+03</rscale>
<asrwt>0</asrwt>
<pdfrwt beam="1">  1       21 0.36320678E-02 0.30000000E+03</pdfrwt>
<pdfrwt beam="2">0</pdfrwt>
<totfact> 0.49449317E+04</totfact>
</mgrwt>
</event>
<event>
 6    1  0.8397183E-002  0.3000000E+03  0.7818608E-02  0.1093470E+00
         21   -1    0    0  501  502  0.00000000000E+00  0.00000000000E+00  0.15766953957E+01  0.15766953957E+01  0.00000000000E+00 0. -1.
         13   -1    0    0    0    0 -0.00000000000E+00 -0.00000000000E+00 -0.10000000000E+04  0.10000000000E+04  0.00000000000E+00 0.  1.
    9000005    2    1    2  501    0  0.34694285523E+02 -0.15896556764E+01 -0.25902181630E+03  0.26135998297E+03  0.32432890155E+01 0.  0.
         13    1    3    3    0    0  0.19673522092E+02 -0.47306836402E+00 -0.15819313720E+03  0.15941248359E+03  0.00000000000E+00 0.  1.
          1    1    3    3  501    0  0.15020763431E+02 -0.11165873123E+01 -0.10082867910E+03  0.10194749938E+03  0.00000000000E+00 0.  1.
         -3    1    1    2    0  502 -0.34694285523E+02  0.15896556764E+01 -0.73940148830E+03  0.74021671243E+03  0.00000000000E+00 0. -1.
<mgrwt>
<rscale>  1 0.30000000E+03</rscale>
<asrwt>0</asrwt>
<pdfrwt beam="1">  1       21 0.57334499E-02 0.30000000E+03</pdfrwt>
<pdfrwt beam="2">0</pdfrwt>
<totfact> 0.22787768E+04</totfact>
</mgrwt>
</event>
<event>
 6    1  0.8397183E-002  0.3000000E+03  0.7818608E-02  0.1093470E+00
         21   -1    0    0  501  502  0.00000000000E+00  0.00000000000E+00  0.99950083513E+00  0.99950083513E+00  0.00000000000E+00 0. -1.
         13   -1    0    0    0    0 -0.00000000000E+00 -0.00000000000E+00 -0.10000000000E+04  0.10000000000E+04  0.00000000000E+00 0.  1.
    9000005    2    1    2  501    0  0.20831051925E+02 -0.23481332864E+02 -0.44973123855E+03  0.45083404720E+03  0.28009765226E+01 0.  0.
         13    1    3    3    0    0  0.18723144070E+02 -0.19792550419E+02 -0.38328651263E+03  0.38425362971E+03  0.00000000000E+00 0.  1.
          1    1    3    3  501    0  0.21079078553E+01 -0.36887824450E+01 -0.66444725918E+02  0.66580417494E+02  0.00000000000E+00 0.  1.
         -3    1    1    2    0  502 -0.20831051925E+02  0.23481332864E+02 -0.54926926061E+03  0.55016545363E+03  0.00000000000E+00 0. -1.
<mgrwt>
<rscale>  1 0.30000000E+03</rscale>
<asrwt>0</asrwt>
<pdfrwt beam="1">  1       21 0.36345562E-02 0.30000000E+03</pdfrwt>
<pdfrwt beam="2">0</pdfrwt>
<totfact> 0.49392542E+04</totfact>
</mgrwt>
</event>
<event>
 6    1  0.8397183E-002  0.3000000E+03  0.7818608E-02  0.1093470E+00
         21   -1    0    0  501  502  0.00000000000E+00  0.00000000000E+00  0.39437409835E+01  0.39437409835E+01  0.00000000000E+00 0. -1.
         13   -1    0    0    0    0 -0.00000000000E+00 -0.00000000000E+00 -0.10000000000E+04  0.10000000000E+04  0.00000000000E+00 0.  1.
    9000005    2    1    2  501    0 -0.47298186386E+02 -0.88725049316E+01 -0.17620545686E+03  0.18268179886E+03  0.29046220586E+01 0.  0.
         13    1    3    3    0    0 -0.30092540339E+02 -0.64379943554E+01 -0.10816942839E+03  0.11246170012E+03  0.00000000000E+00 0.  1.
          3    1    3    3  501    0 -0.17205646047E+02 -0.24345105763E+01 -0.68036028472E+02  0.70220098746E+02  0.00000000000E+00 0.  1.
         -3    1    1    2    0  502  0.47298186386E+02  0.88725049316E+01 -0.81985080216E+03  0.82126194212E+03  0.00000000000E+00 0. -1.
<mgrwt>
<rscale>  1 0.30000000E+03</rscale>
<asrwt>0</asrwt>
<pdfrwt beam="1">  1       21 0.14340907E-01 0.30000000E+03</pdfrwt>
<pdfrwt beam="2">0</pdfrwt>
<totfact> 0.44742208E+03</totfact>
</mgrwt>
</event>
<event>
 6    1  0.8397183E-002  0.3000000E+03  0.7818608E-02  0.1093470E+00
         21   -1    0    0  501  502  0.00000000000E+00  0.00000000000E+00  0.10731399823E+01  0.10731399823E+01  0.00000000000E+00 0. -1.
         13   -1    0    0    0    0 -0.00000000000E+00 -0.00000000000E+00 -0.10000000000E+04  0.10000000000E+04  0.00000000000E+00 0.  1.
    9000005    2    1    2  501    0 -0.25654581040E+02 -0.17239147673E+02 -0.34549269584E+03  0.34690836513E+03  0.49864996385E+01 0.  0.
         13    1    3    3    0    0 -0.14604532912E+02 -0.12670666766E+02 -0.21885892846E+03  0.21971133049E+03  0.00000000000E+00 0.  1.
          3    1    3    3  501    0 -0.11050048128E+02 -0.45684809072E+01 -0.12663376738E+03  0.12719703465E+03  0.00000000000E+00 0.  1.
         -3    1    1    2    0  502  0.25654581040E+02  0.17239147673E+02 -0.65343416417E+03  0.65416477485E+03  0.00000000000E+00 0. -1.
<mgrwt>
<rscale>  1 0.30000000E+03</rscale>
<asrwt>0</asrwt>
<pdfrwt beam="1">  1       21 0.39023354E-02 0.30000000E+03</pdfrwt>
<pdfrwt beam="2">0</pdfrwt>
<totfact> 0.43833508E+04</totfact>
</mgrwt>
</event>
<event>
 6    1  0.8397183E-002  0.3000000E+03  0.7818608E-02  0.1093470E+00
         21   -1    0    0  501  502  0.00000000000E+00  0.00000000000E+00  0.16689826244E+01  0.16689826244E+01  0.00000000000E+00 0. -1.
         13   -1    0    0    0    0 -0.00000000000E+00 -0.00000000000E+00 -0.10000000000E+04  0.10000000000E+04  0.00000000000E+00 0.  1.
    9000005    2    1    2  501    0 -0.19365919182E+02  0.27350769633E+02 -0.78515241908E+03  0.78587227691E+03  0.27948176036E+01 0.  0.
         13    1    3    3    0    0 -0.44283343246E+01  0.54405006726E+01 -0.14133909459E+03  0.14151306955E+03  0.00000000000E+00 0.  1.
          1    1    3    3  501    0 -0.14937584858E+02  0.21910268960E+02 -0.64381332449E+03  0.64435920736E+03  0.00000000000E+00 0.  1.
         -3    1    1    2    0  502  0.19365919182E+02 -0.27350769633E+02 -0.21317859830E+03  0.21579670571E+03  0.00000000000E+00 0. -1.
<mgrwt>
<rscale>  1 0.30000000E+03</rscale>
<asrwt>0</asrwt>
<pdfrwt beam="1">  1       21 0.60690405E-02 0.30000000E+03</pdfrwt>
<pdfrwt beam="2">0</pdfrwt>
<totfact> 0.20659866E+04</totfact>
</mgrwt>
</event>
<event>
 6    1  0.8397183E-002  0.3000000E+03  0.7818608E-02  0.1093470E+00
         21   -1    0    0  501  502  0.00000000000E+00  0.00000000000E+00  0.21319848540E+01  0.21319848540E+01  0.00000000000E+00 0. -1.
         13   -1    0    0    0    0 -0.00000000000E+00 -0.00000000000E+00 -0.10000000000E+04  0.10000000000E+04  0.00000000000E+00 0.  1.
    9000005    2    1    2  501    0  0.13679565071E+02 -0.36033693542E+02 -0.77431849740E+03  0.77528414058E+03  0.32871927397E+01 0.  0.
         13    1    3    3    0    0  0.24032607879E+01 -0.45715976618E+01 -0.12371226589E+03  0.12382003028E+03  0.00000000000E+00 0.  1.
          3    1    3    3  501    0  0.11276304283E+02 -0.31462095880E+02 -0.65060623151E+03  0.65146411029E+03  0.00000000000E+00 0.  1.
         -1    1    1    2    0  502 -0.13679565071E+02  0.36033693542E+02 -0.22354951774E+03  0.22684784428E+03  0.00000000000E+00 0. -1.
<mgrwt>
<rscale>  1 0.30000000E+03</rscale>
<asrwt>0</asrwt>
<pdfrwt beam="1">  1       21 0.77526885E-02 0.30000000E+03</pdfrwt>
<pdfrwt beam="2">0</pdfrwt>
<totfact> 0.13497583E+04</totfact>
</mgrwt>
</event>
<event>
 6    1  0.8397183E-002  0.3000000E+03  0.7818608E-02  0.1093470E+00
         21   -1    0    0  501  502  0.00000000000E+00  0.00000000000E+00  0.97020605130E+00  0.97020605130E+00  0.00000000000E+00 0. -1.
         13   -1    0    0    0    0 -0.00000000000E+00 -0.00000000000E+00 -0.10000000000E+04  0.10000000000E+04  0.00000000000E+00 0.  1.
    9000005    2    1    2  501    0 -0.28976905310E+02  0.96528329437E+01 -0.40868914165E+03  0.40983999706E+03  0.30282771793E+01 0.  0.
         13    1    3    3    0    0 -0.21971180102E+02  0.62094831793E+01 -0.31481781123E+03  0.31564464941E+03  0.00000000000E+00 0.  1.
          3    1    3    3  501    0 -0.70057252079E+01  0.34433497644E+01 -0.93871330420E+02  0.94195347646E+02  0.00000000000E+00 0.  1.
         -3    1    1    2    0  502  0.28976905310E+02 -0.96528329437E+01 -0.59034065230E+03  0.59113020899E+03  0.00000000000E+00 0. -1.
<mgrwt>
<rscale>  1 0.30000000E+03</rscale>
<asrwt>0</asrwt>
<pdfrwt beam="1">  1       21 0.35280294E-02 0.30000000E+03</pdfrwt>
<pdfrwt beam="2">0</pdfrwt>
<totfact> 0.51918504E+04</totfact>
</mgrwt>
</event>
<event>
 6    1  0.8397183E-002  0.3000000E+03  0.7818608E-02  0.1093470E+00
         21   -1    0    0  501  502  0.00000000000E+00  0.00000000000E+00  0.10842119510E+01  0.10842119510E+01  0.00000000000E+00 0. -1.
         13   -1    0    0    0    0 -0.00000000000E+00 -0.00000000000E+00 -0.10000000000E+04  0.10000000000E+04  0.00000000000E+00 0.  1.
    9000005    2    1    2  501    0  0.28413322545E+02 -0.14988820790E+02 -0.60366694137E+03  0.60453203071E+03  0.36357122371E+01 0.  0.
         13    1    3    3    0    0  0.14241265288E+02 -0.72536578191E+01 -0.26659639692E+03  0.26707502324E+03  0.00000000000E+00 0.  1.
          1    1    3    3  501    0  0.14172057257E+02 -0.77351629709E+01 -0.33707054445E+03  0.33745700747E+03  0.00000000000E+00 0.  1.
         -1    1    1    2    0  502 -0.28413322545E+02  0.14988820790E+02 -0.39524884667E+03  0.39655218124E+03  0.00000000000E+00 0. -1.
<mgrwt>
<rscale>  1 0.30000000E+03</rscale>
<asrwt>0</asrwt>
<pdfrwt beam="1">  1       21 0.39425972E-02 0.30000000E+03</pdfrwt>
<pdfrwt beam="2">0</pdfrwt>
<totfact> 0.43083028E+04</totfact>
</mgrwt>
</event>
<event>
 6    1  0.8397183E-002  0.3000000E+03  0.7818608E-02  0.1093470E+00
         21   -1    0    0  501  502  0.00000000000E+00  0.00000000000E+00  0.31411537105E+01  0.31411537105E+01  0.00000000000E+00 0. -1.
         13   -1    0    0    0    0 -0.00000000000E+00 -0.00000000000E+00 -0.10000000000E+04  0.10000000000E+04  0.00000000000E+00 0.  1.
    9000005    2    1    2  501    0 -0.48189999990E+02  0.26761615711E+02 -0.41060840797E+03  0.41430498243E+03  0.33005452558E+01 0.  0.
         13    1    3    3    0    0 -0.24339810540E+02  0.14933706380E+02 -0.20431960526E+03  0.20630546056E+03  0.00000000000E+00 0.  1.
          3    1    3    3  501    0 -0.23850189450E+02  0.11827909331E+02 -0.20628880271E+03  0.20799952187E+03  0.00000000000E+00 0.  1.
         -1    1    1    2    0  502  0.48189999990E+02 -0.26761615711E+02 -0.58625043832E+03  0.58883617128E+03  0.00000000000E+00 0. -1.
<mgrwt>
<rscale>  1 0.30000000E+03</rscale>
<asrwt>0</asrwt>
<pdfrwt beam="1">  1       21 0.11422401E-01 0.30000000E+03</pdfrwt>
<pdfrwt beam="2">0</pdfrwt>
<totfact> 0.67759012E+03</totfact>
</mgrwt>
</event>
<event>
 6    1  0.8397183E-002  0.3000000E+03  0.7818608E-02  0.1093470E+00
         21   -1    0    0  501  502  0.00000000000E+00  0.00000000000E+00  0.13380827006E+01  0.13380827006E+01  0.00000000000E+00 0. -1.
         13   -1    0    0    0    0 -0.00000000000E+00 -0.00000000000E+00 -0.10000000000E+04  0.10000000000E+04  0.00000000000E+00 0.  1.
    9000005    2    1    2  501    0  0.31248146664E+02  0.10930877552E+02 -0.29024266779E+03  0.29214575065E+03  0.35217420602E+01 0.  0.
         13    1    3    3    0    0  0.64143064781E+01  0.91117846253E+00 -0.61948458129E+02  0.62286315016E+02  0.00000000000E+00 0.  1.
          1    1    3    3  501    0  0.24833840186E+02  0.10019699089E+02 -0.22829420966E+03  0.22985943564E+03  0.00000000000E+00 0.  1.
         -1    1    1    2    0  502 -0.31248146664E+02 -0.10930877552E+02 -0.70841924951E+03  0.70919233205E+03  0.00000000000E+00 0. -1.
<mgrwt>
<rscale>  1 0.30000000E+03</rscale>
<asrwt>0</asrwt>
<pdfrwt beam="1">  1       21 0.48657655E-02 0.30000000E+03</pdfrwt>
<pdfrwt beam="2">0</pdfrwt>
<totfact> 0.30171546E+04</totfact>
</mgrwt>
</event>
<event>
 6    1  0.8397183E-002  0.3000000E+03  0.7818608E-02  0.1093470E+00
         21   -1    0    0  501  502  0.00000000000E+00  0.00000000000E+00  0.16197860023E+01  0.16197860023E+01  0.00000000000E+00 0. -1.
         13   -1    0    0    0    0 -0.00000000000E+00 -0.00000000000E+00 -0.10000000000E+04  0.10000000000E+04  0.00000000000E+00 0.  1.
    9000005    2    1    2  501    0  0.17496479278E+02 -0.30600787919E+02 -0.26016130938E+03  0.26255978428E+03  0.33464033391E+01 0.  0.
         13    1    3    3    0    0  0.77990803358E+01 -0.15978296480E+02 -0.12200144091E+03  0.12329023966E+03  0.00000000000E+00 0.  1.
          3    1    3    3  501    0  0.96973989422E+01 -0.14622491439E+02 -0.13815986847E+03  0.13926954462E+03  0.00000000000E+00 0.  1.
         -1    1    1    2    0  502 -0.17496479278E+02  0.30600787919E+02 -0.73821890462E+03  0.73906000172E+03  0.00000000000E+00 0. -1.
<mgrwt>
<rscale>  1 0.30000000E+03</rscale>
<asrwt>0</asrwt>
<pdfrwt beam="1">  1       21 0.58901433E-02 0.30000000E+03</pdfrwt>
<pdfrwt beam="2">0</pdfrwt>
<totfact> 0.21753787E+04</totfact>
</mgrwt>
</event>
<event>
 6    1  0.8397183E-002  0.3000000E+03  0.7818608E-02  0.1093470E+00
         21   -1    0    0  501  502  0.00000000000E+00  0.00000000000E+00  0.14079394379E+01  0.14079394379E+01  0.00000000000E+00 0. -1.
         13   -1    0    0    0    0 -0.00000000000E+00 -0.00000000000E+00 -0.10000000000E+04  0.10000000000E+04  0.00000000000E+00 0.  1.
    9000005    2    1    2  501    0 -0.19453056780E+02  0.30087108706E+02 -0.64655092589E+03  0.64754834012E+03  0.26641122806E+01 0.  0.
         13    1    3    3    0    0 -0.13327710334E+02  0.20401525183E+02 -0.46142519379E+03  0.46206824124E+03  0.00000000000E+00 0.  1.
          1    1    3    3  501    0 -0.61253464455E+01  0.96855835236E+01 -0.18512573210E+03  0.18548009889E+03  0.00000000000E+00 0.  1.
         -1    1    1    2    0  502  0.19453056780E+02 -0.30087108706E+02 -0.35204113467E+03  0.35385959931E+03  0.00000000000E+00 0. -1.
<mgrwt>
<rscale>  1 0.30000000E+03</rscale>
<asrwt>0</asrwt>
<pdfrwt beam="1">  1       21 0.51197906E-02 0.30000000E+03</pdfrwt>
<pdfrwt beam="2">0</pdfrwt>
<totfact> 0.27664560E+04</totfact>
</mgrwt>
</event>
<event>
 6    1  0.8397183E-002  0.3000000E+03  0.7818608E-02  0.1093470E+00
         21   -1    0    0  501  502  0.00000000000E+00  0.00000000000E+00  0.92931708469E+00  0.92931708469E+00  0.00000000000E+00 0. -1.
         13   -1    0    0    0    0 -0.00000000000E+00 -0.00000000000E+00 -0.10000000000E+04  0.10000000000E+04  0.00000000000E+00 0.  1.
    9000005    2    1    2  501    0 -0.14937106971E+02  0.26020420253E+02 -0.41613145379E+03  0.41721849460E+03  0.23887164958E+01 0.  0.
         13    1    3    3    0    0 -0.26627652002E+01  0.51813093425E+01 -0.68941830802E+02  0.69187515633E+02  0.00000000000E+00 0.  1.
          3    1    3    3  501    0 -0.12274341771E+02  0.20839110910E+02 -0.34718962298E+03  0.34803097896E+03  0.00000000000E+00 0.  1.
         -3    1    1    2    0  502  0.14937106971E+02 -0.26020420253E+02 -0.58293922913E+03  0.58371082249E+03  0.00000000000E+00 0. -1.
<mgrwt>
<rscale>  1 0.30000000E+03</rscale>
<asrwt>0</asrwt>
<pdfrwt beam="1">  1       21 0.33793420E-02 0.30000000E+03</pdfrwt>
<pdfrwt beam="2">0</pdfrwt>
<totfact> 0.55796280E+04</totfact>
</mgrwt>
</event>
<event>
 6    1  0.8397183E-002  0.3000000E+03  0.7818608E-02  0.1093470E+00
         21   -1    0    0  501  502  0.00000000000E+00  0.00000000000E+00  0.24436787090E+01  0.24436787090E+01  0.00000000000E+00 0. -1.
         13   -1    0    0    0    0 -0.00000000000E+00 -0.00000000000E+00 -0.10000000000E+04  0.10000000000E+04  0.00000000000E+00 0.  1.
    9000005    2    1    2  501    0 -0.40476764370E+02  0.49690909277E+01 -0.21694115207E+03  0.22076401111E+03  0.31976275187E+01 0.  0.
         13    1    3    3    0    0 -0.29244564387E+02  0.47710924278E+01 -0.15281141405E+03  0.15565775320E+03  0.00000000000E+00 0.  1.
          3    1    3    3  501    0 -0.11232199983E+02  0.19799849992E+00 -0.64129738026E+02  0.65106257910E+02  0.00000000000E+00 0.  1.
         -1    1    1    2    0  502  0.40476764370E+02 -0.49690909277E+01 -0.78061516922E+03  0.78167966759E+03  0.00000000000E+00 0. -1.
<mgrwt>
<rscale>  1 0.30000000E+03</rscale>
<asrwt>0</asrwt>
<pdfrwt beam="1">  1       21 0.88861231E-02 0.30000000E+03</pdfrwt>
<pdfrwt beam="2">0</pdfrwt>
<totfact> 0.10614741E+04</totfact>
</mgrwt>
</event>
<event>
 6    1  0.8397183E-002  0.3000000E+03  0.7818608E-02  0.1093470E+00
         21   -1    0    0  501  502  0.00000000000E+00  0.00000000000E+00  0.30006918476E+01  0.30006918476E+01  0.00000000000E+00 0. -1.
         13   -1    0    0    0    0 -0.00000000000E+00 -0.00000000000E+00 -0.10000000000E+04  0.10000000000E+04  0.00000000000E+00 0.  1.
    9000005    2    1    2  501    0 -0.44502428407E+02 -0.30098139147E+02 -0.40329357539E+03  0.40686911138E+03  0.32251714934E+01 0.  0.
         13    1    3    3    0    0 -0.43420146091E+02 -0.29905339129E+02 -0.39501435242E+03  0.39851722298E+03  0.00000000000E+00 0.  1.
          1    1    3    3  501    0 -0.10822823157E+01 -0.19280001754E+00 -0.82792229682E+01  0.83518883981E+01  0.00000000000E+00 0.  1.
         -1    1    1    2    0  502  0.44502428407E+02  0.30098139147E+02 -0.59370573276E+03  0.59613158047E+03  0.00000000000E+00 0. -1.
<mgrwt>
<rscale>  1 0.30000000E+03</rscale>
<asrwt>0</asrwt>
<pdfrwt beam="1">  1       21 0.10911630E-01 0.30000000E+03</pdfrwt>
<pdfrwt beam="2">0</pdfrwt>
<totfact> 0.73579948E+03</totfact>
</mgrwt>
</event>
<event>
 6    1  0.1046733E-001  0.3000000E+03  0.7818608E-02  0.1093470E+00
         21   -1    0    0  501  502  0.00000000000E+00  0.00000000000E+00  0.15610080714E+01  0.15610080714E+01  0.00000000000E+00 0. -1.
         13   -1    0    0    0    0 -0.00000000000E+00 -0.00000000000E+00 -0.10000000000E+04  0.10000000000E+04  0.00000000000E+00 0.  1.
    9000005    2    1    2  501    0 -0.32698974316E+02  0.20897665165E+02 -0.46042102540E+03  0.46214533566E+03  0.92116944887E+01 0.  0.
         13    1    3    3    0    0 -0.19267965006E+02  0.17221500498E+02 -0.28190211180E+03  0.28308414861E+03  0.00000000000E+00 0.  1.
          3    1    3    3  501    0 -0.13431009310E+02  0.36761646675E+01 -0.17851891360E+03  0.17906118706E+03  0.00000000000E+00 0.  1.
         -3    1    1    2    0  502  0.32698974316E+02 -0.20897665165E+02 -0.53801796653E+03  0.53941567241E+03  0.00000000000E+00 0. -1.
<mgrwt>
<rscale>  1 0.30000000E+03</rscale>
<asrwt>0</asrwt>
<pdfrwt beam="1">  1       21 0.56764050E-02 0.30000000E+03</pdfrwt>
<pdfrwt beam="2">0</pdfrwt>
<totfact> 0.23183002E+04</totfact>
</mgrwt>
</event>
<event>
 6    1  0.8397183E-002  0.3000000E+03  0.7818608E-02  0.1093470E+00
         21   -1    0    0  501  502  0.00000000000E+00  0.00000000000E+00  0.13260248014E+01  0.13260248014E+01  0.00000000000E+00 0. -1.
         13   -1    0    0    0    0 -0.00000000000E+00 -0.00000000000E+00 -0.10000000000E+04  0.10000000000E+04  0.00000000000E+00 0.  1.
    9000005    2    1    2  501    0 -0.86120083578E+01  0.35288402143E+02 -0.49947489529E+03  0.50080713465E+03  0.36300248760E+01 0.  0.
         13    1    3    3    0    0 -0.82596254478E+01  0.32360947952E+02 -0.46998576004E+03  0.47117095306E+03  0.00000000000E+00 0.  1.
          3    1    3    3  501    0 -0.35238290999E+00  0.29274541914E+01 -0.29489135244E+02  0.29636181589E+02  0.00000000000E+00 0.  1.
         -1    1    1    2    0  502  0.86120083578E+01 -0.35288402143E+02 -0.49919907991E+03  0.50051889015E+03  0.00000000000E+00 0. -1.
<mgrwt>
<rscale>  1 0.30000000E+03</rscale>
<asrwt>0</asrwt>
<pdfrwt beam="1">  1       21 0.48219185E-02 0.30000000E+03</pdfrwt>
<pdfrwt beam="2">0</pdfrwt>
<totfact> 0.30640061E+04</totfact>
</mgrwt>
</event>
<event>
 6    1  0.8397183E-002  0.3000000E+03  0.7818608E-02  0.1093470E+00
         21   -1    0    0  501  502  0.00000000000E+00  0.00000000000E+00  0.11143584466E+01  0.11143584466E+01  0.00000000000E+00 0. -1.
         13   -1    0    0    0    0 -0.00000000000E+00 -0.00000000000E+00 -0.10000000000E+04  0.10000000000E+04  0.00000000000E+00 0.  1.
    9000005    2    1    2  501    0 -0.21527156431E+02 -0.24771565777E+02 -0.58464070922E+03  0.58557144502E+03  0.34798578600E+01 0.  0.
         13    1    3    3    0    0 -0.14502341253E+02 -0.19020669884E+02 -0.42835144011E+03  0.42901871758E+03  0.00000000000E+00 0.  1.
          1    1    3    3  501    0 -0.70248151784E+01 -0.57508958930E+01 -0.15628926910E+03  0.15655272744E+03  0.00000000000E+00 0.  1.
         -1    1    1    2    0  502  0.21527156431E+02  0.24771565777E+02 -0.41424493234E+03  0.41554291343E+03  0.00000000000E+00 0. -1.
<mgrwt>
<rscale>  1 0.30000000E+03</rscale>
<asrwt>0</asrwt>
<pdfrwt beam="1">  1       21 0.40522211E-02 0.30000000E+03</pdfrwt>
<pdfrwt beam="2">0</pdfrwt>
<totfact> 0.41138534E+04</totfact>
</mgrwt>
</event>
<event>
 6    1  0.8397183E-002  0.3000000E+03  0.7818608E-02  0.1093470E+00
         21   -1    0    0  501  502  0.00000000000E+00  0.00000000000E+00  0.14916471565E+01  0.14916471565E+01  0.00000000000E+00 0. -1.
         13   -1    0    0    0    0 -0.00000000000E+00 -0.00000000000E+00 -0.10000000000E+04  0.10000000000E+04  0.00000000000E+00 0.  1.
    9000005    2    1    2  501    0  0.45100714628E+01  0.34765406349E+02 -0.30827322529E+03  0.31036683532E+03  0.81373714716E+01 0.  0.
         13    1    3    3    0    0 -0.20923767361E+01  0.14985481731E+02 -0.13222465849E+03  0.13308757649E+03  0.00000000000E+00 0.  1.
          1    1    3    3  501    0  0.66024481989E+01  0.19779924618E+02 -0.17604856680E+03  0.17727925883E+03  0.00000000000E+00 0.  1.
         -1    1    1    2    0  502 -0.45100714628E+01 -0.34765406349E+02 -0.69023512756E+03  0.69112481184E+03  0.00000000000E+00 0. -1.
<mgrwt>
<rscale>  1 0.30000000E+03</rscale>
<asrwt>0</asrwt>
<pdfrwt beam="1">  1       21 0.54241829E-02 0.30000000E+03</pdfrwt>
<pdfrwt beam="2">0</pdfrwt>
<totfact> 0.25063348E+04</totfact>
</mgrwt>
</event>
<event>
 6    1  0.8397183E-002  0.3000000E+03  0.7818608E-02  0.1093470E+00
         21   -1    0    0  501  502  0.00000000000E+00  0.00000000000E+00  0.12354294340E+01  0.12354294340E+01  0.00000000000E+00 0. -1.
         13   -1    0    0    0    0 -0.00000000000E+00 -0.00000000000E+00 -0.10000000000E+04  0.10000000000E+04  0.00000000000E+00 0.  1.
    9000005    2    1    2  501    0  0.34538396637E+02 -0.43275652768E+01 -0.56053901222E+03  0.56162961891E+03  0.34951319046E+01 0.  0.
         13    1    3    3    0    0  0.10151897209E+02 -0.28685207565E+01 -0.17297602797E+03  0.17329741972E+03  0.00000000000E+00 0.  1.
          3    1    3    3  501    0  0.24386499428E+02 -0.14590445203E+01 -0.38756298425E+03  0.38833219919E+03  0.00000000000E+00 0.  1.
         -1    1    1    2    0  502 -0.34538396637E+02  0.43275652768E+01 -0.43822555834E+03  0.43960581053E+03  0.00000000000E+00 0. -1.
<mgrwt>
<rscale>  1 0.30000000E+03</rscale>
<asrwt>0</asrwt>
<pdfrwt beam="1">  1       21 0.44924801E-02 0.30000000E+03</pdfrwt>
<pdfrwt beam="2">0</pdfrwt>
<totfact> 0.34556115E+04</totfact>
</mgrwt>
</event>
<event>
 6    1  0.8397183E-002  0.3000000E+03  0.7818608E-02  0.1093470E+00
         21   -1    0    0  501  502  0.00000000000E+00  0.00000000000E+00  0.16393726829E+01  0.16393726829E+01  0.00000000000E+00 0. -1.
         13   -1    0    0    0    0 -0.00000000000E+00 -0.00000000000E+00 -0.10000000000E+04  0.10000000000E+04  0.00000000000E+00 0.  1.
    9000005    2    1    2  501    0 -0.38582865915E+02  0.11789381262E+02 -0.46733939819E+03  0.46908780444E+03  0.31029215738E+01 0.  0.
         13    1    3    3    0    0 -0.25833644849E+02  0.94018790320E+01 -0.31893957717E+03  0.32012220545E+03  0.00000000000E+00 0.  1.
          1    1    3    3  501    0 -0.12749221066E+02  0.23875022298E+01 -0.14839982101E+03  0.14896559899E+03  0.00000000000E+00 0.  1.
         -3    1    1    2    0  502  0.38582865915E+02 -0.11789381262E+02 -0.53102122913E+03  0.53255156825E+03  0.00000000000E+00 0. -1.
<mgrwt>
<rscale>  1 0.30000000E+03</rscale>
<asrwt>0</asrwt>
<pdfrwt beam="1">  1       21 0.59613678E-02 0.30000000E+03</pdfrwt>
<pdfrwt beam="2">0</pdfrwt>
<totfact> 0.21307694E+04</totfact>
</mgrwt>
</event>
<event>
 6    1  0.8397183E-002  0.3000000E+03  0.7818608E-02  0.1093470E+00
         21   -1    0    0  501  502  0.00000000000E+00  0.00000000000E+00  0.31165322384E+01  0.31165322384E+01  0.00000000000E+00 0. -1.
         13   -1    0    0    0    0 -0.00000000000E+00 -0.00000000000E+00 -0.10000000000E+04  0.10000000000E+04  0.00000000000E+00 0.  1.
    9000005    2    1    2  501    0 -0.12838664013E+02 -0.52444763445E+02 -0.62223774131E+03  0.62460007969E+03  0.54925698453E+01 0.  0.
         13    1    3    3    0    0 -0.12531204154E+02 -0.42358583921E+02 -0.51060671974E+03  0.51251390513E+03  0.00000000000E+00 0.  1.
          3    1    3    3  501    0 -0.30745985926E+00 -0.10086179523E+02 -0.11163102158E+03  0.11208617456E+03  0.00000000000E+00 0.  1.
         -1    1    1    2    0  502  0.12838664013E+02  0.52444763445E+02 -0.37464572645E+03  0.37851645255E+03  0.00000000000E+00 0. -1.
<mgrwt>
<rscale>  1 0.30000000E+03</rscale>
<asrwt>0</asrwt>
<pdfrwt beam="1">  1       21 0.11332868E-01 0.30000000E+03</pdfrwt>
<pdfrwt beam="2">0</pdfrwt>
<totfact> 0.68728149E+03</totfact>
</mgrwt>
</event>
<event>
 6    1  0.8397183E-002  0.3000000E+03  0.7818608E-02  0.1093470E+00
         21   -1    0    0  501  502  0.00000000000E+00  0.00000000000E+00  0.97778821522E+00  0.97778821522E+00  0.00000000000E+00 0. -1.
         13   -1    0    0    0    0 -0.00000000000E+00 -0.00000000000E+00 -0.10000000000E+04  0.10000000000E+04  0.00000000000E+00 0.  1.
    9000005    2    1    2  501    0 -0.23113058434E+02 -0.19502937906E+02 -0.40680579760E+03  0.40798971137E+03  0.70759848300E+01 0.  0.
         13    1    3    3    0    0 -0.71556344483E+01 -0.24846506544E+01 -0.11826049199E+03  0.11850282933E+03  0.00000000000E+00 0.  1.
          1    1    3    3  501    0 -0.15957423985E+02 -0.17018287251E+02 -0.28854530561E+03  0.28948688204E+03  0.00000000000E+00 0.  1.
         -1    1    1    2    0  502  0.23113058434E+02  0.19502937906E+02 -0.59221641418E+03  0.59298807685E+03  0.00000000000E+00 0. -1.
<mgrwt>
<rscale>  1 0.30000000E+03</rscale>
<asrwt>0</asrwt>
<pdfrwt beam="1">  1       21 0.35556010E-02 0.30000000E+03</pdfrwt>
<pdfrwt beam="2">0</pdfrwt>
<totfact> 0.51245546E+04</totfact>
</mgrwt>
</event>
<event>
 6    1  0.8397183E-002  0.3000000E+03  0.7818608E-02  0.1093470E+00
         21   -1    0    0  501  502  0.00000000000E+00  0.00000000000E+00  0.15580695919E+01  0.15580695919E+01  0.00000000000E+00 0. -1.
         13   -1    0    0    0    0 -0.00000000000E+00 -0.00000000000E+00 -0.10000000000E+04  0.10000000000E+04  0.00000000000E+00 0.  1.
    9000005    2    1    2  501    0  0.34566858861E+02 -0.64734253455E+01 -0.72592268049E+03  0.72677904102E+03  0.26950785371E+01 0.  0.
         13    1    3    3    0    0  0.21426803688E+02 -0.28036757785E+01 -0.45638483383E+03  0.45689614254E+03  0.00000000000E+00 0.  1.
          3    1    3    3  501    0  0.13140055173E+02 -0.36697495670E+01 -0.26953784666E+03  0.26988289848E+03  0.00000000000E+00 0.  1.
         -3    1    1    2    0  502 -0.34566858861E+02  0.64734253455E+01 -0.27251924992E+03  0.27477902857E+03  0.00000000000E+00 0. -1.
<mgrwt>
<rscale>  1 0.30000000E+03</rscale>
<asrwt>0</asrwt>
<pdfrwt beam="1">  1       21 0.56657196E-02 0.30000000E+03</pdfrwt>
<pdfrwt beam="2">0</pdfrwt>
<totfact> 0.23258203E+04</totfact>
</mgrwt>
</event>
<event>
 6    1  0.8397183E-002  0.3000000E+03  0.7818608E-02  0.1093470E+00
         21   -1    0    0  501  502  0.00000000000E+00  0.00000000000E+00  0.20835895245E+01  0.20835895245E+01  0.00000000000E+00 0. -1.
         13   -1    0    0    0    0 -0.00000000000E+00 -0.00000000000E+00 -0.10000000000E+04  0.10000000000E+04  0.00000000000E+00 0.  1.
    9000005    2    1    2  501    0 -0.39021298696E+02  0.20348046274E+01 -0.75731702423E+03  0.75833193960E+03  0.33842634641E+01 0.  0.
         13    1    3    3    0    0 -0.13606853158E+02  0.57933454988E+00 -0.29589183567E+03  0.29620509870E+03  0.00000000000E+00 0.  1.
          1    1    3    3  501    0 -0.25414445538E+02  0.14554700775E+01 -0.46142518857E+03  0.46212684090E+03  0.00000000000E+00 0.  1.
         -1    1    1    2    0  502  0.39021298696E+02 -0.20348046274E+01 -0.24059938624E+03  0.24375164993E+03  0.00000000000E+00 0. -1.
<mgrwt>
<rscale>  1 0.30000000E+03</rscale>
<asrwt>0</asrwt>
<pdfrwt beam="1">  1       21 0.75767052E-02 0.30000000E+03</pdfrwt>
<pdfrwt beam="2">0</pdfrwt>
<totfact> 0.14051819E+04</totfact>
</mgrwt>
</event>
<event>
 6    1  0.8397183E-002  0.3000000E+03  0.7818608E-02  0.1093470E+00
         21   -1    0    0  501  502  0.00000000000E+00  0.00000000000E+00  0.97470974121E+00  0.97470974121E+00  0.00000000000E+00 0. -1.
         13   -1    0    0    0    0 -0.00000000000E+00 -0.00000000000E+00 -0.10000000000E+04  0.10000000000E+04  0.00000000000E+00 0.  1.
    9000005    2    1    2  501    0 -0.27169541467E+02  0.14816232614E+02 -0.54659857108E+03  0.54749081702E+03  0.43002418560E+01 0.  0.
         13    1    3    3    0    0 -0.62813707750E+01  0.35689507436E+01 -0.98425392260E+02  0.98690176156E+02  0.00000000000E+00 0.  1.
          3    1    3    3  501    0 -0.20888170692E+02  0.11247281871E+02 -0.44817317883E+03  0.44880064087E+03  0.00000000000E+00 0.  1.
         -3    1    1    2    0  502  0.27169541467E+02 -0.14816232614E+02 -0.45242671917E+03  0.45348389272E+03  0.00000000000E+00 0. -1.
<mgrwt>
<rscale>  1 0.30000000E+03</rscale>
<asrwt>0</asrwt>
<pdfrwt beam="1">  1       21 0.35444065E-02 0.30000000E+03</pdfrwt>
<pdfrwt beam="2">0</pdfrwt>
<totfact> 0.51517134E+04</totfact>
</mgrwt>
</event>
<event>
 6    1  0.8397183E-002  0.3000000E+03  0.7818608E-02  0.1093470E+00
         21   -1    0    0  501  502  0.00000000000E+00  0.00000000000E+00  0.25508028166E+01  0.25508028166E+01  0.00000000000E+00 0. -1.
         13   -1    0    0    0    0 -0.00000000000E+00 -0.00000000000E+00 -0.10000000000E+04  0.10000000000E+04  0.00000000000E+00 0.  1.
    9000005    2    1    2  501    0 -0.34057163463E+02 -0.17926591786E+01 -0.13165396358E+03  0.13608413264E+03  0.47980222874E+01 0.  0.
         13    1    3    3    0    0 -0.67062476910E+01 -0.78105367518E+00 -0.34184307897E+02  0.34844665435E+02  0.00000000000E+00 0.  1.
          3    1    3    3  501    0 -0.27350915772E+02 -0.10116055035E+01 -0.97469655688E+02  0.10123946720E+03  0.00000000000E+00 0.  1.
         -3    1    1    2    0  502  0.34057163463E+02  0.17926591786E+01 -0.86579523360E+03  0.86646667018E+03  0.00000000000E+00 0. -1.
<mgrwt>
<rscale>  1 0.30000000E+03</rscale>
<asrwt>0</asrwt>
<pdfrwt beam="1">  1       21 0.92756662E-02 0.30000000E+03</pdfrwt>
<pdfrwt beam="2">0</pdfrwt>
<totfact> 0.98371851E+03</totfact>
</mgrwt>
</event>
<event>
 6    1  0.8397183E-002  0.3000000E+03  0.7818608E-02  0.1093470E+00
         21   -1    0    0  501  502  0.00000000000E+00  0.00000000000E+00  0.16561554374E+01  0.16561554374E+01  0.00000000000E+00 0. -1.
         13   -1    0    0    0    0 -0.00000000000E+00 -0.00000000000E+00 -0.10000000000E+04  0.10000000000E+04  0.00000000000E+00 0.  1.
    9000005    2    1    2  501    0  0.33666607792E+02  0.21631894152E+02 -0.41295577223E+03  0.41490188443E+03  0.31184218074E+01 0.  0.
         13    1    3    3    0    0  0.88057837322E+01  0.50768938519E+01 -0.92285593117E+02  0.92843671703E+02  0.00000000000E+00 0.  1.
          1    1    3    3  501    0  0.24860824060E+02  0.16555000300E+02 -0.32067017912E+03  0.32205821272E+03  0.00000000000E+00 0.  1.
         -3    1    1    2    0  502 -0.33666607792E+02 -0.21631894152E+02 -0.58538807233E+03  0.58675427101E+03  0.00000000000E+00 0. -1.
<mgrwt>
<rscale>  1 0.30000000E+03</rscale>
<asrwt>0</asrwt>
<pdfrwt beam="1">  1       21 0.60223961E-02 0.30000000E+03</pdfrwt>
<pdfrwt beam="2">0</pdfrwt>
<totfact> 0.20936692E+04</totfact>
</mgrwt>
</event>
<event>
 6    1  0.8397183E-002  0.3000000E+03  0.7818608E-02  0.1093470E+00
         21   -1    0    0  501  502  0.00000000000E+00  0.00000000000E+00  0.20418954041E+01  0.20418954041E+01  0.00000000000E+00 0. -1.
         13   -1    0    0    0    0 -0.00000000000E+00 -0.00000000000E+00 -0.10000000000E+04  0.10000000000E+04  0.00000000000E+00 0.  1.
    9000005    2    1    2  501    0  0.27057086747E+02  0.18912650201E+02 -0.15799587094E+03  0.16143120772E+03  0.27505110364E+01 0.  0.
         13    1    3    3    0    0  0.17284352521E+02  0.13664641402E+02 -0.10504020027E+03  0.10732620808E+03  0.00000000000E+00 0.  1.
          3    1    3    3  501    0  0.97727342262E+01  0.52480087984E+01 -0.52955670669E+02  0.54104999645E+02  0.00000000000E+00 0.  1.
         -1    1    1    2    0  502 -0.27057086747E+02 -0.18912650201E+02 -0.83996223365E+03  0.84061068768E+03  0.00000000000E+00 0. -1.
<mgrwt>
<rscale>  1 0.30000000E+03</rscale>
<asrwt>0</asrwt>
<pdfrwt beam="1">  1       21 0.74250899E-02 0.30000000E+03</pdfrwt>
<pdfrwt beam="2">0</pdfrwt>
<totfact> 0.14558029E+04</totfact>
</mgrwt>
</event>
<event>
 6    1  0.8397183E-002  0.3000000E+03  0.7818608E-02  0.1093470E+00
         21   -1    0    0  501  502  0.00000000000E+00  0.00000000000E+00  0.10460107752E+01  0.10460107752E+01  0.00000000000E+00 0. -1.
         13   -1    0    0    0    0 -0.00000000000E+00 -0.00000000000E+00 -0.10000000000E+04  0.10000000000E+04  0.00000000000E+00 0.  1.
    9000005    2    1    2  501    0 -0.20849061956E+02 -0.24526546304E+02 -0.53170589984E+03  0.53269036397E+03  0.34095581419E+01 0.  0.
         13    1    3    3    0    0 -0.15701034084E+02 -0.16340430875E+02 -0.38440547849E+03  0.38507285550E+03  0.00000000000E+00 0.  1.
          1    1    3    3  501    0 -0.51480278723E+01 -0.81861154291E+01 -0.14730042135E+03  0.14761750847E+03  0.00000000000E+00 0.  1.
         -1    1    1    2    0  502  0.20849061956E+02  0.24526546304E+02 -0.46724808939E+03  0.46835564680E+03  0.00000000000E+00 0. -1.
<mgrwt>
<rscale>  1 0.30000000E+03</rscale>
<asrwt>0</asrwt>
<pdfrwt beam="1">  1       21 0.38036836E-02 0.30000000E+03</pdfrwt>
<pdfrwt beam="2">0</pdfrwt>
<totfact> 0.45761525E+04</totfact>
</mgrwt>
</event>
<event>
 6    1  0.8397183E-002  0.3000000E+03  0.7818608E-02  0.1093470E+00
         21   -1    0    0  501  502  0.00000000000E+00  0.00000000000E+00  0.10316847294E+01  0.10316847294E+01  0.00000000000E+00 0. -1.
         13   -1    0    0    0    0 -0.00000000000E+00 -0.00000000000E+00 -0.10000000000E+04  0.10000000000E+04  0.00000000000E+00 0.  1.
    9000005    2    1    2  501    0  0.29375730333E+02 -0.10285722040E+02 -0.61849242288E+03  0.61928486509E+03  0.34838721953E+01 0.  0.
         13    1    3    3    0    0  0.19294812952E+02 -0.50768406117E+01 -0.40482375058E+03  0.40531510353E+03  0.00000000000E+00 0.  1.
          3    1    3    3  501    0  0.10080917381E+02 -0.52088814279E+01 -0.21366867230E+03  0.21396976156E+03  0.00000000000E+00 0.  1.
         -1    1    1    2    0  502 -0.29375730333E+02  0.10285722040E+02 -0.38047589239E+03  0.38174681964E+03  0.00000000000E+00 0. -1.
<mgrwt>
<rscale>  1 0.30000000E+03</rscale>
<asrwt>0</asrwt>
<pdfrwt beam="1">  1       21 0.37515887E-02 0.30000000E+03</pdfrwt>
<pdfrwt beam="2">0</pdfrwt>
<totfact> 0.46833949E+04</totfact>
</mgrwt>
</event>
<event>
 6    1  0.1083049E-001  0.3000000E+03  0.7818608E-02  0.1093470E+00
         21   -1    0    0  501  502  0.00000000000E+00  0.00000000000E+00  0.65840843991E+01  0.65840843991E+01  0.00000000000E+00 0. -1.
         13   -1    0    0    0    0 -0.00000000000E+00 -0.00000000000E+00 -0.10000000000E+04  0.10000000000E+04  0.00000000000E+00 0.  1.
    9000005    2    1    2  501    0  0.11821219973E+02 -0.65210810619E+02 -0.78667811394E+03  0.78948339417E+03  0.54206688858E+01 0.  0.
         13    1    3    3    0    0  0.83143417593E+01 -0.47032856181E+02 -0.59457748377E+03  0.59649275105E+03  0.00000000000E+00 0.  1.
          1    1    3    3  501    0  0.35068782139E+01 -0.18177954438E+02 -0.19210063017E+03  0.19299064312E+03  0.00000000000E+00 0.  1.
         -3    1    1    2    0  502 -0.11821219973E+02  0.65210810619E+02 -0.20673780166E+03  0.21710069023E+03  0.00000000000E+00 0. -1.
<mgrwt>
<rscale>  1 0.30000000E+03</rscale>
<asrwt>0</asrwt>
<pdfrwt beam="1">  1       21 0.23942176E-01 0.30000000E+03</pdfrwt>
<pdfrwt beam="2">0</pdfrwt>
<totfact> 0.16968511E+03</totfact>
</mgrwt>
</event>
<event>
 6    1  0.8397183E-002  0.3000000E+03  0.7818608E-02  0.1093470E+00
         21   -1    0    0  501  502  0.00000000000E+00  0.00000000000E+00  0.10745448244E+01  0.10745448244E+01  0.00000000000E+00 0. -1.
         13   -1    0    0    0    0 -0.00000000000E+00 -0.00000000000E+00 -0.10000000000E+04  0.10000000000E+04  0.00000000000E+00 0.  1.
    9000005    2    1    2  501    0 -0.26074013417E+02 -0.17187579180E+02 -0.63679841065E+03  0.63760341332E+03  0.71154640439E+01 0.  0.
         13    1    3    3    0    0 -0.23705780050E+02 -0.13499707336E+02 -0.57704554059E+03  0.57769002243E+03  0.00000000000E+00 0.  1.
          3    1    3    3  501    0 -0.23682333670E+01 -0.36878718442E+01 -0.59752870056E+02  0.59913390890E+02  0.00000000000E+00 0.  1.
         -1    1    1    2    0  502  0.26074013417E+02  0.17187579180E+02 -0.36212704453E+03  0.36347113150E+03  0.00000000000E+00 0. -1.
<mgrwt>
<rscale>  1 0.30000000E+03</rscale>
<asrwt>0</asrwt>
<pdfrwt beam="1">  1       21 0.39074440E-02 0.30000000E+03</pdfrwt>
<pdfrwt beam="2">0</pdfrwt>
<totfact> 0.43737155E+04</totfact>
</mgrwt>
</event>
<event>
 6    1  0.8397183E-002  0.3000000E+03  0.7818608E-02  0.1093470E+00
         21   -1    0    0  501  502  0.00000000000E+00  0.00000000000E+00  0.10387431127E+01  0.10387431127E+01  0.00000000000E+00 0. -1.
         13   -1    0    0    0    0 -0.00000000000E+00 -0.00000000000E+00 -0.10000000000E+04  0.10000000000E+04  0.00000000000E+00 0.  1.
    9000005    2    1    2  501    0 -0.31055116533E+02 -0.41258854885E+01 -0.38801310188E+03  0.38928790224E+03  0.30757780792E+01 0.  0.
         13    1    3    3    0    0 -0.12691121169E+02 -0.70231498258E+00 -0.14306134267E+03  0.14362487796E+03  0.00000000000E+00 0.  1.
          3    1    3    3  501    0 -0.18363995364E+02 -0.34235705059E+01 -0.24495175920E+03  0.24566302428E+03  0.00000000000E+00 0.  1.
         -3    1    1    2    0  502  0.31055116533E+02  0.41258854885E+01 -0.61094815501E+03  0.61175084087E+03  0.00000000000E+00 0. -1.
<mgrwt>
<rscale>  1 0.30000000E+03</rscale>
<asrwt>0</asrwt>
<pdfrwt beam="1">  1       21 0.37772556E-02 0.30000000E+03</pdfrwt>
<pdfrwt beam="2">0</pdfrwt>
<totfact> 0.46300688E+04</totfact>
</mgrwt>
</event>
<event>
 6    1  0.8397183E-002  0.3000000E+03  0.7818608E-02  0.1093470E+00
         21   -1    0    0  501  502  0.00000000000E+00  0.00000000000E+00  0.98328299667E+00  0.98328299667E+00  0.00000000000E+00 0. -1.
         13   -1    0    0    0    0 -0.00000000000E+00 -0.00000000000E+00 -0.10000000000E+04  0.10000000000E+04  0.00000000000E+00 0.  1.
    9000005    2    1    2  501    0 -0.30063996601E+02  0.45943309432E+01 -0.61756966103E+03  0.61832572293E+03  0.30759777139E+01 0.  0.
         13    1    3    3    0    0 -0.19256335853E+01  0.36287835121E+00 -0.57943281655E+02  0.57976405842E+02  0.00000000000E+00 0.  1.
          3    1    3    3  501    0 -0.28138363016E+02  0.42314525920E+01 -0.55962637938E+03  0.56034931709E+03  0.00000000000E+00 0.  1.
         -1    1    1    2    0  502  0.30063996601E+02 -0.45943309432E+01 -0.38144705597E+03  0.38265756007E+03  0.00000000000E+00 0. -1.
<mgrwt>
<rscale>  1 0.30000000E+03</rscale>
<asrwt>0</asrwt>
<pdfrwt beam="1">  1       21 0.35755821E-02 0.30000000E+03</pdfrwt>
<pdfrwt beam="2">0</pdfrwt>
<totfact> 0.50766361E+04</totfact>
</mgrwt>
</event>
<event>
 6    1  0.8397183E-002  0.3000000E+03  0.7818608E-02  0.1093470E+00
         21   -1    0    0  501  502  0.00000000000E+00  0.00000000000E+00  0.19786318653E+01  0.19786318653E+01  0.00000000000E+00 0. -1.
         13   -1    0    0    0    0 -0.00000000000E+00 -0.00000000000E+00 -0.10000000000E+04  0.10000000000E+04  0.00000000000E+00 0.  1.
    9000005    2    1    2  501    0  0.22017975165E+02  0.38027742663E+02 -0.42506427220E+03  0.42733897589E+03  0.28397830442E+01 0.  0.
         13    1    3    3    0    0  0.12734023667E+02  0.24594451793E+02 -0.26323634929E+03  0.26468928578E+03  0.00000000000E+00 0.  1.
          1    1    3    3  501    0  0.92839514974E+01  0.13433290869E+02 -0.16182792291E+03  0.16264969011E+03  0.00000000000E+00 0.  1.
         -3    1    1    2    0  502 -0.22017975165E+02 -0.38027742663E+02 -0.57295709593E+03  0.57463965598E+03  0.00000000000E+00 0. -1.
<mgrwt>
<rscale>  1 0.30000000E+03</rscale>
<asrwt>0</asrwt>
<pdfrwt beam="1">  1       21 0.71950401E-02 0.30000000E+03</pdfrwt>
<pdfrwt beam="2">0</pdfrwt>
<totfact> 0.15380893E+04</totfact>
</mgrwt>
</event>
<event>
 6    1  0.8397183E-002  0.3000000E+03  0.7818608E-02  0.1093470E+00
         21   -1    0    0  501  502  0.00000000000E+00  0.00000000000E+00  0.17031844155E+01  0.17031844155E+01  0.00000000000E+00 0. -1.
         13   -1    0    0    0    0 -0.00000000000E+00 -0.00000000000E+00 -0.10000000000E+04  0.10000000000E+04  0.00000000000E+00 0.  1.
    9000005    2    1    2  501    0 -0.37355011041E+02 -0.14242039270E+02 -0.62117629320E+03  0.62246958763E+03  0.31886909170E+01 0.  0.
         13    1    3    3    0    0 -0.11102462962E+02 -0.27700222486E+01 -0.18436205420E+03  0.18471682310E+03  0.00000000000E+00 0.  1.
          1    1    3    3  501    0 -0.26252548078E+02 -0.11472017021E+02 -0.43681423901E+03  0.43775276453E+03  0.00000000000E+00 0.  1.
         -1    1    1    2    0  502  0.37355011041E+02  0.14242039270E+02 -0.37712052238E+03  0.37923359679E+03  0.00000000000E+00 0. -1.
<mgrwt>
<rscale>  1 0.30000000E+03</rscale>
<asrwt>0</asrwt>
<pdfrwt beam="1">  1       21 0.61934109E-02 0.30000000E+03</pdfrwt>
<pdfrwt beam="2">0</pdfrwt>
<totfact> 0.19948941E+04</totfact>
</mgrwt>
</event>
<event>
 6    1  0.8397183E-002  0.3000000E+03  0.7818608E-02  0.1093470E+00
         21   -1    0    0  501  502  0.00000000000E+00  0.00000000000E+00  0.10000387449E+01  0.10000387449E+01  0.00000000000E+00 0. -1.
         13   -1    0    0    0    0 -0.00000000000E+00 -0.00000000000E+00 -0.10000000000E+04  0.10000000000E+04  0.00000000000E+00 0.  1.
    9000005    2    1    2  501    0  0.23734339474E+02 -0.20731232225E+02 -0.52170609652E+03  0.52266695796E+03  0.32241179508E+01 0.  0.
         13    1    3    3    0    0  0.16728799801E+02 -0.15208541353E+02 -0.39584828187E+03  0.39649339809E+03  0.00000000000E+00 0.  1.
          1    1    3    3  501    0  0.70055396734E+01 -0.55226908727E+01 -0.12585781466E+03  0.12617355987E+03  0.00000000000E+00 0.  1.
         -1    1    1    2    0  502 -0.23734339474E+02  0.20731232225E+02 -0.47729386473E+03  0.47833308078E+03  0.00000000000E+00 0. -1.
<mgrwt>
<rscale>  1 0.30000000E+03</rscale>
<asrwt>0</asrwt>
<pdfrwt beam="1">  1       21 0.36365122E-02 0.30000000E+03</pdfrwt>
<pdfrwt beam="2">0</pdfrwt>
<totfact> 0.49347984E+04</totfact>
</mgrwt>
</event>
<event>
 6    1  0.8397183E-002  0.3000000E+03  0.7818608E-02  0.1093470E+00
         21   -1    0    0  501  502  0.00000000000E+00  0.00000000000E+00  0.15929593930E+01  0.15929593930E+01  0.00000000000E+00 0. -1.
         13   -1    0    0    0    0 -0.00000000000E+00 -0.00000000000E+00 -0.10000000000E+04  0.10000000000E+04  0.00000000000E+00 0.  1.
    9000005    2    1    2  501    0  0.29595936270E+01  0.38598421972E+02 -0.38379771537E+03  0.38576569461E+03  0.39859060249E+01 0.  0.
         13    1    3    3    0    0  0.20783564374E+01  0.36002927852E+02 -0.34816507176E+03  0.35002778114E+03  0.00000000000E+00 0.  1.
          3    1    3    3  501    0  0.88123718960E+00  0.25954941199E+01 -0.35632643607E+02  0.35737913469E+02  0.00000000000E+00 0.  1.
         -1    1    1    2    0  502 -0.29595936270E+01 -0.38598421972E+02 -0.61460932524E+03  0.61582726478E+03  0.00000000000E+00 0. -1.
<mgrwt>
<rscale>  1 0.30000000E+03</rscale>
<asrwt>0</asrwt>
<pdfrwt beam="1">  1       21 0.57925918E-02 0.30000000E+03</pdfrwt>
<pdfrwt beam="2">0</pdfrwt>
<totfact> 0.22388795E+04</totfact>
</mgrwt>
</event>
<event>
 6    1  0.8397183E-002  0.3000000E+03  0.7818608E-02  0.1093470E+00
         21   -1    0    0  501  502  0.00000000000E+00  0.00000000000E+00  0.11699115666E+01  0.11699115666E+01  0.00000000000E+00 0. -1.
         13   -1    0    0    0    0 -0.00000000000E+00 -0.00000000000E+00 -0.10000000000E+04  0.10000000000E+04  0.00000000000E+00 0.  1.
    9000005    2    1    2  501    0  0.32123487335E+02  0.78048395747E+01 -0.37504698352E+03  0.37651144814E+03  0.27922698786E+01 0.  0.
         13    1    3    3    0    0  0.18412750554E+02  0.32030408508E+01 -0.20428390829E+03  0.20513703722E+03  0.00000000000E+00 0.  1.
          1    1    3    3  501    0  0.13710736781E+02  0.46017987239E+01 -0.17076307523E+03  0.17137441092E+03  0.00000000000E+00 0.  1.
         -1    1    1    2    0  502 -0.32123487335E+02 -0.78048395747E+01 -0.62378310491E+03  0.62465846343E+03  0.00000000000E+00 0. -1.
<mgrwt>
<rscale>  1 0.30000000E+03</rscale>
<asrwt>0</asrwt>
<pdfrwt beam="1">  1       21 0.42542328E-02 0.30000000E+03</pdfrwt>
<pdfrwt beam="2">0</pdfrwt>
<totfact> 0.37896138E+04</totfact>
</mgrwt>
</event>
<event>
 6    1  0.8397183E-002  0.3000000E+03  0.7818608E-02  0.1093470E+00
         21   -1    0    0  501  502  0.00000000000E+00  0.00000000000E+00  0.31145120525E+01  0.31145120525E+01  0.00000000000E+00 0. -1.
         13   -1    0    0    0    0 -0.00000000000E+00 -0.00000000000E+00 -0.10000000000E+04  0.10000000000E+04  0.00000000000E+00 0.  1.
    9000005    2    1    2  501    0  0.47280185237E+02  0.25949457661E+02 -0.37104979149E+03  0.37495918952E+03  0.27669061579E+01 0.  0.
         13    1    3    3    0    0  0.25790947534E+02  0.15566779387E+02 -0.21116855115E+03  0.21330648042E+03  0.00000000000E+00 0.  1.
          3    1    3    3  501    0  0.21489237703E+02  0.10382678274E+02 -0.15988124034E+03  0.16165270909E+03  0.00000000000E+00 0.  1.
         -1    1    1    2    0  502 -0.47280185237E+02 -0.25949457661E+02 -0.62583569646E+03  0.62815532254E+03  0.00000000000E+00 0. -1.
<mgrwt>
<rscale>  1 0.30000000E+03</rscale>
<asrwt>0</asrwt>
<pdfrwt beam="1">  1       21 0.11325522E-01 0.30000000E+03</pdfrwt>
<pdfrwt beam="2">0</pdfrwt>
<totfact> 0.68808589E+03</totfact>
</mgrwt>
</event>
<event>
 6    1  0.8397183E-002  0.3000000E+03  0.7818608E-02  0.1093470E+00
         21   -1    0    0  501  502  0.00000000000E+00  0.00000000000E+00  0.13219354792E+01  0.13219354792E+01  0.00000000000E+00 0. -1.
         13   -1    0    0    0    0 -0.00000000000E+00 -0.00000000000E+00 -0.10000000000E+04  0.10000000000E+04  0.00000000000E+00 0.  1.
    9000005    2    1    2  501    0 -0.17145727196E+02  0.31141511049E+02 -0.39942723554E+03  0.40101757459E+03  0.30346277147E+01 0.  0.
         13    1    3    3    0    0 -0.11854755415E+02  0.21217595386E+02 -0.25676814135E+03  0.25791587774E+03  0.00000000000E+00 0.  1.
          1    1    3    3  501    0 -0.52909717813E+01  0.99239156625E+01 -0.14265909419E+03  0.14310169685E+03  0.00000000000E+00 0.  1.
         -3    1    1    2    0  502  0.17145727196E+02 -0.31141511049E+02 -0.59925082898E+03  0.60030436089E+03  0.00000000000E+00 0. -1.
<mgrwt>
<rscale>  1 0.30000000E+03</rscale>
<asrwt>0</asrwt>
<pdfrwt beam="1">  1       21 0.48070482E-02 0.30000000E+03</pdfrwt>
<pdfrwt beam="2">0</pdfrwt>
<totfact> 0.30801539E+04</totfact>
</mgrwt>
</event>
<event>
 6    1  0.8397183E-002  0.3000000E+03  0.7818608E-02  0.1093470E+00
         21   -1    0    0  501  502  0.00000000000E+00  0.00000000000E+00  0.36078328041E+01  0.36078328041E+01  0.00000000000E+00 0. -1.
         13   -1    0    0    0    0 -0.00000000000E+00 -0.00000000000E+00 -0.10000000000E+04  0.10000000000E+04  0.00000000000E+00 0.  1.
    9000005    2    1    2  501    0  0.59854154770E+02 -0.37046807195E+01 -0.47819178689E+03  0.48194905674E+03  0.33561487786E+01 0.  0.
         13    1    3    3    0    0  0.11563642207E+02 -0.69076233906E+00 -0.10347081414E+03  0.10411726251E+03  0.00000000000E+00 0.  1.
          1    1    3    3  501    0  0.48290512563E+02 -0.30139183804E+01 -0.37472097275E+03  0.37783179422E+03  0.00000000000E+00 0.  1.
         -1    1    1    2    0  502 -0.59854154770E+02  0.37046807195E+01 -0.51820038030E+03  0.52165877607E+03  0.00000000000E+00 0. -1.
<mgrwt>
<rscale>  1 0.30000000E+03</rscale>
<asrwt>0</asrwt>
<pdfrwt beam="1">  1       21 0.13119420E-01 0.30000000E+03</pdfrwt>
<pdfrwt beam="2">0</pdfrwt>
<totfact> 0.52677913E+03</totfact>
</mgrwt>
</event>
<event>
 6    1  0.8397183E-002  0.3000000E+03  0.7818608E-02  0.1093470E+00
         21   -1    0    0  501  502  0.00000000000E+00  0.00000000000E+00  0.14637220262E+01  0.14637220262E+01  0.00000000000E+00 0. -1.
         13   -1    0    0    0    0 -0.00000000000E+00 -0.00000000000E+00 -0.10000000000E+04  0.10000000000E+04  0.00000000000E+00 0.  1.
    9000005    2    1    2  501    0  0.28562116006E+02  0.22768044277E+02 -0.35393041842E+03  0.35582381273E+03  0.31090687661E+01 0.  0.
         13    1    3    3    0    0  0.23345554428E+02  0.19709943906E+02 -0.30254719465E+03  0.30408601051E+03  0.00000000000E+00 0.  1.
          3    1    3    3  501    0  0.52165615775E+01  0.30581003711E+01 -0.51383223774E+02  0.51737802215E+02  0.00000000000E+00 0.  1.
         -3    1    1    2    0  502 -0.28562116006E+02 -0.22768044277E+02 -0.64460585955E+03  0.64563990930E+03  0.00000000000E+00 0. -1.
<mgrwt>
<rscale>  1 0.30000000E+03</rscale>
<asrwt>0</asrwt>
<pdfrwt beam="1">  1       21 0.53226368E-02 0.30000000E+03</pdfrwt>
<pdfrwt beam="2">0</pdfrwt>
<totfact> 0.25887445E+04</totfact>
</mgrwt>
</event>
<event>
 6    1  0.8397183E-002  0.3000000E+03  0.7818608E-02  0.1093470E+00
         21   -1    0    0  501  502  0.00000000000E+00  0.00000000000E+00  0.16875762609E+01  0.16875762609E+01  0.00000000000E+00 0. -1.
         13   -1    0    0    0    0 -0.00000000000E+00 -0.00000000000E+00 -0.10000000000E+04  0.10000000000E+04  0.00000000000E+00 0.  1.
    9000005    2    1    2  501    0 -0.16597712535E+02 -0.32882158930E+02 -0.27760262173E+03  0.28003714901E+03  0.93209323104E+00 0.  0.
         13    1    3    3    0    0 -0.16590576648E+02 -0.32888128660E+02 -0.27754993713E+03  0.27998364924E+03  0.00000000000E+00 0.  1.
          1    1    3    3  501    0 -0.71358875828E-02  0.59697307001E-02 -0.52684597348E-01  0.53499769850E-01  0.00000000000E+00 0.  1.
         -3    1    1    2    0  502  0.16597712535E+02  0.32882158930E+02 -0.72070980201E+03  0.72165042725E+03  0.00000000000E+00 0. -1.
<mgrwt>
<rscale>  1 0.30000000E+03</rscale>
<asrwt>0</asrwt>
<pdfrwt beam="1">  1       21 0.61366539E-02 0.30000000E+03</pdfrwt>
<pdfrwt beam="2">0</pdfrwt>
<totfact> 0.20268583E+04</totfact>
</mgrwt>
</event>
<event>
 6    1  0.8397183E-002  0.3000000E+03  0.7818608E-02  0.1093470E+00
         21   -1    0    0  501  502  0.00000000000E+00  0.00000000000E+00  0.33254811038E+01  0.33254811038E+01  0.00000000000E+00 0. -1.
         13   -1    0    0    0    0 -0.00000000000E+00 -0.00000000000E+00 -0.10000000000E+04  0.10000000000E+04  0.00000000000E+00 0.  1.
    9000005    2    1    2  501    0 -0.57718154814E+01 -0.54501091298E+02 -0.65338472086E+03  0.65568835960E+03  0.34566840746E+01 0.  0.
         13    1    3    3    0    0 -0.52271292352E+01 -0.52534354928E+02 -0.62141962707E+03  0.62365818701E+03  0.00000000000E+00 0.  1.
          3    1    3    3  501    0 -0.54468624615E+00 -0.19667363697E+01 -0.31965093791E+02  0.32030172589E+02  0.00000000000E+00 0.  1.
         -1    1    1    2    0  502  0.57718154814E+01  0.54501091298E+02 -0.34328979804E+03  0.34763712150E+03  0.00000000000E+00 0. -1.
<mgrwt>
<rscale>  1 0.30000000E+03</rscale>
<asrwt>0</asrwt>
<pdfrwt beam="1">  1       21 0.12092684E-01 0.30000000E+03</pdfrwt>
<pdfrwt beam="2">0</pdfrwt>
<totfact> 0.61111461E+03</totfact>
</mgrwt>
</event>
<event>
 6    1  0.8397183E-002  0.3000000E+03  0.7818608E-02  0.1093470E+00
         21   -1    0    0  501  502  0.00000000000E+00  0.00000000000E+00  0.57339223867E+01  0.57339223867E+01  0.00000000000E+00 0. -1.
         13   -1    0    0    0    0 -0.00000000000E+00 -0.00000000000E+00 -0.10000000000E+04  0.10000000000E+04  0.00000000000E+00 0.  1.
    9000005    2    1    2  501    0  0.53950727872E+02  0.26025472797E+02 -0.80462464832E+03  0.80685738285E+03  0.31631169416E+01 0.  0.
         13    1    3    3    0    0  0.10474541290E+02  0.51714357512E+01 -0.14078196041E+03  0.14126577837E+03  0.00000000000E+00 0.  1.
          3    1    3    3  501    0  0.43476186582E+02  0.20854037046E+02 -0.66384268791E+03  0.66559160448E+03  0.00000000000E+00 0.  1.
         -1    1    1    2    0  502 -0.53950727872E+02 -0.26025472797E+02 -0.18964142929E+03  0.19887653953E+03  0.00000000000E+00 0. -1.
<mgrwt>
<rscale>  1 0.30000000E+03</rscale>
<asrwt>0</asrwt>
<pdfrwt beam="1">  1       21 0.20850671E-01 0.30000000E+03</pdfrwt>
<pdfrwt beam="2">0</pdfrwt>
<totfact> 0.22155142E+03</totfact>
</mgrwt>
</event>
<event>
 6    1  0.8397183E-002  0.3000000E+03  0.7818608E-02  0.1093470E+00
         21   -1    0    0  501  502  0.00000000000E+00  0.00000000000E+00  0.21433600209E+01  0.21433600209E+01  0.00000000000E+00 0. -1.
         13   -1    0    0    0    0 -0.00000000000E+00 -0.00000000000E+00 -0.10000000000E+04  0.10000000000E+04  0.00000000000E+00 0.  1.
    9000005    2    1    2  501    0  0.36259681113E+02 -0.49338452212E+01 -0.80555319714E+03  0.80638912269E+03  0.28907570052E+01 0.  0.
         13    1    3    3    0    0  0.18932596260E+02 -0.17069859335E+01 -0.39246504122E+03  0.39292513992E+03  0.00000000000E+00 0.  1.
          1    1    3    3  501    0  0.17327084853E+02 -0.32268592876E+01 -0.41308815592E+03  0.41346398277E+03  0.00000000000E+00 0.  1.
         -1    1    1    2    0  502 -0.36259681113E+02  0.49338452212E+01 -0.19230344284E+03  0.19575423733E+03  0.00000000000E+00 0. -1.
<mgrwt>
<rscale>  1 0.30000000E+03</rscale>
<asrwt>0</asrwt>
<pdfrwt beam="1">  1       21 0.77940529E-02 0.30000000E+03</pdfrwt>
<pdfrwt beam="2">0</pdfrwt>
<totfact> 0.13372205E+04</totfact>
</mgrwt>
</event>
<event>
 6    1  0.8397183E-002  0.3000000E+03  0.7818608E-02  0.1093470E+00
         21   -1    0    0  501  502  0.00000000000E+00  0.00000000000E+00  0.20685638869E+01  0.20685638869E+01  0.00000000000E+00 0. -1.
         13   -1    0    0    0    0 -0.00000000000E+00 -0.00000000000E+00 -0.10000000000E+04  0.10000000000E+04  0.00000000000E+00 0.  1.
    9000005    2    1    2  501    0 -0.20750500776E+01  0.41214832973E+02 -0.70866929980E+03  0.70987761297E+03  0.33287588654E+01 0.  0.
         13    1    3    3    0    0 -0.35780619167E+00  0.20066626808E+02 -0.37078405041E+03  0.37132682313E+03  0.00000000000E+00 0.  1.
          1    1    3    3  501    0 -0.17172438859E+01  0.21148206165E+02 -0.33788524939E+03  0.33855078985E+03  0.00000000000E+00 0.  1.
         -3    1    1    2    0  502  0.20750500776E+01 -0.41214832973E+02 -0.28926213631E+03  0.29219095091E+03  0.00000000000E+00 0. -1.
<mgrwt>
<rscale>  1 0.30000000E+03</rscale>
<asrwt>0</asrwt>
<pdfrwt beam="1">  1       21 0.75220664E-02 0.30000000E+03</pdfrwt>
<pdfrwt beam="2">0</pdfrwt>
<totfact> 0.14231068E+04</totfact>
</mgrwt>
</event>
<event>
 6    1  0.8397183E-002  0.3000000E+03  0.7818608E-02  0.1093470E+00
         21   -1    0    0  501  502  0.00000000000E+00  0.00000000000E+00  0.22348817848E+01  0.22348817848E+01  0.00000000000E+00 0. -1.
         13   -1    0    0    0    0 -0.00000000000E+00 -0.00000000000E+00 -0.10000000000E+04  0.10000000000E+04  0.00000000000E+00 0.  1.
    9000005    2    1    2  501    0 -0.31863389292E+02  0.27460923247E+02 -0.27240033379E+03  0.27565147407E+03  0.35235529097E+01 0.  0.
         13    1    3    3    0    0 -0.11801534937E+01  0.17098664926E+01 -0.10256365763E+02  0.10464676027E+02  0.00000000000E+00 0.  1.
          1    1    3    3  501    0 -0.30683235798E+02  0.25751056755E+02 -0.26214396803E+03  0.26518679804E+03  0.00000000000E+00 0.  1.
         -1    1    1    2    0  502  0.31863389292E+02 -0.27460923247E+02 -0.72536478442E+03  0.72658340771E+03  0.00000000000E+00 0. -1.
<mgrwt>
<rscale>  1 0.30000000E+03</rscale>
<asrwt>0</asrwt>
<pdfrwt beam="1">  1       21 0.81268600E-02 0.30000000E+03</pdfrwt>
<pdfrwt beam="2">0</pdfrwt>
<totfact> 0.12425545E+04</totfact>
</mgrwt>
</event>
<event>
 6    1  0.8397183E-002  0.3000000E+03  0.7818608E-02  0.1093470E+00
         21   -1    0    0  501  502  0.00000000000E+00  0.00000000000E+00  0.15572474669E+01  0.15572474669E+01  0.00000000000E+00 0. -1.
         13   -1    0    0    0    0 -0.00000000000E+00 -0.00000000000E+00 -0.10000000000E+04  0.10000000000E+04  0.00000000000E+00 0.  1.
    9000005    2    1    2  501    0 -0.26092182684E+02  0.24293741999E+02 -0.28715280531E+03  0.28937442198E+03  0.31360168155E+01 0.  0.
         13    1    3    3    0    0 -0.97447377681E+01  0.99239897072E+01 -0.10086022446E+03  0.10181468638E+03  0.00000000000E+00 0.  1.
          1    1    3    3  501    0 -0.16347444916E+02  0.14369752292E+02 -0.18629258085E+03  0.18755973560E+03  0.00000000000E+00 0.  1.
         -1    1    1    2    0  502  0.26092182684E+02 -0.24293741999E+02 -0.71128994722E+03  0.71218282549E+03  0.00000000000E+00 0. -1.
<mgrwt>
<rscale>  1 0.30000000E+03</rscale>
<asrwt>0</asrwt>
<pdfrwt beam="1">  1       21 0.56627300E-02 0.30000000E+03</pdfrwt>
<pdfrwt beam="2">0</pdfrwt>
<totfact> 0.23279309E+04</totfact>
</mgrwt>
</event>
<event>
 6    1  0.8397183E-002  0.3000000E+03  0.7818608E-02  0.1093470E+00
         21   -1    0    0  501  502  0.00000000000E+00  0.00000000000E+00  0.65635645470E+01  0.65635645470E+01  0.00000000000E+00 0. -1.
         13   -1    0    0    0    0 -0.00000000000E+00 -0.00000000000E+00 -0.10000000000E+04  0.10000000000E+04  0.00000000000E+00 0.  1.
    9000005    2    1    2  501    0 -0.39153596222E+02 -0.53785899039E+02 -0.78357373160E+03  0.78640843401E+03  0.49502725256E+01 0.  0.
         13    1    3    3    0    0 -0.21210020493E+02 -0.33203239090E+02 -0.45759000137E+03  0.45928306022E+03  0.00000000000E+00 0.  1.
          1    1    3    3  501    0 -0.17943575729E+02 -0.20582659949E+02 -0.32598373023E+03  0.32712537379E+03  0.00000000000E+00 0.  1.
         -1    1    1    2    0  502  0.39153596222E+02  0.53785899039E+02 -0.20986270385E+03  0.22015513053E+03  0.00000000000E+00 0. -1.
<mgrwt>
<rscale>  1 0.30000000E+03</rscale>
<asrwt>0</asrwt>
<pdfrwt beam="1">  1       21 0.23867558E-01 0.30000000E+03</pdfrwt>
<pdfrwt beam="2">0</pdfrwt>
<totfact> 0.17071815E+03</totfact>
</mgrwt>
</event>
<event>
 6    1  0.8397183E-002  0.3000000E+03  0.7818608E-02  0.1093470E+00
         21   -1    0    0  501  502  0.00000000000E+00  0.00000000000E+00  0.12012818017E+01  0.12012818017E+01  0.00000000000E+00 0. -1.
         13   -1    0    0    0    0 -0.00000000000E+00 -0.00000000000E+00 -0.10000000000E+04  0.10000000000E+04  0.00000000000E+00 0.  1.
    9000005    2    1    2  501    0  0.27310701908E+02  0.14689270182E+02 -0.27871807701E+03  0.28045321285E+03  0.29307069496E+01 0.  0.
         13    1    3    3    0    0  0.62229095779E+01  0.25244397050E+01 -0.52014035733E+02  0.52445755908E+02  0.00000000000E+00 0.  1.
          1    1    3    3  501    0  0.21087792330E+02  0.12164830477E+02 -0.22670404128E+03  0.22800745694E+03  0.00000000000E+00 0.  1.
         -3    1    1    2    0  502 -0.27310701908E+02 -0.14689270182E+02 -0.72008064118E+03  0.72074806896E+03  0.00000000000E+00 0. -1.
<mgrwt>
<rscale>  1 0.30000000E+03</rscale>
<asrwt>0</asrwt>
<pdfrwt beam="1">  1       21 0.43683067E-02 0.30000000E+03</pdfrwt>
<pdfrwt beam="2">0</pdfrwt>
<totfact> 0.36237339E+04</totfact>
</mgrwt>
</event>
<event>
 6    1  0.8397183E-002  0.3000000E+03  0.7818608E-02  0.1093470E+00
         21   -1    0    0  501  502  0.00000000000E+00  0.00000000000E+00  0.13642065588E+01  0.13642065588E+01  0.00000000000E+00 0. -1.
         13   -1    0    0    0    0 -0.00000000000E+00 -0.00000000000E+00 -0.10000000000E+04  0.10000000000E+04  0.00000000000E+00 0.  1.
    9000005    2    1    2  501    0 -0.10172430239E+02 -0.33682208357E+02 -0.64934311530E+03  0.65030389194E+03  0.32712365787E+01 0.  0.
         13    1    3    3    0    0 -0.74085182930E+01 -0.26371410787E+02 -0.48082841592E+03  0.48160803877E+03  0.00000000000E+00 0.  1.
          1    1    3    3  501    0 -0.27639119464E+01 -0.73107975699E+01 -0.16851469938E+03  0.16869585317E+03  0.00000000000E+00 0.  1.
         -1    1    1    2    0  502  0.10172430239E+02  0.33682208357E+02 -0.34929267814E+03  0.35106031462E+03  0.00000000000E+00 0. -1.
<mgrwt>
<rscale>  1 0.30000000E+03</rscale>
<asrwt>0</asrwt>
<pdfrwt beam="1">  1       21 0.49607616E-02 0.30000000E+03</pdfrwt>
<pdfrwt beam="2">0</pdfrwt>
<totfact> 0.29194062E+04</totfact>
</mgrwt>
</event>
<event>
 6    1  0.8397183E-002  0.3000000E+03  0.7818608E-02  0.1093470E+00
         21   -1    0    0  501  502  0.00000000000E+00  0.00000000000E+00  0.10681303262E+01  0.10681303262E+01  0.00000000000E+00 0. -1.
         13   -1    0    0    0    0 -0.00000000000E+00 -0.00000000000E+00 -0.10000000000E+04  0.10000000000E+04  0.00000000000E+00 0.  1.
    9000005    2    1    2  501    0  0.86657399950E+01  0.30567561199E+02 -0.61305838777E+03  0.61388882447E+03  0.30710170490E+01 0.  0.
         13    1    3    3    0    0  0.29800652563E+01  0.12824543362E+02 -0.28068952943E+03  0.28099815237E+03  0.00000000000E+00 0.  1.
          3    1    3    3  501    0  0.56856747386E+01  0.17743017837E+02 -0.33236885833E+03  0.33289067210E+03  0.00000000000E+00 0.  1.
         -3    1    1    2    0  502 -0.86657399950E+01 -0.30567561199E+02 -0.38587348191E+03  0.38717930586E+03  0.00000000000E+00 0. -1.
<mgrwt>
<rscale>  1 0.30000000E+03</rscale>
<asrwt>0</asrwt>
<pdfrwt beam="1">  1       21 0.38841185E-02 0.30000000E+03</pdfrwt>
<pdfrwt beam="2">0</pdfrwt>
<totfact> 0.44179826E+04</totfact>
</mgrwt>
</event>
<event>
 6    1  0.8397183E-002  0.3000000E+03  0.7818608E-02  0.1093470E+00
         21   -1    0    0  501  502  0.00000000000E+00  0.00000000000E+00  0.43379784805E+01  0.43379784805E+01  0.00000000000E+00 0. -1.
         13   -1    0    0    0    0 -0.00000000000E+00 -0.00000000000E+00 -0.10000000000E+04  0.10000000000E+04  0.00000000000E+00 0.  1.
    9000005    2    1    2  501    0 -0.18303547820E+02 -0.43442529632E+02 -0.14787948604E+03  0.15524581582E+03  0.32630800794E+01 0.  0.
         13    1    3    3    0    0 -0.44340680834E+01 -0.85469519121E+01 -0.33828044286E+02  0.35171692126E+02  0.00000000000E+00 0.  1.
          3    1    3    3  501    0 -0.13869479737E+02 -0.34895577720E+02 -0.11405144176E+03  0.12007412369E+03  0.00000000000E+00 0.  1.
         -3    1    1    2    0  502  0.18303547820E+02  0.43442529632E+02 -0.84778253547E+03  0.84909216267E+03  0.00000000000E+00 0. -1.
<mgrwt>
<rscale>  1 0.30000000E+03</rscale>
<asrwt>0</asrwt>
<pdfrwt beam="1">  1       21 0.15774500E-01 0.30000000E+03</pdfrwt>
<pdfrwt beam="2">0</pdfrwt>
<totfact> 0.37505404E+03</totfact>
</mgrwt>
</event>
<event>
 6    1  0.8397183E-002  0.3000000E+03  0.7818608E-02  0.1093470E+00
         21   -1    0    0  501  502  0.00000000000E+00  0.00000000000E+00  0.11066076830E+01  0.11066076830E+01  0.00000000000E+00 0. -1.
         13   -1    0    0    0    0 -0.00000000000E+00 -0.00000000000E+00 -0.10000000000E+04  0.10000000000E+04  0.00000000000E+00 0.  1.
    9000005    2    1    2  501    0  0.15308245907E+02 -0.26462832557E+02 -0.30687888369E+03  0.30841713609E+03  0.34433533191E+01 0.  0.
         13    1    3    3    0    0  0.88933576595E+01 -0.13249140571E+02 -0.14619041199E+03  0.14705872328E+03  0.00000000000E+00 0.  1.
          3    1    3    3  501    0  0.64148882471E+01 -0.13213691986E+02 -0.16068847170E+03  0.16135841281E+03  0.00000000000E+00 0.  1.
         -1    1    1    2    0  502 -0.15308245907E+02  0.26462832557E+02 -0.69201450863E+03  0.69268947159E+03  0.00000000000E+00 0. -1.
<mgrwt>
<rscale>  1 0.30000000E+03</rscale>
<asrwt>0</asrwt>
<pdfrwt beam="1">  1       21 0.40240364E-02 0.30000000E+03</pdfrwt>
<pdfrwt beam="2">0</pdfrwt>
<totfact> 0.41625167E+04</totfact>
</mgrwt>
</event>
<event>
 6    1  0.8397183E-002  0.3000000E+03  0.7818608E-02  0.1093470E+00
         21   -1    0    0  501  502  0.00000000000E+00  0.00000000000E+00  0.15257314877E+01  0.15257314877E+01  0.00000000000E+00 0. -1.
         13   -1    0    0    0    0 -0.00000000000E+00 -0.00000000000E+00 -0.10000000000E+04  0.10000000000E+04  0.00000000000E+00 0.  1.
    9000005    2    1    2  501    0 -0.31439360344E+02 -0.22015550364E+02 -0.59024288218E+03  0.59149404659E+03  0.23300956175E+01 0.  0.
         13    1    3    3    0    0 -0.19703876301E+02 -0.14549138657E+02 -0.39064366665E+03  0.39141077459E+03  0.00000000000E+00 0.  1.
          1    1    3    3  501    0 -0.11735484043E+02 -0.74664117075E+01 -0.19959921554E+03  0.20008327200E+03  0.00000000000E+00 0.  1.
         -3    1    1    2    0  502  0.31439360344E+02  0.22015550364E+02 -0.40823138633E+03  0.41003168490E+03  0.00000000000E+00 0. -1.
<mgrwt>
<rscale>  1 0.30000000E+03</rscale>
<asrwt>0</asrwt>
<pdfrwt beam="1">  1       21 0.55481262E-02 0.30000000E+03</pdfrwt>
<pdfrwt beam="2">0</pdfrwt>
<totfact> 0.24111142E+04</totfact>
</mgrwt>
</event>
<event>
 6    1  0.8397183E-002  0.3000000E+03  0.7818608E-02  0.1093470E+00
         21   -1    0    0  501  502  0.00000000000E+00  0.00000000000E+00  0.16469354394E+01  0.16469354394E+01  0.00000000000E+00 0. -1.
         13   -1    0    0    0    0 -0.00000000000E+00 -0.00000000000E+00 -0.10000000000E+04  0.10000000000E+04  0.00000000000E+00 0.  1.
    9000005    2    1    2  501    0 -0.26700095846E+02 -0.29848781413E+02 -0.57592275483E+03  0.57732251775E+03  0.32287920075E+01 0.  0.
         13    1    3    3    0    0 -0.10698296456E+02 -0.10649684469E+02 -0.23583000898E+03  0.23631263712E+03  0.00000000000E+00 0.  1.
          1    1    3    3  501    0 -0.16001799389E+02 -0.19199096944E+02 -0.34009274585E+03  0.34100988063E+03  0.00000000000E+00 0.  1.
         -3    1    1    2    0  502  0.26700095846E+02  0.29848781413E+02 -0.42243030973E+03  0.42432441769E+03  0.00000000000E+00 0. -1.
<mgrwt>
<rscale>  1 0.30000000E+03</rscale>
<asrwt>0</asrwt>
<pdfrwt beam="1">  1       21 0.59888688E-02 0.30000000E+03</pdfrwt>
<pdfrwt beam="2">0</pdfrwt>
<totfact> 0.21139254E+04</totfact>
</mgrwt>
</event>
<event>
 6    1  0.8397183E-002  0.3000000E+03  0.7818608E-02  0.1093470E+00
         21   -1    0    0  501  502  0.00000000000E+00  0.00000000000E+00  0.27206251454E+01  0.27206251454E+01  0.00000000000E+00 0. -1.
         13   -1    0    0    0    0 -0.00000000000E+00 -0.00000000000E+00 -0.10000000000E+04  0.10000000000E+04  0.00000000000E+00 0.  1.
    9000005    2    1    2  501    0  0.51619092274E+02  0.67506439621E+01 -0.51732803824E+03  0.51995423505E+03  0.37423953602E+01 0.  0.
         13    1    3    3    0    0  0.19160743584E+02  0.27425742211E+01 -0.21054433950E+03  0.21143219884E+03  0.00000000000E+00 0.  1.
          1    1    3    3  501    0  0.32458348691E+02  0.40080697410E+01 -0.30678369873E+03  0.30852203622E+03  0.00000000000E+00 0.  1.
         -1    1    1    2    0  502 -0.51619092274E+02 -0.67506439621E+01 -0.47995133662E+03  0.48276639009E+03  0.00000000000E+00 0. -1.
<mgrwt>
<rscale>  1 0.30000000E+03</rscale>
<asrwt>0</asrwt>
<pdfrwt beam="1">  1       21 0.98932032E-02 0.30000000E+03</pdfrwt>
<pdfrwt beam="2">0</pdfrwt>
<totfact> 0.87697945E+03</totfact>
</mgrwt>
</event>
<event>
 6    1  0.8397183E-002  0.3000000E+03  0.7818608E-02  0.1093470E+00
         21   -1    0    0  501  502  0.00000000000E+00  0.00000000000E+00  0.19932388944E+01  0.19932388944E+01  0.00000000000E+00 0. -1.
         13   -1    0    0    0    0 -0.00000000000E+00 -0.00000000000E+00 -0.10000000000E+04  0.10000000000E+04  0.00000000000E+00 0.  1.
    9000005    2    1    2  501    0  0.36584000989E+02  0.12922370387E+02 -0.25304904573E+03  0.25602583044E+03  0.31669418561E+01 0.  0.
         13    1    3    3    0    0  0.14546352385E+02  0.35889569807E+01 -0.10066894957E+03  0.10177776961E+03  0.00000000000E+00 0.  1.
          1    1    3    3  501    0  0.22037648604E+02  0.93334134061E+01 -0.15238009616E+03  0.15424806083E+03  0.00000000000E+00 0.  1.
         -3    1    1    2    0  502 -0.36584000989E+02 -0.12922370387E+02 -0.74495771537E+03  0.74596740846E+03  0.00000000000E+00 0. -1.
<mgrwt>
<rscale>  1 0.30000000E+03</rscale>
<asrwt>0</asrwt>
<pdfrwt beam="1">  1       21 0.72481567E-02 0.30000000E+03</pdfrwt>
<pdfrwt beam="2">0</pdfrwt>
<totfact> 0.15184740E+04</totfact>
</mgrwt>
</event>
<event>
 6    1  0.8397183E-002  0.3000000E+03  0.7818608E-02  0.1093470E+00
         21   -1    0    0  501  502  0.00000000000E+00  0.00000000000E+00  0.25946056422E+01  0.25946056422E+01  0.00000000000E+00 0. -1.
         13   -1    0    0    0    0 -0.00000000000E+00 -0.00000000000E+00 -0.10000000000E+04  0.10000000000E+04  0.00000000000E+00 0.  1.
    9000005    2    1    2  501    0 -0.47423317824E+02 -0.17241815390E+02 -0.56401738690E+03  0.56627887560E+03  0.31465786596E+01 0.  0.
         13    1    3    3    0    0 -0.22991159911E+02 -0.96666608378E+01 -0.28944721360E+03  0.29051975359E+03  0.00000000000E+00 0.  1.
          1    1    3    3  501    0 -0.24432157913E+02 -0.75751545520E+01 -0.27457017330E+03  0.27575912201E+03  0.00000000000E+00 0.  1.
         -1    1    1    2    0  502  0.47423317824E+02  0.17241815390E+02 -0.43338800746E+03  0.43631573004E+03  0.00000000000E+00 0. -1.
<mgrwt>
<rscale>  1 0.30000000E+03</rscale>
<asrwt>0</asrwt>
<pdfrwt beam="1">  1       21 0.94349495E-02 0.30000000E+03</pdfrwt>
<pdfrwt beam="2">0</pdfrwt>
<totfact> 0.95437811E+03</totfact>
</mgrwt>
</event>
<event>
 6    1  0.8397183E-002  0.3000000E+03  0.7818608E-02  0.1093470E+00
         21   -1    0    0  501  502  0.00000000000E+00  0.00000000000E+00  0.47421393102E+01  0.47421393102E+01  0.00000000000E+00 0. -1.
         13   -1    0    0    0    0 -0.00000000000E+00 -0.00000000000E+00 -0.10000000000E+04  0.10000000000E+04  0.00000000000E+00 0.  1.
    9000005    2    1    2  501    0  0.34559661341E+02 -0.25875575238E+02 -0.88887136013E+03  0.88992923461E+03  0.42228137459E+01 0.  0.
         13    1    3    3    0    0  0.30053872268E+02 -0.20770259226E+02 -0.73529845636E+03  0.73620544608E+03  0.00000000000E+00 0.  1.
          3    1    3    3  501    0  0.45057890733E+01 -0.51053160120E+01 -0.15357290377E+03  0.15372378853E+03  0.00000000000E+00 0.  1.
         -3    1    1    2    0  502 -0.34559661341E+02  0.25875575238E+02 -0.10638650056E+03  0.11481290470E+03  0.00000000000E+00 0. -1.
<mgrwt>
<rscale>  1 0.30000000E+03</rscale>
<asrwt>0</asrwt>
<pdfrwt beam="1">  1       21 0.17244179E-01 0.30000000E+03</pdfrwt>
<pdfrwt beam="2">0</pdfrwt>
<totfact> 0.31755022E+03</totfact>
</mgrwt>
</event>
<event>
 6    1  0.8397183E-002  0.3000000E+03  0.7818608E-02  0.1093470E+00
         21   -1    0    0  501  502  0.00000000000E+00  0.00000000000E+00  0.17058959243E+01  0.17058959243E+01  0.00000000000E+00 0. -1.
         13   -1    0    0    0    0 -0.00000000000E+00 -0.00000000000E+00 -0.10000000000E+04  0.10000000000E+04  0.00000000000E+00 0.  1.
    9000005    2    1    2  501    0  0.16355235229E+02  0.36529577880E+02 -0.62041881653E+03  0.62171690040E+03  0.32392225587E+01 0.  0.
         13    1    3    3    0    0  0.15752038023E+02  0.34824015299E+02 -0.58031282991E+03  0.58157013275E+03  0.00000000000E+00 0.  1.
          3    1    3    3  501    0  0.60319720647E+00  0.17055625803E+01 -0.40105986619E+02  0.40146767657E+02  0.00000000000E+00 0.  1.
         -1    1    1    2    0  502 -0.16355235229E+02 -0.36529577880E+02 -0.37787528754E+03  0.37998899552E+03  0.00000000000E+00 0. -1.
<mgrwt>
<rscale>  1 0.30000000E+03</rscale>
<asrwt>0</asrwt>
<pdfrwt beam="1">  1       21 0.62032710E-02 0.30000000E+03</pdfrwt>
<pdfrwt beam="2">0</pdfrwt>
<totfact> 0.19894210E+04</totfact>
</mgrwt>
</event>
<event>
 6    1  0.8397183E-002  0.3000000E+03  0.7818608E-02  0.1093470E+00
         21   -1    0    0  501  502  0.00000000000E+00  0.00000000000E+00  0.23519126229E+01  0.23519126229E+01  0.00000000000E+00 0. -1.
         13   -1    0    0    0    0 -0.00000000000E+00 -0.00000000000E+00 -0.10000000000E+04  0.10000000000E+04  0.00000000000E+00 0.  1.
    9000005    2    1    2  501    0  0.22383865904E+02 -0.40410713721E+02 -0.34906708773E+03  0.35212781560E+03  0.34790159559E+01 0.  0.
         13    1    3    3    0    0  0.17498492164E+02 -0.29323725102E+02 -0.26551519139E+03  0.26770206376E+03  0.00000000000E+00 0.  1.
          1    1    3    3  501    0  0.48853737401E+01 -0.11086988618E+02 -0.83551896333E+02  0.84425751842E+02  0.00000000000E+00 0.  1.
         -3    1    1    2    0  502 -0.22383865904E+02  0.40410713721E+02 -0.64858099965E+03  0.65022409702E+03  0.00000000000E+00 0. -1.
<mgrwt>
<rscale>  1 0.30000000E+03</rscale>
<asrwt>0</asrwt>
<pdfrwt beam="1">  1       21 0.85524276E-02 0.30000000E+03</pdfrwt>
<pdfrwt beam="2">0</pdfrwt>
<totfact> 0.11357415E+04</totfact>
</mgrwt>
</event>
<event>
 6    1  0.8397183E-002  0.3000000E+03  0.7818608E-02  0.1093470E+00
         21   -1    0    0  501  502  0.00000000000E+00  0.00000000000E+00  0.15717028281E+01  0.15717028281E+01  0.00000000000E+00 0. -1.
         13   -1    0    0    0    0 -0.00000000000E+00 -0.00000000000E+00 -0.10000000000E+04  0.10000000000E+04  0.00000000000E+00 0.  1.
    9000005    2    1    2  501    0  0.32587079159E+02  0.23888058321E+01 -0.21929942012E+03  0.22175798714E+03  0.40920744606E+01 0.  0.
         13    1    3    3    0    0  0.26689363296E+02  0.35326049680E+01 -0.17938429148E+03  0.18139328941E+03  0.00000000000E+00 0.  1.
          3    1    3    3  501    0  0.58977158625E+01 -0.11437991359E+01 -0.39915128638E+02  0.40364697733E+02  0.00000000000E+00 0.  1.
         -3    1    1    2    0  502 -0.32587079159E+02 -0.23888058321E+01 -0.77912887705E+03  0.77981371569E+03  0.00000000000E+00 0. -1.
<mgrwt>
<rscale>  1 0.30000000E+03</rscale>
<asrwt>0</asrwt>
<pdfrwt beam="1">  1       21 0.57152951E-02 0.30000000E+03</pdfrwt>
<pdfrwt beam="2">0</pdfrwt>
<totfact> 0.22912426E+04</totfact>
</mgrwt>
</event>
<event>
 6    1  0.8397183E-002  0.3000000E+03  0.7818608E-02  0.1093470E+00
         21   -1    0    0  501  502  0.00000000000E+00  0.00000000000E+00  0.16833045786E+01  0.16833045786E+01  0.00000000000E+00 0. -1.
         13   -1    0    0    0    0 -0.00000000000E+00 -0.00000000000E+00 -0.10000000000E+04  0.10000000000E+04  0.00000000000E+00 0.  1.
    9000005    2    1    2  501    0 -0.25901083402E+02 -0.31464022628E+02 -0.44898668222E+03  0.45084365981E+03  0.31802423870E+01 0.  0.
         13    1    3    3    0    0 -0.77380319495E+01 -0.86792508162E+01 -0.11357070744E+03  0.11416440830E+03  0.00000000000E+00 0.  1.
          1    1    3    3  501    0 -0.18163051453E+02 -0.22784771811E+02 -0.33541597478E+03  0.33667925152E+03  0.00000000000E+00 0.  1.
         -3    1    1    2    0  502  0.25901083402E+02  0.31464022628E+02 -0.54933001320E+03  0.55083964477E+03  0.00000000000E+00 0. -1.
<mgrwt>
<rscale>  1 0.30000000E+03</rscale>
<asrwt>0</asrwt>
<pdfrwt beam="1">  1       21 0.61211205E-02 0.30000000E+03</pdfrwt>
<pdfrwt beam="2">0</pdfrwt>
<totfact> 0.20357451E+04</totfact>
</mgrwt>
</event>
<event>
 6    1  0.8397183E-002  0.3000000E+03  0.7818608E-02  0.1093470E+00
         21   -1    0    0  501  502  0.00000000000E+00  0.00000000000E+00  0.45938256839E+01  0.45938256839E+01  0.00000000000E+00 0. -1.
         13   -1    0    0    0    0 -0.00000000000E+00 -0.00000000000E+00 -0.10000000000E+04  0.10000000000E+04  0.00000000000E+00 0.  1.
    9000005    2    1    2  501    0  0.63526142616E+01 -0.67432275739E+02 -0.50490102896E+03  0.50943449260E+03  0.33144662354E+01 0.  0.
         13    1    3    3    0    0  0.98500684954E+00 -0.39503382566E+01 -0.34271002162E+02  0.34511983426E+02  0.00000000000E+00 0.  1.
          1    1    3    3  501    0  0.53676074121E+01 -0.63481937482E+02 -0.47063002680E+03  0.47492250917E+03  0.00000000000E+00 0.  1.
         -3    1    1    2    0  502 -0.63526142616E+01  0.67432275739E+02 -0.49050514536E+03  0.49515933309E+03  0.00000000000E+00 0. -1.
<mgrwt>
<rscale>  1 0.30000000E+03</rscale>
<asrwt>0</asrwt>
<pdfrwt beam="1">  1       21 0.16704856E-01 0.30000000E+03</pdfrwt>
<pdfrwt beam="2">0</pdfrwt>
<totfact> 0.33701978E+03</totfact>
</mgrwt>
</event>
<event>
 6    1  0.8397183E-002  0.3000000E+03  0.7818608E-02  0.1093470E+00
         21   -1    0    0  501  502  0.00000000000E+00  0.00000000000E+00  0.26320420521E+01  0.26320420521E+01  0.00000000000E+00 0. -1.
         13   -1    0    0    0    0 -0.00000000000E+00 -0.00000000000E+00 -0.10000000000E+04  0.10000000000E+04  0.00000000000E+00 0.  1.
    9000005    2    1    2  501    0  0.26895314990E+02  0.42610663615E+02 -0.40757491001E+03  0.41069043512E+03  0.32093000308E+01 0.  0.
         13    1    3    3    0    0  0.18158171267E+02  0.30949560007E+02 -0.29683086802E+03  0.29899190400E+03  0.00000000000E+00 0.  1.
          1    1    3    3  501    0  0.87371437231E+01  0.11661103609E+02 -0.11074404199E+03  0.11169853112E+03  0.00000000000E+00 0.  1.
         -1    1    1    2    0  502 -0.26895314990E+02 -0.42610663615E+02 -0.58979304794E+03  0.59194160693E+03  0.00000000000E+00 0. -1.
<mgrwt>
<rscale>  1 0.30000000E+03</rscale>
<asrwt>0</asrwt>
<pdfrwt beam="1">  1       21 0.95710822E-02 0.30000000E+03</pdfrwt>
<pdfrwt beam="2">0</pdfrwt>
<totfact> 0.93033112E+03</totfact>
</mgrwt>
</event>
<event>
 6    1  0.8397183E-002  0.3000000E+03  0.7818608E-02  0.1093470E+00
         21   -1    0    0  501  502  0.00000000000E+00  0.00000000000E+00  0.15619552707E+01  0.15619552707E+01  0.00000000000E+00 0. -1.
         13   -1    0    0    0    0 -0.00000000000E+00 -0.00000000000E+00 -0.10000000000E+04  0.10000000000E+04  0.00000000000E+00 0.  1.
    9000005    2    1    2  501    0 -0.27793230001E+02  0.24734323395E+02 -0.33553749519E+03  0.33761814066E+03  0.40432453351E+01 0.  0.
         13    1    3    3    0    0 -0.15331274106E+02  0.13203404845E+02 -0.20020075067E+03  0.20122057160E+03  0.00000000000E+00 0.  1.
          3    1    3    3  501    0 -0.12461955895E+02  0.11530918551E+02 -0.13533674452E+03  0.13639756906E+03  0.00000000000E+00 0.  1.
         -1    1    1    2    0  502  0.27793230001E+02 -0.24734323395E+02 -0.66290054954E+03  0.66394381461E+03  0.00000000000E+00 0. -1.
<mgrwt>
<rscale>  1 0.30000000E+03</rscale>
<asrwt>0</asrwt>
<pdfrwt beam="1">  1       21 0.56798493E-02 0.30000000E+03</pdfrwt>
<pdfrwt beam="2">0</pdfrwt>
<totfact> 0.23158840E+04</totfact>
</mgrwt>
</event>
<event>
 6    1  0.8397183E-002  0.3000000E+03  0.7818608E-02  0.1093470E+00
         21   -1    0    0  501  502  0.00000000000E+00  0.00000000000E+00  0.23591693598E+01  0.23591693598E+01  0.00000000000E+00 0. -1.
         13   -1    0    0    0    0 -0.00000000000E+00 -0.00000000000E+00 -0.10000000000E+04  0.10000000000E+04  0.00000000000E+00 0.  1.
    9000005    2    1    2  501    0  0.48037761723E+02  0.41705408732E+01 -0.44725131561E+03  0.44986153296E+03  0.40791625991E+01 0.  0.
         13    1    3    3    0    0  0.25041825896E+02  0.14756311277E+01 -0.25033284317E+03  0.25158657138E+03  0.00000000000E+00 0.  1.
          1    1    3    3  501    0  0.22995935828E+02  0.26949097455E+01 -0.19691847244E+03  0.19827496158E+03  0.00000000000E+00 0.  1.
         -1    1    1    2    0  502 -0.48037761723E+02 -0.41705408732E+01 -0.55038951503E+03  0.55249763640E+03  0.00000000000E+00 0. -1.
<mgrwt>
<rscale>  1 0.30000000E+03</rscale>
<asrwt>0</asrwt>
<pdfrwt beam="1">  1       21 0.85788158E-02 0.30000000E+03</pdfrwt>
<pdfrwt beam="2">0</pdfrwt>
<totfact> 0.11295849E+04</totfact>
</mgrwt>
</event>
<event>
 6    1  0.8397183E-002  0.3000000E+03  0.7818608E-02  0.1093470E+00
         21   -1    0    0  501  502  0.00000000000E+00  0.00000000000E+00  0.13906578913E+01  0.13906578913E+01  0.00000000000E+00 0. -1.
         13   -1    0    0    0    0 -0.00000000000E+00 -0.00000000000E+00 -0.10000000000E+04  0.10000000000E+04  0.00000000000E+00 0.  1.
    9000005    2    1    2  501    0  0.19820302080E+02 -0.28657161129E+02 -0.32421235064E+03  0.32609414572E+03  0.31090677139E+01 0.  0.
         13    1    3    3    0    0  0.23799903961E+01 -0.52621170886E+01 -0.58435400325E+02  0.58720100832E+02  0.00000000000E+00 0.  1.
          1    1    3    3  501    0  0.17440311684E+02 -0.23395044041E+02 -0.26577695032E+03  0.26737404488E+03  0.00000000000E+00 0.  1.
         -3    1    1    2    0  502 -0.19820302080E+02  0.28657161129E+02 -0.67439699147E+03  0.67529651218E+03  0.00000000000E+00 0. -1.
<mgrwt>
<rscale>  1 0.30000000E+03</rscale>
<asrwt>0</asrwt>
<pdfrwt beam="1">  1       21 0.50569485E-02 0.30000000E+03</pdfrwt>
<pdfrwt beam="2">0</pdfrwt>
<totfact> 0.28253716E+04</totfact>
</mgrwt>
</event>
<event>
 6    1  0.8397183E-002  0.3000000E+03  0.7818608E-02  0.1093470E+00
         21   -1    0    0  501  502  0.00000000000E+00  0.00000000000E+00  0.25770455306E+01  0.25770455306E+01  0.00000000000E+00 0. -1.
         13   -1    0    0    0    0 -0.00000000000E+00 -0.00000000000E+00 -0.10000000000E+04  0.10000000000E+04  0.00000000000E+00 0.  1.
    9000005    2    1    2  501    0  0.42663764714E+02  0.92859567978E+01 -0.75282189661E+03  0.75410953595E+03  0.58273815863E+01 0.  0.
         13    1    3    3    0    0  0.31948408443E+02  0.94053006049E+01 -0.55741125249E+03  0.55840528730E+03  0.00000000000E+00 0.  1.
          1    1    3    3  501    0  0.10715356270E+02 -0.11934380707E+00 -0.19541064412E+03  0.19570424865E+03  0.00000000000E+00 0.  1.
         -1    1    1    2    0  502 -0.42663764714E+02 -0.92859567978E+01 -0.24460105786E+03  0.24846750958E+03  0.00000000000E+00 0. -1.
<mgrwt>
<rscale>  1 0.30000000E+03</rscale>
<asrwt>0</asrwt>
<pdfrwt beam="1">  1       21 0.93710944E-02 0.30000000E+03</pdfrwt>
<pdfrwt beam="2">0</pdfrwt>
<totfact> 0.96598036E+03</totfact>
</mgrwt>
</event>
<event>
 6    1  0.8397183E-002  0.3000000E+03  0.7818608E-02  0.1093470E+00
         21   -1    0    0  501  502  0.00000000000E+00  0.00000000000E+00  0.68091464358E+01  0.68091464358E+01  0.00000000000E+00 0. -1.
         13   -1    0    0    0    0 -0.00000000000E+00 -0.00000000000E+00 -0.10000000000E+04  0.10000000000E+04  0.00000000000E+00 0.  1.
    9000005    2    1    2  501    0  0.10304725901E+02 -0.52533453306E+02 -0.11397370754E+03  0.12596367704E+03  0.33001258733E+01 0.  0.
         13    1    3    3    0    0  0.74469317680E+01 -0.41840446196E+02 -0.92941095547E+02  0.10219651155E+03  0.00000000000E+00 0.  1.
          1    1    3    3  501    0  0.28577941334E+01 -0.10693007110E+02 -0.21032611989E+02  0.23767165490E+02  0.00000000000E+00 0.  1.
         -1    1    1    2    0  502 -0.10304725901E+02  0.52533453306E+02 -0.87921714603E+03  0.88084546940E+03  0.00000000000E+00 0. -1.
<mgrwt>
<rscale>  1 0.30000000E+03</rscale>
<asrwt>0</asrwt>
<pdfrwt beam="1">  1       21 0.24760585E-01 0.30000000E+03</pdfrwt>
<pdfrwt beam="2">0</pdfrwt>
<totfact> 0.15892277E+03</totfact>
</mgrwt>
</event>
<event>
 6    1  0.8397183E-002  0.3000000E+03  0.7818608E-02  0.1093470E+00
         21   -1    0    0  501  502  0.00000000000E+00  0.00000000000E+00  0.40022905815E+01  0.40022905815E+01  0.00000000000E+00 0. -1.
         13   -1    0    0    0    0 -0.00000000000E+00 -0.00000000000E+00 -0.10000000000E+04  0.10000000000E+04  0.00000000000E+00 0.  1.
    9000005    2    1    2  501    0 -0.20362660968E+02  0.59673189624E+02 -0.47162489498E+03  0.47585233456E+03  0.54658230211E+01 0.  0.
         13    1    3    3    0    0 -0.80036361891E-02  0.13447951266E+01 -0.61206531861E+01  0.62666524888E+01  0.00000000000E+00 0.  1.
          1    1    3    3  501    0 -0.20354657332E+02  0.58328394497E+02 -0.46550424180E+03  0.46958568207E+03  0.00000000000E+00 0.  1.
         -1    1    1    2    0  502  0.20362660968E+02 -0.59673189624E+02 -0.52437281444E+03  0.52814995602E+03  0.00000000000E+00 0. -1.
<mgrwt>
<rscale>  1 0.30000000E+03</rscale>
<asrwt>0</asrwt>
<pdfrwt beam="1">  1       21 0.14553815E-01 0.30000000E+03</pdfrwt>
<pdfrwt beam="2">0</pdfrwt>
<totfact> 0.43543278E+03</totfact>
</mgrwt>
</event>
<event>
 6    1  0.8397183E-002  0.3000000E+03  0.7818608E-02  0.1093470E+00
         21   -1    0    0  501  502  0.00000000000E+00  0.00000000000E+00  0.17270789618E+01  0.17270789618E+01  0.00000000000E+00 0. -1.
         13   -1    0    0    0    0 -0.00000000000E+00 -0.00000000000E+00 -0.10000000000E+04  0.10000000000E+04  0.00000000000E+00 0.  1.
    9000005    2    1    2  501    0 -0.35277687077E+02 -0.32544081649E+01 -0.76016519849E+03  0.76099819844E+03  0.34673711243E+01 0.  0.
         13    1    3    3    0    0 -0.19022748923E+01 -0.33072069299E+00 -0.27726131858E+02  0.27793280011E+02  0.00000000000E+00 0.  1.
          1    1    3    3  501    0 -0.33375412185E+02 -0.29236874719E+01 -0.73243906663E+03  0.73320491843E+03  0.00000000000E+00 0.  1.
         -3    1    1    2    0  502  0.35277687077E+02  0.32544081649E+01 -0.23810772255E+03  0.24072888052E+03  0.00000000000E+00 0. -1.
<mgrwt>
<rscale>  1 0.30000000E+03</rscale>
<asrwt>0</asrwt>
<pdfrwt beam="1">  1       21 0.62803004E-02 0.30000000E+03</pdfrwt>
<pdfrwt beam="2">0</pdfrwt>
<totfact> 0.19474537E+04</totfact>
</mgrwt>
</event>
<event>
 6    1  0.8397183E-002  0.3000000E+03  0.7818608E-02  0.1093470E+00
         21   -1    0    0  501  502  0.00000000000E+00  0.00000000000E+00  0.12151506728E+01  0.12151506728E+01  0.00000000000E+00 0. -1.
         13   -1    0    0    0    0 -0.00000000000E+00 -0.00000000000E+00 -0.10000000000E+04  0.10000000000E+04  0.00000000000E+00 0.  1.
    9000005    2    1    2  501    0 -0.43425496088E+01 -0.34054345206E+02 -0.58267628955E+03  0.58369282829E+03  0.26651892949E+01 0.  0.
         13    1    3    3    0    0 -0.27325308588E+01 -0.25881377163E+02 -0.42385892844E+03  0.42465716011E+03  0.00000000000E+00 0.  1.
          1    1    3    3  501    0 -0.16100187500E+01 -0.81729680427E+01 -0.15881736110E+03  0.15903566818E+03  0.00000000000E+00 0.  1.
         -1    1    1    2    0  502  0.43425496088E+01  0.34054345206E+02 -0.41610855978E+03  0.41752232238E+03  0.00000000000E+00 0. -1.
<mgrwt>
<rscale>  1 0.30000000E+03</rscale>
<asrwt>0</asrwt>
<pdfrwt beam="1">  1       21 0.44187390E-02 0.30000000E+03</pdfrwt>
<pdfrwt beam="2">0</pdfrwt>
<totfact> 0.35539589E+04</totfact>
</mgrwt>
</event>
<event>
 6    1  0.8397183E-002  0.3000000E+03  0.7818608E-02  0.1093470E+00
         21   -1    0    0  501  502  0.00000000000E+00  0.00000000000E+00  0.19746719609E+01  0.19746719609E+01  0.00000000000E+00 0. -1.
         13   -1    0    0    0    0 -0.00000000000E+00 -0.00000000000E+00 -0.10000000000E+04  0.10000000000E+04  0.00000000000E+00 0.  1.
    9000005    2    1    2  501    0 -0.34570412721E+02 -0.83352880961E+01 -0.19977765743E+03  0.20293528989E+03  0.26512284231E+01 0.  0.
         13    1    3    3    0    0 -0.29300254259E+01  0.37594700008E-01 -0.16476891287E+02  0.16735423772E+02  0.00000000000E+00 0.  1.
          1    1    3    3  501    0 -0.31640387295E+02 -0.83728827961E+01 -0.18330076614E+03  0.18619986612E+03  0.00000000000E+00 0.  1.
         -3    1    1    2    0  502  0.34570412721E+02  0.83352880961E+01 -0.79824767061E+03  0.79903938207E+03  0.00000000000E+00 0. -1.
<mgrwt>
<rscale>  1 0.30000000E+03</rscale>
<asrwt>0</asrwt>
<pdfrwt beam="1">  1       21 0.71806405E-02 0.30000000E+03</pdfrwt>
<pdfrwt beam="2">0</pdfrwt>
<totfact> 0.15434733E+04</totfact>
</mgrwt>
</event>
<event>
 6    1  0.8397183E-002  0.3000000E+03  0.7818608E-02  0.1093470E+00
         21   -1    0    0  501  502  0.00000000000E+00  0.00000000000E+00  0.18178966614E+01  0.18178966614E+01  0.00000000000E+00 0. -1.
         13   -1    0    0    0    0 -0.00000000000E+00 -0.00000000000E+00 -0.10000000000E+04  0.10000000000E+04  0.00000000000E+00 0.  1.
    9000005    2    1    2  501    0  0.42009746379E+02  0.49281321618E+01 -0.55719951133E+03  0.55881140491E+03  0.31281873431E+01 0.  0.
         13    1    3    3    0    0  0.28010107509E+02  0.42522099012E+01 -0.38719009968E+03  0.38822521904E+03  0.00000000000E+00 0.  1.
          1    1    3    3  501    0  0.13999638870E+02  0.67592226066E+00 -0.17000941166E+03  0.17058618587E+03  0.00000000000E+00 0.  1.
         -3    1    1    2    0  502 -0.42009746379E+02 -0.49281321618E+01 -0.44098259201E+03  0.44300649175E+03  0.00000000000E+00 0. -1.
<mgrwt>
<rscale>  1 0.30000000E+03</rscale>
<asrwt>0</asrwt>
<pdfrwt beam="1">  1       21 0.66105473E-02 0.30000000E+03</pdfrwt>
<pdfrwt beam="2">0</pdfrwt>
<totfact> 0.17821730E+04</totfact>
</mgrwt>
</event>
<event>
 6    1  0.8397183E-002  0.3000000E+03  0.7818608E-02  0.1093470E+00
         21   -1    0    0  501  502  0.00000000000E+00  0.00000000000E+00  0.12347845067E+01  0.12347845067E+01  0.00000000000E+00 0. -1.
         13   -1    0    0    0    0 -0.00000000000E+00 -0.00000000000E+00 -0.10000000000E+04  0.10000000000E+04  0.00000000000E+00 0.  1.
    9000005    2    1    2  501    0 -0.42780887155E+01  0.34116466695E+02 -0.59935594697E+03  0.60034826798E+03  0.28733894710E+01 0.  0.
         13    1    3    3    0    0 -0.24388720024E+01  0.15339571728E+02 -0.29403969467E+03  0.29444964357E+03  0.00000000000E+00 0.  1.
          3    1    3    3  501    0 -0.18392167131E+01  0.18776894968E+02 -0.30531625230E+03  0.30589862442E+03  0.00000000000E+00 0.  1.
         -1    1    1    2    0  502  0.42780887155E+01 -0.34116466695E+02 -0.39940926853E+03  0.40088651652E+03  0.00000000000E+00 0. -1.
<mgrwt>
<rscale>  1 0.30000000E+03</rscale>
<asrwt>0</asrwt>
<pdfrwt beam="1">  1       21 0.44901349E-02 0.30000000E+03</pdfrwt>
<pdfrwt beam="2">0</pdfrwt>
<totfact> 0.34586742E+04</totfact>
</mgrwt>
</event>
<event>
 6    1  0.8397183E-002  0.3000000E+03  0.7818608E-02  0.1093470E+00
         21   -1    0    0  501  502  0.00000000000E+00  0.00000000000E+00  0.14515253053E+01  0.14515253053E+01  0.00000000000E+00 0. -1.
         13   -1    0    0    0    0 -0.00000000000E+00 -0.00000000000E+00 -0.10000000000E+04  0.10000000000E+04  0.00000000000E+00 0.  1.
    9000005    2    1    2  501    0  0.18288904370E+02  0.27829439851E+02 -0.74132032453E+03  0.74207673281E+03  0.36182964705E+01 0.  0.
         13    1    3    3    0    0  0.13959019580E+02  0.22561135629E+02 -0.55969677829E+03  0.56032521154E+03  0.00000000000E+00 0.  1.
          3    1    3    3  501    0  0.43298847897E+01  0.52683042227E+01 -0.18162354625E+03  0.18175152127E+03  0.00000000000E+00 0.  1.
         -3    1    1    2    0  502 -0.18288904370E+02 -0.27829439851E+02 -0.25722815016E+03  0.25937479249E+03  0.00000000000E+00 0. -1.
<mgrwt>
<rscale>  1 0.30000000E+03</rscale>
<asrwt>0</asrwt>
<pdfrwt beam="1">  1       21 0.52782850E-02 0.30000000E+03</pdfrwt>
<pdfrwt beam="2">0</pdfrwt>
<totfact> 0.26260593E+04</totfact>
</mgrwt>
</event>
<event>
 6    1  0.8397183E-002  0.3000000E+03  0.7818608E-02  0.1093470E+00
         21   -1    0    0  501  502  0.00000000000E+00  0.00000000000E+00  0.10140798726E+01  0.10140798726E+01  0.00000000000E+00 0. -1.
         13   -1    0    0    0    0 -0.00000000000E+00 -0.00000000000E+00 -0.10000000000E+04  0.10000000000E+04  0.00000000000E+00 0.  1.
    9000005    2    1    2  501    0 -0.30721560787E+02 -0.79766599732E+01 -0.52370287280E+03  0.52467237849E+03  0.29940553308E+01 0.  0.
         13    1    3    3    0    0 -0.24555674987E+01 -0.15170281850E+01 -0.47208809114E+02  0.47296964429E+02  0.00000000000E+00 0.  1.
          1    1    3    3  501    0 -0.28265993288E+02 -0.64596317882E+01 -0.47649406369E+03  0.47737541406E+03  0.00000000000E+00 0.  1.
         -1    1    1    2    0  502  0.30721560787E+02  0.79766599732E+01 -0.47528304732E+03  0.47634170138E+03  0.00000000000E+00 0. -1.
<mgrwt>
<rscale>  1 0.30000000E+03</rscale>
<asrwt>0</asrwt>
<pdfrwt beam="1">  1       21 0.36875709E-02 0.30000000E+03</pdfrwt>
<pdfrwt beam="2">0</pdfrwt>
<totfact> 0.48206917E+04</totfact>
</mgrwt>
</event>
<event>
 6    1  0.8397183E-002  0.3000000E+03  0.7818608E-02  0.1093470E+00
         21   -1    0    0  501  502  0.00000000000E+00  0.00000000000E+00  0.13980673856E+02  0.13980673856E+02  0.00000000000E+00 0. -1.
         13   -1    0    0    0    0 -0.00000000000E+00 -0.00000000000E+00 -0.10000000000E+04  0.10000000000E+04  0.00000000000E+00 0.  1.
    9000005    2    1    2  501    0  0.27250743101E+02 -0.10699112848E+03 -0.31193602320E+03  0.33091552039E+03  0.33607276902E+01 0.  0.
         13    1    3    3    0    0  0.20768917931E+02 -0.86480008539E+02 -0.25277033225E+03  0.26796078201E+03  0.00000000000E+00 0.  1.
          1    1    3    3  501    0  0.64818251704E+01 -0.20511119945E+02 -0.59165690949E+02  0.62954738379E+02  0.00000000000E+00 0.  1.
         -1    1    1    2    0  502 -0.27250743101E+02  0.10699112848E+03 -0.67408330295E+03  0.68306515347E+03  0.00000000000E+00 0. -1.
<mgrwt>
<rscale>  1 0.30000000E+03</rscale>
<asrwt>0</asrwt>
<pdfrwt beam="1">  1       21 0.50838921E-01 0.30000000E+03</pdfrwt>
<pdfrwt beam="2">0</pdfrwt>
<totfact> 0.36238980E+02</totfact>
</mgrwt>
</event>
<event>
 6    1  0.8397183E-002  0.3000000E+03  0.7818608E-02  0.1093470E+00
         21   -1    0    0  501  502  0.00000000000E+00  0.00000000000E+00  0.85081441100E+01  0.85081441100E+01  0.00000000000E+00 0. -1.
         13   -1    0    0    0    0 -0.00000000000E+00 -0.00000000000E+00 -0.10000000000E+04  0.10000000000E+04  0.00000000000E+00 0.  1.
    9000005    2    1    2  501    0 -0.80593526483E+02  0.42909706752E+02 -0.56631613041E+03  0.57363924779E+03  0.33863851140E+01 0.  0.
         13    1    3    3    0    0 -0.21320122925E+02  0.12778230977E+02 -0.15934402436E+03  0.16127104182E+03  0.00000000000E+00 0.  1.
          3    1    3    3  501    0 -0.59273403558E+02  0.30131475774E+02 -0.40697210604E+03  0.41236820597E+03  0.00000000000E+00 0.  1.
         -3    1    1    2    0  502  0.80593526483E+02 -0.42909706752E+02 -0.42517572548E+03  0.43486889632E+03  0.00000000000E+00 0. -1.
<mgrwt>
<rscale>  1 0.30000000E+03</rscale>
<asrwt>0</asrwt>
<pdfrwt beam="1">  1       21 0.30938771E-01 0.30000000E+03</pdfrwt>
<pdfrwt beam="2">0</pdfrwt>
<totfact> 0.10221384E+03</totfact>
</mgrwt>
</event>
<event>
 6    1  0.8397183E-002  0.3000000E+03  0.7818608E-02  0.1093470E+00
         21   -1    0    0  501  502  0.00000000000E+00  0.00000000000E+00  0.24352744824E+01  0.24352744824E+01  0.00000000000E+00 0. -1.
         13   -1    0    0    0    0 -0.00000000000E+00 -0.00000000000E+00 -0.10000000000E+04  0.10000000000E+04  0.00000000000E+00 0.  1.
    9000005    2    1    2  501    0 -0.46357280358E+02  0.98340214923E+01 -0.63706963691E+03  0.63883877514E+03  0.33989607559E+01 0.  0.
         13    1    3    3    0    0 -0.30333110903E+02  0.47950231261E+01 -0.41526910587E+03  0.41640307415E+03  0.00000000000E+00 0.  1.
          1    1    3    3  501    0 -0.16024169455E+02  0.50389983662E+01 -0.22180053104E+03  0.22243570100E+03  0.00000000000E+00 0.  1.
         -1    1    1    2    0  502  0.46357280358E+02 -0.98340214923E+01 -0.36049508861E+03  0.36359649934E+03  0.00000000000E+00 0. -1.
<mgrwt>
<rscale>  1 0.30000000E+03</rscale>
<asrwt>0</asrwt>
<pdfrwt beam="1">  1       21 0.88555622E-02 0.30000000E+03</pdfrwt>
<pdfrwt beam="2">0</pdfrwt>
<totfact> 0.10679643E+04</totfact>
</mgrwt>
</event>
<event>
 6    1  0.8397183E-002  0.3000000E+03  0.7818608E-02  0.1093470E+00
         21   -1    0    0  501  502  0.00000000000E+00  0.00000000000E+00  0.19251346288E+01  0.19251346288E+01  0.00000000000E+00 0. -1.
         13   -1    0    0    0    0 -0.00000000000E+00 -0.00000000000E+00 -0.10000000000E+04  0.10000000000E+04  0.00000000000E+00 0.  1.
    9000005    2    1    2  501    0 -0.36616457264E+02  0.32434536219E+01 -0.22759903299E+03  0.23057288487E+03  0.33541738930E+01 0.  0.
         13    1    3    3    0    0 -0.18211886736E+02  0.10711502100E+00 -0.10770865719E+03  0.10923753533E+03  0.00000000000E+00 0.  1.
          1    1    3    3  501    0 -0.18404570528E+02  0.31363386009E+01 -0.11989037580E+03  0.12133534953E+03  0.00000000000E+00 0.  1.
         -3    1    1    2    0  502  0.36616457264E+02 -0.32434536219E+01 -0.77047583238E+03  0.77135224976E+03  0.00000000000E+00 0. -1.
<mgrwt>
<rscale>  1 0.30000000E+03</rscale>
<asrwt>0</asrwt>
<pdfrwt beam="1">  1       21 0.70005043E-02 0.30000000E+03</pdfrwt>
<pdfrwt beam="2">0</pdfrwt>
<totfact> 0.16133264E+04</totfact>
</mgrwt>
</event>
<event>
 6    1  0.8397183E-002  0.3000000E+03  0.7818608E-02  0.1093470E+00
         21   -1    0    0  501  502  0.00000000000E+00  0.00000000000E+00  0.17633577383E+01  0.17633577383E+01  0.00000000000E+00 0. -1.
         13   -1    0    0    0    0 -0.00000000000E+00 -0.00000000000E+00 -0.10000000000E+04  0.10000000000E+04  0.00000000000E+00 0.  1.
    9000005    2    1    2  501    0  0.18626225407E+02  0.32227588968E+02 -0.26960809851E+03  0.27218463784E+03  0.32243648233E+01 0.  0.
         13    1    3    3    0    0  0.11008604655E+01  0.38932750305E+01 -0.28883087023E+02  0.29165085294E+02  0.00000000000E+00 0.  1.
          1    1    3    3  501    0  0.17525364941E+02  0.28334313937E+02 -0.24072501149E+03  0.24301955254E+03  0.00000000000E+00 0.  1.
         -3    1    1    2    0  502 -0.18626225407E+02 -0.32227588968E+02 -0.72862854375E+03  0.72957871990E+03  0.00000000000E+00 0. -1.
<mgrwt>
<rscale>  1 0.30000000E+03</rscale>
<asrwt>0</asrwt>
<pdfrwt beam="1">  1       21 0.64122235E-02 0.30000000E+03</pdfrwt>
<pdfrwt beam="2">0</pdfrwt>
<totfact> 0.18786960E+04</totfact>
</mgrwt>
</event>
<event>
 6    1  0.8397183E-002  0.3000000E+03  0.7818608E-02  0.1093470E+00
         21   -1    0    0  501  502  0.00000000000E+00  0.00000000000E+00  0.46373817447E+01  0.46373817447E+01  0.00000000000E+00 0. -1.
         13   -1    0    0    0    0 -0.00000000000E+00 -0.00000000000E+00 -0.10000000000E+04  0.10000000000E+04  0.00000000000E+00 0.  1.
    9000005    2    1    2  501    0  0.44778620788E+02 -0.37733886551E+02 -0.75386798723E+03  0.75614466980E+03  0.29746307257E+01 0.  0.
         13    1    3    3    0    0  0.43326275794E+02 -0.35866409550E+02 -0.72723035841E+03  0.72940219338E+03  0.00000000000E+00 0.  1.
          1    1    3    3  501    0  0.14523449934E+01 -0.18674770018E+01 -0.26637628814E+02  0.26742476422E+02  0.00000000000E+00 0.  1.
         -1    1    1    2    0  502 -0.44778620788E+02  0.37733886551E+02 -0.24149463103E+03  0.24849271194E+03  0.00000000000E+00 0. -1.
<mgrwt>
<rscale>  1 0.30000000E+03</rscale>
<asrwt>0</asrwt>
<pdfrwt beam="1">  1       21 0.16863242E-01 0.30000000E+03</pdfrwt>
<pdfrwt beam="2">0</pdfrwt>
<totfact> 0.33112188E+03</totfact>
</mgrwt>
</event>
<event>
 6    1  0.8397183E-002  0.3000000E+03  0.7818608E-02  0.1093470E+00
         21   -1    0    0  501  502  0.00000000000E+00  0.00000000000E+00  0.17886657230E+01  0.17886657230E+01  0.00000000000E+00 0. -1.
         13   -1    0    0    0    0 -0.00000000000E+00 -0.00000000000E+00 -0.10000000000E+04  0.10000000000E+04  0.00000000000E+00 0.  1.
    9000005    2    1    2  501    0 -0.13898752093E+02 -0.35765045656E+02 -0.30211630795E+03  0.30463688923E+03  0.75536047873E+01 0.  0.
         13    1    3    3    0    0 -0.73273929408E+01 -0.27807119991E+02 -0.22751065859E+03  0.22932079361E+03  0.00000000000E+00 0.  1.
          1    1    3    3  501    0 -0.65713591524E+01 -0.79579256655E+01 -0.74605649360E+02  0.75316095613E+02  0.00000000000E+00 0.  1.
         -1    1    1    2    0  502  0.13898752093E+02  0.35765045656E+02 -0.69609502632E+03  0.69715177650E+03  0.00000000000E+00 0. -1.
<mgrwt>
<rscale>  1 0.30000000E+03</rscale>
<asrwt>0</asrwt>
<pdfrwt beam="1">  1       21 0.65042527E-02 0.30000000E+03</pdfrwt>
<pdfrwt beam="2">0</pdfrwt>
<totfact> 0.18329277E+04</totfact>
</mgrwt>
</event>
<event>
 6    1  0.8397183E-002  0.3000000E+03  0.7818608E-02  0.1093470E+00
         21   -1    0    0  501  502  0.00000000000E+00  0.00000000000E+00  0.27836887773E+01  0.27836887773E+01  0.00000000000E+00 0. -1.
         13   -1    0    0    0    0 -0.00000000000E+00 -0.00000000000E+00 -0.10000000000E+04  0.10000000000E+04  0.00000000000E+00 0.  1.
    9000005    2    1    2  501    0 -0.22717160791E+01 -0.46724890219E+02 -0.72992745380E+03  0.73143205461E+03  0.32228323155E+01 0.  0.
         13    1    3    3    0    0 -0.30291830912E+01 -0.40070629613E+02 -0.63050856247E+03  0.63178784307E+03  0.00000000000E+00 0.  1.
          3    1    3    3  501    0  0.75746701209E+00 -0.66542606056E+01 -0.99418891331E+02  0.99644211543E+02  0.00000000000E+00 0.  1.
         -3    1    1    2    0  502  0.22717160791E+01  0.46724890219E+02 -0.26728885743E+03  0.27135163416E+03  0.00000000000E+00 0. -1.
<mgrwt>
<rscale>  1 0.30000000E+03</rscale>
<asrwt>0</asrwt>
<pdfrwt beam="1">  1       21 0.10122526E-01 0.30000000E+03</pdfrwt>
<pdfrwt beam="2">0</pdfrwt>
<totfact> 0.84179438E+03</totfact>
</mgrwt>
</event>
<event>
 6    1  0.8397183E-002  0.3000000E+03  0.7818608E-02  0.1093470E+00
         21   -1    0    0  501  502  0.00000000000E+00  0.00000000000E+00  0.17690745472E+01  0.17690745472E+01  0.00000000000E+00 0. -1.
         13   -1    0    0    0    0 -0.00000000000E+00 -0.00000000000E+00 -0.10000000000E+04  0.10000000000E+04  0.00000000000E+00 0.  1.
    9000005    2    1    2  501    0  0.41563902076E+02  0.30410853628E+01 -0.56393366897E+03  0.56547684089E+03  0.24634195252E+01 0.  0.
         13    1    3    3    0    0  0.23585374376E+01  0.72182028236E+00 -0.35910196192E+02  0.35994803985E+02  0.00000000000E+00 0.  1.
          1    1    3    3  501    0  0.39205364638E+02  0.23192650804E+01 -0.52802347277E+03  0.52948203691E+03  0.00000000000E+00 0.  1.
         -3    1    1    2    0  502 -0.41563902076E+02 -0.30410853628E+01 -0.43429725649E+03  0.43629223366E+03  0.00000000000E+00 0. -1.
<mgrwt>
<rscale>  1 0.30000000E+03</rscale>
<asrwt>0</asrwt>
<pdfrwt beam="1">  1       21 0.64330119E-02 0.30000000E+03</pdfrwt>
<pdfrwt beam="2">0</pdfrwt>
<totfact> 0.18682042E+04</totfact>
</mgrwt>
</event>
<event>
 6    1  0.8397183E-002  0.3000000E+03  0.7818608E-02  0.1093470E+00
         21   -1    0    0  501  502  0.00000000000E+00  0.00000000000E+00  0.11908871229E+01  0.11908871229E+01  0.00000000000E+00 0. -1.
         13   -1    0    0    0    0 -0.00000000000E+00 -0.00000000000E+00 -0.10000000000E+04  0.10000000000E+04  0.00000000000E+00 0.  1.
    9000005    2    1    2  501    0 -0.27747843888E+02 -0.14178363569E+02 -0.71096198001E+03  0.71166206173E+03  0.49984248624E+01 0.  0.
         13    1    3    3    0    0 -0.30651785174E+01 -0.89249581304E-01 -0.84792672941E+02  0.84848103511E+02  0.00000000000E+00 0.  1.
          1    1    3    3  501    0 -0.24682665371E+02 -0.14089113988E+02 -0.62616930707E+03  0.62681395822E+03  0.00000000000E+00 0.  1.
         -1    1    1    2    0  502  0.27747843888E+02  0.14178363569E+02 -0.28784713287E+03  0.28952882539E+03  0.00000000000E+00 0. -1.
<mgrwt>
<rscale>  1 0.30000000E+03</rscale>
<asrwt>0</asrwt>
<pdfrwt beam="1">  1       21 0.43305078E-02 0.30000000E+03</pdfrwt>
<pdfrwt beam="2">0</pdfrwt>
<totfact> 0.36774306E+04</totfact>
</mgrwt>
</event>
<event>
 6    1  0.8397183E-002  0.3000000E+03  0.7818608E-02  0.1093470E+00
         21   -1    0    0  501  502  0.00000000000E+00  0.00000000000E+00  0.36223871677E+01  0.36223871677E+01  0.00000000000E+00 0. -1.
         13   -1    0    0    0    0 -0.00000000000E+00 -0.00000000000E+00 -0.10000000000E+04  0.10000000000E+04  0.00000000000E+00 0.  1.
    9000005    2    1    2  501    0 -0.41129032459E+02  0.13768319032E+02 -0.15166276449E+03  0.15779478125E+03  0.40540026560E+01 0.  0.
         13    1    3    3    0    0 -0.19043967062E+02  0.42739145136E+01 -0.69070420092E+02  0.71775078950E+02  0.00000000000E+00 0.  1.
          3    1    3    3  501    0 -0.22085065397E+02  0.94944045188E+01 -0.82592344399E+02  0.86019702302E+02  0.00000000000E+00 0.  1.
         -3    1    1    2    0  502  0.41129032459E+02 -0.13768319032E+02 -0.84471484834E+03  0.84582760592E+03  0.00000000000E+00 0. -1.
<mgrwt>
<rscale>  1 0.30000000E+03</rscale>
<asrwt>0</asrwt>
<pdfrwt beam="1">  1       21 0.13172345E-01 0.30000000E+03</pdfrwt>
<pdfrwt beam="2">0</pdfrwt>
<totfact> 0.52291729E+03</totfact>
</mgrwt>
</event>
<event>
 6    1  0.8397183E-002  0.3000000E+03  0.7818608E-02  0.1093470E+00
         21   -1    0    0  501  502  0.00000000000E+00  0.00000000000E+00  0.39044529320E+01  0.39044529320E+01  0.00000000000E+00 0. -1.
         13   -1    0    0    0    0 -0.00000000000E+00 -0.00000000000E+00 -0.10000000000E+04  0.10000000000E+04  0.00000000000E+00 0.  1.
    9000005    2    1    2  501    0  0.55653197605E+02 -0.27835553690E+02 -0.45716529572E+03  0.46139370440E+03  0.34563561357E+01 0.  0.
         13    1    3    3    0    0  0.29168965229E+02 -0.15943023128E+02 -0.25309914383E+03  0.25527276612E+03  0.00000000000E+00 0.  1.
          1    1    3    3  501    0  0.26484232376E+02 -0.11892530561E+02 -0.20406615189E+03  0.20612093827E+03  0.00000000000E+00 0.  1.
         -1    1    1    2    0  502 -0.55653197605E+02  0.27835553690E+02 -0.53893025135E+03  0.54251074853E+03  0.00000000000E+00 0. -1.
<mgrwt>
<rscale>  1 0.30000000E+03</rscale>
<asrwt>0</asrwt>
<pdfrwt beam="1">  1       21 0.14198041E-01 0.30000000E+03</pdfrwt>
<pdfrwt beam="2">0</pdfrwt>
<totfact> 0.45574442E+03</totfact>
</mgrwt>
</event>
<event>
 6    1  0.8397183E-002  0.3000000E+03  0.7818608E-02  0.1093470E+00
         21   -1    0    0  501  502  0.00000000000E+00  0.00000000000E+00  0.30024109162E+01  0.30024109162E+01  0.00000000000E+00 0. -1.
         13   -1    0    0    0    0 -0.00000000000E+00 -0.00000000000E+00 -0.10000000000E+04  0.10000000000E+04  0.00000000000E+00 0.  1.
    9000005    2    1    2  501    0 -0.16113009948E+02  0.30453087744E+02 -0.88833657087E+03  0.88901014573E+03  0.31869147383E+01 0.  0.
         13    1    3    3    0    0 -0.61519255108E+00  0.29340227767E+01 -0.69020504950E+02  0.69085577765E+02  0.00000000000E+00 0.  1.
          1    1    3    3  501    0 -0.15497817397E+02  0.27519064967E+02 -0.81931606592E+03  0.81992456797E+03  0.00000000000E+00 0.  1.
         -1    1    1    2    0  502  0.16113009948E+02 -0.30453087744E+02 -0.10866101821E+03  0.11399226519E+03  0.00000000000E+00 0. -1.
<mgrwt>
<rscale>  1 0.30000000E+03</rscale>
<asrwt>0</asrwt>
<pdfrwt beam="1">  1       21 0.10917881E-01 0.30000000E+03</pdfrwt>
<pdfrwt beam="2">0</pdfrwt>
<totfact> 0.73504220E+03</totfact>
</mgrwt>
</event>
<event>
 6    1  0.8397183E-002  0.3000000E+03  0.7818608E-02  0.1093470E+00
         21   -1    0    0  501  502  0.00000000000E+00  0.00000000000E+00  0.24465932675E+01  0.24465932675E+01  0.00000000000E+00 0. -1.
         13   -1    0    0    0    0 -0.00000000000E+00 -0.00000000000E+00 -0.10000000000E+04  0.10000000000E+04  0.00000000000E+00 0.  1.
    9000005    2    1    2  501    0  0.44085639764E+02 -0.22219471244E+02 -0.51301954527E+03  0.51540418091E+03  0.38945256278E+01 0.  0.
         13    1    3    3    0    0  0.23402232846E+02 -0.99077287760E+01 -0.25332047218E+03  0.25459200541E+03  0.00000000000E+00 0.  1.
          1    1    3    3  501    0  0.20683406918E+02 -0.12311742469E+02 -0.25969907309E+03  0.26081217550E+03  0.00000000000E+00 0.  1.
         -3    1    1    2    0  502 -0.44085639764E+02  0.22219471244E+02 -0.48453386146E+03  0.48704241236E+03  0.00000000000E+00 0. -1.
<mgrwt>
<rscale>  1 0.30000000E+03</rscale>
<asrwt>0</asrwt>
<pdfrwt beam="1">  1       21 0.88967216E-02 0.30000000E+03</pdfrwt>
<pdfrwt beam="2">0</pdfrwt>
<totfact> 0.10592373E+04</totfact>
</mgrwt>
</event>
<event>
 6    1  0.8397183E-002  0.3000000E+03  0.7818608E-02  0.1093470E+00
         21   -1    0    0  501  502  0.00000000000E+00  0.00000000000E+00  0.41664175145E+01  0.41664175145E+01  0.00000000000E+00 0. -1.
         13   -1    0    0    0    0 -0.00000000000E+00 -0.00000000000E+00 -0.10000000000E+04  0.10000000000E+04  0.00000000000E+00 0.  1.
    9000005    2    1    2  501    0 -0.35361000134E+02  0.14170174958E+02 -0.90318810674E+03  0.90399467317E+03  0.25335301196E+01 0.  0.
         13    1    3    3    0    0 -0.18595224918E+02  0.87170025158E+01 -0.49696382207E+03  0.49738798635E+03  0.00000000000E+00 0.  1.
          3    1    3    3  501    0 -0.16765775216E+02  0.54531724421E+01 -0.40622428467E+03  0.40660668682E+03  0.00000000000E+00 0.  1.
         -1    1    1    2    0  502  0.35361000134E+02 -0.14170174958E+02 -0.92645475746E+02  0.10017174434E+03  0.00000000000E+00 0. -1.
<mgrwt>
<rscale>  1 0.30000000E+03</rscale>
<asrwt>0</asrwt>
<pdfrwt beam="1">  1       21 0.15150641E-01 0.30000000E+03</pdfrwt>
<pdfrwt beam="2">0</pdfrwt>
<totfact> 0.40425265E+03</totfact>
</mgrwt>
</event>
<event>
 6    1  0.8397183E-002  0.3000000E+03  0.7818608E-02  0.1093470E+00
         21   -1    0    0  501  502  0.00000000000E+00  0.00000000000E+00  0.19852417711E+01  0.19852417711E+01  0.00000000000E+00 0. -1.
         13   -1    0    0    0    0 -0.00000000000E+00 -0.00000000000E+00 -0.10000000000E+04  0.10000000000E+04  0.00000000000E+00 0.  1.
    9000005    2    1    2  501    0 -0.42309725208E+02 -0.12623000902E+02 -0.43832100108E+03  0.44055265027E+03  0.34474164879E+01 0.  0.
         13    1    3    3    0    0 -0.55157329810E+01 -0.19440029827E+01 -0.70273861196E+02  0.70516792506E+02  0.00000000000E+00 0.  1.
          1    1    3    3  501    0 -0.36793992227E+02 -0.10678997919E+02 -0.36804713988E+03  0.37003585777E+03  0.00000000000E+00 0.  1.
         -3    1    1    2    0  502  0.42309725208E+02  0.12623000902E+02 -0.55969375715E+03  0.56143259150E+03  0.00000000000E+00 0. -1.
<mgrwt>
<rscale>  1 0.30000000E+03</rscale>
<asrwt>0</asrwt>
<pdfrwt beam="1">  1       21 0.72190762E-02 0.30000000E+03</pdfrwt>
<pdfrwt beam="2">0</pdfrwt>
<totfact> 0.15291656E+04</totfact>
</mgrwt>
</event>
<event>
 6    1  0.8397183E-002  0.3000000E+03  0.7818608E-02  0.1093470E+00
         21   -1    0    0  501  502  0.00000000000E+00  0.00000000000E+00  0.14789257742E+01  0.14789257742E+01  0.00000000000E+00 0. -1.
         13   -1    0    0    0    0 -0.00000000000E+00 -0.00000000000E+00 -0.10000000000E+04  0.10000000000E+04  0.00000000000E+00 0.  1.
    9000005    2    1    2  501    0 -0.33845459212E+02  0.13403423304E+02 -0.34204665132E+03  0.34399597178E+03  0.34856928922E+01 0.  0.
         13    1    3    3    0    0 -0.30926039856E+02  0.11384824144E+02 -0.30220737505E+03  0.30399890082E+03  0.00000000000E+00 0.  1.
          1    1    3    3  501    0 -0.29194193559E+01  0.20185991607E+01 -0.39839276274E+02  0.39997070967E+02  0.00000000000E+00 0.  1.
         -1    1    1    2    0  502  0.33845459212E+02 -0.13403423304E+02 -0.65647442290E+03  0.65748295399E+03  0.00000000000E+00 0. -1.
<mgrwt>
<rscale>  1 0.30000000E+03</rscale>
<asrwt>0</asrwt>
<pdfrwt beam="1">  1       21 0.53779232E-02 0.30000000E+03</pdfrwt>
<pdfrwt beam="2">0</pdfrwt>
<totfact> 0.25433666E+04</totfact>
</mgrwt>
</event>
<event>
 6    1  0.8397183E-002  0.3000000E+03  0.7818608E-02  0.1093470E+00
         21   -1    0    0  501  502  0.00000000000E+00  0.00000000000E+00  0.14136001933E+01  0.14136001933E+01  0.00000000000E+00 0. -1.
         13   -1    0    0    0    0 -0.00000000000E+00 -0.00000000000E+00 -0.10000000000E+04  0.10000000000E+04  0.00000000000E+00 0.  1.
    9000005    2    1    2  501    0 -0.35521844453E+02  0.10400307550E+02 -0.57663133250E+03  0.57783828616E+03  0.48397834853E+01 0.  0.
         13    1    3    3    0    0 -0.17271684854E+02  0.44120579831E+01 -0.24154435293E+03  0.24220126297E+03  0.00000000000E+00 0.  1.
          3    1    3    3  501    0 -0.18250159599E+02  0.59882495665E+01 -0.33508697958E+03  0.33563702320E+03  0.00000000000E+00 0.  1.
         -3    1    1    2    0  502  0.35521844453E+02 -0.10400307550E+02 -0.42195506731E+03  0.42357531403E+03  0.00000000000E+00 0. -1.
<mgrwt>
<rscale>  1 0.30000000E+03</rscale>
<asrwt>0</asrwt>
<pdfrwt beam="1">  1       21 0.51403752E-02 0.30000000E+03</pdfrwt>
<pdfrwt beam="2">0</pdfrwt>
<totfact> 0.27475720E+04</totfact>
</mgrwt>
</event>
<event>
 6    1  0.8397183E-002  0.3000000E+03  0.7818608E-02  0.1093470E+00
         21   -1    0    0  501  502  0.00000000000E+00  0.00000000000E+00  0.17457459269E+01  0.17457459269E+01  0.00000000000E+00 0. -1.
         13   -1    0    0    0    0 -0.00000000000E+00 -0.00000000000E+00 -0.10000000000E+04  0.10000000000E+04  0.00000000000E+00 0.  1.
    9000005    2    1    2  501    0 -0.24811348138E+02  0.27309341204E+02 -0.26540826388E+03  0.26797149696E+03  0.24028172212E+01 0.  0.
         13    1    3    3    0    0 -0.22704453340E+02  0.23977474800E+02 -0.23913071844E+03  0.24139990058E+03  0.00000000000E+00 0.  1.
          1    1    3    3  501    0 -0.21068947981E+01  0.33318664035E+01 -0.26277545446E+02  0.26571596378E+02  0.00000000000E+00 0.  1.
         -3    1    1    2    0  502  0.24811348138E+02 -0.27309341204E+02 -0.73284599019E+03  0.73377424897E+03  0.00000000000E+00 0. -1.
<mgrwt>
<rscale>  1 0.30000000E+03</rscale>
<asrwt>0</asrwt>
<pdfrwt beam="1">  1       21 0.63481804E-02 0.30000000E+03</pdfrwt>
<pdfrwt beam="2">0</pdfrwt>
<totfact> 0.19115973E+04</totfact>
</mgrwt>
</event>
<event>
 6    1  0.8397183E-002  0.3000000E+03  0.7818608E-02  0.1093470E+00
         21   -1    0    0  501  502  0.00000000000E+00  0.00000000000E+00  0.34203859091E+01  0.34203859091E+01  0.00000000000E+00 0. -1.
         13   -1    0    0    0    0 -0.00000000000E+00 -0.00000000000E+00 -0.10000000000E+04  0.10000000000E+04  0.00000000000E+00 0.  1.
    9000005    2    1    2  501    0  0.49243144100E+02  0.27208874370E+02 -0.63445097696E+03  0.63694752209E+03  0.29822217063E+01 0.  0.
         13    1    3    3    0    0  0.17046258296E+02  0.96524573878E+01 -0.23706610242E+03  0.23787408807E+03  0.00000000000E+00 0.  1.
          3    1    3    3  501    0  0.32196885804E+02  0.17556416982E+02 -0.39738487454E+03  0.39907343402E+03  0.00000000000E+00 0.  1.
         -1    1    1    2    0  502 -0.49243144100E+02 -0.27208874370E+02 -0.36212863713E+03  0.36647286382E+03  0.00000000000E+00 0. -1.
<mgrwt>
<rscale>  1 0.30000000E+03</rscale>
<asrwt>0</asrwt>
<pdfrwt beam="1">  1       21 0.12437793E-01 0.30000000E+03</pdfrwt>
<pdfrwt beam="2">0</pdfrwt>
<totfact> 0.58062070E+03</totfact>
</mgrwt>
</event>
<event>
 6    1  0.8397183E-002  0.3000000E+03  0.7818608E-02  0.1093470E+00
         21   -1    0    0  501  502  0.00000000000E+00  0.00000000000E+00  0.10385053321E+01  0.10385053321E+01  0.00000000000E+00 0. -1.
         13   -1    0    0    0    0 -0.00000000000E+00 -0.00000000000E+00 -0.10000000000E+04  0.10000000000E+04  0.00000000000E+00 0.  1.
    9000005    2    1    2  501    0 -0.31576965238E+01 -0.31504961274E+02 -0.58288697249E+03  0.58376096983E+03  0.41368540795E+01 0.  0.
         13    1    3    3    0    0 -0.33259251903E+01 -0.24167434300E+02 -0.41876621533E+03  0.41947618498E+03  0.00000000000E+00 0.  1.
          3    1    3    3  501    0  0.16822866652E+00 -0.73375269745E+01 -0.16412075716E+03  0.16428478485E+03  0.00000000000E+00 0.  1.
         -3    1    1    2    0  502  0.31576965238E+01  0.31504961274E+02 -0.41607452218E+03  0.41727753550E+03  0.00000000000E+00 0. -1.
<mgrwt>
<rscale>  1 0.30000000E+03</rscale>
<asrwt>0</asrwt>
<pdfrwt beam="1">  1       21 0.37763910E-02 0.30000000E+03</pdfrwt>
<pdfrwt beam="2">0</pdfrwt>
<totfact> 0.46318497E+04</totfact>
</mgrwt>
</event>
<event>
 6    1  0.8397183E-002  0.3000000E+03  0.7818608E-02  0.1093470E+00
         21   -1    0    0  501  502  0.00000000000E+00  0.00000000000E+00  0.58328557087E+01  0.58328557087E+01  0.00000000000E+00 0. -1.
         13   -1    0    0    0    0 -0.00000000000E+00 -0.00000000000E+00 -0.10000000000E+04  0.10000000000E+04  0.00000000000E+00 0.  1.
    9000005    2    1    2  501    0 -0.50621945521E+02  0.53451374108E+02 -0.62951550183E+03  0.63382418496E+03  0.48682269593E+01 0.  0.
         13    1    3    3    0    0 -0.14972263249E+02  0.12780099202E+02 -0.17267895218E+03  0.17379735363E+03  0.00000000000E+00 0.  1.
          3    1    3    3  501    0 -0.35649682273E+02  0.40671274906E+02 -0.45683654965E+03  0.46002683133E+03  0.00000000000E+00 0.  1.
         -1    1    1    2    0  502  0.50621945521E+02 -0.53451374108E+02 -0.36465164246E+03  0.37200867075E+03  0.00000000000E+00 0. -1.
<mgrwt>
<rscale>  1 0.30000000E+03</rscale>
<asrwt>0</asrwt>
<pdfrwt beam="1">  1       21 0.21210429E-01 0.30000000E+03</pdfrwt>
<pdfrwt beam="2">0</pdfrwt>
<totfact> 0.21440326E+03</totfact>
</mgrwt>
</event>
<event>
 6    1  0.8397183E-002  0.3000000E+03  0.7818608E-02  0.1093470E+00
         21   -1    0    0  501  502  0.00000000000E+00  0.00000000000E+00  0.35797265156E+01  0.35797265156E+01  0.00000000000E+00 0. -1.
         13   -1    0    0    0    0 -0.00000000000E+00 -0.00000000000E+00 -0.10000000000E+04  0.10000000000E+04  0.00000000000E+00 0.  1.
    9000005    2    1    2  501    0  0.35173164024E+02 -0.47561169559E+02 -0.42498821677E+03  0.42909403326E+03  0.27365428211E+01 0.  0.
         13    1    3    3    0    0  0.93011750061E+00 -0.64865306076E+00 -0.75901572300E+01  0.76743961413E+01  0.00000000000E+00 0.  1.
          3    1    3    3  501    0  0.34243046524E+02 -0.46912516498E+02 -0.41739805954E+03  0.42141963712E+03  0.00000000000E+00 0.  1.
         -1    1    1    2    0  502 -0.35173164024E+02  0.47561169559E+02 -0.57143205672E+03  0.57448569326E+03  0.00000000000E+00 0. -1.
<mgrwt>
<rscale>  1 0.30000000E+03</rscale>
<asrwt>0</asrwt>
<pdfrwt beam="1">  1       21 0.13017215E-01 0.30000000E+03</pdfrwt>
<pdfrwt beam="2">0</pdfrwt>
<totfact> 0.53435947E+03</totfact>
</mgrwt>
</event>
<event>
 6    1  0.8397183E-002  0.3000000E+03  0.7818608E-02  0.1093470E+00
         21   -1    0    0  501  502  0.00000000000E+00  0.00000000000E+00  0.20797689326E+01  0.20797689326E+01  0.00000000000E+00 0. -1.
         13   -1    0    0    0    0 -0.00000000000E+00 -0.00000000000E+00 -0.10000000000E+04  0.10000000000E+04  0.00000000000E+00 0.  1.
    9000005    2    1    2  501    0  0.45467646573E+02  0.20229502894E+01 -0.47942685790E+03  0.48159271123E+03  0.31667373515E+01 0.  0.
         13    1    3    3    0    0  0.58174899423E+01 -0.51546739122E+00 -0.54216276210E+02  0.54529932166E+02  0.00000000000E+00 0.  1.
          1    1    3    3  501    0  0.39650156631E+02  0.25384176806E+01 -0.42521058169E+03  0.42706277907E+03  0.00000000000E+00 0.  1.
         -3    1    1    2    0  502 -0.45467646573E+02 -0.20229502894E+01 -0.51849337317E+03  0.52048705770E+03  0.00000000000E+00 0. -1.
<mgrwt>
<rscale>  1 0.30000000E+03</rscale>
<asrwt>0</asrwt>
<pdfrwt beam="1">  1       21 0.75628121E-02 0.30000000E+03</pdfrwt>
<pdfrwt beam="2">0</pdfrwt>
<totfact> 0.14097065E+04</totfact>
</mgrwt>
</event>
<event>
 6    1  0.8397183E-002  0.3000000E+03  0.7818608E-02  0.1093470E+00
         21   -1    0    0  501  502  0.00000000000E+00  0.00000000000E+00  0.16926076846E+01  0.16926076846E+01  0.00000000000E+00 0. -1.
         13   -1    0    0    0    0 -0.00000000000E+00 -0.00000000000E+00 -0.10000000000E+04  0.10000000000E+04  0.00000000000E+00 0.  1.
    9000005    2    1    2  501    0 -0.30850032043E+02 -0.36185497809E+01 -0.17248944541E+03  0.17529070799E+03  0.30667820236E+01 0.  0.
         13    1    3    3    0    0 -0.14964206978E+02 -0.25828757803E+01 -0.76956573013E+02  0.78440505274E+02  0.00000000000E+00 0.  1.
          3    1    3    3  501    0 -0.15885825064E+02 -0.10356740006E+01 -0.95532872396E+02  0.96850202720E+02  0.00000000000E+00 0.  1.
         -3    1    1    2    0  502  0.30850032043E+02  0.36185497809E+01 -0.82581794691E+03  0.82640189969E+03  0.00000000000E+00 0. -1.
<mgrwt>
<rscale>  1 0.30000000E+03</rscale>
<asrwt>0</asrwt>
<pdfrwt beam="1">  1       21 0.61549500E-02 0.30000000E+03</pdfrwt>
<pdfrwt beam="2">0</pdfrwt>
<totfact> 0.20164680E+04</totfact>
</mgrwt>
</event>
<event>
 6    1  0.8397183E-002  0.3000000E+03  0.7818608E-02  0.1093470E+00
         21   -1    0    0  501  502  0.00000000000E+00  0.00000000000E+00  0.10225425238E+01  0.10225425238E+01  0.00000000000E+00 0. -1.
         13   -1    0    0    0    0 -0.00000000000E+00 -0.00000000000E+00 -0.10000000000E+04  0.10000000000E+04  0.00000000000E+00 0.  1.
    9000005    2    1    2  501    0  0.13874823304E+02  0.28699997588E+02 -0.49399838692E+03  0.49503829150E+03  0.35075902450E+01 0.  0.
         13    1    3    3    0    0  0.97079060470E+01  0.16247177439E+02 -0.28488371016E+03  0.28551172048E+03  0.00000000000E+00 0.  1.
          3    1    3    3  501    0  0.41669172574E+01  0.12452820149E+02 -0.20911467676E+03  0.20952657103E+03  0.00000000000E+00 0.  1.
         -1    1    1    2    0  502 -0.13874823304E+02 -0.28699997588E+02 -0.50497907055E+03  0.50598425102E+03  0.00000000000E+00 0. -1.
<mgrwt>
<rscale>  1 0.30000000E+03</rscale>
<asrwt>0</asrwt>
<pdfrwt beam="1">  1       21 0.37183443E-02 0.30000000E+03</pdfrwt>
<pdfrwt beam="2">0</pdfrwt>
<totfact> 0.47539134E+04</totfact>
</mgrwt>
</event>
<event>
 6    1  0.8397183E-002  0.3000000E+03  0.7818608E-02  0.1093470E+00
         21   -1    0    0  501  502  0.00000000000E+00  0.00000000000E+00  0.99987257839E+00  0.99987257839E+00  0.00000000000E+00 0. -1.
         13   -1    0    0    0    0 -0.00000000000E+00 -0.00000000000E+00 -0.10000000000E+04  0.10000000000E+04  0.00000000000E+00 0.  1.
    9000005    2    1    2  501    0  0.42803186690E+01  0.31137059219E+02 -0.45839818070E+03  0.45948505063E+03  0.31276354709E+01 0.  0.
         13    1    3    3    0    0  0.55788783035E+00  0.60759700342E+00 -0.13301537260E+02  0.13327089196E+02  0.00000000000E+00 0.  1.
          1    1    3    3  501    0  0.37224308387E+01  0.30529462216E+02 -0.44509664344E+03  0.44615796144E+03  0.00000000000E+00 0.  1.
         -3    1    1    2    0  502 -0.42803186690E+01 -0.31137059219E+02 -0.54060194672E+03  0.54151482195E+03  0.00000000000E+00 0. -1.
<mgrwt>
<rscale>  1 0.30000000E+03</rscale>
<asrwt>0</asrwt>
<pdfrwt beam="1">  1       21 0.36359080E-02 0.30000000E+03</pdfrwt>
<pdfrwt beam="2">0</pdfrwt>
<totfact> 0.49361742E+04</totfact>
</mgrwt>
</event>
<event>
 6    1  0.8397183E-002  0.3000000E+03  0.7818608E-02  0.1093470E+00
         21   -1    0    0  501  502  0.00000000000E+00  0.00000000000E+00  0.23982263855E+01  0.23982263855E+01  0.00000000000E+00 0. -1.
         13   -1    0    0    0    0 -0.00000000000E+00 -0.00000000000E+00 -0.10000000000E+04  0.10000000000E+04  0.00000000000E+00 0.  1.
    9000005    2    1    2  501    0  0.18928463636E+02  0.39891986710E+02 -0.71469032640E+03  0.71606180833E+03  0.35487126123E+01 0.  0.
         13    1    3    3    0    0  0.14190375659E+02  0.29597591482E+02 -0.55514910265E+03  0.55611861177E+03  0.00000000000E+00 0.  1.
          1    1    3    3  501    0  0.47380879775E+01  0.10294395228E+02 -0.15954122375E+03  0.15994319657E+03  0.00000000000E+00 0.  1.
         -1    1    1    2    0  502 -0.18928463636E+02 -0.39891986710E+02 -0.28291144721E+03  0.28633641805E+03  0.00000000000E+00 0. -1.
<mgrwt>
<rscale>  1 0.30000000E+03</rscale>
<asrwt>0</asrwt>
<pdfrwt beam="1">  1       21 0.87208416E-02 0.30000000E+03</pdfrwt>
<pdfrwt beam="2">0</pdfrwt>
<totfact> 0.10973053E+04</totfact>
</mgrwt>
</event>
<event>
 6    1  0.8397183E-002  0.3000000E+03  0.7818608E-02  0.1093470E+00
         21   -1    0    0  501  502  0.00000000000E+00  0.00000000000E+00  0.21709910735E+01  0.21709910735E+01  0.00000000000E+00 0. -1.
         13   -1    0    0    0    0 -0.00000000000E+00 -0.00000000000E+00 -0.10000000000E+04  0.10000000000E+04  0.00000000000E+00 0.  1.
    9000005    2    1    2  501    0 -0.65434842484E+01 -0.41171174192E+02 -0.27640382935E+03  0.27954233644E+03  0.26378424169E+01 0.  0.
         13    1    3    3    0    0 -0.39851927511E+01 -0.17658913468E+02 -0.12383482375E+03  0.12515103898E+03  0.00000000000E+00 0.  1.
          1    1    3    3  501    0 -0.25582914973E+01 -0.23512260724E+02 -0.15256900560E+03  0.15439129746E+03  0.00000000000E+00 0.  1.
         -3    1    1    2    0  502  0.65434842484E+01  0.41171174192E+02 -0.72142517957E+03  0.72262865463E+03  0.00000000000E+00 0. -1.
<mgrwt>
<rscale>  1 0.30000000E+03</rscale>
<asrwt>0</asrwt>
<pdfrwt beam="1">  1       21 0.78945296E-02 0.30000000E+03</pdfrwt>
<pdfrwt beam="2">0</pdfrwt>
<totfact> 0.13075023E+04</totfact>
</mgrwt>
</event>
<event>
 6    1  0.8397183E-002  0.3000000E+03  0.7818608E-02  0.1093470E+00
         21   -1    0    0  501  502  0.00000000000E+00  0.00000000000E+00  0.14540739007E+01  0.14540739007E+01  0.00000000000E+00 0. -1.
         13   -1    0    0    0    0 -0.00000000000E+00 -0.00000000000E+00 -0.10000000000E+04  0.10000000000E+04  0.00000000000E+00 0.  1.
    9000005    2    1    2  501    0  0.27535501564E+02 -0.25641197572E+02 -0.43056255965E+03  0.43222584250E+03  0.44029869335E+01 0.  0.
         13    1    3    3    0    0  0.37126089802E+01 -0.39866129561E+01 -0.47027246432E+02  0.47341720029E+02  0.00000000000E+00 0.  1.
          3    1    3    3  501    0  0.23822892584E+02 -0.21654584616E+02 -0.38353531322E+03  0.38488412247E+03  0.00000000000E+00 0.  1.
         -3    1    1    2    0  502 -0.27535501564E+02  0.25641197572E+02 -0.56798336645E+03  0.56922823140E+03  0.00000000000E+00 0. -1.
<mgrwt>
<rscale>  1 0.30000000E+03</rscale>
<asrwt>0</asrwt>
<pdfrwt beam="1">  1       21 0.52875526E-02 0.30000000E+03</pdfrwt>
<pdfrwt beam="2">0</pdfrwt>
<totfact> 0.26181936E+04</totfact>
</mgrwt>
</event>
<event>
 6    1  0.8397183E-002  0.3000000E+03  0.7818608E-02  0.1093470E+00
         21   -1    0    0  501  502  0.00000000000E+00  0.00000000000E+00  0.18303597360E+01  0.18303597360E+01  0.00000000000E+00 0. -1.
         13   -1    0    0    0    0 -0.00000000000E+00 -0.00000000000E+00 -0.10000000000E+04  0.10000000000E+04  0.00000000000E+00 0.  1.
    9000005    2    1    2  501    0  0.20762667812E+02  0.35896752936E+02 -0.37955527356E+03  0.38182761785E+03  0.32340105722E+01 0.  0.
         13    1    3    3    0    0  0.13306198557E+02  0.24713944021E+02 -0.24491837422E+03  0.24652148787E+03  0.00000000000E+00 0.  1.
          3    1    3    3  501    0  0.74564692550E+01  0.11182808914E+02 -0.13463689933E+03  0.13530612998E+03  0.00000000000E+00 0.  1.
         -3    1    1    2    0  502 -0.20762667812E+02 -0.35896752936E+02 -0.61861436671E+03  0.62000274188E+03  0.00000000000E+00 0. -1.
<mgrwt>
<rscale>  1 0.30000000E+03</rscale>
<asrwt>0</asrwt>
<pdfrwt beam="1">  1       21 0.66558676E-02 0.30000000E+03</pdfrwt>
<pdfrwt beam="2">0</pdfrwt>
<totfact> 0.17611889E+04</totfact>
</mgrwt>
</event>
<event>
 6    1  0.8397183E-002  0.3000000E+03  0.7818608E-02  0.1093470E+00
         21   -1    0    0  501  502  0.00000000000E+00  0.00000000000E+00  0.14144203255E+01  0.14144203255E+01  0.00000000000E+00 0. -1.
         13   -1    0    0    0    0 -0.00000000000E+00 -0.00000000000E+00 -0.10000000000E+04  0.10000000000E+04  0.00000000000E+00 0.  1.
    9000005    2    1    2  501    0 -0.31608293798E+02 -0.10165391514E+01 -0.76950654485E+03  0.77016277864E+03  0.32039722747E+01 0.  0.
         13    1    3    3    0    0 -0.25117985214E+02 -0.17056849509E+01 -0.63253282640E+03  0.63303364762E+03  0.00000000000E+00 0.  1.
          1    1    3    3  501    0 -0.64903085846E+01  0.68914579948E+00 -0.13697371845E+03  0.13712913102E+03  0.00000000000E+00 0.  1.
         -3    1    1    2    0  502  0.31608293798E+02  0.10165391514E+01 -0.22907903482E+03  0.23125164169E+03  0.00000000000E+00 0. -1.
<mgrwt>
<rscale>  1 0.30000000E+03</rscale>
<asrwt>0</asrwt>
<pdfrwt beam="1">  1       21 0.51433575E-02 0.30000000E+03</pdfrwt>
<pdfrwt beam="2">0</pdfrwt>
<totfact> 0.27448527E+04</totfact>
</mgrwt>
</event>
<event>
 6    1  0.8397183E-002  0.3000000E+03  0.7818608E-02  0.1093470E+00
         21   -1    0    0  501  502  0.00000000000E+00  0.00000000000E+00  0.30606342171E+01  0.30606342171E+01  0.00000000000E+00 0. -1.
         13   -1    0    0    0    0 -0.00000000000E+00 -0.00000000000E+00 -0.10000000000E+04  0.10000000000E+04  0.00000000000E+00 0.  1.
    9000005    2    1    2  501    0 -0.19246128573E+02  0.51743548697E+02 -0.47428510924E+03  0.47749876329E+03  0.33008777052E+01 0.  0.
         13    1    3    3    0    0 -0.14035140740E+01  0.39164741957E+01 -0.28911700851E+02  0.29209503043E+02  0.00000000000E+00 0.  1.
          1    1    3    3  501    0 -0.17842614499E+02  0.47827074502E+02 -0.44537340839E+03  0.44828926025E+03  0.00000000000E+00 0.  1.
         -3    1    1    2    0  502  0.19246128573E+02 -0.51743548697E+02 -0.52265425654E+03  0.52556187093E+03  0.00000000000E+00 0. -1.
<mgrwt>
<rscale>  1 0.30000000E+03</rscale>
<asrwt>0</asrwt>
<pdfrwt beam="1">  1       21 0.11129602E-01 0.30000000E+03</pdfrwt>
<pdfrwt beam="2">0</pdfrwt>
<totfact> 0.71007198E+03</totfact>
</mgrwt>
</event>
<event>
 6    1  0.8397183E-002  0.3000000E+03  0.7818608E-02  0.1093470E+00
         21   -1    0    0  501  502  0.00000000000E+00  0.00000000000E+00  0.20199865141E+01  0.20199865141E+01  0.00000000000E+00 0. -1.
         13   -1    0    0    0    0 -0.00000000000E+00 -0.00000000000E+00 -0.10000000000E+04  0.10000000000E+04  0.00000000000E+00 0.  1.
    9000005    2    1    2  501    0 -0.15026107179E+02 -0.27736504264E+02 -0.85558137890E+03  0.85616914251E+03  0.33176941208E+01 0.  0.
         13    1    3    3    0    0 -0.17406067809E+01 -0.57564172783E+01 -0.17522978260E+03  0.17533294831E+03  0.00000000000E+00 0.  1.
          3    1    3    3  501    0 -0.13285500398E+02 -0.21980086986E+02 -0.68035159630E+03  0.68083619420E+03  0.00000000000E+00 0.  1.
         -1    1    1    2    0  502  0.15026107179E+02  0.27736504264E+02 -0.14239863458E+03  0.14585084400E+03  0.00000000000E+00 0. -1.
<mgrwt>
<rscale>  1 0.30000000E+03</rscale>
<asrwt>0</asrwt>
<pdfrwt beam="1">  1       21 0.73454210E-02 0.30000000E+03</pdfrwt>
<pdfrwt beam="2">0</pdfrwt>
<totfact> 0.14835272E+04</totfact>
</mgrwt>
</event>
<event>
 6    1  0.8397183E-002  0.3000000E+03  0.7818608E-02  0.1093470E+00
         21   -1    0    0  501  502  0.00000000000E+00  0.00000000000E+00  0.17620551415E+01  0.17620551415E+01  0.00000000000E+00 0. -1.
         13   -1    0    0    0    0 -0.00000000000E+00 -0.00000000000E+00 -0.10000000000E+04  0.10000000000E+04  0.00000000000E+00 0.  1.
    9000005    2    1    2  501    0 -0.41146237163E+02 -0.44477867410E+01 -0.45210873853E+03  0.45406697059E+03  0.78553601946E+01 0.  0.
         13    1    3    3    0    0 -0.22153761114E+02  0.12213957502E+01 -0.25559570471E+03  0.25655690442E+03  0.00000000000E+00 0.  1.
          1    1    3    3  501    0 -0.18992476049E+02 -0.56691824912E+01 -0.19651303382E+03  0.19751006617E+03  0.00000000000E+00 0.  1.
         -1    1    1    2    0  502  0.41146237163E+02  0.44477867410E+01 -0.54612920633E+03  0.54769508455E+03  0.00000000000E+00 0. -1.
<mgrwt>
<rscale>  1 0.30000000E+03</rscale>
<asrwt>0</asrwt>
<pdfrwt beam="1">  1       21 0.64074868E-02 0.30000000E+03</pdfrwt>
<pdfrwt beam="2">0</pdfrwt>
<totfact> 0.18810993E+04</totfact>
</mgrwt>
</event>
<event>
 6    1  0.8397183E-002  0.3000000E+03  0.7818608E-02  0.1093470E+00
         21   -1    0    0  501  502  0.00000000000E+00  0.00000000000E+00  0.11384616930E+01  0.11384616930E+01  0.00000000000E+00 0. -1.
         13   -1    0    0    0    0 -0.00000000000E+00 -0.00000000000E+00 -0.10000000000E+04  0.10000000000E+04  0.00000000000E+00 0.  1.
    9000005    2    1    2  501    0  0.24788368237E+01 -0.29970940717E+02 -0.27516922395E+03  0.27682156435E+03  0.27703356442E+01 0.  0.
         13    1    3    3    0    0  0.86055812205E+00 -0.22496926138E+02 -0.19901981474E+03  0.20028913826E+03  0.00000000000E+00 0.  1.
          1    1    3    3  501    0  0.16182787017E+01 -0.74740145789E+01 -0.76149409215E+02  0.76532426093E+02  0.00000000000E+00 0.  1.
         -3    1    1    2    0  502 -0.24788368237E+01  0.29970940717E+02 -0.72369231435E+03  0.72431689734E+03  0.00000000000E+00 0. -1.
<mgrwt>
<rscale>  1 0.30000000E+03</rscale>
<asrwt>0</asrwt>
<pdfrwt beam="1">  1       21 0.41398694E-02 0.30000000E+03</pdfrwt>
<pdfrwt beam="2">0</pdfrwt>
<totfact> 0.39680625E+04</totfact>
</mgrwt>
</event>
<event>
 6    1  0.8397183E-002  0.3000000E+03  0.7818608E-02  0.1093470E+00
         21   -1    0    0  501  502  0.00000000000E+00  0.00000000000E+00  0.15441510504E+01  0.15441510504E+01  0.00000000000E+00 0. -1.
         13   -1    0    0    0    0 -0.00000000000E+00 -0.00000000000E+00 -0.10000000000E+04  0.10000000000E+04  0.00000000000E+00 0.  1.
    9000005    2    1    2  501    0 -0.50214543587E+01 -0.37619845954E+02 -0.37624691508E+03  0.37817874841E+03  0.41178675678E+01 0.  0.
         13    1    3    3    0    0 -0.27273248831E+01 -0.29312937779E+02 -0.30290280815E+03  0.30433008035E+03  0.00000000000E+00 0.  1.
          1    1    3    3  501    0 -0.22941294756E+01 -0.83069081756E+01 -0.73344106926E+02  0.73848668060E+02  0.00000000000E+00 0.  1.
         -3    1    1    2    0  502  0.50214543587E+01  0.37619845954E+02 -0.62220893387E+03  0.62336540264E+03  0.00000000000E+00 0. -1.
<mgrwt>
<rscale>  1 0.30000000E+03</rscale>
<asrwt>0</asrwt>
<pdfrwt beam="1">  1       21 0.56151066E-02 0.30000000E+03</pdfrwt>
<pdfrwt beam="2">0</pdfrwt>
<totfact> 0.23619540E+04</totfact>
</mgrwt>
</event>
<event>
 6    1  0.8397183E-002  0.3000000E+03  0.7818608E-02  0.1093470E+00
         21   -1    0    0  501  502  0.00000000000E+00  0.00000000000E+00  0.13637784391E+01  0.13637784391E+01  0.00000000000E+00 0. -1.
         13   -1    0    0    0    0 -0.00000000000E+00 -0.00000000000E+00 -0.10000000000E+04  0.10000000000E+04  0.00000000000E+00 0.  1.
    9000005    2    1    2  501    0 -0.35114847123E+02 -0.97947373295E+01 -0.42598412130E+03  0.42755247034E+03  0.31070769663E+01 0.  0.
         13    1    3    3    0    0 -0.16955979319E+02 -0.44566553709E+01 -0.18701869055E+03  0.18783864785E+03  0.00000000000E+00 0.  1.
          1    1    3    3  501    0 -0.18158867803E+02 -0.53380819586E+01 -0.23896543075E+03  0.23971382249E+03  0.00000000000E+00 0.  1.
         -1    1    1    2    0  502  0.35114847123E+02  0.97947373295E+01 -0.57265210026E+03  0.57381130810E+03  0.00000000000E+00 0. -1.
<mgrwt>
<rscale>  1 0.30000000E+03</rscale>
<asrwt>0</asrwt>
<pdfrwt beam="1">  1       21 0.49592048E-02 0.30000000E+03</pdfrwt>
<pdfrwt beam="2">0</pdfrwt>
<totfact> 0.29209681E+04</totfact>
</mgrwt>
</event>
<event>
 6    1  0.8397183E-002  0.3000000E+03  0.7818608E-02  0.1093470E+00
         21   -1    0    0  501  502  0.00000000000E+00  0.00000000000E+00  0.12618599229E+01  0.12618599229E+01  0.00000000000E+00 0. -1.
         13   -1    0    0    0    0 -0.00000000000E+00 -0.00000000000E+00 -0.10000000000E+04  0.10000000000E+04  0.00000000000E+00 0.  1.
    9000005    2    1    2  501    0  0.83366380815E+01 -0.34432774938E+02 -0.47770156138E+03  0.47902222923E+03  0.28980732502E+01 0.  0.
         13    1    3    3    0    0  0.16037385743E+01 -0.64912456551E+01 -0.75837975963E+02  0.76132166958E+02  0.00000000000E+00 0.  1.
          3    1    3    3  501    0  0.67328995072E+01 -0.27941529282E+02 -0.40186358542E+03  0.40289006227E+03  0.00000000000E+00 0.  1.
         -1    1    1    2    0  502 -0.83366380815E+01  0.34432774938E+02 -0.52103657870E+03  0.52223963069E+03  0.00000000000E+00 0. -1.
<mgrwt>
<rscale>  1 0.30000000E+03</rscale>
<asrwt>0</asrwt>
<pdfrwt beam="1">  1       21 0.45885912E-02 0.30000000E+03</pdfrwt>
<pdfrwt beam="2">0</pdfrwt>
<totfact> 0.33336126E+04</totfact>
</mgrwt>
</event>
<event>
 6    1  0.8397183E-002  0.3000000E+03  0.7818608E-02  0.1093470E+00
         21   -1    0    0  501  502  0.00000000000E+00  0.00000000000E+00  0.29360118117E+01  0.29360118117E+01  0.00000000000E+00 0. -1.
         13   -1    0    0    0    0 -0.00000000000E+00 -0.00000000000E+00 -0.10000000000E+04  0.10000000000E+04  0.00000000000E+00 0.  1.
    9000005    2    1    2  501    0 -0.43766944722E+02  0.31830275597E+02 -0.48913981120E+03  0.49213695008E+03  0.35086806913E+01 0.  0.
         13    1    3    3    0    0 -0.30582747529E+02  0.20333461427E+02 -0.33631295036E+03  0.33831221479E+03  0.00000000000E+00 0.  1.
          1    1    3    3  501    0 -0.13184197193E+02  0.11496814170E+02 -0.15282686085E+03  0.15382473529E+03  0.00000000000E+00 0.  1.
         -3    1    1    2    0  502  0.43766944722E+02 -0.31830275597E+02 -0.50792417699E+03  0.51079906173E+03  0.00000000000E+00 0. -1.
<mgrwt>
<rscale>  1 0.30000000E+03</rscale>
<asrwt>0</asrwt>
<pdfrwt beam="1">  1       21 0.10676429E-01 0.30000000E+03</pdfrwt>
<pdfrwt beam="2">0</pdfrwt>
<totfact> 0.76517217E+03</totfact>
</mgrwt>
</event>
<event>
 6    1  0.8397183E-002  0.3000000E+03  0.7818608E-02  0.1093470E+00
         21   -1    0    0  501  502  0.00000000000E+00  0.00000000000E+00  0.15077175542E+01  0.15077175542E+01  0.00000000000E+00 0. -1.
         13   -1    0    0    0    0 -0.00000000000E+00 -0.00000000000E+00 -0.10000000000E+04  0.10000000000E+04  0.00000000000E+00 0.  1.
    9000005    2    1    2  501    0 -0.48359158767E+01 -0.36663578998E+02 -0.35093834035E+03  0.35289865808E+03  0.34842560487E+01 0.  0.
         13    1    3    3    0    0 -0.24154751651E+01 -0.27952946217E+02 -0.25755454646E+03  0.25907826255E+03  0.00000000000E+00 0.  1.
          1    1    3    3  501    0 -0.24204407116E+01 -0.87106327808E+01 -0.93383793891E+02  0.93820395534E+02  0.00000000000E+00 0.  1.
         -3    1    1    2    0  502  0.48359158767E+01  0.36663578998E+02 -0.64755394210E+03  0.64860905947E+03  0.00000000000E+00 0. -1.
<mgrwt>
<rscale>  1 0.30000000E+03</rscale>
<asrwt>0</asrwt>
<pdfrwt beam="1">  1       21 0.54826208E-02 0.30000000E+03</pdfrwt>
<pdfrwt beam="2">0</pdfrwt>
<totfact> 0.24607308E+04</totfact>
</mgrwt>
</event>
<event>
 6    1  0.8397183E-002  0.3000000E+03  0.7818608E-02  0.1093470E+00
         21   -1    0    0  501  502  0.00000000000E+00  0.00000000000E+00  0.20186117040E+01  0.20186117040E+01  0.00000000000E+00 0. -1.
         13   -1    0    0    0    0 -0.00000000000E+00 -0.00000000000E+00 -0.10000000000E+04  0.10000000000E+04  0.00000000000E+00 0.  1.
    9000005    2    1    2  501    0 -0.16723612097E+01 -0.39721179573E+02 -0.26718798166E+03  0.27014459790E+03  0.28490932587E+01 0.  0.
         13    1    3    3    0    0 -0.24423168746E+01 -0.26924484814E+02 -0.17957236672E+03  0.18159605635E+03  0.00000000000E+00 0.  1.
          3    1    3    3  501    0  0.76995566493E+00 -0.12796694759E+02 -0.87615614943E+02  0.88548541548E+02  0.00000000000E+00 0.  1.
         -3    1    1    2    0  502  0.16723612097E+01  0.39721179573E+02 -0.73079340664E+03  0.73187401380E+03  0.00000000000E+00 0. -1.
<mgrwt>
<rscale>  1 0.30000000E+03</rscale>
<asrwt>0</asrwt>
<pdfrwt beam="1">  1       21 0.73404217E-02 0.30000000E+03</pdfrwt>
<pdfrwt beam="2">0</pdfrwt>
<totfact> 0.14852935E+04</totfact>
</mgrwt>
</event>
<event>
 6    1  0.8397183E-002  0.3000000E+03  0.7818608E-02  0.1093470E+00
         21   -1    0    0  501  502  0.00000000000E+00  0.00000000000E+00  0.96799945138E+00  0.96799945138E+00  0.00000000000E+00 0. -1.
         13   -1    0    0    0    0 -0.00000000000E+00 -0.00000000000E+00 -0.10000000000E+04  0.10000000000E+04  0.00000000000E+00 0.  1.
    9000005    2    1    2  501    0 -0.17990024450E+02  0.25223436518E+02 -0.49552045056E+03  0.49650418142E+03  0.40028135323E+01 0.  0.
         13    1    3    3    0    0 -0.41446596281E+01  0.34278163735E+01 -0.76416723119E+02  0.76605768064E+02  0.00000000000E+00 0.  1.
          1    1    3    3  501    0 -0.13845364822E+02  0.21795620145E+02 -0.41910372744E+03  0.41989841336E+03  0.00000000000E+00 0.  1.
         -3    1    1    2    0  502  0.17990024450E+02 -0.25223436518E+02 -0.50351154999E+03  0.50446381803E+03  0.00000000000E+00 0. -1.
<mgrwt>
<rscale>  1 0.30000000E+03</rscale>
<asrwt>0</asrwt>
<pdfrwt beam="1">  1       21 0.35200054E-02 0.30000000E+03</pdfrwt>
<pdfrwt beam="2">0</pdfrwt>
<totfact> 0.52116931E+04</totfact>
</mgrwt>
</event>
<event>
 6    1  0.8397183E-002  0.3000000E+03  0.7818608E-02  0.1093470E+00
         21   -1    0    0  501  502  0.00000000000E+00  0.00000000000E+00  0.19791544402E+01  0.19791544402E+01  0.00000000000E+00 0. -1.
         13   -1    0    0    0    0 -0.00000000000E+00 -0.00000000000E+00 -0.10000000000E+04  0.10000000000E+04  0.00000000000E+00 0.  1.
    9000005    2    1    2  501    0 -0.37874409542E+02  0.44729472739E+01 -0.24351034459E+03  0.24650541285E+03  0.36266358340E+01 0.  0.
         13    1    3    3    0    0 -0.29586681393E+02  0.38286823188E+01 -0.18044752797E+03  0.18289707727E+03  0.00000000000E+00 0.  1.
          3    1    3    3  501    0 -0.82877281497E+01  0.64426495510E+00 -0.63062816615E+02  0.63608335575E+02  0.00000000000E+00 0.  1.
         -3    1    1    2    0  502  0.37874409542E+02 -0.44729472739E+01 -0.75451050097E+03  0.75547374159E+03  0.00000000000E+00 0. -1.
<mgrwt>
<rscale>  1 0.30000000E+03</rscale>
<asrwt>0</asrwt>
<pdfrwt beam="1">  1       21 0.71969404E-02 0.30000000E+03</pdfrwt>
<pdfrwt beam="2">0</pdfrwt>
<totfact> 0.15373809E+04</totfact>
</mgrwt>
</event>
<event>
 6    1  0.8397183E-002  0.3000000E+03  0.7818608E-02  0.1093470E+00
         21   -1    0    0  501  502  0.00000000000E+00  0.00000000000E+00  0.10945094690E+01  0.10945094690E+01  0.00000000000E+00 0. -1.
         13   -1    0    0    0    0 -0.00000000000E+00 -0.00000000000E+00 -0.10000000000E+04  0.10000000000E+04  0.00000000000E+00 0.  1.
    9000005    2    1    2  501    0 -0.29012834483E+02 -0.15685048069E+02 -0.51389527149E+03  0.51496419991E+03  0.34658089499E+01 0.  0.
         13    1    3    3    0    0 -0.22554081817E+02 -0.13767867209E+02 -0.40760558179E+03  0.40846119899E+03  0.00000000000E+00 0.  1.
          3    1    3    3  501    0 -0.64587526661E+01 -0.19171808597E+01 -0.10628968970E+03  0.10650300092E+03  0.00000000000E+00 0.  1.
         -3    1    1    2    0  502  0.29012834483E+02  0.15685048069E+02 -0.48501021904E+03  0.48613030956E+03  0.00000000000E+00 0. -1.
<mgrwt>
<rscale>  1 0.30000000E+03</rscale>
<asrwt>0</asrwt>
<pdfrwt beam="1">  1       21 0.39800428E-02 0.30000000E+03</pdfrwt>
<pdfrwt beam="2">0</pdfrwt>
<totfact> 0.42402946E+04</totfact>
</mgrwt>
</event>
<event>
 6    1  0.8397183E-002  0.3000000E+03  0.7818608E-02  0.1093470E+00
         21   -1    0    0  501  502  0.00000000000E+00  0.00000000000E+00  0.48198109870E+01  0.48198109870E+01  0.00000000000E+00 0. -1.
         13   -1    0    0    0    0 -0.00000000000E+00 -0.00000000000E+00 -0.10000000000E+04  0.10000000000E+04  0.00000000000E+00 0.  1.
    9000005    2    1    2  501    0  0.32448008494E+02  0.51718947734E+02 -0.73645410124E+03  0.73898732368E+03  0.31461924057E+01 0.  0.
         13    1    3    3    0    0  0.26866551153E+02  0.41485185917E+02 -0.60773823324E+03  0.60974469442E+03  0.00000000000E+00 0.  1.
          1    1    3    3  501    0  0.55814573410E+01  0.10233761817E+02 -0.12871586799E+03  0.12924262927E+03  0.00000000000E+00 0.  1.
         -3    1    1    2    0  502 -0.32448008494E+02 -0.51718947734E+02 -0.25872608778E+03  0.26583248730E+03  0.00000000000E+00 0. -1.
<mgrwt>
<rscale>  1 0.30000000E+03</rscale>
<asrwt>0</asrwt>
<pdfrwt beam="1">  1       21 0.17526622E-01 0.30000000E+03</pdfrwt>
<pdfrwt beam="2">0</pdfrwt>
<totfact> 0.30801382E+03</totfact>
</mgrwt>
</event>
<event>
 6    1  0.8397183E-002  0.3000000E+03  0.7818608E-02  0.1093470E+00
         21   -1    0    0  501  502  0.00000000000E+00  0.00000000000E+00  0.93513689239E+00  0.93513689239E+00  0.00000000000E+00 0. -1.
         13   -1    0    0    0    0 -0.00000000000E+00 -0.00000000000E+00 -0.10000000000E+04  0.10000000000E+04  0.00000000000E+00 0.  1.
    9000005    2    1    2  501    0 -0.12184811432E+02 -0.27954222278E+02 -0.51157533421E+03  0.51249276674E+03  0.30992287081E+01 0.  0.
         13    1    3    3    0    0  0.91854872774E-01 -0.59429526708E+00 -0.15686497409E+02  0.15698019784E+02  0.00000000000E+00 0.  1.
          1    1    3    3  501    0 -0.12276666305E+02 -0.27359927010E+02 -0.49588883680E+03  0.49679474696E+03  0.00000000000E+00 0.  1.
         -3    1    1    2    0  502  0.12184811432E+02  0.27954222278E+02 -0.48748952890E+03  0.48844237015E+03  0.00000000000E+00 0. -1.
<mgrwt>
<rscale>  1 0.30000000E+03</rscale>
<asrwt>0</asrwt>
<pdfrwt beam="1">  1       21 0.34005050E-02 0.30000000E+03</pdfrwt>
<pdfrwt beam="2">0</pdfrwt>
<totfact> 0.55217315E+04</totfact>
</mgrwt>
</event>
<event>
 6    1  0.8397183E-002  0.3000000E+03  0.7818608E-02  0.1093470E+00
         21   -1    0    0  501  502  0.00000000000E+00  0.00000000000E+00  0.15413625284E+01  0.15413625284E+01  0.00000000000E+00 0. -1.
         13   -1    0    0    0    0 -0.00000000000E+00 -0.00000000000E+00 -0.10000000000E+04  0.10000000000E+04  0.00000000000E+00 0.  1.
    9000005    2    1    2  501    0  0.13942844845E+02  0.30667019884E+02 -0.24531699139E+03  0.24764666956E+03  0.36847857677E+01 0.  0.
         13    1    3    3    0    0  0.18981076304E+01  0.48369779845E+01 -0.48354164978E+02  0.48632545063E+02  0.00000000000E+00 0.  1.
          1    1    3    3  501    0  0.12044737215E+02  0.25830041899E+02 -0.19696282642E+03  0.19901412450E+03  0.00000000000E+00 0.  1.
         -3    1    1    2    0  502 -0.13942844845E+02 -0.30667019884E+02 -0.75314164608E+03  0.75389469297E+03  0.00000000000E+00 0. -1.
<mgrwt>
<rscale>  1 0.30000000E+03</rscale>
<asrwt>0</asrwt>
<pdfrwt beam="1">  1       21 0.56049665E-02 0.30000000E+03</pdfrwt>
<pdfrwt beam="2">0</pdfrwt>
<totfact> 0.23692969E+04</totfact>
</mgrwt>
</event>
<event>
 6    1  0.8397183E-002  0.3000000E+03  0.7818608E-02  0.1093470E+00
         21   -1    0    0  501  502  0.00000000000E+00  0.00000000000E+00  0.15562082943E+01  0.15562082943E+01  0.00000000000E+00 0. -1.
         13   -1    0    0    0    0 -0.00000000000E+00 -0.00000000000E+00 -0.10000000000E+04  0.10000000000E+04  0.00000000000E+00 0.  1.
    9000005    2    1    2  501    0  0.28905218531E+02  0.26501189672E+02 -0.45577054878E+03  0.45746791280E+03  0.35033396961E+01 0.  0.
         13    1    3    3    0    0  0.22886038342E+02  0.22381616899E+02 -0.38103802668E+03  0.38238028885E+03  0.00000000000E+00 0.  1.
          3    1    3    3  501    0  0.60191801890E+01  0.41195727726E+01 -0.74732522105E+02  0.75087623948E+02  0.00000000000E+00 0.  1.
         -1    1    1    2    0  502 -0.28905218531E+02 -0.26501189672E+02 -0.54267324292E+03  0.54408829550E+03  0.00000000000E+00 0. -1.
<mgrwt>
<rscale>  1 0.30000000E+03</rscale>
<asrwt>0</asrwt>
<pdfrwt beam="1">  1       21 0.56589512E-02 0.30000000E+03</pdfrwt>
<pdfrwt beam="2">0</pdfrwt>
<totfact> 0.23306030E+04</totfact>
</mgrwt>
</event>
<event>
 6    1  0.8397183E-002  0.3000000E+03  0.7818608E-02  0.1093470E+00
         21   -1    0    0  501  502  0.00000000000E+00  0.00000000000E+00  0.98348153204E+00  0.98348153204E+00  0.00000000000E+00 0. -1.
         13   -1    0    0    0    0 -0.00000000000E+00 -0.00000000000E+00 -0.10000000000E+04  0.10000000000E+04  0.00000000000E+00 0.  1.
    9000005    2    1    2  501    0  0.25164322775E+02 -0.17425900227E+02 -0.40874709826E+03  0.40992096913E+03  0.49097304975E+01 0.  0.
         13    1    3    3    0    0  0.53814319266E+01 -0.34760164129E+01 -0.11492285910E+03  0.11510128602E+03  0.00000000000E+00 0.  1.
          3    1    3    3  501    0  0.19782890848E+02 -0.13949883814E+02 -0.29382423916E+03  0.29481968310E+03  0.00000000000E+00 0.  1.
         -3    1    1    2    0  502 -0.25164322775E+02  0.17425900227E+02 -0.59026942021E+03  0.59106251241E+03  0.00000000000E+00 0. -1.
<mgrwt>
<rscale>  1 0.30000000E+03</rscale>
<asrwt>0</asrwt>
<pdfrwt beam="1">  1       21 0.35763040E-02 0.30000000E+03</pdfrwt>
<pdfrwt beam="2">0</pdfrwt>
<totfact> 0.50749180E+04</totfact>
</mgrwt>
</event>
<event>
 6    1  0.8397183E-002  0.3000000E+03  0.7818608E-02  0.1093470E+00
         21   -1    0    0  501  502  0.00000000000E+00  0.00000000000E+00  0.22628625753E+01  0.22628625753E+01  0.00000000000E+00 0. -1.
         13   -1    0    0    0    0 -0.00000000000E+00 -0.00000000000E+00 -0.10000000000E+04  0.10000000000E+04  0.00000000000E+00 0.  1.
    9000005    2    1    2  501    0  0.19107634744E+02  0.39347974049E+02 -0.69482834829E+03  0.69621205094E+03  0.33795739260E+01 0.  0.
         13    1    3    3    0    0  0.10674227754E+01  0.17800703030E+01 -0.23545247567E+02  0.23636554839E+02  0.00000000000E+00 0.  1.
          3    1    3    3  501    0  0.18040211968E+02  0.37567903746E+02 -0.67128310072E+03  0.67257549610E+03  0.00000000000E+00 0.  1.
         -3    1    1    2    0  502 -0.19107634744E+02 -0.39347974049E+02 -0.30290878914E+03  0.30605081164E+03  0.00000000000E+00 0. -1.
<mgrwt>
<rscale>  1 0.30000000E+03</rscale>
<asrwt>0</asrwt>
<pdfrwt beam="1">  1       21 0.82286085E-02 0.30000000E+03</pdfrwt>
<pdfrwt beam="2">0</pdfrwt>
<totfact> 0.12156589E+04</totfact>
</mgrwt>
</event>
<event>
 6    1  0.8397183E-002  0.3000000E+03  0.7818608E-02  0.1093470E+00
         21   -1    0    0  501  502  0.00000000000E+00  0.00000000000E+00  0.26453736759E+01  0.26453736759E+01  0.00000000000E+00 0. -1.
         13   -1    0    0    0    0 -0.00000000000E+00 -0.00000000000E+00 -0.10000000000E+04  0.10000000000E+04  0.00000000000E+00 0.  1.
    9000005    2    1    2  501    0  0.12617457313E+02  0.49758973288E+02 -0.51975496106E+03  0.52229488090E+03  0.34010901150E+01 0.  0.
         13    1    3    3    0    0  0.65418995605E+01  0.25698575529E+02 -0.28571200847E+03  0.28694000247E+03  0.00000000000E+00 0.  1.
          1    1    3    3  501    0  0.60755577524E+01  0.24060397759E+02 -0.23404295260E+03  0.23535487843E+03  0.00000000000E+00 0.  1.
         -3    1    1    2    0  502 -0.12617457313E+02 -0.49758973288E+02 -0.47759966526E+03  0.48035049278E+03  0.00000000000E+00 0. -1.
<mgrwt>
<rscale>  1 0.30000000E+03</rscale>
<asrwt>0</asrwt>
<pdfrwt beam="1">  1       21 0.96195609E-02 0.30000000E+03</pdfrwt>
<pdfrwt beam="2">0</pdfrwt>
<totfact> 0.92198899E+03</totfact>
</mgrwt>
</event>
<event>
 6    1  0.8397183E-002  0.3000000E+03  0.7818608E-02  0.1093470E+00
         21   -1    0    0  501  502  0.00000000000E+00  0.00000000000E+00  0.51339333193E+01  0.51339333193E+01  0.00000000000E+00 0. -1.
         13   -1    0    0    0    0 -0.00000000000E+00 -0.00000000000E+00 -0.10000000000E+04  0.10000000000E+04  0.00000000000E+00 0.  1.
    9000005    2    1    2  501    0 -0.15023386015E+02  0.38135140908E+02 -0.85888899620E+02  0.95233124803E+02  0.35290058915E+01 0.  0.
         13    1    3    3    0    0 -0.12117352742E+02  0.33742799336E+02 -0.73861284119E+02  0.82102959972E+02  0.00000000000E+00 0.  1.
          1    1    3    3  501    0 -0.29060332727E+01  0.43923415713E+01 -0.12027615501E+02  0.13130164831E+02  0.00000000000E+00 0.  1.
         -3    1    1    2    0  502  0.15023386015E+02 -0.38135140908E+02 -0.90897716706E+03  0.90990080852E+03  0.00000000000E+00 0. -1.
<mgrwt>
<rscale>  1 0.30000000E+03</rscale>
<asrwt>0</asrwt>
<pdfrwt beam="1">  1       21 0.18668888E-01 0.30000000E+03</pdfrwt>
<pdfrwt beam="2">0</pdfrwt>
<totfact> 0.27346135E+03</totfact>
</mgrwt>
</event>
<event>
 6    1  0.8397183E-002  0.3000000E+03  0.7818608E-02  0.1093470E+00
         21   -1    0    0  501  502  0.00000000000E+00  0.00000000000E+00  0.21566962536E+01  0.21566962536E+01  0.00000000000E+00 0. -1.
         13   -1    0    0    0    0 -0.00000000000E+00 -0.00000000000E+00 -0.10000000000E+04  0.10000000000E+04  0.00000000000E+00 0.  1.
    9000005    2    1    2  501    0 -0.16636398374E+02 -0.40233945332E+02 -0.67227196582E+03  0.67368716009E+03  0.30419625238E+01 0.  0.
         13    1    3    3    0    0 -0.16539881398E+02 -0.40131456500E+02 -0.67156534920E+03  0.67296665573E+03  0.00000000000E+00 0.  1.
          3    1    3    3  501    0 -0.96516975306E-01 -0.10248883140E+00 -0.70661661507E+00  0.72050435653E+00  0.00000000000E+00 0.  1.
         -3    1    1    2    0  502  0.16636398374E+02  0.40233945332E+02 -0.32557133793E+03  0.32846953616E+03  0.00000000000E+00 0. -1.
<mgrwt>
<rscale>  1 0.30000000E+03</rscale>
<asrwt>0</asrwt>
<pdfrwt beam="1">  1       21 0.78425484E-02 0.30000000E+03</pdfrwt>
<pdfrwt beam="2">0</pdfrwt>
<totfact> 0.13227484E+04</totfact>
</mgrwt>
</event>
<event>
 6    1  0.8397183E-002  0.3000000E+03  0.7818608E-02  0.1093470E+00
         21   -1    0    0  501  502  0.00000000000E+00  0.00000000000E+00  0.11837494909E+01  0.11837494909E+01  0.00000000000E+00 0. -1.
         13   -1    0    0    0    0 -0.00000000000E+00 -0.00000000000E+00 -0.10000000000E+04  0.10000000000E+04  0.00000000000E+00 0.  1.
    9000005    2    1    2  501    0 -0.20421147336E+02  0.24826624573E+02 -0.32523320784E+03  0.32683406281E+03  0.32373738140E+01 0.  0.
         13    1    3    3    0    0 -0.17152856905E+02  0.18789220477E+02 -0.25774090140E+03  0.25899348942E+03  0.00000000000E+00 0.  1.
          3    1    3    3  501    0 -0.32682904311E+01  0.60374040957E+01 -0.67492306437E+02  0.67840573396E+02  0.00000000000E+00 0.  1.
         -3    1    1    2    0  502  0.20421147336E+02 -0.24826624573E+02 -0.67358304267E+03  0.67434968668E+03  0.00000000000E+00 0. -1.
<mgrwt>
<rscale>  1 0.30000000E+03</rscale>
<asrwt>0</asrwt>
<pdfrwt beam="1">  1       21 0.43045527E-02 0.30000000E+03</pdfrwt>
<pdfrwt beam="2">0</pdfrwt>
<totfact> 0.37150196E+04</totfact>
</mgrwt>
</event>
<event>
 6    1  0.8397183E-002  0.3000000E+03  0.7818608E-02  0.1093470E+00
         21   -1    0    0  501  502  0.00000000000E+00  0.00000000000E+00  0.25726020191E+01  0.25726020191E+01  0.00000000000E+00 0. -1.
         13   -1    0    0    0    0 -0.00000000000E+00 -0.00000000000E+00 -0.10000000000E+04  0.10000000000E+04  0.00000000000E+00 0.  1.
    9000005    2    1    2  501    0  0.39869711376E+02  0.31272829091E+02 -0.49449967161E+03  0.49709868412E+03  0.30972255278E+01 0.  0.
         13    1    3    3    0    0  0.85802863548E+01  0.83532312966E+01 -0.11971797162E+03  0.12031537938E+03  0.00000000000E+00 0.  1.
          3    1    3    3  501    0  0.31289425021E+02  0.22919597794E+02 -0.37478169999E+03  0.37678330474E+03  0.00000000000E+00 0.  1.
         -1    1    1    2    0  502 -0.39869711376E+02 -0.31272829091E+02 -0.50292772637E+03  0.50547391790E+03  0.00000000000E+00 0. -1.
<mgrwt>
<rscale>  1 0.30000000E+03</rscale>
<asrwt>0</asrwt>
<pdfrwt beam="1">  1       21 0.93549362E-02 0.30000000E+03</pdfrwt>
<pdfrwt beam="2">0</pdfrwt>
<totfact> 0.96894985E+03</totfact>
</mgrwt>
</event>
<event>
 6    1  0.8397183E-002  0.3000000E+03  0.7818608E-02  0.1093470E+00
         21   -1    0    0  501  502  0.00000000000E+00  0.00000000000E+00  0.27601956865E+01  0.27601956865E+01  0.00000000000E+00 0. -1.
         13   -1    0    0    0    0 -0.00000000000E+00 -0.00000000000E+00 -0.10000000000E+04  0.10000000000E+04  0.00000000000E+00 0.  1.
    9000005    2    1    2  501    0 -0.35165286896E+02 -0.24602772704E+02 -0.21075783521E+03  0.21510812685E+03  0.32783081941E+01 0.  0.
         13    1    3    3    0    0 -0.32386938894E+02 -0.21669343736E+02 -0.18830975584E+03  0.19229934585E+03  0.00000000000E+00 0.  1.
          3    1    3    3  501    0 -0.27783480023E+01 -0.29334289683E+01 -0.22448079373E+02  0.22808780999E+02  0.00000000000E+00 0.  1.
         -1    1    1    2    0  502  0.35165286896E+02  0.24602772704E+02 -0.78648196910E+03  0.78765206884E+03  0.00000000000E+00 0. -1.
<mgrwt>
<rscale>  1 0.30000000E+03</rscale>
<asrwt>0</asrwt>
<pdfrwt beam="1">  1       21 0.10037096E-01 0.30000000E+03</pdfrwt>
<pdfrwt beam="2">0</pdfrwt>
<totfact> 0.85464584E+03</totfact>
</mgrwt>
</event>
<event>
 6    1  0.8397183E-002  0.3000000E+03  0.7818608E-02  0.1093470E+00
         21   -1    0    0  501  502  0.00000000000E+00  0.00000000000E+00  0.21822430462E+01  0.21822430462E+01  0.00000000000E+00 0. -1.
         13   -1    0    0    0    0 -0.00000000000E+00 -0.00000000000E+00 -0.10000000000E+04  0.10000000000E+04  0.00000000000E+00 0.  1.
    9000005    2    1    2  501    0  0.39322281658E+02  0.24908524058E+02 -0.53294772906E+03  0.53498761632E+03  0.34338466105E+01 0.  0.
         13    1    3    3    0    0  0.25656329606E+02  0.15313803080E+02 -0.35812094781E+03  0.35936523632E+03  0.00000000000E+00 0.  1.
          1    1    3    3  501    0  0.13665952051E+02  0.95947209783E+01 -0.17482678125E+03  0.17562238000E+03  0.00000000000E+00 0.  1.
         -3    1    1    2    0  502 -0.39322281658E+02 -0.24908524058E+02 -0.46487002789E+03  0.46719462672E+03  0.00000000000E+00 0. -1.
<mgrwt>
<rscale>  1 0.30000000E+03</rscale>
<asrwt>0</asrwt>
<pdfrwt beam="1">  1       21 0.79354460E-02 0.30000000E+03</pdfrwt>
<pdfrwt beam="2">0</pdfrwt>
<totfact> 0.12956909E+04</totfact>
</mgrwt>
</event>
<event>
 6    1  0.8397183E-002  0.3000000E+03  0.7818608E-02  0.1093470E+00
         21   -1    0    0  501  502  0.00000000000E+00  0.00000000000E+00  0.10688782336E+01  0.10688782336E+01  0.00000000000E+00 0. -1.
         13   -1    0    0    0    0 -0.00000000000E+00 -0.00000000000E+00 -0.10000000000E+04  0.10000000000E+04  0.00000000000E+00 0.  1.
    9000005    2    1    2  501    0 -0.96376488988E+01 -0.31143196126E+02 -0.51620579479E+03  0.51724398817E+03  0.31839882776E+01 0.  0.
         13    1    3    3    0    0 -0.74094889059E+01 -0.25668740086E+02 -0.40375351384E+03  0.40463648462E+03  0.00000000000E+00 0.  1.
          3    1    3    3  501    0 -0.22281599929E+01 -0.54744560397E+01 -0.11245228095E+03  0.11260750356E+03  0.00000000000E+00 0.  1.
         -1    1    1    2    0  502  0.96376488988E+01  0.31143196126E+02 -0.48272532697E+03  0.48382489006E+03  0.00000000000E+00 0. -1.
<mgrwt>
<rscale>  1 0.30000000E+03</rscale>
<asrwt>0</asrwt>
<pdfrwt beam="1">  1       21 0.38868381E-02 0.30000000E+03</pdfrwt>
<pdfrwt beam="2">0</pdfrwt>
<totfact> 0.44127851E+04</totfact>
</mgrwt>
</event>
<event>
 6    1  0.8397183E-002  0.3000000E+03  0.7818608E-02  0.1093470E+00
         21   -1    0    0  501  502  0.00000000000E+00  0.00000000000E+00  0.13681823611E+01  0.13681823611E+01  0.00000000000E+00 0. -1.
         13   -1    0    0    0    0 -0.00000000000E+00 -0.00000000000E+00 -0.10000000000E+04  0.10000000000E+04  0.00000000000E+00 0.  1.
    9000005    2    1    2  501    0  0.14277179163E+02 -0.33535886893E+02 -0.57782916309E+03  0.57898995419E+03  0.37857344405E+01 0.  0.
         13    1    3    3    0    0  0.10499248597E+02 -0.20129009418E+02 -0.36552363292E+03  0.36622798564E+03  0.00000000000E+00 0.  1.
          3    1    3    3  501    0  0.37779305661E+01 -0.13406877475E+02 -0.21230553017E+03  0.21276196856E+03  0.00000000000E+00 0.  1.
         -1    1    1    2    0  502 -0.14277179163E+02  0.33535886893E+02 -0.42080265455E+03  0.42237822817E+03  0.00000000000E+00 0. -1.
<mgrwt>
<rscale>  1 0.30000000E+03</rscale>
<asrwt>0</asrwt>
<pdfrwt beam="1">  1       21 0.49752191E-02 0.30000000E+03</pdfrwt>
<pdfrwt beam="2">0</pdfrwt>
<totfact> 0.29049635E+04</totfact>
</mgrwt>
</event>
<event>
 6    1  0.8397183E-002  0.3000000E+03  0.7818608E-02  0.1093470E+00
         21   -1    0    0  501  502  0.00000000000E+00  0.00000000000E+00  0.10304293868E+01  0.10304293868E+01  0.00000000000E+00 0. -1.
         13   -1    0    0    0    0 -0.00000000000E+00 -0.00000000000E+00 -0.10000000000E+04  0.10000000000E+04  0.00000000000E+00 0.  1.
    9000005    2    1    2  501    0 -0.17377160703E+02  0.26683379471E+02 -0.45515673394E+03  0.45628611341E+03  0.39238233143E+01 0.  0.
         13    1    3    3    0    0 -0.46105293824E+01  0.90950640760E+01 -0.16693947793E+03  0.16725060975E+03  0.00000000000E+00 0.  1.
          3    1    3    3  501    0 -0.12766631320E+02  0.17588315395E+02 -0.28821725601E+03  0.28903550366E+03  0.00000000000E+00 0.  1.
         -1    1    1    2    0  502  0.17377160703E+02 -0.26683379471E+02 -0.54381283667E+03  0.54474431597E+03  0.00000000000E+00 0. -1.
<mgrwt>
<rscale>  1 0.30000000E+03</rscale>
<asrwt>0</asrwt>
<pdfrwt beam="1">  1       21 0.37470239E-02 0.30000000E+03</pdfrwt>
<pdfrwt beam="2">0</pdfrwt>
<totfact> 0.46929801E+04</totfact>
</mgrwt>
</event>
<event>
 6    1  0.8397183E-002  0.3000000E+03  0.7818608E-02  0.1093470E+00
         21   -1    0    0  501  502  0.00000000000E+00  0.00000000000E+00  0.18193091027E+01  0.18193091027E+01  0.00000000000E+00 0. -1.
         13   -1    0    0    0    0 -0.00000000000E+00 -0.00000000000E+00 -0.10000000000E+04  0.10000000000E+04  0.00000000000E+00 0.  1.
    9000005    2    1    2  501    0  0.15489646527E+02 -0.39053593998E+02 -0.57659281362E+03  0.57814319386E+03  0.50167263488E+01 0.  0.
         13    1    3    3    0    0  0.15847482714E+02 -0.37435411640E+02 -0.55526761120E+03  0.55675369133E+03  0.00000000000E+00 0.  1.
          3    1    3    3  501    0 -0.35783618713E+00 -0.16181823580E+01 -0.21325202412E+02  0.21389502537E+02  0.00000000000E+00 0.  1.
         -3    1    1    2    0  502 -0.15489646527E+02  0.39053593998E+02 -0.42158787728E+03  0.42367611524E+03  0.00000000000E+00 0. -1.
<mgrwt>
<rscale>  1 0.30000000E+03</rscale>
<asrwt>0</asrwt>
<pdfrwt beam="1">  1       21 0.66156834E-02 0.30000000E+03</pdfrwt>
<pdfrwt beam="2">0</pdfrwt>
<totfact> 0.17797756E+04</totfact>
</mgrwt>
</event>
<event>
 6    1  0.8397183E-002  0.3000000E+03  0.7818608E-02  0.1093470E+00
         21   -1    0    0  501  502  0.00000000000E+00  0.00000000000E+00  0.16652728281E+01  0.16652728281E+01  0.00000000000E+00 0. -1.
         13   -1    0    0    0    0 -0.00000000000E+00 -0.00000000000E+00 -0.10000000000E+04  0.10000000000E+04  0.00000000000E+00 0.  1.
    9000005    2    1    2  501    0 -0.24755072950E+02 -0.23751877693E+02 -0.76947837340E+03  0.77025179873E+03  0.37284033341E+01 0.  0.
         13    1    3    3    0    0 -0.68161522595E+01 -0.50727067132E+01 -0.21839756311E+03  0.21856277784E+03  0.00000000000E+00 0.  1.
          1    1    3    3  501    0 -0.17938920691E+02 -0.18679170980E+02 -0.55108081029E+03  0.55168902089E+03  0.00000000000E+00 0.  1.
         -1    1    1    2    0  502  0.24755072950E+02  0.23751877693E+02 -0.22885635378E+03  0.23141347410E+03  0.00000000000E+00 0. -1.
<mgrwt>
<rscale>  1 0.30000000E+03</rscale>
<asrwt>0</asrwt>
<pdfrwt beam="1">  1       21 0.60555503E-02 0.30000000E+03</pdfrwt>
<pdfrwt beam="2">0</pdfrwt>
<totfact> 0.20739340E+04</totfact>
</mgrwt>
</event>
<event>
 6    1  0.8397183E-002  0.3000000E+03  0.7818608E-02  0.1093470E+00
         21   -1    0    0  501  502  0.00000000000E+00  0.00000000000E+00  0.44011614992E+01  0.44011614992E+01  0.00000000000E+00 0. -1.
         13   -1    0    0    0    0 -0.00000000000E+00 -0.00000000000E+00 -0.10000000000E+04  0.10000000000E+04  0.00000000000E+00 0.  1.
    9000005    2    1    2  501    0 -0.42446677362E+02 -0.39592817464E+02 -0.74019144681E+03  0.74248085426E+03  0.50129231835E+01 0.  0.
         13    1    3    3    0    0 -0.17498105587E+02 -0.15579764514E+02 -0.26863616303E+03  0.26965589341E+03  0.00000000000E+00 0.  1.
          3    1    3    3  501    0 -0.24948571775E+02 -0.24013052950E+02 -0.47155528377E+03  0.47282496085E+03  0.00000000000E+00 0.  1.
         -3    1    1    2    0  502  0.42446677362E+02  0.39592817464E+02 -0.25540739169E+03  0.26192030724E+03  0.00000000000E+00 0. -1.
<mgrwt>
<rscale>  1 0.30000000E+03</rscale>
<asrwt>0</asrwt>
<pdfrwt beam="1">  1       21 0.16004257E-01 0.30000000E+03</pdfrwt>
<pdfrwt beam="2">0</pdfrwt>
<totfact> 0.36508535E+03</totfact>
</mgrwt>
</event>
<event>
 6    1  0.8397183E-002  0.3000000E+03  0.7818608E-02  0.1093470E+00
         21   -1    0    0  501  502  0.00000000000E+00  0.00000000000E+00  0.24209427720E+01  0.24209427720E+01  0.00000000000E+00 0. -1.
         13   -1    0    0    0    0 -0.00000000000E+00 -0.00000000000E+00 -0.10000000000E+04  0.10000000000E+04  0.00000000000E+00 0.  1.
    9000005    2    1    2  501    0 -0.41314535301E+02 -0.22696717475E+01 -0.76955191183E+03  0.77067016872E+03  0.32127420010E+01 0.  0.
         13    1    3    3    0    0 -0.31974896562E+02 -0.26941128507E+01 -0.61315397542E+03  0.61399303728E+03  0.00000000000E+00 0.  1.
          3    1    3    3  501    0 -0.93396387391E+01  0.42444110319E+00 -0.15639793641E+03  0.15667713144E+03  0.00000000000E+00 0.  1.
         -1    1    1    2    0  502  0.41314535301E+02  0.22696717475E+01 -0.22802714539E+03  0.23175077405E+03  0.00000000000E+00 0. -1.
<mgrwt>
<rscale>  1 0.30000000E+03</rscale>
<asrwt>0</asrwt>
<pdfrwt beam="1">  1       21 0.88034468E-02 0.30000000E+03</pdfrwt>
<pdfrwt beam="2">0</pdfrwt>
<totfact> 0.10791717E+04</totfact>
</mgrwt>
</event>
<event>
 6    1  0.8397183E-002  0.3000000E+03  0.7818608E-02  0.1093470E+00
         21   -1    0    0  501  502  0.00000000000E+00  0.00000000000E+00  0.47183496321E+01  0.47183496321E+01  0.00000000000E+00 0. -1.
         13   -1    0    0    0    0 -0.00000000000E+00 -0.00000000000E+00 -0.10000000000E+04  0.10000000000E+04  0.00000000000E+00 0.  1.
    9000005    2    1    2  501    0 -0.31267976822E+02 -0.54946349973E+02 -0.69354266613E+03  0.69642757397E+03  0.36260573532E+01 0.  0.
         13    1    3    3    0    0 -0.28347145050E+02 -0.50439996674E+02 -0.62316772408E+03  0.62584803765E+03  0.00000000000E+00 0.  1.
          3    1    3    3  501    0 -0.29208317721E+01 -0.45063532989E+01 -0.70374942056E+02  0.70579536324E+02  0.00000000000E+00 0.  1.
         -3    1    1    2    0  502  0.31267976822E+02  0.54946349973E+02 -0.30173898424E+03  0.30829077566E+03  0.00000000000E+00 0. -1.
<mgrwt>
<rscale>  1 0.30000000E+03</rscale>
<asrwt>0</asrwt>
<pdfrwt beam="1">  1       21 0.17157671E-01 0.30000000E+03</pdfrwt>
<pdfrwt beam="2">0</pdfrwt>
<totfact> 0.32055874E+03</totfact>
</mgrwt>
</event>
<event>
 6    1  0.8858151E-002  0.3000000E+03  0.7818608E-02  0.1093470E+00
         21   -1    0    0  501  502  0.00000000000E+00  0.00000000000E+00  0.13136226740E+01  0.13136226740E+01  0.00000000000E+00 0. -1.
         13   -1    0    0    0    0 -0.00000000000E+00 -0.00000000000E+00 -0.10000000000E+04  0.10000000000E+04  0.00000000000E+00 0.  1.
    9000005    2    1    2  501    0 -0.32126430523E+02 -0.38961772229E+01 -0.71415068501E+03  0.71494349865E+03  0.92583809741E+01 0.  0.
         13    1    3    3    0    0 -0.13640872553E+02 -0.40312579716E+01 -0.39678970428E+03  0.39704457416E+03  0.00000000000E+00 0.  1.
          3    1    3    3  501    0 -0.18485557970E+02  0.13508074862E+00 -0.31736098073E+03  0.31789892449E+03  0.00000000000E+00 0.  1.
         -3    1    1    2    0  502  0.32126430523E+02  0.38961772229E+01 -0.28453569231E+03  0.28637012403E+03  0.00000000000E+00 0. -1.
<mgrwt>
<rscale>  1 0.30000000E+03</rscale>
<asrwt>0</asrwt>
<pdfrwt beam="1">  1       21 0.47768198E-02 0.30000000E+03</pdfrwt>
<pdfrwt beam="2">0</pdfrwt>
<totfact> 0.31133923E+04</totfact>
</mgrwt>
</event>
<event>
 6    1  0.8397183E-002  0.3000000E+03  0.7818608E-02  0.1093470E+00
         21   -1    0    0  501  502  0.00000000000E+00  0.00000000000E+00  0.82690443613E+01  0.82690443613E+01  0.00000000000E+00 0. -1.
         13   -1    0    0    0    0 -0.00000000000E+00 -0.00000000000E+00 -0.10000000000E+04  0.10000000000E+04  0.00000000000E+00 0.  1.
    9000005    2    1    2  501    0 -0.63338761927E+02  0.60209669026E+02 -0.63492065201E+03  0.64091281972E+03  0.28293332260E+01 0.  0.
         13    1    3    3    0    0 -0.69817862321E+01  0.60447268997E+01 -0.72833370414E+02  0.73416509779E+02  0.00000000000E+00 0.  1.
          3    1    3    3  501    0 -0.56356975695E+02  0.54164942126E+02 -0.56208728160E+03  0.56749630994E+03  0.00000000000E+00 0.  1.
         -1    1    1    2    0  502  0.63338761927E+02 -0.60209669026E+02 -0.35681030363E+03  0.36735622464E+03  0.00000000000E+00 0. -1.
<mgrwt>
<rscale>  1 0.30000000E+03</rscale>
<asrwt>0</asrwt>
<pdfrwt beam="1">  1       21 0.30069316E-01 0.30000000E+03</pdfrwt>
<pdfrwt beam="2">0</pdfrwt>
<totfact> 0.10822705E+03</totfact>
</mgrwt>
</event>
<event>
 6    1  0.8397183E-002  0.3000000E+03  0.7818608E-02  0.1093470E+00
         21   -1    0    0  501  502  0.00000000000E+00  0.00000000000E+00  0.20960515105E+01  0.20960515105E+01  0.00000000000E+00 0. -1.
         13   -1    0    0    0    0 -0.00000000000E+00 -0.00000000000E+00 -0.10000000000E+04  0.10000000000E+04  0.00000000000E+00 0.  1.
    9000005    2    1    2  501    0 -0.35049642025E+02 -0.24130143290E+02 -0.31763019978E+03  0.32049271055E+03  0.39865378551E+01 0.  0.
         13    1    3    3    0    0 -0.24154923891E+02 -0.15194761661E+02 -0.20143515736E+03  0.20344646409E+03  0.00000000000E+00 0.  1.
          1    1    3    3  501    0 -0.10894718134E+02 -0.89353816285E+01 -0.11619504242E+03  0.11704624646E+03  0.00000000000E+00 0.  1.
         -3    1    1    2    0  502  0.35049642025E+02  0.24130143290E+02 -0.68027374871E+03  0.68160334096E+03  0.00000000000E+00 0. -1.
<mgrwt>
<rscale>  1 0.30000000E+03</rscale>
<asrwt>0</asrwt>
<pdfrwt beam="1">  1       21 0.76220216E-02 0.30000000E+03</pdfrwt>
<pdfrwt beam="2">0</pdfrwt>
<totfact> 0.13905787E+04</totfact>
</mgrwt>
</event>
<event>
 6    1  0.8397183E-002  0.3000000E+03  0.7818608E-02  0.1093470E+00
         21   -1    0    0  501  502  0.00000000000E+00  0.00000000000E+00  0.14084842419E+01  0.14084842419E+01  0.00000000000E+00 0. -1.
         13   -1    0    0    0    0 -0.00000000000E+00 -0.00000000000E+00 -0.10000000000E+04  0.10000000000E+04  0.00000000000E+00 0.  1.
    9000005    2    1    2  501    0 -0.32743089013E+02 -0.16693432201E+02 -0.40307050552E+03  0.40475443524E+03  0.30886677486E+01 0.  0.
         13    1    3    3    0    0 -0.72931348695E+01 -0.37521060122E+01 -0.76599507610E+02  0.77037346020E+02  0.00000000000E+00 0.  1.
          3    1    3    3  501    0 -0.25449954144E+02 -0.12941326189E+02 -0.32647099791E+03  0.32771708922E+03  0.00000000000E+00 0.  1.
         -3    1    1    2    0  502  0.32743089013E+02  0.16693432201E+02 -0.59552101024E+03  0.59665404900E+03  0.00000000000E+00 0. -1.
<mgrwt>
<rscale>  1 0.30000000E+03</rscale>
<asrwt>0</asrwt>
<pdfrwt beam="1">  1       21 0.51217717E-02 0.30000000E+03</pdfrwt>
<pdfrwt beam="2">0</pdfrwt>
<totfact> 0.27646298E+04</totfact>
</mgrwt>
</event>
<event>
 6    1  0.8397183E-002  0.3000000E+03  0.7818608E-02  0.1093470E+00
         21   -1    0    0  501  502  0.00000000000E+00  0.00000000000E+00  0.14539213698E+01  0.14539213698E+01  0.00000000000E+00 0. -1.
         13   -1    0    0    0    0 -0.00000000000E+00 -0.00000000000E+00 -0.10000000000E+04  0.10000000000E+04  0.00000000000E+00 0.  1.
    9000005    2    1    2  501    0  0.34524647918E+02  0.14013103258E+02 -0.60183949169E+03  0.60300137150E+03  0.34002787260E+01 0.  0.
         13    1    3    3    0    0  0.56838858303E+01  0.24554003341E+01 -0.81299332590E+02  0.81534759633E+02  0.00000000000E+00 0.  1.
          1    1    3    3  501    0  0.28840762087E+02  0.11557702924E+02 -0.52054015910E+03  0.52146661187E+03  0.00000000000E+00 0.  1.
         -1    1    1    2    0  502 -0.34524647918E+02 -0.14013103258E+02 -0.39670658694E+03  0.39845254987E+03  0.00000000000E+00 0. -1.
<mgrwt>
<rscale>  1 0.30000000E+03</rscale>
<asrwt>0</asrwt>
<pdfrwt beam="1">  1       21 0.52869979E-02 0.30000000E+03</pdfrwt>
<pdfrwt beam="2">0</pdfrwt>
<totfact> 0.26186634E+04</totfact>
</mgrwt>
</event>
<event>
 6    1  0.8397183E-002  0.3000000E+03  0.7818608E-02  0.1093470E+00
         21   -1    0    0  501  502  0.00000000000E+00  0.00000000000E+00  0.29302898627E+01  0.29302898627E+01  0.00000000000E+00 0. -1.
         13   -1    0    0    0    0 -0.00000000000E+00 -0.00000000000E+00 -0.10000000000E+04  0.10000000000E+04  0.00000000000E+00 0.  1.
    9000005    2    1    2  501    0 -0.29664605980E+02 -0.44876174215E+02 -0.55103269100E+03  0.55366101392E+03  0.31035351202E+01 0.  0.
         13    1    3    3    0    0 -0.93595163149E+01 -0.12745125989E+02 -0.17427223103E+03  0.17498814043E+03  0.00000000000E+00 0.  1.
          1    1    3    3  501    0 -0.20305089665E+02 -0.32131048226E+02 -0.37676045997E+03  0.37867287349E+03  0.00000000000E+00 0.  1.
         -1    1    1    2    0  502  0.29664605980E+02  0.44876174215E+02 -0.44603701914E+03  0.44926927594E+03  0.00000000000E+00 0. -1.
<mgrwt>
<rscale>  1 0.30000000E+03</rscale>
<asrwt>0</asrwt>
<pdfrwt beam="1">  1       21 0.10655622E-01 0.30000000E+03</pdfrwt>
<pdfrwt beam="2">0</pdfrwt>
<totfact> 0.76785571E+03</totfact>
</mgrwt>
</event>
<event>
 6    1  0.8397183E-002  0.3000000E+03  0.7818608E-02  0.1093470E+00
         21   -1    0    0  501  502  0.00000000000E+00  0.00000000000E+00  0.23485475846E+01  0.23485475846E+01  0.00000000000E+00 0. -1.
         13   -1    0    0    0    0 -0.00000000000E+00 -0.00000000000E+00 -0.10000000000E+04  0.10000000000E+04  0.00000000000E+00 0.  1.
    9000005    2    1    2  501    0 -0.43603707301E+02  0.20450210689E+02 -0.53636008514E+03  0.53854986289E+03  0.58582824144E+01 0.  0.
         13    1    3    3    0    0 -0.12383139863E+02  0.78014489538E+01 -0.18547545464E+03  0.18605200626E+03  0.00000000000E+00 0.  1.
          3    1    3    3  501    0 -0.31220567438E+02  0.12648761735E+02 -0.35088463050E+03  0.35249785663E+03  0.00000000000E+00 0.  1.
         -3    1    1    2    0  502  0.43603707301E+02 -0.20450210689E+02 -0.46129136727E+03  0.46379868470E+03  0.00000000000E+00 0. -1.
<mgrwt>
<rscale>  1 0.30000000E+03</rscale>
<asrwt>0</asrwt>
<pdfrwt beam="1">  1       21 0.85401910E-02 0.30000000E+03</pdfrwt>
<pdfrwt beam="2">0</pdfrwt>
<totfact> 0.11386138E+04</totfact>
</mgrwt>
</event>
<event>
 6    1  0.8397183E-002  0.3000000E+03  0.7818608E-02  0.1093470E+00
         21   -1    0    0  501  502  0.00000000000E+00  0.00000000000E+00  0.15221589136E+01  0.15221589136E+01  0.00000000000E+00 0. -1.
         13   -1    0    0    0    0 -0.00000000000E+00 -0.00000000000E+00 -0.10000000000E+04  0.10000000000E+04  0.00000000000E+00 0.  1.
    9000005    2    1    2  501    0  0.32850187696E+02  0.86014816722E+01 -0.25567651964E+03  0.25794504559E+03  0.34703788945E+01 0.  0.
         13    1    3    3    0    0  0.25052129903E+02  0.66927169332E+01 -0.18341892371E+03  0.18524282239E+03  0.00000000000E+00 0.  1.
          3    1    3    3  501    0  0.77980577935E+01  0.19087647390E+01 -0.72257595925E+02  0.72702223192E+02  0.00000000000E+00 0.  1.
         -3    1    1    2    0  502 -0.32850187696E+02 -0.86014816722E+01 -0.74280132145E+03  0.74357711333E+03  0.00000000000E+00 0. -1.
<mgrwt>
<rscale>  1 0.30000000E+03</rscale>
<asrwt>0</asrwt>
<pdfrwt beam="1">  1       21 0.55351350E-02 0.30000000E+03</pdfrwt>
<pdfrwt beam="2">0</pdfrwt>
<totfact> 0.24208312E+04</totfact>
</mgrwt>
</event>
<event>
 6    1  0.8397183E-002  0.3000000E+03  0.7818608E-02  0.1093470E+00
         21   -1    0    0  501  502  0.00000000000E+00  0.00000000000E+00  0.22140020205E+01  0.22140020205E+01  0.00000000000E+00 0. -1.
         13   -1    0    0    0    0 -0.00000000000E+00 -0.00000000000E+00 -0.10000000000E+04  0.10000000000E+04  0.00000000000E+00 0.  1.
    9000005    2    1    2  501    0  0.42798161588E+02 -0.16602073014E+01 -0.70546499298E+03  0.70677194528E+03  0.33596725337E+01 0.  0.
         13    1    3    3    0    0  0.89228476917E+01 -0.24309377171E+00 -0.17069240696E+03  0.17092563909E+03  0.00000000000E+00 0.  1.
          1    1    3    3  501    0  0.33875313896E+02 -0.14171135297E+01 -0.53477258602E+03  0.53584630619E+03  0.00000000000E+00 0.  1.
         -3    1    1    2    0  502 -0.42798161588E+02  0.16602073014E+01 -0.29232100500E+03  0.29544205674E+03  0.00000000000E+00 0. -1.
<mgrwt>
<rscale>  1 0.30000000E+03</rscale>
<asrwt>0</asrwt>
<pdfrwt beam="1">  1       21 0.80509334E-02 0.30000000E+03</pdfrwt>
<pdfrwt beam="2">0</pdfrwt>
<totfact> 0.12632239E+04</totfact>
</mgrwt>
</event>
<event>
 6    1  0.8397183E-002  0.3000000E+03  0.7818608E-02  0.1093470E+00
         21   -1    0    0  501  502  0.00000000000E+00  0.00000000000E+00  0.14073581677E+01  0.14073581677E+01  0.00000000000E+00 0. -1.
         13   -1    0    0    0    0 -0.00000000000E+00 -0.00000000000E+00 -0.10000000000E+04  0.10000000000E+04  0.00000000000E+00 0.  1.
    9000005    2    1    2  501    0  0.21500366909E+02  0.22165426295E+02 -0.78308732311E+03  0.78370087159E+03  0.27800389280E+01 0.  0.
         13    1    3    3    0    0  0.11080138985E+02  0.12241120046E+02 -0.38628098386E+03  0.38663369356E+03  0.00000000000E+00 0.  1.
          1    1    3    3  501    0  0.10420227924E+02  0.99243062488E+01 -0.39680633925E+03  0.39706717804E+03  0.00000000000E+00 0.  1.
         -1    1    1    2    0  502 -0.21500366909E+02 -0.22165426295E+02 -0.21550531872E+03  0.21770648657E+03  0.00000000000E+00 0. -1.
<mgrwt>
<rscale>  1 0.30000000E+03</rscale>
<asrwt>0</asrwt>
<pdfrwt beam="1">  1       21 0.51176769E-02 0.30000000E+03</pdfrwt>
<pdfrwt beam="2">0</pdfrwt>
<totfact> 0.27684065E+04</totfact>
</mgrwt>
</event>
<event>
 6    1  0.8397183E-002  0.3000000E+03  0.7818608E-02  0.1093470E+00
         21   -1    0    0  501  502  0.00000000000E+00  0.00000000000E+00  0.11335513697E+01  0.11335513697E+01  0.00000000000E+00 0. -1.
         13   -1    0    0    0    0 -0.00000000000E+00 -0.00000000000E+00 -0.10000000000E+04  0.10000000000E+04  0.00000000000E+00 0.  1.
    9000005    2    1    2  501    0 -0.27440641783E+02  0.12324447101E+02 -0.72311911991E+03  0.72375029644E+03  0.28894987399E+01 0.  0.
         13    1    3    3    0    0 -0.76529812780E+01  0.48881498750E+01 -0.21716565528E+03  0.21735543233E+03  0.00000000000E+00 0.  1.
          1    1    3    3  501    0 -0.19787660505E+02  0.74362972259E+01 -0.50595346463E+03  0.50639486411E+03  0.00000000000E+00 0.  1.
         -3    1    1    2    0  502  0.27440641783E+02 -0.12324447101E+02 -0.27574732872E+03  0.27738325493E+03  0.00000000000E+00 0. -1.
<mgrwt>
<rscale>  1 0.30000000E+03</rscale>
<asrwt>0</asrwt>
<pdfrwt beam="1">  1       21 0.41220137E-02 0.30000000E+03</pdfrwt>
<pdfrwt beam="2">0</pdfrwt>
<totfact> 0.39971026E+04</totfact>
</mgrwt>
</event>
<event>
 6    1  0.8880923E-002  0.3000000E+03  0.7818608E-02  0.1093470E+00
         21   -1    0    0  501  502  0.00000000000E+00  0.00000000000E+00  0.98915125232E+00  0.98915125232E+00  0.00000000000E+00 0. -1.
         13   -1    0    0    0    0 -0.00000000000E+00 -0.00000000000E+00 -0.10000000000E+04  0.10000000000E+04  0.00000000000E+00 0.  1.
    9000005    2    1    2  501    0 -0.82142228571E+00  0.31139851268E+02 -0.50907040734E+03  0.51005941982E+03  0.61291967185E+01 0.  0.
         13    1    3    3    0    0 -0.78695983512E-01 -0.21097028183E+00 -0.11496303657E+01  0.11714740694E+01  0.00000000000E+00 0.  1.
          3    1    3    3  501    0 -0.74272630220E+00  0.31350821549E+02 -0.50792077697E+03  0.50888794575E+03  0.00000000000E+00 0.  1.
         -3    1    1    2    0  502  0.82142228571E+00 -0.31139851268E+02 -0.48994044141E+03  0.49092973143E+03  0.00000000000E+00 0. -1.
<mgrwt>
<rscale>  1 0.30000000E+03</rscale>
<asrwt>0</asrwt>
<pdfrwt beam="1">  1       21 0.35969212E-02 0.30000000E+03</pdfrwt>
<pdfrwt beam="2">0</pdfrwt>
<totfact> 0.50262374E+04</totfact>
</mgrwt>
</event>
<event>
 6    1  0.8397183E-002  0.3000000E+03  0.7818608E-02  0.1093470E+00
         21   -1    0    0  501  502  0.00000000000E+00  0.00000000000E+00  0.19192101557E+01  0.19192101557E+01  0.00000000000E+00 0. -1.
         13   -1    0    0    0    0 -0.00000000000E+00 -0.00000000000E+00 -0.10000000000E+04  0.10000000000E+04  0.00000000000E+00 0.  1.
    9000005    2    1    2  501    0  0.28639345962E+02  0.10760271014E+02 -0.85730697011E+03  0.85785927856E+03  0.33623263918E+01 0.  0.
         13    1    3    3    0    0  0.94037337781E+01  0.25838385959E+01 -0.23805118655E+03  0.23825086327E+03  0.00000000000E+00 0.  1.
          1    1    3    3  501    0  0.19235612184E+02  0.81764324178E+01 -0.61925578356E+03  0.61960841529E+03  0.00000000000E+00 0.  1.
         -1    1    1    2    0  502 -0.28639345962E+02 -0.10760271014E+02 -0.14077381973E+03  0.14405993160E+03  0.00000000000E+00 0. -1.
<mgrwt>
<rscale>  1 0.30000000E+03</rscale>
<asrwt>0</asrwt>
<pdfrwt beam="1">  1       21 0.69789607E-02 0.30000000E+03</pdfrwt>
<pdfrwt beam="2">0</pdfrwt>
<totfact> 0.16220025E+04</totfact>
</mgrwt>
</event>
<event>
 6    1  0.8397183E-002  0.3000000E+03  0.7818608E-02  0.1093470E+00
         21   -1    0    0  501  502  0.00000000000E+00  0.00000000000E+00  0.18848975021E+01  0.18848975021E+01  0.00000000000E+00 0. -1.
         13   -1    0    0    0    0 -0.00000000000E+00 -0.00000000000E+00 -0.10000000000E+04  0.10000000000E+04  0.00000000000E+00 0.  1.
    9000005    2    1    2  501    0  0.31732642347E+02 -0.18556500114E+00 -0.15894578589E+03  0.16211580009E+03  0.32824934661E+01 0.  0.
         13    1    3    3    0    0  0.50143330110E+01 -0.10328974153E+01 -0.22345791647E+02  0.22924764273E+02  0.00000000000E+00 0.  1.
          1    1    3    3  501    0  0.26718309336E+02  0.84733241415E+00 -0.13659999424E+03  0.13919103582E+03  0.00000000000E+00 0.  1.
         -1    1    1    2    0  502 -0.31732642347E+02  0.18556500114E+00 -0.83916931661E+03  0.83976909741E+03  0.00000000000E+00 0. -1.
<mgrwt>
<rscale>  1 0.30000000E+03</rscale>
<asrwt>0</asrwt>
<pdfrwt beam="1">  1       21 0.68541872E-02 0.30000000E+03</pdfrwt>
<pdfrwt beam="2">0</pdfrwt>
<totfact> 0.16736852E+04</totfact>
</mgrwt>
</event>
<event>
 6    1  0.8397183E-002  0.3000000E+03  0.7818608E-02  0.1093470E+00
         21   -1    0    0  501  502  0.00000000000E+00  0.00000000000E+00  0.46897687020E+01  0.46897687020E+01  0.00000000000E+00 0. -1.
         13   -1    0    0    0    0 -0.00000000000E+00 -0.00000000000E+00 -0.10000000000E+04  0.10000000000E+04  0.00000000000E+00 0.  1.
    9000005    2    1    2  501    0  0.68427748698E+02  0.11764132076E+01 -0.49474666793E+03  0.49946939925E+03  0.34168138764E+01 0.  0.
         13    1    3    3    0    0  0.43379403954E+02  0.20996675487E+01 -0.30682211980E+03  0.30988061328E+03  0.00000000000E+00 0.  1.
          1    1    3    3  501    0  0.25048344744E+02 -0.92325434113E+00 -0.18792454813E+03  0.18958878596E+03  0.00000000000E+00 0.  1.
         -1    1    1    2    0  502 -0.68427748698E+02 -0.11764132076E+01 -0.50056356337E+03  0.50522036945E+03  0.00000000000E+00 0. -1.
<mgrwt>
<rscale>  1 0.30000000E+03</rscale>
<asrwt>0</asrwt>
<pdfrwt beam="1">  1       21 0.17053740E-01 0.30000000E+03</pdfrwt>
<pdfrwt beam="2">0</pdfrwt>
<totfact> 0.32422949E+03</totfact>
</mgrwt>
</event>
<event>
 6    1  0.8397183E-002  0.3000000E+03  0.7818608E-02  0.1093470E+00
         21   -1    0    0  501  502  0.00000000000E+00  0.00000000000E+00  0.89481587636E+01  0.89481587636E+01  0.00000000000E+00 0. -1.
         13   -1    0    0    0    0 -0.00000000000E+00 -0.00000000000E+00 -0.10000000000E+04  0.10000000000E+04  0.00000000000E+00 0.  1.
    9000005    2    1    2  501    0 -0.10656869514E+01  0.86116346745E+02 -0.70410383628E+03  0.70935457003E+03  0.21290570481E+01 0.  0.
         13    1    3    3    0    0 -0.61167862484E+00  0.66676985291E+02 -0.53790784848E+03  0.54202495143E+03  0.00000000000E+00 0.  1.
          1    1    3    3  501    0 -0.45400832651E+00  0.19439361454E+02 -0.16619598781E+03  0.16732961860E+03  0.00000000000E+00 0.  1.
         -1    1    1    2    0  502  0.10656869514E+01 -0.86116346745E+02 -0.28694800495E+03  0.29959358874E+03  0.00000000000E+00 0. -1.
<mgrwt>
<rscale>  1 0.30000000E+03</rscale>
<asrwt>0</asrwt>
<pdfrwt beam="1">  1       21 0.32538828E-01 0.30000000E+03</pdfrwt>
<pdfrwt beam="2">0</pdfrwt>
<totfact> 0.92322413E+02</totfact>
</mgrwt>
</event>
<event>
 6    1  0.8397183E-002  0.3000000E+03  0.7818608E-02  0.1093470E+00
         21   -1    0    0  501  502  0.00000000000E+00  0.00000000000E+00  0.14979809036E+01  0.14979809036E+01  0.00000000000E+00 0. -1.
         13   -1    0    0    0    0 -0.00000000000E+00 -0.00000000000E+00 -0.10000000000E+04  0.10000000000E+04  0.00000000000E+00 0.  1.
    9000005    2    1    2  501    0  0.34053830826E+02 -0.18081325974E+02 -0.52765068785E+03  0.52907065963E+03  0.37305169798E+01 0.  0.
         13    1    3    3    0    0  0.78593586265E+01 -0.38333364997E+01 -0.99957418570E+02  0.10033917238E+03  0.00000000000E+00 0.  1.
          1    1    3    3  501    0  0.26194472200E+02 -0.14247989474E+02 -0.42769326928E+03  0.42873148725E+03  0.00000000000E+00 0.  1.
         -3    1    1    2    0  502 -0.34053830826E+02  0.18081325974E+02 -0.47085133125E+03  0.47242732127E+03  0.00000000000E+00 0. -1.
<mgrwt>
<rscale>  1 0.30000000E+03</rscale>
<asrwt>0</asrwt>
<pdfrwt beam="1">  1       21 0.54472148E-02 0.30000000E+03</pdfrwt>
<pdfrwt beam="2">0</pdfrwt>
<totfact> 0.24882068E+04</totfact>
</mgrwt>
</event>
<event>
 6    1  0.8397183E-002  0.3000000E+03  0.7818608E-02  0.1093470E+00
         21   -1    0    0  501  502  0.00000000000E+00  0.00000000000E+00  0.24535909246E+01  0.24535909246E+01  0.00000000000E+00 0. -1.
         13   -1    0    0    0    0 -0.00000000000E+00 -0.00000000000E+00 -0.10000000000E+04  0.10000000000E+04  0.00000000000E+00 0.  1.
    9000005    2    1    2  501    0  0.17170951302E+02 -0.45833036855E+02 -0.57240835850E+03  0.57450748347E+03  0.34656672765E+01 0.  0.
         13    1    3    3    0    0  0.38837486456E+01 -0.92432922971E+01 -0.10227777641E+03  0.10276801790E+03  0.00000000000E+00 0.  1.
          1    1    3    3  501    0  0.13287202657E+02 -0.36589744558E+02 -0.47013058209E+03  0.47173946557E+03  0.00000000000E+00 0.  1.
         -3    1    1    2    0  502 -0.17170951302E+02  0.45833036855E+02 -0.42513805057E+03  0.42794610745E+03  0.00000000000E+00 0. -1.
<mgrwt>
<rscale>  1 0.30000000E+03</rscale>
<asrwt>0</asrwt>
<pdfrwt beam="1">  1       21 0.89221676E-02 0.30000000E+03</pdfrwt>
<pdfrwt beam="2">0</pdfrwt>
<totfact> 0.10538959E+04</totfact>
</mgrwt>
</event>
<event>
 6    1  0.8397183E-002  0.3000000E+03  0.7818608E-02  0.1093470E+00
         21   -1    0    0  501  502  0.00000000000E+00  0.00000000000E+00  0.14103546039E+01  0.14103546039E+01  0.00000000000E+00 0. -1.
         13   -1    0    0    0    0 -0.00000000000E+00 -0.00000000000E+00 -0.10000000000E+04  0.10000000000E+04  0.00000000000E+00 0.  1.
    9000005    2    1    2  501    0  0.90956326084E+01  0.32213164027E+02 -0.27555887238E+03  0.27760518939E+03  0.33956673942E+01 0.  0.
         13    1    3    3    0    0  0.79777584174E+01  0.24338447915E+02 -0.20187705038E+03  0.20349532709E+03  0.00000000000E+00 0.  1.
          3    1    3    3  501    0  0.11178741910E+01  0.78747161114E+01 -0.73681822000E+02  0.74109862298E+02  0.00000000000E+00 0.  1.
         -1    1    1    2    0  502 -0.90956326084E+01 -0.32213164027E+02 -0.72303077302E+03  0.72380516522E+03  0.00000000000E+00 0. -1.
<mgrwt>
<rscale>  1 0.30000000E+03</rscale>
<asrwt>0</asrwt>
<pdfrwt beam="1">  1       21 0.51285730E-02 0.30000000E+03</pdfrwt>
<pdfrwt beam="2">0</pdfrwt>
<totfact> 0.27583746E+04</totfact>
</mgrwt>
</event>
<event>
 6    1  0.8397183E-002  0.3000000E+03  0.7818608E-02  0.1093470E+00
         21   -1    0    0  501  502  0.00000000000E+00  0.00000000000E+00  0.23557737206E+02  0.23557737206E+02  0.00000000000E+00 0. -1.
         13   -1    0    0    0    0 -0.00000000000E+00 -0.00000000000E+00 -0.10000000000E+04  0.10000000000E+04  0.00000000000E+00 0.  1.
    9000005    2    1    2  501    0  0.13993560522E+03  0.51814196327E+02 -0.36870764668E+03  0.39777179283E+03  0.32227171388E+01 0.  0.
         13    1    3    3    0    0  0.13992936257E+03  0.51840781021E+02 -0.36867143430E+03  0.39772643809E+03  0.00000000000E+00 0.  1.
          1    1    3    3  501    0  0.62426527776E-02 -0.26584693356E-01 -0.36212379450E-01  0.45354746830E-01  0.00000000000E+00 0.  1.
         -3    1    1    2    0  502 -0.13993560522E+03 -0.51814196327E+02 -0.60773461612E+03  0.62578594437E+03  0.00000000000E+00 0. -1.
<mgrwt>
<rscale>  1 0.30000000E+03</rscale>
<asrwt>0</asrwt>
<pdfrwt beam="1">  1       21 0.85664680E-01 0.30000000E+03</pdfrwt>
<pdfrwt beam="2">0</pdfrwt>
<totfact> 0.10890944E+02</totfact>
</mgrwt>
</event>
<event>
 6    1  0.8397183E-002  0.3000000E+03  0.7818608E-02  0.1093470E+00
         21   -1    0    0  501  502  0.00000000000E+00  0.00000000000E+00  0.12627696528E+01  0.12627696528E+01  0.00000000000E+00 0. -1.
         13   -1    0    0    0    0 -0.00000000000E+00 -0.00000000000E+00 -0.10000000000E+04  0.10000000000E+04  0.00000000000E+00 0.  1.
    9000005    2    1    2  501    0 -0.34820919273E+02  0.92591134361E+00 -0.59290134428E+03  0.59393474441E+03  0.36225452208E+01 0.  0.
         13    1    3    3    0    0 -0.27009925606E+02  0.16340315731E+01 -0.43813525442E+03  0.43897005286E+03  0.00000000000E+00 0.  1.
          3    1    3    3  501    0 -0.78109936670E+01 -0.70812022951E+00 -0.15476608986E+03  0.15496469155E+03  0.00000000000E+00 0.  1.
         -1    1    1    2    0  502  0.34820919273E+02 -0.92591134361E+00 -0.40583588607E+03  0.40732802524E+03  0.00000000000E+00 0. -1.
<mgrwt>
<rscale>  1 0.30000000E+03</rscale>
<asrwt>0</asrwt>
<pdfrwt beam="1">  1       21 0.45918993E-02 0.30000000E+03</pdfrwt>
<pdfrwt beam="2">0</pdfrwt>
<totfact> 0.33295336E+04</totfact>
</mgrwt>
</event>
<event>
 6    1  0.8397183E-002  0.3000000E+03  0.7818608E-02  0.1093470E+00
         21   -1    0    0  501  502  0.00000000000E+00  0.00000000000E+00  0.90590507014E+01  0.90590507014E+01  0.00000000000E+00 0. -1.
         13   -1    0    0    0    0 -0.00000000000E+00 -0.00000000000E+00 -0.10000000000E+04  0.10000000000E+04  0.00000000000E+00 0.  1.
    9000005    2    1    2  501    0  0.31311888518E+02  0.29948828004E+02 -0.46543520053E+02  0.63668194480E+02  0.31580164671E+01 0.  0.
         13    1    3    3    0    0  0.64232454287E+01  0.79974512137E+01 -0.10962733554E+02  0.15013288605E+02  0.00000000000E+00 0.  1.
          3    1    3    3  501    0  0.24888643090E+02  0.21951376790E+02 -0.35580786499E+02  0.48654905875E+02  0.00000000000E+00 0.  1.
         -1    1    1    2    0  502 -0.31311888518E+02 -0.29948828004E+02 -0.94439742925E+03  0.94539085622E+03  0.00000000000E+00 0. -1.
<mgrwt>
<rscale>  1 0.30000000E+03</rscale>
<asrwt>0</asrwt>
<pdfrwt beam="1">  1       21 0.32942072E-01 0.30000000E+03</pdfrwt>
<pdfrwt beam="2">0</pdfrwt>
<totfact> 0.90042726E+02</totfact>
</mgrwt>
</event>
<event>
 6    1  0.8397183E-002  0.3000000E+03  0.7818608E-02  0.1093470E+00
         21   -1    0    0  501  502  0.00000000000E+00  0.00000000000E+00  0.10632433446E+01  0.10632433446E+01  0.00000000000E+00 0. -1.
         13   -1    0    0    0    0 -0.00000000000E+00 -0.00000000000E+00 -0.10000000000E+04  0.10000000000E+04  0.00000000000E+00 0.  1.
    9000005    2    1    2  501    0 -0.11635300570E+01  0.32015190735E+02 -0.41399324366E+03  0.41524310061E+03  0.31781388887E+01 0.  0.
         13    1    3    3    0    0 -0.26327090920E+00  0.22269375019E+00 -0.72775187532E+01  0.72856834464E+01  0.00000000000E+00 0.  1.
          3    1    3    3  501    0 -0.90025914777E+00  0.31792496985E+02 -0.40671572491E+03  0.40795741717E+03  0.00000000000E+00 0.  1.
         -3    1    1    2    0  502  0.11635300570E+01 -0.32015190735E+02 -0.58494351299E+03  0.58582014273E+03  0.00000000000E+00 0. -1.
<mgrwt>
<rscale>  1 0.30000000E+03</rscale>
<asrwt>0</asrwt>
<pdfrwt beam="1">  1       21 0.38663476E-02 0.30000000E+03</pdfrwt>
<pdfrwt beam="2">0</pdfrwt>
<totfact> 0.44521816E+04</totfact>
</mgrwt>
</event>
<event>
 6    1  0.8397183E-002  0.3000000E+03  0.7818608E-02  0.1093470E+00
         21   -1    0    0  501  502  0.00000000000E+00  0.00000000000E+00  0.23924761728E+01  0.23924761728E+01  0.00000000000E+00 0. -1.
         13   -1    0    0    0    0 -0.00000000000E+00 -0.00000000000E+00 -0.10000000000E+04  0.10000000000E+04  0.00000000000E+00 0.  1.
    9000005    2    1    2  501    0  0.26468539330E+02  0.31644742684E+02 -0.23111881107E+03  0.23479432603E+03  0.32399680618E+01 0.  0.
         13    1    3    3    0    0  0.25687017531E+02  0.30985286385E+02 -0.22206059158E+03  0.22567857048E+03  0.00000000000E+00 0.  1.
          3    1    3    3  501    0  0.78152179915E+00  0.65945629897E+00 -0.90582194905E+01  0.91157555513E+01  0.00000000000E+00 0.  1.
         -1    1    1    2    0  502 -0.26468539330E+02 -0.31644742684E+02 -0.76648871276E+03  0.76759815014E+03  0.00000000000E+00 0. -1.
<mgrwt>
<rscale>  1 0.30000000E+03</rscale>
<asrwt>0</asrwt>
<pdfrwt beam="1">  1       21 0.86999317E-02 0.30000000E+03</pdfrwt>
<pdfrwt beam="2">0</pdfrwt>
<totfact> 0.11019689E+04</totfact>
</mgrwt>
</event>
<event>
 6    1  0.8397183E-002  0.3000000E+03  0.7818608E-02  0.1093470E+00
         21   -1    0    0  501  502  0.00000000000E+00  0.00000000000E+00  0.45829837537E+01  0.45829837537E+01  0.00000000000E+00 0. -1.
         13   -1    0    0    0    0 -0.00000000000E+00 -0.00000000000E+00 -0.10000000000E+04  0.10000000000E+04  0.00000000000E+00 0.  1.
    9000005    2    1    2  501    0  0.25030146114E+02 -0.60671067702E+02 -0.37630808620E+03  0.38200499351E+03  0.35429730095E+01 0.  0.
         13    1    3    3    0    0  0.17824440510E+02 -0.40960244663E+02 -0.24766655144E+03  0.25166281614E+03  0.00000000000E+00 0.  1.
          1    1    3    3  501    0  0.72057056045E+01 -0.19710823039E+02 -0.12864153476E+03  0.13034217738E+03  0.00000000000E+00 0.  1.
         -3    1    1    2    0  502 -0.25030146114E+02  0.60671067702E+02 -0.61910893004E+03  0.62257799024E+03  0.00000000000E+00 0. -1.
<mgrwt>
<rscale>  1 0.30000000E+03</rscale>
<asrwt>0</asrwt>
<pdfrwt beam="1">  1       21 0.16665431E-01 0.30000000E+03</pdfrwt>
<pdfrwt beam="2">0</pdfrwt>
<totfact> 0.33851220E+03</totfact>
</mgrwt>
</event>
<event>
 6    1  0.8397183E-002  0.3000000E+03  0.7818608E-02  0.1093470E+00
         21   -1    0    0  501  502  0.00000000000E+00  0.00000000000E+00  0.11200188635E+01  0.11200188635E+01  0.00000000000E+00 0. -1.
         13   -1    0    0    0    0 -0.00000000000E+00 -0.00000000000E+00 -0.10000000000E+04  0.10000000000E+04  0.00000000000E+00 0.  1.
    9000005    2    1    2  501    0  0.30089871738E+02 -0.97432223391E+01 -0.34061768902E+03  0.34209833790E+03  0.32452973818E+01 0.  0.
         13    1    3    3    0    0  0.23563872596E+02 -0.84881359648E+01 -0.27974352563E+03  0.28086250137E+03  0.00000000000E+00 0.  1.
          3    1    3    3  501    0  0.65259991422E+01 -0.12550863744E+01 -0.60874163388E+02  0.61235836524E+02  0.00000000000E+00 0.  1.
         -3    1    1    2    0  502 -0.30089871738E+02  0.97432223391E+01 -0.65826229212E+03  0.65902168097E+03  0.00000000000E+00 0. -1.
<mgrwt>
<rscale>  1 0.30000000E+03</rscale>
<asrwt>0</asrwt>
<pdfrwt beam="1">  1       21 0.40728045E-02 0.30000000E+03</pdfrwt>
<pdfrwt beam="2">0</pdfrwt>
<totfact> 0.40788734E+04</totfact>
</mgrwt>
</event>
<event>
 6    1  0.8397183E-002  0.3000000E+03  0.7818608E-02  0.1093470E+00
         21   -1    0    0  501  502  0.00000000000E+00  0.00000000000E+00  0.20370214316E+01  0.20370214316E+01  0.00000000000E+00 0. -1.
         13   -1    0    0    0    0 -0.00000000000E+00 -0.00000000000E+00 -0.10000000000E+04  0.10000000000E+04  0.00000000000E+00 0.  1.
    9000005    2    1    2  501    0  0.54842538312E+01  0.41756943443E+02 -0.32517190839E+03  0.32792906014E+03  0.51941420919E+01 0.  0.
         13    1    3    3    0    0  0.34542018271E+01  0.10163539487E+02 -0.88809860125E+02  0.89456247968E+02  0.00000000000E+00 0.  1.
          1    1    3    3  501    0  0.20300520041E+01  0.31593403956E+02 -0.23636204827E+03  0.23847281217E+03  0.00000000000E+00 0.  1.
         -1    1    1    2    0  502 -0.54842538312E+01 -0.41756943443E+02 -0.67279107018E+03  0.67410796129E+03  0.00000000000E+00 0. -1.
<mgrwt>
<rscale>  1 0.30000000E+03</rscale>
<asrwt>0</asrwt>
<pdfrwt beam="1">  1       21 0.74073663E-02 0.30000000E+03</pdfrwt>
<pdfrwt beam="2">0</pdfrwt>
<totfact> 0.14619023E+04</totfact>
</mgrwt>
</event>
<event>
 6    1  0.8397183E-002  0.3000000E+03  0.7818608E-02  0.1093470E+00
         21   -1    0    0  501  502  0.00000000000E+00  0.00000000000E+00  0.13947270460E+01  0.13947270460E+01  0.00000000000E+00 0. -1.
         13   -1    0    0    0    0 -0.00000000000E+00 -0.00000000000E+00 -0.10000000000E+04  0.10000000000E+04  0.00000000000E+00 0.  1.
    9000005    2    1    2  501    0 -0.26403844450E+02 -0.21780512339E+02 -0.30165425819E+03  0.30360373348E+03  0.28951304009E+01 0.  0.
         13    1    3    3    0    0 -0.29954379993E+00  0.36154914684E-01 -0.17253975314E+01  0.17515793751E+01  0.00000000000E+00 0.  1.
          1    1    3    3  501    0 -0.26104300650E+02 -0.21816667254E+02 -0.29992886066E+03  0.30185215411E+03  0.00000000000E+00 0.  1.
         -3    1    1    2    0  502  0.26403844450E+02  0.21780512339E+02 -0.69695101476E+03  0.69779099356E+03  0.00000000000E+00 0. -1.
<mgrwt>
<rscale>  1 0.30000000E+03</rscale>
<asrwt>0</asrwt>
<pdfrwt beam="1">  1       21 0.50717454E-02 0.30000000E+03</pdfrwt>
<pdfrwt beam="2">0</pdfrwt>
<totfact> 0.28113247E+04</totfact>
</mgrwt>
</event>
<event>
 6    1  0.8397183E-002  0.3000000E+03  0.7818608E-02  0.1093470E+00
         21   -1    0    0  501  502  0.00000000000E+00  0.00000000000E+00  0.12698343925E+01  0.12698343925E+01  0.00000000000E+00 0. -1.
         13   -1    0    0    0    0 -0.00000000000E+00 -0.00000000000E+00 -0.10000000000E+04  0.10000000000E+04  0.00000000000E+00 0.  1.
    9000005    2    1    2  501    0  0.34097831648E+02  0.98413672639E+01 -0.52888700782E+03  0.53008822657E+03  0.35420717231E+01 0.  0.
         13    1    3    3    0    0  0.21881609380E+02  0.45690882778E+01 -0.32642644887E+03  0.32719093496E+03  0.00000000000E+00 0.  1.
          1    1    3    3  501    0  0.12216222267E+02  0.52722789861E+01 -0.20246055896E+03  0.20289729162E+03  0.00000000000E+00 0.  1.
         -1    1    1    2    0  502 -0.34097831648E+02 -0.98413672639E+01 -0.46984315778E+03  0.47118160782E+03  0.00000000000E+00 0. -1.
<mgrwt>
<rscale>  1 0.30000000E+03</rscale>
<asrwt>0</asrwt>
<pdfrwt beam="1">  1       21 0.46175893E-02 0.30000000E+03</pdfrwt>
<pdfrwt beam="2">0</pdfrwt>
<totfact> 0.32981223E+04</totfact>
</mgrwt>
</event>
<event>
 6    1  0.8397183E-002  0.3000000E+03  0.7818608E-02  0.1093470E+00
         21   -1    0    0  501  502  0.00000000000E+00  0.00000000000E+00  0.18880005030E+01  0.18880005030E+01  0.00000000000E+00 0. -1.
         13   -1    0    0    0    0 -0.00000000000E+00 -0.00000000000E+00 -0.10000000000E+04  0.10000000000E+04  0.00000000000E+00 0.  1.
    9000005    2    1    2  501    0  0.39980303619E+02 -0.16680269696E+02 -0.52764566814E+03  0.52943141518E+03  0.33190658120E+01 0.  0.
         13    1    3    3    0    0  0.10753703287E+01 -0.89482459038E+00 -0.22813870209E+02  0.22856723437E+02  0.00000000000E+00 0.  1.
          1    1    3    3  501    0  0.38904933291E+02 -0.15785445105E+02 -0.50483179793E+03  0.50657469174E+03  0.00000000000E+00 0.  1.
         -1    1    1    2    0  502 -0.39980303619E+02  0.16680269696E+02 -0.47046633136E+03  0.47245658532E+03  0.00000000000E+00 0. -1.
<mgrwt>
<rscale>  1 0.30000000E+03</rscale>
<asrwt>0</asrwt>
<pdfrwt beam="1">  1       21 0.68654709E-02 0.30000000E+03</pdfrwt>
<pdfrwt beam="2">0</pdfrwt>
<totfact> 0.16689084E+04</totfact>
</mgrwt>
</event>
<event>
 6    1  0.8397183E-002  0.3000000E+03  0.7818608E-02  0.1093470E+00
         21   -1    0    0  501  502  0.00000000000E+00  0.00000000000E+00  0.17714222389E+01  0.17714222389E+01  0.00000000000E+00 0. -1.
         13   -1    0    0    0    0 -0.00000000000E+00 -0.00000000000E+00 -0.10000000000E+04  0.10000000000E+04  0.00000000000E+00 0.  1.
    9000005    2    1    2  501    0 -0.35983202378E+02  0.18809510424E+02 -0.39651652545E+03  0.39869101099E+03  0.89765669150E+01 0.  0.
         13    1    3    3    0    0 -0.33492768212E+02  0.16317615407E+02 -0.33317013821E+03  0.33524673166E+03  0.00000000000E+00 0.  1.
          3    1    3    3  501    0 -0.24904341652E+01  0.24918950175E+01 -0.63346387245E+02  0.63444279333E+02  0.00000000000E+00 0.  1.
         -1    1    1    2    0  502  0.35983202378E+02 -0.18809510424E+02 -0.60171205231E+03  0.60308041125E+03  0.00000000000E+00 0. -1.
<mgrwt>
<rscale>  1 0.30000000E+03</rscale>
<asrwt>0</asrwt>
<pdfrwt beam="1">  1       21 0.64415490E-02 0.30000000E+03</pdfrwt>
<pdfrwt beam="2">0</pdfrwt>
<totfact> 0.18639218E+04</totfact>
</mgrwt>
</event>
<event>
 6    1  0.8397183E-002  0.3000000E+03  0.7818608E-02  0.1093470E+00
         21   -1    0    0  501  502  0.00000000000E+00  0.00000000000E+00  0.27834513352E+01  0.27834513352E+01  0.00000000000E+00 0. -1.
         13   -1    0    0    0    0 -0.00000000000E+00 -0.00000000000E+00 -0.10000000000E+04  0.10000000000E+04  0.00000000000E+00 0.  1.
    9000005    2    1    2  501    0 -0.30128130985E+02  0.11482499426E+02 -0.10288844071E+03  0.10787434045E+03  0.33600633544E+01 0.  0.
         13    1    3    3    0    0 -0.28005599086E+02  0.11544929231E+02 -0.95901250954E+02  0.10057161083E+03  0.00000000000E+00 0.  1.
          1    1    3    3  501    0 -0.21225318995E+01 -0.62429804876E-01 -0.69871897546E+01  0.73027296138E+01  0.00000000000E+00 0.  1.
         -1    1    1    2    0  502  0.30128130985E+02 -0.11482499426E+02 -0.89432810796E+03  0.89490911089E+03  0.00000000000E+00 0. -1.
<mgrwt>
<rscale>  1 0.30000000E+03</rscale>
<asrwt>0</asrwt>
<pdfrwt beam="1">  1       21 0.10121663E-01 0.30000000E+03</pdfrwt>
<pdfrwt beam="2">0</pdfrwt>
<totfact> 0.84192279E+03</totfact>
</mgrwt>
</event>
<event>
 6    1  0.8397183E-002  0.3000000E+03  0.7818608E-02  0.1093470E+00
         21   -1    0    0  501  502  0.00000000000E+00  0.00000000000E+00  0.35070514125E+01  0.35070514125E+01  0.00000000000E+00 0. -1.
         13   -1    0    0    0    0 -0.00000000000E+00 -0.00000000000E+00 -0.10000000000E+04  0.10000000000E+04  0.00000000000E+00 0.  1.
    9000005    2    1    2  501    0 -0.57115438144E+02  0.15138084078E+02 -0.51958753001E+03  0.52295516750E+03  0.44239132449E+01 0.  0.
         13    1    3    3    0    0 -0.27867846312E+02  0.53401270671E+01 -0.24026497351E+03  0.24193468397E+03  0.00000000000E+00 0.  1.
          3    1    3    3  501    0 -0.29247591832E+02  0.97979570108E+01 -0.27932255650E+03  0.28102048353E+03  0.00000000000E+00 0.  1.
         -1    1    1    2    0  502  0.57115438144E+02 -0.15138084078E+02 -0.47690541858E+03  0.48055188391E+03  0.00000000000E+00 0. -1.
<mgrwt>
<rscale>  1 0.30000000E+03</rscale>
<asrwt>0</asrwt>
<pdfrwt beam="1">  1       21 0.12752941E-01 0.30000000E+03</pdfrwt>
<pdfrwt beam="2">0</pdfrwt>
<totfact> 0.55474080E+03</totfact>
</mgrwt>
</event>
<event>
 6    1  0.8397183E-002  0.3000000E+03  0.7818608E-02  0.1093470E+00
         21   -1    0    0  501  502  0.00000000000E+00  0.00000000000E+00  0.13084142602E+01  0.13084142602E+01  0.00000000000E+00 0. -1.
         13   -1    0    0    0    0 -0.00000000000E+00 -0.00000000000E+00 -0.10000000000E+04  0.10000000000E+04  0.00000000000E+00 0.  1.
    9000005    2    1    2  501    0  0.31854460148E+02 -0.73383002193E+01 -0.71136146498E+03  0.71212481242E+03  0.42493898876E+01 0.  0.
         13    1    3    3    0    0  0.11673718326E+02 -0.40906678485E+01 -0.23569871710E+03  0.23602308045E+03  0.00000000000E+00 0.  1.
          1    1    3    3  501    0  0.20180741821E+02 -0.32476323708E+01 -0.47566274788E+03  0.47610173196E+03  0.00000000000E+00 0.  1.
         -3    1    1    2    0  502 -0.31854460148E+02  0.73383002193E+01 -0.28733012076E+03  0.28918360184E+03  0.00000000000E+00 0. -1.
<mgrwt>
<rscale>  1 0.30000000E+03</rscale>
<asrwt>0</asrwt>
<pdfrwt beam="1">  1       21 0.47578801E-02 0.30000000E+03</pdfrwt>
<pdfrwt beam="2">0</pdfrwt>
<totfact> 0.31345048E+04</totfact>
</mgrwt>
</event>
<event>
 6    1  0.8397183E-002  0.3000000E+03  0.7818608E-02  0.1093470E+00
         21   -1    0    0  501  502  0.00000000000E+00  0.00000000000E+00  0.20190387245E+01  0.20190387245E+01  0.00000000000E+00 0. -1.
         13   -1    0    0    0    0 -0.00000000000E+00 -0.00000000000E+00 -0.10000000000E+04  0.10000000000E+04  0.00000000000E+00 0.  1.
    9000005    2    1    2  501    0 -0.16434542091E+02 -0.34955706052E+02 -0.25002807132E+03  0.25306942684E+03  0.61727457651E+01 0.  0.
         13    1    3    3    0    0 -0.12909392849E+02 -0.32034859109E+02 -0.22043709942E+03  0.22312642027E+03  0.00000000000E+00 0.  1.
          1    1    3    3  501    0 -0.35251492420E+01 -0.29208469439E+01 -0.29590971906E+02  0.29943006569E+02  0.00000000000E+00 0.  1.
         -3    1    1    2    0  502  0.16434542091E+02  0.34955706052E+02 -0.74795288995E+03  0.74894961189E+03  0.00000000000E+00 0. -1.
<mgrwt>
<rscale>  1 0.30000000E+03</rscale>
<asrwt>0</asrwt>
<pdfrwt beam="1">  1       21 0.73419745E-02 0.30000000E+03</pdfrwt>
<pdfrwt beam="2">0</pdfrwt>
<totfact> 0.14847446E+04</totfact>
</mgrwt>
</event>
<event>
 6    1  0.8397183E-002  0.3000000E+03  0.7818608E-02  0.1093470E+00
         21   -1    0    0  501  502  0.00000000000E+00  0.00000000000E+00  0.97529471860E+00  0.97529471860E+00  0.00000000000E+00 0. -1.
         13   -1    0    0    0    0 -0.00000000000E+00 -0.00000000000E+00 -0.10000000000E+04  0.10000000000E+04  0.00000000000E+00 0.  1.
    9000005    2    1    2  501    0  0.29372828862E+02 -0.75303155321E+01 -0.38327975508E+03  0.38448416548E+03  0.22878211948E+01 0.  0.
         13    1    3    3    0    0  0.88922827436E+01 -0.29947145885E+01 -0.12879363991E+03  0.12913497856E+03  0.00000000000E+00 0.  1.
          3    1    3    3  501    0  0.20480546118E+02 -0.45356009436E+01 -0.25448611517E+03  0.25534918692E+03  0.00000000000E+00 0.  1.
         -1    1    1    2    0  502 -0.29372828862E+02  0.75303155321E+01 -0.61574495020E+03  0.61649112924E+03  0.00000000000E+00 0. -1.
<mgrwt>
<rscale>  1 0.30000000E+03</rscale>
<asrwt>0</asrwt>
<pdfrwt beam="1">  1       21 0.35465337E-02 0.30000000E+03</pdfrwt>
<pdfrwt beam="2">0</pdfrwt>
<totfact> 0.51465354E+04</totfact>
</mgrwt>
</event>
<event>
 6    1  0.8397183E-002  0.3000000E+03  0.7818608E-02  0.1093470E+00
         21   -1    0    0  501  502  0.00000000000E+00  0.00000000000E+00  0.10384518568E+01  0.10384518568E+01  0.00000000000E+00 0. -1.
         13   -1    0    0    0    0 -0.00000000000E+00 -0.00000000000E+00 -0.10000000000E+04  0.10000000000E+04  0.00000000000E+00 0.  1.
    9000005    2    1    2  501    0  0.22657290423E+02  0.22745585472E+02 -0.48434768953E+03  0.48542412124E+03  0.36302415912E+01 0.  0.
         13    1    3    3    0    0  0.72352504196E+01  0.97196311664E+01 -0.18599385218E+03  0.18638812496E+03  0.00000000000E+00 0.  1.
          1    1    3    3  501    0  0.15422040004E+02  0.13025954306E+02 -0.29835383735E+03  0.29903599627E+03  0.00000000000E+00 0.  1.
         -1    1    1    2    0  502 -0.22657290423E+02 -0.22745585472E+02 -0.51461385861E+03  0.51561433062E+03  0.00000000000E+00 0. -1.
<mgrwt>
<rscale>  1 0.30000000E+03</rscale>
<asrwt>0</asrwt>
<pdfrwt beam="1">  1       21 0.37761965E-02 0.30000000E+03</pdfrwt>
<pdfrwt beam="2">0</pdfrwt>
<totfact> 0.46322504E+04</totfact>
</mgrwt>
</event>
<event>
 6    1  0.8397183E-002  0.3000000E+03  0.7818608E-02  0.1093470E+00
         21   -1    0    0  501  502  0.00000000000E+00  0.00000000000E+00  0.10193717512E+01  0.10193717512E+01  0.00000000000E+00 0. -1.
         13   -1    0    0    0    0 -0.00000000000E+00 -0.00000000000E+00 -0.10000000000E+04  0.10000000000E+04  0.00000000000E+00 0.  1.
    9000005    2    1    2  501    0  0.28931483027E+02 -0.10926136215E+02 -0.61999830207E+03  0.62077732421E+03  0.31906928087E+01 0.  0.
         13    1    3    3    0    0  0.32003567772E+01 -0.21607921564E+01 -0.66708137670E+02  0.66819809471E+02  0.00000000000E+00 0.  1.
          1    1    3    3  501    0  0.25731126249E+02 -0.87653440586E+01 -0.55329016440E+03  0.55395751474E+03  0.00000000000E+00 0.  1.
         -1    1    1    2    0  502 -0.28931483027E+02  0.10926136215E+02 -0.37898232617E+03  0.38024204754E+03  0.00000000000E+00 0. -1.
<mgrwt>
<rscale>  1 0.30000000E+03</rscale>
<asrwt>0</asrwt>
<pdfrwt beam="1">  1       21 0.37068142E-02 0.30000000E+03</pdfrwt>
<pdfrwt beam="2">0</pdfrwt>
<totfact> 0.47787622E+04</totfact>
</mgrwt>
</event>
<event>
 6    1  0.8397183E-002  0.3000000E+03  0.7818608E-02  0.1093470E+00
         21   -1    0    0  501  502  0.00000000000E+00  0.00000000000E+00  0.12381800919E+01  0.12381800919E+01  0.00000000000E+00 0. -1.
         13   -1    0    0    0    0 -0.00000000000E+00 -0.00000000000E+00 -0.10000000000E+04  0.10000000000E+04  0.00000000000E+00 0.  1.
    9000005    2    1    2  501    0  0.23430758664E+02 -0.19407751489E+02 -0.25115908321E+03  0.25301661318E+03  0.32954814837E+01 0.  0.
         13    1    3    3    0    0  0.17039345092E+02 -0.13135408926E+02 -0.16615032071E+03  0.16753748035E+03  0.00000000000E+00 0.  1.
          1    1    3    3  501    0  0.63914135720E+01 -0.62723425626E+01 -0.85008762496E+02  0.85479132832E+02  0.00000000000E+00 0.  1.
         -3    1    1    2    0  502 -0.23430758664E+02  0.19407751489E+02 -0.74760273670E+03  0.74822156691E+03  0.00000000000E+00 0. -1.
<mgrwt>
<rscale>  1 0.30000000E+03</rscale>
<asrwt>0</asrwt>
<pdfrwt beam="1">  1       21 0.45024826E-02 0.30000000E+03</pdfrwt>
<pdfrwt beam="2">0</pdfrwt>
<totfact> 0.34425954E+04</totfact>
</mgrwt>
</event>
<event>
 6    1  0.8397183E-002  0.3000000E+03  0.7818608E-02  0.1093470E+00
         21   -1    0    0  501  502  0.00000000000E+00  0.00000000000E+00  0.12132679659E+01  0.12132679659E+01  0.00000000000E+00 0. -1.
         13   -1    0    0    0    0 -0.00000000000E+00 -0.00000000000E+00 -0.10000000000E+04  0.10000000000E+04  0.00000000000E+00 0.  1.
    9000005    2    1    2  501    0 -0.33070571020E+02 -0.10285801922E+02 -0.45766402508E+03  0.45898338648E+03  0.31510043866E+01 0.  0.
         13    1    3    3    0    0 -0.12624944772E+02 -0.55012815170E+01 -0.18573667310E+03  0.18624651692E+03  0.00000000000E+00 0.  1.
          3    1    3    3  501    0 -0.20445626248E+02 -0.47845204049E+01 -0.27192735197E+03  0.27273686956E+03  0.00000000000E+00 0.  1.
         -3    1    1    2    0  502  0.33070571020E+02  0.10285801922E+02 -0.54112270696E+03  0.54222988148E+03  0.00000000000E+00 0. -1.
<mgrwt>
<rscale>  1 0.30000000E+03</rscale>
<asrwt>0</asrwt>
<pdfrwt beam="1">  1       21 0.44118928E-02 0.30000000E+03</pdfrwt>
<pdfrwt beam="2">0</pdfrwt>
<totfact> 0.35633084E+04</totfact>
</mgrwt>
</event>
<event>
 6    1  0.8397183E-002  0.3000000E+03  0.7818608E-02  0.1093470E+00
         21   -1    0    0  501  502  0.00000000000E+00  0.00000000000E+00  0.10249347726E+01  0.10249347726E+01  0.00000000000E+00 0. -1.
         13   -1    0    0    0    0 -0.00000000000E+00 -0.00000000000E+00 -0.10000000000E+04  0.10000000000E+04  0.00000000000E+00 0.  1.
    9000005    2    1    2  501    0  0.82183563742E+01  0.29399980203E+02 -0.35471996459E+03  0.35604700110E+03  0.33635548880E+01 0.  0.
         13    1    3    3    0    0  0.69439145422E+01  0.27847903648E+02 -0.33270893802E+03  0.33394454798E+03  0.00000000000E+00 0.  1.
          3    1    3    3  501    0  0.12744418320E+01  0.15520765553E+01 -0.22011026569E+02  0.22102453128E+02  0.00000000000E+00 0.  1.
         -1    1    1    2    0  502 -0.82183563742E+01 -0.29399980203E+02 -0.64425510064E+03  0.64497793367E+03  0.00000000000E+00 0. -1.
<mgrwt>
<rscale>  1 0.30000000E+03</rscale>
<asrwt>0</asrwt>
<pdfrwt beam="1">  1       21 0.37270434E-02 0.30000000E+03</pdfrwt>
<pdfrwt beam="2">0</pdfrwt>
<totfact> 0.47353001E+04</totfact>
</mgrwt>
</event>
<event>
 6    1  0.8397183E-002  0.3000000E+03  0.7818608E-02  0.1093470E+00
         21   -1    0    0  501  502  0.00000000000E+00  0.00000000000E+00  0.18025764632E+01  0.18025764632E+01  0.00000000000E+00 0. -1.
         13   -1    0    0    0    0 -0.00000000000E+00 -0.00000000000E+00 -0.10000000000E+04  0.10000000000E+04  0.00000000000E+00 0.  1.
    9000005    2    1    2  501    0 -0.16414757143E+02 -0.37906975121E+02 -0.61241580520E+03  0.61381566939E+03  0.31897512602E+01 0.  0.
         13    1    3    3    0    0 -0.15893087259E+02 -0.35793093598E+02 -0.58812551656E+03  0.58942799306E+03  0.00000000000E+00 0.  1.
          3    1    3    3  501    0 -0.52166988413E+00 -0.21138815229E+01 -0.24290288637E+02  0.24387676327E+02  0.00000000000E+00 0.  1.
         -3    1    1    2    0  502  0.16414757143E+02  0.37906975121E+02 -0.38578161834E+03  0.38798690708E+03  0.00000000000E+00 0. -1.
<mgrwt>
<rscale>  1 0.30000000E+03</rscale>
<asrwt>0</asrwt>
<pdfrwt beam="1">  1       21 0.65548373E-02 0.30000000E+03</pdfrwt>
<pdfrwt beam="2">0</pdfrwt>
<totfact> 0.18084998E+04</totfact>
</mgrwt>
</event>
<event>
 6    1  0.8397183E-002  0.3000000E+03  0.7818608E-02  0.1093470E+00
         21   -1    0    0  501  502  0.00000000000E+00  0.00000000000E+00  0.13369962519E+01  0.13369962519E+01  0.00000000000E+00 0. -1.
         13   -1    0    0    0    0 -0.00000000000E+00 -0.00000000000E+00 -0.10000000000E+04  0.10000000000E+04  0.00000000000E+00 0.  1.
    9000005    2    1    2  501    0  0.14546992433E+02 -0.33367662593E+02 -0.45768482653E+03  0.45913555387E+03  0.22451046981E+01 0.  0.
         13    1    3    3    0    0  0.45818523359E+01 -0.12391457919E+02 -0.17583088007E+03  0.17632651526E+03  0.00000000000E+00 0.  1.
          1    1    3    3  501    0  0.99651400967E+01 -0.20976204674E+02 -0.28185394647E+03  0.28280903861E+03  0.00000000000E+00 0.  1.
         -1    1    1    2    0  502 -0.14546992433E+02  0.33367662593E+02 -0.54097817722E+03  0.54220144238E+03  0.00000000000E+00 0. -1.
<mgrwt>
<rscale>  1 0.30000000E+03</rscale>
<asrwt>0</asrwt>
<pdfrwt beam="1">  1       21 0.48618148E-02 0.30000000E+03</pdfrwt>
<pdfrwt beam="2">0</pdfrwt>
<totfact> 0.30213300E+04</totfact>
</mgrwt>
</event>
<event>
 6    1  0.8397183E-002  0.3000000E+03  0.7818608E-02  0.1093470E+00
         21   -1    0    0  501  502  0.00000000000E+00  0.00000000000E+00  0.16303375570E+01  0.16303375570E+01  0.00000000000E+00 0. -1.
         13   -1    0    0    0    0 -0.00000000000E+00 -0.00000000000E+00 -0.10000000000E+04  0.10000000000E+04  0.00000000000E+00 0.  1.
    9000005    2    1    2  501    0 -0.14113170693E+02  0.36272811080E+02 -0.37026782478E+03  0.37232372160E+03  0.34341212368E+01 0.  0.
         13    1    3    3    0    0 -0.15588513972E+01  0.39487228981E+01 -0.31242946024E+02  0.31530050848E+02  0.00000000000E+00 0.  1.
          1    1    3    3  501    0 -0.12554319296E+02  0.32324088182E+02 -0.33902487876E+03  0.34079367076E+03  0.00000000000E+00 0.  1.
         -1    1    1    2    0  502  0.14113170693E+02 -0.36272811080E+02 -0.62810183766E+03  0.62930661595E+03  0.00000000000E+00 0. -1.
<mgrwt>
<rscale>  1 0.30000000E+03</rscale>
<asrwt>0</asrwt>
<pdfrwt beam="1">  1       21 0.59285127E-02 0.30000000E+03</pdfrwt>
<pdfrwt beam="2">0</pdfrwt>
<totfact> 0.21511683E+04</totfact>
</mgrwt>
</event>
<event>
 6    1  0.8397183E-002  0.3000000E+03  0.7818608E-02  0.1093470E+00
         21   -1    0    0  501  502  0.00000000000E+00  0.00000000000E+00  0.18901286203E+01  0.18901286203E+01  0.00000000000E+00 0. -1.
         13   -1    0    0    0    0 -0.00000000000E+00 -0.00000000000E+00 -0.10000000000E+04  0.10000000000E+04  0.00000000000E+00 0.  1.
    9000005    2    1    2  501    0 -0.43020235682E+02  0.50750249890E+01 -0.46229763601E+03  0.46432966865E+03  0.25377878056E+01 0.  0.
         13    1    3    3    0    0 -0.23067279312E+02  0.14750074446E+01 -0.24341133620E+03  0.24450634677E+03  0.00000000000E+00 0.  1.
          1    1    3    3  501    0 -0.19952956370E+02  0.36000175445E+01 -0.21888629981E+03  0.21982332187E+03  0.00000000000E+00 0.  1.
         -3    1    1    2    0  502  0.43020235682E+02 -0.50750249890E+01 -0.53581223537E+03  0.53756045998E+03  0.00000000000E+00 0. -1.
<mgrwt>
<rscale>  1 0.30000000E+03</rscale>
<asrwt>0</asrwt>
<pdfrwt beam="1">  1       21 0.68732095E-02 0.30000000E+03</pdfrwt>
<pdfrwt beam="2">0</pdfrwt>
<totfact> 0.16656444E+04</totfact>
</mgrwt>
</event>
<event>
 6    1  0.8397183E-002  0.3000000E+03  0.7818608E-02  0.1093470E+00
         21   -1    0    0  501  502  0.00000000000E+00  0.00000000000E+00  0.22288309420E+01  0.22288309420E+01  0.00000000000E+00 0. -1.
         13   -1    0    0    0    0 -0.00000000000E+00 -0.00000000000E+00 -0.10000000000E+04  0.10000000000E+04  0.00000000000E+00 0.  1.
    9000005    2    1    2  501    0  0.32111073418E+02 -0.27690608317E+02 -0.28106343257E+03  0.28426791950E+03  0.37021751256E+01 0.  0.
         13    1    3    3    0    0  0.13973289890E+02 -0.13727716379E+02 -0.12071493009E+03  0.12229389753E+03  0.00000000000E+00 0.  1.
          1    1    3    3  501    0  0.18137783528E+02 -0.13962891937E+02 -0.16034850249E+03  0.16197402197E+03  0.00000000000E+00 0.  1.
         -1    1    1    2    0  502 -0.32111073418E+02  0.27690608317E+02 -0.71670773648E+03  0.71796091144E+03  0.00000000000E+00 0. -1.
<mgrwt>
<rscale>  1 0.30000000E+03</rscale>
<asrwt>0</asrwt>
<pdfrwt beam="1">  1       21 0.81048569E-02 0.30000000E+03</pdfrwt>
<pdfrwt beam="2">0</pdfrwt>
<totfact> 0.12484906E+04</totfact>
</mgrwt>
</event>
<event>
 6    1  0.8397183E-002  0.3000000E+03  0.7818608E-02  0.1093470E+00
         21   -1    0    0  501  502  0.00000000000E+00  0.00000000000E+00  0.16725787279E+01  0.16725787279E+01  0.00000000000E+00 0. -1.
         13   -1    0    0    0    0 -0.00000000000E+00 -0.00000000000E+00 -0.10000000000E+04  0.10000000000E+04  0.00000000000E+00 0.  1.
    9000005    2    1    2  501    0 -0.25063260674E+02 -0.31810322435E+02 -0.56311341731E+03  0.56457843224E+03  0.34672391638E+01 0.  0.
         13    1    3    3    0    0 -0.65496537121E+01 -0.71736552528E+01 -0.15387579725E+03  0.15418210101E+03  0.00000000000E+00 0.  1.
          3    1    3    3  501    0 -0.18513606962E+02 -0.24636667182E+02 -0.40923762006E+03  0.41039633123E+03  0.00000000000E+00 0.  1.
         -1    1    1    2    0  502  0.25063260674E+02  0.31810322435E+02 -0.43521400396E+03  0.43709414649E+03  0.00000000000E+00 0. -1.
<mgrwt>
<rscale>  1 0.30000000E+03</rscale>
<asrwt>0</asrwt>
<pdfrwt beam="1">  1       21 0.60821173E-02 0.30000000E+03</pdfrwt>
<pdfrwt beam="2">0</pdfrwt>
<totfact> 0.20583279E+04</totfact>
</mgrwt>
</event>
<event>
 6    1  0.8397183E-002  0.3000000E+03  0.7818608E-02  0.1093470E+00
         21   -1    0    0  501  502  0.00000000000E+00  0.00000000000E+00  0.96479602138E+00  0.96479602138E+00  0.00000000000E+00 0. -1.
         13   -1    0    0    0    0 -0.00000000000E+00 -0.00000000000E+00 -0.10000000000E+04  0.10000000000E+04  0.00000000000E+00 0.  1.
    9000005    2    1    2  501    0  0.23417610391E+02  0.19411223257E+02 -0.40642161288E+03  0.40757112533E+03  0.32426408915E+01 0.  0.
         13    1    3    3    0    0  0.15123936410E+02  0.14448001930E+02 -0.27364795396E+03  0.27444613482E+03  0.00000000000E+00 0.  1.
          3    1    3    3  501    0  0.82936739807E+01  0.49632213271E+01 -0.13277365892E+03  0.13312499051E+03  0.00000000000E+00 0.  1.
         -1    1    1    2    0  502 -0.23417610391E+02 -0.19411223257E+02 -0.59261359110E+03  0.59339367069E+03  0.00000000000E+00 0. -1.
<mgrwt>
<rscale>  1 0.30000000E+03</rscale>
<asrwt>0</asrwt>
<pdfrwt beam="1">  1       21 0.35083566E-02 0.30000000E+03</pdfrwt>
<pdfrwt beam="2">0</pdfrwt>
<totfact> 0.52407100E+04</totfact>
</mgrwt>
</event>
<event>
 6    1  0.8397183E-002  0.3000000E+03  0.7818608E-02  0.1093470E+00
         21   -1    0    0  501  502  0.00000000000E+00  0.00000000000E+00  0.21006281365E+01  0.21006281365E+01  0.00000000000E+00 0. -1.
         13   -1    0    0    0    0 -0.00000000000E+00 -0.00000000000E+00 -0.10000000000E+04  0.10000000000E+04  0.00000000000E+00 0.  1.
    9000005    2    1    2  501    0  0.36281933489E+02 -0.15573887611E+02 -0.75283732847E+03  0.75387828872E+03  0.30832438848E+01 0.  0.
         13    1    3    3    0    0  0.22538862851E+02 -0.89298436501E+01 -0.43611419917E+03  0.43678751947E+03  0.00000000000E+00 0.  1.
          3    1    3    3  501    0  0.13743070639E+02 -0.66440439613E+01 -0.31672312930E+03  0.31709076926E+03  0.00000000000E+00 0.  1.
         -1    1    1    2    0  502 -0.36281933489E+02  0.15573887611E+02 -0.24506204339E+03  0.24822233941E+03  0.00000000000E+00 0. -1.
<mgrwt>
<rscale>  1 0.30000000E+03</rscale>
<asrwt>0</asrwt>
<pdfrwt beam="1">  1       21 0.76386639E-02 0.30000000E+03</pdfrwt>
<pdfrwt beam="2">0</pdfrwt>
<totfact> 0.13852745E+04</totfact>
</mgrwt>
</event>
<event>
 6    1  0.8397183E-002  0.3000000E+03  0.7818608E-02  0.1093470E+00
         21   -1    0    0  501  502  0.00000000000E+00  0.00000000000E+00  0.10079653524E+01  0.10079653524E+01  0.00000000000E+00 0. -1.
         13   -1    0    0    0    0 -0.00000000000E+00 -0.00000000000E+00 -0.10000000000E+04  0.10000000000E+04  0.00000000000E+00 0.  1.
    9000005    2    1    2  501    0 -0.21341158083E+02 -0.21528285833E+02 -0.64592048350E+03  0.64663749204E+03  0.28041041302E+01 0.  0.
         13    1    3    3    0    0 -0.20154797204E+02 -0.19909628368E+02 -0.58772207123E+03  0.58840448856E+03  0.00000000000E+00 0.  1.
          3    1    3    3  501    0 -0.11863608788E+01 -0.16186574648E+01 -0.58198412269E+02  0.58233003483E+02  0.00000000000E+00 0.  1.
         -1    1    1    2    0  502  0.21341158083E+02  0.21528285833E+02 -0.35307155115E+03  0.35437047331E+03  0.00000000000E+00 0. -1.
<mgrwt>
<rscale>  1 0.30000000E+03</rscale>
<asrwt>0</asrwt>
<pdfrwt beam="1">  1       21 0.36653363E-02 0.30000000E+03</pdfrwt>
<pdfrwt beam="2">0</pdfrwt>
<totfact> 0.48698654E+04</totfact>
</mgrwt>
</event>
<event>
 6    1  0.8397183E-002  0.3000000E+03  0.7818608E-02  0.1093470E+00
         21   -1    0    0  501  502  0.00000000000E+00  0.00000000000E+00  0.13458429692E+01  0.13458429692E+01  0.00000000000E+00 0. -1.
         13   -1    0    0    0    0 -0.00000000000E+00 -0.00000000000E+00 -0.10000000000E+04  0.10000000000E+04  0.00000000000E+00 0.  1.
    9000005    2    1    2  501    0 -0.31720087369E+02  0.76557048001E+01 -0.72698572725E+03  0.72772473725E+03  0.32049669236E+01 0.  0.
         13    1    3    3    0    0 -0.15270829650E+02  0.38466933674E+01 -0.31557620393E+03  0.31596888418E+03  0.00000000000E+00 0.  1.
          1    1    3    3  501    0 -0.16449257719E+02  0.38090114327E+01 -0.41140952333E+03  0.41175585306E+03  0.00000000000E+00 0.  1.
         -3    1    1    2    0  502  0.31720087369E+02 -0.76557048001E+01 -0.27166842978E+03  0.27362110572E+03  0.00000000000E+00 0. -1.
<mgrwt>
<rscale>  1 0.30000000E+03</rscale>
<asrwt>0</asrwt>
<pdfrwt beam="1">  1       21 0.48939848E-02 0.30000000E+03</pdfrwt>
<pdfrwt beam="2">0</pdfrwt>
<totfact> 0.29875908E+04</totfact>
</mgrwt>
</event>
<event>
 6    1  0.8397183E-002  0.3000000E+03  0.7818608E-02  0.1093470E+00
         21   -1    0    0  501  502  0.00000000000E+00  0.00000000000E+00  0.93151052564E+00  0.93151052564E+00  0.00000000000E+00 0. -1.
         13   -1    0    0    0    0 -0.00000000000E+00 -0.00000000000E+00 -0.10000000000E+04  0.10000000000E+04  0.00000000000E+00 0.  1.
    9000005    2    1    2  501    0  0.29429372351E+02  0.75440582422E+01 -0.47258595375E+03  0.47357313030E+03  0.33204349643E+01 0.  0.
         13    1    3    3    0    0  0.35860189380E+01  0.13190267455E+01 -0.45153140115E+02  0.45314516721E+02  0.00000000000E+00 0.  1.
          3    1    3    3  501    0  0.25843353413E+02  0.62250314967E+01 -0.42743281364E+03  0.42825861358E+03  0.00000000000E+00 0.  1.
         -1    1    1    2    0  502 -0.29429372351E+02 -0.75440582422E+01 -0.52648253572E+03  0.52735838023E+03  0.00000000000E+00 0. -1.
<mgrwt>
<rscale>  1 0.30000000E+03</rscale>
<asrwt>0</asrwt>
<pdfrwt beam="1">  1       21 0.33873181E-02 0.30000000E+03</pdfrwt>
<pdfrwt beam="2">0</pdfrwt>
<totfact> 0.55576965E+04</totfact>
</mgrwt>
</event>
<event>
 6    1  0.8397183E-002  0.3000000E+03  0.7818608E-02  0.1093470E+00
         21   -1    0    0  501  502  0.00000000000E+00  0.00000000000E+00  0.21619475683E+01  0.21619475683E+01  0.00000000000E+00 0. -1.
         13   -1    0    0    0    0 -0.00000000000E+00 -0.00000000000E+00 -0.10000000000E+04  0.10000000000E+04  0.00000000000E+00 0.  1.
    9000005    2    1    2  501    0  0.39051697700E+02 -0.15495760066E+02 -0.71303272118E+03  0.71427441678E+03  0.26697043869E+01 0.  0.
         13    1    3    3    0    0  0.32747869560E+02 -0.13802385326E+02 -0.61231417970E+03  0.61334458787E+03  0.00000000000E+00 0.  1.
          3    1    3    3  501    0  0.63038281405E+01 -0.16933747399E+01 -0.10071854147E+03  0.10092982891E+03  0.00000000000E+00 0.  1.
         -3    1    1    2    0  502 -0.39051697700E+02  0.15495760066E+02 -0.28480533126E+03  0.28788753079E+03  0.00000000000E+00 0. -1.
<mgrwt>
<rscale>  1 0.30000000E+03</rscale>
<asrwt>0</asrwt>
<pdfrwt beam="1">  1       21 0.78616441E-02 0.30000000E+03</pdfrwt>
<pdfrwt beam="2">0</pdfrwt>
<totfact> 0.13171160E+04</totfact>
</mgrwt>
</event>
<event>
 6    1  0.8397183E-002  0.3000000E+03  0.7818608E-02  0.1093470E+00
         21   -1    0    0  501  502  0.00000000000E+00  0.00000000000E+00  0.18726403909E+01  0.18726403909E+01  0.00000000000E+00 0. -1.
         13   -1    0    0    0    0 -0.00000000000E+00 -0.00000000000E+00 -0.10000000000E+04  0.10000000000E+04  0.00000000000E+00 0.  1.
    9000005    2    1    2  501    0 -0.27343461219E+02 -0.33362261131E+02 -0.47114591115E+03  0.47312870202E+03  0.34049591249E+01 0.  0.
         13    1    3    3    0    0 -0.23972604176E+02 -0.29266128778E+02 -0.39982870541E+03  0.40161447398E+03  0.00000000000E+00 0.  1.
          1    1    3    3  501    0 -0.33708570430E+01 -0.40961323529E+01 -0.71317205744E+02  0.71514228043E+02  0.00000000000E+00 0.  1.
         -1    1    1    2    0  502  0.27343461219E+02  0.33362261131E+02 -0.52698144846E+03  0.52874393837E+03  0.00000000000E+00 0. -1.
<mgrwt>
<rscale>  1 0.30000000E+03</rscale>
<asrwt>0</asrwt>
<pdfrwt beam="1">  1       21 0.68096158E-02 0.30000000E+03</pdfrwt>
<pdfrwt beam="2">0</pdfrwt>
<totfact> 0.16927606E+04</totfact>
</mgrwt>
</event>
<event>
 6    1  0.8397183E-002  0.3000000E+03  0.7818608E-02  0.1093470E+00
         21   -1    0    0  501  502  0.00000000000E+00  0.00000000000E+00  0.10542089463E+01  0.10542089463E+01  0.00000000000E+00 0. -1.
         13   -1    0    0    0    0 -0.00000000000E+00 -0.00000000000E+00 -0.10000000000E+04  0.10000000000E+04  0.00000000000E+00 0.  1.
    9000005    2    1    2  501    0  0.65246231589E+01 -0.29733659080E+02 -0.66979640912E+03  0.67050016372E+03  0.40716932226E+01 0.  0.
         13    1    3    3    0    0  0.55163217673E+01 -0.24821867678E+02 -0.58870533207E+03  0.58925420909E+03  0.00000000000E+00 0.  1.
          1    1    3    3  501    0  0.10083013917E+01 -0.49117914021E+01 -0.81091077053E+02  0.81245954632E+02  0.00000000000E+00 0.  1.
         -3    1    1    2    0  502 -0.65246231589E+01  0.29733659080E+02 -0.32914938193E+03  0.33055404523E+03  0.00000000000E+00 0. -1.
<mgrwt>
<rscale>  1 0.30000000E+03</rscale>
<asrwt>0</asrwt>
<pdfrwt beam="1">  1       21 0.38334952E-02 0.30000000E+03</pdfrwt>
<pdfrwt beam="2">0</pdfrwt>
<totfact> 0.45165080E+04</totfact>
</mgrwt>
</event>
<event>
 6    1  0.8397183E-002  0.3000000E+03  0.7818608E-02  0.1093470E+00
         21   -1    0    0  501  502  0.00000000000E+00  0.00000000000E+00  0.20878349653E+01  0.20878349653E+01  0.00000000000E+00 0. -1.
         13   -1    0    0    0    0 -0.00000000000E+00 -0.00000000000E+00 -0.10000000000E+04  0.10000000000E+04  0.00000000000E+00 0.  1.
    9000005    2    1    2  501    0  0.25172584775E+02 -0.37884961751E+02 -0.54045609444E+03  0.54237598405E+03  0.31604908019E+01 0.  0.
         13    1    3    3    0    0  0.82939477924E+01 -0.14053272973E+02 -0.17921477791E+03  0.17995616320E+03  0.00000000000E+00 0.  1.
          1    1    3    3  501    0  0.16878636982E+02 -0.23831688778E+02 -0.36124131653E+03  0.36241982085E+03  0.00000000000E+00 0.  1.
         -1    1    1    2    0  502 -0.25172584775E+02  0.37884961751E+02 -0.45745607059E+03  0.45971185092E+03  0.00000000000E+00 0. -1.
<mgrwt>
<rscale>  1 0.30000000E+03</rscale>
<asrwt>0</asrwt>
<pdfrwt beam="1">  1       21 0.75921432E-02 0.30000000E+03</pdfrwt>
<pdfrwt beam="2">0</pdfrwt>
<totfact> 0.14001805E+04</totfact>
</mgrwt>
</event>
<event>
 6    1  0.8397183E-002  0.3000000E+03  0.7818608E-02  0.1093470E+00
         21   -1    0    0  501  502  0.00000000000E+00  0.00000000000E+00  0.17077657718E+01  0.17077657718E+01  0.00000000000E+00 0. -1.
         13   -1    0    0    0    0 -0.00000000000E+00 -0.00000000000E+00 -0.10000000000E+04  0.10000000000E+04  0.00000000000E+00 0.  1.
    9000005    2    1    2  501    0  0.20997357690E+02  0.28086618103E+02 -0.76354922709E+03  0.76435986385E+03  0.29718896968E+01 0.  0.
         13    1    3    3    0    0  0.11708144346E+02  0.13205901816E+02 -0.37823165526E+03  0.37864318497E+03  0.00000000000E+00 0.  1.
          1    1    3    3  501    0  0.92892133446E+01  0.14880716287E+02 -0.38531757184E+03  0.38571667888E+03  0.00000000000E+00 0.  1.
         -3    1    1    2    0  502 -0.20997357690E+02 -0.28086618103E+02 -0.23474300713E+03  0.23734790192E+03  0.00000000000E+00 0. -1.
<mgrwt>
<rscale>  1 0.30000000E+03</rscale>
<asrwt>0</asrwt>
<pdfrwt beam="1">  1       21 0.62100704E-02 0.30000000E+03</pdfrwt>
<pdfrwt beam="2">0</pdfrwt>
<totfact> 0.19856603E+04</totfact>
</mgrwt>
</event>
<event>
 6    1  0.8397183E-002  0.3000000E+03  0.7818608E-02  0.1093470E+00
         21   -1    0    0  501  502  0.00000000000E+00  0.00000000000E+00  0.11210198794E+01  0.11210198794E+01  0.00000000000E+00 0. -1.
         13   -1    0    0    0    0 -0.00000000000E+00 -0.00000000000E+00 -0.10000000000E+04  0.10000000000E+04  0.00000000000E+00 0.  1.
    9000005    2    1    2  501    0  0.32134801206E+02  0.47724187780E+01 -0.61668061344E+03  0.61754441355E+03  0.32714347030E+01 0.  0.
         13    1    3    3    0    0  0.13608061971E+02  0.36132785527E+01 -0.25883933605E+03  0.25922198406E+03  0.00000000000E+00 0.  1.
          1    1    3    3  501    0  0.18526739235E+02  0.11591402253E+01 -0.35784127739E+03  0.35832242949E+03  0.00000000000E+00 0.  1.
         -3    1    1    2    0  502 -0.32134801206E+02 -0.47724187780E+01 -0.38219836668E+03  0.38357660633E+03  0.00000000000E+00 0. -1.
<mgrwt>
<rscale>  1 0.30000000E+03</rscale>
<asrwt>0</asrwt>
<pdfrwt beam="1">  1       21 0.40764445E-02 0.30000000E+03</pdfrwt>
<pdfrwt beam="2">0</pdfrwt>
<totfact> 0.40727356E+04</totfact>
</mgrwt>
</event>
<event>
 6    1  0.8397183E-002  0.3000000E+03  0.7818608E-02  0.1093470E+00
         21   -1    0    0  501  502  0.00000000000E+00  0.00000000000E+00  0.11102583044E+01  0.11102583044E+01  0.00000000000E+00 0. -1.
         13   -1    0    0    0    0 -0.00000000000E+00 -0.00000000000E+00 -0.10000000000E+04  0.10000000000E+04  0.00000000000E+00 0.  1.
    9000005    2    1    2  501    0 -0.28324977085E+02  0.14054790945E+02 -0.65504575189E+03  0.65581541212E+03  0.30126783555E+01 0.  0.
         13    1    3    3    0    0 -0.28017751443E+02  0.14170429519E+02 -0.64417826734E+03  0.64494297080E+03  0.00000000000E+00 0.  1.
          1    1    3    3  501    0 -0.30722564209E+00 -0.11563857451E+00 -0.10867484547E+02  0.10872441320E+02  0.00000000000E+00 0.  1.
         -1    1    1    2    0  502  0.28324977085E+02 -0.14054790945E+02 -0.34384398981E+03  0.34529484619E+03  0.00000000000E+00 0. -1.
<mgrwt>
<rscale>  1 0.30000000E+03</rscale>
<asrwt>0</asrwt>
<pdfrwt beam="1">  1       21 0.40373114E-02 0.30000000E+03</pdfrwt>
<pdfrwt beam="2">0</pdfrwt>
<totfact> 0.41394848E+04</totfact>
</mgrwt>
</event>
<event>
 6    1  0.8397183E-002  0.3000000E+03  0.7818608E-02  0.1093470E+00
         21   -1    0    0  501  502  0.00000000000E+00  0.00000000000E+00  0.41550392410E+01  0.41550392410E+01  0.00000000000E+00 0. -1.
         13   -1    0    0    0    0 -0.00000000000E+00 -0.00000000000E+00 -0.10000000000E+04  0.10000000000E+04  0.00000000000E+00 0.  1.
    9000005    2    1    2  501    0  0.28968872470E+02 -0.26291261123E+02 -0.99668629183E+02  0.10712524974E+03  0.33996329280E+01 0.  0.
         13    1    3    3    0    0  0.19600308750E+02 -0.19532937808E+02 -0.72601317354E+02  0.77695939688E+02  0.00000000000E+00 0.  1.
          1    1    3    3  501    0  0.93685637200E+01 -0.67583233153E+01 -0.27067311829E+02  0.29429310048E+02  0.00000000000E+00 0.  1.
         -1    1    1    2    0  502 -0.28968872470E+02  0.26291261123E+02 -0.89617633158E+03  0.89702978951E+03  0.00000000000E+00 0. -1.
<mgrwt>
<rscale>  1 0.30000000E+03</rscale>
<asrwt>0</asrwt>
<pdfrwt beam="1">  1       21 0.15109265E-01 0.30000000E+03</pdfrwt>
<pdfrwt beam="2">0</pdfrwt>
<totfact> 0.40630616E+03</totfact>
</mgrwt>
</event>
<event>
 6    1  0.8397183E-002  0.3000000E+03  0.7818608E-02  0.1093470E+00
         21   -1    0    0  501  502  0.00000000000E+00  0.00000000000E+00  0.12654947086E+01  0.12654947086E+01  0.00000000000E+00 0. -1.
         13   -1    0    0    0    0 -0.00000000000E+00 -0.00000000000E+00 -0.10000000000E+04  0.10000000000E+04  0.00000000000E+00 0.  1.
    9000005    2    1    2  501    0 -0.27722870025E+02 -0.22096423180E+02 -0.47527412706E+03  0.47660600798E+03  0.33138417250E+01 0.  0.
         13    1    3    3    0    0 -0.27506093070E+02 -0.22216314247E+02 -0.47223368499E+03  0.47355549095E+03  0.00000000000E+00 0.  1.
          1    1    3    3  501    0 -0.21677695481E+00  0.11989106701E+00 -0.30404420726E+01  0.30505170238E+01  0.00000000000E+00 0.  1.
         -1    1    1    2    0  502  0.27722870025E+02  0.22096423180E+02 -0.52346037823E+03  0.52465948673E+03  0.00000000000E+00 0. -1.
<mgrwt>
<rscale>  1 0.30000000E+03</rscale>
<asrwt>0</asrwt>
<pdfrwt beam="1">  1       21 0.46018086E-02 0.30000000E+03</pdfrwt>
<pdfrwt beam="2">0</pdfrwt>
<totfact> 0.33173621E+04</totfact>
</mgrwt>
</event>
<event>
 6    1  0.8397183E-002  0.3000000E+03  0.7818608E-02  0.1093470E+00
         21   -1    0    0  501  502  0.00000000000E+00  0.00000000000E+00  0.15110706761E+01  0.15110706761E+01  0.00000000000E+00 0. -1.
         13   -1    0    0    0    0 -0.00000000000E+00 -0.00000000000E+00 -0.10000000000E+04  0.10000000000E+04  0.00000000000E+00 0.  1.
    9000005    2    1    2  501    0  0.18631493755E+01  0.32490247487E+02 -0.22864989747E+03  0.23098448290E+03  0.37374080954E+01 0.  0.
         13    1    3    3    0    0  0.29061910904E+01  0.27807513268E+02 -0.19581719895E+03  0.19780313229E+03  0.00000000000E+00 0.  1.
          3    1    3    3  501    0 -0.10430417149E+01  0.46827342186E+01 -0.32832698524E+02  0.33181350607E+02  0.00000000000E+00 0.  1.
         -3    1    1    2    0  502 -0.18631493755E+01 -0.32490247487E+02 -0.76983903185E+03  0.77052658778E+03  0.00000000000E+00 0. -1.
<mgrwt>
<rscale>  1 0.30000000E+03</rscale>
<asrwt>0</asrwt>
<pdfrwt beam="1">  1       21 0.54948140E-02 0.30000000E+03</pdfrwt>
<pdfrwt beam="2">0</pdfrwt>
<totfact> 0.24513768E+04</totfact>
</mgrwt>
</event>
<event>
 6    1  0.8397183E-002  0.3000000E+03  0.7818608E-02  0.1093470E+00
         21   -1    0    0  501  502  0.00000000000E+00  0.00000000000E+00  0.24036826228E+01  0.24036826228E+01  0.00000000000E+00 0. -1.
         13   -1    0    0    0    0 -0.00000000000E+00 -0.00000000000E+00 -0.10000000000E+04  0.10000000000E+04  0.00000000000E+00 0.  1.
    9000005    2    1    2  501    0 -0.28617995959E+02  0.30244059268E+02 -0.76271247474E+03  0.76385785402E+03  0.38482728761E+01 0.  0.
         13    1    3    3    0    0 -0.11238787294E+02  0.14362739136E+02 -0.34855885383E+03  0.34903563314E+03  0.00000000000E+00 0.  1.
          1    1    3    3  501    0 -0.17379208665E+02  0.15881320132E+02 -0.41415362091E+03  0.41482222088E+03  0.00000000000E+00 0.  1.
         -3    1    1    2    0  502  0.28617995959E+02 -0.30244059268E+02 -0.23488384263E+03  0.23854582860E+03  0.00000000000E+00 0. -1.
<mgrwt>
<rscale>  1 0.30000000E+03</rscale>
<asrwt>0</asrwt>
<pdfrwt beam="1">  1       21 0.87406825E-02 0.30000000E+03</pdfrwt>
<pdfrwt beam="2">0</pdfrwt>
<totfact> 0.10929078E+04</totfact>
</mgrwt>
</event>
<event>
 6    1  0.8397183E-002  0.3000000E+03  0.7818608E-02  0.1093470E+00
         21   -1    0    0  501  502  0.00000000000E+00  0.00000000000E+00  0.10492323736E+01  0.10492323736E+01  0.00000000000E+00 0. -1.
         13   -1    0    0    0    0 -0.00000000000E+00 -0.00000000000E+00 -0.10000000000E+04  0.10000000000E+04  0.00000000000E+00 0.  1.
    9000005    2    1    2  501    0  0.95212746758E+00  0.32270817837E+02 -0.48007348905E+03  0.48116853216E+03  0.32076818415E+01 0.  0.
         13    1    3    3    0    0 -0.11184376411E+01  0.11958146851E+02 -0.17066832670E+03  0.17109040276E+03  0.00000000000E+00 0.  1.
          1    1    3    3  501    0  0.20705651087E+01  0.20312670986E+02 -0.30940516235E+03  0.31007812940E+03  0.00000000000E+00 0.  1.
         -1    1    1    2    0  502 -0.95212746758E+00 -0.32270817837E+02 -0.51887727858E+03  0.51988070021E+03  0.00000000000E+00 0. -1.
<mgrwt>
<rscale>  1 0.30000000E+03</rscale>
<asrwt>0</asrwt>
<pdfrwt beam="1">  1       21 0.38153985E-02 0.30000000E+03</pdfrwt>
<pdfrwt beam="2">0</pdfrwt>
<totfact> 0.45525675E+04</totfact>
</mgrwt>
</event>
<event>
 6    1  0.8397183E-002  0.3000000E+03  0.7818608E-02  0.1093470E+00
         21   -1    0    0  501  502  0.00000000000E+00  0.00000000000E+00  0.12843899627E+01  0.12843899627E+01  0.00000000000E+00 0. -1.
         13   -1    0    0    0    0 -0.00000000000E+00 -0.00000000000E+00 -0.10000000000E+04  0.10000000000E+04  0.00000000000E+00 0.  1.
    9000005    2    1    2  501    0 -0.98641448108E+00  0.34379241833E+02 -0.63639540849E+03  0.63733544611E+03  0.38012679612E+01 0.  0.
         13    1    3    3    0    0 -0.56922734382E+00  0.15822327261E+02 -0.32808694689E+03  0.32846874247E+03  0.00000000000E+00 0.  1.
          1    1    3    3  501    0 -0.41718713727E+00  0.18556914572E+02 -0.30830846159E+03  0.30886670363E+03  0.00000000000E+00 0.  1.
         -1    1    1    2    0  502  0.98641448108E+00 -0.34379241833E+02 -0.36232020155E+03  0.36394894386E+03  0.00000000000E+00 0. -1.
<mgrwt>
<rscale>  1 0.30000000E+03</rscale>
<asrwt>0</asrwt>
<pdfrwt beam="1">  1       21 0.46705188E-02 0.30000000E+03</pdfrwt>
<pdfrwt beam="2">0</pdfrwt>
<totfact> 0.32348527E+04</totfact>
</mgrwt>
</event>
<event>
 6    1  0.8397183E-002  0.3000000E+03  0.7818608E-02  0.1093470E+00
         21   -1    0    0  501  502  0.00000000000E+00  0.00000000000E+00  0.50778883096E+01  0.50778883096E+01  0.00000000000E+00 0. -1.
         13   -1    0    0    0    0 -0.00000000000E+00 -0.00000000000E+00 -0.10000000000E+04  0.10000000000E+04  0.00000000000E+00 0.  1.
    9000005    2    1    2  501    0  0.56002226737E+02 -0.15707414681E+02 -0.78757098277E+03  0.78972361521E+03  0.35161416210E+01 0.  0.
         13    1    3    3    0    0  0.18254740915E+02 -0.56471812918E+01 -0.23783737985E+03  0.23860374154E+03  0.00000000000E+00 0.  1.
          1    1    3    3  501    0  0.37747485822E+02 -0.10060233389E+02 -0.54973360292E+03  0.55111987367E+03  0.00000000000E+00 0.  1.
         -3    1    1    2    0  502 -0.56002226737E+02  0.15707414681E+02 -0.20735112892E+03  0.21535427310E+03  0.00000000000E+00 0. -1.
<mgrwt>
<rscale>  1 0.30000000E+03</rscale>
<asrwt>0</asrwt>
<pdfrwt beam="1">  1       21 0.18465087E-01 0.30000000E+03</pdfrwt>
<pdfrwt beam="2">0</pdfrwt>
<totfact> 0.27919382E+03</totfact>
</mgrwt>
</event>
<event>
 6    1  0.8397183E-002  0.3000000E+03  0.7818608E-02  0.1093470E+00
         21   -1    0    0  501  502  0.00000000000E+00  0.00000000000E+00  0.16450757887E+01  0.16450757887E+01  0.00000000000E+00 0. -1.
         13   -1    0    0    0    0 -0.00000000000E+00 -0.00000000000E+00 -0.10000000000E+04  0.10000000000E+04  0.00000000000E+00 0.  1.
    9000005    2    1    2  501    0  0.12685479098E+02  0.38437598972E+02 -0.52217512717E+03  0.52374804764E+03  0.26045318904E+01 0.  0.
         13    1    3    3    0    0  0.72474270726E+01  0.25624391100E+02 -0.34879579667E+03  0.34981086660E+03  0.00000000000E+00 0.  1.
          1    1    3    3  501    0  0.54380520255E+01  0.12813207871E+02 -0.17337933050E+03  0.17393718104E+03  0.00000000000E+00 0.  1.
         -1    1    1    2    0  502 -0.12685479098E+02 -0.38437598972E+02 -0.47617979705E+03  0.47789702814E+03  0.00000000000E+00 0. -1.
<mgrwt>
<rscale>  1 0.30000000E+03</rscale>
<asrwt>0</asrwt>
<pdfrwt beam="1">  1       21 0.59821064E-02 0.30000000E+03</pdfrwt>
<pdfrwt beam="2">0</pdfrwt>
<totfact> 0.21180480E+04</totfact>
</mgrwt>
</event>
<event>
 6    1  0.8397183E-002  0.3000000E+03  0.7818608E-02  0.1093470E+00
         21   -1    0    0  501  502  0.00000000000E+00  0.00000000000E+00  0.13681640528E+01  0.13681640528E+01  0.00000000000E+00 0. -1.
         13   -1    0    0    0    0 -0.00000000000E+00 -0.00000000000E+00 -0.10000000000E+04  0.10000000000E+04  0.00000000000E+00 0.  1.
    9000005    2    1    2  501    0 -0.83676817803E+01 -0.35182403763E+02 -0.60006537739E+03  0.60116441405E+03  0.35179453821E+01 0.  0.
         13    1    3    3    0    0 -0.14558898243E+01 -0.95921876769E+01 -0.13963381108E+03  0.13997046430E+03  0.00000000000E+00 0.  1.
          3    1    3    3  501    0 -0.69117919560E+01 -0.25590216086E+02 -0.46043156631E+03  0.46119394975E+03  0.00000000000E+00 0.  1.
         -1    1    1    2    0  502  0.83676817803E+01  0.35182403763E+02 -0.39856645855E+03  0.40020375000E+03  0.00000000000E+00 0. -1.
<mgrwt>
<rscale>  1 0.30000000E+03</rscale>
<asrwt>0</asrwt>
<pdfrwt beam="1">  1       21 0.49751525E-02 0.30000000E+03</pdfrwt>
<pdfrwt beam="2">0</pdfrwt>
<totfact> 0.29050298E+04</totfact>
</mgrwt>
</event>
<event>
 6    1  0.8397183E-002  0.3000000E+03  0.7818608E-02  0.1093470E+00
         21   -1    0    0  501  502  0.00000000000E+00  0.00000000000E+00  0.14510033998E+01  0.14510033998E+01  0.00000000000E+00 0. -1.
         13   -1    0    0    0    0 -0.00000000000E+00 -0.00000000000E+00 -0.10000000000E+04  0.10000000000E+04  0.00000000000E+00 0.  1.
    9000005    2    1    2  501    0  0.20540206477E+02 -0.25801205915E+02 -0.25093443458E+03  0.25310941318E+03  0.29465697504E+01 0.  0.
         13    1    3    3    0    0  0.74140051944E+01 -0.80465122914E+01 -0.92095001305E+02  0.92742671401E+02  0.00000000000E+00 0.  1.
          1    1    3    3  501    0  0.13126201283E+02 -0.17754693624E+02 -0.15883943328E+03  0.16036674178E+03  0.00000000000E+00 0.  1.
         -1    1    1    2    0  502 -0.20540206477E+02  0.25801205915E+02 -0.74761456202E+03  0.74834159022E+03  0.00000000000E+00 0. -1.
<mgrwt>
<rscale>  1 0.30000000E+03</rscale>
<asrwt>0</asrwt>
<pdfrwt beam="1">  1       21 0.52763871E-02 0.30000000E+03</pdfrwt>
<pdfrwt beam="2">0</pdfrwt>
<totfact> 0.26276746E+04</totfact>
</mgrwt>
</event>
<event>
 6    1  0.8397183E-002  0.3000000E+03  0.7818608E-02  0.1093470E+00
         21   -1    0    0  501  502  0.00000000000E+00  0.00000000000E+00  0.19137486018E+01  0.19137486018E+01  0.00000000000E+00 0. -1.
         13   -1    0    0    0    0 -0.00000000000E+00 -0.00000000000E+00 -0.10000000000E+04  0.10000000000E+04  0.00000000000E+00 0.  1.
    9000005    2    1    2  501    0 -0.37341958325E+01  0.37543500020E+02 -0.75201369219E+03  0.75296563552E+03  0.30325597634E+01 0.  0.
         13    1    3    3    0    0 -0.16009926331E+01  0.13619396329E+02 -0.24533706837E+03  0.24572002004E+03  0.00000000000E+00 0.  1.
          3    1    3    3  501    0 -0.21332031994E+01  0.23924103692E+02 -0.50667662382E+03  0.50724561547E+03  0.00000000000E+00 0.  1.
         -1    1    1    2    0  502  0.37341958325E+01 -0.37543500020E+02 -0.24607255921E+03  0.24894811308E+03  0.00000000000E+00 0. -1.
<mgrwt>
<rscale>  1 0.30000000E+03</rscale>
<asrwt>0</asrwt>
<pdfrwt beam="1">  1       21 0.69591005E-02 0.30000000E+03</pdfrwt>
<pdfrwt beam="2">0</pdfrwt>
<totfact> 0.16300641E+04</totfact>
</mgrwt>
</event>
<event>
 6    1  0.8397183E-002  0.3000000E+03  0.7818608E-02  0.1093470E+00
         21   -1    0    0  501  502  0.00000000000E+00  0.00000000000E+00  0.13241039334E+01  0.13241039334E+01  0.00000000000E+00 0. -1.
         13   -1    0    0    0    0 -0.00000000000E+00 -0.00000000000E+00 -0.10000000000E+04  0.10000000000E+04  0.00000000000E+00 0.  1.
    9000005    2    1    2  501    0 -0.35179457409E+02 -0.91430184322E+01 -0.49854200043E+03  0.49987111254E+03  0.24112139127E+01 0.  0.
         13    1    3    3    0    0 -0.11159437769E+02 -0.23743775567E+01 -0.17041310196E+03  0.17079460191E+03  0.00000000000E+00 0.  1.
          3    1    3    3  501    0 -0.24020019641E+02 -0.67686408755E+01 -0.32812889847E+03  0.32907651063E+03  0.00000000000E+00 0.  1.
         -1    1    1    2    0  502  0.35179457409E+02  0.91430184322E+01 -0.50013389564E+03  0.50145299139E+03  0.00000000000E+00 0. -1.
<mgrwt>
<rscale>  1 0.30000000E+03</rscale>
<asrwt>0</asrwt>
<pdfrwt beam="1">  1       21 0.48149335E-02 0.30000000E+03</pdfrwt>
<pdfrwt beam="2">0</pdfrwt>
<totfact> 0.30715746E+04</totfact>
</mgrwt>
</event>
<event>
 6    1  0.8397183E-002  0.3000000E+03  0.7818608E-02  0.1093470E+00
         21   -1    0    0  501  502  0.00000000000E+00  0.00000000000E+00  0.12148619144E+01  0.12148619144E+01  0.00000000000E+00 0. -1.
         13   -1    0    0    0    0 -0.00000000000E+00 -0.00000000000E+00 -0.10000000000E+04  0.10000000000E+04  0.00000000000E+00 0.  1.
    9000005    2    1    2  501    0  0.17579047865E+02 -0.29430361818E+02 -0.57901361481E+03  0.58004589241E+03  0.46154138871E+01 0.  0.
         13    1    3    3    0    0  0.11355399300E+02 -0.14869860096E+02 -0.32833721008E+03  0.32886985474E+03  0.00000000000E+00 0.  1.
          1    1    3    3  501    0  0.62236485647E+01 -0.14560501721E+02 -0.25067640473E+03  0.25117603767E+03  0.00000000000E+00 0.  1.
         -1    1    1    2    0  502 -0.17579047865E+02  0.29430361818E+02 -0.41977152328E+03  0.42116896951E+03  0.00000000000E+00 0. -1.
<mgrwt>
<rscale>  1 0.30000000E+03</rscale>
<asrwt>0</asrwt>
<pdfrwt beam="1">  1       21 0.44176890E-02 0.30000000E+03</pdfrwt>
<pdfrwt beam="2">0</pdfrwt>
<totfact> 0.35553904E+04</totfact>
</mgrwt>
</event>
<event>
 6    1  0.8397183E-002  0.3000000E+03  0.7818608E-02  0.1093470E+00
         21   -1    0    0  501  502  0.00000000000E+00  0.00000000000E+00  0.13540484276E+01  0.13540484276E+01  0.00000000000E+00 0. -1.
         13   -1    0    0    0    0 -0.00000000000E+00 -0.00000000000E+00 -0.10000000000E+04  0.10000000000E+04  0.00000000000E+00 0.  1.
    9000005    2    1    2  501    0  0.24679446635E+02  0.26597879368E+02 -0.57384031528E+03  0.57500166964E+03  0.42059925895E+01 0.  0.
         13    1    3    3    0    0  0.24434858597E+02  0.26362595218E+02 -0.57212779332E+03  0.57325584221E+03  0.00000000000E+00 0.  1.
          3    1    3    3  501    0  0.24458803871E+00  0.23528415034E+00 -0.17125219633E+01  0.17458274299E+01  0.00000000000E+00 0.  1.
         -3    1    1    2    0  502 -0.24679446635E+02 -0.26597879368E+02 -0.42480563629E+03  0.42635237879E+03  0.00000000000E+00 0. -1.
<mgrwt>
<rscale>  1 0.30000000E+03</rscale>
<asrwt>0</asrwt>
<pdfrwt beam="1">  1       21 0.49238228E-02 0.30000000E+03</pdfrwt>
<pdfrwt beam="2">0</pdfrwt>
<totfact> 0.29568199E+04</totfact>
</mgrwt>
</event>
<event>
 6    1  0.8397183E-002  0.3000000E+03  0.7818608E-02  0.1093470E+00
         21   -1    0    0  501  502  0.00000000000E+00  0.00000000000E+00  0.11929530772E+01  0.11929530772E+01  0.00000000000E+00 0. -1.
         13   -1    0    0    0    0 -0.00000000000E+00 -0.00000000000E+00 -0.10000000000E+04  0.10000000000E+04  0.00000000000E+00 0.  1.
    9000005    2    1    2  501    0  0.12745718268E+02  0.30656167694E+02 -0.37169188167E+03  0.37319957378E+03  0.45621286633E+01 0.  0.
         13    1    3    3    0    0  0.11747206503E+01  0.29360694248E+01 -0.23022070478E+02  0.23238248673E+02  0.00000000000E+00 0.  1.
          1    1    3    3  501    0  0.11570997618E+02  0.27720098269E+02 -0.34866981119E+03  0.34996132511E+03  0.00000000000E+00 0.  1.
         -3    1    1    2    0  502 -0.12745718268E+02 -0.30656167694E+02 -0.62711516525E+03  0.62799337930E+03  0.00000000000E+00 0. -1.
<mgrwt>
<rscale>  1 0.30000000E+03</rscale>
<asrwt>0</asrwt>
<pdfrwt beam="1">  1       21 0.43380203E-02 0.30000000E+03</pdfrwt>
<pdfrwt beam="2">0</pdfrwt>
<totfact> 0.36666606E+04</totfact>
</mgrwt>
</event>
<event>
 6    1  0.8397183E-002  0.3000000E+03  0.7818608E-02  0.1093470E+00
         21   -1    0    0  501  502  0.00000000000E+00  0.00000000000E+00  0.11504014114E+01  0.11504014114E+01  0.00000000000E+00 0. -1.
         13   -1    0    0    0    0 -0.00000000000E+00 -0.00000000000E+00 -0.10000000000E+04  0.10000000000E+04  0.00000000000E+00 0.  1.
    9000005    2    1    2  501    0  0.16335637058E+02  0.29362136581E+02 -0.44048235830E+03  0.44177310197E+03  0.31269071275E+01 0.  0.
         13    1    3    3    0    0  0.66084505419E+01  0.92328955897E+01 -0.13899031208E+03  0.13945330700E+03  0.00000000000E+00 0.  1.
          3    1    3    3  501    0  0.97271865163E+01  0.20129240991E+02 -0.30149204622E+03  0.30231979497E+03  0.00000000000E+00 0.  1.
         -1    1    1    2    0  502 -0.16335637058E+02 -0.29362136581E+02 -0.55836724029E+03  0.55937729944E+03  0.00000000000E+00 0. -1.
<mgrwt>
<rscale>  1 0.30000000E+03</rscale>
<asrwt>0</asrwt>
<pdfrwt beam="1">  1       21 0.41832867E-02 0.30000000E+03</pdfrwt>
<pdfrwt beam="2">0</pdfrwt>
<totfact> 0.38988055E+04</totfact>
</mgrwt>
</event>
<event>
 6    1  0.8397183E-002  0.3000000E+03  0.7818608E-02  0.1093470E+00
         21   -1    0    0  501  502  0.00000000000E+00  0.00000000000E+00  0.21916817668E+01  0.21916817668E+01  0.00000000000E+00 0. -1.
         13   -1    0    0    0    0 -0.00000000000E+00 -0.00000000000E+00 -0.10000000000E+04  0.10000000000E+04  0.00000000000E+00 0.  1.
    9000005    2    1    2  501    0 -0.32888406692E+02 -0.30602670154E+02 -0.63831106141E+03  0.63989836361E+03  0.32762663798E+01 0.  0.
         13    1    3    3    0    0 -0.11950307834E+02 -0.11679946594E+02 -0.25952228332E+03  0.26005969805E+03  0.00000000000E+00 0.  1.
          3    1    3    3  501    0 -0.20938098857E+02 -0.18922723559E+02 -0.37878877809E+03  0.37983866556E+03  0.00000000000E+00 0.  1.
         -3    1    1    2    0  502  0.32888406692E+02  0.30602670154E+02 -0.35949725682E+03  0.36229331815E+03  0.00000000000E+00 0. -1.
<mgrwt>
<rscale>  1 0.30000000E+03</rscale>
<asrwt>0</asrwt>
<pdfrwt beam="1">  1       21 0.79697687E-02 0.30000000E+03</pdfrwt>
<pdfrwt beam="2">0</pdfrwt>
<totfact> 0.12859090E+04</totfact>
</mgrwt>
</event>
<event>
 6    1  0.8397183E-002  0.3000000E+03  0.7818608E-02  0.1093470E+00
         21   -1    0    0  501  502  0.00000000000E+00  0.00000000000E+00  0.10497118256E+01  0.10497118256E+01  0.00000000000E+00 0. -1.
         13   -1    0    0    0    0 -0.00000000000E+00 -0.00000000000E+00 -0.10000000000E+04  0.10000000000E+04  0.00000000000E+00 0.  1.
    9000005    2    1    2  501    0  0.12030818227E+02  0.28397706160E+02 -0.35101087259E+03  0.35237671519E+03  0.30897291266E+01 0.  0.
         13    1    3    3    0    0  0.40759950331E+01  0.71175957384E+01 -0.10433464121E+03  0.10465653950E+03  0.00000000000E+00 0.  1.
          3    1    3    3  501    0  0.79548231942E+01  0.21280110421E+02 -0.24667623139E+03  0.24772017569E+03  0.00000000000E+00 0.  1.
         -1    1    1    2    0  502 -0.12030818227E+02 -0.28397706160E+02 -0.64793941558E+03  0.64867299664E+03  0.00000000000E+00 0. -1.
<mgrwt>
<rscale>  1 0.30000000E+03</rscale>
<asrwt>0</asrwt>
<pdfrwt beam="1">  1       21 0.38171420E-02 0.30000000E+03</pdfrwt>
<pdfrwt beam="2">0</pdfrwt>
<totfact> 0.45490738E+04</totfact>
</mgrwt>
</event>
<event>
 6    1  0.8397183E-002  0.3000000E+03  0.7818608E-02  0.1093470E+00
         21   -1    0    0  501  502  0.00000000000E+00  0.00000000000E+00  0.33750611875E+01  0.33750611875E+01  0.00000000000E+00 0. -1.
         13   -1    0    0    0    0 -0.00000000000E+00 -0.00000000000E+00 -0.10000000000E+04  0.10000000000E+04  0.00000000000E+00 0.  1.
    9000005    2    1    2  501    0  0.94903139975E+01  0.57096844024E+02 -0.46000611262E+03  0.46364375740E+03  0.31296128709E+01 0.  0.
         13    1    3    3    0    0  0.57232942597E+01  0.38763508621E+02 -0.30088654572E+03  0.30342722207E+03  0.00000000000E+00 0.  1.
          1    1    3    3  501    0  0.37670197378E+01  0.18333335402E+02 -0.15911956690E+03  0.16021653533E+03  0.00000000000E+00 0.  1.
         -3    1    1    2    0  502 -0.94903139975E+01 -0.57096844024E+02 -0.53661882620E+03  0.53973130379E+03  0.00000000000E+00 0. -1.
<mgrwt>
<rscale>  1 0.30000000E+03</rscale>
<asrwt>0</asrwt>
<pdfrwt beam="1">  1       21 0.12272976E-01 0.30000000E+03</pdfrwt>
<pdfrwt beam="2">0</pdfrwt>
<totfact> 0.59489068E+03</totfact>
</mgrwt>
</event>
<event>
 6    1  0.8397183E-002  0.3000000E+03  0.7818608E-02  0.1093470E+00
         21   -1    0    0  501  502  0.00000000000E+00  0.00000000000E+00  0.23449578547E+01  0.23449578547E+01  0.00000000000E+00 0. -1.
         13   -1    0    0    0    0 -0.00000000000E+00 -0.00000000000E+00 -0.10000000000E+04  0.10000000000E+04  0.00000000000E+00 0.  1.
    9000005    2    1    2  501    0  0.49374580579E+01  0.41488845072E+02 -0.24733458321E+03  0.25086209454E+03  0.34193081685E+01 0.  0.
         13    1    3    3    0    0  0.54672479697E+01  0.37186395975E+02 -0.22198834715E+03  0.22514782948E+03  0.00000000000E+00 0.  1.
          1    1    3    3  501    0 -0.52978991184E+00  0.43024490961E+01 -0.25346236054E+02  0.25714265062E+02  0.00000000000E+00 0.  1.
         -1    1    1    2    0  502 -0.49374580579E+01 -0.41488845072E+02 -0.75032045894E+03  0.75148286332E+03  0.00000000000E+00 0. -1.
<mgrwt>
<rscale>  1 0.30000000E+03</rscale>
<asrwt>0</asrwt>
<pdfrwt beam="1">  1       21 0.85271375E-02 0.30000000E+03</pdfrwt>
<pdfrwt beam="2">0</pdfrwt>
<totfact> 0.11416901E+04</totfact>
</mgrwt>
</event>
<event>
 6    1  0.8397183E-002  0.3000000E+03  0.7818608E-02  0.1093470E+00
         21   -1    0    0  501  502  0.00000000000E+00  0.00000000000E+00  0.29560282282E+01  0.29560282282E+01  0.00000000000E+00 0. -1.
         13   -1    0    0    0    0 -0.00000000000E+00 -0.00000000000E+00 -0.10000000000E+04  0.10000000000E+04  0.00000000000E+00 0.  1.
    9000005    2    1    2  501    0 -0.40232785083E+02 -0.28503167685E+02 -0.28870610987E+03  0.29290417507E+03  0.32450479398E+01 0.  0.
         13    1    3    3    0    0 -0.34406472870E+02 -0.22924137977E+02 -0.24260827308E+03  0.24610586267E+03  0.00000000000E+00 0.  1.
          3    1    3    3  501    0 -0.58263122123E+01 -0.55790297079E+01 -0.46097836790E+02  0.46798312397E+02  0.00000000000E+00 0.  1.
         -1    1    1    2    0  502  0.40232785083E+02  0.28503167685E+02 -0.70833786191E+03  0.71005185316E+03  0.00000000000E+00 0. -1.
<mgrwt>
<rscale>  1 0.30000000E+03</rscale>
<asrwt>0</asrwt>
<pdfrwt beam="1">  1       21 0.10749216E-01 0.30000000E+03</pdfrwt>
<pdfrwt beam="2">0</pdfrwt>
<totfact> 0.75589552E+03</totfact>
</mgrwt>
</event>
<event>
 6    1  0.8397183E-002  0.3000000E+03  0.7818608E-02  0.1093470E+00
         21   -1    0    0  501  502  0.00000000000E+00  0.00000000000E+00  0.28908529610E+01  0.28908529610E+01  0.00000000000E+00 0. -1.
         13   -1    0    0    0    0 -0.00000000000E+00 -0.00000000000E+00 -0.10000000000E+04  0.10000000000E+04  0.00000000000E+00 0.  1.
    9000005    2    1    2  501    0 -0.23995574925E+02  0.44996767040E+02 -0.65422442201E+03  0.65623478231E+03  0.58308233466E+01 0.  0.
         13    1    3    3    0    0 -0.21960451159E+02  0.42903210395E+02 -0.62847035786E+03  0.63031574436E+03  0.00000000000E+00 0.  1.
          3    1    3    3  501    0 -0.20351237660E+01  0.20935566445E+01 -0.25754064144E+02  0.25919037947E+02  0.00000000000E+00 0.  1.
         -1    1    1    2    0  502  0.23995574925E+02 -0.44996767040E+02 -0.34288472503E+03  0.34665607065E+03  0.00000000000E+00 0. -1.
<mgrwt>
<rscale>  1 0.30000000E+03</rscale>
<asrwt>0</asrwt>
<pdfrwt beam="1">  1       21 0.10512215E-01 0.30000000E+03</pdfrwt>
<pdfrwt beam="2">0</pdfrwt>
<totfact> 0.78674545E+03</totfact>
</mgrwt>
</event>
<event>
 6    1  0.8397183E-002  0.3000000E+03  0.7818608E-02  0.1093470E+00
         21   -1    0    0  501  502  0.00000000000E+00  0.00000000000E+00  0.19624646039E+01  0.19624646039E+01  0.00000000000E+00 0. -1.
         13   -1    0    0    0    0 -0.00000000000E+00 -0.00000000000E+00 -0.10000000000E+04  0.10000000000E+04  0.00000000000E+00 0.  1.
    9000005    2    1    2  501    0  0.26635871543E+02 -0.17511692138E+02 -0.15305219845E+03  0.15637607122E+03  0.35172698026E+01 0.  0.
         13    1    3    3    0    0  0.21908029825E+02 -0.15550085215E+02 -0.13248292013E+03  0.13517947716E+03  0.00000000000E+00 0.  1.
          1    1    3    3  501    0  0.47278417180E+01 -0.19616069223E+01 -0.20569278322E+02  0.21196594059E+02  0.00000000000E+00 0.  1.
         -3    1    1    2    0  502 -0.26635871543E+02  0.17511692138E+02 -0.84498533695E+03  0.84558639338E+03  0.00000000000E+00 0. -1.
<mgrwt>
<rscale>  1 0.30000000E+03</rscale>
<asrwt>0</asrwt>
<pdfrwt beam="1">  1       21 0.71362500E-02 0.30000000E+03</pdfrwt>
<pdfrwt beam="2">0</pdfrwt>
<totfact> 0.15602527E+04</totfact>
</mgrwt>
</event>
<event>
 6    1  0.8397183E-002  0.3000000E+03  0.7818608E-02  0.1093470E+00
         21   -1    0    0  501  502  0.00000000000E+00  0.00000000000E+00  0.19425249689E+01  0.19425249689E+01  0.00000000000E+00 0. -1.
         13   -1    0    0    0    0 -0.00000000000E+00 -0.00000000000E+00 -0.10000000000E+04  0.10000000000E+04  0.00000000000E+00 0.  1.
    9000005    2    1    2  501    0  0.37005829621E+02  0.22317825009E+02 -0.41365685379E+03  0.41594627682E+03  0.56387740556E+01 0.  0.
         13    1    3    3    0    0  0.62324563377E+01  0.15112277612E+01 -0.56480073071E+02  0.56842994075E+02  0.00000000000E+00 0.  1.
          3    1    3    3  501    0  0.30773373284E+02  0.20806597248E+02 -0.35717678072E+03  0.35910328275E+03  0.00000000000E+00 0.  1.
         -3    1    1    2    0  502 -0.37005829621E+02 -0.22317825009E+02 -0.58440062124E+03  0.58599624815E+03  0.00000000000E+00 0. -1.
<mgrwt>
<rscale>  1 0.30000000E+03</rscale>
<asrwt>0</asrwt>
<pdfrwt beam="1">  1       21 0.70637421E-02 0.30000000E+03</pdfrwt>
<pdfrwt beam="2">0</pdfrwt>
<totfact> 0.15882645E+04</totfact>
</mgrwt>
</event>
<event>
 6    1  0.8397183E-002  0.3000000E+03  0.7818608E-02  0.1093470E+00
         21   -1    0    0  501  502  0.00000000000E+00  0.00000000000E+00  0.11027789231E+01  0.11027789231E+01  0.00000000000E+00 0. -1.
         13   -1    0    0    0    0 -0.00000000000E+00 -0.00000000000E+00 -0.10000000000E+04  0.10000000000E+04  0.00000000000E+00 0.  1.
    9000005    2    1    2  501    0  0.28339530429E+02  0.11925775442E+02 -0.31527916403E+03  0.31679363751E+03  0.34502737242E+01 0.  0.
         13    1    3    3    0    0  0.21753637970E+02  0.87925999179E+01 -0.22487517177E+03  0.22609593861E+03  0.00000000000E+00 0.  1.
          1    1    3    3  501    0  0.65858924597E+01  0.31331755238E+01 -0.90403992264E+02  0.90697698899E+02  0.00000000000E+00 0.  1.
         -1    1    1    2    0  502 -0.28339530429E+02 -0.11925775442E+02 -0.68361805705E+03  0.68430914142E+03  0.00000000000E+00 0. -1.
<mgrwt>
<rscale>  1 0.30000000E+03</rscale>
<asrwt>0</asrwt>
<pdfrwt beam="1">  1       21 0.40101136E-02 0.30000000E+03</pdfrwt>
<pdfrwt beam="2">0</pdfrwt>
<totfact> 0.41868884E+04</totfact>
</mgrwt>
</event>
<event>
 6    1  0.8397183E-002  0.3000000E+03  0.7818608E-02  0.1093470E+00
         21   -1    0    0  501  502  0.00000000000E+00  0.00000000000E+00  0.93864835286E+00  0.93864835286E+00  0.00000000000E+00 0. -1.
         13   -1    0    0    0    0 -0.00000000000E+00 -0.00000000000E+00 -0.10000000000E+04  0.10000000000E+04  0.00000000000E+00 0.  1.
    9000005    2    1    2  501    0  0.18885972145E+02  0.23440249302E+02 -0.58182634324E+03  0.58261918016E+03  0.41340255910E+01 0.  0.
         13    1    3    3    0    0  0.15077600479E+02  0.17160536947E+02 -0.46682040969E+03  0.46737898216E+03  0.00000000000E+00 0.  1.
          1    1    3    3  501    0  0.38083716654E+01  0.62797123548E+01 -0.11500593355E+03  0.11524019800E+03  0.00000000000E+00 0.  1.
         -1    1    1    2    0  502 -0.18885972145E+02 -0.23440249302E+02 -0.41723500841E+03  0.41831946820E+03  0.00000000000E+00 0. -1.
<mgrwt>
<rscale>  1 0.30000000E+03</rscale>
<asrwt>0</asrwt>
<pdfrwt beam="1">  1       21 0.34132739E-02 0.30000000E+03</pdfrwt>
<pdfrwt beam="2">0</pdfrwt>
<totfact> 0.54872507E+04</totfact>
</mgrwt>
</event>
<event>
 6    1  0.8397183E-002  0.3000000E+03  0.7818608E-02  0.1093470E+00
         21   -1    0    0  501  502  0.00000000000E+00  0.00000000000E+00  0.15688552222E+01  0.15688552222E+01  0.00000000000E+00 0. -1.
         13   -1    0    0    0    0 -0.00000000000E+00 -0.00000000000E+00 -0.10000000000E+04  0.10000000000E+04  0.00000000000E+00 0.  1.
    9000005    2    1    2  501    0 -0.12167435012E+02 -0.36872035093E+02 -0.40557302768E+03  0.40744063635E+03  0.32860195339E+01 0.  0.
         13    1    3    3    0    0 -0.17604534036E+01 -0.98240779518E+01 -0.10676638979E+03  0.10723186883E+03  0.00000000000E+00 0.  1.
          1    1    3    3  501    0 -0.10406981609E+02 -0.27047957141E+02 -0.29880663788E+03  0.30020876752E+03  0.00000000000E+00 0.  1.
         -1    1    1    2    0  502  0.12167435012E+02  0.36872035093E+02 -0.59285811710E+03  0.59412821887E+03  0.00000000000E+00 0. -1.
<mgrwt>
<rscale>  1 0.30000000E+03</rscale>
<asrwt>0</asrwt>
<pdfrwt beam="1">  1       21 0.57049401E-02 0.30000000E+03</pdfrwt>
<pdfrwt beam="2">0</pdfrwt>
<totfact> 0.22983995E+04</totfact>
</mgrwt>
</event>
<event>
 6    1  0.8397183E-002  0.3000000E+03  0.7818608E-02  0.1093470E+00
         21   -1    0    0  501  502  0.00000000000E+00  0.00000000000E+00  0.14181881389E+01  0.14181881389E+01  0.00000000000E+00 0. -1.
         13   -1    0    0    0    0 -0.00000000000E+00 -0.00000000000E+00 -0.10000000000E+04  0.10000000000E+04  0.00000000000E+00 0.  1.
    9000005    2    1    2  501    0  0.26065855380E+02 -0.20424510126E+02 -0.26418384039E+03  0.26627400505E+03  0.34863750227E+01 0.  0.
         13    1    3    3    0    0  0.91196860407E+01 -0.82009638827E+01 -0.86289183465E+02  0.87156455098E+02  0.00000000000E+00 0.  1.
          1    1    3    3  501    0  0.16946169340E+02 -0.12223546243E+02 -0.17789465692E+03  0.17911754995E+03  0.00000000000E+00 0.  1.
         -1    1    1    2    0  502 -0.26065855380E+02  0.20424510126E+02 -0.73439797147E+03  0.73514418309E+03  0.00000000000E+00 0. -1.
<mgrwt>
<rscale>  1 0.30000000E+03</rscale>
<asrwt>0</asrwt>
<pdfrwt beam="1">  1       21 0.51570587E-02 0.30000000E+03</pdfrwt>
<pdfrwt beam="2">0</pdfrwt>
<totfact> 0.27324134E+04</totfact>
</mgrwt>
</event>
<event>
 6    1  0.8397183E-002  0.3000000E+03  0.7818608E-02  0.1093470E+00
         21   -1    0    0  501  502  0.00000000000E+00  0.00000000000E+00  0.94682527697E+01  0.94682527697E+01  0.00000000000E+00 0. -1.
         13   -1    0    0    0    0 -0.00000000000E+00 -0.00000000000E+00 -0.10000000000E+04  0.10000000000E+04  0.00000000000E+00 0.  1.
    9000005    2    1    2  501    0  0.25244284817E+02  0.82268220847E+02 -0.73071151704E+03  0.73576789454E+03  0.31208057864E+01 0.  0.
         13    1    3    3    0    0  0.66785941668E+00  0.22823126831E+01 -0.25030746512E+02  0.25143453588E+02  0.00000000000E+00 0.  1.
          3    1    3    3  501    0  0.24576425400E+02  0.79985908164E+02 -0.70568077053E+03  0.71062444095E+03  0.00000000000E+00 0.  1.
         -1    1    1    2    0  502 -0.25244284817E+02 -0.82268220847E+02 -0.25982023019E+03  0.27370035823E+03  0.00000000000E+00 0. -1.
<mgrwt>
<rscale>  1 0.30000000E+03</rscale>
<asrwt>0</asrwt>
<pdfrwt beam="1">  1       21 0.34430083E-01 0.30000000E+03</pdfrwt>
<pdfrwt beam="2">0</pdfrwt>
<totfact> 0.82294515E+02</totfact>
</mgrwt>
</event>
<event>
 6    1  0.8397183E-002  0.3000000E+03  0.7818608E-02  0.1093470E+00
         21   -1    0    0  501  502  0.00000000000E+00  0.00000000000E+00  0.38125403510E+01  0.38125403510E+01  0.00000000000E+00 0. -1.
         13   -1    0    0    0    0 -0.00000000000E+00 -0.00000000000E+00 -0.10000000000E+04  0.10000000000E+04  0.00000000000E+00 0.  1.
    9000005    2    1    2  501    0  0.60972786710E+01  0.55936214660E+02 -0.70427708745E+03  0.70652866538E+03  0.32407075891E+01 0.  0.
         13    1    3    3    0    0  0.47375200451E+01  0.30471951738E+02 -0.39534885689E+03  0.39654974793E+03  0.00000000000E+00 0.  1.
          1    1    3    3  501    0  0.13597586259E+01  0.25464262921E+02 -0.30892823055E+03  0.30997891745E+03  0.00000000000E+00 0.  1.
         -3    1    1    2    0  502 -0.60972786710E+01 -0.55936214660E+02 -0.29191037220E+03  0.29728387497E+03  0.00000000000E+00 0. -1.
<mgrwt>
<rscale>  1 0.30000000E+03</rscale>
<asrwt>0</asrwt>
<pdfrwt beam="1">  1       21 0.13863812E-01 0.30000000E+03</pdfrwt>
<pdfrwt beam="2">0</pdfrwt>
<totfact> 0.47613927E+03</totfact>
</mgrwt>
</event>
<event>
 6    1  0.8397183E-002  0.3000000E+03  0.7818608E-02  0.1093470E+00
         21   -1    0    0  501  502  0.00000000000E+00  0.00000000000E+00  0.16635398742E+01  0.16635398742E+01  0.00000000000E+00 0. -1.
         13   -1    0    0    0    0 -0.00000000000E+00 -0.00000000000E+00 -0.10000000000E+04  0.10000000000E+04  0.00000000000E+00 0.  1.
    9000005    2    1    2  501    0 -0.18681996899E+02 -0.31403176948E+02 -0.27979881558E+03  0.28219740227E+03  0.35805191080E+01 0.  0.
         13    1    3    3    0    0 -0.13646165284E+02 -0.22970170050E+02 -0.19175620713E+03  0.19360859875E+03  0.00000000000E+00 0.  1.
          1    1    3    3  501    0 -0.50358316154E+01 -0.84330068987E+01 -0.88042608456E+02  0.88588803520E+02  0.00000000000E+00 0.  1.
         -3    1    1    2    0  502  0.18681996899E+02  0.31403176948E+02 -0.71853764454E+03  0.71946613760E+03  0.00000000000E+00 0. -1.
<mgrwt>
<rscale>  1 0.30000000E+03</rscale>
<asrwt>0</asrwt>
<pdfrwt beam="1">  1       21 0.60492487E-02 0.30000000E+03</pdfrwt>
<pdfrwt beam="2">0</pdfrwt>
<totfact> 0.20776628E+04</totfact>
</mgrwt>
</event>
<event>
 6    1  0.8397183E-002  0.3000000E+03  0.7818608E-02  0.1093470E+00
         21   -1    0    0  501  502  0.00000000000E+00  0.00000000000E+00  0.27369917951E+01  0.27369917951E+01  0.00000000000E+00 0. -1.
         13   -1    0    0    0    0 -0.00000000000E+00 -0.00000000000E+00 -0.10000000000E+04  0.10000000000E+04  0.00000000000E+00 0.  1.
    9000005    2    1    2  501    0 -0.24279587770E+02  0.27549692713E+02 -0.14282929892E+03  0.14751453681E+03  0.34418002570E+01 0.  0.
         13    1    3    3    0    0 -0.10969321410E+02  0.11687310017E+02 -0.55867207181E+02  0.58121115490E+02  0.00000000000E+00 0.  1.
          1    1    3    3  501    0 -0.13310266360E+02  0.15862382696E+02 -0.86962091739E+02  0.89393421319E+02  0.00000000000E+00 0.  1.
         -1    1    1    2    0  502  0.24279587770E+02 -0.27549692713E+02 -0.85443370928E+03  0.85522245499E+03  0.00000000000E+00 0. -1.
<mgrwt>
<rscale>  1 0.30000000E+03</rscale>
<asrwt>0</asrwt>
<pdfrwt beam="1">  1       21 0.99527184E-02 0.30000000E+03</pdfrwt>
<pdfrwt beam="2">0</pdfrwt>
<totfact> 0.86763527E+03</totfact>
</mgrwt>
</event>
<event>
 6    1  0.8397183E-002  0.3000000E+03  0.7818608E-02  0.1093470E+00
         21   -1    0    0  501  502  0.00000000000E+00  0.00000000000E+00  0.17652753752E+01  0.17652753752E+01  0.00000000000E+00 0. -1.
         13   -1    0    0    0    0 -0.00000000000E+00 -0.00000000000E+00 -0.10000000000E+04  0.10000000000E+04  0.00000000000E+00 0.  1.
    9000005    2    1    2  501    0 -0.20529448044E+02 -0.36432055462E+02 -0.46075625863E+03  0.46266245188E+03  0.33854988165E+01 0.  0.
         13    1    3    3    0    0 -0.15640399950E+02 -0.27409224411E+02 -0.36291050236E+03  0.36428000277E+03  0.00000000000E+00 0.  1.
          3    1    3    3  501    0 -0.48890480936E+01 -0.90228310510E+01 -0.97845756275E+02  0.98382449107E+02  0.00000000000E+00 0.  1.
         -1    1    1    2    0  502  0.20529448044E+02  0.36432055462E+02 -0.53747846599E+03  0.53910282350E+03  0.00000000000E+00 0. -1.
<mgrwt>
<rscale>  1 0.30000000E+03</rscale>
<asrwt>0</asrwt>
<pdfrwt beam="1">  1       21 0.64191967E-02 0.30000000E+03</pdfrwt>
<pdfrwt beam="2">0</pdfrwt>
<totfact> 0.18751665E+04</totfact>
</mgrwt>
</event>
<event>
 6    1  0.8397183E-002  0.3000000E+03  0.7818608E-02  0.1093470E+00
         21   -1    0    0  501  502  0.00000000000E+00  0.00000000000E+00  0.17403316325E+01  0.17403316325E+01  0.00000000000E+00 0. -1.
         13   -1    0    0    0    0 -0.00000000000E+00 -0.00000000000E+00 -0.10000000000E+04  0.10000000000E+04  0.00000000000E+00 0.  1.
    9000005    2    1    2  501    0  0.80925942054E+01  0.37514940985E+02 -0.30557828399E+03  0.30799660291E+03  0.33104199208E+01 0.  0.
         13    1    3    3    0    0  0.70358795555E+01  0.35798898049E+02 -0.28714386602E+03  0.28945235272E+03  0.00000000000E+00 0.  1.
          3    1    3    3  501    0  0.10567146499E+01  0.17160429365E+01 -0.18434417968E+02  0.18544250188E+02  0.00000000000E+00 0.  1.
         -1    1    1    2    0  502 -0.80925942054E+01 -0.37514940985E+02 -0.69268138438E+03  0.69374372872E+03  0.00000000000E+00 0. -1.
<mgrwt>
<rscale>  1 0.30000000E+03</rscale>
<asrwt>0</asrwt>
<pdfrwt beam="1">  1       21 0.63284920E-02 0.30000000E+03</pdfrwt>
<pdfrwt beam="2">0</pdfrwt>
<totfact> 0.19218914E+04</totfact>
</mgrwt>
</event>
<event>
 6    1  0.8397183E-002  0.3000000E+03  0.7818608E-02  0.1093470E+00
         21   -1    0    0  501  502  0.00000000000E+00  0.00000000000E+00  0.99935875978E+00  0.99935875978E+00  0.00000000000E+00 0. -1.
         13   -1    0    0    0    0 -0.00000000000E+00 -0.00000000000E+00 -0.10000000000E+04  0.10000000000E+04  0.00000000000E+00 0.  1.
    9000005    2    1    2  501    0  0.26510035170E+02 -0.16651887280E+02 -0.55733329142E+03  0.55822389059E+03  0.36670133560E+01 0.  0.
         13    1    3    3    0    0  0.15734547707E+01 -0.21452629068E+01 -0.51209174804E+02  0.51278236095E+02  0.00000000000E+00 0.  1.
          1    1    3    3  501    0  0.24936580400E+02 -0.14506624373E+02 -0.50612411662E+03  0.50694565450E+03  0.00000000000E+00 0.  1.
         -3    1    1    2    0  502 -0.26510035170E+02  0.16651887280E+02 -0.44166734982E+03  0.44277546817E+03  0.00000000000E+00 0. -1.
<mgrwt>
<rscale>  1 0.30000000E+03</rscale>
<asrwt>0</asrwt>
<pdfrwt beam="1">  1       21 0.36340395E-02 0.30000000E+03</pdfrwt>
<pdfrwt beam="2">0</pdfrwt>
<totfact> 0.49404322E+04</totfact>
</mgrwt>
</event>
<event>
 6    1  0.8397183E-002  0.3000000E+03  0.7818608E-02  0.1093470E+00
         21   -1    0    0  501  502  0.00000000000E+00  0.00000000000E+00  0.10889457570E+01  0.10889457570E+01  0.00000000000E+00 0. -1.
         13   -1    0    0    0    0 -0.00000000000E+00 -0.00000000000E+00 -0.10000000000E+04  0.10000000000E+04  0.00000000000E+00 0.  1.
    9000005    2    1    2  501    0 -0.24821920745E+02 -0.18780041806E+02 -0.34082515808E+03  0.34226737321E+03  0.40433484420E+01 0.  0.
         13    1    3    3    0    0 -0.15264130014E+02 -0.10750652434E+02 -0.22422151490E+03  0.22499746206E+03  0.00000000000E+00 0.  1.
          1    1    3    3  501    0 -0.95577907312E+01 -0.80293893719E+01 -0.11660364318E+03  0.11726991115E+03  0.00000000000E+00 0.  1.
         -3    1    1    2    0  502  0.24821920745E+02  0.18780041806E+02 -0.65808589616E+03  0.65882157254E+03  0.00000000000E+00 0. -1.
<mgrwt>
<rscale>  1 0.30000000E+03</rscale>
<asrwt>0</asrwt>
<pdfrwt beam="1">  1       21 0.39598111E-02 0.30000000E+03</pdfrwt>
<pdfrwt beam="2">0</pdfrwt>
<totfact> 0.42768287E+04</totfact>
</mgrwt>
</event>
<event>
 6    1  0.8397183E-002  0.3000000E+03  0.7818608E-02  0.1093470E+00
         21   -1    0    0  501  502  0.00000000000E+00  0.00000000000E+00  0.10970291522E+01  0.10970291522E+01  0.00000000000E+00 0. -1.
         13   -1    0    0    0    0 -0.00000000000E+00 -0.00000000000E+00 -0.10000000000E+04  0.10000000000E+04  0.00000000000E+00 0.  1.
    9000005    2    1    2  501    0 -0.29663505952E+02 -0.55526172856E+01 -0.70203497790E+03  0.70269903924E+03  0.46983418499E+01 0.  0.
         13    1    3    3    0    0 -0.16813446978E+01 -0.11611569216E+01 -0.69788152079E+02  0.69818059096E+02  0.00000000000E+00 0.  1.
          1    1    3    3  501    0 -0.27982161254E+02 -0.43914603641E+01 -0.63224682582E+03  0.63288098015E+03  0.00000000000E+00 0.  1.
         -3    1    1    2    0  502  0.29663505952E+02  0.55526172856E+01 -0.29686799295E+03  0.29839798991E+03  0.00000000000E+00 0. -1.
<mgrwt>
<rscale>  1 0.30000000E+03</rscale>
<asrwt>0</asrwt>
<pdfrwt beam="1">  1       21 0.39892053E-02 0.30000000E+03</pdfrwt>
<pdfrwt beam="2">0</pdfrwt>
<totfact> 0.42239095E+04</totfact>
</mgrwt>
</event>
<event>
 6    1  0.8397183E-002  0.3000000E+03  0.7818608E-02  0.1093470E+00
         21   -1    0    0  501  502  0.00000000000E+00  0.00000000000E+00  0.11964756828E+01  0.11964756828E+01  0.00000000000E+00 0. -1.
         13   -1    0    0    0    0 -0.00000000000E+00 -0.00000000000E+00 -0.10000000000E+04  0.10000000000E+04  0.00000000000E+00 0.  1.
    9000005    2    1    2  501    0  0.19008933829E+02 -0.27230030536E+02 -0.36442526109E+03  0.36594959849E+03  0.32440077220E+01 0.  0.
         13    1    3    3    0    0  0.94928639070E+01 -0.11613374186E+02 -0.17687245384E+03  0.17750732338E+03  0.00000000000E+00 0.  1.
          1    1    3    3  501    0  0.95160699223E+01 -0.15616656349E+02 -0.18755280725E+03  0.18844227511E+03  0.00000000000E+00 0.  1.
         -3    1    1    2    0  502 -0.19008933829E+02  0.27230030536E+02 -0.63437826323E+03  0.63524687720E+03  0.00000000000E+00 0. -1.
<mgrwt>
<rscale>  1 0.30000000E+03</rscale>
<asrwt>0</asrwt>
<pdfrwt beam="1">  1       21 0.43508298E-02 0.30000000E+03</pdfrwt>
<pdfrwt beam="2">0</pdfrwt>
<totfact> 0.36484093E+04</totfact>
</mgrwt>
</event>
<event>
 6    1  0.8397183E-002  0.3000000E+03  0.7818608E-02  0.1093470E+00
         21   -1    0    0  501  502  0.00000000000E+00  0.00000000000E+00  0.13285987496E+01  0.13285987496E+01  0.00000000000E+00 0. -1.
         13   -1    0    0    0    0 -0.00000000000E+00 -0.00000000000E+00 -0.10000000000E+04  0.10000000000E+04  0.00000000000E+00 0.  1.
    9000005    2    1    2  501    0 -0.22170952823E+02 -0.28215955071E+02 -0.58199649847E+03  0.58311135152E+03  0.33515333242E+01 0.  0.
         13    1    3    3    0    0 -0.14643411725E+02 -0.18863502264E+02 -0.41196151828E+03  0.41265306708E+03  0.00000000000E+00 0.  1.
          1    1    3    3  501    0 -0.75275410976E+01 -0.93524528064E+01 -0.17003498018E+03  0.17045828444E+03  0.00000000000E+00 0.  1.
         -1    1    1    2    0  502  0.22170952823E+02  0.28215955071E+02 -0.41667490278E+03  0.41821724723E+03  0.00000000000E+00 0. -1.
<mgrwt>
<rscale>  1 0.30000000E+03</rscale>
<asrwt>0</asrwt>
<pdfrwt beam="1">  1       21 0.48312784E-02 0.30000000E+03</pdfrwt>
<pdfrwt beam="2">0</pdfrwt>
<totfact> 0.30539099E+04</totfact>
</mgrwt>
</event>
<event>
 6    1  0.8397183E-002  0.3000000E+03  0.7818608E-02  0.1093470E+00
         21   -1    0    0  501  502  0.00000000000E+00  0.00000000000E+00  0.14665680800E+01  0.14665680800E+01  0.00000000000E+00 0. -1.
         13   -1    0    0    0    0 -0.00000000000E+00 -0.00000000000E+00 -0.10000000000E+04  0.10000000000E+04  0.00000000000E+00 0.  1.
    9000005    2    1    2  501    0  0.11354477545E+02  0.35930894520E+02 -0.41572024900E+03  0.41743646653E+03  0.31503669256E+01 0.  0.
         13    1    3    3    0    0  0.93507010841E+01  0.24932599353E+02 -0.28936987522E+03  0.29059248925E+03  0.00000000000E+00 0.  1.
          3    1    3    3  501    0  0.20037764605E+01  0.10998295167E+02 -0.12635037378E+03  0.12684397728E+03  0.00000000000E+00 0.  1.
         -1    1    1    2    0  502 -0.11354477545E+02 -0.35930894520E+02 -0.58281318292E+03  0.58403010155E+03  0.00000000000E+00 0. -1.
<mgrwt>
<rscale>  1 0.30000000E+03</rscale>
<asrwt>0</asrwt>
<pdfrwt beam="1">  1       21 0.53329861E-02 0.30000000E+03</pdfrwt>
<pdfrwt beam="2">0</pdfrwt>
<totfact> 0.25801553E+04</totfact>
</mgrwt>
</event>
<event>
 6    1  0.8397183E-002  0.3000000E+03  0.7818608E-02  0.1093470E+00
         21   -1    0    0  501  502  0.00000000000E+00  0.00000000000E+00  0.26436813529E+01  0.26436813529E+01  0.00000000000E+00 0. -1.
         13   -1    0    0    0    0 -0.00000000000E+00 -0.00000000000E+00 -0.10000000000E+04  0.10000000000E+04  0.00000000000E+00 0.  1.
    9000005    2    1    2  501    0  0.27001817117E+02 -0.40915451755E+02 -0.34956014895E+03  0.35299527661E+03  0.31930001606E+01 0.  0.
         13    1    3    3    0    0  0.26388179293E+02 -0.39869379341E+02 -0.34382439962E+03  0.34713271409E+03  0.00000000000E+00 0.  1.
          1    1    3    3  501    0  0.61363782380E+00 -0.10460724144E+01 -0.57357493343E+01  0.58625625200E+01  0.00000000000E+00 0.  1.
         -1    1    1    2    0  502 -0.27001817117E+02  0.40915451755E+02 -0.64779616969E+03  0.64964840475E+03  0.00000000000E+00 0. -1.
<mgrwt>
<rscale>  1 0.30000000E+03</rscale>
<asrwt>0</asrwt>
<pdfrwt beam="1">  1       21 0.96134070E-02 0.30000000E+03</pdfrwt>
<pdfrwt beam="2">0</pdfrwt>
<totfact> 0.92304158E+03</totfact>
</mgrwt>
</event>
<event>
 6    1  0.8397183E-002  0.3000000E+03  0.7818608E-02  0.1093470E+00
         21   -1    0    0  501  502  0.00000000000E+00  0.00000000000E+00  0.13642157847E+01  0.13642157847E+01  0.00000000000E+00 0. -1.
         13   -1    0    0    0    0 -0.00000000000E+00 -0.00000000000E+00 -0.10000000000E+04  0.10000000000E+04  0.00000000000E+00 0.  1.
    9000005    2    1    2  501    0  0.11082215349E+01 -0.36835697831E+02 -0.49848098495E+03  0.49985357780E+03  0.34942935110E+01 0.  0.
         13    1    3    3    0    0 -0.49978333586E+00 -0.12890916544E+01 -0.24365788745E+02  0.24404983135E+02  0.00000000000E+00 0.  1.
          1    1    3    3  501    0  0.16080048707E+01 -0.35546606176E+02 -0.47411519621E+03  0.47544859466E+03  0.00000000000E+00 0.  1.
         -1    1    1    2    0  502 -0.11082215349E+01  0.36835697831E+02 -0.50015479926E+03  0.50151063799E+03  0.00000000000E+00 0. -1.
<mgrwt>
<rscale>  1 0.30000000E+03</rscale>
<asrwt>0</asrwt>
<pdfrwt beam="1">  1       21 0.49607951E-02 0.30000000E+03</pdfrwt>
<pdfrwt beam="2">0</pdfrwt>
<totfact> 0.29193726E+04</totfact>
</mgrwt>
</event>
<event>
 6    1  0.8397183E-002  0.3000000E+03  0.7818608E-02  0.1093470E+00
         21   -1    0    0  501  502  0.00000000000E+00  0.00000000000E+00  0.11931411049E+01  0.11931411049E+01  0.00000000000E+00 0. -1.
         13   -1    0    0    0    0 -0.00000000000E+00 -0.00000000000E+00 -0.10000000000E+04  0.10000000000E+04  0.00000000000E+00 0.  1.
    9000005    2    1    2  501    0  0.24748917244E+02  0.22884542055E+02 -0.39607667092E+03  0.39752113524E+03  0.31800227578E+01 0.  0.
         13    1    3    3    0    0  0.48238063624E+01  0.52766187708E+01 -0.71158806399E+02  0.71517043714E+02  0.00000000000E+00 0.  1.
          1    1    3    3  501    0  0.19925110882E+02  0.17607923285E+02 -0.32491786452E+03  0.32600409153E+03  0.00000000000E+00 0.  1.
         -1    1    1    2    0  502 -0.24748917244E+02 -0.22884542055E+02 -0.60273018797E+03  0.60367200586E+03  0.00000000000E+00 0. -1.
<mgrwt>
<rscale>  1 0.30000000E+03</rscale>
<asrwt>0</asrwt>
<pdfrwt beam="1">  1       21 0.43387041E-02 0.30000000E+03</pdfrwt>
<pdfrwt beam="2">0</pdfrwt>
<totfact> 0.36656828E+04</totfact>
</mgrwt>
</event>
<event>
 6    1  0.8397183E-002  0.3000000E+03  0.7818608E-02  0.1093470E+00
         21   -1    0    0  501  502  0.00000000000E+00  0.00000000000E+00  0.19740259170E+01  0.19740259170E+01  0.00000000000E+00 0. -1.
         13   -1    0    0    0    0 -0.00000000000E+00 -0.00000000000E+00 -0.10000000000E+04  0.10000000000E+04  0.00000000000E+00 0.  1.
    9000005    2    1    2  501    0  0.16386396392E+02 -0.40592368789E+02 -0.56610365556E+03  0.56783908879E+03  0.71852303964E+01 0.  0.
         13    1    3    3    0    0 -0.11105683414E+00  0.21998910956E+00 -0.73241616251E+01  0.73283062395E+01  0.00000000000E+00 0.  1.
          3    1    3    3  501    0  0.16497453226E+02 -0.40812357899E+02 -0.55877949393E+03  0.56051078255E+03  0.00000000000E+00 0.  1.
         -3    1    1    2    0  502 -0.16386396392E+02  0.40592368789E+02 -0.43192231853E+03  0.43413493712E+03  0.00000000000E+00 0. -1.
<mgrwt>
<rscale>  1 0.30000000E+03</rscale>
<asrwt>0</asrwt>
<pdfrwt beam="1">  1       21 0.71782912E-02 0.30000000E+03</pdfrwt>
<pdfrwt beam="2">0</pdfrwt>
<totfact> 0.15443544E+04</totfact>
</mgrwt>
</event>
<event>
 6    1  0.8397183E-002  0.3000000E+03  0.7818608E-02  0.1093470E+00
         21   -1    0    0  501  502  0.00000000000E+00  0.00000000000E+00  0.91285948622E+00  0.91285948622E+00  0.00000000000E+00 0. -1.
         13   -1    0    0    0    0 -0.00000000000E+00 -0.00000000000E+00 -0.10000000000E+04  0.10000000000E+04  0.00000000000E+00 0.  1.
    9000005    2    1    2  501    0  0.20747450833E+02 -0.21816288954E+02 -0.49557742476E+03  0.49650385774E+03  0.35622525863E+01 0.  0.
         13    1    3    3    0    0  0.76407409579E+01 -0.10039729037E+02 -0.22475499755E+03  0.22510883147E+03  0.00000000000E+00 0.  1.
          3    1    3    3  501    0  0.13106709875E+02 -0.11776559917E+02 -0.27082242721E+03  0.27139502627E+03  0.00000000000E+00 0.  1.
         -3    1    1    2    0  502 -0.20747450833E+02  0.21816288954E+02 -0.50350971575E+03  0.50440900174E+03  0.00000000000E+00 0. -1.
<mgrwt>
<rscale>  1 0.30000000E+03</rscale>
<asrwt>0</asrwt>
<pdfrwt beam="1">  1       21 0.33194960E-02 0.30000000E+03</pdfrwt>
<pdfrwt beam="2">0</pdfrwt>
<totfact> 0.57485809E+04</totfact>
</mgrwt>
</event>
<event>
 6    1  0.8397183E-002  0.3000000E+03  0.7818608E-02  0.1093470E+00
         21   -1    0    0  501  502  0.00000000000E+00  0.00000000000E+00  0.30718391215E+01  0.30718391215E+01  0.00000000000E+00 0. -1.
         13   -1    0    0    0    0 -0.00000000000E+00 -0.00000000000E+00 -0.10000000000E+04  0.10000000000E+04  0.00000000000E+00 0.  1.
    9000005    2    1    2  501    0 -0.26083390688E+02  0.38083232508E+02 -0.22242692463E+03  0.22719630734E+03  0.37080183596E+01 0.  0.
         13    1    3    3    0    0 -0.18013823042E+02  0.23289380683E+02 -0.13882419008E+03  0.14191211655E+03  0.00000000000E+00 0.  1.
          3    1    3    3  501    0 -0.80695676459E+01  0.14793851825E+02 -0.83602734550E+02  0.85284190786E+02  0.00000000000E+00 0.  1.
         -1    1    1    2    0  502  0.26083390688E+02 -0.38083232508E+02 -0.77450123625E+03  0.77587553178E+03  0.00000000000E+00 0. -1.
<mgrwt>
<rscale>  1 0.30000000E+03</rscale>
<asrwt>0</asrwt>
<pdfrwt beam="1">  1       21 0.11170348E-01 0.30000000E+03</pdfrwt>
<pdfrwt beam="2">0</pdfrwt>
<totfact> 0.70541338E+03</totfact>
</mgrwt>
</event>
<event>
 6    1  0.8397183E-002  0.3000000E+03  0.7818608E-02  0.1093470E+00
         21   -1    0    0  501  502  0.00000000000E+00  0.00000000000E+00  0.11644176934E+01  0.11644176934E+01  0.00000000000E+00 0. -1.
         13   -1    0    0    0    0 -0.00000000000E+00 -0.00000000000E+00 -0.10000000000E+04  0.10000000000E+04  0.00000000000E+00 0.  1.
    9000005    2    1    2  501    0 -0.22843109326E+02  0.21909804954E+02 -0.68437021693E+03  0.68511012929E+03  0.33835245178E+01 0.  0.
         13    1    3    3    0    0 -0.95989317813E+01  0.69426227161E+01 -0.25583718517E+03  0.25611131334E+03  0.00000000000E+00 0.  1.
          1    1    3    3  501    0 -0.13244177545E+02  0.14967182238E+02 -0.42853303176E+03  0.42899881596E+03  0.00000000000E+00 0.  1.
         -1    1    1    2    0  502  0.22843109326E+02 -0.21909804954E+02 -0.31446536537E+03  0.31605428840E+03  0.00000000000E+00 0. -1.
<mgrwt>
<rscale>  1 0.30000000E+03</rscale>
<asrwt>0</asrwt>
<pdfrwt beam="1">  1       21 0.42342551E-02 0.30000000E+03</pdfrwt>
<pdfrwt beam="2">0</pdfrwt>
<totfact> 0.38198756E+04</totfact>
</mgrwt>
</event>
<event>
 6    1  0.8397183E-002  0.3000000E+03  0.7818608E-02  0.1093470E+00
         21   -1    0    0  501  502  0.00000000000E+00  0.00000000000E+00  0.12030395946E+01  0.12030395946E+01  0.00000000000E+00 0. -1.
         13   -1    0    0    0    0 -0.00000000000E+00 -0.00000000000E+00 -0.10000000000E+04  0.10000000000E+04  0.00000000000E+00 0.  1.
    9000005    2    1    2  501    0  0.11354762683E+02  0.31512940902E+02 -0.37445027141E+03  0.37595846014E+03  0.31244056565E+01 0.  0.
         13    1    3    3    0    0  0.67680903074E+01  0.15571674546E+02 -0.17687793464E+03  0.17769098980E+03  0.00000000000E+00 0.  1.
          3    1    3    3  501    0  0.45866723751E+01  0.15941266356E+02 -0.19757233677E+03  0.19826747034E+03  0.00000000000E+00 0.  1.
         -3    1    1    2    0  502 -0.11354762683E+02 -0.31512940902E+02 -0.62434668900E+03  0.62524457946E+03  0.00000000000E+00 0. -1.
<mgrwt>
<rscale>  1 0.30000000E+03</rscale>
<asrwt>0</asrwt>
<pdfrwt beam="1">  1       21 0.43746987E-02 0.30000000E+03</pdfrwt>
<pdfrwt beam="2">0</pdfrwt>
<totfact> 0.36147736E+04</totfact>
</mgrwt>
</event>
<event>
 6    1  0.8397183E-002  0.3000000E+03  0.7818608E-02  0.1093470E+00
         21   -1    0    0  501  502  0.00000000000E+00  0.00000000000E+00  0.76775842855E+01  0.76775842855E+01  0.00000000000E+00 0. -1.
         13   -1    0    0    0    0 -0.00000000000E+00 -0.00000000000E+00 -0.10000000000E+04  0.10000000000E+04  0.00000000000E+00 0.  1.
    9000005    2    1    2  501    0  0.41572083779E+02 -0.76060633280E+02 -0.42377997482E+03  0.43256545158E+03  0.31535311963E+01 0.  0.
         13    1    3    3    0    0 -0.22586885214E-01 -0.18806862952E+00 -0.56463523991E+00  0.59556102202E+00  0.00000000000E+00 0.  1.
          1    1    3    3  501    0  0.41594670664E+02 -0.75872564650E+02 -0.42321533958E+03  0.43196989056E+03  0.00000000000E+00 0.  1.
         -3    1    1    2    0  502 -0.41572083779E+02  0.76060633280E+02 -0.56854244090E+03  0.57511213271E+03  0.00000000000E+00 0. -1.
<mgrwt>
<rscale>  1 0.30000000E+03</rscale>
<asrwt>0</asrwt>
<pdfrwt beam="1">  1       21 0.27918547E-01 0.30000000E+03</pdfrwt>
<pdfrwt beam="2">0</pdfrwt>
<totfact> 0.12546244E+03</totfact>
</mgrwt>
</event>
<event>
 6    1  0.8397183E-002  0.3000000E+03  0.7818608E-02  0.1093470E+00
         21   -1    0    0  501  502  0.00000000000E+00  0.00000000000E+00  0.28954513451E+01  0.28954513451E+01  0.00000000000E+00 0. -1.
         13   -1    0    0    0    0 -0.00000000000E+00 -0.00000000000E+00 -0.10000000000E+04  0.10000000000E+04  0.00000000000E+00 0.  1.
    9000005    2    1    2  501    0  0.45038127495E+01 -0.53245646447E+02 -0.55443621279E+03  0.55701358496E+03  0.30391743622E+01 0.  0.
         13    1    3    3    0    0  0.21825094255E+01 -0.12737442561E+02 -0.14126311567E+03  0.14185300011E+03  0.00000000000E+00 0.  1.
          1    1    3    3  501    0  0.23213033240E+01 -0.40508203886E+02 -0.41317309711E+03  0.41516058484E+03  0.00000000000E+00 0.  1.
         -1    1    1    2    0  502 -0.45038127495E+01  0.53245646447E+02 -0.44266833587E+03  0.44588186639E+03  0.00000000000E+00 0. -1.
<mgrwt>
<rscale>  1 0.30000000E+03</rscale>
<asrwt>0</asrwt>
<pdfrwt beam="1">  1       21 0.10528936E-01 0.30000000E+03</pdfrwt>
<pdfrwt beam="2">0</pdfrwt>
<totfact> 0.78450680E+03</totfact>
</mgrwt>
</event>
<event>
 6    1  0.8397183E-002  0.3000000E+03  0.7818608E-02  0.1093470E+00
         21   -1    0    0  501  502  0.00000000000E+00  0.00000000000E+00  0.30063547317E+01  0.30063547317E+01  0.00000000000E+00 0. -1.
         13   -1    0    0    0    0 -0.00000000000E+00 -0.00000000000E+00 -0.10000000000E+04  0.10000000000E+04  0.00000000000E+00 0.  1.
    9000005    2    1    2  501    0  0.47112578552E+02  0.24641858963E+02 -0.37869484790E+03  0.38242580469E+03  0.35905418838E+01 0.  0.
         13    1    3    3    0    0  0.42335404035E+02  0.23251042312E+02 -0.34573988283E+03  0.34909735603E+03  0.00000000000E+00 0.  1.
          3    1    3    3  501    0  0.47771745163E+01  0.13908166505E+01 -0.32954965071E+02  0.33328448661E+02  0.00000000000E+00 0.  1.
         -1    1    1    2    0  502 -0.47112578552E+02 -0.24641858963E+02 -0.61829879737E+03  0.62058055005E+03  0.00000000000E+00 0. -1.
<mgrwt>
<rscale>  1 0.30000000E+03</rscale>
<asrwt>0</asrwt>
<pdfrwt beam="1">  1       21 0.10932222E-01 0.30000000E+03</pdfrwt>
<pdfrwt beam="2">0</pdfrwt>
<totfact> 0.73330930E+03</totfact>
</mgrwt>
</event>
<event>
 6    1  0.8397183E-002  0.3000000E+03  0.7818608E-02  0.1093470E+00
         21   -1    0    0  501  502  0.00000000000E+00  0.00000000000E+00  0.60247854323E+01  0.60247854323E+01  0.00000000000E+00 0. -1.
         13   -1    0    0    0    0 -0.00000000000E+00 -0.00000000000E+00 -0.10000000000E+04  0.10000000000E+04  0.00000000000E+00 0.  1.
    9000005    2    1    2  501    0 -0.69736327402E+00  0.50034644547E+02 -0.11329599368E+03  0.12392510735E+03  0.41830702896E+01 0.  0.
         13    1    3    3    0    0  0.12853863629E+01  0.29818465456E+02 -0.70229723985E+02  0.76308631433E+02  0.00000000000E+00 0.  1.
          3    1    3    3  501    0 -0.19827496369E+01  0.20216179092E+02 -0.43066269692E+02  0.47616475913E+02  0.00000000000E+00 0.  1.
         -3    1    1    2    0  502  0.69736327402E+00 -0.50034644547E+02 -0.88067922089E+03  0.88209967809E+03  0.00000000000E+00 0. -1.
<mgrwt>
<rscale>  1 0.30000000E+03</rscale>
<asrwt>0</asrwt>
<pdfrwt beam="1">  1       21 0.21908357E-01 0.30000000E+03</pdfrwt>
<pdfrwt beam="2">0</pdfrwt>
<totfact> 0.20147174E+03</totfact>
</mgrwt>
</event>
<event>
 6    1  0.8397183E-002  0.3000000E+03  0.7818608E-02  0.1093470E+00
         21   -1    0    0  501  502  0.00000000000E+00  0.00000000000E+00  0.28902355244E+01  0.28902355244E+01  0.00000000000E+00 0. -1.
         13   -1    0    0    0    0 -0.00000000000E+00 -0.00000000000E+00 -0.10000000000E+04  0.10000000000E+04  0.00000000000E+00 0.  1.
    9000005    2    1    2  501    0  0.24778987563E+02  0.27099086055E+02 -0.13299639517E+03  0.13799702032E+03  0.26034208359E+01 0.  0.
         13    1    3    3    0    0  0.90399681078E+01  0.11776913849E+02 -0.53851890656E+02  0.55860924182E+02  0.00000000000E+00 0.  1.
          3    1    3    3  501    0  0.15739019455E+02  0.15322172205E+02 -0.79144504512E+02  0.82136096139E+02  0.00000000000E+00 0.  1.
         -3    1    1    2    0  502 -0.24778987563E+02 -0.27099086055E+02 -0.86411336931E+03  0.86489321520E+03  0.00000000000E+00 0. -1.
<mgrwt>
<rscale>  1 0.30000000E+03</rscale>
<asrwt>0</asrwt>
<pdfrwt beam="1">  1       21 0.10509970E-01 0.30000000E+03</pdfrwt>
<pdfrwt beam="2">0</pdfrwt>
<totfact> 0.78704677E+03</totfact>
</mgrwt>
</event>
<event>
 6    1  0.8397183E-002  0.3000000E+03  0.7818608E-02  0.1093470E+00
         21   -1    0    0  501  502  0.00000000000E+00  0.00000000000E+00  0.25618846535E+01  0.25618846535E+01  0.00000000000E+00 0. -1.
         13   -1    0    0    0    0 -0.00000000000E+00 -0.00000000000E+00 -0.10000000000E+04  0.10000000000E+04  0.00000000000E+00 0.  1.
    9000005    2    1    2  501    0  0.72891676386E+01 -0.47785221485E+02 -0.35178136701E+03  0.35509822079E+03  0.28384629917E+01 0.  0.
         13    1    3    3    0    0  0.42767285475E+01 -0.35366457863E+02 -0.25455003158E+03  0.25703072837E+03  0.00000000000E+00 0.  1.
          1    1    3    3  501    0  0.30124390912E+01 -0.12418763622E+02 -0.97231335429E+02  0.98067492415E+02  0.00000000000E+00 0.  1.
         -1    1    1    2    0  502 -0.72891676386E+01  0.47785221485E+02 -0.64565674833E+03  0.64746366387E+03  0.00000000000E+00 0. -1.
<mgrwt>
<rscale>  1 0.30000000E+03</rscale>
<asrwt>0</asrwt>
<pdfrwt beam="1">  1       21 0.93159638E-02 0.30000000E+03</pdfrwt>
<pdfrwt beam="2">0</pdfrwt>
<totfact> 0.97616873E+03</totfact>
</mgrwt>
</event>
<event>
 6    1  0.8397183E-002  0.3000000E+03  0.7818608E-02  0.1093470E+00
         21   -1    0    0  501  502  0.00000000000E+00  0.00000000000E+00  0.15744931960E+01  0.15744931960E+01  0.00000000000E+00 0. -1.
         13   -1    0    0    0    0 -0.00000000000E+00 -0.00000000000E+00 -0.10000000000E+04  0.10000000000E+04  0.00000000000E+00 0.  1.
    9000005    2    1    2  501    0  0.29525969251E+02  0.25087062182E+02 -0.39905901294E+03  0.40095702965E+03  0.41593591099E+01 0.  0.
         13    1    3    3    0    0  0.14408585927E+02  0.95907291078E+01 -0.18176519503E+03  0.18258744633E+03  0.00000000000E+00 0.  1.
          1    1    3    3  501    0  0.15117383324E+02  0.15496333074E+02 -0.21729381791E+03  0.21836958332E+03  0.00000000000E+00 0.  1.
         -1    1    1    2    0  502 -0.29525969251E+02 -0.25087062182E+02 -0.59936649387E+03  0.60061746355E+03  0.00000000000E+00 0. -1.
<mgrwt>
<rscale>  1 0.30000000E+03</rscale>
<asrwt>0</asrwt>
<pdfrwt beam="1">  1       21 0.57254419E-02 0.30000000E+03</pdfrwt>
<pdfrwt beam="2">0</pdfrwt>
<totfact> 0.22842626E+04</totfact>
</mgrwt>
</event>
<event>
 6    1  0.8397183E-002  0.3000000E+03  0.7818608E-02  0.1093470E+00
         21   -1    0    0  501  502  0.00000000000E+00  0.00000000000E+00  0.20002575203E+01  0.20002575203E+01  0.00000000000E+00 0. -1.
         13   -1    0    0    0    0 -0.00000000000E+00 -0.00000000000E+00 -0.10000000000E+04  0.10000000000E+04  0.00000000000E+00 0.  1.
    9000005    2    1    2  501    0  0.27676017386E+01 -0.30404700336E+02 -0.13446951443E+03  0.13793049172E+03  0.32657023813E+01 0.  0.
         13    1    3    3    0    0  0.92047622399E+00 -0.28328767911E+01 -0.10225049072E+02  0.10650074925E+02  0.00000000000E+00 0.  1.
          1    1    3    3  501    0  0.18471255146E+01 -0.27571823545E+02 -0.12424446536E+03  0.12728041679E+03  0.00000000000E+00 0.  1.
         -1    1    1    2    0  502 -0.27676017386E+01  0.30404700336E+02 -0.86353022805E+03  0.86406976580E+03  0.00000000000E+00 0. -1.
<mgrwt>
<rscale>  1 0.30000000E+03</rscale>
<asrwt>0</asrwt>
<pdfrwt beam="1">  1       21 0.72736790E-02 0.30000000E+03</pdfrwt>
<pdfrwt beam="2">0</pdfrwt>
<totfact> 0.15091839E+04</totfact>
</mgrwt>
</event>
<event>
 6    1  0.9533450E-002  0.3000000E+03  0.7818608E-02  0.1093470E+00
         21   -1    0    0  501  502  0.00000000000E+00  0.00000000000E+00  0.10461416602E+01  0.10461416602E+01  0.00000000000E+00 0. -1.
         13   -1    0    0    0    0 -0.00000000000E+00 -0.00000000000E+00 -0.10000000000E+04  0.10000000000E+04  0.00000000000E+00 0.  1.
    9000005    2    1    2  501    0  0.11325631229E+02  0.28819425668E+02 -0.61307382362E+03  0.61392570766E+03  0.92968871009E+01 0.  0.
         13    1    3    3    0    0  0.93441883753E+01  0.18855975373E+02 -0.48182018309E+03  0.48227953564E+03  0.00000000000E+00 0.  1.
          3    1    3    3  501    0  0.19814428535E+01  0.99634502950E+01 -0.13125364053E+03  0.13164617203E+03  0.00000000000E+00 0.  1.
         -3    1    1    2    0  502 -0.11325631229E+02 -0.28819425668E+02 -0.38588003472E+03  0.38712043400E+03  0.00000000000E+00 0. -1.
<mgrwt>
<rscale>  1 0.30000000E+03</rscale>
<asrwt>0</asrwt>
<pdfrwt beam="1">  1       21 0.38041595E-02 0.30000000E+03</pdfrwt>
<pdfrwt beam="2">0</pdfrwt>
<totfact> 0.45751906E+04</totfact>
</mgrwt>
</event>
<event>
 6    1  0.8397183E-002  0.3000000E+03  0.7818608E-02  0.1093470E+00
         21   -1    0    0  501  502  0.00000000000E+00  0.00000000000E+00  0.19980385370E+01  0.19980385370E+01  0.00000000000E+00 0. -1.
         13   -1    0    0    0    0 -0.00000000000E+00 -0.00000000000E+00 -0.10000000000E+04  0.10000000000E+04  0.00000000000E+00 0.  1.
    9000005    2    1    2  501    0 -0.12680322069E+02  0.40963455359E+02 -0.36060753019E+03  0.36316280449E+03  0.32613635507E+01 0.  0.
         13    1    3    3    0    0 -0.27731760414E+01  0.13983220168E+02 -0.12283041801E+03  0.12365489290E+03  0.00000000000E+00 0.  1.
          1    1    3    3  501    0 -0.99071460276E+01  0.26980235191E+02 -0.23777711218E+03  0.23950791159E+03  0.00000000000E+00 0.  1.
         -1    1    1    2    0  502  0.12680322069E+02 -0.40963455359E+02 -0.63739443127E+03  0.63883523405E+03  0.00000000000E+00 0. -1.
<mgrwt>
<rscale>  1 0.30000000E+03</rscale>
<asrwt>0</asrwt>
<pdfrwt beam="1">  1       21 0.72656100E-02 0.30000000E+03</pdfrwt>
<pdfrwt beam="2">0</pdfrwt>
<totfact> 0.15121117E+04</totfact>
</mgrwt>
</event>
<event>
 6    1  0.8397183E-002  0.3000000E+03  0.7818608E-02  0.1093470E+00
         21   -1    0    0  501  502  0.00000000000E+00  0.00000000000E+00  0.16947566851E+01  0.16947566851E+01  0.00000000000E+00 0. -1.
         13   -1    0    0    0    0 -0.00000000000E+00 -0.00000000000E+00 -0.10000000000E+04  0.10000000000E+04  0.00000000000E+00 0.  1.
    9000005    2    1    2  501    0 -0.37936125795E+02 -0.12600526327E+02 -0.38377661727E+03  0.38586738222E+03  0.33498953522E+01 0.  0.
         13    1    3    3    0    0 -0.36763001039E+02 -0.12740062896E+02 -0.36993771623E+03  0.37197814631E+03  0.00000000000E+00 0.  1.
          1    1    3    3  501    0 -0.11731247565E+01  0.13953656852E+00 -0.13838901042E+02  0.13889235911E+02  0.00000000000E+00 0.  1.
         -3    1    1    2    0  502  0.37936125795E+02  0.12600526327E+02 -0.61452862605E+03  0.61582737446E+03  0.00000000000E+00 0. -1.
<mgrwt>
<rscale>  1 0.30000000E+03</rscale>
<asrwt>0</asrwt>
<pdfrwt beam="1">  1       21 0.61627646E-02 0.30000000E+03</pdfrwt>
<pdfrwt beam="2">0</pdfrwt>
<totfact> 0.20120554E+04</totfact>
</mgrwt>
</event>
<event>
 6    1  0.8397183E-002  0.3000000E+03  0.7818608E-02  0.1093470E+00
         21   -1    0    0  501  502  0.00000000000E+00  0.00000000000E+00  0.10977043927E+01  0.10977043927E+01  0.00000000000E+00 0. -1.
         13   -1    0    0    0    0 -0.00000000000E+00 -0.00000000000E+00 -0.10000000000E+04  0.10000000000E+04  0.00000000000E+00 0.  1.
    9000005    2    1    2  501    0 -0.31428973483E+00  0.33007393812E+02 -0.53670665399E+03  0.53772485457E+03  0.20976079586E+01 0.  0.
         13    1    3    3    0    0  0.27185954062E+00  0.13740955321E+02 -0.23903273344E+03  0.23942751600E+03  0.00000000000E+00 0.  1.
          1    1    3    3  501    0 -0.58614927545E+00  0.19266438491E+02 -0.29767392055E+03  0.29829733857E+03  0.00000000000E+00 0.  1.
         -1    1    1    2    0  502  0.31428973483E+00 -0.33007393812E+02 -0.46219564161E+03  0.46337284982E+03  0.00000000000E+00 0. -1.
<mgrwt>
<rscale>  1 0.30000000E+03</rscale>
<asrwt>0</asrwt>
<pdfrwt beam="1">  1       21 0.39916608E-02 0.30000000E+03</pdfrwt>
<pdfrwt beam="2">0</pdfrwt>
<totfact> 0.42195353E+04</totfact>
</mgrwt>
</event>
<event>
 6    1  0.8397183E-002  0.3000000E+03  0.7818608E-02  0.1093470E+00
         21   -1    0    0  501  502  0.00000000000E+00  0.00000000000E+00  0.18162176618E+01  0.18162176618E+01  0.00000000000E+00 0. -1.
         13   -1    0    0    0    0 -0.00000000000E+00 -0.00000000000E+00 -0.10000000000E+04  0.10000000000E+04  0.00000000000E+00 0.  1.
    9000005    2    1    2  501    0  0.32757888682E+02 -0.26189077710E+02 -0.58402650631E+03  0.58554083243E+03  0.34870200397E+01 0.  0.
         13    1    3    3    0    0  0.89621608000E+01 -0.53616918017E+01 -0.15249691939E+03  0.15285410851E+03  0.00000000000E+00 0.  1.
          3    1    3    3  501    0  0.23795727882E+02 -0.20827385909E+02 -0.43152958692E+03  0.43268672392E+03  0.00000000000E+00 0.  1.
         -1    1    1    2    0  502 -0.32757888682E+02  0.26189077710E+02 -0.41415727603E+03  0.41627538523E+03  0.00000000000E+00 0. -1.
<mgrwt>
<rscale>  1 0.30000000E+03</rscale>
<asrwt>0</asrwt>
<pdfrwt beam="1">  1       21 0.66044418E-02 0.30000000E+03</pdfrwt>
<pdfrwt beam="2">0</pdfrwt>
<totfact> 0.17850293E+04</totfact>
</mgrwt>
</event>
<event>
 6    1  0.8397183E-002  0.3000000E+03  0.7818608E-02  0.1093470E+00
         21   -1    0    0  501  502  0.00000000000E+00  0.00000000000E+00  0.19040663141E+01  0.19040663141E+01  0.00000000000E+00 0. -1.
         13   -1    0    0    0    0 -0.00000000000E+00 -0.00000000000E+00 -0.10000000000E+04  0.10000000000E+04  0.00000000000E+00 0.  1.
    9000005    2    1    2  501    0 -0.39571627406E+02  0.84456571904E+01 -0.31410552698E+03  0.31671787316E+03  0.32689875653E+01 0.  0.
         13    1    3    3    0    0 -0.10590823743E+02  0.11804394426E+01 -0.75176330304E+02  0.75927858016E+02  0.00000000000E+00 0.  1.
          3    1    3    3  501    0 -0.28980803663E+02  0.72652177478E+01 -0.23892919668E+03  0.24079001515E+03  0.00000000000E+00 0.  1.
         -3    1    1    2    0  502  0.39571627406E+02 -0.84456571904E+01 -0.68399040671E+03  0.68518619315E+03  0.00000000000E+00 0. -1.
<mgrwt>
<rscale>  1 0.30000000E+03</rscale>
<asrwt>0</asrwt>
<pdfrwt beam="1">  1       21 0.69238921E-02 0.30000000E+03</pdfrwt>
<pdfrwt beam="2">0</pdfrwt>
<totfact> 0.16445071E+04</totfact>
</mgrwt>
</event>
<event>
 6    1  0.8397183E-002  0.3000000E+03  0.7818608E-02  0.1093470E+00
         21   -1    0    0  501  502  0.00000000000E+00  0.00000000000E+00  0.12392922364E+01  0.12392922364E+01  0.00000000000E+00 0. -1.
         13   -1    0    0    0    0 -0.00000000000E+00 -0.00000000000E+00 -0.10000000000E+04  0.10000000000E+04  0.00000000000E+00 0.  1.
    9000005    2    1    2  501    0 -0.30061831885E+02 -0.12416309088E+02 -0.31152753908E+03  0.31323688919E+03  0.31721715729E+01 0.  0.
         13    1    3    3    0    0 -0.58089450545E+01 -0.16326351599E+01 -0.68000714759E+02  0.68267902765E+02  0.00000000000E+00 0.  1.
          1    1    3    3  501    0 -0.24252886831E+02 -0.10783673928E+02 -0.24352682433E+03  0.24496898642E+03  0.00000000000E+00 0.  1.
         -3    1    1    2    0  502  0.30061831885E+02  0.12416309088E+02 -0.68723316868E+03  0.68800240305E+03  0.00000000000E+00 0. -1.
<mgrwt>
<rscale>  1 0.30000000E+03</rscale>
<asrwt>0</asrwt>
<pdfrwt beam="1">  1       21 0.45065267E-02 0.30000000E+03</pdfrwt>
<pdfrwt beam="2">0</pdfrwt>
<totfact> 0.34373542E+04</totfact>
</mgrwt>
</event>
<event>
 6    1  0.8397183E-002  0.3000000E+03  0.7818608E-02  0.1093470E+00
         21   -1    0    0  501  502  0.00000000000E+00  0.00000000000E+00  0.51283317645E+01  0.51283317645E+01  0.00000000000E+00 0. -1.
         13   -1    0    0    0    0 -0.00000000000E+00 -0.00000000000E+00 -0.10000000000E+04  0.10000000000E+04  0.00000000000E+00 0.  1.
    9000005    2    1    2  501    0 -0.16265986545E+01 -0.71522866667E+02 -0.48242641488E+03  0.48771331075E+03  0.32956690319E+01 0.  0.
         13    1    3    3    0    0 -0.14713048041E+01 -0.15255503850E+02 -0.10847467496E+03  0.10955204354E+03  0.00000000000E+00 0.  1.
          3    1    3    3  501    0 -0.15529385038E+00 -0.56267362817E+02 -0.37395173992E+03  0.37816126721E+03  0.00000000000E+00 0.  1.
         -3    1    1    2    0  502  0.16265986545E+01  0.71522866667E+02 -0.51244525336E+03  0.51741502101E+03  0.00000000000E+00 0. -1.
<mgrwt>
<rscale>  1 0.30000000E+03</rscale>
<asrwt>0</asrwt>
<pdfrwt beam="1">  1       21 0.18648518E-01 0.30000000E+03</pdfrwt>
<pdfrwt beam="2">0</pdfrwt>
<totfact> 0.27402649E+03</totfact>
</mgrwt>
</event>
<event>
 6    1  0.8397183E-002  0.3000000E+03  0.7818608E-02  0.1093470E+00
         21   -1    0    0  501  502  0.00000000000E+00  0.00000000000E+00  0.22241690236E+01  0.22241690236E+01  0.00000000000E+00 0. -1.
         13   -1    0    0    0    0 -0.00000000000E+00 -0.00000000000E+00 -0.10000000000E+04  0.10000000000E+04  0.00000000000E+00 0.  1.
    9000005    2    1    2  501    0  0.10918330861E+02  0.36993836570E+02 -0.21224397833E+03  0.21574591414E+03  0.33225344200E+01 0.  0.
         13    1    3    3    0    0  0.74691861278E+01  0.26191233235E+02 -0.14121253358E+03  0.14381498211E+03  0.00000000000E+00 0.  1.
          1    1    3    3  501    0  0.34491447336E+01  0.10802603334E+02 -0.71031444751E+02  0.71930932023E+02  0.00000000000E+00 0.  1.
         -3    1    1    2    0  502 -0.10918330861E+02 -0.36993836570E+02 -0.78553185264E+03  0.78647825489E+03  0.00000000000E+00 0. -1.
<mgrwt>
<rscale>  1 0.30000000E+03</rscale>
<asrwt>0</asrwt>
<pdfrwt beam="1">  1       21 0.80879044E-02 0.30000000E+03</pdfrwt>
<pdfrwt beam="2">0</pdfrwt>
<totfact> 0.12530939E+04</totfact>
</mgrwt>
</event>
<event>
 6    1  0.8397183E-002  0.3000000E+03  0.7818608E-02  0.1093470E+00
         21   -1    0    0  501  502  0.00000000000E+00  0.00000000000E+00  0.14867214067E+01  0.14867214067E+01  0.00000000000E+00 0. -1.
         13   -1    0    0    0    0 -0.00000000000E+00 -0.00000000000E+00 -0.10000000000E+04  0.10000000000E+04  0.00000000000E+00 0.  1.
    9000005    2    1    2  501    0  0.12392780696E+02  0.36272720658E+02 -0.54863152629E+03  0.54997494710E+03  0.25689544229E+01 0.  0.
         13    1    3    3    0    0  0.40284083879E+01  0.84517002030E+01 -0.13056831160E+03  0.13090356491E+03  0.00000000000E+00 0.  1.
          3    1    3    3  501    0  0.83643723079E+01  0.27821020455E+02 -0.41806321468E+03  0.41907138220E+03  0.00000000000E+00 0.  1.
         -1    1    1    2    0  502 -0.12392780696E+02 -0.36272720658E+02 -0.44988175231E+03  0.45151177431E+03  0.00000000000E+00 0. -1.
<mgrwt>
<rscale>  1 0.30000000E+03</rscale>
<asrwt>0</asrwt>
<pdfrwt beam="1">  1       21 0.54062711E-02 0.30000000E+03</pdfrwt>
<pdfrwt beam="2">0</pdfrwt>
<totfact> 0.25205742E+04</totfact>
</mgrwt>
</event>
<event>
 6    1  0.8397183E-002  0.3000000E+03  0.7818608E-02  0.1093470E+00
         21   -1    0    0  501  502  0.00000000000E+00  0.00000000000E+00  0.91497235171E+00  0.91497235171E+00  0.00000000000E+00 0. -1.
         13   -1    0    0    0    0 -0.00000000000E+00 -0.00000000000E+00 -0.10000000000E+04  0.10000000000E+04  0.00000000000E+00 0.  1.
    9000005    2    1    2  501    0 -0.92411124345E+01 -0.28684447914E+02 -0.49841700619E+03  0.49934078699E+03  0.36761094102E+01 0.  0.
         13    1    3    3    0    0 -0.14443711862E+01 -0.85453036194E+01 -0.16150512918E+03  0.16173748846E+03  0.00000000000E+00 0.  1.
          3    1    3    3  501    0 -0.77967412483E+01 -0.20139144294E+02 -0.33691187701E+03  0.33760329853E+03  0.00000000000E+00 0.  1.
         -3    1    1    2    0  502  0.92411124345E+01  0.28684447914E+02 -0.50066802145E+03  0.50157418536E+03  0.00000000000E+00 0. -1.
<mgrwt>
<rscale>  1 0.30000000E+03</rscale>
<asrwt>0</asrwt>
<pdfrwt beam="1">  1       21 0.33271792E-02 0.30000000E+03</pdfrwt>
<pdfrwt beam="2">0</pdfrwt>
<totfact> 0.57264463E+04</totfact>
</mgrwt>
</event>
<event>
 6    1  0.8397183E-002  0.3000000E+03  0.7818608E-02  0.1093470E+00
         21   -1    0    0  501  502  0.00000000000E+00  0.00000000000E+00  0.20016635307E+01  0.20016635307E+01  0.00000000000E+00 0. -1.
         13   -1    0    0    0    0 -0.00000000000E+00 -0.00000000000E+00 -0.10000000000E+04  0.10000000000E+04  0.00000000000E+00 0.  1.
    9000005    2    1    2  501    0 -0.31008109404E+02  0.29475946514E+02 -0.35623001499E+03  0.35880891425E+03  0.36985259832E+01 0.  0.
         13    1    3    3    0    0 -0.25371362275E+02  0.25610596076E+02 -0.29235274413E+03  0.29456703084E+03  0.00000000000E+00 0.  1.
          3    1    3    3  501    0 -0.56367471293E+01  0.38653504375E+01 -0.63877270856E+02  0.64241883411E+02  0.00000000000E+00 0.  1.
         -3    1    1    2    0  502  0.31008109404E+02 -0.29475946514E+02 -0.64176832148E+03  0.64319274928E+03  0.00000000000E+00 0. -1.
<mgrwt>
<rscale>  1 0.30000000E+03</rscale>
<asrwt>0</asrwt>
<pdfrwt beam="1">  1       21 0.72787918E-02 0.30000000E+03</pdfrwt>
<pdfrwt beam="2">0</pdfrwt>
<totfact> 0.15073332E+04</totfact>
</mgrwt>
</event>
<event>
 6    1  0.8397183E-002  0.3000000E+03  0.7818608E-02  0.1093470E+00
         21   -1    0    0  501  502  0.00000000000E+00  0.00000000000E+00  0.95768870709E+00  0.95768870709E+00  0.00000000000E+00 0. -1.
         13   -1    0    0    0    0 -0.00000000000E+00 -0.00000000000E+00 -0.10000000000E+04  0.10000000000E+04  0.00000000000E+00 0.  1.
    9000005    2    1    2  501    0  0.26658387322E+01 -0.30362054180E+02 -0.57318009122E+03  0.57400617915E+03  0.43261643403E+01 0.  0.
         13    1    3    3    0    0  0.12885527824E+01 -0.21601266145E+01 -0.40043281991E+02  0.40122200188E+02  0.00000000000E+00 0.  1.
          1    1    3    3  501    0  0.13772859498E+01 -0.28201927565E+02 -0.53313680923E+03  0.53388397896E+03  0.00000000000E+00 0.  1.
         -3    1    1    2    0  502 -0.26658387322E+01  0.30362054180E+02 -0.42586222007E+03  0.42695150956E+03  0.00000000000E+00 0. -1.
<mgrwt>
<rscale>  1 0.30000000E+03</rscale>
<asrwt>0</asrwt>
<pdfrwt beam="1">  1       21 0.34825117E-02 0.30000000E+03</pdfrwt>
<pdfrwt beam="2">0</pdfrwt>
<totfact> 0.53059916E+04</totfact>
</mgrwt>
</event>
<event>
 6    1  0.8397183E-002  0.3000000E+03  0.7818608E-02  0.1093470E+00
         21   -1    0    0  501  502  0.00000000000E+00  0.00000000000E+00  0.14334839044E+01  0.14334839044E+01  0.00000000000E+00 0. -1.
         13   -1    0    0    0    0 -0.00000000000E+00 -0.00000000000E+00 -0.10000000000E+04  0.10000000000E+04  0.00000000000E+00 0.  1.
    9000005    2    1    2  501    0 -0.33024172433E+02  0.51955548394E+01 -0.73075327292E+03  0.73154179642E+03  0.59551881306E+01 0.  0.
         13    1    3    3    0    0 -0.72682421934E+01  0.36615411941E+00 -0.21514671376E+03  0.21526976066E+03  0.00000000000E+00 0.  1.
          1    1    3    3  501    0 -0.25755930239E+02  0.48294007199E+01 -0.51560655916E+03  0.51627203575E+03  0.00000000000E+00 0.  1.
         -1    1    1    2    0  502  0.33024172433E+02 -0.51955548394E+01 -0.26781324318E+03  0.26989168749E+03  0.00000000000E+00 0. -1.
<mgrwt>
<rscale>  1 0.30000000E+03</rscale>
<asrwt>0</asrwt>
<pdfrwt beam="1">  1       21 0.52126797E-02 0.30000000E+03</pdfrwt>
<pdfrwt beam="2">0</pdfrwt>
<totfact> 0.26828023E+04</totfact>
</mgrwt>
</event>
<event>
 6    1  0.8397183E-002  0.3000000E+03  0.7818608E-02  0.1093470E+00
         21   -1    0    0  501  502  0.00000000000E+00  0.00000000000E+00  0.21076190483E+01  0.21076190483E+01  0.00000000000E+00 0. -1.
         13   -1    0    0    0    0 -0.00000000000E+00 -0.00000000000E+00 -0.10000000000E+04  0.10000000000E+04  0.00000000000E+00 0.  1.
    9000005    2    1    2  501    0  0.14677091626E+01  0.45481101125E+02 -0.43775180188E+03  0.44012171794E+03  0.31307854105E+01 0.  0.
         13    1    3    3    0    0 -0.21836419089E+00  0.11797606805E+02 -0.10194564780E+03  0.10262624574E+03  0.00000000000E+00 0.  1.
          1    1    3    3  501    0  0.16860733535E+01  0.33683494319E+02 -0.33580615409E+03  0.33749547220E+03  0.00000000000E+00 0.  1.
         -3    1    1    2    0  502 -0.14677091626E+01 -0.45481101125E+02 -0.56014057907E+03  0.56198590111E+03  0.00000000000E+00 0. -1.
<mgrwt>
<rscale>  1 0.30000000E+03</rscale>
<asrwt>0</asrwt>
<pdfrwt beam="1">  1       21 0.76640854E-02 0.30000000E+03</pdfrwt>
<pdfrwt beam="2">0</pdfrwt>
<totfact> 0.13772323E+04</totfact>
</mgrwt>
</event>
<event>
 6    1  0.8397183E-002  0.3000000E+03  0.7818608E-02  0.1093470E+00
         21   -1    0    0  501  502  0.00000000000E+00  0.00000000000E+00  0.36842966177E+01  0.36842966177E+01  0.00000000000E+00 0. -1.
         13   -1    0    0    0    0 -0.00000000000E+00 -0.00000000000E+00 -0.10000000000E+04  0.10000000000E+04  0.00000000000E+00 0.  1.
    9000005    2    1    2  501    0  0.50014299793E+02 -0.32513680174E+02 -0.40701485877E+03  0.41137183259E+03  0.26682965202E+01 0.  0.
         13    1    3    3    0    0  0.22405414811E+02 -0.15671612778E+02 -0.19304456184E+03  0.19497129254E+03  0.00000000000E+00 0.  1.
          3    1    3    3  501    0  0.27608884981E+02 -0.16842067396E+02 -0.21397029693E+03  0.21640054005E+03  0.00000000000E+00 0.  1.
         -1    1    1    2    0  502 -0.50014299793E+02  0.32513680174E+02 -0.58930084461E+03  0.59231246403E+03  0.00000000000E+00 0. -1.
<mgrwt>
<rscale>  1 0.30000000E+03</rscale>
<asrwt>0</asrwt>
<pdfrwt beam="1">  1       21 0.13397470E-01 0.30000000E+03</pdfrwt>
<pdfrwt beam="2">0</pdfrwt>
<totfact> 0.50695721E+03</totfact>
</mgrwt>
</event>
<event>
 6    1  0.8397183E-002  0.3000000E+03  0.7818608E-02  0.1093470E+00
         21   -1    0    0  501  502  0.00000000000E+00  0.00000000000E+00  0.10749782962E+01  0.10749782962E+01  0.00000000000E+00 0. -1.
         13   -1    0    0    0    0 -0.00000000000E+00 -0.00000000000E+00 -0.10000000000E+04  0.10000000000E+04  0.00000000000E+00 0.  1.
    9000005    2    1    2  501    0 -0.26406865252E+02  0.14424015761E+02 -0.31258517905E+03  0.31407588486E+03  0.53658669411E+01 0.  0.
         13    1    3    3    0    0 -0.38422752160E+01  0.38487437715E+01 -0.43319859996E+02  0.43659892093E+02  0.00000000000E+00 0.  1.
          3    1    3    3  501    0 -0.22564590036E+02  0.10575271989E+02 -0.26926531905E+03  0.27041599277E+03  0.00000000000E+00 0.  1.
         -3    1    1    2    0  502  0.26406865252E+02 -0.14424015761E+02 -0.68633984266E+03  0.68699909344E+03  0.00000000000E+00 0. -1.
<mgrwt>
<rscale>  1 0.30000000E+03</rscale>
<asrwt>0</asrwt>
<pdfrwt beam="1">  1       21 0.39090202E-02 0.30000000E+03</pdfrwt>
<pdfrwt beam="2">0</pdfrwt>
<totfact> 0.43707491E+04</totfact>
</mgrwt>
</event>
<event>
 6    1  0.8397183E-002  0.3000000E+03  0.7818608E-02  0.1093470E+00
         21   -1    0    0  501  502  0.00000000000E+00  0.00000000000E+00  0.32119791014E+01  0.32119791014E+01  0.00000000000E+00 0. -1.
         13   -1    0    0    0    0 -0.00000000000E+00 -0.00000000000E+00 -0.10000000000E+04  0.10000000000E+04  0.00000000000E+00 0.  1.
    9000005    2    1    2  501    0 -0.47282861788E+02  0.21944040045E+02 -0.30303435834E+03  0.30750273364E+03  0.33013553070E+01 0.  0.
         13    1    3    3    0    0 -0.46823360468E+02  0.22021098499E+02 -0.29935050879E+03  0.30378953730E+03  0.00000000000E+00 0.  1.
          3    1    3    3  501    0 -0.45950131980E+00 -0.77058454738E-01 -0.36838495581E+01  0.37131963367E+01  0.00000000000E+00 0.  1.
         -1    1    1    2    0  502  0.47282861788E+02 -0.21944040045E+02 -0.69375366256E+03  0.69570924546E+03  0.00000000000E+00 0. -1.
<mgrwt>
<rscale>  1 0.30000000E+03</rscale>
<asrwt>0</asrwt>
<pdfrwt beam="1">  1       21 0.11679949E-01 0.30000000E+03</pdfrwt>
<pdfrwt beam="2">0</pdfrwt>
<totfact> 0.65082640E+03</totfact>
</mgrwt>
</event>
<event>
 6    1  0.8397183E-002  0.3000000E+03  0.7818608E-02  0.1093470E+00
         21   -1    0    0  501  502  0.00000000000E+00  0.00000000000E+00  0.13351930334E+01  0.13351930334E+01  0.00000000000E+00 0. -1.
         13   -1    0    0    0    0 -0.00000000000E+00 -0.00000000000E+00 -0.10000000000E+04  0.10000000000E+04  0.00000000000E+00 0.  1.
    9000005    2    1    2  501    0 -0.11240316965E+02 -0.30831480876E+02 -0.28154468275E+03  0.28346459363E+03  0.28004492039E+01 0.  0.
         13    1    3    3    0    0 -0.79910318586E+01 -0.18096318580E+02 -0.17264744713E+03  0.17377708231E+03  0.00000000000E+00 0.  1.
          3    1    3    3  501    0 -0.32492851062E+01 -0.12735162296E+02 -0.10889723562E+03  0.10968751131E+03  0.00000000000E+00 0.  1.
         -3    1    1    2    0  502  0.11240316965E+02  0.30831480876E+02 -0.71712012421E+03  0.71787059941E+03  0.00000000000E+00 0. -1.
<mgrwt>
<rscale>  1 0.30000000E+03</rscale>
<asrwt>0</asrwt>
<pdfrwt beam="1">  1       21 0.48552576E-02 0.30000000E+03</pdfrwt>
<pdfrwt beam="2">0</pdfrwt>
<totfact> 0.30282800E+04</totfact>
</mgrwt>
</event>
<event>
 6    1  0.8397183E-002  0.3000000E+03  0.7818608E-02  0.1093470E+00
         21   -1    0    0  501  502  0.00000000000E+00  0.00000000000E+00  0.10787788286E+01  0.10787788286E+01  0.00000000000E+00 0. -1.
         13   -1    0    0    0    0 -0.00000000000E+00 -0.00000000000E+00 -0.10000000000E+04  0.10000000000E+04  0.00000000000E+00 0.  1.
    9000005    2    1    2  501    0 -0.31224915844E+02  0.47535647880E+01 -0.36569149055E+03  0.36706183624E+03  0.25560936659E+01 0.  0.
         13    1    3    3    0    0 -0.95006609935E+01  0.26016334721E+01 -0.11018062918E+03  0.11062008002E+03  0.00000000000E+00 0.  1.
          1    1    3    3  501    0 -0.21724254851E+02  0.21519313159E+01 -0.25551086136E+03  0.25644175622E+03  0.00000000000E+00 0.  1.
         -3    1    1    2    0  502  0.31224915844E+02 -0.47535647880E+01 -0.63322973062E+03  0.63401694259E+03  0.00000000000E+00 0. -1.
<mgrwt>
<rscale>  1 0.30000000E+03</rscale>
<asrwt>0</asrwt>
<pdfrwt beam="1">  1       21 0.39228404E-02 0.30000000E+03</pdfrwt>
<pdfrwt beam="2">0</pdfrwt>
<totfact> 0.43448759E+04</totfact>
</mgrwt>
</event>
<event>
 6    1  0.8397183E-002  0.3000000E+03  0.7818608E-02  0.1093470E+00
         21   -1    0    0  501  502  0.00000000000E+00  0.00000000000E+00  0.17355575807E+01  0.17355575807E+01  0.00000000000E+00 0. -1.
         13   -1    0    0    0    0 -0.00000000000E+00 -0.00000000000E+00 -0.10000000000E+04  0.10000000000E+04  0.00000000000E+00 0.  1.
    9000005    2    1    2  501    0  0.27771478511E+02  0.30959542170E+02 -0.50953535703E+03  0.51124002531E+03  0.32148323813E+01 0.  0.
         13    1    3    3    0    0  0.26770440617E+02  0.29679876565E+02 -0.49591681808E+03  0.49752491598E+03  0.00000000000E+00 0.  1.
          3    1    3    3  501    0  0.10010378945E+01  0.12796656050E+01 -0.13618538948E+02  0.13715109332E+02  0.00000000000E+00 0.  1.
         -1    1    1    2    0  502 -0.27771478511E+02 -0.30959542170E+02 -0.48872908539E+03  0.49049553227E+03  0.00000000000E+00 0. -1.
<mgrwt>
<rscale>  1 0.30000000E+03</rscale>
<asrwt>0</asrwt>
<pdfrwt beam="1">  1       21 0.63111318E-02 0.30000000E+03</pdfrwt>
<pdfrwt beam="2">0</pdfrwt>
<totfact> 0.19310396E+04</totfact>
</mgrwt>
</event>
<event>
 6    1  0.8397183E-002  0.3000000E+03  0.7818608E-02  0.1093470E+00
         21   -1    0    0  501  502  0.00000000000E+00  0.00000000000E+00  0.24490739606E+02  0.24490739606E+02  0.00000000000E+00 0. -1.
         13   -1    0    0    0    0 -0.00000000000E+00 -0.00000000000E+00 -0.10000000000E+04  0.10000000000E+04  0.00000000000E+00 0.  1.
    9000005    2    1    2  501    0  0.12266496254E+03 -0.17433209422E+02 -0.17494870093E+03  0.21439949832E+03  0.30801136767E+01 0.  0.
         13    1    3    3    0    0  0.63345329572E+02 -0.94956163247E+01 -0.92966495787E+02  0.11289626587E+03  0.00000000000E+00 0.  1.
          1    1    3    3  501    0  0.59319632970E+02 -0.79375930970E+01 -0.81982205139E+02  0.10150323246E+03  0.00000000000E+00 0.  1.
         -1    1    1    2    0  502 -0.12266496254E+03  0.17433209422E+02 -0.80056055947E+03  0.81009124128E+03  0.00000000000E+00 0. -1.
<mgrwt>
<rscale>  1 0.30000000E+03</rscale>
<asrwt>0</asrwt>
<pdfrwt beam="1">  1       21 0.89057423E-01 0.30000000E+03</pdfrwt>
<pdfrwt beam="2">0</pdfrwt>
<totfact> 0.98787243E+01</totfact>
</mgrwt>
</event>
<event>
 6    1  0.8397183E-002  0.3000000E+03  0.7818608E-02  0.1093470E+00
         21   -1    0    0  501  502  0.00000000000E+00  0.00000000000E+00  0.22680255955E+01  0.22680255955E+01  0.00000000000E+00 0. -1.
         13   -1    0    0    0    0 -0.00000000000E+00 -0.00000000000E+00 -0.10000000000E+04  0.10000000000E+04  0.00000000000E+00 0.  1.
    9000005    2    1    2  501    0  0.45425864421E+02  0.61282338859E+01 -0.36558453203E+03  0.36846091510E+03  0.32142636407E+01 0.  0.
         13    1    3    3    0    0  0.25158893147E+02  0.18237674402E+01 -0.19775662029E+03  0.19935891478E+03  0.00000000000E+00 0.  1.
          1    1    3    3  501    0  0.20266971274E+02  0.43044664457E+01 -0.16782791174E+03  0.16910200033E+03  0.00000000000E+00 0.  1.
         -1    1    1    2    0  502 -0.45425864421E+02 -0.61282338859E+01 -0.63214744237E+03  0.63380711049E+03  0.00000000000E+00 0. -1.
<mgrwt>
<rscale>  1 0.30000000E+03</rscale>
<asrwt>0</asrwt>
<pdfrwt beam="1">  1       21 0.82473832E-02 0.30000000E+03</pdfrwt>
<pdfrwt beam="2">0</pdfrwt>
<totfact> 0.12107937E+04</totfact>
</mgrwt>
</event>
<event>
 6    1  0.8397183E-002  0.3000000E+03  0.7818608E-02  0.1093470E+00
         21   -1    0    0  501  502  0.00000000000E+00  0.00000000000E+00  0.18428101319E+01  0.18428101319E+01  0.00000000000E+00 0. -1.
         13   -1    0    0    0    0 -0.00000000000E+00 -0.00000000000E+00 -0.10000000000E+04  0.10000000000E+04  0.00000000000E+00 0.  1.
    9000005    2    1    2  501    0  0.25509892429E+02 -0.29215420533E+02 -0.71289109704E+03  0.71395213796E+03  0.31054217009E+01 0.  0.
         13    1    3    3    0    0  0.80650750790E+01 -0.10919632637E+02 -0.26741245373E+03  0.26775680052E+03  0.00000000000E+00 0.  1.
          3    1    3    3  501    0  0.17444817350E+02 -0.18295787896E+02 -0.44547864331E+03  0.44619533744E+03  0.00000000000E+00 0.  1.
         -1    1    1    2    0  502 -0.25509892429E+02  0.29215420533E+02 -0.28526609282E+03  0.28789067217E+03  0.00000000000E+00 0. -1.
<mgrwt>
<rscale>  1 0.30000000E+03</rscale>
<asrwt>0</asrwt>
<pdfrwt beam="1">  1       21 0.67011419E-02 0.30000000E+03</pdfrwt>
<pdfrwt beam="2">0</pdfrwt>
<totfact> 0.17406034E+04</totfact>
</mgrwt>
</event>
<event>
 6    1  0.8397183E-002  0.3000000E+03  0.7818608E-02  0.1093470E+00
         21   -1    0    0  501  502  0.00000000000E+00  0.00000000000E+00  0.14239199370E+02  0.14239199370E+02  0.00000000000E+00 0. -1.
         13   -1    0    0    0    0 -0.00000000000E+00 -0.00000000000E+00 -0.10000000000E+04  0.10000000000E+04  0.00000000000E+00 0.  1.
    9000005    2    1    2  501    0  0.28335072667E+02  0.10124826386E+03 -0.25370640817E+03  0.27467329913E+03  0.49388694431E+01 0.  0.
         13    1    3    3    0    0  0.27692000168E+02  0.94606064032E+02 -0.23829145451E+03  0.25787588394E+03  0.00000000000E+00 0.  1.
          3    1    3    3  501    0  0.64307249921E+00  0.66421998268E+01 -0.15414953663E+02  0.16797415194E+02  0.00000000000E+00 0.  1.
         -3    1    1    2    0  502 -0.28335072667E+02 -0.10124826386E+03 -0.73205439246E+03  0.73956590024E+03  0.00000000000E+00 0. -1.
<mgrwt>
<rscale>  1 0.30000000E+03</rscale>
<asrwt>0</asrwt>
<pdfrwt beam="1">  1       21 0.51779016E-01 0.30000000E+03</pdfrwt>
<pdfrwt beam="2">0</pdfrwt>
<totfact> 0.34819806E+02</totfact>
</mgrwt>
</event>
<event>
 6    1  0.8397183E-002  0.3000000E+03  0.7818608E-02  0.1093470E+00
         21   -1    0    0  501  502  0.00000000000E+00  0.00000000000E+00  0.59151576563E+01  0.59151576563E+01  0.00000000000E+00 0. -1.
         13   -1    0    0    0    0 -0.00000000000E+00 -0.00000000000E+00 -0.10000000000E+04  0.10000000000E+04  0.00000000000E+00 0.  1.
    9000005    2    1    2  501    0  0.50008313130E+02 -0.61183052143E+01 -0.87696891146E+03  0.87842238803E+03  0.36269932558E+01 0.  0.
         13    1    3    3    0    0  0.44664384698E+02 -0.64373178896E+01 -0.77385020528E+03  0.77516481250E+03  0.00000000000E+00 0.  1.
          3    1    3    3  501    0  0.53439284326E+01  0.31901267533E+00 -0.10311870618E+03  0.10325757553E+03  0.00000000000E+00 0.  1.
         -3    1    1    2    0  502 -0.50008313130E+02  0.61183052143E+01 -0.11711593088E+03  0.12749276963E+03  0.00000000000E+00 0. -1.
<mgrwt>
<rscale>  1 0.30000000E+03</rscale>
<asrwt>0</asrwt>
<pdfrwt beam="1">  1       21 0.21509710E-01 0.30000000E+03</pdfrwt>
<pdfrwt beam="2">0</pdfrwt>
<totfact> 0.20871278E+03</totfact>
</mgrwt>
</event>
<event>
 6    1  0.8397183E-002  0.3000000E+03  0.7818608E-02  0.1093470E+00
         21   -1    0    0  501  502  0.00000000000E+00  0.00000000000E+00  0.10556375879E+01  0.10556375879E+01  0.00000000000E+00 0. -1.
         13   -1    0    0    0    0 -0.00000000000E+00 -0.00000000000E+00 -0.10000000000E+04  0.10000000000E+04  0.00000000000E+00 0.  1.
    9000005    2    1    2  501    0 -0.31702626672E+02  0.15217091473E+01 -0.39998278795E+03  0.40125372044E+03  0.33083789236E+01 0.  0.
         13    1    3    3    0    0 -0.10007834372E+02  0.19284790149E+01 -0.13463616816E+03  0.13502138185E+03  0.00000000000E+00 0.  1.
          1    1    3    3  501    0 -0.21694792300E+02 -0.40676986763E+00 -0.26534661979E+03  0.26623233859E+03  0.00000000000E+00 0.  1.
         -1    1    1    2    0  502  0.31702626672E+02 -0.15217091473E+01 -0.59896157446E+03  0.59980191715E+03  0.00000000000E+00 0. -1.
<mgrwt>
<rscale>  1 0.30000000E+03</rscale>
<asrwt>0</asrwt>
<pdfrwt beam="1">  1       21 0.38386902E-02 0.30000000E+03</pdfrwt>
<pdfrwt beam="2">0</pdfrwt>
<totfact> 0.45062391E+04</totfact>
</mgrwt>
</event>
<event>
 6    1  0.8397183E-002  0.3000000E+03  0.7818608E-02  0.1093470E+00
         21   -1    0    0  501  502  0.00000000000E+00  0.00000000000E+00  0.11787648098E+01  0.11787648098E+01  0.00000000000E+00 0. -1.
         13   -1    0    0    0    0 -0.00000000000E+00 -0.00000000000E+00 -0.10000000000E+04  0.10000000000E+04  0.00000000000E+00 0.  1.
    9000005    2    1    2  501    0  0.23615859284E+02 -0.22895956653E+02 -0.36630226243E+03  0.36780511163E+03  0.46172544838E+01 0.  0.
         13    1    3    3    0    0  0.14907524950E+02 -0.16963259937E+02 -0.26234780954E+03  0.26331798203E+03  0.00000000000E+00 0.  1.
          3    1    3    3  501    0  0.87083343343E+01 -0.59326967168E+01 -0.10395445289E+03  0.10448712961E+03  0.00000000000E+00 0.  1.
         -3    1    1    2    0  502 -0.23615859284E+02  0.22895956653E+02 -0.63251897276E+03  0.63337365318E+03  0.00000000000E+00 0. -1.
<mgrwt>
<rscale>  1 0.30000000E+03</rscale>
<asrwt>0</asrwt>
<pdfrwt beam="1">  1       21 0.42864265E-02 0.30000000E+03</pdfrwt>
<pdfrwt beam="2">0</pdfrwt>
<totfact> 0.37416252E+04</totfact>
</mgrwt>
</event>
<event>
 6    1  0.8397183E-002  0.3000000E+03  0.7818608E-02  0.1093470E+00
         21   -1    0    0  501  502  0.00000000000E+00  0.00000000000E+00  0.16586329036E+01  0.16586329036E+01  0.00000000000E+00 0. -1.
         13   -1    0    0    0    0 -0.00000000000E+00 -0.00000000000E+00 -0.10000000000E+04  0.10000000000E+04  0.00000000000E+00 0.  1.
    9000005    2    1    2  501    0  0.37156857697E+02  0.59824652384E+01 -0.68913001406E+03  0.69016532189E+03  0.34019533412E+01 0.  0.
         13    1    3    3    0    0  0.16959150564E+01  0.27658411893E+00 -0.20785128112E+02  0.20856034553E+02  0.00000000000E+00 0.  1.
          1    1    3    3  501    0  0.35460942641E+02  0.57058811195E+01 -0.66834488595E+03  0.66930928733E+03  0.00000000000E+00 0.  1.
         -3    1    1    2    0  502 -0.37156857697E+02 -0.59824652384E+01 -0.30921135303E+03  0.31149331102E+03  0.00000000000E+00 0. -1.
<mgrwt>
<rscale>  1 0.30000000E+03</rscale>
<asrwt>0</asrwt>
<pdfrwt beam="1">  1       21 0.60314051E-02 0.30000000E+03</pdfrwt>
<pdfrwt beam="2">0</pdfrwt>
<totfact> 0.20882778E+04</totfact>
</mgrwt>
</event>
<event>
 6    1  0.8397183E-002  0.3000000E+03  0.7818608E-02  0.1093470E+00
         21   -1    0    0  501  502  0.00000000000E+00  0.00000000000E+00  0.54315736642E+01  0.54315736642E+01  0.00000000000E+00 0. -1.
         13   -1    0    0    0    0 -0.00000000000E+00 -0.00000000000E+00 -0.10000000000E+04  0.10000000000E+04  0.00000000000E+00 0.  1.
    9000005    2    1    2  501    0 -0.41067256545E+02  0.60514483076E+02 -0.43776984255E+03  0.44385060432E+03  0.35216030542E+01 0.  0.
         13    1    3    3    0    0 -0.54300149901E+01  0.84093437713E+01 -0.53057655241E+02  0.53993674677E+02  0.00000000000E+00 0.  1.
          3    1    3    3  501    0 -0.35637241555E+02  0.52105139305E+02 -0.38471218731E+03  0.38985692965E+03  0.00000000000E+00 0.  1.
         -1    1    1    2    0  502  0.41067256545E+02 -0.60514483076E+02 -0.55679858378E+03  0.56158096934E+03  0.00000000000E+00 0. -1.
<mgrwt>
<rscale>  1 0.30000000E+03</rscale>
<asrwt>0</asrwt>
<pdfrwt beam="1">  1       21 0.19751219E-01 0.30000000E+03</pdfrwt>
<pdfrwt beam="2">0</pdfrwt>
<totfact> 0.24571875E+03</totfact>
</mgrwt>
</event>
<event>
 6    1  0.8397183E-002  0.3000000E+03  0.7818608E-02  0.1093470E+00
         21   -1    0    0  501  502  0.00000000000E+00  0.00000000000E+00  0.95099231748E+00  0.95099231748E+00  0.00000000000E+00 0. -1.
         13   -1    0    0    0    0 -0.00000000000E+00 -0.00000000000E+00 -0.10000000000E+04  0.10000000000E+04  0.00000000000E+00 0.  1.
    9000005    2    1    2  501    0  0.29148241909E+02 -0.96110348918E+01 -0.54141453397E+03  0.54228847638E+03  0.22587651563E+01 0.  0.
         13    1    3    3    0    0  0.14430221977E+02 -0.51677084791E+01 -0.25161646446E+03  0.25208288657E+03  0.00000000000E+00 0.  1.
          1    1    3    3  501    0  0.14718019932E+02 -0.44433264127E+01 -0.28979806951E+03  0.29020558980E+03  0.00000000000E+00 0.  1.
         -1    1    1    2    0  502 -0.29148241909E+02  0.96110348918E+01 -0.45763447371E+03  0.45866251594E+03  0.00000000000E+00 0. -1.
<mgrwt>
<rscale>  1 0.30000000E+03</rscale>
<asrwt>0</asrwt>
<pdfrwt beam="1">  1       21 0.34581612E-02 0.30000000E+03</pdfrwt>
<pdfrwt beam="2">0</pdfrwt>
<totfact> 0.53686630E+04</totfact>
</mgrwt>
</event>
<event>
 6    1  0.8397183E-002  0.3000000E+03  0.7818608E-02  0.1093470E+00
         21   -1    0    0  501  502  0.00000000000E+00  0.00000000000E+00  0.10440192582E+02  0.10440192582E+02  0.00000000000E+00 0. -1.
         13   -1    0    0    0    0 -0.00000000000E+00 -0.00000000000E+00 -0.10000000000E+04  0.10000000000E+04  0.00000000000E+00 0.  1.
    9000005    2    1    2  501    0 -0.73969647276E+02 -0.54636094593E+02 -0.71468731752E+03  0.72059282369E+03  0.44095556201E+01 0.  0.
         13    1    3    3    0    0 -0.14132696378E+01 -0.15538039902E+01 -0.20842387453E+02  0.20947953423E+02  0.00000000000E+00 0.  1.
          1    1    3    3  501    0 -0.72556377638E+02 -0.53082290603E+02 -0.69384493006E+03  0.69964487027E+03  0.00000000000E+00 0.  1.
         -3    1    1    2    0  502  0.73969647276E+02  0.54636094593E+02 -0.27487248990E+03  0.28984736889E+03  0.00000000000E+00 0. -1.
<mgrwt>
<rscale>  1 0.30000000E+03</rscale>
<asrwt>0</asrwt>
<pdfrwt beam="1">  1       21 0.37964417E-01 0.30000000E+03</pdfrwt>
<pdfrwt beam="2">0</pdfrwt>
<totfact> 0.67326580E+02</totfact>
</mgrwt>
</event>
<event>
 6    1  0.8397183E-002  0.3000000E+03  0.7818608E-02  0.1093470E+00
         21   -1    0    0  501  502  0.00000000000E+00  0.00000000000E+00  0.96709752200E+00  0.96709752200E+00  0.00000000000E+00 0. -1.
         13   -1    0    0    0    0 -0.00000000000E+00 -0.00000000000E+00 -0.10000000000E+04  0.10000000000E+04  0.00000000000E+00 0.  1.
    9000005    2    1    2  501    0 -0.27082941800E+02  0.13928177803E+02 -0.59409972904E+03  0.59489031313E+03  0.35378997026E+01 0.  0.
         13    1    3    3    0    0 -0.74638014119E+01  0.22494889938E+01 -0.16333707227E+03  0.16352298832E+03  0.00000000000E+00 0.  1.
          3    1    3    3  501    0 -0.19619140388E+02  0.11678688809E+02 -0.43076265677E+03  0.43136732481E+03  0.00000000000E+00 0.  1.
         -3    1    1    2    0  502  0.27082941800E+02 -0.13928177803E+02 -0.40493317344E+03  0.40607678439E+03  0.00000000000E+00 0. -1.
<mgrwt>
<rscale>  1 0.30000000E+03</rscale>
<asrwt>0</asrwt>
<pdfrwt beam="1">  1       21 0.35167257E-02 0.30000000E+03</pdfrwt>
<pdfrwt beam="2">0</pdfrwt>
<totfact> 0.52198376E+04</totfact>
</mgrwt>
</event>
<event>
 6    1  0.8397183E-002  0.3000000E+03  0.7818608E-02  0.1093470E+00
         21   -1    0    0  501  502  0.00000000000E+00  0.00000000000E+00  0.59938231036E+01  0.59938231036E+01  0.00000000000E+00 0. -1.
         13   -1    0    0    0    0 -0.00000000000E+00 -0.00000000000E+00 -0.10000000000E+04  0.10000000000E+04  0.00000000000E+00 0.  1.
    9000005    2    1    2  501    0  0.45452203891E+02 -0.59498202466E+02 -0.36927259357E+03  0.37678957243E+03  0.14814154589E+01 0.  0.
         13    1    3    3    0    0  0.14560095330E+02 -0.19611649554E+02 -0.11742037810E+03  0.11993397504E+03  0.00000000000E+00 0.  1.
          1    1    3    3  501    0  0.30892108560E+02 -0.39886552911E+02 -0.25185221547E+03  0.25685559739E+03  0.00000000000E+00 0.  1.
         -3    1    1    2    0  502 -0.45452203891E+02  0.59498202466E+02 -0.62473358333E+03  0.62920425068E+03  0.00000000000E+00 0. -1.
<mgrwt>
<rscale>  1 0.30000000E+03</rscale>
<asrwt>0</asrwt>
<pdfrwt beam="1">  1       21 0.21795766E-01 0.30000000E+03</pdfrwt>
<pdfrwt beam="2">0</pdfrwt>
<totfact> 0.20347898E+03</totfact>
</mgrwt>
</event>
<event>
 6    1  0.8397183E-002  0.3000000E+03  0.7818608E-02  0.1093470E+00
         21   -1    0    0  501  502  0.00000000000E+00  0.00000000000E+00  0.10829708841E+01  0.10829708841E+01  0.00000000000E+00 0. -1.
         13   -1    0    0    0    0 -0.00000000000E+00 -0.00000000000E+00 -0.10000000000E+04  0.10000000000E+04  0.00000000000E+00 0.  1.
    9000005    2    1    2  501    0 -0.30831958755E+02 -0.11105247806E+02 -0.52640342866E+03  0.52743432597E+03  0.35301984461E+01 0.  0.
         13    1    3    3    0    0 -0.61944044906E+01 -0.81848650369E+00 -0.10588305929E+03  0.10606725608E+03  0.00000000000E+00 0.  1.
          3    1    3    3  501    0 -0.24637554264E+02 -0.10286761302E+02 -0.42052036937E+03  0.42136706989E+03  0.00000000000E+00 0.  1.
         -1    1    1    2    0  502  0.30831958755E+02  0.11105247806E+02 -0.47251360046E+03  0.47364864491E+03  0.00000000000E+00 0. -1.
<mgrwt>
<rscale>  1 0.30000000E+03</rscale>
<asrwt>0</asrwt>
<pdfrwt beam="1">  1       21 0.39380842E-02 0.30000000E+03</pdfrwt>
<pdfrwt beam="2">0</pdfrwt>
<totfact> 0.43166145E+04</totfact>
</mgrwt>
</event>
<event>
 6    1  0.8397183E-002  0.3000000E+03  0.7818608E-02  0.1093470E+00
         21   -1    0    0  501  502  0.00000000000E+00  0.00000000000E+00  0.14254752417E+01  0.14254752417E+01  0.00000000000E+00 0. -1.
         13   -1    0    0    0    0 -0.00000000000E+00 -0.00000000000E+00 -0.10000000000E+04  0.10000000000E+04  0.00000000000E+00 0.  1.
    9000005    2    1    2  501    0  0.35414330170E+02  0.12193763210E+02 -0.44304781678E+03  0.44463755698E+03  0.28855645712E+01 0.  0.
         13    1    3    3    0    0  0.32366455571E+01  0.50610695171E+00 -0.32402849520E+02  0.32568031499E+02  0.00000000000E+00 0.  1.
          3    1    3    3  501    0  0.32177684613E+02  0.11687656259E+02 -0.41064496726E+03  0.41206952548E+03  0.00000000000E+00 0.  1.
         -1    1    1    2    0  502 -0.35414330170E+02 -0.12193763210E+02 -0.55552670798E+03  0.55678791826E+03  0.00000000000E+00 0. -1.
<mgrwt>
<rscale>  1 0.30000000E+03</rscale>
<asrwt>0</asrwt>
<pdfrwt beam="1">  1       21 0.51835573E-02 0.30000000E+03</pdfrwt>
<pdfrwt beam="2">0</pdfrwt>
<totfact> 0.27086021E+04</totfact>
</mgrwt>
</event>
<event>
 6    1  0.8397183E-002  0.3000000E+03  0.7818608E-02  0.1093470E+00
         21   -1    0    0  501  502  0.00000000000E+00  0.00000000000E+00  0.15055161565E+01  0.15055161565E+01  0.00000000000E+00 0. -1.
         13   -1    0    0    0    0 -0.00000000000E+00 -0.00000000000E+00 -0.10000000000E+04  0.10000000000E+04  0.00000000000E+00 0.  1.
    9000005    2    1    2  501    0  0.37654021441E+02  0.90573152553E+01 -0.49469749035E+03  0.49622215908E+03  0.33111792865E+01 0.  0.
         13    1    3    3    0    0  0.27299956568E+02  0.53494909043E+01 -0.36584120157E+03  0.36689738272E+03  0.00000000000E+00 0.  1.
          3    1    3    3  501    0  0.10354064874E+02  0.37078243510E+01 -0.12885628878E+03  0.12932477636E+03  0.00000000000E+00 0.  1.
         -1    1    1    2    0  502 -0.37654021441E+02 -0.90573152553E+01 -0.50379699349E+03  0.50528335708E+03  0.00000000000E+00 0. -1.
<mgrwt>
<rscale>  1 0.30000000E+03</rscale>
<asrwt>0</asrwt>
<pdfrwt beam="1">  1       21 0.54746157E-02 0.30000000E+03</pdfrwt>
<pdfrwt beam="2">0</pdfrwt>
<totfact> 0.24669019E+04</totfact>
</mgrwt>
</event>
<event>
 6    1  0.8397183E-002  0.3000000E+03  0.7818608E-02  0.1093470E+00
         21   -1    0    0  501  502  0.00000000000E+00  0.00000000000E+00  0.95331160473E+00  0.95331160473E+00  0.00000000000E+00 0. -1.
         13   -1    0    0    0    0 -0.00000000000E+00 -0.00000000000E+00 -0.10000000000E+04  0.10000000000E+04  0.00000000000E+00 0.  1.
    9000005    2    1    2  501    0 -0.27048101757E+02 -0.14444362009E+02 -0.53052344814E+03  0.53142773609E+03  0.44799841087E+01 0.  0.
         13    1    3    3    0    0 -0.10890047921E+02 -0.53133365040E+01 -0.24746782679E+03  0.24776430329E+03  0.00000000000E+00 0.  1.
          3    1    3    3  501    0 -0.16158053835E+02 -0.91310255054E+01 -0.28305562135E+03  0.28366343281E+03  0.00000000000E+00 0.  1.
         -1    1    1    2    0  502  0.27048101757E+02  0.14444362009E+02 -0.46852324026E+03  0.46952557551E+03  0.00000000000E+00 0. -1.
<mgrwt>
<rscale>  1 0.30000000E+03</rscale>
<asrwt>0</asrwt>
<pdfrwt beam="1">  1       21 0.34665950E-02 0.30000000E+03</pdfrwt>
<pdfrwt beam="2">0</pdfrwt>
<totfact> 0.53468271E+04</totfact>
</mgrwt>
</event>
<event>
 6    1  0.8397183E-002  0.3000000E+03  0.7818608E-02  0.1093470E+00
         21   -1    0    0  501  502  0.00000000000E+00  0.00000000000E+00  0.11313622667E+01  0.11313622667E+01  0.00000000000E+00 0. -1.
         13   -1    0    0    0    0 -0.00000000000E+00 -0.00000000000E+00 -0.10000000000E+04  0.10000000000E+04  0.00000000000E+00 0.  1.
    9000005    2    1    2  501    0 -0.98420408045E+01 -0.31223516967E+02 -0.59575227887E+03  0.59668782781E+03  0.66190861377E+01 0.  0.
         13    1    3    3    0    0 -0.53280807348E+01 -0.22203841539E+02 -0.36334686725E+03  0.36406365509E+03  0.00000000000E+00 0.  1.
          3    1    3    3  501    0 -0.45139600697E+01 -0.90196754283E+01 -0.23240541163E+03  0.23262417272E+03  0.00000000000E+00 0.  1.
         -3    1    1    2    0  502  0.98420408045E+01  0.31223516967E+02 -0.40311635886E+03  0.40444353445E+03  0.00000000000E+00 0. -1.
<mgrwt>
<rscale>  1 0.30000000E+03</rscale>
<asrwt>0</asrwt>
<pdfrwt beam="1">  1       21 0.41140533E-02 0.30000000E+03</pdfrwt>
<pdfrwt beam="2">0</pdfrwt>
<totfact> 0.40101561E+04</totfact>
</mgrwt>
</event>
<event>
 6    1  0.8397183E-002  0.3000000E+03  0.7818608E-02  0.1093470E+00
         21   -1    0    0  501  502  0.00000000000E+00  0.00000000000E+00  0.11560245667E+01  0.11560245667E+01  0.00000000000E+00 0. -1.
         13   -1    0    0    0    0 -0.00000000000E+00 -0.00000000000E+00 -0.10000000000E+04  0.10000000000E+04  0.00000000000E+00 0.  1.
    9000005    2    1    2  501    0 -0.66315679703E+01  0.33285148537E+02 -0.50248663459E+03  0.50363970462E+03  0.28732070330E+01 0.  0.
         13    1    3    3    0    0  0.29367464555E+00  0.16961254675E+01 -0.25062295503E+02  0.25121340376E+02  0.00000000000E+00 0.  1.
          1    1    3    3  501    0 -0.69252426159E+01  0.31589023069E+02 -0.47742433909E+03  0.47851836424E+03  0.00000000000E+00 0.  1.
         -3    1    1    2    0  502  0.66315679703E+01 -0.33285148537E+02 -0.49635734084E+03  0.49751631995E+03  0.00000000000E+00 0. -1.
<mgrwt>
<rscale>  1 0.30000000E+03</rscale>
<asrwt>0</asrwt>
<pdfrwt beam="1">  1       21 0.42037346E-02 0.30000000E+03</pdfrwt>
<pdfrwt beam="2">0</pdfrwt>
<totfact> 0.38668378E+04</totfact>
</mgrwt>
</event>
<event>
 6    1  0.8397183E-002  0.3000000E+03  0.7818608E-02  0.1093470E+00
         21   -1    0    0  501  502  0.00000000000E+00  0.00000000000E+00  0.17221795268E+01  0.17221795268E+01  0.00000000000E+00 0. -1.
         13   -1    0    0    0    0 -0.00000000000E+00 -0.00000000000E+00 -0.10000000000E+04  0.10000000000E+04  0.00000000000E+00 0.  1.
    9000005    2    1    2  501    0 -0.17601077217E+02  0.27804992433E+02 -0.19685267066E+03  0.19962169562E+03  0.38641809679E+01 0.  0.
         13    1    3    3    0    0 -0.14157983186E+02  0.24316536067E+02 -0.17262280070E+03  0.17490103984E+03  0.00000000000E+00 0.  1.
          3    1    3    3  501    0 -0.34430940315E+01  0.34884563652E+01 -0.24229869954E+02  0.24720655783E+02  0.00000000000E+00 0.  1.
         -3    1    1    2    0  502  0.17601077217E+02 -0.27804992433E+02 -0.80142514982E+03  0.80210048391E+03  0.00000000000E+00 0. -1.
<mgrwt>
<rscale>  1 0.30000000E+03</rscale>
<asrwt>0</asrwt>
<pdfrwt beam="1">  1       21 0.62624842E-02 0.30000000E+03</pdfrwt>
<pdfrwt beam="2">0</pdfrwt>
<totfact> 0.19570375E+04</totfact>
</mgrwt>
</event>
<event>
 6    1  0.8397183E-002  0.3000000E+03  0.7818608E-02  0.1093470E+00
         21   -1    0    0  501  502  0.00000000000E+00  0.00000000000E+00  0.10320498717E+01  0.10320498717E+01  0.00000000000E+00 0. -1.
         13   -1    0    0    0    0 -0.00000000000E+00 -0.00000000000E+00 -0.10000000000E+04  0.10000000000E+04  0.00000000000E+00 0.  1.
    9000005    2    1    2  501    0  0.10302103734E+02 -0.29883496300E+02 -0.50376977439E+03  0.50482605440E+03  0.81365173582E+01 0.  0.
         13    1    3    3    0    0  0.10011407411E-01 -0.11867200834E+02 -0.17411895902E+03  0.17452289949E+03  0.00000000000E+00 0.  1.
          1    1    3    3  501    0  0.10292092326E+02 -0.18016295466E+02 -0.32965081537E+03  0.33030315490E+03  0.00000000000E+00 0.  1.
         -1    1    1    2    0  502 -0.10302103734E+02  0.29883496300E+02 -0.49519817574E+03  0.49620599548E+03  0.00000000000E+00 0. -1.
<mgrwt>
<rscale>  1 0.30000000E+03</rscale>
<asrwt>0</asrwt>
<pdfrwt beam="1">  1       21 0.37529165E-02 0.30000000E+03</pdfrwt>
<pdfrwt beam="2">0</pdfrwt>
<totfact> 0.46806126E+04</totfact>
</mgrwt>
</event>
<event>
 6    1  0.8397183E-002  0.3000000E+03  0.7818608E-02  0.1093470E+00
         21   -1    0    0  501  502  0.00000000000E+00  0.00000000000E+00  0.53796917877E+01  0.53796917877E+01  0.00000000000E+00 0. -1.
         13   -1    0    0    0    0 -0.00000000000E+00 -0.00000000000E+00 -0.10000000000E+04  0.10000000000E+04  0.00000000000E+00 0.  1.
    9000005    2    1    2  501    0  0.57670111940E+02  0.38482234445E+02 -0.66073688102E+03  0.66437402155E+03  0.35903195025E+01 0.  0.
         13    1    3    3    0    0  0.52316156894E+02  0.34441555388E+02 -0.60567449361E+03  0.60890458466E+03  0.00000000000E+00 0.  1.
          1    1    3    3  501    0  0.53539550463E+01  0.40406790580E+01 -0.55062387408E+02  0.55469436890E+02  0.00000000000E+00 0.  1.
         -3    1    1    2    0  502 -0.57670111940E+02 -0.38482234445E+02 -0.33388342719E+03  0.34100567024E+03  0.00000000000E+00 0. -1.
<mgrwt>
<rscale>  1 0.30000000E+03</rscale>
<asrwt>0</asrwt>
<pdfrwt beam="1">  1       21 0.19562557E-01 0.30000000E+03</pdfrwt>
<pdfrwt beam="2">0</pdfrwt>
<totfact> 0.25025071E+03</totfact>
</mgrwt>
</event>
<event>
 6    1  0.8397183E-002  0.3000000E+03  0.7818608E-02  0.1093470E+00
         21   -1    0    0  501  502  0.00000000000E+00  0.00000000000E+00  0.12384611343E+01  0.12384611343E+01  0.00000000000E+00 0. -1.
         13   -1    0    0    0    0 -0.00000000000E+00 -0.00000000000E+00 -0.10000000000E+04  0.10000000000E+04  0.00000000000E+00 0.  1.
    9000005    2    1    2  501    0  0.28866309803E+02 -0.19621254244E+02 -0.55102819129E+03  0.55214670215E+03  0.39567202168E+01 0.  0.
         13    1    3    3    0    0  0.76661013793E+01 -0.41910494575E+01 -0.16251323415E+03  0.16274791943E+03  0.00000000000E+00 0.  1.
          3    1    3    3  501    0  0.21200208423E+02 -0.15430204786E+02 -0.38851495714E+03  0.38939878271E+03  0.00000000000E+00 0.  1.
         -1    1    1    2    0  502 -0.28866309803E+02  0.19621254244E+02 -0.44773334758E+03  0.44909175899E+03  0.00000000000E+00 0. -1.
<mgrwt>
<rscale>  1 0.30000000E+03</rscale>
<asrwt>0</asrwt>
<pdfrwt beam="1">  1       21 0.45035045E-02 0.30000000E+03</pdfrwt>
<pdfrwt beam="2">0</pdfrwt>
<totfact> 0.34412698E+04</totfact>
</mgrwt>
</event>
<event>
 6    1  0.8397183E-002  0.3000000E+03  0.7818608E-02  0.1093470E+00
         21   -1    0    0  501  502  0.00000000000E+00  0.00000000000E+00  0.14416957005E+01  0.14416957005E+01  0.00000000000E+00 0. -1.
         13   -1    0    0    0    0 -0.00000000000E+00 -0.00000000000E+00 -0.10000000000E+04  0.10000000000E+04  0.00000000000E+00 0.  1.
    9000005    2    1    2  501    0  0.33769173174E+02 -0.11701347337E+02 -0.33370522025E+03  0.33562873251E+03  0.31927223118E+01 0.  0.
         13    1    3    3    0    0  0.67088565342E+01 -0.28439302257E+01 -0.79806754080E+02  0.80138721551E+02  0.00000000000E+00 0.  1.
          3    1    3    3  501    0  0.27060316640E+02 -0.88574171115E+01 -0.25389846617E+03  0.25549001096E+03  0.00000000000E+00 0.  1.
         -1    1    1    2    0  502 -0.33769173174E+02  0.11701347337E+02 -0.66485308405E+03  0.66581296319E+03  0.00000000000E+00 0. -1.
<mgrwt>
<rscale>  1 0.30000000E+03</rscale>
<asrwt>0</asrwt>
<pdfrwt beam="1">  1       21 0.52425409E-02 0.30000000E+03</pdfrwt>
<pdfrwt beam="2">0</pdfrwt>
<totfact> 0.26567418E+04</totfact>
</mgrwt>
</event>
<event>
 6    1  0.8397183E-002  0.3000000E+03  0.7818608E-02  0.1093470E+00
         21   -1    0    0  501  502  0.00000000000E+00  0.00000000000E+00  0.15565722771E+01  0.15565722771E+01  0.00000000000E+00 0. -1.
         13   -1    0    0    0    0 -0.00000000000E+00 -0.00000000000E+00 -0.10000000000E+04  0.10000000000E+04  0.00000000000E+00 0.  1.
    9000005    2    1    2  501    0 -0.20336375740E+02  0.33268829373E+02 -0.56763844305E+03  0.56899060274E+03  0.40645771309E+01 0.  0.
         13    1    3    3    0    0 -0.30053875411E+01  0.74522331534E+01 -0.10310486846E+03  0.10341751318E+03  0.00000000000E+00 0.  1.
          1    1    3    3  501    0 -0.17330988199E+02  0.25816596220E+02 -0.46453357459E+03  0.46557308956E+03  0.00000000000E+00 0.  1.
         -1    1    1    2    0  502  0.20336375740E+02 -0.33268829373E+02 -0.43080498467E+03  0.43256596954E+03  0.00000000000E+00 0. -1.
<mgrwt>
<rscale>  1 0.30000000E+03</rscale>
<asrwt>0</asrwt>
<pdfrwt beam="1">  1       21 0.56602748E-02 0.30000000E+03</pdfrwt>
<pdfrwt beam="2">0</pdfrwt>
<totfact> 0.23296666E+04</totfact>
</mgrwt>
</event>
<event>
 6    1  0.8397183E-002  0.3000000E+03  0.7818608E-02  0.1093470E+00
         21   -1    0    0  501  502  0.00000000000E+00  0.00000000000E+00  0.31441337292E+01  0.31441337292E+01  0.00000000000E+00 0. -1.
         13   -1    0    0    0    0 -0.00000000000E+00 -0.00000000000E+00 -0.10000000000E+04  0.10000000000E+04  0.00000000000E+00 0.  1.
    9000005    2    1    2  501    0  0.51752617958E+02  0.20621185140E+02 -0.55165671154E+03  0.55447292436E+03  0.33955443228E+01 0.  0.
         13    1    3    3    0    0  0.44421594468E+02  0.18938107998E+02 -0.47856466084E+03  0.48099486962E+03  0.00000000000E+00 0.  1.
          1    1    3    3  501    0  0.73310234897E+01  0.16830771417E+01 -0.73092050695E+02  0.73478054743E+02  0.00000000000E+00 0.  1.
         -1    1    1    2    0  502 -0.51752617958E+02 -0.20621185140E+02 -0.44519915473E+03  0.44867120937E+03  0.00000000000E+00 0. -1.
<mgrwt>
<rscale>  1 0.30000000E+03</rscale>
<asrwt>0</asrwt>
<pdfrwt beam="1">  1       21 0.11433238E-01 0.30000000E+03</pdfrwt>
<pdfrwt beam="2">0</pdfrwt>
<totfact> 0.67643106E+03</totfact>
</mgrwt>
</event>
<event>
 6    1  0.8397183E-002  0.3000000E+03  0.7818608E-02  0.1093470E+00
         21   -1    0    0  501  502  0.00000000000E+00  0.00000000000E+00  0.12610693841E+01  0.12610693841E+01  0.00000000000E+00 0. -1.
         13   -1    0    0    0    0 -0.00000000000E+00 -0.00000000000E+00 -0.10000000000E+04  0.10000000000E+04  0.00000000000E+00 0.  1.
    9000005    2    1    2  501    0 -0.24073311252E+02 -0.23301352681E+02 -0.66370428076E+03  0.66455542055E+03  0.28385444097E+01 0.  0.
         13    1    3    3    0    0 -0.18938265983E+02 -0.17327776414E+02 -0.48799821767E+03  0.48867286625E+03  0.00000000000E+00 0.  1.
          3    1    3    3  501    0 -0.51350452686E+01 -0.59735762666E+01 -0.17570606308E+03  0.17588255430E+03  0.00000000000E+00 0.  1.
         -3    1    1    2    0  502  0.24073311252E+02  0.23301352681E+02 -0.33503464986E+03  0.33670564884E+03  0.00000000000E+00 0. -1.
<mgrwt>
<rscale>  1 0.30000000E+03</rscale>
<asrwt>0</asrwt>
<pdfrwt beam="1">  1       21 0.45857165E-02 0.30000000E+03</pdfrwt>
<pdfrwt beam="2">0</pdfrwt>
<totfact> 0.33371635E+04</totfact>
</mgrwt>
</event>
<event>
 6    1  0.8397183E-002  0.3000000E+03  0.7818608E-02  0.1093470E+00
         21   -1    0    0  501  502  0.00000000000E+00  0.00000000000E+00  0.11267077245E+01  0.11267077245E+01  0.00000000000E+00 0. -1.
         13   -1    0    0    0    0 -0.00000000000E+00 -0.00000000000E+00 -0.10000000000E+04  0.10000000000E+04  0.00000000000E+00 0.  1.
    9000005    2    1    2  501    0 -0.62446535725E+01 -0.32294379569E+02 -0.40885662128E+03  0.41019389031E+03  0.36562589514E+01 0.  0.
         13    1    3    3    0    0 -0.89585822028E+00 -0.80141458336E+01 -0.83373879836E+02  0.83762956814E+02  0.00000000000E+00 0.  1.
          3    1    3    3  501    0 -0.53487953522E+01 -0.24280233736E+02 -0.32548274145E+03  0.32643093349E+03  0.00000000000E+00 0.  1.
         -1    1    1    2    0  502  0.62446535725E+01  0.32294379569E+02 -0.59001667099E+03  0.59093281742E+03  0.00000000000E+00 0. -1.
<mgrwt>
<rscale>  1 0.30000000E+03</rscale>
<asrwt>0</asrwt>
<pdfrwt beam="1">  1       21 0.40971276E-02 0.30000000E+03</pdfrwt>
<pdfrwt beam="2">0</pdfrwt>
<totfact> 0.40381328E+04</totfact>
</mgrwt>
</event>
<event>
 6    1  0.8397183E-002  0.3000000E+03  0.7818608E-02  0.1093470E+00
         21   -1    0    0  501  502  0.00000000000E+00  0.00000000000E+00  0.18664782981E+01  0.18664782981E+01  0.00000000000E+00 0. -1.
         13   -1    0    0    0    0 -0.00000000000E+00 -0.00000000000E+00 -0.10000000000E+04  0.10000000000E+04  0.00000000000E+00 0.  1.
    9000005    2    1    2  501    0  0.38400640726E+02  0.83254378024E+01 -0.29318555671E+03  0.29582430147E+03  0.32131838397E+01 0.  0.
         13    1    3    3    0    0  0.23652121396E+02  0.45082673705E+01 -0.16854953234E+03  0.17026065950E+03  0.00000000000E+00 0.  1.
          3    1    3    3  501    0  0.14748519331E+02  0.38171704319E+01 -0.12463602438E+03  0.12556364197E+03  0.00000000000E+00 0.  1.
         -3    1    1    2    0  502 -0.38400640726E+02 -0.83254378024E+01 -0.70494796499E+03  0.70604217683E+03  0.00000000000E+00 0. -1.
<mgrwt>
<rscale>  1 0.30000000E+03</rscale>
<asrwt>0</asrwt>
<pdfrwt beam="1">  1       21 0.67872081E-02 0.30000000E+03</pdfrwt>
<pdfrwt beam="2">0</pdfrwt>
<totfact> 0.17024767E+04</totfact>
</mgrwt>
</event>
<event>
 6    1  0.8397183E-002  0.3000000E+03  0.7818608E-02  0.1093470E+00
         21   -1    0    0  501  502  0.00000000000E+00  0.00000000000E+00  0.11984900189E+01  0.11984900189E+01  0.00000000000E+00 0. -1.
         13   -1    0    0    0    0 -0.00000000000E+00 -0.00000000000E+00 -0.10000000000E+04  0.10000000000E+04  0.00000000000E+00 0.  1.
    9000005    2    1    2  501    0  0.10767453600E+02  0.31864947709E+02 -0.38722163320E+03  0.38869440135E+03  0.33810464522E+01 0.  0.
         13    1    3    3    0    0  0.86853004827E+01  0.27922293118E+02 -0.32476159963E+03  0.32607542914E+03  0.00000000000E+00 0.  1.
          3    1    3    3  501    0  0.20821531172E+01  0.39426545913E+01 -0.62460033576E+02  0.62618972214E+02  0.00000000000E+00 0.  1.
         -3    1    1    2    0  502 -0.10767453600E+02 -0.31864947709E+02 -0.61157987678E+03  0.61250408867E+03  0.00000000000E+00 0. -1.
<mgrwt>
<rscale>  1 0.30000000E+03</rscale>
<asrwt>0</asrwt>
<pdfrwt beam="1">  1       21 0.43581547E-02 0.30000000E+03</pdfrwt>
<pdfrwt beam="2">0</pdfrwt>
<totfact> 0.36380358E+04</totfact>
</mgrwt>
</event>
<event>
 6    1  0.8397183E-002  0.3000000E+03  0.7818608E-02  0.1093470E+00
         21   -1    0    0  501  502  0.00000000000E+00  0.00000000000E+00  0.10919776825E+01  0.10919776825E+01  0.00000000000E+00 0. -1.
         13   -1    0    0    0    0 -0.00000000000E+00 -0.00000000000E+00 -0.10000000000E+04  0.10000000000E+04  0.00000000000E+00 0.  1.
    9000005    2    1    2  501    0 -0.21132585252E+01  0.32545503185E+02 -0.43599525277E+03  0.43723520353E+03  0.43688817797E+01 0.  0.
         13    1    3    3    0    0  0.15371127820E+00  0.15691114248E+02 -0.23382841181E+03  0.23435434893E+03  0.00000000000E+00 0.  1.
          1    1    3    3  501    0 -0.22669698034E+01  0.16854388937E+02 -0.20216684096E+03  0.20288085460E+03  0.00000000000E+00 0.  1.
         -3    1    1    2    0  502  0.21132585252E+01 -0.32545503185E+02 -0.56291276955E+03  0.56385677415E+03  0.00000000000E+00 0. -1.
<mgrwt>
<rscale>  1 0.30000000E+03</rscale>
<asrwt>0</asrwt>
<pdfrwt beam="1">  1       21 0.39708363E-02 0.30000000E+03</pdfrwt>
<pdfrwt beam="2">0</pdfrwt>
<totfact> 0.42568588E+04</totfact>
</mgrwt>
</event>
<event>
 6    1  0.8397183E-002  0.3000000E+03  0.7818608E-02  0.1093470E+00
         21   -1    0    0  501  502  0.00000000000E+00  0.00000000000E+00  0.82454840250E+01  0.82454840250E+01  0.00000000000E+00 0. -1.
         13   -1    0    0    0    0 -0.00000000000E+00 -0.00000000000E+00 -0.10000000000E+04  0.10000000000E+04  0.00000000000E+00 0.  1.
    9000005    2    1    2  501    0 -0.51724405412E+02  0.27343179264E+02 -0.88136922294E+03  0.88331359664E+03  0.28529447238E+01 0.  0.
         13    1    3    3    0    0 -0.41449793760E+02  0.20863836919E+02 -0.68785973296E+03  0.68942323526E+03  0.00000000000E+00 0.  1.
          1    1    3    3  501    0 -0.10274611652E+02  0.64793423442E+01 -0.19350948998E+03  0.19389036138E+03  0.00000000000E+00 0.  1.
         -1    1    1    2    0  502  0.51724405412E+02 -0.27343179264E+02 -0.11038529303E+03  0.12493188738E+03  0.00000000000E+00 0. -1.
<mgrwt>
<rscale>  1 0.30000000E+03</rscale>
<asrwt>0</asrwt>
<pdfrwt beam="1">  1       21 0.29983642E-01 0.30000000E+03</pdfrwt>
<pdfrwt beam="2">0</pdfrwt>
<totfact> 0.10884664E+03</totfact>
</mgrwt>
</event>
<event>
 6    1  0.8397183E-002  0.3000000E+03  0.7818608E-02  0.1093470E+00
         21   -1    0    0  501  502  0.00000000000E+00  0.00000000000E+00  0.23158421298E+01  0.23158421298E+01  0.00000000000E+00 0. -1.
         13   -1    0    0    0    0 -0.00000000000E+00 -0.00000000000E+00 -0.10000000000E+04  0.10000000000E+04  0.00000000000E+00 0.  1.
    9000005    2    1    2  501    0  0.47548530717E+02 -0.41976086781E+01 -0.55866450524E+03  0.56070884707E+03  0.31462792727E+01 0.  0.
         13    1    3    3    0    0  0.44640394011E+02 -0.46949076858E+01 -0.52395742364E+03  0.52587659077E+03  0.00000000000E+00 0.  1.
          1    1    3    3  501    0  0.29081367064E+01  0.49729900774E+00 -0.34707081598E+02  0.34832256293E+02  0.00000000000E+00 0.  1.
         -1    1    1    2    0  502 -0.47548530717E+02  0.41976086781E+01 -0.43901965263E+03  0.44160699506E+03  0.00000000000E+00 0. -1.
<mgrwt>
<rscale>  1 0.30000000E+03</rscale>
<asrwt>0</asrwt>
<pdfrwt beam="1">  1       21 0.84212619E-02 0.30000000E+03</pdfrwt>
<pdfrwt beam="2">0</pdfrwt>
<totfact> 0.11671168E+04</totfact>
</mgrwt>
</event>
<event>
 6    1  0.8397183E-002  0.3000000E+03  0.7818608E-02  0.1093470E+00
         21   -1    0    0  501  502  0.00000000000E+00  0.00000000000E+00  0.15542745635E+01  0.15542745635E+01  0.00000000000E+00 0. -1.
         13   -1    0    0    0    0 -0.00000000000E+00 -0.00000000000E+00 -0.10000000000E+04  0.10000000000E+04  0.00000000000E+00 0.  1.
    9000005    2    1    2  501    0 -0.37665932035E+02 -0.25363413400E+01 -0.64143983446E+03  0.64255794915E+03  0.32405754490E+01 0.  0.
         13    1    3    3    0    0 -0.54424838303E+01 -0.17237359007E+00 -0.11322632793E+03  0.11335718628E+03  0.00000000000E+00 0.  1.
          3    1    3    3  501    0 -0.32223448205E+02 -0.23639677499E+01 -0.52821350652E+03  0.52920076288E+03  0.00000000000E+00 0.  1.
         -3    1    1    2    0  502  0.37665932035E+02  0.25363413400E+01 -0.35700589098E+03  0.35899632541E+03  0.00000000000E+00 0. -1.
<mgrwt>
<rscale>  1 0.30000000E+03</rscale>
<asrwt>0</asrwt>
<pdfrwt beam="1">  1       21 0.56519194E-02 0.30000000E+03</pdfrwt>
<pdfrwt beam="2">0</pdfrwt>
<totfact> 0.23355879E+04</totfact>
</mgrwt>
</event>
<event>
 6    1  0.8397183E-002  0.3000000E+03  0.7818608E-02  0.1093470E+00
         21   -1    0    0  501  502  0.00000000000E+00  0.00000000000E+00  0.30372556217E+01  0.30372556217E+01  0.00000000000E+00 0. -1.
         13   -1    0    0    0    0 -0.00000000000E+00 -0.00000000000E+00 -0.10000000000E+04  0.10000000000E+04  0.00000000000E+00 0.  1.
    9000005    2    1    2  501    0  0.37641631674E+02  0.37478893160E+02 -0.36766990211E+03  0.37150654283E+03  0.37940191321E+01 0.  0.
         13    1    3    3    0    0  0.27402032503E+02  0.27092060870E+02 -0.27807940855E+03  0.28073654662E+03  0.00000000000E+00 0.  1.
          3    1    3    3  501    0  0.10239599171E+02  0.10386832290E+02 -0.89590493554E+02  0.90769996208E+02  0.00000000000E+00 0.  1.
         -3    1    1    2    0  502 -0.37641631674E+02 -0.37478893160E+02 -0.62929284227E+03  0.63153071279E+03  0.00000000000E+00 0. -1.
<mgrwt>
<rscale>  1 0.30000000E+03</rscale>
<asrwt>0</asrwt>
<pdfrwt beam="1">  1       21 0.11044589E-01 0.30000000E+03</pdfrwt>
<pdfrwt beam="2">0</pdfrwt>
<totfact> 0.71994239E+03</totfact>
</mgrwt>
</event>
<event>
 6    1  0.8397183E-002  0.3000000E+03  0.7818608E-02  0.1093470E+00
         21   -1    0    0  501  502  0.00000000000E+00  0.00000000000E+00  0.16435843573E+01  0.16435843573E+01  0.00000000000E+00 0. -1.
         13   -1    0    0    0    0 -0.00000000000E+00 -0.00000000000E+00 -0.10000000000E+04  0.10000000000E+04  0.00000000000E+00 0.  1.
    9000005    2    1    2  501    0  0.42641956004E+01 -0.38965490705E+02 -0.37605628857E+03  0.37811015223E+03  0.35301860922E+01 0.  0.
         13    1    3    3    0    0  0.11144504923E+01 -0.17818694437E+02 -0.18611799897E+03  0.18697234398E+03  0.00000000000E+00 0.  1.
          3    1    3    3  501    0  0.31497451081E+01 -0.21146796267E+02 -0.18993828960E+03  0.19113780825E+03  0.00000000000E+00 0.  1.
         -3    1    1    2    0  502 -0.42641956004E+01  0.38965490705E+02 -0.62230012707E+03  0.62353343213E+03  0.00000000000E+00 0. -1.
<mgrwt>
<rscale>  1 0.30000000E+03</rscale>
<asrwt>0</asrwt>
<pdfrwt beam="1">  1       21 0.59766830E-02 0.30000000E+03</pdfrwt>
<pdfrwt beam="2">0</pdfrwt>
<totfact> 0.21213633E+04</totfact>
</mgrwt>
</event>
<event>
 6    1  0.8397183E-002  0.3000000E+03  0.7818608E-02  0.1093470E+00
         21   -1    0    0  501  502  0.00000000000E+00  0.00000000000E+00  0.10974529114E+01  0.10974529114E+01  0.00000000000E+00 0. -1.
         13   -1    0    0    0    0 -0.00000000000E+00 -0.00000000000E+00 -0.10000000000E+04  0.10000000000E+04  0.00000000000E+00 0.  1.
    9000005    2    1    2  501    0  0.95306688916E+00  0.32892449158E+02 -0.53499175654E+03  0.53602106872E+03  0.44254936834E+01 0.  0.
         13    1    3    3    0    0 -0.92710535791E-01  0.51879108783E+01 -0.11345628419E+03  0.11357487151E+03  0.00000000000E+00 0.  1.
          1    1    3    3  501    0  0.10457774250E+01  0.27704538280E+02 -0.42153547235E+03  0.42244619721E+03  0.00000000000E+00 0.  1.
         -1    1    1    2    0  502 -0.95306688916E+00 -0.32892449158E+02 -0.46391079055E+03  0.46507638419E+03  0.00000000000E+00 0. -1.
<mgrwt>
<rscale>  1 0.30000000E+03</rscale>
<asrwt>0</asrwt>
<pdfrwt beam="1">  1       21 0.39907463E-02 0.30000000E+03</pdfrwt>
<pdfrwt beam="2">0</pdfrwt>
<totfact> 0.42211636E+04</totfact>
</mgrwt>
</event>
<event>
 6    1  0.8397183E-002  0.3000000E+03  0.7818608E-02  0.1093470E+00
         21   -1    0    0  501  502  0.00000000000E+00  0.00000000000E+00  0.28784714846E+01  0.28784714846E+01  0.00000000000E+00 0. -1.
         13   -1    0    0    0    0 -0.00000000000E+00 -0.00000000000E+00 -0.10000000000E+04  0.10000000000E+04  0.00000000000E+00 0.  1.
    9000005    2    1    2  501    0  0.33924959812E+02 -0.34983128165E+02 -0.70753650054E+03  0.70922185129E+03  0.36072983922E+01 0.  0.
         13    1    3    3    0    0  0.27525488468E+02 -0.29467156404E+02 -0.56756059668E+03  0.56899120971E+03  0.00000000000E+00 0.  1.
          1    1    3    3  501    0  0.63994713432E+01 -0.55159717615E+01 -0.13997590385E+03  0.14023064158E+03  0.00000000000E+00 0.  1.
         -1    1    1    2    0  502 -0.33924959812E+02  0.34983128165E+02 -0.28958502798E+03  0.29365662019E+03  0.00000000000E+00 0. -1.
<mgrwt>
<rscale>  1 0.30000000E+03</rscale>
<asrwt>0</asrwt>
<pdfrwt beam="1">  1       21 0.10467191E-01 0.30000000E+03</pdfrwt>
<pdfrwt beam="2">0</pdfrwt>
<totfact> 0.79282159E+03</totfact>
</mgrwt>
</event>
<event>
 6    1  0.8397183E-002  0.3000000E+03  0.7818608E-02  0.1093470E+00
         21   -1    0    0  501  502  0.00000000000E+00  0.00000000000E+00  0.96372287587E+00  0.96372287587E+00  0.00000000000E+00 0. -1.
         13   -1    0    0    0    0 -0.00000000000E+00 -0.00000000000E+00 -0.10000000000E+04  0.10000000000E+04  0.00000000000E+00 0.  1.
    9000005    2    1    2  501    0 -0.30784690003E+02 -0.32148620491E-01 -0.55179356024E+03  0.55266276818E+03  0.35077117691E+01 0.  0.
         13    1    3    3    0    0 -0.14766095150E+02 -0.95773943500E+00 -0.29118746142E+03  0.29156318786E+03  0.00000000000E+00 0.  1.
          1    1    3    3  501    0 -0.16018594854E+02  0.92559081451E+00 -0.26060609882E+03  0.26109958032E+03  0.00000000000E+00 0.  1.
         -3    1    1    2    0  502  0.30784690003E+02  0.32148620491E-01 -0.44724271689E+03  0.44830095470E+03  0.00000000000E+00 0. -1.
<mgrwt>
<rscale>  1 0.30000000E+03</rscale>
<asrwt>0</asrwt>
<pdfrwt beam="1">  1       21 0.35044542E-02 0.30000000E+03</pdfrwt>
<pdfrwt beam="2">0</pdfrwt>
<totfact> 0.52504867E+04</totfact>
</mgrwt>
</event>
<event>
 6    1  0.1306285E-001  0.3000000E+03  0.7818608E-02  0.1093470E+00
         21   -1    0    0  501  502  0.00000000000E+00  0.00000000000E+00  0.59101163555E+01  0.59101163555E+01  0.00000000000E+00 0. -1.
         13   -1    0    0    0    0 -0.00000000000E+00 -0.00000000000E+00 -0.10000000000E+04  0.10000000000E+04  0.00000000000E+00 0.  1.
    9000005    2    1    2  501    0  0.28993878764E+02  0.70735357170E+02 -0.53586106673E+03  0.54134818893E+03  0.81635203274E+01 0.  0.
         13    1    3    3    0    0  0.85680071093E+00  0.89514478537E+01 -0.62751761048E+02  0.63392791710E+02  0.00000000000E+00 0.  1.
          3    1    3    3  501    0  0.28137078053E+02  0.61783909316E+02 -0.47310930568E+03  0.47795539722E+03  0.00000000000E+00 0.  1.
         -3    1    1    2    0  502 -0.28993878764E+02 -0.70735357170E+02 -0.45822881691E+03  0.46456192742E+03  0.00000000000E+00 0. -1.
<mgrwt>
<rscale>  1 0.30000000E+03</rscale>
<asrwt>0</asrwt>
<pdfrwt beam="1">  1       21 0.21491378E-01 0.30000000E+03</pdfrwt>
<pdfrwt beam="2">0</pdfrwt>
<totfact> 0.20905491E+03</totfact>
</mgrwt>
</event>
<event>
 6    1  0.8397183E-002  0.3000000E+03  0.7818608E-02  0.1093470E+00
         21   -1    0    0  501  502  0.00000000000E+00  0.00000000000E+00  0.91227023879E+00  0.91227023879E+00  0.00000000000E+00 0. -1.
         13   -1    0    0    0    0 -0.00000000000E+00 -0.00000000000E+00 -0.10000000000E+04  0.10000000000E+04  0.00000000000E+00 0.  1.
    9000005    2    1    2  501    0  0.27432388487E+02 -0.12260091116E+02 -0.46710521199E+03  0.46808186102E+03  0.32409531025E+01 0.  0.
         13    1    3    3    0    0  0.50831719585E+01 -0.29173341692E+01 -0.10999724256E+03  0.11015326980E+03  0.00000000000E+00 0.  1.
          3    1    3    3  501    0  0.22349216529E+02 -0.93427569470E+01 -0.35710796943E+03  0.35792859123E+03  0.00000000000E+00 0.  1.
         -3    1    1    2    0  502 -0.27432388487E+02  0.12260091116E+02 -0.53198251777E+03  0.53283040922E+03  0.00000000000E+00 0. -1.
<mgrwt>
<rscale>  1 0.30000000E+03</rscale>
<asrwt>0</asrwt>
<pdfrwt beam="1">  1       21 0.33173533E-02 0.30000000E+03</pdfrwt>
<pdfrwt beam="2">0</pdfrwt>
<totfact> 0.57547778E+04</totfact>
</mgrwt>
</event>
<event>
 6    1  0.8397183E-002  0.3000000E+03  0.7818608E-02  0.1093470E+00
         21   -1    0    0  501  502  0.00000000000E+00  0.00000000000E+00  0.24015592004E+01  0.24015592004E+01  0.00000000000E+00 0. -1.
         13   -1    0    0    0    0 -0.00000000000E+00 -0.00000000000E+00 -0.10000000000E+04  0.10000000000E+04  0.00000000000E+00 0.  1.
    9000005    2    1    2  501    0  0.20148116783E+01 -0.42651016568E+02 -0.74398550597E+03  0.74521934871E+03  0.37783483703E+01 0.  0.
         13    1    3    3    0    0  0.26526443985E+01 -0.23597667122E+02 -0.39379893638E+03  0.39451424399E+03  0.00000000000E+00 0.  1.
          3    1    3    3  501    0 -0.63783272024E+00 -0.19053349446E+02 -0.35018656959E+03  0.35070510472E+03  0.00000000000E+00 0.  1.
         -1    1    1    2    0  502 -0.20148116783E+01  0.42651016568E+02 -0.25361293483E+03  0.25718221049E+03  0.00000000000E+00 0. -1.
<mgrwt>
<rscale>  1 0.30000000E+03</rscale>
<asrwt>0</asrwt>
<pdfrwt beam="1">  1       21 0.87329610E-02 0.30000000E+03</pdfrwt>
<pdfrwt beam="2">0</pdfrwt>
<totfact> 0.10946160E+04</totfact>
</mgrwt>
</event>
<event>
 6    1  0.8397183E-002  0.3000000E+03  0.7818608E-02  0.1093470E+00
         21   -1    0    0  501  502  0.00000000000E+00  0.00000000000E+00  0.16083748130E+01  0.16083748130E+01  0.00000000000E+00 0. -1.
         13   -1    0    0    0    0 -0.00000000000E+00 -0.00000000000E+00 -0.10000000000E+04  0.10000000000E+04  0.00000000000E+00 0.  1.
    9000005    2    1    2  501    0  0.38252643879E+02 -0.37009670836E+01 -0.64155688481E+03  0.64271006908E+03  0.20086122282E+01 0.  0.
         13    1    3    3    0    0  0.17098165358E+01  0.21596518229E+00 -0.26119539160E+02  0.26176333576E+02  0.00000000000E+00 0.  1.
          3    1    3    3  501    0  0.36542827344E+02 -0.39169322659E+01 -0.61543734565E+03  0.61653373550E+03  0.00000000000E+00 0.  1.
         -3    1    1    2    0  502 -0.38252643879E+02  0.37009670836E+01 -0.35683474038E+03  0.35889830574E+03  0.00000000000E+00 0. -1.
<mgrwt>
<rscale>  1 0.30000000E+03</rscale>
<asrwt>0</asrwt>
<pdfrwt beam="1">  1       21 0.58486480E-02 0.30000000E+03</pdfrwt>
<pdfrwt beam="2">0</pdfrwt>
<totfact> 0.22020432E+04</totfact>
</mgrwt>
</event>
<event>
 6    1  0.8397183E-002  0.3000000E+03  0.7818608E-02  0.1093470E+00
         21   -1    0    0  501  502  0.00000000000E+00  0.00000000000E+00  0.13072108900E+01  0.13072108900E+01  0.00000000000E+00 0. -1.
         13   -1    0    0    0    0 -0.00000000000E+00 -0.00000000000E+00 -0.10000000000E+04  0.10000000000E+04  0.00000000000E+00 0.  1.
    9000005    2    1    2  501    0 -0.34354326895E+02  0.29728663910E+01 -0.35373322239E+03  0.35542649403E+03  0.34267073656E+01 0.  0.
         13    1    3    3    0    0 -0.55225873318E+01 -0.77974407551E+00 -0.56416792041E+02  0.56691810660E+02  0.00000000000E+00 0.  1.
          3    1    3    3  501    0 -0.28831739563E+02  0.37526104665E+01 -0.29731643035E+03  0.29873468337E+03  0.00000000000E+00 0.  1.
         -1    1    1    2    0  502  0.34354326895E+02 -0.29728663910E+01 -0.64495956672E+03  0.64588071686E+03  0.00000000000E+00 0. -1.
<mgrwt>
<rscale>  1 0.30000000E+03</rscale>
<asrwt>0</asrwt>
<pdfrwt beam="1">  1       21 0.47535042E-02 0.30000000E+03</pdfrwt>
<pdfrwt beam="2">0</pdfrwt>
<totfact> 0.31394146E+04</totfact>
</mgrwt>
</event>
<event>
 6    1  0.8397183E-002  0.3000000E+03  0.7818608E-02  0.1093470E+00
         21   -1    0    0  501  502  0.00000000000E+00  0.00000000000E+00  0.10691023843E+01  0.10691023843E+01  0.00000000000E+00 0. -1.
         13   -1    0    0    0    0 -0.00000000000E+00 -0.00000000000E+00 -0.10000000000E+04  0.10000000000E+04  0.00000000000E+00 0.  1.
    9000005    2    1    2  501    0 -0.25757705359E+02 -0.20021092197E+02 -0.50226997200E+03  0.50333787115E+03  0.30958419194E+01 0.  0.
         13    1    3    3    0    0 -0.35636279116E+01 -0.42214426067E+01 -0.86924025089E+02  0.87099403897E+02  0.00000000000E+00 0.  1.
          3    1    3    3  501    0 -0.22194077448E+02 -0.15799649590E+02 -0.41534594691E+03  0.41623846725E+03  0.00000000000E+00 0.  1.
         -1    1    1    2    0  502  0.25757705359E+02  0.20021092197E+02 -0.49666092561E+03  0.49773123124E+03  0.00000000000E+00 0. -1.
<mgrwt>
<rscale>  1 0.30000000E+03</rscale>
<asrwt>0</asrwt>
<pdfrwt beam="1">  1       21 0.38876532E-02 0.30000000E+03</pdfrwt>
<pdfrwt beam="2">0</pdfrwt>
<totfact> 0.44112292E+04</totfact>
</mgrwt>
</event>
<event>
 6    1  0.8397183E-002  0.3000000E+03  0.7818608E-02  0.1093470E+00
         21   -1    0    0  501  502  0.00000000000E+00  0.00000000000E+00  0.16585451835E+01  0.16585451835E+01  0.00000000000E+00 0. -1.
         13   -1    0    0    0    0 -0.00000000000E+00 -0.00000000000E+00 -0.10000000000E+04  0.10000000000E+04  0.00000000000E+00 0.  1.
    9000005    2    1    2  501    0  0.12569279382E+02 -0.35603383039E+02 -0.68613937444E+03  0.68718163561E+03  0.24023914869E+01 0.  0.
         13    1    3    3    0    0  0.36083113930E+01 -0.13303187344E+02 -0.25984312817E+03  0.26020846635E+03  0.00000000000E+00 0.  1.
          1    1    3    3  501    0  0.89609679886E+01 -0.22300195694E+02 -0.42629624627E+03  0.42697316925E+03  0.00000000000E+00 0.  1.
         -3    1    1    2    0  502 -0.12569279382E+02  0.35603383039E+02 -0.31220208037E+03  0.31447690958E+03  0.00000000000E+00 0. -1.
<mgrwt>
<rscale>  1 0.30000000E+03</rscale>
<asrwt>0</asrwt>
<pdfrwt beam="1">  1       21 0.60310861E-02 0.30000000E+03</pdfrwt>
<pdfrwt beam="2">0</pdfrwt>
<totfact> 0.20884683E+04</totfact>
</mgrwt>
</event>
<event>
 6    1  0.8397183E-002  0.3000000E+03  0.7818608E-02  0.1093470E+00
         21   -1    0    0  501  502  0.00000000000E+00  0.00000000000E+00  0.12311896890E+01  0.12311896890E+01  0.00000000000E+00 0. -1.
         13   -1    0    0    0    0 -0.00000000000E+00 -0.00000000000E+00 -0.10000000000E+04  0.10000000000E+04  0.00000000000E+00 0.  1.
    9000005    2    1    2  501    0  0.32665329862E+02 -0.24769414800E+01 -0.32457922402E+03  0.32624618447E+03  0.34265432237E+01 0.  0.
         13    1    3    3    0    0  0.19217904158E+02 -0.85020719894E+00 -0.20580055543E+03  0.20669765192E+03  0.00000000000E+00 0.  1.
          3    1    3    3  501    0  0.13447425704E+02 -0.16267342811E+01 -0.11877866859E+03  0.11954853255E+03  0.00000000000E+00 0.  1.
         -3    1    1    2    0  502 -0.32665329862E+02  0.24769414800E+01 -0.67418958629E+03  0.67498500522E+03  0.00000000000E+00 0. -1.
<mgrwt>
<rscale>  1 0.30000000E+03</rscale>
<asrwt>0</asrwt>
<pdfrwt beam="1">  1       21 0.44770629E-02 0.30000000E+03</pdfrwt>
<pdfrwt beam="2">0</pdfrwt>
<totfact> 0.34758230E+04</totfact>
</mgrwt>
</event>
<event>
 6    1  0.8397183E-002  0.3000000E+03  0.7818608E-02  0.1093470E+00
         21   -1    0    0  501  502  0.00000000000E+00  0.00000000000E+00  0.13320930643E+01  0.13320930643E+01  0.00000000000E+00 0. -1.
         13   -1    0    0    0    0 -0.00000000000E+00 -0.00000000000E+00 -0.10000000000E+04  0.10000000000E+04  0.00000000000E+00 0.  1.
    9000005    2    1    2  501    0  0.28085376738E+02  0.14368227930E+02 -0.25025047260E+03  0.25225006126E+03  0.30919260579E+01 0.  0.
         13    1    3    3    0    0  0.88356960543E+01  0.45207757579E+01 -0.90606581160E+02  0.91148557244E+02  0.00000000000E+00 0.  1.
          3    1    3    3  501    0  0.19249680684E+02  0.98474521718E+01 -0.15964389144E+03  0.16110150401E+03  0.00000000000E+00 0.  1.
         -1    1    1    2    0  502 -0.28085376738E+02 -0.14368227930E+02 -0.74841743434E+03  0.74908203181E+03  0.00000000000E+00 0. -1.
<mgrwt>
<rscale>  1 0.30000000E+03</rscale>
<asrwt>0</asrwt>
<pdfrwt beam="1">  1       21 0.48439850E-02 0.30000000E+03</pdfrwt>
<pdfrwt beam="2">0</pdfrwt>
<totfact> 0.30402866E+04</totfact>
</mgrwt>
</event>
<event>
 6    1  0.8397183E-002  0.3000000E+03  0.7818608E-02  0.1093470E+00
         21   -1    0    0  501  502  0.00000000000E+00  0.00000000000E+00  0.12102285924E+01  0.12102285924E+01  0.00000000000E+00 0. -1.
         13   -1    0    0    0    0 -0.00000000000E+00 -0.00000000000E+00 -0.10000000000E+04  0.10000000000E+04  0.00000000000E+00 0.  1.
    9000005    2    1    2  501    0  0.24824463324E+02 -0.21614681874E+02 -0.65936931708E+03  0.66019748211E+03  0.30611464540E+01 0.  0.
         13    1    3    3    0    0  0.95188273973E+01 -0.10208699546E+02 -0.28718906330E+03  0.28752805724E+03  0.00000000000E+00 0.  1.
          1    1    3    3  501    0  0.15305635927E+02 -0.11405982328E+02 -0.37218025378E+03  0.37266942486E+03  0.00000000000E+00 0.  1.
         -3    1    1    2    0  502 -0.24824463324E+02  0.21614681874E+02 -0.33942045433E+03  0.34101274649E+03  0.00000000000E+00 0. -1.
<mgrwt>
<rscale>  1 0.30000000E+03</rscale>
<asrwt>0</asrwt>
<pdfrwt beam="1">  1       21 0.44008405E-02 0.30000000E+03</pdfrwt>
<pdfrwt beam="2">0</pdfrwt>
<totfact> 0.35784824E+04</totfact>
</mgrwt>
</event>
<event>
 6    1  0.8397183E-002  0.3000000E+03  0.7818608E-02  0.1093470E+00
         21   -1    0    0  501  502  0.00000000000E+00  0.00000000000E+00  0.11314731554E+01  0.11314731554E+01  0.00000000000E+00 0. -1.
         13   -1    0    0    0    0 -0.00000000000E+00 -0.00000000000E+00 -0.10000000000E+04  0.10000000000E+04  0.00000000000E+00 0.  1.
    9000005    2    1    2  501    0  0.25228621882E+02 -0.17303310692E+02 -0.70597222686E+03  0.70664186303E+03  0.31701066239E+01 0.  0.
         13    1    3    3    0    0  0.65522533137E+01 -0.44934439887E+01 -0.15316027995E+03  0.15336621015E+03  0.00000000000E+00 0.  1.
          3    1    3    3  501    0  0.18676368568E+02 -0.12809866703E+02 -0.55281194691E+03  0.55327565288E+03  0.00000000000E+00 0.  1.
         -3    1    1    2    0  502 -0.25228621882E+02  0.17303310692E+02 -0.29289629999E+03  0.29448961012E+03  0.00000000000E+00 0. -1.
<mgrwt>
<rscale>  1 0.30000000E+03</rscale>
<asrwt>0</asrwt>
<pdfrwt beam="1">  1       21 0.41144565E-02 0.30000000E+03</pdfrwt>
<pdfrwt beam="2">0</pdfrwt>
<totfact> 0.40094933E+04</totfact>
</mgrwt>
</event>
<event>
 6    1  0.8397183E-002  0.3000000E+03  0.7818608E-02  0.1093470E+00
         21   -1    0    0  501  502  0.00000000000E+00  0.00000000000E+00  0.12829549657E+01  0.12829549657E+01  0.00000000000E+00 0. -1.
         13   -1    0    0    0    0 -0.00000000000E+00 -0.00000000000E+00 -0.10000000000E+04  0.10000000000E+04  0.00000000000E+00 0.  1.
    9000005    2    1    2  501    0 -0.29153737509E+02  0.18002010774E+02 -0.35817840775E+03  0.35982854610E+03  0.32860318929E+01 0.  0.
         13    1    3    3    0    0 -0.26427485398E+02  0.15693873746E+02 -0.32889755034E+03  0.33033060451E+03  0.00000000000E+00 0.  1.
          1    1    3    3  501    0 -0.27262521105E+01  0.23081370275E+01 -0.29280857413E+02  0.29497941588E+02  0.00000000000E+00 0.  1.
         -1    1    1    2    0  502  0.29153737509E+02 -0.18002010774E+02 -0.64053863729E+03  0.64145440887E+03  0.00000000000E+00 0. -1.
<mgrwt>
<rscale>  1 0.30000000E+03</rscale>
<asrwt>0</asrwt>
<pdfrwt beam="1">  1       21 0.46653006E-02 0.30000000E+03</pdfrwt>
<pdfrwt beam="2">0</pdfrwt>
<totfact> 0.32410054E+04</totfact>
</mgrwt>
</event>
<event>
 6    1  0.8397183E-002  0.3000000E+03  0.7818608E-02  0.1093470E+00
         21   -1    0    0  501  502  0.00000000000E+00  0.00000000000E+00  0.19250899399E+01  0.19250899399E+01  0.00000000000E+00 0. -1.
         13   -1    0    0    0    0 -0.00000000000E+00 -0.00000000000E+00 -0.10000000000E+04  0.10000000000E+04  0.00000000000E+00 0.  1.
    9000005    2    1    2  501    0 -0.22827059771E+02  0.36826143710E+02 -0.57382266966E+03  0.57546617867E+03  0.34098470984E+01 0.  0.
         13    1    3    3    0    0 -0.16391269565E+02  0.24630805391E+02 -0.40779110103E+03  0.40886297505E+03  0.00000000000E+00 0.  1.
          3    1    3    3  501    0 -0.64357902060E+01  0.12195338320E+02 -0.16603156863E+03  0.16660320361E+03  0.00000000000E+00 0.  1.
         -3    1    1    2    0  502  0.22827059771E+02 -0.36826143710E+02 -0.42425224040E+03  0.42645891127E+03  0.00000000000E+00 0. -1.
<mgrwt>
<rscale>  1 0.30000000E+03</rscale>
<asrwt>0</asrwt>
<pdfrwt beam="1">  1       21 0.70003418E-02 0.30000000E+03</pdfrwt>
<pdfrwt beam="2">0</pdfrwt>
<totfact> 0.16133916E+04</totfact>
</mgrwt>
</event>
<event>
 6    1  0.8397183E-002  0.3000000E+03  0.7818608E-02  0.1093470E+00
         21   -1    0    0  501  502  0.00000000000E+00  0.00000000000E+00  0.93098485615E+00  0.93098485615E+00  0.00000000000E+00 0. -1.
         13   -1    0    0    0    0 -0.00000000000E+00 -0.00000000000E+00 -0.10000000000E+04  0.10000000000E+04  0.00000000000E+00 0.  1.
    9000005    2    1    2  501    0  0.24517962023E+02  0.17724076823E+02 -0.45509533652E+03  0.45611667117E+03  0.39216114744E+01 0.  0.
         13    1    3    3    0    0  0.17582097551E+01  0.23284321160E+01 -0.33488600358E+02  0.33615461496E+02  0.00000000000E+00 0.  1.
          1    1    3    3  501    0  0.22759752268E+02  0.15395644707E+02 -0.42160673616E+03  0.42250120968E+03  0.00000000000E+00 0.  1.
         -3    1    1    2    0  502 -0.24517962023E+02 -0.17724076823E+02 -0.54397367862E+03  0.54481431368E+03  0.00000000000E+00 0. -1.
<mgrwt>
<rscale>  1 0.30000000E+03</rscale>
<asrwt>0</asrwt>
<pdfrwt beam="1">  1       21 0.33854066E-02 0.30000000E+03</pdfrwt>
<pdfrwt beam="2">0</pdfrwt>
<totfact> 0.55629402E+04</totfact>
</mgrwt>
</event>
<event>
 6    1  0.8397183E-002  0.3000000E+03  0.7818608E-02  0.1093470E+00
         21   -1    0    0  501  502  0.00000000000E+00  0.00000000000E+00  0.14043850068E+01  0.14043850068E+01  0.00000000000E+00 0. -1.
         13   -1    0    0    0    0 -0.00000000000E+00 -0.00000000000E+00 -0.10000000000E+04  0.10000000000E+04  0.00000000000E+00 0.  1.
    9000005    2    1    2  501    0  0.18492239742E+02  0.30529762937E+02 -0.64972565948E+03  0.65071324566E+03  0.32040812698E+01 0.  0.
         13    1    3    3    0    0  0.93584032120E+01  0.12411660883E+02 -0.27808355845E+03  0.27851767362E+03  0.00000000000E+00 0.  1.
          1    1    3    3  501    0  0.91338365296E+01  0.18118102054E+02 -0.37164210102E+03  0.37219557204E+03  0.00000000000E+00 0.  1.
         -1    1    1    2    0  502 -0.18492239742E+02 -0.30529762937E+02 -0.34886995552E+03  0.35069113935E+03  0.00000000000E+00 0. -1.
<mgrwt>
<rscale>  1 0.30000000E+03</rscale>
<asrwt>0</asrwt>
<pdfrwt beam="1">  1       21 0.51068653E-02 0.30000000E+03</pdfrwt>
<pdfrwt beam="2">0</pdfrwt>
<totfact> 0.27784167E+04</totfact>
</mgrwt>
</event>
<event>
 6    1  0.8397183E-002  0.3000000E+03  0.7818608E-02  0.1093470E+00
         21   -1    0    0  501  502  0.00000000000E+00  0.00000000000E+00  0.15303145502E+01  0.15303145502E+01  0.00000000000E+00 0. -1.
         13   -1    0    0    0    0 -0.00000000000E+00 -0.00000000000E+00 -0.10000000000E+04  0.10000000000E+04  0.00000000000E+00 0.  1.
    9000005    2    1    2  501    0  0.34181001927E+02 -0.14581458970E+02 -0.34850302045E+03  0.35050218501E+03  0.40579055345E+01 0.  0.
         13    1    3    3    0    0  0.27588715978E+02 -0.99665347081E+01 -0.27468238616E+03  0.27624424397E+03  0.00000000000E+00 0.  1.
          3    1    3    3  501    0  0.65922859484E+01 -0.46149242623E+01 -0.73820634293E+02  0.74257941040E+02  0.00000000000E+00 0.  1.
         -1    1    1    2    0  502 -0.34181001927E+02  0.14581458970E+02 -0.64996666500E+03  0.65102812954E+03  0.00000000000E+00 0. -1.
<mgrwt>
<rscale>  1 0.30000000E+03</rscale>
<asrwt>0</asrwt>
<pdfrwt beam="1">  1       21 0.55647919E-02 0.30000000E+03</pdfrwt>
<pdfrwt beam="2">0</pdfrwt>
<totfact> 0.23987364E+04</totfact>
</mgrwt>
</event>
<event>
 6    1  0.8397183E-002  0.3000000E+03  0.7818608E-02  0.1093470E+00
         21   -1    0    0  501  502  0.00000000000E+00  0.00000000000E+00  0.15411453105E+01  0.15411453105E+01  0.00000000000E+00 0. -1.
         13   -1    0    0    0    0 -0.00000000000E+00 -0.00000000000E+00 -0.10000000000E+04  0.10000000000E+04  0.00000000000E+00 0.  1.
    9000005    2    1    2  501    0 -0.34719558807E+02 -0.11694607701E+02 -0.32218364281E+03  0.32427430439E+03  0.30517499616E+01 0.  0.
         13    1    3    3    0    0 -0.59569542630E+01 -0.28630768303E+01 -0.65861693972E+02  0.66192486325E+02  0.00000000000E+00 0.  1.
          1    1    3    3  501    0 -0.28762604544E+02 -0.88315308707E+01 -0.25632194884E+03  0.25808181807E+03  0.00000000000E+00 0.  1.
         -1    1    1    2    0  502  0.34719558807E+02  0.11694607701E+02 -0.67627521187E+03  0.67726684092E+03  0.00000000000E+00 0. -1.
<mgrwt>
<rscale>  1 0.30000000E+03</rscale>
<asrwt>0</asrwt>
<pdfrwt beam="1">  1       21 0.56041766E-02 0.30000000E+03</pdfrwt>
<pdfrwt beam="2">0</pdfrwt>
<totfact> 0.23698703E+04</totfact>
</mgrwt>
</event>
<event>
 6    1  0.8397183E-002  0.3000000E+03  0.7818608E-02  0.1093470E+00
         21   -1    0    0  501  502  0.00000000000E+00  0.00000000000E+00  0.17182358815E+01  0.17182358815E+01  0.00000000000E+00 0. -1.
         13   -1    0    0    0    0 -0.00000000000E+00 -0.00000000000E+00 -0.10000000000E+04  0.10000000000E+04  0.00000000000E+00 0.  1.
    9000005    2    1    2  501    0  0.40789287451E+02 -0.13216313618E+01 -0.41638796489E+03  0.41839507822E+03  0.31609327255E+01 0.  0.
         13    1    3    3    0    0  0.13176675797E+02 -0.89682233929E+00 -0.14944262165E+03  0.15002508538E+03  0.00000000000E+00 0.  1.
          3    1    3    3  501    0  0.27612611654E+02 -0.42480902250E+00 -0.26694534323E+03  0.26836999284E+03  0.00000000000E+00 0.  1.
         -3    1    1    2    0  502 -0.40789287451E+02  0.13216313618E+01 -0.58189379923E+03  0.58332315766E+03  0.00000000000E+00 0. -1.
<mgrwt>
<rscale>  1 0.30000000E+03</rscale>
<asrwt>0</asrwt>
<pdfrwt beam="1">  1       21 0.62481437E-02 0.30000000E+03</pdfrwt>
<pdfrwt beam="2">0</pdfrwt>
<totfact> 0.19648049E+04</totfact>
</mgrwt>
</event>
<event>
 6    1  0.8397183E-002  0.3000000E+03  0.7818608E-02  0.1093470E+00
         21   -1    0    0  501  502  0.00000000000E+00  0.00000000000E+00  0.23206697512E+01  0.23206697512E+01  0.00000000000E+00 0. -1.
         13   -1    0    0    0    0 -0.00000000000E+00 -0.00000000000E+00 -0.10000000000E+04  0.10000000000E+04  0.00000000000E+00 0.  1.
    9000005    2    1    2  501    0  0.76137109215E+01 -0.47433489884E+02 -0.47047015060E+03  0.47292722093E+03  0.31763386944E+01 0.  0.
         13    1    3    3    0    0  0.72590648090E+01 -0.41283349500E+02 -0.40124510214E+03  0.40342860701E+03  0.00000000000E+00 0.  1.
          1    1    3    3  501    0  0.35464611254E+00 -0.61501403841E+01 -0.69225048465E+02  0.69498613912E+02  0.00000000000E+00 0.  1.
         -3    1    1    2    0  502 -0.76137109215E+01  0.47433489884E+02 -0.52720917965E+03  0.52939344882E+03  0.00000000000E+00 0. -1.
<mgrwt>
<rscale>  1 0.30000000E+03</rscale>
<asrwt>0</asrwt>
<pdfrwt beam="1">  1       21 0.84388169E-02 0.30000000E+03</pdfrwt>
<pdfrwt beam="2">0</pdfrwt>
<totfact> 0.11628414E+04</totfact>
</mgrwt>
</event>
<event>
 6    1  0.8397183E-002  0.3000000E+03  0.7818608E-02  0.1093470E+00
         21   -1    0    0  501  502  0.00000000000E+00  0.00000000000E+00  0.11211949364E+01  0.11211949364E+01  0.00000000000E+00 0. -1.
         13   -1    0    0    0    0 -0.00000000000E+00 -0.00000000000E+00 -0.10000000000E+04  0.10000000000E+04  0.00000000000E+00 0.  1.
    9000005    2    1    2  501    0  0.73412008099E+01 -0.32329776190E+02 -0.50261230446E+03  0.50374855065E+03  0.66607833558E+01 0.  0.
         13    1    3    3    0    0  0.54485776573E+01 -0.30353190826E+02 -0.44199215258E+03  0.44306666105E+03  0.00000000000E+00 0.  1.
          3    1    3    3  501    0  0.18926231526E+01 -0.19765853633E+01 -0.60620151880E+02  0.60681889605E+02  0.00000000000E+00 0.  1.
         -3    1    1    2    0  502 -0.73412008099E+01  0.32329776190E+02 -0.49626650061E+03  0.49737264428E+03  0.00000000000E+00 0. -1.
<mgrwt>
<rscale>  1 0.30000000E+03</rscale>
<asrwt>0</asrwt>
<pdfrwt beam="1">  1       21 0.40770811E-02 0.30000000E+03</pdfrwt>
<pdfrwt beam="2">0</pdfrwt>
<totfact> 0.40716638E+04</totfact>
</mgrwt>
</event>
<event>
 6    1  0.8397183E-002  0.3000000E+03  0.7818608E-02  0.1093470E+00
         21   -1    0    0  501  502  0.00000000000E+00  0.00000000000E+00  0.10197517591E+01  0.10197517591E+01  0.00000000000E+00 0. -1.
         13   -1    0    0    0    0 -0.00000000000E+00 -0.00000000000E+00 -0.10000000000E+04  0.10000000000E+04  0.00000000000E+00 0.  1.
    9000005    2    1    2  501    0 -0.49640817838E+01 -0.30858372826E+02 -0.53935114680E+03  0.54032919165E+03  0.88935096685E+01 0.  0.
         13    1    3    3    0    0 -0.38238782679E+01 -0.67016748644E+01 -0.91107129028E+02  0.91433273215E+02  0.00000000000E+00 0.  1.
          3    1    3    3  501    0 -0.11402035159E+01 -0.24156697962E+02 -0.44824401777E+03  0.44889591844E+03  0.00000000000E+00 0.  1.
         -3    1    1    2    0  502  0.49640817838E+01  0.30858372826E+02 -0.45962910144E+03  0.46069056011E+03  0.00000000000E+00 0. -1.
<mgrwt>
<rscale>  1 0.30000000E+03</rscale>
<asrwt>0</asrwt>
<pdfrwt beam="1">  1       21 0.37081960E-02 0.30000000E+03</pdfrwt>
<pdfrwt beam="2">0</pdfrwt>
<totfact> 0.47757733E+04</totfact>
</mgrwt>
</event>
<event>
 6    1  0.1151361E-001  0.3000000E+03  0.7818608E-02  0.1093470E+00
         21   -1    0    0  501  502  0.00000000000E+00  0.00000000000E+00  0.18087793930E+01  0.18087793930E+01  0.00000000000E+00 0. -1.
         13   -1    0    0    0    0 -0.00000000000E+00 -0.00000000000E+00 -0.10000000000E+04  0.10000000000E+04  0.00000000000E+00 0.  1.
    9000005    2    1    2  501    0  0.30040125471E+02  0.28841169163E+02 -0.43006107430E+03  0.43215442339E+03  0.84080821496E+01 0.  0.
         13    1    3    3    0    0  0.22130859784E+02  0.20991795262E+02 -0.27306629373E+03  0.27476468331E+03  0.00000000000E+00 0.  1.
          1    1    3    3  501    0  0.79092656868E+01  0.78493739018E+01 -0.15699478057E+03  0.15738974007E+03  0.00000000000E+00 0.  1.
         -1    1    1    2    0  502 -0.30040125471E+02 -0.28841169163E+02 -0.56813014631E+03  0.56965435601E+03  0.00000000000E+00 0. -1.
<mgrwt>
<rscale>  1 0.30000000E+03</rscale>
<asrwt>0</asrwt>
<pdfrwt beam="1">  1       21 0.65773935E-02 0.30000000E+03</pdfrwt>
<pdfrwt beam="2">0</pdfrwt>
<totfact> 0.17977687E+04</totfact>
</mgrwt>
</event>
<event>
 6    1  0.8397183E-002  0.3000000E+03  0.7818608E-02  0.1093470E+00
         21   -1    0    0  501  502  0.00000000000E+00  0.00000000000E+00  0.34033420522E+01  0.34033420522E+01  0.00000000000E+00 0. -1.
         13   -1    0    0    0    0 -0.00000000000E+00 -0.00000000000E+00 -0.10000000000E+04  0.10000000000E+04  0.00000000000E+00 0.  1.
    9000005    2    1    2  501    0 -0.43861730983E+01  0.56620311653E+02 -0.38531615144E+03  0.38949051775E+03  0.30378694256E+01 0.  0.
         13    1    3    3    0    0 -0.17953752700E+01  0.12744013893E+02 -0.94189055159E+02  0.95064248665E+02  0.00000000000E+00 0.  1.
          1    1    3    3  501    0 -0.25907978283E+01  0.43876297760E+02 -0.29112709628E+03  0.29442626908E+03  0.00000000000E+00 0.  1.
         -1    1    1    2    0  502  0.43861730983E+01 -0.56620311653E+02 -0.61128050651E+03  0.61391282430E+03  0.00000000000E+00 0. -1.
<mgrwt>
<rscale>  1 0.30000000E+03</rscale>
<asrwt>0</asrwt>
<pdfrwt beam="1">  1       21 0.12375815E-01 0.30000000E+03</pdfrwt>
<pdfrwt beam="2">0</pdfrwt>
<totfact> 0.58592524E+03</totfact>
</mgrwt>
</event>
<event>
 6    1  0.9407219E-002  0.3000000E+03  0.7818608E-02  0.1093470E+00
         21   -1    0    0  501  502  0.00000000000E+00  0.00000000000E+00  0.11900704566E+01  0.11900704566E+01  0.00000000000E+00 0. -1.
         13   -1    0    0    0    0 -0.00000000000E+00 -0.00000000000E+00 -0.10000000000E+04  0.10000000000E+04  0.00000000000E+00 0.  1.
    9000005    2    1    2  501    0  0.92105404236E+01  0.30024754025E+02 -0.34059670365E+03  0.34222803009E+03  0.11295580097E+02 0.  0.
         13    1    3    3    0    0  0.82242989203E+01  0.27147857504E+02 -0.32960438814E+03  0.33082275911E+03  0.00000000000E+00 0.  1.
          1    1    3    3  501    0  0.98624150331E+00  0.28768965210E+01 -0.10992315509E+02  0.11405270981E+02  0.00000000000E+00 0.  1.
         -3    1    1    2    0  502 -0.92105404236E+01 -0.30024754025E+02 -0.65821322589E+03  0.65896204037E+03  0.00000000000E+00 0. -1.
<mgrwt>
<rscale>  1 0.30000000E+03</rscale>
<asrwt>0</asrwt>
<pdfrwt beam="1">  1       21 0.43275381E-02 0.30000000E+03</pdfrwt>
<pdfrwt beam="2">0</pdfrwt>
<totfact> 0.36817015E+04</totfact>
</mgrwt>
</event>
<event>
 6    1  0.8397183E-002  0.3000000E+03  0.7818608E-02  0.1093470E+00
         21   -1    0    0  501  502  0.00000000000E+00  0.00000000000E+00  0.26580378484E+01  0.26580378484E+01  0.00000000000E+00 0. -1.
         13   -1    0    0    0    0 -0.00000000000E+00 -0.00000000000E+00 -0.10000000000E+04  0.10000000000E+04  0.00000000000E+00 0.  1.
    9000005    2    1    2  501    0  0.38903141621E+02  0.22704878397E+02 -0.74098869756E+03  0.74237749267E+03  0.55790484943E+01 0.  0.
         13    1    3    3    0    0  0.15275160019E+02  0.12107998377E+02 -0.31595747115E+03  0.31655814271E+03  0.00000000000E+00 0.  1.
          1    1    3    3  501    0  0.23627981602E+02  0.10596880020E+02 -0.42503122641E+03  0.42581934996E+03  0.00000000000E+00 0.  1.
         -1    1    1    2    0  502 -0.38903141621E+02 -0.22704878397E+02 -0.25635326459E+03  0.26028054518E+03  0.00000000000E+00 0. -1.
<mgrwt>
<rscale>  1 0.30000000E+03</rscale>
<asrwt>0</asrwt>
<pdfrwt beam="1">  1       21 0.96656126E-02 0.30000000E+03</pdfrwt>
<pdfrwt beam="2">0</pdfrwt>
<totfact> 0.91417019E+03</totfact>
</mgrwt>
</event>
<event>
 6    1  0.8397183E-002  0.3000000E+03  0.7818608E-02  0.1093470E+00
         21   -1    0    0  501  502  0.00000000000E+00  0.00000000000E+00  0.26987176147E+01  0.26987176147E+01  0.00000000000E+00 0. -1.
         13   -1    0    0    0    0 -0.00000000000E+00 -0.00000000000E+00 -0.10000000000E+04  0.10000000000E+04  0.00000000000E+00 0.  1.
    9000005    2    1    2  501    0  0.30624500514E+02  0.22491524290E+02 -0.16358113160E+03  0.16811318064E+03  0.77153220117E+01 0.  0.
         13    1    3    3    0    0  0.22963176807E+02  0.12495608263E+02 -0.11368158921E+03  0.11664883814E+03  0.00000000000E+00 0.  1.
          3    1    3    3  501    0  0.76613237069E+01  0.99959160275E+01 -0.49899542392E+02  0.51464342502E+02  0.00000000000E+00 0.  1.
         -1    1    1    2    0  502 -0.30624500514E+02 -0.22491524290E+02 -0.83372015079E+03  0.83458553697E+03  0.00000000000E+00 0. -1.
<mgrwt>
<rscale>  1 0.30000000E+03</rscale>
<asrwt>0</asrwt>
<pdfrwt beam="1">  1       21 0.98135393E-02 0.30000000E+03</pdfrwt>
<pdfrwt beam="2">0</pdfrwt>
<totfact> 0.88972977E+03</totfact>
</mgrwt>
</event>
<event>
 6    1  0.8397183E-002  0.3000000E+03  0.7818608E-02  0.1093470E+00
         21   -1    0    0  501  502  0.00000000000E+00  0.00000000000E+00  0.12444824088E+01  0.12444824088E+01  0.00000000000E+00 0. -1.
         13   -1    0    0    0    0 -0.00000000000E+00 -0.00000000000E+00 -0.10000000000E+04  0.10000000000E+04  0.00000000000E+00 0.  1.
    9000005    2    1    2  501    0  0.26216834290E+02 -0.16338039524E+02 -0.74013980353E+03  0.74079037610E+03  0.30329213088E+01 0.  0.
         13    1    3    3    0    0  0.83087742772E+01 -0.47630765414E+01 -0.19822794942E+03  0.19845917101E+03  0.00000000000E+00 0.  1.
          1    1    3    3  501    0  0.17908060013E+02 -0.11574962983E+02 -0.54191185412E+03  0.54233120509E+03  0.00000000000E+00 0.  1.
         -3    1    1    2    0  502 -0.26216834290E+02  0.16338039524E+02 -0.25861571406E+03  0.26045410631E+03  0.00000000000E+00 0. -1.
<mgrwt>
<rscale>  1 0.30000000E+03</rscale>
<asrwt>0</asrwt>
<pdfrwt beam="1">  1       21 0.45254001E-02 0.30000000E+03</pdfrwt>
<pdfrwt beam="2">0</pdfrwt>
<totfact> 0.34130565E+04</totfact>
</mgrwt>
</event>
<event>
 6    1  0.8397183E-002  0.3000000E+03  0.7818608E-02  0.1093470E+00
         21   -1    0    0  501  502  0.00000000000E+00  0.00000000000E+00  0.10166363539E+01  0.10166363539E+01  0.00000000000E+00 0. -1.
         13   -1    0    0    0    0 -0.00000000000E+00 -0.00000000000E+00 -0.10000000000E+04  0.10000000000E+04  0.00000000000E+00 0.  1.
    9000005    2    1    2  501    0 -0.31547269573E+02  0.16640874183E+01 -0.44284312974E+03  0.44397986990E+03  0.31761486705E+01 0.  0.
         13    1    3    3    0    0 -0.17448259357E+01  0.15271220895E+00 -0.36824224202E+02  0.36865854481E+02  0.00000000000E+00 0.  1.
          3    1    3    3  501    0 -0.29802443637E+02  0.15113752094E+01 -0.40601890553E+03  0.40711401542E+03  0.00000000000E+00 0.  1.
         -1    1    1    2    0  502  0.31547269573E+02 -0.16640874183E+01 -0.55614023391E+03  0.55703676645E+03  0.00000000000E+00 0. -1.
<mgrwt>
<rscale>  1 0.30000000E+03</rscale>
<asrwt>0</asrwt>
<pdfrwt beam="1">  1       21 0.36968673E-02 0.30000000E+03</pdfrwt>
<pdfrwt beam="2">0</pdfrwt>
<totfact> 0.48003637E+04</totfact>
</mgrwt>
</event>
<event>
 6    1  0.8397183E-002  0.3000000E+03  0.7818608E-02  0.1093470E+00
         21   -1    0    0  501  502  0.00000000000E+00  0.00000000000E+00  0.14612845647E+01  0.14612845647E+01  0.00000000000E+00 0. -1.
         13   -1    0    0    0    0 -0.00000000000E+00 -0.00000000000E+00 -0.10000000000E+04  0.10000000000E+04  0.00000000000E+00 0.  1.
    9000005    2    1    2  501    0  0.87120103499E+01 -0.32563422912E+02 -0.73326996828E+03  0.73405937011E+03  0.46943402748E+01 0.  0.
         13    1    3    3    0    0  0.31702468551E+01 -0.70140238019E+01 -0.20187385903E+03  0.20202054835E+03  0.00000000000E+00 0.  1.
          3    1    3    3  501    0  0.55417634948E+01 -0.25549399110E+02 -0.53139610925E+03  0.53203882176E+03  0.00000000000E+00 0.  1.
         -1    1    1    2    0  502 -0.87120103499E+01  0.32563422912E+02 -0.26526874716E+03  0.26740191445E+03  0.00000000000E+00 0. -1.
<mgrwt>
<rscale>  1 0.30000000E+03</rscale>
<asrwt>0</asrwt>
<pdfrwt beam="1">  1       21 0.53137733E-02 0.30000000E+03</pdfrwt>
<pdfrwt beam="2">0</pdfrwt>
<totfact> 0.25961359E+04</totfact>
</mgrwt>
</event>
<event>
 6    1  0.8397183E-002  0.3000000E+03  0.7818608E-02  0.1093470E+00
         21   -1    0    0  501  502  0.00000000000E+00  0.00000000000E+00  0.18538816474E+01  0.18538816474E+01  0.00000000000E+00 0. -1.
         13   -1    0    0    0    0 -0.00000000000E+00 -0.00000000000E+00 -0.10000000000E+04  0.10000000000E+04  0.00000000000E+00 0.  1.
    9000005    2    1    2  501    0  0.85269236501E+01 -0.39127201202E+02 -0.68144251709E+03  0.68262854219E+03  0.37651307687E+01 0.  0.
         13    1    3    3    0    0  0.18181324316E+01 -0.62376713607E+01 -0.89953204430E+02  0.90187544244E+02  0.00000000000E+00 0.  1.
          1    1    3    3  501    0  0.67087912185E+01 -0.32889529841E+02 -0.59148931266E+03  0.59244099794E+03  0.00000000000E+00 0.  1.
         -3    1    1    2    0  502 -0.85269236501E+01  0.39127201202E+02 -0.31670360126E+03  0.31922533946E+03  0.00000000000E+00 0. -1.
<mgrwt>
<rscale>  1 0.30000000E+03</rscale>
<asrwt>0</asrwt>
<pdfrwt beam="1">  1       21 0.67414020E-02 0.30000000E+03</pdfrwt>
<pdfrwt beam="2">0</pdfrwt>
<totfact> 0.17226069E+04</totfact>
</mgrwt>
</event>
<event>
 6    1  0.8397183E-002  0.3000000E+03  0.7818608E-02  0.1093470E+00
         21   -1    0    0  501  502  0.00000000000E+00  0.00000000000E+00  0.12750066754E+01  0.12750066754E+01  0.00000000000E+00 0. -1.
         13   -1    0    0    0    0 -0.00000000000E+00 -0.00000000000E+00 -0.10000000000E+04  0.10000000000E+04  0.00000000000E+00 0.  1.
    9000005    2    1    2  501    0 -0.13084714231E+02  0.31379116001E+02 -0.35106191549E+03  0.35272021249E+03  0.33497948570E+01 0.  0.
         13    1    3    3    0    0 -0.12931072784E+02  0.28835066720E+02 -0.32722199053E+03  0.32874443691E+03  0.00000000000E+00 0.  1.
          3    1    3    3  501    0 -0.15364144754E+00  0.25440492814E+01 -0.23839924961E+02  0.23975775579E+02  0.00000000000E+00 0.  1.
         -3    1    1    2    0  502  0.13084714231E+02 -0.31379116001E+02 -0.64766307784E+03  0.64855479419E+03  0.00000000000E+00 0. -1.
<mgrwt>
<rscale>  1 0.30000000E+03</rscale>
<asrwt>0</asrwt>
<pdfrwt beam="1">  1       21 0.46363977E-02 0.30000000E+03</pdfrwt>
<pdfrwt beam="2">0</pdfrwt>
<totfact> 0.32754191E+04</totfact>
</mgrwt>
</event>
<event>
 6    1  0.8397183E-002  0.3000000E+03  0.7818608E-02  0.1093470E+00
         21   -1    0    0  501  502  0.00000000000E+00  0.00000000000E+00  0.11261427297E+01  0.11261427297E+01  0.00000000000E+00 0. -1.
         13   -1    0    0    0    0 -0.00000000000E+00 -0.00000000000E+00 -0.10000000000E+04  0.10000000000E+04  0.00000000000E+00 0.  1.
    9000005    2    1    2  501    0  0.45793352245E+01 -0.33055811900E+02 -0.53497104937E+03  0.53602457082E+03  0.38288185359E+01 0.  0.
         13    1    3    3    0    0  0.44981402658E+01 -0.24466195645E+02 -0.37655938191E+03  0.37738017449E+03  0.00000000000E+00 0.  1.
          3    1    3    3  501    0  0.81194958627E-01 -0.85896162553E+01 -0.15841166746E+03  0.15864439634E+03  0.00000000000E+00 0.  1.
         -3    1    1    2    0  502 -0.45793352245E+01  0.33055811900E+02 -0.46390280790E+03  0.46510157191E+03  0.00000000000E+00 0. -1.
<mgrwt>
<rscale>  1 0.30000000E+03</rscale>
<asrwt>0</asrwt>
<pdfrwt beam="1">  1       21 0.40950731E-02 0.30000000E+03</pdfrwt>
<pdfrwt beam="2">0</pdfrwt>
<totfact> 0.40415494E+04</totfact>
</mgrwt>
</event>
<event>
 6    1  0.8397183E-002  0.3000000E+03  0.7818608E-02  0.1093470E+00
         21   -1    0    0  501  502  0.00000000000E+00  0.00000000000E+00  0.23765663202E+01  0.23765663202E+01  0.00000000000E+00 0. -1.
         13   -1    0    0    0    0 -0.00000000000E+00 -0.00000000000E+00 -0.10000000000E+04  0.10000000000E+04  0.00000000000E+00 0.  1.
    9000005    2    1    2  501    0 -0.37627314566E+02 -0.30856708086E+02 -0.51894193388E+03  0.52122801391E+03  0.31560276679E+01 0.  0.
         13    1    3    3    0    0 -0.25243942104E+01 -0.27431749651E+01 -0.33239166290E+02  0.33447567187E+02  0.00000000000E+00 0.  1.
          1    1    3    3  501    0 -0.35102920355E+02 -0.28113533121E+02 -0.48570276758E+03  0.48778044672E+03  0.00000000000E+00 0.  1.
         -3    1    1    2    0  502  0.37627314566E+02  0.30856708086E+02 -0.47868149980E+03  0.48114855241E+03  0.00000000000E+00 0. -1.
<mgrwt>
<rscale>  1 0.30000000E+03</rscale>
<asrwt>0</asrwt>
<pdfrwt beam="1">  1       21 0.86420776E-02 0.30000000E+03</pdfrwt>
<pdfrwt beam="2">0</pdfrwt>
<totfact> 0.11150307E+04</totfact>
</mgrwt>
</event>
<event>
 6    1  0.8397183E-002  0.3000000E+03  0.7818608E-02  0.1093470E+00
         21   -1    0    0  501  502  0.00000000000E+00  0.00000000000E+00  0.12929322413E+01  0.12929322413E+01  0.00000000000E+00 0. -1.
         13   -1    0    0    0    0 -0.00000000000E+00 -0.00000000000E+00 -0.10000000000E+04  0.10000000000E+04  0.00000000000E+00 0.  1.
    9000005    2    1    2  501    0  0.31880238131E+02 -0.83219554375E+01 -0.69841891885E+03  0.69920258664E+03  0.31090902579E+01 0.  0.
         13    1    3    3    0    0  0.78687243574E+01 -0.28161710834E+01 -0.15402460387E+03  0.15425117905E+03  0.00000000000E+00 0.  1.
          3    1    3    3  501    0  0.24011513774E+02 -0.55057843542E+01 -0.54439431498E+03  0.54495140759E+03  0.00000000000E+00 0.  1.
         -1    1    1    2    0  502 -0.31880238131E+02  0.83219554375E+01 -0.30028814891E+03  0.30209034560E+03  0.00000000000E+00 0. -1.
<mgrwt>
<rscale>  1 0.30000000E+03</rscale>
<asrwt>0</asrwt>
<pdfrwt beam="1">  1       21 0.47015817E-02 0.30000000E+03</pdfrwt>
<pdfrwt beam="2">0</pdfrwt>
<totfact> 0.31986029E+04</totfact>
</mgrwt>
</event>
<event>
 6    1  0.8397183E-002  0.3000000E+03  0.7818608E-02  0.1093470E+00
         21   -1    0    0  501  502  0.00000000000E+00  0.00000000000E+00  0.10849255425E+01  0.10849255425E+01  0.00000000000E+00 0. -1.
         13   -1    0    0    0    0 -0.00000000000E+00 -0.00000000000E+00 -0.10000000000E+04  0.10000000000E+04  0.00000000000E+00 0.  1.
    9000005    2    1    2  501    0  0.19423506036E+02 -0.26210645547E+02 -0.48691909333E+03  0.48805066234E+03  0.62429990144E+01 0.  0.
         13    1    3    3    0    0  0.14385515024E+02 -0.14443645057E+02 -0.30904580827E+03  0.30971740915E+03  0.00000000000E+00 0.  1.
          1    1    3    3  501    0  0.50379910127E+01 -0.11767000490E+02 -0.17787328506E+03  0.17833325319E+03  0.00000000000E+00 0.  1.
         -1    1    1    2    0  502 -0.19423506036E+02  0.26210645547E+02 -0.51199598113E+03  0.51303426320E+03  0.00000000000E+00 0. -1.
<mgrwt>
<rscale>  1 0.30000000E+03</rscale>
<asrwt>0</asrwt>
<pdfrwt beam="1">  1       21 0.39451921E-02 0.30000000E+03</pdfrwt>
<pdfrwt beam="2">0</pdfrwt>
<totfact> 0.43035352E+04</totfact>
</mgrwt>
</event>
<event>
 6    1  0.8397183E-002  0.3000000E+03  0.7818608E-02  0.1093470E+00
         21   -1    0    0  501  502  0.00000000000E+00  0.00000000000E+00  0.12719860714E+01  0.12719860714E+01  0.00000000000E+00 0. -1.
         13   -1    0    0    0    0 -0.00000000000E+00 -0.00000000000E+00 -0.10000000000E+04  0.10000000000E+04  0.00000000000E+00 0.  1.
    9000005    2    1    2  501    0 -0.24189350258E+02 -0.23028050932E+02 -0.67293914139E+03  0.67377571851E+03  0.33488872087E+01 0.  0.
         13    1    3    3    0    0 -0.70348198974E+01 -0.88710442900E+01 -0.23017314261E+03  0.23045142589E+03  0.00000000000E+00 0.  1.
          3    1    3    3  501    0 -0.17154530361E+02 -0.14157006642E+02 -0.44276599878E+03  0.44332429262E+03  0.00000000000E+00 0.  1.
         -3    1    1    2    0  502  0.24189350258E+02  0.23028050932E+02 -0.32578887254E+03  0.32749626756E+03  0.00000000000E+00 0. -1.
<mgrwt>
<rscale>  1 0.30000000E+03</rscale>
<asrwt>0</asrwt>
<pdfrwt beam="1">  1       21 0.46254136E-02 0.30000000E+03</pdfrwt>
<pdfrwt beam="2">0</pdfrwt>
<totfact> 0.32886479E+04</totfact>
</mgrwt>
</event>
<event>
 6    1  0.8397183E-002  0.3000000E+03  0.7818608E-02  0.1093470E+00
         21   -1    0    0  501  502  0.00000000000E+00  0.00000000000E+00  0.44095076784E+01  0.44095076784E+01  0.00000000000E+00 0. -1.
         13   -1    0    0    0    0 -0.00000000000E+00 -0.00000000000E+00 -0.10000000000E+04  0.10000000000E+04  0.00000000000E+00 0.  1.
    9000005    2    1    2  501    0 -0.42377295515E+02  0.47008757118E+02 -0.35392310865E+03  0.35962839002E+03  0.80841604914E+01 0.  0.
         13    1    3    3    0    0 -0.63033032150E+01  0.79495766119E+01 -0.74977738276E+02  0.75661011338E+02  0.00000000000E+00 0.  1.
          3    1    3    3  501    0 -0.36073992300E+02  0.39059180507E+02 -0.27894537038E+03  0.28396737869E+03  0.00000000000E+00 0.  1.
         -1    1    1    2    0  502  0.42377295515E+02 -0.47008757118E+02 -0.64166738367E+03  0.64478111765E+03  0.00000000000E+00 0. -1.
<mgrwt>
<rscale>  1 0.30000000E+03</rscale>
<asrwt>0</asrwt>
<pdfrwt beam="1">  1       21 0.16034607E-01 0.30000000E+03</pdfrwt>
<pdfrwt beam="2">0</pdfrwt>
<totfact> 0.36379829E+03</totfact>
</mgrwt>
</event>
<event>
 6    1  0.8397183E-002  0.3000000E+03  0.7818608E-02  0.1093470E+00
         21   -1    0    0  501  502  0.00000000000E+00  0.00000000000E+00  0.18662631481E+01  0.18662631481E+01  0.00000000000E+00 0. -1.
         13   -1    0    0    0    0 -0.00000000000E+00 -0.00000000000E+00 -0.10000000000E+04  0.10000000000E+04  0.00000000000E+00 0.  1.
    9000005    2    1    2  501    0 -0.21375826189E+02 -0.27267896278E+02 -0.20128533149E+03  0.20426495595E+03  0.28148613658E+01 0.  0.
         13    1    3    3    0    0 -0.21159719304E+02 -0.27119996322E+02 -0.19770809752E+03  0.20067814965E+03  0.00000000000E+00 0.  1.
          3    1    3    3  501    0 -0.21610688430E+00 -0.14789995570E+00 -0.35772339650E+01  0.35868062985E+01  0.00000000000E+00 0.  1.
         -1    1    1    2    0  502  0.21375826189E+02  0.27267896278E+02 -0.79684840536E+03  0.79760130720E+03  0.00000000000E+00 0. -1.
<mgrwt>
<rscale>  1 0.30000000E+03</rscale>
<asrwt>0</asrwt>
<pdfrwt beam="1">  1       21 0.67864258E-02 0.30000000E+03</pdfrwt>
<pdfrwt beam="2">0</pdfrwt>
<totfact> 0.17028175E+04</totfact>
</mgrwt>
</event>
<event>
 6    1  0.8397183E-002  0.3000000E+03  0.7818608E-02  0.1093470E+00
         21   -1    0    0  501  502  0.00000000000E+00  0.00000000000E+00  0.30998409047E+01  0.30998409047E+01  0.00000000000E+00 0. -1.
         13   -1    0    0    0    0 -0.00000000000E+00 -0.00000000000E+00 -0.10000000000E+04  0.10000000000E+04  0.00000000000E+00 0.  1.
    9000005    2    1    2  501    0  0.32753277230E+02  0.18940481919E+02 -0.86622359767E+03  0.86705616141E+03  0.33980661115E+01 0.  0.
         13    1    3    3    0    0  0.89743432999E+01  0.42517838715E+01 -0.25690528762E+03  0.25709714761E+03  0.00000000000E+00 0.  1.
          1    1    3    3  501    0  0.23778933930E+02  0.14688698047E+02 -0.60931831005E+03  0.60995901380E+03  0.00000000000E+00 0.  1.
         -1    1    1    2    0  502 -0.32753277230E+02 -0.18940481919E+02 -0.13067656143E+03  0.13604367950E+03  0.00000000000E+00 0. -1.
<mgrwt>
<rscale>  1 0.30000000E+03</rscale>
<asrwt>0</asrwt>
<pdfrwt beam="1">  1       21 0.11272173E-01 0.30000000E+03</pdfrwt>
<pdfrwt beam="2">0</pdfrwt>
<totfact> 0.69397028E+03</totfact>
</mgrwt>
</event>
<event>
 6    1  0.8397183E-002  0.3000000E+03  0.7818608E-02  0.1093470E+00
         21   -1    0    0  501  502  0.00000000000E+00  0.00000000000E+00  0.28632203517E+01  0.28632203517E+01  0.00000000000E+00 0. -1.
         13   -1    0    0    0    0 -0.00000000000E+00 -0.00000000000E+00 -0.10000000000E+04  0.10000000000E+04  0.00000000000E+00 0.  1.
    9000005    2    1    2  501    0 -0.28188235294E+02  0.38924362905E+02 -0.71833918433E+03  0.71995372636E+03  0.35357766372E+01 0.  0.
         13    1    3    3    0    0 -0.19583758896E+02  0.25099220921E+02 -0.45661548661E+03  0.45772393112E+03  0.00000000000E+00 0.  1.
          3    1    3    3  501    0 -0.86044763982E+01  0.13825141984E+02 -0.26172369772E+03  0.26222979524E+03  0.00000000000E+00 0.  1.
         -3    1    1    2    0  502  0.28188235294E+02 -0.38924362905E+02 -0.27879759532E+03  0.28290949399E+03  0.00000000000E+00 0. -1.
<mgrwt>
<rscale>  1 0.30000000E+03</rscale>
<asrwt>0</asrwt>
<pdfrwt beam="1">  1       21 0.10411732E-01 0.30000000E+03</pdfrwt>
<pdfrwt beam="2">0</pdfrwt>
<totfact> 0.80040444E+03</totfact>
</mgrwt>
</event>
<event>
 6    1  0.8397183E-002  0.3000000E+03  0.7818608E-02  0.1093470E+00
         21   -1    0    0  501  502  0.00000000000E+00  0.00000000000E+00  0.21419068656E+01  0.21419068656E+01  0.00000000000E+00 0. -1.
         13   -1    0    0    0    0 -0.00000000000E+00 -0.00000000000E+00 -0.10000000000E+04  0.10000000000E+04  0.00000000000E+00 0.  1.
    9000005    2    1    2  501    0 -0.41123621073E+02 -0.15019623166E+02 -0.33895082163E+03  0.34178175231E+03  0.32195395084E+01 0.  0.
         13    1    3    3    0    0 -0.28048475568E+02 -0.11822783470E+02 -0.23459868844E+03  0.23656508578E+03  0.00000000000E+00 0.  1.
          1    1    3    3  501    0 -0.13075145504E+02 -0.31968396967E+01 -0.10435213319E+03  0.10521666652E+03  0.00000000000E+00 0.  1.
         -3    1    1    2    0  502  0.41123621073E+02  0.15019623166E+02 -0.65890727150E+03  0.66036015456E+03  0.00000000000E+00 0. -1.
<mgrwt>
<rscale>  1 0.30000000E+03</rscale>
<asrwt>0</asrwt>
<pdfrwt beam="1">  1       21 0.77887687E-02 0.30000000E+03</pdfrwt>
<pdfrwt beam="2">0</pdfrwt>
<totfact> 0.13388122E+04</totfact>
</mgrwt>
</event>
<event>
 6    1  0.8397183E-002  0.3000000E+03  0.7818608E-02  0.1093470E+00
         21   -1    0    0  501  502  0.00000000000E+00  0.00000000000E+00  0.12020684078E+01  0.12020684078E+01  0.00000000000E+00 0. -1.
         13   -1    0    0    0    0 -0.00000000000E+00 -0.00000000000E+00 -0.10000000000E+04  0.10000000000E+04  0.00000000000E+00 0.  1.
    9000005    2    1    2  501    0 -0.14335319669E+02  0.29844396434E+02 -0.35475526435E+03  0.35630894035E+03  0.29281393910E+01 0.  0.
         13    1    3    3    0    0 -0.62728647191E+01  0.13188369716E+02 -0.14106779480E+03  0.14182173549E+03  0.00000000000E+00 0.  1.
          3    1    3    3  501    0 -0.80624549503E+01  0.16656026718E+02 -0.21368746955E+03  0.21448720486E+03  0.00000000000E+00 0.  1.
         -3    1    1    2    0  502  0.14335319669E+02 -0.29844396434E+02 -0.64404266724E+03  0.64489312806E+03  0.00000000000E+00 0. -1.
<mgrwt>
<rscale>  1 0.30000000E+03</rscale>
<asrwt>0</asrwt>
<pdfrwt beam="1">  1       21 0.43711671E-02 0.30000000E+03</pdfrwt>
<pdfrwt beam="2">0</pdfrwt>
<totfact> 0.36197199E+04</totfact>
</mgrwt>
</event>
<event>
 6    1  0.8397183E-002  0.3000000E+03  0.7818608E-02  0.1093470E+00
         21   -1    0    0  501  502  0.00000000000E+00  0.00000000000E+00  0.14883543623E+01  0.14883543623E+01  0.00000000000E+00 0. -1.
         13   -1    0    0    0    0 -0.00000000000E+00 -0.00000000000E+00 -0.10000000000E+04  0.10000000000E+04  0.00000000000E+00 0.  1.
    9000005    2    1    2  501    0 -0.33524495342E+02 -0.12471151860E+02 -0.31476848940E+03  0.31681023647E+03  0.31784583275E+01 0.  0.
         13    1    3    3    0    0 -0.21204786771E+02 -0.83882900316E+01 -0.18745600095E+03  0.18883791643E+03  0.00000000000E+00 0.  1.
          1    1    3    3  501    0 -0.12319708570E+02 -0.40828618282E+01 -0.12731248846E+03  0.12797232004E+03  0.00000000000E+00 0.  1.
         -3    1    1    2    0  502  0.33524495342E+02  0.12471151860E+02 -0.68374315623E+03  0.68467811789E+03  0.00000000000E+00 0. -1.
<mgrwt>
<rscale>  1 0.30000000E+03</rscale>
<asrwt>0</asrwt>
<pdfrwt beam="1">  1       21 0.54122091E-02 0.30000000E+03</pdfrwt>
<pdfrwt beam="2">0</pdfrwt>
<totfact> 0.25158399E+04</totfact>
</mgrwt>
</event>
<event>
 6    1  0.8397183E-002  0.3000000E+03  0.7818608E-02  0.1093470E+00
         21   -1    0    0  501  502  0.00000000000E+00  0.00000000000E+00  0.11325756486E+01  0.11325756486E+01  0.00000000000E+00 0. -1.
         13   -1    0    0    0    0 -0.00000000000E+00 -0.00000000000E+00 -0.10000000000E+04  0.10000000000E+04  0.00000000000E+00 0.  1.
    9000005    2    1    2  501    0  0.11728207675E+02 -0.31213166589E+02 -0.55709229701E+03  0.55810088856E+03  0.36002505602E+01 0.  0.
         13    1    3    3    0    0  0.11883834906E+02 -0.29677472829E+02 -0.53564120944E+03  0.53659433763E+03  0.00000000000E+00 0.  1.
          1    1    3    3  501    0 -0.15562723162E+00 -0.15356937597E+01 -0.21451087570E+02  0.21506550934E+02  0.00000000000E+00 0.  1.
         -1    1    1    2    0  502 -0.11728207675E+02  0.31213166589E+02 -0.44177512734E+03  0.44303168709E+03  0.00000000000E+00 0. -1.
<mgrwt>
<rscale>  1 0.30000000E+03</rscale>
<asrwt>0</asrwt>
<pdfrwt beam="1">  1       21 0.41184656E-02 0.30000000E+03</pdfrwt>
<pdfrwt beam="2">0</pdfrwt>
<totfact> 0.40029126E+04</totfact>
</mgrwt>
</event>
<event>
 6    1  0.8397183E-002  0.3000000E+03  0.7818608E-02  0.1093470E+00
         21   -1    0    0  501  502  0.00000000000E+00  0.00000000000E+00  0.15841491806E+01  0.15841491806E+01  0.00000000000E+00 0. -1.
         13   -1    0    0    0    0 -0.00000000000E+00 -0.00000000000E+00 -0.10000000000E+04  0.10000000000E+04  0.00000000000E+00 0.  1.
    9000005    2    1    2  501    0  0.30249263974E+02  0.22960047309E+02 -0.35272873047E+03  0.35478121232E+03  0.31574633106E+01 0.  0.
         13    1    3    3    0    0  0.75481013433E+01  0.53112275775E+01 -0.74057087981E+02  0.74629988962E+02  0.00000000000E+00 0.  1.
          3    1    3    3  501    0  0.22701162630E+02  0.17648819731E+02 -0.27867164249E+03  0.28015122336E+03  0.00000000000E+00 0.  1.
         -1    1    1    2    0  502 -0.30249263974E+02 -0.22960047309E+02 -0.64568712035E+03  0.64680293686E+03  0.00000000000E+00 0. -1.
<mgrwt>
<rscale>  1 0.30000000E+03</rscale>
<asrwt>0</asrwt>
<pdfrwt beam="1">  1       21 0.57605546E-02 0.30000000E+03</pdfrwt>
<pdfrwt beam="2">0</pdfrwt>
<totfact> 0.22603580E+04</totfact>
</mgrwt>
</event>
<event>
 6    1  0.8397183E-002  0.3000000E+03  0.7818608E-02  0.1093470E+00
         21   -1    0    0  501  502  0.00000000000E+00  0.00000000000E+00  0.11484329738E+01  0.11484329738E+01  0.00000000000E+00 0. -1.
         13   -1    0    0    0    0 -0.00000000000E+00 -0.00000000000E+00 -0.10000000000E+04  0.10000000000E+04  0.00000000000E+00 0.  1.
    9000005    2    1    2  501    0 -0.31401322383E+02 -0.48750683548E+01 -0.33476046212E+03  0.33629746851E+03  0.46487617222E+01 0.  0.
         13    1    3    3    0    0 -0.38053592846E+01  0.88794127657E+00 -0.44449244521E+02  0.44620673879E+02  0.00000000000E+00 0.  1.
          3    1    3    3  501    0 -0.27595963099E+02 -0.57630096314E+01 -0.29031121760E+03  0.29167679463E+03  0.00000000000E+00 0.  1.
         -1    1    1    2    0  502  0.31401322383E+02  0.48750683548E+01 -0.66409110490E+03  0.66485096446E+03  0.00000000000E+00 0. -1.
<mgrwt>
<rscale>  1 0.30000000E+03</rscale>
<asrwt>0</asrwt>
<pdfrwt beam="1">  1       21 0.41761287E-02 0.30000000E+03</pdfrwt>
<pdfrwt beam="2">0</pdfrwt>
<totfact> 0.39100934E+04</totfact>
</mgrwt>
</event>
<event>
 6    1  0.8397183E-002  0.3000000E+03  0.7818608E-02  0.1093470E+00
         21   -1    0    0  501  502  0.00000000000E+00  0.00000000000E+00  0.10839328799E+01  0.10839328799E+01  0.00000000000E+00 0. -1.
         13   -1    0    0    0    0 -0.00000000000E+00 -0.00000000000E+00 -0.10000000000E+04  0.10000000000E+04  0.00000000000E+00 0.  1.
    9000005    2    1    2  501    0  0.19336632325E+02  0.25052359288E+02 -0.63392773838E+03  0.63472617580E+03  0.33785652838E+01 0.  0.
         13    1    3    3    0    0  0.10456275433E+02  0.10797264326E+02 -0.30234320914E+03  0.30271658482E+03  0.00000000000E+00 0.  1.
          1    1    3    3  501    0  0.88803568922E+01  0.14255094962E+02 -0.33158452924E+03  0.33200959098E+03  0.00000000000E+00 0.  1.
         -3    1    1    2    0  502 -0.19336632325E+02 -0.25052359288E+02 -0.36498832874E+03  0.36635775708E+03  0.00000000000E+00 0. -1.
<mgrwt>
<rscale>  1 0.30000000E+03</rscale>
<asrwt>0</asrwt>
<pdfrwt beam="1">  1       21 0.39415824E-02 0.30000000E+03</pdfrwt>
<pdfrwt beam="2">0</pdfrwt>
<totfact> 0.43101696E+04</totfact>
</mgrwt>
</event>
<event>
 6    1  0.8397183E-002  0.3000000E+03  0.7818608E-02  0.1093470E+00
         21   -1    0    0  501  502  0.00000000000E+00  0.00000000000E+00  0.36707001151E+01  0.36707001151E+01  0.00000000000E+00 0. -1.
         13   -1    0    0    0    0 -0.00000000000E+00 -0.00000000000E+00 -0.10000000000E+04  0.10000000000E+04  0.00000000000E+00 0.  1.
    9000005    2    1    2  501    0  0.56677413714E+02  0.21014834686E+02 -0.47082718312E+03  0.47470337860E+03  0.33329853587E+01 0.  0.
         13    1    3    3    0    0  0.24977697124E+02  0.10759231154E+02 -0.21852900661E+03  0.22021483406E+03  0.00000000000E+00 0.  1.
          3    1    3    3  501    0  0.31699716589E+02  0.10255603532E+02 -0.25229817650E+03  0.25448854454E+03  0.00000000000E+00 0.  1.
         -3    1    1    2    0  502 -0.56677413714E+02 -0.21014834686E+02 -0.52550211677E+03  0.52896732151E+03  0.00000000000E+00 0. -1.
<mgrwt>
<rscale>  1 0.30000000E+03</rscale>
<asrwt>0</asrwt>
<pdfrwt beam="1">  1       21 0.13348029E-01 0.30000000E+03</pdfrwt>
<pdfrwt beam="2">0</pdfrwt>
<totfact> 0.51039897E+03</totfact>
</mgrwt>
</event>
<event>
 6    1  0.8397183E-002  0.3000000E+03  0.7818608E-02  0.1093470E+00
         21   -1    0    0  501  502  0.00000000000E+00  0.00000000000E+00  0.11020230955E+01  0.11020230955E+01  0.00000000000E+00 0. -1.
         13   -1    0    0    0    0 -0.00000000000E+00 -0.00000000000E+00 -0.10000000000E+04  0.10000000000E+04  0.00000000000E+00 0.  1.
    9000005    2    1    2  501    0  0.31328631222E+02 -0.81874134203E+01 -0.39646483547E+03  0.39779927425E+03  0.33734184945E+01 0.  0.
         13    1    3    3    0    0  0.18624688279E+01 -0.12282961645E+01 -0.22219778277E+02  0.22331503494E+02  0.00000000000E+00 0.  1.
          3    1    3    3  501    0  0.29466162394E+02 -0.69591172557E+01 -0.37424505719E+03  0.37546777075E+03  0.00000000000E+00 0.  1.
         -3    1    1    2    0  502 -0.31328631222E+02  0.81874134203E+01 -0.60243314143E+03  0.60330274885E+03  0.00000000000E+00 0. -1.
<mgrwt>
<rscale>  1 0.30000000E+03</rscale>
<asrwt>0</asrwt>
<pdfrwt beam="1">  1       21 0.40073652E-02 0.30000000E+03</pdfrwt>
<pdfrwt beam="2">0</pdfrwt>
<totfact> 0.41917259E+04</totfact>
</mgrwt>
</event>
<event>
 6    1  0.8397183E-002  0.3000000E+03  0.7818608E-02  0.1093470E+00
         21   -1    0    0  501  502  0.00000000000E+00  0.00000000000E+00  0.15730599729E+01  0.15730599729E+01  0.00000000000E+00 0. -1.
         13   -1    0    0    0    0 -0.00000000000E+00 -0.00000000000E+00 -0.10000000000E+04  0.10000000000E+04  0.00000000000E+00 0.  1.
    9000005    2    1    2  501    0  0.41892978155E+01 -0.39014354006E+02 -0.56783362456E+03  0.56919559367E+03  0.29880841423E+01 0.  0.
         13    1    3    3    0    0  0.11964002027E+00 -0.89667053884E+01 -0.11660153560E+03  0.11694586022E+03  0.00000000000E+00 0.  1.
          1    1    3    3  501    0  0.40696577952E+01 -0.30047648618E+02 -0.45123208896E+03  0.45224973345E+03  0.00000000000E+00 0.  1.
         -1    1    1    2    0  502 -0.41892978155E+01  0.39014354006E+02 -0.43059331547E+03  0.43237746630E+03  0.00000000000E+00 0. -1.
<mgrwt>
<rscale>  1 0.30000000E+03</rscale>
<asrwt>0</asrwt>
<pdfrwt beam="1">  1       21 0.57202301E-02 0.30000000E+03</pdfrwt>
<pdfrwt beam="2">0</pdfrwt>
<totfact> 0.22878437E+04</totfact>
</mgrwt>
</event>
<event>
 6    1  0.8397183E-002  0.3000000E+03  0.7818608E-02  0.1093470E+00
         21   -1    0    0  501  502  0.00000000000E+00  0.00000000000E+00  0.41709135434E+01  0.41709135434E+01  0.00000000000E+00 0. -1.
         13   -1    0    0    0    0 -0.00000000000E+00 -0.00000000000E+00 -0.10000000000E+04  0.10000000000E+04  0.00000000000E+00 0.  1.
    9000005    2    1    2  501    0 -0.51784857378E+02 -0.83806277850E+01 -0.20585355746E+03  0.21245553363E+03  0.31241440311E+01 0.  0.
         13    1    3    3    0    0 -0.49022651310E+02 -0.81991027671E+01 -0.19734671352E+03  0.20350963359E+03  0.00000000000E+00 0.  1.
          1    1    3    3  501    0 -0.27622060687E+01 -0.18152501787E+00 -0.85068439455E+01  0.89459000447E+01  0.00000000000E+00 0.  1.
         -1    1    1    2    0  502  0.51784857378E+02  0.83806277850E+01 -0.78997552899E+03  0.79171537991E+03  0.00000000000E+00 0. -1.
<mgrwt>
<rscale>  1 0.30000000E+03</rscale>
<asrwt>0</asrwt>
<pdfrwt beam="1">  1       21 0.15166990E-01 0.30000000E+03</pdfrwt>
<pdfrwt beam="2">0</pdfrwt>
<totfact> 0.40344544E+03</totfact>
</mgrwt>
</event>
<event>
 6    1  0.8397183E-002  0.3000000E+03  0.7818608E-02  0.1093470E+00
         21   -1    0    0  501  502  0.00000000000E+00  0.00000000000E+00  0.26424386414E+01  0.26424386414E+01  0.00000000000E+00 0. -1.
         13   -1    0    0    0    0 -0.00000000000E+00 -0.00000000000E+00 -0.10000000000E+04  0.10000000000E+04  0.00000000000E+00 0.  1.
    9000005    2    1    2  501    0 -0.18987411130E+02 -0.47435486135E+02 -0.55021467379E+03  0.55258976502E+03  0.29349667794E+01 0.  0.
         13    1    3    3    0    0 -0.18385513567E+02 -0.44337966993E+02 -0.51192543400E+03  0.51417072301E+03  0.00000000000E+00 0.  1.
          1    1    3    3  501    0 -0.60189756267E+00 -0.30975191421E+01 -0.38289239788E+02  0.38419042011E+02  0.00000000000E+00 0.  1.
         -3    1    1    2    0  502  0.18987411130E+02  0.47435486135E+02 -0.44714288757E+03  0.45005267362E+03  0.00000000000E+00 0. -1.
<mgrwt>
<rscale>  1 0.30000000E+03</rscale>
<asrwt>0</asrwt>
<pdfrwt beam="1">  1       21 0.96088880E-02 0.30000000E+03</pdfrwt>
<pdfrwt beam="2">0</pdfrwt>
<totfact> 0.92381569E+03</totfact>
</mgrwt>
</event>
<event>
 6    1  0.8397183E-002  0.3000000E+03  0.7818608E-02  0.1093470E+00
         21   -1    0    0  501  502  0.00000000000E+00  0.00000000000E+00  0.12964432483E+01  0.12964432483E+01  0.00000000000E+00 0. -1.
         13   -1    0    0    0    0 -0.00000000000E+00 -0.00000000000E+00 -0.10000000000E+04  0.10000000000E+04  0.00000000000E+00 0.  1.
    9000005    2    1    2  501    0  0.19887384097E+01  0.32296697302E+02 -0.28159597931E+03  0.28345919891E+03  0.24062720513E+01 0.  0.
         13    1    3    3    0    0  0.22147576300E+01  0.19147633422E+02 -0.17235249065E+03  0.17342698190E+03  0.00000000000E+00 0.  1.
          3    1    3    3  501    0 -0.22601922035E+00  0.13149063880E+02 -0.10924348866E+03  0.11003221701E+03  0.00000000000E+00 0.  1.
         -3    1    1    2    0  502 -0.19887384097E+01 -0.32296697302E+02 -0.71710757744E+03  0.71783724434E+03  0.00000000000E+00 0. -1.
<mgrwt>
<rscale>  1 0.30000000E+03</rscale>
<asrwt>0</asrwt>
<pdfrwt beam="1">  1       21 0.47143490E-02 0.30000000E+03</pdfrwt>
<pdfrwt beam="2">0</pdfrwt>
<totfact> 0.31838879E+04</totfact>
</mgrwt>
</event>
<event>
 6    1  0.8397183E-002  0.3000000E+03  0.7818608E-02  0.1093470E+00
         21   -1    0    0  501  502  0.00000000000E+00  0.00000000000E+00  0.16626927132E+01  0.16626927132E+01  0.00000000000E+00 0. -1.
         13   -1    0    0    0    0 -0.00000000000E+00 -0.00000000000E+00 -0.10000000000E+04  0.10000000000E+04  0.00000000000E+00 0.  1.
    9000005    2    1    2  501    0  0.32358402609E+02 -0.23563085014E+02 -0.40851734861E+03  0.41048601113E+03  0.31711233038E+01 0.  0.
         13    1    3    3    0    0  0.22067111341E+02 -0.17843115686E+02 -0.29032892501E+03  0.29171256208E+03  0.00000000000E+00 0.  1.
          3    1    3    3  501    0  0.10291291268E+02 -0.57199693274E+01 -0.11818842360E+03  0.11877344905E+03  0.00000000000E+00 0.  1.
         -1    1    1    2    0  502 -0.32358402609E+02  0.23563085014E+02 -0.58981995868E+03  0.59117668159E+03  0.00000000000E+00 0. -1.
<mgrwt>
<rscale>  1 0.30000000E+03</rscale>
<asrwt>0</asrwt>
<pdfrwt beam="1">  1       21 0.60461681E-02 0.30000000E+03</pdfrwt>
<pdfrwt beam="2">0</pdfrwt>
<totfact> 0.20794894E+04</totfact>
</mgrwt>
</event>
<event>
 6    1  0.8397183E-002  0.3000000E+03  0.7818608E-02  0.1093470E+00
         21   -1    0    0  501  502  0.00000000000E+00  0.00000000000E+00  0.15171512784E+01  0.15171512784E+01  0.00000000000E+00 0. -1.
         13   -1    0    0    0    0 -0.00000000000E+00 -0.00000000000E+00 -0.10000000000E+04  0.10000000000E+04  0.00000000000E+00 0.  1.
    9000005    2    1    2  501    0  0.14675409694E+01  0.32027656767E+02 -0.21735085030E+03  0.21972745870E+03  0.32923400566E+01 0.  0.
         13    1    3    3    0    0  0.15079964462E+01  0.28048705396E+02 -0.18227504866E+03  0.18442667186E+03  0.00000000000E+00 0.  1.
          3    1    3    3  501    0 -0.40455476790E-01  0.39789513715E+01 -0.35075801642E+02  0.35300786840E+02  0.00000000000E+00 0.  1.
         -1    1    1    2    0  502 -0.14675409694E+01 -0.32027656767E+02 -0.78113199842E+03  0.78178969258E+03  0.00000000000E+00 0. -1.
<mgrwt>
<rscale>  1 0.30000000E+03</rscale>
<asrwt>0</asrwt>
<pdfrwt beam="1">  1       21 0.55169254E-02 0.30000000E+03</pdfrwt>
<pdfrwt beam="2">0</pdfrwt>
<totfact> 0.24345531E+04</totfact>
</mgrwt>
</event>
<event>
 6    1  0.8397183E-002  0.3000000E+03  0.7818608E-02  0.1093470E+00
         21   -1    0    0  501  502  0.00000000000E+00  0.00000000000E+00  0.16921558265E+01  0.16921558265E+01  0.00000000000E+00 0. -1.
         13   -1    0    0    0    0 -0.00000000000E+00 -0.00000000000E+00 -0.10000000000E+04  0.10000000000E+04  0.00000000000E+00 0.  1.
    9000005    2    1    2  501    0  0.33601464451E-01  0.40240114634E+02 -0.39983671593E+03  0.40186971602E+03  0.32559627059E+01 0.  0.
         13    1    3    3    0    0 -0.72022687185E+00  0.14102347228E+02 -0.12686302361E+03  0.12764647149E+03  0.00000000000E+00 0.  1.
          1    1    3    3  501    0  0.75382833630E+00  0.26137767406E+02 -0.27297369232E+03  0.27422324453E+03  0.00000000000E+00 0.  1.
         -3    1    1    2    0  502 -0.33601464451E-01 -0.40240114634E+02 -0.59847112824E+03  0.59982243980E+03  0.00000000000E+00 0. -1.
<mgrwt>
<rscale>  1 0.30000000E+03</rscale>
<asrwt>0</asrwt>
<pdfrwt beam="1">  1       21 0.61533069E-02 0.30000000E+03</pdfrwt>
<pdfrwt beam="2">0</pdfrwt>
<totfact> 0.20173978E+04</totfact>
</mgrwt>
</event>
<event>
 6    1  0.8397183E-002  0.3000000E+03  0.7818608E-02  0.1093470E+00
         21   -1    0    0  501  502  0.00000000000E+00  0.00000000000E+00  0.19825487011E+01  0.19825487011E+01  0.00000000000E+00 0. -1.
         13   -1    0    0    0    0 -0.00000000000E+00 -0.00000000000E+00 -0.10000000000E+04  0.10000000000E+04  0.00000000000E+00 0.  1.
    9000005    2    1    2  501    0  0.10765011886E+02 -0.41344251864E+02 -0.36280109702E+03  0.36533111393E+03  0.41175440210E+01 0.  0.
         13    1    3    3    0    0  0.66349519817E+01 -0.21949152808E+02 -0.17870398510E+03  0.18016909332E+03  0.00000000000E+00 0.  1.
          1    1    3    3  501    0  0.41300599038E+01 -0.19395099057E+02 -0.18409711192E+03  0.18516202062E+03  0.00000000000E+00 0.  1.
         -3    1    1    2    0  502 -0.10765011886E+02  0.41344251864E+02 -0.63521635428E+03  0.63665143477E+03  0.00000000000E+00 0. -1.
<mgrwt>
<rscale>  1 0.30000000E+03</rscale>
<asrwt>0</asrwt>
<pdfrwt beam="1">  1       21 0.72092832E-02 0.30000000E+03</pdfrwt>
<pdfrwt beam="2">0</pdfrwt>
<totfact> 0.15327918E+04</totfact>
</mgrwt>
</event>
<event>
 6    1  0.8397183E-002  0.3000000E+03  0.7818608E-02  0.1093470E+00
         21   -1    0    0  501  502  0.00000000000E+00  0.00000000000E+00  0.15465323396E+01  0.15465323396E+01  0.00000000000E+00 0. -1.
         13   -1    0    0    0    0 -0.00000000000E+00 -0.00000000000E+00 -0.10000000000E+04  0.10000000000E+04  0.00000000000E+00 0.  1.
    9000005    2    1    2  501    0  0.35280928961E+02 -0.17157795905E+02 -0.49619684716E+03  0.49776002324E+03  0.38204320746E+01 0.  0.
         13    1    3    3    0    0  0.26679022818E+02 -0.11156470769E+02 -0.35883905171E+03  0.36000236406E+03  0.00000000000E+00 0.  1.
          1    1    3    3  501    0  0.86019061432E+01 -0.60013251366E+01 -0.13735779544E+03  0.13775765918E+03  0.00000000000E+00 0.  1.
         -3    1    1    2    0  502 -0.35280928961E+02  0.17157795905E+02 -0.50225662050E+03  0.50378650910E+03  0.00000000000E+00 0. -1.
<mgrwt>
<rscale>  1 0.30000000E+03</rscale>
<asrwt>0</asrwt>
<pdfrwt beam="1">  1       21 0.56237658E-02 0.30000000E+03</pdfrwt>
<pdfrwt beam="2">0</pdfrwt>
<totfact> 0.23557112E+04</totfact>
</mgrwt>
</event>
<event>
 6    1  0.8397183E-002  0.3000000E+03  0.7818608E-02  0.1093470E+00
         21   -1    0    0  501  502  0.00000000000E+00  0.00000000000E+00  0.51021116805E+01  0.51021116805E+01  0.00000000000E+00 0. -1.
         13   -1    0    0    0    0 -0.00000000000E+00 -0.00000000000E+00 -0.10000000000E+04  0.10000000000E+04  0.00000000000E+00 0.  1.
    9000005    2    1    2  501    0 -0.64232705246E+01  0.67997666822E+02 -0.35162229451E+03  0.35821075242E+03  0.34298766694E+01 0.  0.
         13    1    3    3    0    0 -0.36563305881E+01  0.35624875651E+02 -0.17549602867E+03  0.17911269246E+03  0.00000000000E+00 0.  1.
          3    1    3    3  501    0 -0.27669399365E+01  0.32372791171E+02 -0.17612626584E+03  0.17909805996E+03  0.00000000000E+00 0.  1.
         -1    1    1    2    0  502  0.64232705246E+01 -0.67997666822E+02 -0.64327559381E+03  0.64689135926E+03  0.00000000000E+00 0. -1.
<mgrwt>
<rscale>  1 0.30000000E+03</rscale>
<asrwt>0</asrwt>
<pdfrwt beam="1">  1       21 0.18553173E-01 0.30000000E+03</pdfrwt>
<pdfrwt beam="2">0</pdfrwt>
<totfact> 0.27669476E+03</totfact>
</mgrwt>
</event>
<event>
 6    1  0.8397183E-002  0.3000000E+03  0.7818608E-02  0.1093470E+00
         21   -1    0    0  501  502  0.00000000000E+00  0.00000000000E+00  0.12288604587E+01  0.12288604587E+01  0.00000000000E+00 0. -1.
         13   -1    0    0    0    0 -0.00000000000E+00 -0.00000000000E+00 -0.10000000000E+04  0.10000000000E+04  0.00000000000E+00 0.  1.
    9000005    2    1    2  501    0  0.28526899629E+02 -0.12867128686E+02 -0.27631704214E+03  0.27809728885E+03  0.27653727768E+01 0.  0.
         13    1    3    3    0    0  0.78075035868E+01 -0.35623059860E+01 -0.65329641714E+02  0.65890888769E+02  0.00000000000E+00 0.  1.
          1    1    3    3  501    0  0.20719396042E+02 -0.93048227004E+01 -0.21098740043E+03  0.21220640008E+03  0.00000000000E+00 0.  1.
         -3    1    1    2    0  502 -0.28526899629E+02  0.12867128686E+02 -0.72245409740E+03  0.72313157161E+03  0.00000000000E+00 0. -1.
<mgrwt>
<rscale>  1 0.30000000E+03</rscale>
<asrwt>0</asrwt>
<pdfrwt beam="1">  1       21 0.44685929E-02 0.30000000E+03</pdfrwt>
<pdfrwt beam="2">0</pdfrwt>
<totfact> 0.34870045E+04</totfact>
</mgrwt>
</event>
<event>
 6    1  0.8397183E-002  0.3000000E+03  0.7818608E-02  0.1093470E+00
         21   -1    0    0  501  502  0.00000000000E+00  0.00000000000E+00  0.12356412970E+01  0.12356412970E+01  0.00000000000E+00 0. -1.
         13   -1    0    0    0    0 -0.00000000000E+00 -0.00000000000E+00 -0.10000000000E+04  0.10000000000E+04  0.00000000000E+00 0.  1.
    9000005    2    1    2  501    0  0.31970819779E+02 -0.14010135610E+02 -0.50360003560E+03  0.50484252683E+03  0.58791004079E+01 0.  0.
         13    1    3    3    0    0  0.22965807896E+02 -0.74213967197E+01 -0.32582678466E+03  0.32671945009E+03  0.00000000000E+00 0.  1.
          1    1    3    3  501    0  0.90050118829E+01 -0.65887388905E+01 -0.17777325094E+03  0.17812307674E+03  0.00000000000E+00 0.  1.
         -3    1    1    2    0  502 -0.31970819779E+02  0.14010135610E+02 -0.49516432310E+03  0.49639311447E+03  0.00000000000E+00 0. -1.
<mgrwt>
<rscale>  1 0.30000000E+03</rscale>
<asrwt>0</asrwt>
<pdfrwt beam="1">  1       21 0.44932506E-02 0.30000000E+03</pdfrwt>
<pdfrwt beam="2">0</pdfrwt>
<totfact> 0.34546062E+04</totfact>
</mgrwt>
</event>
<event>
 6    1  0.8397183E-002  0.3000000E+03  0.7818608E-02  0.1093470E+00
         21   -1    0    0  501  502  0.00000000000E+00  0.00000000000E+00  0.10423954418E+01  0.10423954418E+01  0.00000000000E+00 0. -1.
         13   -1    0    0    0    0 -0.00000000000E+00 -0.00000000000E+00 -0.10000000000E+04  0.10000000000E+04  0.00000000000E+00 0.  1.
    9000005    2    1    2  501    0 -0.25420557510E+02 -0.19792135439E+02 -0.49819912400E+03  0.49924862383E+03  0.29812548730E+01 0.  0.
         13    1    3    3    0    0 -0.95727066977E+01 -0.74306117033E+01 -0.21020671223E+03  0.21055572319E+03  0.00000000000E+00 0.  1.
          1    1    3    3  501    0 -0.15847850812E+02 -0.12361523735E+02 -0.28799241177E+03  0.28869290064E+03  0.00000000000E+00 0.  1.
         -3    1    1    2    0  502  0.25420557510E+02  0.19792135439E+02 -0.50075848056E+03  0.50179377161E+03  0.00000000000E+00 0. -1.
<mgrwt>
<rscale>  1 0.30000000E+03</rscale>
<asrwt>0</asrwt>
<pdfrwt beam="1">  1       21 0.37905369E-02 0.30000000E+03</pdfrwt>
<pdfrwt beam="2">0</pdfrwt>
<totfact> 0.46028494E+04</totfact>
</mgrwt>
</event>
<event>
 6    1  0.8939818E-002  0.3000000E+03  0.7818608E-02  0.1093470E+00
         21   -1    0    0  501  502  0.00000000000E+00  0.00000000000E+00  0.49745081279E+01  0.49745081279E+01  0.00000000000E+00 0. -1.
         13   -1    0    0    0    0 -0.00000000000E+00 -0.00000000000E+00 -0.10000000000E+04  0.10000000000E+04  0.00000000000E+00 0.  1.
    9000005    2    1    2  501    0  0.11854506106E+02  0.51450310923E+02 -0.83027499208E+03  0.83197048797E+03  0.55377405643E+01 0.  0.
         13    1    3    3    0    0  0.91425068364E+01  0.39708677873E+02 -0.67482318900E+03  0.67605229157E+03  0.00000000000E+00 0.  1.
          1    1    3    3  501    0  0.27119992699E+01  0.11741633050E+02 -0.15545180308E+03  0.15591819639E+03  0.00000000000E+00 0.  1.
         -1    1    1    2    0  502 -0.11854506106E+02 -0.51450310923E+02 -0.16475049980E+03  0.17300402016E+03  0.00000000000E+00 0. -1.
<mgrwt>
<rscale>  1 0.30000000E+03</rscale>
<asrwt>0</asrwt>
<pdfrwt beam="1">  1       21 0.18089159E-01 0.30000000E+03</pdfrwt>
<pdfrwt beam="2">0</pdfrwt>
<totfact> 0.29024091E+03</totfact>
</mgrwt>
</event>
<event>
 6    1  0.8397183E-002  0.3000000E+03  0.7818608E-02  0.1093470E+00
         21   -1    0    0  501  502  0.00000000000E+00  0.00000000000E+00  0.23934513023E+01  0.23934513023E+01  0.00000000000E+00 0. -1.
         13   -1    0    0    0    0 -0.00000000000E+00 -0.00000000000E+00 -0.10000000000E+04  0.10000000000E+04  0.00000000000E+00 0.  1.
    9000005    2    1    2  501    0 -0.32415525166E+02 -0.33805068621E+02 -0.63756686183E+03  0.63932028367E+03  0.67359386231E+01 0.  0.
         13    1    3    3    0    0 -0.25626750640E+02 -0.28753695880E+02 -0.49031042081E+03  0.49182091673E+03  0.00000000000E+00 0.  1.
          3    1    3    3  501    0 -0.67887745259E+01 -0.50513727414E+01 -0.14725644102E+03  0.14749936694E+03  0.00000000000E+00 0.  1.
         -1    1    1    2    0  502  0.32415525166E+02  0.33805068621E+02 -0.36003968687E+03  0.36307316763E+03  0.00000000000E+00 0. -1.
<mgrwt>
<rscale>  1 0.30000000E+03</rscale>
<asrwt>0</asrwt>
<pdfrwt beam="1">  1       21 0.87034776E-02 0.30000000E+03</pdfrwt>
<pdfrwt beam="2">0</pdfrwt>
<totfact> 0.11011760E+04</totfact>
</mgrwt>
</event>
<event>
 6    1  0.8397183E-002  0.3000000E+03  0.7818608E-02  0.1093470E+00
         21   -1    0    0  501  502  0.00000000000E+00  0.00000000000E+00  0.81547719171E+01  0.81547719171E+01  0.00000000000E+00 0. -1.
         13   -1    0    0    0    0 -0.00000000000E+00 -0.00000000000E+00 -0.10000000000E+04  0.10000000000E+04  0.00000000000E+00 0.  1.
    9000005    2    1    2  501    0 -0.68637262060E+02 -0.57136975443E+02 -0.57004666065E+03  0.57700544837E+03  0.25267420976E+01 0.  0.
         13    1    3    3    0    0 -0.10158682665E+02 -0.79482027807E+01 -0.87609008575E+02  0.88553436661E+02  0.00000000000E+00 0.  1.
          3    1    3    3  501    0 -0.58478579395E+02 -0.49188772663E+02 -0.48243765207E+03  0.48845201171E+03  0.00000000000E+00 0.  1.
         -1    1    1    2    0  502  0.68637262060E+02  0.57136975443E+02 -0.42179856744E+03  0.43114932355E+03  0.00000000000E+00 0. -1.
<mgrwt>
<rscale>  1 0.30000000E+03</rscale>
<asrwt>0</asrwt>
<pdfrwt beam="1">  1       21 0.29653779E-01 0.30000000E+03</pdfrwt>
<pdfrwt beam="2">0</pdfrwt>
<totfact> 0.11128012E+03</totfact>
</mgrwt>
</event>
<event>
 6    1  0.8397183E-002  0.3000000E+03  0.7818608E-02  0.1093470E+00
         21   -1    0    0  501  502  0.00000000000E+00  0.00000000000E+00  0.13224831575E+01  0.13224831575E+01  0.00000000000E+00 0. -1.
         13   -1    0    0    0    0 -0.00000000000E+00 -0.00000000000E+00 -0.10000000000E+04  0.10000000000E+04  0.00000000000E+00 0.  1.
    9000005    2    1    2  501    0  0.16313568818E+02  0.31100031210E+02 -0.62571441697E+03  0.62670959184E+03  0.36106012397E+01 0.  0.
         13    1    3    3    0    0  0.29445236360E+01  0.66435383981E+01 -0.15570196727E+03  0.15587145164E+03  0.00000000000E+00 0.  1.
          1    1    3    3  501    0  0.13369045182E+02  0.24456492812E+02 -0.47001244969E+03  0.47083814021E+03  0.00000000000E+00 0.  1.
         -3    1    1    2    0  502 -0.16313568818E+02 -0.31100031210E+02 -0.37296309988E+03  0.37461289131E+03  0.00000000000E+00 0. -1.
<mgrwt>
<rscale>  1 0.30000000E+03</rscale>
<asrwt>0</asrwt>
<pdfrwt beam="1">  1       21 0.48090398E-02 0.30000000E+03</pdfrwt>
<pdfrwt beam="2">0</pdfrwt>
<totfact> 0.30779835E+04</totfact>
</mgrwt>
</event>
<event>
 6    1  0.8397183E-002  0.3000000E+03  0.7818608E-02  0.1093470E+00
         21   -1    0    0  501  502  0.00000000000E+00  0.00000000000E+00  0.12038468476E+01  0.12038468476E+01  0.00000000000E+00 0. -1.
         13   -1    0    0    0    0 -0.00000000000E+00 -0.00000000000E+00 -0.10000000000E+04  0.10000000000E+04  0.00000000000E+00 0.  1.
    9000005    2    1    2  501    0 -0.14581728407E+02 -0.29379743589E+02 -0.34066841760E+03  0.34225930257E+03  0.32654717038E+01 0.  0.
         13    1    3    3    0    0 -0.13947552726E+02 -0.25829199900E+02 -0.30386804967E+03  0.30528261236E+03  0.00000000000E+00 0.  1.
          3    1    3    3  501    0 -0.63417568088E+00 -0.35505436886E+01 -0.36800367929E+02  0.36976690212E+02  0.00000000000E+00 0.  1.
         -1    1    1    2    0  502  0.14581728407E+02  0.29379743589E+02 -0.65812773555E+03  0.65894454428E+03  0.00000000000E+00 0. -1.
<mgrwt>
<rscale>  1 0.30000000E+03</rscale>
<asrwt>0</asrwt>
<pdfrwt beam="1">  1       21 0.43776341E-02 0.30000000E+03</pdfrwt>
<pdfrwt beam="2">0</pdfrwt>
<totfact> 0.36106701E+04</totfact>
</mgrwt>
</event>
<event>
 6    1  0.8397183E-002  0.3000000E+03  0.7818608E-02  0.1093470E+00
         21   -1    0    0  501  502  0.00000000000E+00  0.00000000000E+00  0.15067993838E+01  0.15067993838E+01  0.00000000000E+00 0. -1.
         13   -1    0    0    0    0 -0.00000000000E+00 -0.00000000000E+00 -0.10000000000E+04  0.10000000000E+04  0.00000000000E+00 0.  1.
    9000005    2    1    2  501    0 -0.18648612986E+02 -0.33052487474E+02 -0.60089630297E+03  0.60210283006E+03  0.33486336914E+01 0.  0.
         13    1    3    3    0    0 -0.74193447712E+01 -0.15270456075E+02 -0.28907642867E+03  0.28957454156E+03  0.00000000000E+00 0.  1.
          3    1    3    3  501    0 -0.11229268215E+02 -0.17782031399E+02 -0.31181987429E+03  0.31252828850E+03  0.00000000000E+00 0.  1.
         -3    1    1    2    0  502  0.18648612986E+02  0.33052487474E+02 -0.39759689765E+03  0.39940396933E+03  0.00000000000E+00 0. -1.
<mgrwt>
<rscale>  1 0.30000000E+03</rscale>
<asrwt>0</asrwt>
<pdfrwt beam="1">  1       21 0.54792820E-02 0.30000000E+03</pdfrwt>
<pdfrwt beam="2">0</pdfrwt>
<totfact> 0.24633018E+04</totfact>
</mgrwt>
</event>
<event>
 6    1  0.8397183E-002  0.3000000E+03  0.7818608E-02  0.1093470E+00
         21   -1    0    0  501  502  0.00000000000E+00  0.00000000000E+00  0.10512077873E+01  0.10512077873E+01  0.00000000000E+00 0. -1.
         13   -1    0    0    0    0 -0.00000000000E+00 -0.00000000000E+00 -0.10000000000E+04  0.10000000000E+04  0.00000000000E+00 0.  1.
    9000005    2    1    2  501    0  0.30239926283E+02 -0.57135009428E+01 -0.34911861175E+03  0.35049270875E+03  0.37731391877E+01 0.  0.
         13    1    3    3    0    0  0.63526823522E+01 -0.27872671488E+01 -0.76345197094E+02  0.76659732262E+02  0.00000000000E+00 0.  1.
          3    1    3    3  501    0  0.23887243931E+02 -0.29262337940E+01 -0.27277341466E+03  0.27383297649E+03  0.00000000000E+00 0.  1.
         -1    1    1    2    0  502 -0.30239926283E+02  0.57135009428E+01 -0.64983018046E+03  0.65055849904E+03  0.00000000000E+00 0. -1.
<mgrwt>
<rscale>  1 0.30000000E+03</rscale>
<asrwt>0</asrwt>
<pdfrwt beam="1">  1       21 0.38225818E-02 0.30000000E+03</pdfrwt>
<pdfrwt beam="2">0</pdfrwt>
<totfact> 0.45382000E+04</totfact>
</mgrwt>
</event>
<event>
 6    1  0.8397183E-002  0.3000000E+03  0.7818608E-02  0.1093470E+00
         21   -1    0    0  501  502  0.00000000000E+00  0.00000000000E+00  0.16973962392E+01  0.16973962392E+01  0.00000000000E+00 0. -1.
         13   -1    0    0    0    0 -0.00000000000E+00 -0.00000000000E+00 -0.10000000000E+04  0.10000000000E+04  0.00000000000E+00 0.  1.
    9000005    2    1    2  501    0  0.37171299022E+02  0.16193678911E+02 -0.41543113091E+03  0.41741741663E+03  0.32147270615E+01 0.  0.
         13    1    3    3    0    0  0.20814148176E+01  0.63766961183E+00 -0.30385059882E+02  0.30462940997E+02  0.00000000000E+00 0.  1.
          1    1    3    3  501    0  0.35089884204E+02  0.15556009299E+02 -0.38504607103E+03  0.38695447563E+03  0.00000000000E+00 0.  1.
         -3    1    1    2    0  502 -0.37171299022E+02 -0.16193678911E+02 -0.58287147285E+03  0.58427997961E+03  0.00000000000E+00 0. -1.
<mgrwt>
<rscale>  1 0.30000000E+03</rscale>
<asrwt>0</asrwt>
<pdfrwt beam="1">  1       21 0.61723630E-02 0.30000000E+03</pdfrwt>
<pdfrwt beam="2">0</pdfrwt>
<totfact> 0.20066559E+04</totfact>
</mgrwt>
</event>
<event>
 6    1  0.8397183E-002  0.3000000E+03  0.7818608E-02  0.1093470E+00
         21   -1    0    0  501  502  0.00000000000E+00  0.00000000000E+00  0.10017005383E+01  0.10017005383E+01  0.00000000000E+00 0. -1.
         13   -1    0    0    0    0 -0.00000000000E+00 -0.00000000000E+00 -0.10000000000E+04  0.10000000000E+04  0.00000000000E+00 0.  1.
    9000005    2    1    2  501    0 -0.59046552448E+01 -0.30067792519E+02 -0.38233089280E+03  0.38357346379E+03  0.35711946052E+01 0.  0.
         13    1    3    3    0    0 -0.17345910825E+01 -0.31176604036E+01 -0.47601283071E+02  0.47734796141E+02  0.00000000000E+00 0.  1.
          1    1    3    3  501    0 -0.41700641623E+01 -0.26950132115E+02 -0.33472960973E+03  0.33583866764E+03  0.00000000000E+00 0.  1.
         -3    1    1    2    0  502  0.59046552448E+01  0.30067792519E+02 -0.61666740666E+03  0.61742823675E+03  0.00000000000E+00 0. -1.
<mgrwt>
<rscale>  1 0.30000000E+03</rscale>
<asrwt>0</asrwt>
<pdfrwt beam="1">  1       21 0.36425551E-02 0.30000000E+03</pdfrwt>
<pdfrwt beam="2">0</pdfrwt>
<totfact> 0.49210727E+04</totfact>
</mgrwt>
</event>
<event>
 6    1  0.8397183E-002  0.3000000E+03  0.7818608E-02  0.1093470E+00
         21   -1    0    0  501  502  0.00000000000E+00  0.00000000000E+00  0.10569119907E+01  0.10569119907E+01  0.00000000000E+00 0. -1.
         13   -1    0    0    0    0 -0.00000000000E+00 -0.00000000000E+00 -0.10000000000E+04  0.10000000000E+04  0.00000000000E+00 0.  1.
    9000005    2    1    2  501    0  0.29001860362E+02 -0.14523308419E+02 -0.49545669624E+03  0.49652685234E+03  0.30891513570E+01 0.  0.
         13    1    3    3    0    0  0.12262015490E+02 -0.54282065884E+01 -0.22604832525E+03  0.22644572816E+03  0.00000000000E+00 0.  1.
          1    1    3    3  501    0  0.16739844872E+02 -0.90951018302E+01 -0.26940837099E+03  0.27008112419E+03  0.00000000000E+00 0.  1.
         -3    1    1    2    0  502 -0.29001860362E+02  0.14523308419E+02 -0.50348639177E+03  0.50453005965E+03  0.00000000000E+00 0. -1.
<mgrwt>
<rscale>  1 0.30000000E+03</rscale>
<asrwt>0</asrwt>
<pdfrwt beam="1">  1       21 0.38433244E-02 0.30000000E+03</pdfrwt>
<pdfrwt beam="2">0</pdfrwt>
<totfact> 0.44971097E+04</totfact>
</mgrwt>
</event>
<event>
 6    1  0.8397183E-002  0.3000000E+03  0.7818608E-02  0.1093470E+00
         21   -1    0    0  501  502  0.00000000000E+00  0.00000000000E+00  0.13417561942E+01  0.13417561942E+01  0.00000000000E+00 0. -1.
         13   -1    0    0    0    0 -0.00000000000E+00 -0.00000000000E+00 -0.10000000000E+04  0.10000000000E+04  0.00000000000E+00 0.  1.
    9000005    2    1    2  501    0 -0.23074733591E+02  0.24074158991E+02 -0.70515577236E+03  0.70595098246E+03  0.31808622677E+01 0.  0.
         13    1    3    3    0    0 -0.93492744305E+01  0.77229762736E+01 -0.26824178996E+03  0.26851575591E+03  0.00000000000E+00 0.  1.
          1    1    3    3  501    0 -0.13725459161E+02  0.16351182717E+02 -0.43691398240E+03  0.43743522655E+03  0.00000000000E+00 0.  1.
         -3    1    1    2    0  502  0.23074733591E+02 -0.24074158991E+02 -0.29350247145E+03  0.29539077373E+03  0.00000000000E+00 0. -1.
<mgrwt>
<rscale>  1 0.30000000E+03</rscale>
<asrwt>0</asrwt>
<pdfrwt beam="1">  1       21 0.48791237E-02 0.30000000E+03</pdfrwt>
<pdfrwt beam="2">0</pdfrwt>
<totfact> 0.30031032E+04</totfact>
</mgrwt>
</event>
<event>
 6    1  0.1423913E-001  0.3000000E+03  0.7818608E-02  0.1093470E+00
         21   -1    0    0  501  502  0.00000000000E+00  0.00000000000E+00  0.61605238448E+01  0.61605238448E+01  0.00000000000E+00 0. -1.
         13   -1    0    0    0    0 -0.00000000000E+00 -0.00000000000E+00 -0.10000000000E+04  0.10000000000E+04  0.00000000000E+00 0.  1.
    9000005    2    1    2  501    0 -0.34435981451E+02 -0.70124738693E+02 -0.46033317254E+03  0.46696455595E+03  0.67787151530E+01 0.  0.
         13    1    3    3    0    0 -0.16141952226E+02 -0.32238115443E+02 -0.23262162673E+03  0.23539898031E+03  0.00000000000E+00 0.  1.
          1    1    3    3  501    0 -0.18294029224E+02 -0.37886623250E+02 -0.22771154581E+03  0.23156557564E+03  0.00000000000E+00 0.  1.
         -1    1    1    2    0  502  0.34435981451E+02  0.70124738693E+02 -0.53350630362E+03  0.53919596790E+03  0.00000000000E+00 0. -1.
<mgrwt>
<rscale>  1 0.30000000E+03</rscale>
<asrwt>0</asrwt>
<pdfrwt beam="1">  1       21 0.22401952E-01 0.30000000E+03</pdfrwt>
<pdfrwt beam="2">0</pdfrwt>
<totfact> 0.19300581E+03</totfact>
</mgrwt>
</event>
<event>
 6    1  0.8397183E-002  0.3000000E+03  0.7818608E-02  0.1093470E+00
         21   -1    0    0  501  502  0.00000000000E+00  0.00000000000E+00  0.27173148173E+01  0.27173148173E+01  0.00000000000E+00 0. -1.
         13   -1    0    0    0    0 -0.00000000000E+00 -0.00000000000E+00 -0.10000000000E+04  0.10000000000E+04  0.00000000000E+00 0.  1.
    9000005    2    1    2  501    0  0.31114225338E+02 -0.35840406630E+02 -0.29379212558E+03  0.29762753527E+03  0.39631975500E+01 0.  0.
         13    1    3    3    0    0  0.14404157456E+02 -0.19519478248E+02 -0.15275095615E+03  0.15466526561E+03  0.00000000000E+00 0.  1.
          3    1    3    3  501    0  0.16710067882E+02 -0.16320928382E+02 -0.14104116943E+03  0.14296226966E+03  0.00000000000E+00 0.  1.
         -1    1    1    2    0  502 -0.31114225338E+02  0.35840406630E+02 -0.70349055961E+03  0.70508977955E+03  0.00000000000E+00 0. -1.
<mgrwt>
<rscale>  1 0.30000000E+03</rscale>
<asrwt>0</asrwt>
<pdfrwt beam="1">  1       21 0.98811656E-02 0.30000000E+03</pdfrwt>
<pdfrwt beam="2">0</pdfrwt>
<totfact> 0.87888810E+03</totfact>
</mgrwt>
</event>
<event>
 6    1  0.8397183E-002  0.3000000E+03  0.7818608E-02  0.1093470E+00
         21   -1    0    0  501  502  0.00000000000E+00  0.00000000000E+00  0.18638501971E+01  0.18638501971E+01  0.00000000000E+00 0. -1.
         13   -1    0    0    0    0 -0.00000000000E+00 -0.00000000000E+00 -0.10000000000E+04  0.10000000000E+04  0.00000000000E+00 0.  1.
    9000005    2    1    2  501    0  0.23988281895E+02  0.35814212920E+02 -0.50477843139E+03  0.50662660015E+03  0.33394114661E+01 0.  0.
         13    1    3    3    0    0  0.70027090790E+01  0.81804582635E+01 -0.13412267568E+03  0.13455426401E+03  0.00000000000E+00 0.  1.
          3    1    3    3  501    0  0.16985572816E+02  0.27633754657E+02 -0.37065575572E+03  0.37207233615E+03  0.00000000000E+00 0.  1.
         -3    1    1    2    0  502 -0.23988281895E+02 -0.35814212920E+02 -0.49335771841E+03  0.49523725004E+03  0.00000000000E+00 0. -1.
<mgrwt>
<rscale>  1 0.30000000E+03</rscale>
<asrwt>0</asrwt>
<pdfrwt beam="1">  1       21 0.67776514E-02 0.30000000E+03</pdfrwt>
<pdfrwt beam="2">0</pdfrwt>
<totfact> 0.17066466E+04</totfact>
</mgrwt>
</event>
<event>
 6    1  0.8397183E-002  0.3000000E+03  0.7818608E-02  0.1093470E+00
         21   -1    0    0  501  502  0.00000000000E+00  0.00000000000E+00  0.21533890627E+01  0.21533890627E+01  0.00000000000E+00 0. -1.
         13   -1    0    0    0    0 -0.00000000000E+00 -0.00000000000E+00 -0.10000000000E+04  0.10000000000E+04  0.00000000000E+00 0.  1.
    9000005    2    1    2  501    0  0.44089306633E+02  0.59918074839E+01 -0.35943572457E+03  0.36219383679E+03  0.32506296565E+01 0.  0.
         13    1    3    3    0    0  0.12284249688E+02  0.17064313835E+01 -0.11244587162E+03  0.11312775408E+03  0.00000000000E+00 0.  1.
          1    1    3    3  501    0  0.31805056945E+02  0.42853761004E+01 -0.24698985296E+03  0.24906608272E+03  0.00000000000E+00 0.  1.
         -3    1    1    2    0  502 -0.44089306633E+02 -0.59918074839E+01 -0.63841088636E+03  0.63995955227E+03  0.00000000000E+00 0. -1.
<mgrwt>
<rscale>  1 0.30000000E+03</rscale>
<asrwt>0</asrwt>
<pdfrwt beam="1">  1       21 0.78305222E-02 0.30000000E+03</pdfrwt>
<pdfrwt beam="2">0</pdfrwt>
<totfact> 0.13263147E+04</totfact>
</mgrwt>
</event>
<event>
 6    1  0.8397183E-002  0.3000000E+03  0.7818608E-02  0.1093470E+00
         21   -1    0    0  501  502  0.00000000000E+00  0.00000000000E+00  0.10726933014E+01  0.10726933014E+01  0.00000000000E+00 0. -1.
         13   -1    0    0    0    0 -0.00000000000E+00 -0.00000000000E+00 -0.10000000000E+04  0.10000000000E+04  0.00000000000E+00 0.  1.
    9000005    2    1    2  501    0  0.22245112844E+02 -0.22184947022E+02 -0.36460203938E+03  0.36596989715E+03  0.35073609116E+01 0.  0.
         13    1    3    3    0    0  0.13959832874E+02 -0.11783830018E+02 -0.22065481829E+03  0.22140976586E+03  0.00000000000E+00 0.  1.
          1    1    3    3  501    0  0.82852799695E+01 -0.10401117004E+02 -0.14394722110E+03  0.14456013130E+03  0.00000000000E+00 0.  1.
         -3    1    1    2    0  502 -0.22245112844E+02  0.22184947022E+02 -0.63432526731E+03  0.63510279615E+03  0.00000000000E+00 0. -1.
<mgrwt>
<rscale>  1 0.30000000E+03</rscale>
<asrwt>0</asrwt>
<pdfrwt beam="1">  1       21 0.39007111E-02 0.30000000E+03</pdfrwt>
<pdfrwt beam="2">0</pdfrwt>
<totfact> 0.43864214E+04</totfact>
</mgrwt>
</event>
<event>
 6    1  0.8397183E-002  0.3000000E+03  0.7818608E-02  0.1093470E+00
         21   -1    0    0  501  502  0.00000000000E+00  0.00000000000E+00  0.25834371515E+01  0.25834371515E+01  0.00000000000E+00 0. -1.
         13   -1    0    0    0    0 -0.00000000000E+00 -0.00000000000E+00 -0.10000000000E+04  0.10000000000E+04  0.00000000000E+00 0.  1.
    9000005    2    1    2  501    0 -0.35833222725E+02  0.35842757422E+02 -0.52878213283E+03  0.53121632745E+03  0.33940296989E+01 0.  0.
         13    1    3    3    0    0 -0.26904638087E+02  0.28783511632E+02 -0.40496233764E+03  0.40687448311E+03  0.00000000000E+00 0.  1.
          1    1    3    3  501    0 -0.89285846380E+01  0.70592457900E+01 -0.12381979519E+03  0.12434184434E+03  0.00000000000E+00 0.  1.
         -3    1    1    2    0  502  0.35833222725E+02 -0.35842757422E+02 -0.46863443002E+03  0.47136710970E+03  0.00000000000E+00 0. -1.
<mgrwt>
<rscale>  1 0.30000000E+03</rscale>
<asrwt>0</asrwt>
<pdfrwt beam="1">  1       21 0.93943367E-02 0.30000000E+03</pdfrwt>
<pdfrwt beam="2">0</pdfrwt>
<totfact> 0.96173291E+03</totfact>
</mgrwt>
</event>
<event>
 6    1  0.8397183E-002  0.3000000E+03  0.7818608E-02  0.1093470E+00
         21   -1    0    0  501  502  0.00000000000E+00  0.00000000000E+00  0.10940617456E+01  0.10940617456E+01  0.00000000000E+00 0. -1.
         13   -1    0    0    0    0 -0.00000000000E+00 -0.00000000000E+00 -0.10000000000E+04  0.10000000000E+04  0.00000000000E+00 0.  1.
    9000005    2    1    2  501    0 -0.28453263928E+02 -0.13187730115E+02 -0.65674671646E+03  0.65750064284E+03  0.27094842877E+01 0.  0.
         13    1    3    3    0    0 -0.25156872490E+02 -0.11808608200E+02 -0.59794539059E+03  0.59859084656E+03  0.00000000000E+00 0.  1.
          3    1    3    3  501    0 -0.32963914378E+01 -0.13791219151E+01 -0.58801325875E+02  0.58909796285E+02  0.00000000000E+00 0.  1.
         -3    1    1    2    0  502  0.28453263928E+02  0.13187730115E+02 -0.34215922179E+03  0.34359341890E+03  0.00000000000E+00 0. -1.
<mgrwt>
<rscale>  1 0.30000000E+03</rscale>
<asrwt>0</asrwt>
<pdfrwt beam="1">  1       21 0.39784147E-02 0.30000000E+03</pdfrwt>
<pdfrwt beam="2">0</pdfrwt>
<totfact> 0.42432165E+04</totfact>
</mgrwt>
</event>
<event>
 6    1  0.8397183E-002  0.3000000E+03  0.7818608E-02  0.1093470E+00
         21   -1    0    0  501  502  0.00000000000E+00  0.00000000000E+00  0.20267530779E+01  0.20267530779E+01  0.00000000000E+00 0. -1.
         13   -1    0    0    0    0 -0.00000000000E+00 -0.00000000000E+00 -0.10000000000E+04  0.10000000000E+04  0.00000000000E+00 0.  1.
    9000005    2    1    2  501    0 -0.23372908473E+02 -0.33997916644E+02 -0.69807747067E+03  0.69930637417E+03  0.38857077310E+01 0.  0.
         13    1    3    3    0    0 -0.43424446935E+01 -0.76530496417E+01 -0.12644585454E+03  0.12675164743E+03  0.00000000000E+00 0.  1.
          1    1    3    3  501    0 -0.19030463779E+02 -0.26344867002E+02 -0.57163161613E+03  0.57255472675E+03  0.00000000000E+00 0.  1.
         -3    1    1    2    0  502  0.23372908473E+02  0.33997916644E+02 -0.29989577626E+03  0.30272037890E+03  0.00000000000E+00 0. -1.
<mgrwt>
<rscale>  1 0.30000000E+03</rscale>
<asrwt>0</asrwt>
<pdfrwt beam="1">  1       21 0.73700267E-02 0.30000000E+03</pdfrwt>
<pdfrwt beam="2">0</pdfrwt>
<totfact> 0.14748798E+04</totfact>
</mgrwt>
</event>
<event>
 6    1  0.8397183E-002  0.3000000E+03  0.7818608E-02  0.1093470E+00
         21   -1    0    0  501  502  0.00000000000E+00  0.00000000000E+00  0.15224319863E+01  0.15224319863E+01  0.00000000000E+00 0. -1.
         13   -1    0    0    0    0 -0.00000000000E+00 -0.00000000000E+00 -0.10000000000E+04  0.10000000000E+04  0.00000000000E+00 0.  1.
    9000005    2    1    2  501    0  0.32134893997E+02  0.19046981283E+02 -0.64045598329E+03  0.64155730307E+03  0.40580390834E+01 0.  0.
         13    1    3    3    0    0  0.27614648773E+02  0.16021315183E+02 -0.52065482744E+03  0.52163272587E+03  0.00000000000E+00 0.  1.
          1    1    3    3  501    0  0.45202452237E+01  0.30256661003E+01 -0.11980115585E+03  0.11992457720E+03  0.00000000000E+00 0.  1.
         -1    1    1    2    0  502 -0.32134893997E+02 -0.19046981283E+02 -0.35802158472E+03  0.35996512892E+03  0.00000000000E+00 0. -1.
<mgrwt>
<rscale>  1 0.30000000E+03</rscale>
<asrwt>0</asrwt>
<pdfrwt beam="1">  1       21 0.55361280E-02 0.30000000E+03</pdfrwt>
<pdfrwt beam="2">0</pdfrwt>
<totfact> 0.24200863E+04</totfact>
</mgrwt>
</event>
<event>
 6    1  0.8397183E-002  0.3000000E+03  0.7818608E-02  0.1093470E+00
         21   -1    0    0  501  502  0.00000000000E+00  0.00000000000E+00  0.10067357704E+01  0.10067357704E+01  0.00000000000E+00 0. -1.
         13   -1    0    0    0    0 -0.00000000000E+00 -0.00000000000E+00 -0.10000000000E+04  0.10000000000E+04  0.00000000000E+00 0.  1.
    9000005    2    1    2  501    0 -0.30877396971E+02  0.69062892590E+01 -0.48963797968E+03  0.49066967424E+03  0.32043090471E+01 0.  0.
         13    1    3    3    0    0 -0.10992321184E+02  0.22960687798E+01 -0.15094352460E+03  0.15136066423E+03  0.00000000000E+00 0.  1.
          1    1    3    3  501    0 -0.19885075787E+02  0.46102204793E+01 -0.33869445508E+03  0.33930901001E+03  0.00000000000E+00 0.  1.
         -1    1    1    2    0  502  0.30877396971E+02 -0.69062892590E+01 -0.50935528455E+03  0.51033706153E+03  0.00000000000E+00 0. -1.
<mgrwt>
<rscale>  1 0.30000000E+03</rscale>
<asrwt>0</asrwt>
<pdfrwt beam="1">  1       21 0.36608651E-02 0.30000000E+03</pdfrwt>
<pdfrwt beam="2">0</pdfrwt>
<totfact> 0.48798493E+04</totfact>
</mgrwt>
</event>
<event>
 6    1  0.8397183E-002  0.3000000E+03  0.7818608E-02  0.1093470E+00
         21   -1    0    0  501  502  0.00000000000E+00  0.00000000000E+00  0.92572496961E+00  0.92572496961E+00  0.00000000000E+00 0. -1.
         13   -1    0    0    0    0 -0.00000000000E+00 -0.00000000000E+00 -0.10000000000E+04  0.10000000000E+04  0.00000000000E+00 0.  1.
    9000005    2    1    2  501    0  0.17197728285E+02 -0.24770232798E+02 -0.55325833523E+03  0.55409110403E+03  0.35832627039E+01 0.  0.
         13    1    3    3    0    0  0.89618311002E+01 -0.15939829416E+02 -0.33848557184E+03  0.33897916591E+03  0.00000000000E+00 0.  1.
          1    1    3    3  501    0  0.82358971847E+01 -0.88304033813E+01 -0.21477276340E+03  0.21511193813E+03  0.00000000000E+00 0.  1.
         -1    1    1    2    0  502 -0.17197728285E+02  0.24770232798E+02 -0.44581593980E+03  0.44683462094E+03  0.00000000000E+00 0. -1.
<mgrwt>
<rscale>  1 0.30000000E+03</rscale>
<asrwt>0</asrwt>
<pdfrwt beam="1">  1       21 0.33662797E-02 0.30000000E+03</pdfrwt>
<pdfrwt beam="2">0</pdfrwt>
<totfact> 0.56158370E+04</totfact>
</mgrwt>
</event>
<event>
 6    1  0.8397183E-002  0.3000000E+03  0.7818608E-02  0.1093470E+00
         21   -1    0    0  501  502  0.00000000000E+00  0.00000000000E+00  0.14257482220E+01  0.14257482220E+01  0.00000000000E+00 0. -1.
         13   -1    0    0    0    0 -0.00000000000E+00 -0.00000000000E+00 -0.10000000000E+04  0.10000000000E+04  0.00000000000E+00 0.  1.
    9000005    2    1    2  501    0  0.33181193487E+02  0.93957787997E+01 -0.70218118049E+03  0.70303317966E+03  0.28229807015E+01 0.  0.
         13    1    3    3    0    0  0.20060810201E+02  0.70922454378E+01 -0.42768985071E+03  0.42821880441E+03  0.00000000000E+00 0.  1.
          1    1    3    3  501    0  0.13120383286E+02  0.23035333618E+01 -0.27449132978E+03  0.27481437526E+03  0.00000000000E+00 0.  1.
         -3    1    1    2    0  502 -0.33181193487E+02 -0.93957787997E+01 -0.29639307129E+03  0.29839256856E+03  0.00000000000E+00 0. -1.
<mgrwt>
<rscale>  1 0.30000000E+03</rscale>
<asrwt>0</asrwt>
<pdfrwt beam="1">  1       21 0.51845499E-02 0.30000000E+03</pdfrwt>
<pdfrwt beam="2">0</pdfrwt>
<totfact> 0.27077163E+04</totfact>
</mgrwt>
</event>
<event>
 6    1  0.8397183E-002  0.3000000E+03  0.7818608E-02  0.1093470E+00
         21   -1    0    0  501  502  0.00000000000E+00  0.00000000000E+00  0.46983585258E+01  0.46983585258E+01  0.00000000000E+00 0. -1.
         13   -1    0    0    0    0 -0.00000000000E+00 -0.00000000000E+00 -0.10000000000E+04  0.10000000000E+04  0.00000000000E+00 0.  1.
    9000005    2    1    2  501    0  0.60699511538E+02  0.22633591535E+02 -0.33463415590E+03  0.34086235720E+03  0.32277068678E+01 0.  0.
         13    1    3    3    0    0  0.27503869822E+01  0.95518868775E+00 -0.11895177436E+02  0.12246316189E+02  0.00000000000E+00 0.  1.
          1    1    3    3  501    0  0.57949124556E+02  0.21678402847E+02 -0.32273897846E+03  0.32861604101E+03  0.00000000000E+00 0.  1.
         -3    1    1    2    0  502 -0.60699511538E+02 -0.22633591535E+02 -0.66066748557E+03  0.66383600133E+03  0.00000000000E+00 0. -1.
<mgrwt>
<rscale>  1 0.30000000E+03</rscale>
<asrwt>0</asrwt>
<pdfrwt beam="1">  1       21 0.17084976E-01 0.30000000E+03</pdfrwt>
<pdfrwt beam="2">0</pdfrwt>
<totfact> 0.32311973E+03</totfact>
</mgrwt>
</event>
<event>
 6    1  0.8397183E-002  0.3000000E+03  0.7818608E-02  0.1093470E+00
         21   -1    0    0  501  502  0.00000000000E+00  0.00000000000E+00  0.21516471526E+01  0.21516471526E+01  0.00000000000E+00 0. -1.
         13   -1    0    0    0    0 -0.00000000000E+00 -0.00000000000E+00 -0.10000000000E+04  0.10000000000E+04  0.00000000000E+00 0.  1.
    9000005    2    1    2  501    0 -0.29869372671E+02 -0.30036135984E+02 -0.30179084818E+03  0.30480639644E+03  0.59054531079E+01 0.  0.
         13    1    3    3    0    0 -0.10291093510E+02 -0.74025573904E+01 -0.77994275538E+02  0.79017792162E+02  0.00000000000E+00 0.  1.
          3    1    3    3  501    0 -0.19578279161E+02 -0.22633578594E+02 -0.22379657264E+03  0.22578860428E+03  0.00000000000E+00 0.  1.
         -1    1    1    2    0  502  0.29869372671E+02  0.30036135984E+02 -0.69605750467E+03  0.69734525071E+03  0.00000000000E+00 0. -1.
<mgrwt>
<rscale>  1 0.30000000E+03</rscale>
<asrwt>0</asrwt>
<pdfrwt beam="1">  1       21 0.78241880E-02 0.30000000E+03</pdfrwt>
<pdfrwt beam="2">0</pdfrwt>
<totfact> 0.13281991E+04</totfact>
</mgrwt>
</event>
<event>
 6    1  0.8397183E-002  0.3000000E+03  0.7818608E-02  0.1093470E+00
         21   -1    0    0  501  502  0.00000000000E+00  0.00000000000E+00  0.10896719060E+01  0.10896719060E+01  0.00000000000E+00 0. -1.
         13   -1    0    0    0    0 -0.00000000000E+00 -0.00000000000E+00 -0.10000000000E+04  0.10000000000E+04  0.00000000000E+00 0.  1.
    9000005    2    1    2  501    0 -0.25843367088E+02 -0.20312103208E+02 -0.48001090929E+03  0.48115018697E+03  0.38168345344E+01 0.  0.
         13    1    3    3    0    0 -0.25759131375E+01 -0.13062520563E+01 -0.30510274883E+02  0.30646671865E+02  0.00000000000E+00 0.  1.
          1    1    3    3  501    0 -0.23267453950E+02 -0.19005851151E+02 -0.44950063441E+03  0.45050351511E+03  0.00000000000E+00 0.  1.
         -1    1    1    2    0  502  0.25843367088E+02  0.20312103208E+02 -0.51889941880E+03  0.51993948494E+03  0.00000000000E+00 0. -1.
<mgrwt>
<rscale>  1 0.30000000E+03</rscale>
<asrwt>0</asrwt>
<pdfrwt beam="1">  1       21 0.39624517E-02 0.30000000E+03</pdfrwt>
<pdfrwt beam="2">0</pdfrwt>
<totfact> 0.42720326E+04</totfact>
</mgrwt>
</event>
<event>
 6    1  0.8397183E-002  0.3000000E+03  0.7818608E-02  0.1093470E+00
         21   -1    0    0  501  502  0.00000000000E+00  0.00000000000E+00  0.13173248808E+01  0.13173248808E+01  0.00000000000E+00 0. -1.
         13   -1    0    0    0    0 -0.00000000000E+00 -0.00000000000E+00 -0.10000000000E+04  0.10000000000E+04  0.00000000000E+00 0.  1.
    9000005    2    1    2  501    0  0.12104303781E+02 -0.31067114978E+02 -0.30518999914E+03  0.30702360357E+03  0.32981473918E+01 0.  0.
         13    1    3    3    0    0  0.52333154895E+01 -0.14384132185E+02 -0.15491617454E+03  0.15567052382E+03  0.00000000000E+00 0.  1.
          3    1    3    3  501    0  0.68709882914E+01 -0.16682982793E+02 -0.15027382459E+03  0.15135307976E+03  0.00000000000E+00 0.  1.
         -1    1    1    2    0  502 -0.12104303781E+02  0.31067114978E+02 -0.69349267598E+03  0.69429372131E+03  0.00000000000E+00 0. -1.
<mgrwt>
<rscale>  1 0.30000000E+03</rscale>
<asrwt>0</asrwt>
<pdfrwt beam="1">  1       21 0.47902824E-02 0.30000000E+03</pdfrwt>
<pdfrwt beam="2">0</pdfrwt>
<totfact> 0.30985203E+04</totfact>
</mgrwt>
</event>
<event>
 6    1  0.8397183E-002  0.3000000E+03  0.7818608E-02  0.1093470E+00
         21   -1    0    0  501  502  0.00000000000E+00  0.00000000000E+00  0.12090709730E+01  0.12090709730E+01  0.00000000000E+00 0. -1.
         13   -1    0    0    0    0 -0.00000000000E+00 -0.00000000000E+00 -0.10000000000E+04  0.10000000000E+04  0.00000000000E+00 0.  1.
    9000005    2    1    2  501    0 -0.28460291894E+02 -0.19836346231E+02 -0.48462070223E+03  0.48586987105E+03  0.29728309179E+01 0.  0.
         13    1    3    3    0    0 -0.20323372505E+02 -0.12701483335E+02 -0.34307636932E+03  0.34391243411E+03  0.00000000000E+00 0.  1.
          1    1    3    3  501    0 -0.81369193891E+01 -0.71348628960E+01 -0.14154433291E+03  0.14195743694E+03  0.00000000000E+00 0.  1.
         -1    1    1    2    0  502  0.28460291894E+02  0.19836346231E+02 -0.51417022680E+03  0.51533919992E+03  0.00000000000E+00 0. -1.
<mgrwt>
<rscale>  1 0.30000000E+03</rscale>
<asrwt>0</asrwt>
<pdfrwt beam="1">  1       21 0.43966310E-02 0.30000000E+03</pdfrwt>
<pdfrwt beam="2">0</pdfrwt>
<totfact> 0.35842880E+04</totfact>
</mgrwt>
</event>
<event>
 6    1  0.8397183E-002  0.3000000E+03  0.7818608E-02  0.1093470E+00
         21   -1    0    0  501  502  0.00000000000E+00  0.00000000000E+00  0.10018286524E+01  0.10018286524E+01  0.00000000000E+00 0. -1.
         13   -1    0    0    0    0 -0.00000000000E+00 -0.00000000000E+00 -0.10000000000E+04  0.10000000000E+04  0.00000000000E+00 0.  1.
    9000005    2    1    2  501    0  0.36815704447E+01 -0.29824310167E+02 -0.65306573077E+03  0.65376661028E+03  0.35900648921E+01 0.  0.
         13    1    3    3    0    0  0.21626608855E+01 -0.15065542168E+02 -0.36886463961E+03  0.36917850698E+03  0.00000000000E+00 0.  1.
          1    1    3    3  501    0  0.15189095592E+01 -0.14758767998E+02 -0.28420109116E+03  0.28458810330E+03  0.00000000000E+00 0.  1.
         -1    1    1    2    0  502 -0.36815704447E+01  0.29824310167E+02 -0.34593244058E+03  0.34723521838E+03  0.00000000000E+00 0. -1.
<mgrwt>
<rscale>  1 0.30000000E+03</rscale>
<asrwt>0</asrwt>
<pdfrwt beam="1">  1       21 0.36430210E-02 0.30000000E+03</pdfrwt>
<pdfrwt beam="2">0</pdfrwt>
<totfact> 0.49200170E+04</totfact>
</mgrwt>
</event>
<event>
 6    1  0.8397183E-002  0.3000000E+03  0.7818608E-02  0.1093470E+00
         21   -1    0    0  501  502  0.00000000000E+00  0.00000000000E+00  0.94907578969E+00  0.94907578969E+00  0.00000000000E+00 0. -1.
         13   -1    0    0    0    0 -0.00000000000E+00 -0.00000000000E+00 -0.10000000000E+04  0.10000000000E+04  0.00000000000E+00 0.  1.
    9000005    2    1    2  501    0  0.17056245902E+02  0.25539273093E+02 -0.51765922451E+03  0.51857874240E+03  0.31095585195E+01 0.  0.
         13    1    3    3    0    0  0.14360099302E+02  0.22778408060E+02 -0.43918918041E+03  0.44001386855E+03  0.00000000000E+00 0.  1.
          3    1    3    3  501    0  0.26961465997E+01  0.27608650334E+01 -0.78470044106E+02  0.78564873858E+02  0.00000000000E+00 0.  1.
         -3    1    1    2    0  502 -0.17056245902E+02 -0.25539273093E+02 -0.48139169970E+03  0.48237033339E+03  0.00000000000E+00 0. -1.
<mgrwt>
<rscale>  1 0.30000000E+03</rscale>
<asrwt>0</asrwt>
<pdfrwt beam="1">  1       21 0.34511920E-02 0.30000000E+03</pdfrwt>
<pdfrwt beam="2">0</pdfrwt>
<totfact> 0.53868118E+04</totfact>
</mgrwt>
</event>
<event>
 6    1  0.8397183E-002  0.3000000E+03  0.7818608E-02  0.1093470E+00
         21   -1    0    0  501  502  0.00000000000E+00  0.00000000000E+00  0.26696655380E+01  0.26696655380E+01  0.00000000000E+00 0. -1.
         13   -1    0    0    0    0 -0.00000000000E+00 -0.00000000000E+00 -0.10000000000E+04  0.10000000000E+04  0.00000000000E+00 0.  1.
    9000005    2    1    2  501    0 -0.49348396020E+02 -0.56653577212E+01 -0.63545288040E+03  0.63739900942E+03  0.31262635271E+01 0.  0.
         13    1    3    3    0    0 -0.33600382578E+02 -0.44520832755E+01 -0.45012165487E+03  0.45139595805E+03  0.00000000000E+00 0.  1.
          1    1    3    3  501    0 -0.15748013443E+02 -0.12132744457E+01 -0.18533122553E+03  0.18600305137E+03  0.00000000000E+00 0.  1.
         -1    1    1    2    0  502  0.49348396020E+02  0.56653577212E+01 -0.36187745406E+03  0.36527065612E+03  0.00000000000E+00 0. -1.
<mgrwt>
<rscale>  1 0.30000000E+03</rscale>
<asrwt>0</asrwt>
<pdfrwt beam="1">  1       21 0.97078952E-02 0.30000000E+03</pdfrwt>
<pdfrwt beam="2">0</pdfrwt>
<totfact> 0.90708039E+03</totfact>
</mgrwt>
</event>
<event>
 6    1  0.8397183E-002  0.3000000E+03  0.7818608E-02  0.1093470E+00
         21   -1    0    0  501  502  0.00000000000E+00  0.00000000000E+00  0.22666514899E+01  0.22666514899E+01  0.00000000000E+00 0. -1.
         13   -1    0    0    0    0 -0.00000000000E+00 -0.00000000000E+00 -0.10000000000E+04  0.10000000000E+04  0.00000000000E+00 0.  1.
    9000005    2    1    2  501    0  0.33889212469E+02 -0.31247698696E+02 -0.62233611599E+03  0.62404980948E+03  0.33205499499E+01 0.  0.
         13    1    3    3    0    0  0.23118762581E+01 -0.20830219529E+01 -0.32074234474E+02  0.32224839323E+02  0.00000000000E+00 0.  1.
          1    1    3    3  501    0  0.31577336211E+02 -0.29164676743E+02 -0.59026188151E+03  0.59182497016E+03  0.00000000000E+00 0.  1.
         -3    1    1    2    0  502 -0.33889212469E+02  0.31247698696E+02 -0.37539723252E+03  0.37821684201E+03  0.00000000000E+00 0. -1.
<mgrwt>
<rscale>  1 0.30000000E+03</rscale>
<asrwt>0</asrwt>
<pdfrwt beam="1">  1       21 0.82423864E-02 0.30000000E+03</pdfrwt>
<pdfrwt beam="2">0</pdfrwt>
<totfact> 0.12120856E+04</totfact>
</mgrwt>
</event>
<event>
 6    1  0.8397183E-002  0.3000000E+03  0.7818608E-02  0.1093470E+00
         21   -1    0    0  501  502  0.00000000000E+00  0.00000000000E+00  0.11050909119E+01  0.11050909119E+01  0.00000000000E+00 0. -1.
         13   -1    0    0    0    0 -0.00000000000E+00 -0.00000000000E+00 -0.10000000000E+04  0.10000000000E+04  0.00000000000E+00 0.  1.
    9000005    2    1    2  501    0  0.19036407597E+02  0.25559124262E+02 -0.36355028915E+03  0.36496167962E+03  0.35441786091E+01 0.  0.
         13    1    3    3    0    0  0.47872870816E+01  0.41097936062E+01 -0.74257152782E+02  0.74524715769E+02  0.00000000000E+00 0.  1.
          1    1    3    3  501    0  0.14249120516E+02  0.21449330655E+02 -0.28929313637E+03  0.29043696385E+03  0.00000000000E+00 0.  1.
         -1    1    1    2    0  502 -0.19036407597E+02 -0.25559124262E+02 -0.63534461994E+03  0.63614341129E+03  0.00000000000E+00 0. -1.
<mgrwt>
<rscale>  1 0.30000000E+03</rscale>
<asrwt>0</asrwt>
<pdfrwt beam="1">  1       21 0.40185209E-02 0.30000000E+03</pdfrwt>
<pdfrwt beam="2">0</pdfrwt>
<totfact> 0.41721450E+04</totfact>
</mgrwt>
</event>
<event>
 6    1  0.8397183E-002  0.3000000E+03  0.7818608E-02  0.1093470E+00
         21   -1    0    0  501  502  0.00000000000E+00  0.00000000000E+00  0.26900684095E+01  0.26900684095E+01  0.00000000000E+00 0. -1.
         13   -1    0    0    0    0 -0.00000000000E+00 -0.00000000000E+00 -0.10000000000E+04  0.10000000000E+04  0.00000000000E+00 0.  1.
    9000005    2    1    2  501    0  0.21109906867E+02 -0.45927094452E+02 -0.38896238112E+03  0.39224623943E+03  0.32329939064E+01 0.  0.
         13    1    3    3    0    0  0.15521555032E+02 -0.30437073181E+02 -0.25779500348E+03  0.26004922210E+03  0.00000000000E+00 0.  1.
          3    1    3    3  501    0  0.55883518354E+01 -0.15490021271E+02 -0.13116737764E+03  0.13219701733E+03  0.00000000000E+00 0.  1.
         -1    1    1    2    0  502 -0.21109906867E+02  0.45927094452E+02 -0.60834755047E+03  0.61044382898E+03  0.00000000000E+00 0. -1.
<mgrwt>
<rscale>  1 0.30000000E+03</rscale>
<asrwt>0</asrwt>
<pdfrwt beam="1">  1       21 0.97820876E-02 0.30000000E+03</pdfrwt>
<pdfrwt beam="2">0</pdfrwt>
<totfact> 0.89484183E+03</totfact>
</mgrwt>
</event>
<event>
 6    1  0.8397183E-002  0.3000000E+03  0.7818608E-02  0.1093470E+00
         21   -1    0    0  501  502  0.00000000000E+00  0.00000000000E+00  0.12306248503E+01  0.12306248503E+01  0.00000000000E+00 0. -1.
         13   -1    0    0    0    0 -0.00000000000E+00 -0.00000000000E+00 -0.10000000000E+04  0.10000000000E+04  0.00000000000E+00 0.  1.
    9000005    2    1    2  501    0 -0.30592423709E+02  0.16953456254E+02 -0.50723183181E+03  0.50845027563E+03  0.37729984673E+01 0.  0.
         13    1    3    3    0    0 -0.22719655084E+02  0.10659581281E+02 -0.35862446861E+03  0.35950148663E+03  0.00000000000E+00 0.  1.
          3    1    3    3  501    0 -0.78727686253E+01  0.62938749729E+01 -0.14860736320E+03  0.14894878900E+03  0.00000000000E+00 0.  1.
         -1    1    1    2    0  502  0.30592423709E+02 -0.16953456254E+02 -0.49153754334E+03  0.49278034922E+03  0.00000000000E+00 0. -1.
<mgrwt>
<rscale>  1 0.30000000E+03</rscale>
<asrwt>0</asrwt>
<pdfrwt beam="1">  1       21 0.44750089E-02 0.30000000E+03</pdfrwt>
<pdfrwt beam="2">0</pdfrwt>
<totfact> 0.34785294E+04</totfact>
</mgrwt>
</event>
<event>
 6    1  0.8397183E-002  0.3000000E+03  0.7818608E-02  0.1093470E+00
         21   -1    0    0  501  502  0.00000000000E+00  0.00000000000E+00  0.46042622088E+01  0.46042622088E+01  0.00000000000E+00 0. -1.
         13   -1    0    0    0    0 -0.00000000000E+00 -0.00000000000E+00 -0.10000000000E+04  0.10000000000E+04  0.00000000000E+00 0.  1.
    9000005    2    1    2  501    0  0.58182323067E+02  0.19124560348E+02 -0.28234910826E+03  0.28893225115E+03  0.31456786084E+01 0.  0.
         13    1    3    3    0    0  0.54256849756E+02  0.17022692165E+02 -0.26058252027E+03  0.26671488084E+03  0.00000000000E+00 0.  1.
          1    1    3    3  501    0  0.39254733112E+01  0.21018681826E+01 -0.21766587990E+02  0.22217370306E+02  0.00000000000E+00 0.  1.
         -3    1    1    2    0  502 -0.58182323067E+02 -0.19124560348E+02 -0.71304662953E+03  0.71567201106E+03  0.00000000000E+00 0. -1.
<mgrwt>
<rscale>  1 0.30000000E+03</rscale>
<asrwt>0</asrwt>
<pdfrwt beam="1">  1       21 0.16742807E-01 0.30000000E+03</pdfrwt>
<pdfrwt beam="2">0</pdfrwt>
<totfact> 0.33559240E+03</totfact>
</mgrwt>
</event>
<event>
 6    1  0.8397183E-002  0.3000000E+03  0.7818608E-02  0.1093470E+00
         21   -1    0    0  501  502  0.00000000000E+00  0.00000000000E+00  0.29141777934E+01  0.29141777934E+01  0.00000000000E+00 0. -1.
         13   -1    0    0    0    0 -0.00000000000E+00 -0.00000000000E+00 -0.10000000000E+04  0.10000000000E+04  0.00000000000E+00 0.  1.
    9000005    2    1    2  501    0 -0.53274083094E+02  0.73041756056E+01 -0.53869006099E+03  0.54137528148E+03  0.29554483582E+01 0.  0.
         13    1    3    3    0    0 -0.32873568586E+02  0.30787128894E+01 -0.32764235938E+03  0.32930178506E+03  0.00000000000E+00 0.  1.
          1    1    3    3  501    0 -0.20400514509E+02  0.42254627163E+01 -0.21104770162E+03  0.21207349642E+03  0.00000000000E+00 0.  1.
         -1    1    1    2    0  502  0.53274083094E+02 -0.73041756056E+01 -0.45839576121E+03  0.46153889631E+03  0.00000000000E+00 0. -1.
<mgrwt>
<rscale>  1 0.30000000E+03</rscale>
<asrwt>0</asrwt>
<pdfrwt beam="1">  1       21 0.10597033E-01 0.30000000E+03</pdfrwt>
<pdfrwt beam="2">0</pdfrwt>
<totfact> 0.77548921E+03</totfact>
</mgrwt>
</event>
<event>
 6    1  0.8397183E-002  0.3000000E+03  0.7818608E-02  0.1093470E+00
         21   -1    0    0  501  502  0.00000000000E+00  0.00000000000E+00  0.18157581425E+01  0.18157581425E+01  0.00000000000E+00 0. -1.
         13   -1    0    0    0    0 -0.00000000000E+00 -0.00000000000E+00 -0.10000000000E+04  0.10000000000E+04  0.00000000000E+00 0.  1.
    9000005    2    1    2  501    0 -0.90053143358E+01 -0.34310901975E+02 -0.23595748639E+03  0.23876401650E+03  0.86015410706E+01 0.  0.
         13    1    3    3    0    0 -0.26924647875E+01 -0.23413151298E+02 -0.16860644467E+03  0.17024558204E+03  0.00000000000E+00 0.  1.
          3    1    3    3  501    0 -0.63128495483E+01 -0.10897750677E+02 -0.67351041725E+02  0.68518434459E+02  0.00000000000E+00 0.  1.
         -3    1    1    2    0  502  0.90053143358E+01  0.34310901975E+02 -0.76222675546E+03  0.76305174164E+03  0.00000000000E+00 0. -1.
<mgrwt>
<rscale>  1 0.30000000E+03</rscale>
<asrwt>0</asrwt>
<pdfrwt beam="1">  1       21 0.66027708E-02 0.30000000E+03</pdfrwt>
<pdfrwt beam="2">0</pdfrwt>
<totfact> 0.17858123E+04</totfact>
</mgrwt>
</event>
<event>
 6    1  0.8397183E-002  0.3000000E+03  0.7818608E-02  0.1093470E+00
         21   -1    0    0  501  502  0.00000000000E+00  0.00000000000E+00  0.15324533406E+01  0.15324533406E+01  0.00000000000E+00 0. -1.
         13   -1    0    0    0    0 -0.00000000000E+00 -0.00000000000E+00 -0.10000000000E+04  0.10000000000E+04  0.00000000000E+00 0.  1.
    9000005    2    1    2  501    0 -0.60354947375E+01 -0.38070317294E+02 -0.58182921750E+03  0.58311487056E+03  0.34550941353E+01 0.  0.
         13    1    3    3    0    0 -0.61507573625E+01 -0.33817433598E+02 -0.52817131669E+03  0.52928857007E+03  0.00000000000E+00 0.  1.
          3    1    3    3  501    0  0.11526262498E+00 -0.42528836958E+01 -0.53657900809E+02  0.53826300490E+02  0.00000000000E+00 0.  1.
         -3    1    1    2    0  502  0.60354947375E+01  0.38070317294E+02 -0.41663832916E+03  0.41841758278E+03  0.00000000000E+00 0. -1.
<mgrwt>
<rscale>  1 0.30000000E+03</rscale>
<asrwt>0</asrwt>
<pdfrwt beam="1">  1       21 0.55725694E-02 0.30000000E+03</pdfrwt>
<pdfrwt beam="2">0</pdfrwt>
<totfact> 0.23929934E+04</totfact>
</mgrwt>
</event>
<event>
 6    1  0.8397183E-002  0.3000000E+03  0.7818608E-02  0.1093470E+00
         21   -1    0    0  501  502  0.00000000000E+00  0.00000000000E+00  0.19499723382E+01  0.19499723382E+01  0.00000000000E+00 0. -1.
         13   -1    0    0    0    0 -0.00000000000E+00 -0.00000000000E+00 -0.10000000000E+04  0.10000000000E+04  0.00000000000E+00 0.  1.
    9000005    2    1    2  501    0 -0.15736281056E+02 -0.35050444052E+02 -0.26063310461E+03  0.26353282562E+03  0.66159495855E+01 0.  0.
         13    1    3    3    0    0 -0.67186634041E+01 -0.78687458749E+01 -0.70012091845E+02  0.70772527184E+02  0.00000000000E+00 0.  1.
          3    1    3    3  501    0 -0.90176176524E+01 -0.27181698177E+02 -0.19062101277E+03  0.19276029843E+03  0.00000000000E+00 0.  1.
         -3    1    1    2    0  502  0.15736281056E+02  0.35050444052E+02 -0.73741692305E+03  0.73841714672E+03  0.00000000000E+00 0. -1.
<mgrwt>
<rscale>  1 0.30000000E+03</rscale>
<asrwt>0</asrwt>
<pdfrwt beam="1">  1       21 0.70908235E-02 0.30000000E+03</pdfrwt>
<pdfrwt beam="2">0</pdfrwt>
<totfact> 0.15777131E+04</totfact>
</mgrwt>
</event>
<event>
 6    1  0.8397183E-002  0.3000000E+03  0.7818608E-02  0.1093470E+00
         21   -1    0    0  501  502  0.00000000000E+00  0.00000000000E+00  0.11812736430E+01  0.11812736430E+01  0.00000000000E+00 0. -1.
         13   -1    0    0    0    0 -0.00000000000E+00 -0.00000000000E+00 -0.10000000000E+04  0.10000000000E+04  0.00000000000E+00 0.  1.
    9000005    2    1    2  501    0 -0.28446567932E+02  0.18794000243E+02 -0.43901093648E+03  0.44033621190E+03  0.17191541513E+01 0.  0.
         13    1    3    3    0    0 -0.17454911995E+02  0.12526033100E+02 -0.27679430141E+03  0.27762683723E+03  0.00000000000E+00 0.  1.
          1    1    3    3  501    0 -0.10991655937E+02  0.62679671422E+01 -0.16221663507E+03  0.16270937467E+03  0.00000000000E+00 0.  1.
         -1    1    1    2    0  502  0.28446567932E+02 -0.18794000243E+02 -0.55980778988E+03  0.56084506175E+03  0.00000000000E+00 0. -1.
<mgrwt>
<rscale>  1 0.30000000E+03</rscale>
<asrwt>0</asrwt>
<pdfrwt beam="1">  1       21 0.42955496E-02 0.30000000E+03</pdfrwt>
<pdfrwt beam="2">0</pdfrwt>
<totfact> 0.37281976E+04</totfact>
</mgrwt>
</event>
<event>
 6    1  0.8397183E-002  0.3000000E+03  0.7818608E-02  0.1093470E+00
         21   -1    0    0  501  502  0.00000000000E+00  0.00000000000E+00  0.49847011492E+01  0.49847011492E+01  0.00000000000E+00 0. -1.
         13   -1    0    0    0    0 -0.00000000000E+00 -0.00000000000E+00 -0.10000000000E+04  0.10000000000E+04  0.00000000000E+00 0.  1.
    9000005    2    1    2  501    0  0.43672990719E+02  0.55202585846E+02 -0.46234301454E+03  0.46768179024E+03  0.32462628133E+01 0.  0.
         13    1    3    3    0    0  0.43335666355E+02  0.54825672905E+02 -0.45667131177E+03  0.46198757709E+03  0.00000000000E+00 0.  1.
          3    1    3    3  501    0  0.33732436461E+00  0.37691294095E+00 -0.56717027694E+01  0.56942131499E+01  0.00000000000E+00 0.  1.
         -1    1    1    2    0  502 -0.43672990719E+02 -0.55202585846E+02 -0.53267228431E+03  0.53730291091E+03  0.00000000000E+00 0. -1.
<mgrwt>
<rscale>  1 0.30000000E+03</rscale>
<asrwt>0</asrwt>
<pdfrwt beam="1">  1       21 0.18126224E-01 0.30000000E+03</pdfrwt>
<pdfrwt beam="2">0</pdfrwt>
<totfact> 0.28912339E+03</totfact>
</mgrwt>
</event>
<event>
 6    1  0.8397183E-002  0.3000000E+03  0.7818608E-02  0.1093470E+00
         21   -1    0    0  501  502  0.00000000000E+00  0.00000000000E+00  0.96657879279E+00  0.96657879279E+00  0.00000000000E+00 0. -1.
         13   -1    0    0    0    0 -0.00000000000E+00 -0.00000000000E+00 -0.10000000000E+04  0.10000000000E+04  0.00000000000E+00 0.  1.
    9000005    2    1    2  501    0 -0.23716429585E+02 -0.19494506282E+02 -0.56951738571E+03  0.57035477036E+03  0.34650607226E+01 0.  0.
         13    1    3    3    0    0 -0.17782171204E+01 -0.68330002765E+00 -0.47348012415E+02  0.47386319067E+02  0.00000000000E+00 0.  1.
          3    1    3    3  501    0 -0.21938212464E+02 -0.18811206254E+02 -0.52216937329E+03  0.52296845130E+03  0.00000000000E+00 0.  1.
         -1    1    1    2    0  502  0.23716429585E+02  0.19494506282E+02 -0.42951603550E+03  0.43061180843E+03  0.00000000000E+00 0. -1.
<mgrwt>
<rscale>  1 0.30000000E+03</rscale>
<asrwt>0</asrwt>
<pdfrwt beam="1">  1       21 0.35148394E-02 0.30000000E+03</pdfrwt>
<pdfrwt beam="2">0</pdfrwt>
<totfact> 0.52245307E+04</totfact>
</mgrwt>
</event>
<event>
 6    1  0.8397183E-002  0.3000000E+03  0.7818608E-02  0.1093470E+00
         21   -1    0    0  501  502  0.00000000000E+00  0.00000000000E+00  0.20458816169E+01  0.20458816169E+01  0.00000000000E+00 0. -1.
         13   -1    0    0    0    0 -0.00000000000E+00 -0.00000000000E+00 -0.10000000000E+04  0.10000000000E+04  0.00000000000E+00 0.  1.
    9000005    2    1    2  501    0 -0.54062676908E+01 -0.36284929332E+02 -0.20752449557E+03  0.21076539251E+03  0.31321860831E+01 0.  0.
         13    1    3    3    0    0  0.13140868799E+00 -0.74613443999E+01 -0.40593719685E+02  0.41273950700E+02  0.00000000000E+00 0.  1.
          1    1    3    3  501    0 -0.55376763788E+01 -0.28823584933E+02 -0.16693077589E+03  0.16949144181E+03  0.00000000000E+00 0.  1.
         -1    1    1    2    0  502  0.54062676908E+01  0.36284929332E+02 -0.79042962281E+03  0.79128048911E+03  0.00000000000E+00 0. -1.
<mgrwt>
<rscale>  1 0.30000000E+03</rscale>
<asrwt>0</asrwt>
<pdfrwt beam="1">  1       21 0.74395852E-02 0.30000000E+03</pdfrwt>
<pdfrwt beam="2">0</pdfrwt>
<totfact> 0.14508430E+04</totfact>
</mgrwt>
</event>
<event>
 6    1  0.8397183E-002  0.3000000E+03  0.7818608E-02  0.1093470E+00
         21   -1    0    0  501  502  0.00000000000E+00  0.00000000000E+00  0.13754880517E+01  0.13754880517E+01  0.00000000000E+00 0. -1.
         13   -1    0    0    0    0 -0.00000000000E+00 -0.00000000000E+00 -0.10000000000E+04  0.10000000000E+04  0.00000000000E+00 0.  1.
    9000005    2    1    2  501    0  0.27553876369E+02  0.14694443891E+02 -0.23593579832E+03  0.23804776245E+03  0.50885648127E+01 0.  0.
         13    1    3    3    0    0  0.27473682510E+02  0.15004018255E+02 -0.23267837543E+03  0.23477467961E+03  0.00000000000E+00 0.  1.
          1    1    3    3  501    0  0.80193859862E-01 -0.30957436456E+00 -0.32574228955E+01  0.32730828377E+01  0.00000000000E+00 0.  1.
         -3    1    1    2    0  502 -0.27553876369E+02 -0.14694443891E+02 -0.76268871362E+03  0.76332772560E+03  0.00000000000E+00 0. -1.
<mgrwt>
<rscale>  1 0.30000000E+03</rscale>
<asrwt>0</asrwt>
<pdfrwt beam="1">  1       21 0.50017853E-02 0.30000000E+03</pdfrwt>
<pdfrwt beam="2">0</pdfrwt>
<totfact> 0.28787131E+04</totfact>
</mgrwt>
</event>
<event>
 6    1  0.8397183E-002  0.3000000E+03  0.7818608E-02  0.1093470E+00
         21   -1    0    0  501  502  0.00000000000E+00  0.00000000000E+00  0.12670002105E+01  0.12670002105E+01  0.00000000000E+00 0. -1.
         13   -1    0    0    0    0 -0.00000000000E+00 -0.00000000000E+00 -0.10000000000E+04  0.10000000000E+04  0.00000000000E+00 0.  1.
    9000005    2    1    2  501    0  0.23509381083E+02  0.24678880298E+02 -0.63669040770E+03  0.63762352561E+03  0.52294382251E+01 0.  0.
         13    1    3    3    0    0  0.22745198684E+02  0.22565981232E+02 -0.57473106720E+03  0.57562345954E+03  0.00000000000E+00 0.  1.
          3    1    3    3  501    0  0.76418239903E+00  0.21128990663E+01 -0.61959340501E+02  0.62000066069E+02  0.00000000000E+00 0.  1.
         -3    1    1    2    0  502 -0.23509381083E+02 -0.24678880298E+02 -0.36204259209E+03  0.36364347460E+03  0.00000000000E+00 0. -1.
<mgrwt>
<rscale>  1 0.30000000E+03</rscale>
<asrwt>0</asrwt>
<pdfrwt beam="1">  1       21 0.46072832E-02 0.30000000E+03</pdfrwt>
<pdfrwt beam="2">0</pdfrwt>
<totfact> 0.33106676E+04</totfact>
</mgrwt>
</event>
<event>
 6    1  0.8397183E-002  0.3000000E+03  0.7818608E-02  0.1093470E+00
         21   -1    0    0  501  502  0.00000000000E+00  0.00000000000E+00  0.11428245711E+01  0.11428245711E+01  0.00000000000E+00 0. -1.
         13   -1    0    0    0    0 -0.00000000000E+00 -0.00000000000E+00 -0.10000000000E+04  0.10000000000E+04  0.00000000000E+00 0.  1.
    9000005    2    1    2  501    0  0.30341059364E+02 -0.14750254293E+02 -0.51202829076E+03  0.51314639750E+03  0.28469009262E+01 0.  0.
         13    1    3    3    0    0  0.27121297386E+02 -0.13592987510E+02 -0.47078557394E+03  0.47176200643E+03  0.00000000000E+00 0.  1.
          3    1    3    3  501    0  0.32197619772E+01 -0.11572667827E+01 -0.41242716820E+02  0.41384391071E+02  0.00000000000E+00 0.  1.
         -1    1    1    2    0  502 -0.30341059364E+02  0.14750254293E+02 -0.48682888467E+03  0.48799642707E+03  0.00000000000E+00 0. -1.
<mgrwt>
<rscale>  1 0.30000000E+03</rscale>
<asrwt>0</asrwt>
<pdfrwt beam="1">  1       21 0.41557345E-02 0.30000000E+03</pdfrwt>
<pdfrwt beam="2">0</pdfrwt>
<totfact> 0.39425348E+04</totfact>
</mgrwt>
</event>
<event>
 6    1  0.8397183E-002  0.3000000E+03  0.7818608E-02  0.1093470E+00
         21   -1    0    0  501  502  0.00000000000E+00  0.00000000000E+00  0.53173272520E+01  0.53173272520E+01  0.00000000000E+00 0. -1.
         13   -1    0    0    0    0 -0.00000000000E+00 -0.00000000000E+00 -0.10000000000E+04  0.10000000000E+04  0.00000000000E+00 0.  1.
    9000005    2    1    2  501    0  0.51741946926E+01 -0.70828432032E+02 -0.61044698615E+03  0.61457380276E+03  0.34636783313E+01 0.  0.
         13    1    3    3    0    0  0.44569557870E+01 -0.43449313959E+02 -0.38459930510E+03  0.38707148283E+03  0.00000000000E+00 0.  1.
          3    1    3    3  501    0  0.71723890560E+00 -0.27379118073E+02 -0.22584768105E+03  0.22750231993E+03  0.00000000000E+00 0.  1.
         -1    1    1    2    0  502 -0.51741946926E+01  0.70828432032E+02 -0.38423568660E+03  0.39074352449E+03  0.00000000000E+00 0. -1.
<mgrwt>
<rscale>  1 0.30000000E+03</rscale>
<asrwt>0</asrwt>
<pdfrwt beam="1">  1       21 0.19335776E-01 0.30000000E+03</pdfrwt>
<pdfrwt beam="2">0</pdfrwt>
<totfact> 0.25586067E+03</totfact>
</mgrwt>
</event>
<event>
 6    1  0.8397183E-002  0.3000000E+03  0.7818608E-02  0.1093470E+00
         21   -1    0    0  501  502  0.00000000000E+00  0.00000000000E+00  0.73509383766E+01  0.73509383766E+01  0.00000000000E+00 0. -1.
         13   -1    0    0    0    0 -0.00000000000E+00 -0.00000000000E+00 -0.10000000000E+04  0.10000000000E+04  0.00000000000E+00 0.  1.
    9000005    2    1    2  501    0 -0.80082793421E+02  0.26911915267E+02 -0.41192152806E+03  0.42051026730E+03  0.34690984400E+01 0.  0.
         13    1    3    3    0    0 -0.47442761112E+02  0.14282646497E+02 -0.24469809909E+03  0.24966371237E+03  0.00000000000E+00 0.  1.
          1    1    3    3  501    0 -0.32640032309E+02  0.12629268769E+02 -0.16722342896E+03  0.17084655494E+03  0.00000000000E+00 0.  1.
         -1    1    1    2    0  502  0.80082793421E+02 -0.26911915267E+02 -0.58072753357E+03  0.58684067108E+03  0.00000000000E+00 0. -1.
<mgrwt>
<rscale>  1 0.30000000E+03</rscale>
<asrwt>0</asrwt>
<pdfrwt beam="1">  1       21 0.26730741E-01 0.30000000E+03</pdfrwt>
<pdfrwt beam="2">0</pdfrwt>
<totfact> 0.13672631E+03</totfact>
</mgrwt>
</event>
<event>
 6    1  0.8397183E-002  0.3000000E+03  0.7818608E-02  0.1093470E+00
         21   -1    0    0  501  502  0.00000000000E+00  0.00000000000E+00  0.10658834086E+01  0.10658834086E+01  0.00000000000E+00 0. -1.
         13   -1    0    0    0    0 -0.00000000000E+00 -0.00000000000E+00 -0.10000000000E+04  0.10000000000E+04  0.00000000000E+00 0.  1.
    9000005    2    1    2  501    0 -0.13616611816E+02  0.29212800265E+02 -0.57332370021E+03  0.57423684697E+03  0.30151909360E+01 0.  0.
         13    1    3    3    0    0 -0.73352488712E+01  0.13991670048E+02 -0.25744201640E+03  0.25792627729E+03  0.00000000000E+00 0.  1.
          1    1    3    3  501    0 -0.62813629452E+01  0.15221130217E+02 -0.31588168381E+03  0.31631056968E+03  0.00000000000E+00 0.  1.
         -3    1    1    2    0  502  0.13616611816E+02 -0.29212800265E+02 -0.42561041638E+03  0.42682903644E+03  0.00000000000E+00 0. -1.
<mgrwt>
<rscale>  1 0.30000000E+03</rscale>
<asrwt>0</asrwt>
<pdfrwt beam="1">  1       21 0.38759478E-02 0.30000000E+03</pdfrwt>
<pdfrwt beam="2">0</pdfrwt>
<totfact> 0.44336551E+04</totfact>
</mgrwt>
</event>
<event>
 6    1  0.8397183E-002  0.3000000E+03  0.7818608E-02  0.1093470E+00
         21   -1    0    0  501  502  0.00000000000E+00  0.00000000000E+00  0.16447522404E+01  0.16447522404E+01  0.00000000000E+00 0. -1.
         13   -1    0    0    0    0 -0.00000000000E+00 -0.00000000000E+00 -0.10000000000E+04  0.10000000000E+04  0.00000000000E+00 0.  1.
    9000005    2    1    2  501    0 -0.39988432983E+02 -0.61436459657E+01 -0.51473831780E+03  0.51633850450E+03  0.36188745866E+01 0.  0.
         13    1    3    3    0    0 -0.38127916483E+02 -0.65800398011E+01 -0.49345313184E+03  0.49496770426E+03  0.00000000000E+00 0.  1.
          3    1    3    3  501    0 -0.18605165004E+01  0.43639383538E+00 -0.21285185966E+02  0.21370800238E+02  0.00000000000E+00 0.  1.
         -3    1    1    2    0  502  0.39988432983E+02  0.61436459657E+01 -0.48361692996E+03  0.48530624774E+03  0.00000000000E+00 0. -1.
<mgrwt>
<rscale>  1 0.30000000E+03</rscale>
<asrwt>0</asrwt>
<pdfrwt beam="1">  1       21 0.59809299E-02 0.30000000E+03</pdfrwt>
<pdfrwt beam="2">0</pdfrwt>
<totfact> 0.21187665E+04</totfact>
</mgrwt>
</event>
<event>
 6    1  0.8397183E-002  0.3000000E+03  0.7818608E-02  0.1093470E+00
         21   -1    0    0  501  502  0.00000000000E+00  0.00000000000E+00  0.13332816738E+01  0.13332816738E+01  0.00000000000E+00 0. -1.
         13   -1    0    0    0    0 -0.00000000000E+00 -0.00000000000E+00 -0.10000000000E+04  0.10000000000E+04  0.00000000000E+00 0.  1.
    9000005    2    1    2  501    0  0.14609397005E+02  0.33302169143E+02 -0.52729501525E+03  0.52856087194E+03  0.37541019317E+01 0.  0.
         13    1    3    3    0    0  0.90052600192E+01  0.24709424560E+02 -0.38111600475E+03  0.38202232846E+03  0.00000000000E+00 0.  1.
          1    1    3    3  501    0  0.56041369856E+01  0.85927445825E+01 -0.14617901051E+03  0.14653854347E+03  0.00000000000E+00 0.  1.
         -1    1    1    2    0  502 -0.14609397005E+02 -0.33302169143E+02 -0.47137170307E+03  0.47277240974E+03  0.00000000000E+00 0. -1.
<mgrwt>
<rscale>  1 0.30000000E+03</rscale>
<asrwt>0</asrwt>
<pdfrwt beam="1">  1       21 0.48483072E-02 0.30000000E+03</pdfrwt>
<pdfrwt beam="2">0</pdfrwt>
<totfact> 0.30356742E+04</totfact>
</mgrwt>
</event>
<event>
 6    1  0.8397183E-002  0.3000000E+03  0.7818608E-02  0.1093470E+00
         21   -1    0    0  501  502  0.00000000000E+00  0.00000000000E+00  0.10136522832E+01  0.10136522832E+01  0.00000000000E+00 0. -1.
         13   -1    0    0    0    0 -0.00000000000E+00 -0.00000000000E+00 -0.10000000000E+04  0.10000000000E+04  0.00000000000E+00 0.  1.
    9000005    2    1    2  501    0 -0.21558467154E+02 -0.22347358842E+02 -0.59526525019E+03  0.59610020901E+03  0.55289372976E+01 0.  0.
         13    1    3    3    0    0 -0.10187008298E+02 -0.72754466878E+01 -0.21031260951E+03  0.21068483804E+03  0.00000000000E+00 0.  1.
          1    1    3    3  501    0 -0.11371458856E+02 -0.15071912154E+02 -0.38495264068E+03  0.38541537097E+03  0.00000000000E+00 0.  1.
         -3    1    1    2    0  502  0.21558467154E+02  0.22347358842E+02 -0.40372109753E+03  0.40491344327E+03  0.00000000000E+00 0. -1.
<mgrwt>
<rscale>  1 0.30000000E+03</rscale>
<asrwt>0</asrwt>
<pdfrwt beam="1">  1       21 0.36860161E-02 0.30000000E+03</pdfrwt>
<pdfrwt beam="2">0</pdfrwt>
<totfact> 0.48241049E+04</totfact>
</mgrwt>
</event>
<event>
 6    1  0.8397183E-002  0.3000000E+03  0.7818608E-02  0.1093470E+00
         21   -1    0    0  501  502  0.00000000000E+00  0.00000000000E+00  0.14582228831E+01  0.14582228831E+01  0.00000000000E+00 0. -1.
         13   -1    0    0    0    0 -0.00000000000E+00 -0.00000000000E+00 -0.10000000000E+04  0.10000000000E+04  0.00000000000E+00 0.  1.
    9000005    2    1    2  501    0 -0.25439609712E+02 -0.27750058848E+02 -0.42270101838E+03  0.42438819340E+03  0.34566236368E+01 0.  0.
         13    1    3    3    0    0 -0.31137371028E+01 -0.52726533589E+01 -0.67847101441E+02  0.68122869920E+02  0.00000000000E+00 0.  1.
          1    1    3    3  501    0 -0.22325872609E+02 -0.22477405489E+02 -0.35485391694E+03  0.35626532348E+03  0.00000000000E+00 0.  1.
         -1    1    1    2    0  502  0.25439609712E+02  0.27750058848E+02 -0.57584075874E+03  0.57707002949E+03  0.00000000000E+00 0. -1.
<mgrwt>
<rscale>  1 0.30000000E+03</rscale>
<asrwt>0</asrwt>
<pdfrwt beam="1">  1       21 0.53026398E-02 0.30000000E+03</pdfrwt>
<pdfrwt beam="2">0</pdfrwt>
<totfact> 0.26054664E+04</totfact>
</mgrwt>
</event>
<event>
 6    1  0.8397183E-002  0.3000000E+03  0.7818608E-02  0.1093470E+00
         21   -1    0    0  501  502  0.00000000000E+00  0.00000000000E+00  0.11067237713E+01  0.11067237713E+01  0.00000000000E+00 0. -1.
         13   -1    0    0    0    0 -0.00000000000E+00 -0.00000000000E+00 -0.10000000000E+04  0.10000000000E+04  0.00000000000E+00 0.  1.
    9000005    2    1    2  501    0  0.11610098051E+02 -0.27743243977E+02 -0.28893769380E+03  0.29051442787E+03  0.30265397672E+01 0.  0.
         13    1    3    3    0    0  0.17870661354E+01 -0.73402143344E+01 -0.77762838923E+02  0.78128941303E+02  0.00000000000E+00 0.  1.
          3    1    3    3  501    0  0.98230319153E+01 -0.20403029642E+02 -0.21117485488E+03  0.21238548657E+03  0.00000000000E+00 0.  1.
         -3    1    1    2    0  502 -0.11610098051E+02  0.27743243977E+02 -0.70995558243E+03  0.71059229590E+03  0.00000000000E+00 0. -1.
<mgrwt>
<rscale>  1 0.30000000E+03</rscale>
<asrwt>0</asrwt>
<pdfrwt beam="1">  1       21 0.40244586E-02 0.30000000E+03</pdfrwt>
<pdfrwt beam="2">0</pdfrwt>
<totfact> 0.41617812E+04</totfact>
</mgrwt>
</event>
<event>
 6    1  0.8397183E-002  0.3000000E+03  0.7818608E-02  0.1093470E+00
         21   -1    0    0  501  502  0.00000000000E+00  0.00000000000E+00  0.10450535474E+01  0.10450535474E+01  0.00000000000E+00 0. -1.
         13   -1    0    0    0    0 -0.00000000000E+00 -0.00000000000E+00 -0.10000000000E+04  0.10000000000E+04  0.00000000000E+00 0.  1.
    9000005    2    1    2  501    0 -0.31593787914E+02  0.62041620198E+01 -0.47177599603E+03  0.47288380466E+03  0.31373899012E+01 0.  0.
         13    1    3    3    0    0 -0.24412199078E+02  0.34810111179E+01 -0.35464856360E+03  0.35550481933E+03  0.00000000000E+00 0.  1.
          3    1    3    3  501    0 -0.71815888359E+01  0.27231509019E+01 -0.11712743243E+03  0.11737898533E+03  0.00000000000E+00 0.  1.
         -3    1    1    2    0  502  0.31593787914E+02 -0.62041620198E+01 -0.52717895042E+03  0.52816124889E+03  0.00000000000E+00 0. -1.
<mgrwt>
<rscale>  1 0.30000000E+03</rscale>
<asrwt>0</asrwt>
<pdfrwt beam="1">  1       21 0.38002027E-02 0.30000000E+03</pdfrwt>
<pdfrwt beam="2">0</pdfrwt>
<totfact> 0.45831973E+04</totfact>
</mgrwt>
</event>
<event>
 6    1  0.8397183E-002  0.3000000E+03  0.7818608E-02  0.1093470E+00
         21   -1    0    0  501  502  0.00000000000E+00  0.00000000000E+00  0.69146880310E+01  0.69146880310E+01  0.00000000000E+00 0. -1.
         13   -1    0    0    0    0 -0.00000000000E+00 -0.00000000000E+00 -0.10000000000E+04  0.10000000000E+04  0.00000000000E+00 0.  1.
    9000005    2    1    2  501    0  0.14909492215E+02 -0.45044175356E+02 -0.90995171754E+03  0.91119392114E+03  0.33110382726E+01 0.  0.
         13    1    3    3    0    0  0.25645479800E+01 -0.10397521035E+02 -0.22715418017E+03  0.22740647950E+03  0.00000000000E+00 0.  1.
          1    1    3    3  501    0  0.12344944235E+02 -0.34646654321E+02 -0.68279753738E+03  0.68378744164E+03  0.00000000000E+00 0.  1.
         -3    1    1    2    0  502 -0.14909492215E+02  0.45044175356E+02 -0.83133594425E+02  0.95720766888E+02  0.00000000000E+00 0. -1.
<mgrwt>
<rscale>  1 0.30000000E+03</rscale>
<asrwt>0</asrwt>
<pdfrwt beam="1">  1       21 0.25144373E-01 0.30000000E+03</pdfrwt>
<pdfrwt beam="2">0</pdfrwt>
<totfact> 0.15421111E+03</totfact>
</mgrwt>
</event>
<event>
 6    1  0.8397183E-002  0.3000000E+03  0.7818608E-02  0.1093470E+00
         21   -1    0    0  501  502  0.00000000000E+00  0.00000000000E+00  0.36550327609E+01  0.36550327609E+01  0.00000000000E+00 0. -1.
         13   -1    0    0    0    0 -0.00000000000E+00 -0.00000000000E+00 -0.10000000000E+04  0.10000000000E+04  0.00000000000E+00 0.  1.
    9000005    2    1    2  501    0  0.21804663895E+02  0.54789070843E+02 -0.60777864299E+03  0.61063967175E+03  0.29400997637E+01 0.  0.
         13    1    3    3    0    0  0.10137728817E+02  0.28815828836E+02 -0.32277374176E+03  0.32421599885E+03  0.00000000000E+00 0.  1.
          3    1    3    3  501    0  0.11666935078E+02  0.25973242007E+02 -0.28500490123E+03  0.28642367290E+03  0.00000000000E+00 0.  1.
         -3    1    1    2    0  502 -0.21804663895E+02 -0.54789070843E+02 -0.38856632424E+03  0.39301536101E+03  0.00000000000E+00 0. -1.
<mgrwt>
<rscale>  1 0.30000000E+03</rscale>
<asrwt>0</asrwt>
<pdfrwt beam="1">  1       21 0.13291056E-01 0.30000000E+03</pdfrwt>
<pdfrwt beam="2">0</pdfrwt>
<totfact> 0.51440867E+03</totfact>
</mgrwt>
</event>
<event>
 6    1  0.8397183E-002  0.3000000E+03  0.7818608E-02  0.1093470E+00
         21   -1    0    0  501  502  0.00000000000E+00  0.00000000000E+00  0.13583154698E+01  0.13583154698E+01  0.00000000000E+00 0. -1.
         13   -1    0    0    0    0 -0.00000000000E+00 -0.00000000000E+00 -0.10000000000E+04  0.10000000000E+04  0.00000000000E+00 0.  1.
    9000005    2    1    2  501    0 -0.14311405010E+02 -0.29038785851E+02 -0.26722047944E+03  0.26922100140E+03  0.50095474680E+01 0.  0.
         13    1    3    3    0    0 -0.18175918360E+01 -0.43734298480E+01 -0.26730251851E+02  0.27146581603E+02  0.00000000000E+00 0.  1.
          3    1    3    3  501    0 -0.12493813174E+02 -0.24665356003E+02 -0.24049022759E+03  0.24207441979E+03  0.00000000000E+00 0.  1.
         -3    1    1    2    0  502  0.14311405010E+02  0.29038785851E+02 -0.73142120509E+03  0.73213731407E+03  0.00000000000E+00 0. -1.
<mgrwt>
<rscale>  1 0.30000000E+03</rscale>
<asrwt>0</asrwt>
<pdfrwt beam="1">  1       21 0.49393394E-02 0.30000000E+03</pdfrwt>
<pdfrwt beam="2">0</pdfrwt>
<totfact> 0.29410133E+04</totfact>
</mgrwt>
</event>
<event>
 6    1  0.8397183E-002  0.3000000E+03  0.7818608E-02  0.1093470E+00
         21   -1    0    0  501  502  0.00000000000E+00  0.00000000000E+00  0.19255160580E+01  0.19255160580E+01  0.00000000000E+00 0. -1.
         13   -1    0    0    0    0 -0.00000000000E+00 -0.00000000000E+00 -0.10000000000E+04  0.10000000000E+04  0.00000000000E+00 0.  1.
    9000005    2    1    2  501    0  0.25775955376E+02  0.34861932157E+02 -0.55707732527E+03  0.55880222831E+03  0.67104279497E+01 0.  0.
         13    1    3    3    0    0  0.13350345317E+02  0.14792313037E+02 -0.22068766206E+03  0.22158539760E+03  0.00000000000E+00 0.  1.
          3    1    3    3  501    0  0.12425610059E+02  0.20069619120E+02 -0.33638966322E+03  0.33721683071E+03  0.00000000000E+00 0.  1.
         -3    1    1    2    0  502 -0.25775955376E+02 -0.34861932157E+02 -0.44099715867E+03  0.44312328775E+03  0.00000000000E+00 0. -1.
<mgrwt>
<rscale>  1 0.30000000E+03</rscale>
<asrwt>0</asrwt>
<pdfrwt beam="1">  1       21 0.70018913E-02 0.30000000E+03</pdfrwt>
<pdfrwt beam="2">0</pdfrwt>
<totfact> 0.16127702E+04</totfact>
</mgrwt>
</event>
<event>
 6    1  0.8397183E-002  0.3000000E+03  0.7818608E-02  0.1093470E+00
         21   -1    0    0  501  502  0.00000000000E+00  0.00000000000E+00  0.13563845086E+01  0.13563845086E+01  0.00000000000E+00 0. -1.
         13   -1    0    0    0    0 -0.00000000000E+00 -0.00000000000E+00 -0.10000000000E+04  0.10000000000E+04  0.00000000000E+00 0.  1.
    9000005    2    1    2  501    0  0.36522931721E+02 -0.26187099845E+00 -0.55861712371E+03  0.55981668461E+03  0.27633940599E+01 0.  0.
         13    1    3    3    0    0  0.14879812126E+02  0.48244134459E+00 -0.24651497166E+03  0.24696411240E+03  0.00000000000E+00 0.  1.
          3    1    3    3  501    0  0.21643119595E+02 -0.74431234304E+00 -0.31210215205E+03  0.31285257221E+03  0.00000000000E+00 0.  1.
         -3    1    1    2    0  502 -0.36522931721E+02  0.26187099845E+00 -0.44002649178E+03  0.44153969990E+03  0.00000000000E+00 0. -1.
<mgrwt>
<rscale>  1 0.30000000E+03</rscale>
<asrwt>0</asrwt>
<pdfrwt beam="1">  1       21 0.49323177E-02 0.30000000E+03</pdfrwt>
<pdfrwt beam="2">0</pdfrwt>
<totfact> 0.29481499E+04</totfact>
</mgrwt>
</event>
<event>
 6    1  0.8397183E-002  0.3000000E+03  0.7818608E-02  0.1093470E+00
         21   -1    0    0  501  502  0.00000000000E+00  0.00000000000E+00  0.10371962699E+01  0.10371962699E+01  0.00000000000E+00 0. -1.
         13   -1    0    0    0    0 -0.00000000000E+00 -0.00000000000E+00 -0.10000000000E+04  0.10000000000E+04  0.00000000000E+00 0.  1.
    9000005    2    1    2  501    0 -0.19511735494E+02  0.25506733829E+02 -0.50500563388E+03  0.50603720947E+03  0.34155259992E+01 0.  0.
         13    1    3    3    0    0 -0.96801691477E-01  0.11103688270E+01 -0.16548368777E+02  0.16585861409E+02  0.00000000000E+00 0.  1.
          3    1    3    3  501    0 -0.19414933802E+02  0.24396365002E+02 -0.48845726511E+03  0.48945134806E+03  0.00000000000E+00 0.  1.
         -1    1    1    2    0  502  0.19511735494E+02 -0.25506733829E+02 -0.49395716985E+03  0.49499998680E+03  0.00000000000E+00 0. -1.
<mgrwt>
<rscale>  1 0.30000000E+03</rscale>
<asrwt>0</asrwt>
<pdfrwt beam="1">  1       21 0.37716308E-02 0.30000000E+03</pdfrwt>
<pdfrwt beam="2">0</pdfrwt>
<totfact> 0.46416732E+04</totfact>
</mgrwt>
</event>
<event>
 6    1  0.8397183E-002  0.3000000E+03  0.7818608E-02  0.1093470E+00
         21   -1    0    0  501  502  0.00000000000E+00  0.00000000000E+00  0.15747720801E+01  0.15747720801E+01  0.00000000000E+00 0. -1.
         13   -1    0    0    0    0 -0.00000000000E+00 -0.00000000000E+00 -0.10000000000E+04  0.10000000000E+04  0.00000000000E+00 0.  1.
    9000005    2    1    2  501    0 -0.24081442628E+02 -0.31124878547E+02 -0.44225187242E+03  0.44401089654E+03  0.32068115169E+01 0.  0.
         13    1    3    3    0    0 -0.19473272045E+02 -0.22942877546E+02 -0.33636369294E+03  0.33770714810E+03  0.00000000000E+00 0.  1.
          1    1    3    3  501    0 -0.46081705838E+01 -0.81820010014E+01 -0.10588817949E+03  0.10630374843E+03  0.00000000000E+00 0.  1.
         -1    1    1    2    0  502  0.24081442628E+02  0.31124878547E+02 -0.55617335550E+03  0.55756387554E+03  0.00000000000E+00 0. -1.
<mgrwt>
<rscale>  1 0.30000000E+03</rscale>
<asrwt>0</asrwt>
<pdfrwt beam="1">  1       21 0.57264560E-02 0.30000000E+03</pdfrwt>
<pdfrwt beam="2">0</pdfrwt>
<totfact> 0.22835668E+04</totfact>
</mgrwt>
</event>
<event>
 6    1  0.8397183E-002  0.3000000E+03  0.7818608E-02  0.1093470E+00
         21   -1    0    0  501  502  0.00000000000E+00  0.00000000000E+00  0.21372580468E+01  0.21372580468E+01  0.00000000000E+00 0. -1.
         13   -1    0    0    0    0 -0.00000000000E+00 -0.00000000000E+00 -0.10000000000E+04  0.10000000000E+04  0.00000000000E+00 0.  1.
    9000005    2    1    2  501    0  0.27632664052E+02 -0.33093705119E+02 -0.67844216984E+03  0.67982024123E+03  0.36090340097E+01 0.  0.
         13    1    3    3    0    0  0.21887395292E+02 -0.27909207054E+02 -0.54291663032E+03  0.54407393743E+03  0.00000000000E+00 0.  1.
          3    1    3    3  501    0  0.57452687607E+01 -0.51844980653E+01 -0.13552553952E+03  0.13574630380E+03  0.00000000000E+00 0.  1.
         -1    1    1    2    0  502 -0.27632664052E+02  0.33093705119E+02 -0.31942057212E+03  0.32231701682E+03  0.00000000000E+00 0. -1.
<mgrwt>
<rscale>  1 0.30000000E+03</rscale>
<asrwt>0</asrwt>
<pdfrwt beam="1">  1       21 0.77718638E-02 0.30000000E+03</pdfrwt>
<pdfrwt beam="2">0</pdfrwt>
<totfact> 0.13439237E+04</totfact>
</mgrwt>
</event>
<event>
 6    1  0.9526507E-002  0.3000000E+03  0.7818608E-02  0.1093470E+00
         21   -1    0    0  501  502  0.00000000000E+00  0.00000000000E+00  0.14472477224E+01  0.14472477224E+01  0.00000000000E+00 0. -1.
         13   -1    0    0    0    0 -0.00000000000E+00 -0.00000000000E+00 -0.10000000000E+04  0.10000000000E+04  0.00000000000E+00 0.  1.
    9000005    2    1    2  501    0  0.36686906685E+02  0.52437996179E+01 -0.44581995533E+03  0.44747344746E+03  0.10179737421E+02 0.  0.
         13    1    3    3    0    0  0.29498967952E+01  0.32261560580E+00 -0.14075400659E+02  0.14384814064E+02  0.00000000000E+00 0.  1.
          3    1    3    3  501    0  0.33737009890E+02  0.49211840121E+01 -0.43174455467E+03  0.43308863340E+03  0.00000000000E+00 0.  1.
         -3    1    1    2    0  502 -0.36686906685E+02 -0.52437996179E+01 -0.55273279695E+03  0.55397380026E+03  0.00000000000E+00 0. -1.
<mgrwt>
<rscale>  1 0.30000000E+03</rscale>
<asrwt>0</asrwt>
<pdfrwt beam="1">  1       21 0.52627301E-02 0.30000000E+03</pdfrwt>
<pdfrwt beam="2">0</pdfrwt>
<totfact> 0.26393437E+04</totfact>
</mgrwt>
</event>
<event>
 6    1  0.8397183E-002  0.3000000E+03  0.7818608E-02  0.1093470E+00
         21   -1    0    0  501  502  0.00000000000E+00  0.00000000000E+00  0.18303229296E+01  0.18303229296E+01  0.00000000000E+00 0. -1.
         13   -1    0    0    0    0 -0.00000000000E+00 -0.00000000000E+00 -0.10000000000E+04  0.10000000000E+04  0.00000000000E+00 0.  1.
    9000005    2    1    2  501    0  0.32892348752E+02 -0.23680915498E+02 -0.65763297120E+03  0.65889018178E+03  0.35290897046E+01 0.  0.
         13    1    3    3    0    0  0.51546372302E+01 -0.22312624445E+01 -0.88125473538E+02  0.88304291535E+02  0.00000000000E+00 0.  1.
          1    1    3    3  501    0  0.27737711522E+02 -0.21449653054E+02 -0.56950749766E+03  0.57058589025E+03  0.00000000000E+00 0.  1.
         -3    1    1    2    0  502 -0.32892348752E+02  0.23680915498E+02 -0.34053670587E+03  0.34294014115E+03  0.00000000000E+00 0. -1.
<mgrwt>
<rscale>  1 0.30000000E+03</rscale>
<asrwt>0</asrwt>
<pdfrwt beam="1">  1       21 0.66557338E-02 0.30000000E+03</pdfrwt>
<pdfrwt beam="2">0</pdfrwt>
<totfact> 0.17612503E+04</totfact>
</mgrwt>
</event>
<event>
 6    1  0.8397183E-002  0.3000000E+03  0.7818608E-02  0.1093470E+00
         21   -1    0    0  501  502  0.00000000000E+00  0.00000000000E+00  0.18274592739E+01  0.18274592739E+01  0.00000000000E+00 0. -1.
         13   -1    0    0    0    0 -0.00000000000E+00 -0.00000000000E+00 -0.10000000000E+04  0.10000000000E+04  0.00000000000E+00 0.  1.
    9000005    2    1    2  501    0  0.33233963889E+02 -0.26665723159E+02 -0.52686274212E+03  0.52859550409E+03  0.36470207064E+01 0.  0.
         13    1    3    3    0    0  0.32229764072E+02 -0.26362545660E+02 -0.51802686038E+03  0.51969757512E+03  0.00000000000E+00 0.  1.
          3    1    3    3  501    0  0.10041998167E+01 -0.30317749893E+00 -0.88358817382E+01  0.88979289703E+01  0.00000000000E+00 0.  1.
         -1    1    1    2    0  502 -0.33233963889E+02  0.26665723159E+02 -0.47130979861E+03  0.47323195519E+03  0.00000000000E+00 0. -1.
<mgrwt>
<rscale>  1 0.30000000E+03</rscale>
<asrwt>0</asrwt>
<pdfrwt beam="1">  1       21 0.66453205E-02 0.30000000E+03</pdfrwt>
<pdfrwt beam="2">0</pdfrwt>
<totfact> 0.17660383E+04</totfact>
</mgrwt>
</event>
<event>
 6    1  0.8397183E-002  0.3000000E+03  0.7818608E-02  0.1093470E+00
         21   -1    0    0  501  502  0.00000000000E+00  0.00000000000E+00  0.98501358728E+00  0.98501358728E+00  0.00000000000E+00 0. -1.
         13   -1    0    0    0    0 -0.00000000000E+00 -0.00000000000E+00 -0.10000000000E+04  0.10000000000E+04  0.00000000000E+00 0.  1.
    9000005    2    1    2  501    0  0.30731870271E+02 -0.47494424626E+01 -0.54737358527E+03  0.54827433304E+03  0.44606464482E+01 0.  0.
         13    1    3    3    0    0  0.15839141004E+02 -0.38920428935E+01 -0.31561064267E+03  0.31603180877E+03  0.00000000000E+00 0.  1.
          1    1    3    3  501    0  0.14892729267E+02 -0.85739956908E+00 -0.23176294259E+03  0.23224252427E+03  0.00000000000E+00 0.  1.
         -1    1    1    2    0  502 -0.30731870271E+02  0.47494424626E+01 -0.45164140115E+03  0.45271068055E+03  0.00000000000E+00 0. -1.
<mgrwt>
<rscale>  1 0.30000000E+03</rscale>
<asrwt>0</asrwt>
<pdfrwt beam="1">  1       21 0.35818751E-02 0.30000000E+03</pdfrwt>
<pdfrwt beam="2">0</pdfrwt>
<totfact> 0.50616905E+04</totfact>
</mgrwt>
</event>
<event>
 6    1  0.8397183E-002  0.3000000E+03  0.7818608E-02  0.1093470E+00
         21   -1    0    0  501  502  0.00000000000E+00  0.00000000000E+00  0.14218067795E+01  0.14218067795E+01  0.00000000000E+00 0. -1.
         13   -1    0    0    0    0 -0.00000000000E+00 -0.00000000000E+00 -0.10000000000E+04  0.10000000000E+04  0.00000000000E+00 0.  1.
    9000005    2    1    2  501    0  0.22247555903E+02 -0.29016451221E+02 -0.38048266493E+03  0.38224574920E+03  0.28011221221E+01 0.  0.
         13    1    3    3    0    0  0.16619693595E+02 -0.21222966910E+02 -0.29250067889E+03  0.29374014994E+03  0.00000000000E+00 0.  1.
          1    1    3    3  501    0  0.56278623084E+01 -0.77934843113E+01 -0.87981986043E+02  0.88505599258E+02  0.00000000000E+00 0.  1.
         -3    1    1    2    0  502 -0.22247555903E+02  0.29016451221E+02 -0.61809552829E+03  0.61917605758E+03  0.00000000000E+00 0. -1.
<mgrwt>
<rscale>  1 0.30000000E+03</rscale>
<asrwt>0</asrwt>
<pdfrwt beam="1">  1       21 0.51702174E-02 0.30000000E+03</pdfrwt>
<pdfrwt beam="2">0</pdfrwt>
<totfact> 0.27205487E+04</totfact>
</mgrwt>
</event>
<event>
 6    1  0.8397183E-002  0.3000000E+03  0.7818608E-02  0.1093470E+00
         21   -1    0    0  501  502  0.00000000000E+00  0.00000000000E+00  0.18148027338E+01  0.18148027338E+01  0.00000000000E+00 0. -1.
         13   -1    0    0    0    0 -0.00000000000E+00 -0.00000000000E+00 -0.10000000000E+04  0.10000000000E+04  0.00000000000E+00 0.  1.
    9000005    2    1    2  501    0 -0.34779977567E+02  0.23329663914E+02 -0.41203943763E+03  0.41417480103E+03  0.32167672255E+01 0.  0.
         13    1    3    3    0    0 -0.17789357786E+02  0.13715066728E+02 -0.21433051249E+03  0.21550436861E+03  0.00000000000E+00 0.  1.
          3    1    3    3  501    0 -0.16990619781E+02  0.96145971864E+01 -0.19770892513E+03  0.19867043242E+03  0.00000000000E+00 0.  1.
         -3    1    1    2    0  502  0.34779977567E+02 -0.23329663914E+02 -0.58614575964E+03  0.58764000170E+03  0.00000000000E+00 0. -1.
<mgrwt>
<rscale>  1 0.30000000E+03</rscale>
<asrwt>0</asrwt>
<pdfrwt beam="1">  1       21 0.65992966E-02 0.30000000E+03</pdfrwt>
<pdfrwt beam="2">0</pdfrwt>
<totfact> 0.17874419E+04</totfact>
</mgrwt>
</event>
<event>
 6    1  0.8397183E-002  0.3000000E+03  0.7818608E-02  0.1093470E+00
         21   -1    0    0  501  502  0.00000000000E+00  0.00000000000E+00  0.11314119220E+01  0.11314119220E+01  0.00000000000E+00 0. -1.
         13   -1    0    0    0    0 -0.00000000000E+00 -0.00000000000E+00 -0.10000000000E+04  0.10000000000E+04  0.00000000000E+00 0.  1.
    9000005    2    1    2  501    0  0.27244986980E+02  0.18139184745E+02 -0.39105177261E+03  0.39243394971E+03  0.34053904465E+01 0.  0.
         13    1    3    3    0    0  0.20001673529E+02  0.12654707779E+02 -0.29874181281E+03  0.29967795931E+03  0.00000000000E+00 0.  1.
          3    1    3    3  501    0  0.72433134505E+01  0.54844769659E+01 -0.92309959798E+02  0.92755990401E+02  0.00000000000E+00 0.  1.
         -1    1    1    2    0  502 -0.27244986980E+02 -0.18139184745E+02 -0.60781681547E+03  0.60869746222E+03  0.00000000000E+00 0. -1.
<mgrwt>
<rscale>  1 0.30000000E+03</rscale>
<asrwt>0</asrwt>
<pdfrwt beam="1">  1       21 0.41142338E-02 0.30000000E+03</pdfrwt>
<pdfrwt beam="2">0</pdfrwt>
<totfact> 0.40098593E+04</totfact>
</mgrwt>
</event>
<event>
 6    1  0.8397183E-002  0.3000000E+03  0.7818608E-02  0.1093470E+00
         21   -1    0    0  501  502  0.00000000000E+00  0.00000000000E+00  0.19321648513E+01  0.19321648513E+01  0.00000000000E+00 0. -1.
         13   -1    0    0    0    0 -0.00000000000E+00 -0.00000000000E+00 -0.10000000000E+04  0.10000000000E+04  0.00000000000E+00 0.  1.
    9000005    2    1    2  501    0  0.70724334483E+01  0.39398897018E+02 -0.29464891928E+03  0.29737523770E+03  0.34284049603E+01 0.  0.
         13    1    3    3    0    0  0.63284922584E+00  0.20133061397E+01 -0.21750678654E+02  0.21852824112E+02  0.00000000000E+00 0.  1.
          1    1    3    3  501    0  0.64395842225E+01  0.37385590878E+02 -0.27289824063E+03  0.27552241359E+03  0.00000000000E+00 0.  1.
         -1    1    1    2    0  502 -0.70724334483E+01 -0.39398897018E+02 -0.70341891587E+03  0.70455692715E+03  0.00000000000E+00 0. -1.
<mgrwt>
<rscale>  1 0.30000000E+03</rscale>
<asrwt>0</asrwt>
<pdfrwt beam="1">  1       21 0.70260688E-02 0.30000000E+03</pdfrwt>
<pdfrwt beam="2">0</pdfrwt>
<totfact> 0.16031226E+04</totfact>
</mgrwt>
</event>
<event>
 6    1  0.8397183E-002  0.3000000E+03  0.7818608E-02  0.1093470E+00
         21   -1    0    0  501  502  0.00000000000E+00  0.00000000000E+00  0.12591813211E+01  0.12591813211E+01  0.00000000000E+00 0. -1.
         13   -1    0    0    0    0 -0.00000000000E+00 -0.00000000000E+00 -0.10000000000E+04  0.10000000000E+04  0.00000000000E+00 0.  1.
    9000005    2    1    2  501    0 -0.29556452657E+02  0.16427749016E+02 -0.35715711552E+03  0.35878497717E+03  0.46903997648E+01 0.  0.
         13    1    3    3    0    0 -0.87871434180E+01  0.64632252217E+01 -0.97617794260E+02  0.98225357856E+02  0.00000000000E+00 0.  1.
          3    1    3    3  501    0 -0.20769309239E+02  0.99645237939E+01 -0.25953932126E+03  0.26055961932E+03  0.00000000000E+00 0.  1.
         -1    1    1    2    0  502  0.29556452657E+02 -0.16427749016E+02 -0.64158370316E+03  0.64247420415E+03  0.00000000000E+00 0. -1.
<mgrwt>
<rscale>  1 0.30000000E+03</rscale>
<asrwt>0</asrwt>
<pdfrwt beam="1">  1       21 0.45788508E-02 0.30000000E+03</pdfrwt>
<pdfrwt beam="2">0</pdfrwt>
<totfact> 0.33456683E+04</totfact>
</mgrwt>
</event>
<event>
 6    1  0.8397183E-002  0.3000000E+03  0.7818608E-02  0.1093470E+00
         21   -1    0    0  501  502  0.00000000000E+00  0.00000000000E+00  0.55619020845E+01  0.55619020845E+01  0.00000000000E+00 0. -1.
         13   -1    0    0    0    0 -0.00000000000E+00 -0.00000000000E+00 -0.10000000000E+04  0.10000000000E+04  0.00000000000E+00 0.  1.
    9000005    2    1    2  501    0 -0.61932783259E+02  0.41463380286E+02 -0.50521161001E+03  0.51069076935E+03  0.33777895267E+01 0.  0.
         13    1    3    3    0    0 -0.58081931567E+02  0.37849018214E+02 -0.46991700323E+03  0.47500320934E+03  0.00000000000E+00 0.  1.
          1    1    3    3  501    0 -0.38508516921E+01  0.36143620722E+01 -0.35294606772E+02  0.35687560006E+02  0.00000000000E+00 0.  1.
         -1    1    1    2    0  502  0.61932783259E+02 -0.41463380286E+02 -0.48922648791E+03  0.49487113274E+03  0.00000000000E+00 0. -1.
<mgrwt>
<rscale>  1 0.30000000E+03</rscale>
<asrwt>0</asrwt>
<pdfrwt beam="1">  1       21 0.20225141E-01 0.30000000E+03</pdfrwt>
<pdfrwt beam="2">0</pdfrwt>
<totfact> 0.23484665E+03</totfact>
</mgrwt>
</event>
<event>
 6    1  0.8397183E-002  0.3000000E+03  0.7818608E-02  0.1093470E+00
         21   -1    0    0  501  502  0.00000000000E+00  0.00000000000E+00  0.45978289369E+01  0.45978289369E+01  0.00000000000E+00 0. -1.
         13   -1    0    0    0    0 -0.00000000000E+00 -0.00000000000E+00 -0.10000000000E+04  0.10000000000E+04  0.00000000000E+00 0.  1.
    9000005    2    1    2  501    0 -0.23734337733E+02 -0.45949228215E+02 -0.17333331042E+03  0.18090379473E+03  0.26638473559E+01 0.  0.
         13    1    3    3    0    0 -0.17083308028E+01 -0.25188037074E+01 -0.12122530412E+02  0.12498740330E+02  0.00000000000E+00 0.  1.
          1    1    3    3  501    0 -0.22026006930E+02 -0.43430424508E+02 -0.16121078001E+03  0.16840505439E+03  0.00000000000E+00 0.  1.
         -1    1    1    2    0  502  0.23734337733E+02  0.45949228215E+02 -0.82206886064E+03  0.82369403421E+03  0.00000000000E+00 0. -1.
<mgrwt>
<rscale>  1 0.30000000E+03</rscale>
<asrwt>0</asrwt>
<pdfrwt beam="1">  1       21 0.16719413E-01 0.30000000E+03</pdfrwt>
<pdfrwt beam="2">0</pdfrwt>
<totfact> 0.33647120E+03</totfact>
</mgrwt>
</event>
<event>
 6    1  0.8397183E-002  0.3000000E+03  0.7818608E-02  0.1093470E+00
         21   -1    0    0  501  502  0.00000000000E+00  0.00000000000E+00  0.11620241890E+01  0.11620241890E+01  0.00000000000E+00 0. -1.
         13   -1    0    0    0    0 -0.00000000000E+00 -0.00000000000E+00 -0.10000000000E+04  0.10000000000E+04  0.00000000000E+00 0.  1.
    9000005    2    1    2  501    0 -0.14172744252E+02  0.30606800566E+02 -0.44043538511E+03  0.44174170259E+03  0.38419300305E+01 0.  0.
         13    1    3    3    0    0 -0.90170172788E+01  0.23262045973E+02 -0.31631633901E+03  0.31729868533E+03  0.00000000000E+00 0.  1.
          3    1    3    3  501    0 -0.51557269734E+01  0.73447545926E+01 -0.12411904610E+03  0.12444301726E+03  0.00000000000E+00 0.  1.
         -1    1    1    2    0  502  0.14172744252E+02 -0.30606800566E+02 -0.55840259070E+03  0.55942032160E+03  0.00000000000E+00 0. -1.
<mgrwt>
<rscale>  1 0.30000000E+03</rscale>
<asrwt>0</asrwt>
<pdfrwt beam="1">  1       21 0.42255514E-02 0.30000000E+03</pdfrwt>
<pdfrwt beam="2">0</pdfrwt>
<totfact> 0.38331772E+04</totfact>
</mgrwt>
</event>
<event>
 6    1  0.8397183E-002  0.3000000E+03  0.7818608E-02  0.1093470E+00
         21   -1    0    0  501  502  0.00000000000E+00  0.00000000000E+00  0.15242866257E+01  0.15242866257E+01  0.00000000000E+00 0. -1.
         13   -1    0    0    0    0 -0.00000000000E+00 -0.00000000000E+00 -0.10000000000E+04  0.10000000000E+04  0.00000000000E+00 0.  1.
    9000005    2    1    2  501    0 -0.21450063157E+02 -0.24602349995E+02 -0.77241512138E+03  0.77311944411E+03  0.48139671704E+01 0.  0.
         13    1    3    3    0    0 -0.12683698869E+02 -0.15389249451E+02 -0.41644527614E+03  0.41692250267E+03  0.00000000000E+00 0.  1.
          1    1    3    3  501    0 -0.87663642885E+01 -0.92131005442E+01 -0.35596984525E+03  0.35619694144E+03  0.00000000000E+00 0.  1.
         -1    1    1    2    0  502  0.21450063157E+02  0.24602349995E+02 -0.22606059199E+03  0.22840484252E+03  0.00000000000E+00 0. -1.
<mgrwt>
<rscale>  1 0.30000000E+03</rscale>
<asrwt>0</asrwt>
<pdfrwt beam="1">  1       21 0.55428721E-02 0.30000000E+03</pdfrwt>
<pdfrwt beam="2">0</pdfrwt>
<totfact> 0.24150368E+04</totfact>
</mgrwt>
</event>
<event>
 6    1  0.8397183E-002  0.3000000E+03  0.7818608E-02  0.1093470E+00
         21   -1    0    0  501  502  0.00000000000E+00  0.00000000000E+00  0.21313166929E+01  0.21313166929E+01  0.00000000000E+00 0. -1.
         13   -1    0    0    0    0 -0.00000000000E+00 -0.00000000000E+00 -0.10000000000E+04  0.10000000000E+04  0.00000000000E+00 0.  1.
    9000005    2    1    2  501    0  0.29315043162E+02  0.35509458243E+02 -0.51025713050E+03  0.51235042710E+03  0.45086075794E+01 0.  0.
         13    1    3    3    0    0  0.25164724749E+01  0.24043332315E+01 -0.27839297977E+02  0.28056014754E+02  0.00000000000E+00 0.  1.
          3    1    3    3  501    0  0.26798570687E+02  0.33105125012E+02 -0.48241783252E+03  0.48429441234E+03  0.00000000000E+00 0.  1.
         -1    1    1    2    0  502 -0.29315043162E+02 -0.35509458243E+02 -0.48761155281E+03  0.48978088960E+03  0.00000000000E+00 0. -1.
<mgrwt>
<rscale>  1 0.30000000E+03</rscale>
<asrwt>0</asrwt>
<pdfrwt beam="1">  1       21 0.77502589E-02 0.30000000E+03</pdfrwt>
<pdfrwt beam="2">0</pdfrwt>
<totfact> 0.13505004E+04</totfact>
</mgrwt>
</event>
<event>
 6    1  0.8397183E-002  0.3000000E+03  0.7818608E-02  0.1093470E+00
         21   -1    0    0  501  502  0.00000000000E+00  0.00000000000E+00  0.19239758724E+01  0.19239758724E+01  0.00000000000E+00 0. -1.
         13   -1    0    0    0    0 -0.00000000000E+00 -0.00000000000E+00 -0.10000000000E+04  0.10000000000E+04  0.00000000000E+00 0.  1.
    9000005    2    1    2  501    0 -0.36050892615E+02 -0.84754557959E+01 -0.76688874861E+03  0.76778927838E+03  0.32439234257E+01 0.  0.
         13    1    3    3    0    0 -0.18748505587E+02 -0.28700431337E+01 -0.37859549062E+03  0.37907029576E+03  0.00000000000E+00 0.  1.
          1    1    3    3  501    0 -0.17302387028E+02 -0.56054126622E+01 -0.38829325799E+03  0.38871898262E+03  0.00000000000E+00 0.  1.
         -3    1    1    2    0  502  0.36050892615E+02  0.84754557959E+01 -0.23118727552E+03  0.23413469750E+03  0.00000000000E+00 0. -1.
<mgrwt>
<rscale>  1 0.30000000E+03</rscale>
<asrwt>0</asrwt>
<pdfrwt beam="1">  1       21 0.69962907E-02 0.30000000E+03</pdfrwt>
<pdfrwt beam="2">0</pdfrwt>
<totfact> 0.16150177E+04</totfact>
</mgrwt>
</event>
<event>
 6    1  0.8397183E-002  0.3000000E+03  0.7818608E-02  0.1093470E+00
         21   -1    0    0  501  502  0.00000000000E+00  0.00000000000E+00  0.17922960264E+01  0.17922960264E+01  0.00000000000E+00 0. -1.
         13   -1    0    0    0    0 -0.00000000000E+00 -0.00000000000E+00 -0.10000000000E+04  0.10000000000E+04  0.00000000000E+00 0.  1.
    9000005    2    1    2  501    0  0.27960802953E+02  0.25258958503E+02 -0.72624107689E+03  0.72722779043E+03  0.37862810694E+01 0.  0.
         13    1    3    3    0    0  0.20687477457E+02  0.17087032797E+02 -0.49128971550E+03  0.49202187245E+03  0.00000000000E+00 0.  1.
          1    1    3    3  501    0  0.72733254967E+01  0.81719257055E+01 -0.23495136139E+03  0.23520591798E+03  0.00000000000E+00 0.  1.
         -1    1    1    2    0  502 -0.27960802953E+02 -0.25258958503E+02 -0.27196662709E+03  0.27456450560E+03  0.00000000000E+00 0. -1.
<mgrwt>
<rscale>  1 0.30000000E+03</rscale>
<asrwt>0</asrwt>
<pdfrwt beam="1">  1       21 0.65174538E-02 0.30000000E+03</pdfrwt>
<pdfrwt beam="2">0</pdfrwt>
<totfact> 0.18265038E+04</totfact>
</mgrwt>
</event>
<event>
 6    1  0.8397183E-002  0.3000000E+03  0.7818608E-02  0.1093470E+00
         21   -1    0    0  501  502  0.00000000000E+00  0.00000000000E+00  0.11121846919E+01  0.11121846919E+01  0.00000000000E+00 0. -1.
         13   -1    0    0    0    0 -0.00000000000E+00 -0.00000000000E+00 -0.10000000000E+04  0.10000000000E+04  0.00000000000E+00 0.  1.
    9000005    2    1    2  501    0 -0.14040136792E+02  0.28534687877E+02 -0.39290016326E+03  0.39429063902E+03  0.91222737254E+01 0.  0.
         13    1    3    3    0    0 -0.76382520335E+01  0.18017535532E+02 -0.18659866322E+03  0.18762205520E+03  0.00000000000E+00 0.  1.
          3    1    3    3  501    0 -0.64018847581E+01  0.10517152345E+02 -0.20630150004E+03  0.20666858383E+03  0.00000000000E+00 0.  1.
         -1    1    1    2    0  502  0.14040136792E+02 -0.28534687877E+02 -0.60598765205E+03  0.60682154567E+03  0.00000000000E+00 0. -1.
<mgrwt>
<rscale>  1 0.30000000E+03</rscale>
<asrwt>0</asrwt>
<pdfrwt beam="1">  1       21 0.40443165E-02 0.30000000E+03</pdfrwt>
<pdfrwt beam="2">0</pdfrwt>
<totfact> 0.41274113E+04</totfact>
</mgrwt>
</event>
<event>
 6    1  0.8397183E-002  0.3000000E+03  0.7818608E-02  0.1093470E+00
         21   -1    0    0  501  502  0.00000000000E+00  0.00000000000E+00  0.27709705659E+01  0.27709705659E+01  0.00000000000E+00 0. -1.
         13   -1    0    0    0    0 -0.00000000000E+00 -0.00000000000E+00 -0.10000000000E+04  0.10000000000E+04  0.00000000000E+00 0.  1.
    9000005    2    1    2  501    0  0.67894044920E+01 -0.43808809373E+02 -0.22972295552E+03  0.23398564209E+03  0.33669893235E+01 0.  0.
         13    1    3    3    0    0  0.14446920490E+01 -0.14595626482E+02 -0.68938292747E+02  0.70481257469E+02  0.00000000000E+00 0.  1.
          3    1    3    3  501    0  0.53447124430E+01 -0.29213182892E+02 -0.16078466277E+03  0.16350438462E+03  0.00000000000E+00 0.  1.
         -1    1    1    2    0  502 -0.67894044920E+01  0.43808809373E+02 -0.76750607391E+03  0.76878532848E+03  0.00000000000E+00 0. -1.
<mgrwt>
<rscale>  1 0.30000000E+03</rscale>
<asrwt>0</asrwt>
<pdfrwt beam="1">  1       21 0.10076278E-01 0.30000000E+03</pdfrwt>
<pdfrwt beam="2">0</pdfrwt>
<totfact> 0.84871476E+03</totfact>
</mgrwt>
</event>
<event>
 6    1  0.8397183E-002  0.3000000E+03  0.7818608E-02  0.1093470E+00
         21   -1    0    0  501  502  0.00000000000E+00  0.00000000000E+00  0.30181460859E+01  0.30181460859E+01  0.00000000000E+00 0. -1.
         13   -1    0    0    0    0 -0.00000000000E+00 -0.00000000000E+00 -0.10000000000E+04  0.10000000000E+04  0.00000000000E+00 0.  1.
    9000005    2    1    2  501    0 -0.49012881541E+02 -0.66448794402E+01 -0.28161956530E+03  0.28594798150E+03  0.32018088248E+01 0.  0.
         13    1    3    3    0    0 -0.16829472104E+02 -0.29086731701E+01 -0.89342454033E+02  0.90960241884E+02  0.00000000000E+00 0.  1.
          1    1    3    3  501    0 -0.32183409438E+02 -0.37362062701E+01 -0.19227711127E+03  0.19498773961E+03  0.00000000000E+00 0.  1.
         -3    1    1    2    0  502  0.49012881541E+02  0.66448794402E+01 -0.71536228861E+03  0.71707016459E+03  0.00000000000E+00 0. -1.
<mgrwt>
<rscale>  1 0.30000000E+03</rscale>
<asrwt>0</asrwt>
<pdfrwt beam="1">  1       21 0.10975100E-01 0.30000000E+03</pdfrwt>
<pdfrwt beam="2">0</pdfrwt>
<totfact> 0.72816484E+03</totfact>
</mgrwt>
</event>
<event>
 6    1  0.8397183E-002  0.3000000E+03  0.7818608E-02  0.1093470E+00
         21   -1    0    0  501  502  0.00000000000E+00  0.00000000000E+00  0.96988272882E+01  0.96988272882E+01  0.00000000000E+00 0. -1.
         13   -1    0    0    0    0 -0.00000000000E+00 -0.00000000000E+00 -0.10000000000E+04  0.10000000000E+04  0.00000000000E+00 0.  1.
    9000005    2    1    2  501    0 -0.49603965602E+02 -0.35737469538E+02 -0.99702661825E+02  0.11700435115E+03  0.34172036452E+01 0.  0.
         13    1    3    3    0    0 -0.30131482561E+02 -0.22312938147E+02 -0.64143683818E+02  0.74297951680E+02  0.00000000000E+00 0.  1.
          1    1    3    3  501    0 -0.19472483041E+02 -0.13424531391E+02 -0.35558978007E+02  0.42706399471E+02  0.00000000000E+00 0.  1.
         -3    1    1    2    0  502  0.49603965602E+02  0.35737469538E+02 -0.89059851089E+03  0.89269447614E+03  0.00000000000E+00 0. -1.
<mgrwt>
<rscale>  1 0.30000000E+03</rscale>
<asrwt>0</asrwt>
<pdfrwt beam="1">  1       21 0.35268537E-01 0.30000000E+03</pdfrwt>
<pdfrwt beam="2">0</pdfrwt>
<totfact> 0.78344402E+02</totfact>
</mgrwt>
</event>
<event>
 6    1  0.8397183E-002  0.3000000E+03  0.7818608E-02  0.1093470E+00
         21   -1    0    0  501  502  0.00000000000E+00  0.00000000000E+00  0.17782977582E+01  0.17782977582E+01  0.00000000000E+00 0. -1.
         13   -1    0    0    0    0 -0.00000000000E+00 -0.00000000000E+00 -0.10000000000E+04  0.10000000000E+04  0.00000000000E+00 0.  1.
    9000005    2    1    2  501    0 -0.11934465726E+02 -0.39360208100E+02 -0.60673257473E+03  0.60813455728E+03  0.34007457615E+01 0.  0.
         13    1    3    3    0    0 -0.12144329218E+02 -0.38223221205E+02 -0.58766606961E+03  0.58903302857E+03  0.00000000000E+00 0.  1.
          3    1    3    3  501    0  0.20986349264E+00 -0.11369868957E+01 -0.19066505113E+02  0.19101528711E+02  0.00000000000E+00 0.  1.
         -1    1    1    2    0  502  0.11934465726E+02  0.39360208100E+02 -0.39148912752E+03  0.39364374048E+03  0.00000000000E+00 0. -1.
<mgrwt>
<rscale>  1 0.30000000E+03</rscale>
<asrwt>0</asrwt>
<pdfrwt beam="1">  1       21 0.64665509E-02 0.30000000E+03</pdfrwt>
<pdfrwt beam="2">0</pdfrwt>
<totfact> 0.18514671E+04</totfact>
</mgrwt>
</event>
<event>
 6    1  0.8397183E-002  0.3000000E+03  0.7818608E-02  0.1093470E+00
         21   -1    0    0  501  502  0.00000000000E+00  0.00000000000E+00  0.47121271308E+01  0.47121271308E+01  0.00000000000E+00 0. -1.
         13   -1    0    0    0    0 -0.00000000000E+00 -0.00000000000E+00 -0.10000000000E+04  0.10000000000E+04  0.00000000000E+00 0.  1.
    9000005    2    1    2  501    0  0.64857915621E+02 -0.86641958598E+01 -0.34670330991E+03  0.35283518106E+03  0.28039941339E+01 0.  0.
         13    1    3    3    0    0  0.24270542325E+02 -0.28983673575E+01 -0.12250601201E+03  0.12492070579E+03  0.00000000000E+00 0.  1.
          1    1    3    3  501    0  0.40587373296E+02 -0.57658285023E+01 -0.22419729790E+03  0.22791447527E+03  0.00000000000E+00 0.  1.
         -1    1    1    2    0  502 -0.64857915621E+02  0.86641958598E+01 -0.64858456296E+03  0.65187694607E+03  0.00000000000E+00 0. -1.
<mgrwt>
<rscale>  1 0.30000000E+03</rscale>
<asrwt>0</asrwt>
<pdfrwt beam="1">  1       21 0.17135044E-01 0.30000000E+03</pdfrwt>
<pdfrwt beam="2">0</pdfrwt>
<totfact> 0.32135264E+03</totfact>
</mgrwt>
</event>
<event>
 6    1  0.8397183E-002  0.3000000E+03  0.7818608E-02  0.1093470E+00
         21   -1    0    0  501  502  0.00000000000E+00  0.00000000000E+00  0.12651080399E+01  0.12651080399E+01  0.00000000000E+00 0. -1.
         13   -1    0    0    0    0 -0.00000000000E+00 -0.00000000000E+00 -0.10000000000E+04  0.10000000000E+04  0.00000000000E+00 0.  1.
    9000005    2    1    2  501    0  0.28896558651E+02  0.18918647869E+02 -0.38506232037E+03  0.38662134824E+03  0.31859075871E+01 0.  0.
         13    1    3    3    0    0  0.21541151211E+02  0.15640611218E+02 -0.29987547221E+03  0.30105472716E+03  0.00000000000E+00 0.  1.
          3    1    3    3  501    0  0.73554074394E+01  0.32780366507E+01 -0.85186848157E+02  0.85566621073E+02  0.00000000000E+00 0.  1.
         -3    1    1    2    0  502 -0.28896558651E+02 -0.18918647869E+02 -0.61367257159E+03  0.61464375980E+03  0.00000000000E+00 0. -1.
<mgrwt>
<rscale>  1 0.30000000E+03</rscale>
<asrwt>0</asrwt>
<pdfrwt beam="1">  1       21 0.46004026E-02 0.30000000E+03</pdfrwt>
<pdfrwt beam="2">0</pdfrwt>
<totfact> 0.33190849E+04</totfact>
</mgrwt>
</event>
<event>
 6    1  0.8397183E-002  0.3000000E+03  0.7818608E-02  0.1093470E+00
         21   -1    0    0  501  502  0.00000000000E+00  0.00000000000E+00  0.13271264598E+01  0.13271264598E+01  0.00000000000E+00 0. -1.
         13   -1    0    0    0    0 -0.00000000000E+00 -0.00000000000E+00 -0.10000000000E+04  0.10000000000E+04  0.00000000000E+00 0.  1.
    9000005    2    1    2  501    0 -0.21272046445E+02 -0.29460692249E+02 -0.51620528322E+03  0.51749305567E+03  0.32765674961E+01 0.  0.
         13    1    3    3    0    0 -0.29840603686E+01 -0.25729500066E+01 -0.49865635643E+02  0.50021058626E+02  0.00000000000E+00 0.  1.
          3    1    3    3  501    0 -0.18287986076E+02 -0.26887742243E+02 -0.46633964757E+03  0.46747199704E+03  0.00000000000E+00 0.  1.
         -1    1    1    2    0  502  0.21272046445E+02  0.29460692249E+02 -0.48246759032E+03  0.48383407079E+03  0.00000000000E+00 0. -1.
<mgrwt>
<rscale>  1 0.30000000E+03</rscale>
<asrwt>0</asrwt>
<pdfrwt beam="1">  1       21 0.48259246E-02 0.30000000E+03</pdfrwt>
<pdfrwt beam="2">0</pdfrwt>
<totfact> 0.30596785E+04</totfact>
</mgrwt>
</event>
<event>
 6    1  0.8397183E-002  0.3000000E+03  0.7818608E-02  0.1093470E+00
         21   -1    0    0  501  502  0.00000000000E+00  0.00000000000E+00  0.13731287061E+01  0.13731287061E+01  0.00000000000E+00 0. -1.
         13   -1    0    0    0    0 -0.00000000000E+00 -0.00000000000E+00 -0.10000000000E+04  0.10000000000E+04  0.00000000000E+00 0.  1.
    9000005    2    1    2  501    0 -0.19197347276E+02  0.27403984025E+02 -0.71316754652E+03  0.71395958939E+03  0.32908034049E+01 0.  0.
         13    1    3    3    0    0 -0.61797035937E+01  0.85590223276E+01 -0.19390912408E+03  0.19419627700E+03  0.00000000000E+00 0.  1.
          1    1    3    3  501    0 -0.13017643683E+02  0.18844961698E+02 -0.51925842245E+03  0.51976331239E+03  0.00000000000E+00 0.  1.
         -1    1    1    2    0  502  0.19197347276E+02 -0.27403984025E+02 -0.28545932477E+03  0.28741353932E+03  0.00000000000E+00 0. -1.
<mgrwt>
<rscale>  1 0.30000000E+03</rscale>
<asrwt>0</asrwt>
<pdfrwt beam="1">  1       21 0.49932058E-02 0.30000000E+03</pdfrwt>
<pdfrwt beam="2">0</pdfrwt>
<totfact> 0.28871500E+04</totfact>
</mgrwt>
</event>
<event>
 6    1  0.8397183E-002  0.3000000E+03  0.7818608E-02  0.1093470E+00
         21   -1    0    0  501  502  0.00000000000E+00  0.00000000000E+00  0.10661426744E+01  0.10661426744E+01  0.00000000000E+00 0. -1.
         13   -1    0    0    0    0 -0.00000000000E+00 -0.00000000000E+00 -0.10000000000E+04  0.10000000000E+04  0.00000000000E+00 0.  1.
    9000005    2    1    2  501    0  0.30623201866E+02  0.14334765259E+00 -0.67105167215E+03  0.67175697427E+03  0.30470873245E+01 0.  0.
         13    1    3    3    0    0  0.42628262151E+01  0.53262876818E+00 -0.11610484463E+03  0.11618429466E+03  0.00000000000E+00 0.  1.
          3    1    3    3  501    0  0.26360375651E+02 -0.38928111560E+00 -0.55494682753E+03  0.55557267961E+03  0.00000000000E+00 0.  1.
         -3    1    1    2    0  502 -0.30623201866E+02 -0.14334765259E+00 -0.32788218517E+03  0.32930916840E+03  0.00000000000E+00 0. -1.
<mgrwt>
<rscale>  1 0.30000000E+03</rscale>
<asrwt>0</asrwt>
<pdfrwt beam="1">  1       21 0.38768906E-02 0.30000000E+03</pdfrwt>
<pdfrwt beam="2">0</pdfrwt>
<totfact> 0.44318422E+04</totfact>
</mgrwt>
</event>
<event>
 6    1  0.8397183E-002  0.3000000E+03  0.7818608E-02  0.1093470E+00
         21   -1    0    0  501  502  0.00000000000E+00  0.00000000000E+00  0.10384341314E+01  0.10384341314E+01  0.00000000000E+00 0. -1.
         13   -1    0    0    0    0 -0.00000000000E+00 -0.00000000000E+00 -0.10000000000E+04  0.10000000000E+04  0.00000000000E+00 0.  1.
    9000005    2    1    2  501    0 -0.68957971015E+01 -0.31279658310E+02 -0.45744011673E+03  0.45857050981E+03  0.30794529971E+01 0.  0.
         13    1    3    3    0    0 -0.43094349236E+00 -0.11032941928E+01 -0.10606660655E+02  0.10672592029E+02  0.00000000000E+00 0.  1.
          3    1    3    3  501    0 -0.64648536091E+01 -0.30176364117E+02 -0.44683345608E+03  0.44789791778E+03  0.00000000000E+00 0.  1.
         -3    1    1    2    0  502  0.68957971015E+01  0.31279658310E+02 -0.54152144914E+03  0.54246792432E+03  0.00000000000E+00 0. -1.
<mgrwt>
<rscale>  1 0.30000000E+03</rscale>
<asrwt>0</asrwt>
<pdfrwt beam="1">  1       21 0.37761321E-02 0.30000000E+03</pdfrwt>
<pdfrwt beam="2">0</pdfrwt>
<totfact> 0.46323832E+04</totfact>
</mgrwt>
</event>
<event>
 6    1  0.8397183E-002  0.3000000E+03  0.7818608E-02  0.1093470E+00
         21   -1    0    0  501  502  0.00000000000E+00  0.00000000000E+00  0.51454647786E+01  0.51454647786E+01  0.00000000000E+00 0. -1.
         13   -1    0    0    0    0 -0.00000000000E+00 -0.00000000000E+00 -0.10000000000E+04  0.10000000000E+04  0.00000000000E+00 0.  1.
    9000005    2    1    2  501    0  0.29162083700E+02  0.46260736788E+02 -0.17282227926E+03  0.18129625969E+03  0.32110236751E+01 0.  0.
         13    1    3    3    0    0  0.79739289708E+01  0.12039367422E+02 -0.41203739048E+02  0.43660943905E+02  0.00000000000E+00 0.  1.
          1    1    3    3  501    0  0.21188154729E+02  0.34221369366E+02 -0.13161854022E+03  0.13763531578E+03  0.00000000000E+00 0.  1.
         -3    1    1    2    0  502 -0.29162083700E+02 -0.46260736788E+02 -0.82203225596E+03  0.82384920509E+03  0.00000000000E+00 0. -1.
<mgrwt>
<rscale>  1 0.30000000E+03</rscale>
<asrwt>0</asrwt>
<pdfrwt beam="1">  1       21 0.18710820E-01 0.30000000E+03</pdfrwt>
<pdfrwt beam="2">0</pdfrwt>
<totfact> 0.27230329E+03</totfact>
</mgrwt>
</event>
<event>
 6    1  0.8397183E-002  0.3000000E+03  0.7818608E-02  0.1093470E+00
         21   -1    0    0  501  502  0.00000000000E+00  0.00000000000E+00  0.30283621663E+01  0.30283621663E+01  0.00000000000E+00 0. -1.
         13   -1    0    0    0    0 -0.00000000000E+00 -0.00000000000E+00 -0.10000000000E+04  0.10000000000E+04  0.00000000000E+00 0.  1.
    9000005    2    1    2  501    0  0.34153957191E+02 -0.38553417385E+02 -0.32318351328E+03  0.32727449013E+03  0.28547940799E+01 0.  0.
         13    1    3    3    0    0  0.17698089699E+02 -0.19571721948E+02 -0.17444006800E+03  0.17642452212E+03  0.00000000000E+00 0.  1.
          3    1    3    3  501    0  0.16455867492E+02 -0.18981695437E+02 -0.14874344527E+03  0.15084996801E+03  0.00000000000E+00 0.  1.
         -1    1    1    2    0  502 -0.34153957191E+02  0.38553417385E+02 -0.67378812456E+03  0.67575387204E+03  0.00000000000E+00 0. -1.
<mgrwt>
<rscale>  1 0.30000000E+03</rscale>
<asrwt>0</asrwt>
<pdfrwt beam="1">  1       21 0.11012249E-01 0.30000000E+03</pdfrwt>
<pdfrwt beam="2">0</pdfrwt>
<totfact> 0.72375155E+03</totfact>
</mgrwt>
</event>
<event>
 6    1  0.8397183E-002  0.3000000E+03  0.7818608E-02  0.1093470E+00
         21   -1    0    0  501  502  0.00000000000E+00  0.00000000000E+00  0.11353708266E+01  0.11353708266E+01  0.00000000000E+00 0. -1.
         13   -1    0    0    0    0 -0.00000000000E+00 -0.00000000000E+00 -0.10000000000E+04  0.10000000000E+04  0.00000000000E+00 0.  1.
    9000005    2    1    2  501    0  0.26904879723E+02  0.14785645124E+02 -0.70406521186E+03  0.70474174016E+03  0.32572856830E+01 0.  0.
         13    1    3    3    0    0  0.17912279048E+00  0.31308836457E+00 -0.37426701590E+01  0.37600118640E+01  0.00000000000E+00 0.  1.
          1    1    3    3  501    0  0.26725756933E+02  0.14472556760E+02 -0.70032254170E+03  0.70098172829E+03  0.00000000000E+00 0.  1.
         -3    1    1    2    0  502 -0.26904879723E+02 -0.14785645124E+02 -0.29479941731E+03  0.29639363067E+03  0.00000000000E+00 0. -1.
<mgrwt>
<rscale>  1 0.30000000E+03</rscale>
<asrwt>0</asrwt>
<pdfrwt beam="1">  1       21 0.41286299E-02 0.30000000E+03</pdfrwt>
<pdfrwt beam="2">0</pdfrwt>
<totfact> 0.39863036E+04</totfact>
</mgrwt>
</event>
<event>
 6    1  0.8397183E-002  0.3000000E+03  0.7818608E-02  0.1093470E+00
         21   -1    0    0  501  502  0.00000000000E+00  0.00000000000E+00  0.16566184217E+01  0.16566184217E+01  0.00000000000E+00 0. -1.
         13   -1    0    0    0    0 -0.00000000000E+00 -0.00000000000E+00 -0.10000000000E+04  0.10000000000E+04  0.00000000000E+00 0.  1.
    9000005    2    1    2  501    0 -0.38003696220E+02  0.10559841413E+02 -0.61953738036E+03  0.62080260737E+03  0.36770197223E+01 0.  0.
         13    1    3    3    0    0 -0.22288029135E+02  0.61810788039E+01 -0.33444741563E+03  0.33524623159E+03  0.00000000000E+00 0.  1.
          1    1    3    3  501    0 -0.15715667084E+02  0.43787626087E+01 -0.28508996474E+03  0.28555637578E+03  0.00000000000E+00 0.  1.
         -1    1    1    2    0  502  0.38003696220E+02 -0.10559841413E+02 -0.37880600122E+03  0.38085401105E+03  0.00000000000E+00 0. -1.
<mgrwt>
<rscale>  1 0.30000000E+03</rscale>
<asrwt>0</asrwt>
<pdfrwt beam="1">  1       21 0.60240797E-02 0.30000000E+03</pdfrwt>
<pdfrwt beam="2">0</pdfrwt>
<totfact> 0.20926600E+04</totfact>
</mgrwt>
</event>
<event>
 6    1  0.8397183E-002  0.3000000E+03  0.7818608E-02  0.1093470E+00
         21   -1    0    0  501  502  0.00000000000E+00  0.00000000000E+00  0.10871597047E+01  0.10871597047E+01  0.00000000000E+00 0. -1.
         13   -1    0    0    0    0 -0.00000000000E+00 -0.00000000000E+00 -0.10000000000E+04  0.10000000000E+04  0.00000000000E+00 0.  1.
    9000005    2    1    2  501    0  0.59885160686E+01 -0.32057909575E+02 -0.43723029699E+03  0.43845863986E+03  0.34748193015E+01 0.  0.
         13    1    3    3    0    0  0.11290455177E+01 -0.11942593942E+02 -0.14374650998E+03  0.14424617647E+03  0.00000000000E+00 0.  1.
          3    1    3    3  501    0  0.48594705509E+01 -0.20115315633E+02 -0.29348378701E+03  0.29421246339E+03  0.00000000000E+00 0.  1.
         -3    1    1    2    0  502 -0.59885160686E+01  0.32057909575E+02 -0.56168254330E+03  0.56262851984E+03  0.00000000000E+00 0. -1.
<mgrwt>
<rscale>  1 0.30000000E+03</rscale>
<asrwt>0</asrwt>
<pdfrwt beam="1">  1       21 0.39533164E-02 0.30000000E+03</pdfrwt>
<pdfrwt beam="2">0</pdfrwt>
<totfact> 0.42886614E+04</totfact>
</mgrwt>
</event>
<event>
 6    1  0.8397183E-002  0.3000000E+03  0.7818608E-02  0.1093470E+00
         21   -1    0    0  501  502  0.00000000000E+00  0.00000000000E+00  0.14546402583E+01  0.14546402583E+01  0.00000000000E+00 0. -1.
         13   -1    0    0    0    0 -0.00000000000E+00 -0.00000000000E+00 -0.10000000000E+04  0.10000000000E+04  0.00000000000E+00 0.  1.
    9000005    2    1    2  501    0 -0.14272729918E+02 -0.32587169919E+02 -0.32293839392E+03  0.32491165809E+03  0.35699899899E+01 0.  0.
         13    1    3    3    0    0 -0.16406559284E+00 -0.21583370450E+01 -0.24058912657E+02  0.24156088561E+02  0.00000000000E+00 0.  1.
          3    1    3    3  501    0 -0.14108664325E+02 -0.30428832874E+02 -0.29887948126E+03  0.30075556952E+03  0.00000000000E+00 0.  1.
         -3    1    1    2    0  502  0.14272729918E+02  0.32587169919E+02 -0.67560696582E+03  0.67654298217E+03  0.00000000000E+00 0. -1.
<mgrwt>
<rscale>  1 0.30000000E+03</rscale>
<asrwt>0</asrwt>
<pdfrwt beam="1">  1       21 0.52896121E-02 0.30000000E+03</pdfrwt>
<pdfrwt beam="2">0</pdfrwt>
<totfact> 0.26164506E+04</totfact>
</mgrwt>
</event>
<event>
 6    1  0.8397183E-002  0.3000000E+03  0.7818608E-02  0.1093470E+00
         21   -1    0    0  501  502  0.00000000000E+00  0.00000000000E+00  0.29453025810E+01  0.29453025810E+01  0.00000000000E+00 0. -1.
         13   -1    0    0    0    0 -0.00000000000E+00 -0.00000000000E+00 -0.10000000000E+04  0.10000000000E+04  0.00000000000E+00 0.  1.
    9000005    2    1    2  501    0 -0.12087870067E+02  0.51801176099E+02 -0.59612030848E+03  0.59849770068E+03  0.32553173721E+01 0.  0.
         13    1    3    3    0    0 -0.66381139939E+01  0.22202619800E+02 -0.26799330949E+03  0.26899337318E+03  0.00000000000E+00 0.  1.
          1    1    3    3  501    0 -0.54497560731E+01  0.29598556299E+02 -0.32812699899E+03  0.32950432750E+03  0.00000000000E+00 0.  1.
         -3    1    1    2    0  502  0.12087870067E+02 -0.51801176099E+02 -0.40093438894E+03  0.40444760190E+03  0.00000000000E+00 0. -1.
<mgrwt>
<rscale>  1 0.30000000E+03</rscale>
<asrwt>0</asrwt>
<pdfrwt beam="1">  1       21 0.10710214E-01 0.30000000E+03</pdfrwt>
<pdfrwt beam="2">0</pdfrwt>
<totfact> 0.76084503E+03</totfact>
</mgrwt>
</event>
<event>
 6    1  0.8397183E-002  0.3000000E+03  0.7818608E-02  0.1093470E+00
         21   -1    0    0  501  502  0.00000000000E+00  0.00000000000E+00  0.12564398497E+01  0.12564398497E+01  0.00000000000E+00 0. -1.
         13   -1    0    0    0    0 -0.00000000000E+00 -0.00000000000E+00 -0.10000000000E+04  0.10000000000E+04  0.00000000000E+00 0.  1.
    9000005    2    1    2  501    0  0.32188535232E+02  0.13487174710E+02 -0.42117061800E+03  0.42263004122E+03  0.36683234065E+01 0.  0.
         13    1    3    3    0    0  0.30436282438E+02  0.12836038289E+02 -0.38646322096E+03  0.38787234024E+03  0.00000000000E+00 0.  1.
          1    1    3    3  501    0  0.17522527945E+01  0.65113642110E+00 -0.34707397043E+02  0.34757700988E+02  0.00000000000E+00 0.  1.
         -3    1    1    2    0  502 -0.32188535232E+02 -0.13487174710E+02 -0.57757294215E+03  0.57862639863E+03  0.00000000000E+00 0. -1.
<mgrwt>
<rscale>  1 0.30000000E+03</rscale>
<asrwt>0</asrwt>
<pdfrwt beam="1">  1       21 0.45688818E-02 0.30000000E+03</pdfrwt>
<pdfrwt beam="2">0</pdfrwt>
<totfact> 0.33580780E+04</totfact>
</mgrwt>
</event>
<event>
 6    1  0.8397183E-002  0.3000000E+03  0.7818608E-02  0.1093470E+00
         21   -1    0    0  501  502  0.00000000000E+00  0.00000000000E+00  0.23302328403E+01  0.23302328403E+01  0.00000000000E+00 0. -1.
         13   -1    0    0    0    0 -0.00000000000E+00 -0.00000000000E+00 -0.10000000000E+04  0.10000000000E+04  0.00000000000E+00 0.  1.
    9000005    2    1    2  501    0 -0.19636010761E+02 -0.32471834049E+02 -0.19048387188E+03  0.19425284640E+03  0.31733209751E+01 0.  0.
         13    1    3    3    0    0 -0.12838748788E+02 -0.19187696143E+02 -0.10984633860E+03  0.11224624385E+03  0.00000000000E+00 0.  1.
          1    1    3    3  501    0 -0.67972619725E+01 -0.13284137906E+02 -0.80637533274E+02  0.82006602555E+02  0.00000000000E+00 0.  1.
         -1    1    1    2    0  502  0.19636010761E+02  0.32471834049E+02 -0.80718589528E+03  0.80807738644E+03  0.00000000000E+00 0. -1.
<mgrwt>
<rscale>  1 0.30000000E+03</rscale>
<asrwt>0</asrwt>
<pdfrwt beam="1">  1       21 0.84735918E-02 0.30000000E+03</pdfrwt>
<pdfrwt beam="2">0</pdfrwt>
<totfact> 0.11544426E+04</totfact>
</mgrwt>
</event>
<event>
 6    1  0.8397183E-002  0.3000000E+03  0.7818608E-02  0.1093470E+00
         21   -1    0    0  501  502  0.00000000000E+00  0.00000000000E+00  0.10863578751E+01  0.10863578751E+01  0.00000000000E+00 0. -1.
         13   -1    0    0    0    0 -0.00000000000E+00 -0.00000000000E+00 -0.10000000000E+04  0.10000000000E+04  0.00000000000E+00 0.  1.
    9000005    2    1    2  501    0  0.30438798149E+02  0.85422820291E+01 -0.36344464280E+03  0.36483142460E+03  0.32355803211E+01 0.  0.
         13    1    3    3    0    0  0.14187731913E+01 -0.13674888195E+00 -0.21862821018E+02  0.21909234594E+02  0.00000000000E+00 0.  1.
          3    1    3    3  501    0  0.29020024958E+02  0.86790309111E+01 -0.34158182178E+03  0.34292219000E+03  0.00000000000E+00 0.  1.
         -1    1    1    2    0  502 -0.30438798149E+02 -0.85422820291E+01 -0.63546899933E+03  0.63625493328E+03  0.00000000000E+00 0. -1.
<mgrwt>
<rscale>  1 0.30000000E+03</rscale>
<asrwt>0</asrwt>
<pdfrwt beam="1">  1       21 0.39504006E-02 0.30000000E+03</pdfrwt>
<pdfrwt beam="2">0</pdfrwt>
<totfact> 0.42939903E+04</totfact>
</mgrwt>
</event>
<event>
 6    1  0.8397183E-002  0.3000000E+03  0.7818608E-02  0.1093470E+00
         21   -1    0    0  501  502  0.00000000000E+00  0.00000000000E+00  0.20599888932E+01  0.20599888932E+01  0.00000000000E+00 0. -1.
         13   -1    0    0    0    0 -0.00000000000E+00 -0.00000000000E+00 -0.10000000000E+04  0.10000000000E+04  0.00000000000E+00 0.  1.
    9000005    2    1    2  501    0 -0.23326072734E+02 -0.36113082228E+02 -0.65821563099E+03  0.65962617803E+03  0.32584481718E+01 0.  0.
         13    1    3    3    0    0 -0.16245136591E+02 -0.24938762474E+02 -0.43200674280E+03  0.43303079816E+03  0.00000000000E+00 0.  1.
          1    1    3    3  501    0 -0.70809361428E+01 -0.11174319755E+02 -0.22620888819E+03  0.22659537987E+03  0.00000000000E+00 0.  1.
         -3    1    1    2    0  502  0.23326072734E+02  0.36113082228E+02 -0.33972438012E+03  0.34243381086E+03  0.00000000000E+00 0. -1.
<mgrwt>
<rscale>  1 0.30000000E+03</rscale>
<asrwt>0</asrwt>
<pdfrwt beam="1">  1       21 0.74908845E-02 0.30000000E+03</pdfrwt>
<pdfrwt beam="2">0</pdfrwt>
<totfact> 0.14334953E+04</totfact>
</mgrwt>
</event>
<event>
 6    1  0.8397183E-002  0.3000000E+03  0.7818608E-02  0.1093470E+00
         21   -1    0    0  501  502  0.00000000000E+00  0.00000000000E+00  0.14448330293E+01  0.14448330293E+01  0.00000000000E+00 0. -1.
         13   -1    0    0    0    0 -0.00000000000E+00 -0.00000000000E+00 -0.10000000000E+04  0.10000000000E+04  0.00000000000E+00 0.  1.
    9000005    2    1    2  501    0  0.74745481765E+01  0.32636509119E+02 -0.73505280652E+03  0.73582385388E+03  0.36200796944E+01 0.  0.
         13    1    3    3    0    0  0.78743842030E+01  0.30508940109E+02 -0.68530239115E+03  0.68602636150E+03  0.00000000000E+00 0.  1.
          3    1    3    3  501    0 -0.39983602647E+00  0.21275690104E+01 -0.49750415368E+02  0.49797492387E+02  0.00000000000E+00 0.  1.
         -1    1    1    2    0  502 -0.74745481765E+01 -0.32636509119E+02 -0.26350236045E+03  0.26562097915E+03  0.00000000000E+00 0. -1.
<mgrwt>
<rscale>  1 0.30000000E+03</rscale>
<asrwt>0</asrwt>
<pdfrwt beam="1">  1       21 0.52539494E-02 0.30000000E+03</pdfrwt>
<pdfrwt beam="2">0</pdfrwt>
<totfact> 0.26468887E+04</totfact>
</mgrwt>
</event>
<event>
 6    1  0.8397183E-002  0.3000000E+03  0.7818608E-02  0.1093470E+00
         21   -1    0    0  501  502  0.00000000000E+00  0.00000000000E+00  0.14445325629E+01  0.14445325629E+01  0.00000000000E+00 0. -1.
         13   -1    0    0    0    0 -0.00000000000E+00 -0.00000000000E+00 -0.10000000000E+04  0.10000000000E+04  0.00000000000E+00 0.  1.
    9000005    2    1    2  501    0 -0.10744981058E+02 -0.34145816169E+02 -0.66525301203E+03  0.66622532345E+03  0.36359603299E+01 0.  0.
         13    1    3    3    0    0 -0.16476669707E+01 -0.10254239653E+02 -0.20473892399E+03  0.20500217373E+03  0.00000000000E+00 0.  1.
          1    1    3    3  501    0 -0.90973140871E+01 -0.23891576516E+02 -0.46051408804E+03  0.46122314972E+03  0.00000000000E+00 0.  1.
         -3    1    1    2    0  502  0.10744981058E+02  0.34145816169E+02 -0.33330245541E+03  0.33521920912E+03  0.00000000000E+00 0. -1.
<mgrwt>
<rscale>  1 0.30000000E+03</rscale>
<asrwt>0</asrwt>
<pdfrwt beam="1">  1       21 0.52528568E-02 0.30000000E+03</pdfrwt>
<pdfrwt beam="2">0</pdfrwt>
<totfact> 0.26478299E+04</totfact>
</mgrwt>
</event>
<event>
 6    1  0.8397183E-002  0.3000000E+03  0.7818608E-02  0.1093470E+00
         21   -1    0    0  501  502  0.00000000000E+00  0.00000000000E+00  0.15494547628E+01  0.15494547628E+01  0.00000000000E+00 0. -1.
         13   -1    0    0    0    0 -0.00000000000E+00 -0.00000000000E+00 -0.10000000000E+04  0.10000000000E+04  0.00000000000E+00 0.  1.
    9000005    2    1    2  501    0  0.22849516918E+02 -0.27879125284E+02 -0.69873854791E+03  0.69967758229E+03  0.37168225784E+01 0.  0.
         13    1    3    3    0    0  0.65789046445E+01 -0.59873698125E+01 -0.19067166491E+03  0.19087905695E+03  0.00000000000E+00 0.  1.
          1    1    3    3  501    0  0.16270612274E+02 -0.21891755472E+02 -0.50806688300E+03  0.50879852534E+03  0.00000000000E+00 0.  1.
         -1    1    1    2    0  502 -0.22849516918E+02  0.27879125284E+02 -0.29971199732E+03  0.30187187247E+03  0.00000000000E+00 0. -1.
<mgrwt>
<rscale>  1 0.30000000E+03</rscale>
<asrwt>0</asrwt>
<pdfrwt beam="1">  1       21 0.56343928E-02 0.30000000E+03</pdfrwt>
<pdfrwt beam="2">0</pdfrwt>
<totfact> 0.23480842E+04</totfact>
</mgrwt>
</event>
<event>
 6    1  0.8397183E-002  0.3000000E+03  0.7818608E-02  0.1093470E+00
         21   -1    0    0  501  502  0.00000000000E+00  0.00000000000E+00  0.99077638382E+00  0.99077638382E+00  0.00000000000E+00 0. -1.
         13   -1    0    0    0    0 -0.00000000000E+00 -0.00000000000E+00 -0.10000000000E+04  0.10000000000E+04  0.00000000000E+00 0.  1.
    9000005    2    1    2  501    0  0.31279893341E+02  0.26878792679E+01 -0.50868751044E+03  0.50966497935E+03  0.31227347329E+01 0.  0.
         13    1    3    3    0    0  0.97162461813E+01 -0.47921943242E+00 -0.14740175277E+03  0.14772241472E+03  0.00000000000E+00 0.  1.
          3    1    3    3  501    0  0.21563647159E+02  0.31670987003E+01 -0.36128575767E+03  0.36194256462E+03  0.00000000000E+00 0.  1.
         -1    1    1    2    0  502 -0.31279893341E+02 -0.26878792679E+01 -0.49032171318E+03  0.49132579704E+03  0.00000000000E+00 0. -1.
<mgrwt>
<rscale>  1 0.30000000E+03</rscale>
<asrwt>0</asrwt>
<pdfrwt beam="1">  1       21 0.36028308E-02 0.30000000E+03</pdfrwt>
<pdfrwt beam="2">0</pdfrwt>
<totfact> 0.50124197E+04</totfact>
</mgrwt>
</event>
<event>
 6    1  0.8397183E-002  0.3000000E+03  0.7818608E-02  0.1093470E+00
         21   -1    0    0  501  502  0.00000000000E+00  0.00000000000E+00  0.98838170959E+00  0.98838170959E+00  0.00000000000E+00 0. -1.
         13   -1    0    0    0    0 -0.00000000000E+00 -0.00000000000E+00 -0.10000000000E+04  0.10000000000E+04  0.00000000000E+00 0.  1.
    9000005    2    1    2  501    0  0.31014495460E+02 -0.97478442577E+00 -0.42819252487E+03  0.42932651789E+03  0.30937800538E+01 0.  0.
         13    1    3    3    0    0  0.24650803839E+02  0.24584498571E+00 -0.34871676385E+03  0.34958704775E+03  0.00000000000E+00 0.  1.
          3    1    3    3  501    0  0.63636916212E+01 -0.12206294115E+01 -0.79475761026E+02  0.79739470138E+02  0.00000000000E+00 0.  1.
         -1    1    1    2    0  502 -0.31014495460E+02  0.97478442577E+00 -0.57081909342E+03  0.57166186382E+03  0.00000000000E+00 0. -1.
<mgrwt>
<rscale>  1 0.30000000E+03</rscale>
<asrwt>0</asrwt>
<pdfrwt beam="1">  1       21 0.35941229E-02 0.30000000E+03</pdfrwt>
<pdfrwt beam="2">0</pdfrwt>
<totfact> 0.50328014E+04</totfact>
</mgrwt>
</event>
<event>
 6    1  0.8397183E-002  0.3000000E+03  0.7818608E-02  0.1093470E+00
         21   -1    0    0  501  502  0.00000000000E+00  0.00000000000E+00  0.18550904982E+01  0.18550904982E+01  0.00000000000E+00 0. -1.
         13   -1    0    0    0    0 -0.00000000000E+00 -0.00000000000E+00 -0.10000000000E+04  0.10000000000E+04  0.00000000000E+00 0.  1.
    9000005    2    1    2  501    0 -0.35172083809E+02 -0.15577351200E+02 -0.27635417934E+03  0.27904004673E+03  0.34620644919E+01 0.  0.
         13    1    3    3    0    0 -0.18056615347E+02 -0.61712894532E+01 -0.13988011781E+03  0.14117568321E+03  0.00000000000E+00 0.  1.
          1    1    3    3  501    0 -0.17115468462E+02 -0.94060617470E+01 -0.13647406153E+03  0.13786436352E+03  0.00000000000E+00 0.  1.
         -3    1    1    2    0  502  0.35172083809E+02  0.15577351200E+02 -0.72179073016E+03  0.72281504377E+03  0.00000000000E+00 0. -1.
<mgrwt>
<rscale>  1 0.30000000E+03</rscale>
<asrwt>0</asrwt>
<pdfrwt beam="1">  1       21 0.67457979E-02 0.30000000E+03</pdfrwt>
<pdfrwt beam="2">0</pdfrwt>
<totfact> 0.17206593E+04</totfact>
</mgrwt>
</event>
<event>
 6    1  0.8397183E-002  0.3000000E+03  0.7818608E-02  0.1093470E+00
         21   -1    0    0  501  502  0.00000000000E+00  0.00000000000E+00  0.20973237407E+01  0.20973237407E+01  0.00000000000E+00 0. -1.
         13   -1    0    0    0    0 -0.00000000000E+00 -0.00000000000E+00 -0.10000000000E+04  0.10000000000E+04  0.00000000000E+00 0.  1.
    9000005    2    1    2  501    0 -0.10890332129E+01  0.44229762509E+02 -0.62677248305E+03  0.62833927607E+03  0.30070687105E+01 0.  0.
         13    1    3    3    0    0  0.43540111561E+00  0.32710855607E+02 -0.45595168452E+03  0.45712375596E+03  0.00000000000E+00 0.  1.
          3    1    3    3  501    0 -0.15244343286E+01  0.11518906902E+02 -0.17082079853E+03  0.17121552011E+03  0.00000000000E+00 0.  1.
         -1    1    1    2    0  502  0.10890332129E+01 -0.44229762509E+02 -0.37113019321E+03  0.37375804767E+03  0.00000000000E+00 0. -1.
<mgrwt>
<rscale>  1 0.30000000E+03</rscale>
<asrwt>0</asrwt>
<pdfrwt beam="1">  1       21 0.76266479E-02 0.30000000E+03</pdfrwt>
<pdfrwt beam="2">0</pdfrwt>
<totfact> 0.13891010E+04</totfact>
</mgrwt>
</event>
<event>
 6    1  0.8397183E-002  0.3000000E+03  0.7818608E-02  0.1093470E+00
         21   -1    0    0  501  502  0.00000000000E+00  0.00000000000E+00  0.11490102180E+01  0.11490102180E+01  0.00000000000E+00 0. -1.
         13   -1    0    0    0    0 -0.00000000000E+00 -0.00000000000E+00 -0.10000000000E+04  0.10000000000E+04  0.00000000000E+00 0.  1.
    9000005    2    1    2  501    0  0.24631305944E+02  0.22350124284E+02 -0.58766140626E+03  0.58861646255E+03  0.41451525891E+01 0.  0.
         13    1    3    3    0    0  0.18654391635E+02  0.15084177357E+02 -0.44351628097E+03  0.44416462063E+03  0.00000000000E+00 0.  1.
          1    1    3    3  501    0  0.59769143093E+01  0.72659469264E+01 -0.14414512529E+03  0.14445184192E+03  0.00000000000E+00 0.  1.
         -1    1    1    2    0  502 -0.24631305944E+02 -0.22350124284E+02 -0.41118958352E+03  0.41253254767E+03  0.00000000000E+00 0. -1.
<mgrwt>
<rscale>  1 0.30000000E+03</rscale>
<asrwt>0</asrwt>
<pdfrwt beam="1">  1       21 0.41782278E-02 0.30000000E+03</pdfrwt>
<pdfrwt beam="2">0</pdfrwt>
<totfact> 0.39067779E+04</totfact>
</mgrwt>
</event>
<event>
 6    1  0.8397183E-002  0.3000000E+03  0.7818608E-02  0.1093470E+00
         21   -1    0    0  501  502  0.00000000000E+00  0.00000000000E+00  0.12732508430E+01  0.12732508430E+01  0.00000000000E+00 0. -1.
         13   -1    0    0    0    0 -0.00000000000E+00 -0.00000000000E+00 -0.10000000000E+04  0.10000000000E+04  0.00000000000E+00 0.  1.
    9000005    2    1    2  501    0 -0.34218854089E+02 -0.78945294259E+01 -0.41745727011E+03  0.41894391031E+03  0.31896788230E+01 0.  0.
         13    1    3    3    0    0 -0.18907123486E+02 -0.49696583129E+01 -0.24955534694E+03  0.25031989135E+03  0.00000000000E+00 0.  1.
          3    1    3    3  501    0 -0.15311730603E+02 -0.29248711130E+01 -0.16790192317E+03  0.16862401896E+03  0.00000000000E+00 0.  1.
         -3    1    1    2    0  502  0.34218854089E+02  0.78945294259E+01 -0.58126947905E+03  0.58232934053E+03  0.00000000000E+00 0. -1.
<mgrwt>
<rscale>  1 0.30000000E+03</rscale>
<asrwt>0</asrwt>
<pdfrwt beam="1">  1       21 0.46300128E-02 0.30000000E+03</pdfrwt>
<pdfrwt beam="2">0</pdfrwt>
<totfact> 0.32830986E+04</totfact>
</mgrwt>
</event>
<event>
 6    1  0.8397183E-002  0.3000000E+03  0.7818608E-02  0.1093470E+00
         21   -1    0    0  501  502  0.00000000000E+00  0.00000000000E+00  0.14815918781E+01  0.14815918781E+01  0.00000000000E+00 0. -1.
         13   -1    0    0    0    0 -0.00000000000E+00 -0.00000000000E+00 -0.10000000000E+04  0.10000000000E+04  0.00000000000E+00 0.  1.
    9000005    2    1    2  501    0 -0.29808010727E+02 -0.21886692936E+02 -0.36357386940E+03  0.36546106384E+03  0.28785139329E+01 0.  0.
         13    1    3    3    0    0 -0.81540746968E+01 -0.66360315835E+01 -0.11541920732E+03  0.11589702010E+03  0.00000000000E+00 0.  1.
          3    1    3    3  501    0 -0.21653936030E+02 -0.15250661353E+02 -0.24815466208E+03  0.24956404374E+03  0.00000000000E+00 0.  1.
         -3    1    1    2    0  502  0.29808010727E+02  0.21886692936E+02 -0.63494453872E+03  0.63602052804E+03  0.00000000000E+00 0. -1.
<mgrwt>
<rscale>  1 0.30000000E+03</rscale>
<asrwt>0</asrwt>
<pdfrwt beam="1">  1       21 0.53876182E-02 0.30000000E+03</pdfrwt>
<pdfrwt beam="2">0</pdfrwt>
<totfact> 0.25355359E+04</totfact>
</mgrwt>
</event>
<event>
 6    1  0.8397183E-002  0.3000000E+03  0.7818608E-02  0.1093470E+00
         21   -1    0    0  501  502  0.00000000000E+00  0.00000000000E+00  0.46545089407E+01  0.46545089407E+01  0.00000000000E+00 0. -1.
         13   -1    0    0    0    0 -0.00000000000E+00 -0.00000000000E+00 -0.10000000000E+04  0.10000000000E+04  0.00000000000E+00 0.  1.
    9000005    2    1    2  501    0 -0.48326653983E+02  0.19198641314E+02 -0.17449617122E+03  0.18215973133E+03  0.54037611843E+01 0.  0.
         13    1    3    3    0    0 -0.19745218937E+02  0.10207526494E+02 -0.69061132195E+02  0.72550032722E+02  0.00000000000E+00 0.  1.
          1    1    3    3  501    0 -0.28581435046E+02  0.89911148202E+01 -0.10543503903E+03  0.10960969861E+03  0.00000000000E+00 0.  1.
         -1    1    1    2    0  502  0.48326653983E+02 -0.19198641314E+02 -0.82084931984E+03  0.82249477761E+03  0.00000000000E+00 0. -1.
<mgrwt>
<rscale>  1 0.30000000E+03</rscale>
<asrwt>0</asrwt>
<pdfrwt beam="1">  1       21 0.16925523E-01 0.30000000E+03</pdfrwt>
<pdfrwt beam="2">0</pdfrwt>
<totfact> 0.32884473E+03</totfact>
</mgrwt>
</event>
<event>
 6    1  0.8397183E-002  0.3000000E+03  0.7818608E-02  0.1093470E+00
         21   -1    0    0  501  502  0.00000000000E+00  0.00000000000E+00  0.12882603688E+01  0.12882603688E+01  0.00000000000E+00 0. -1.
         13   -1    0    0    0    0 -0.00000000000E+00 -0.00000000000E+00 -0.10000000000E+04  0.10000000000E+04  0.00000000000E+00 0.  1.
    9000005    2    1    2  501    0  0.31006084435E+02 -0.17924092299E+02 -0.50279557887E+03  0.50408056850E+03  0.33429094742E+01 0.  0.
         13    1    3    3    0    0  0.94913992469E+01 -0.71433293663E+01 -0.17531124256E+03  0.17571324817E+03  0.00000000000E+00 0.  1.
          3    1    3    3  501    0  0.21514685188E+02 -0.10780762933E+02 -0.32748433632E+03  0.32836732033E+03  0.00000000000E+00 0.  1.
         -1    1    1    2    0  502 -0.31006084435E+02  0.17924092299E+02 -0.49591616076E+03  0.49720769187E+03  0.00000000000E+00 0. -1.
<mgrwt>
<rscale>  1 0.30000000E+03</rscale>
<asrwt>0</asrwt>
<pdfrwt beam="1">  1       21 0.46845930E-02 0.30000000E+03</pdfrwt>
<pdfrwt beam="2">0</pdfrwt>
<totfact> 0.32183490E+04</totfact>
</mgrwt>
</event>
<event>
 6    1  0.8397183E-002  0.3000000E+03  0.7818608E-02  0.1093470E+00
         21   -1    0    0  501  502  0.00000000000E+00  0.00000000000E+00  0.10229771892E+01  0.10229771892E+01  0.00000000000E+00 0. -1.
         13   -1    0    0    0    0 -0.00000000000E+00 -0.00000000000E+00 -0.10000000000E+04  0.10000000000E+04  0.00000000000E+00 0.  1.
    9000005    2    1    2  501    0 -0.20343728395E+02 -0.22207745129E+02 -0.66451629608E+03  0.66520899750E+03  0.37485159275E+01 0.  0.
         13    1    3    3    0    0 -0.83270645459E+01 -0.10354102759E+02 -0.25692621504E+03  0.25726956179E+03  0.00000000000E+00 0.  1.
          1    1    3    3  501    0 -0.12016663849E+02 -0.11853642370E+02 -0.40759008104E+03  0.40793943571E+03  0.00000000000E+00 0.  1.
         -1    1    1    2    0  502  0.20343728395E+02  0.22207745129E+02 -0.33446072673E+03  0.33581397969E+03  0.00000000000E+00 0. -1.
<mgrwt>
<rscale>  1 0.30000000E+03</rscale>
<asrwt>0</asrwt>
<pdfrwt beam="1">  1       21 0.37199249E-02 0.30000000E+03</pdfrwt>
<pdfrwt beam="2">0</pdfrwt>
<totfact> 0.47505229E+04</totfact>
</mgrwt>
</event>
<event>
 6    1  0.8397183E-002  0.3000000E+03  0.7818608E-02  0.1093470E+00
         21   -1    0    0  501  502  0.00000000000E+00  0.00000000000E+00  0.34452058737E+01  0.34452058737E+01  0.00000000000E+00 0. -1.
         13   -1    0    0    0    0 -0.00000000000E+00 -0.00000000000E+00 -0.10000000000E+04  0.10000000000E+04  0.00000000000E+00 0.  1.
    9000005    2    1    2  501    0 -0.33256734864E+02  0.46176206601E+02 -0.37770581908E+03  0.38198538707E+03  0.35913367023E+01 0.  0.
         13    1    3    3    0    0 -0.19605021077E+02  0.26493022710E+02 -0.20708794450E+03  0.20969419129E+03  0.00000000000E+00 0.  1.
          1    1    3    3  501    0 -0.13651713787E+02  0.19683183891E+02 -0.17061787458E+03  0.17229119578E+03  0.00000000000E+00 0.  1.
         -3    1    1    2    0  502  0.33256734864E+02 -0.46176206601E+02 -0.61884897505E+03  0.62145981881E+03  0.00000000000E+00 0. -1.
<mgrwt>
<rscale>  1 0.30000000E+03</rscale>
<asrwt>0</asrwt>
<pdfrwt beam="1">  1       21 0.12528048E-01 0.30000000E+03</pdfrwt>
<pdfrwt beam="2">0</pdfrwt>
<totfact> 0.57302523E+03</totfact>
</mgrwt>
</event>
<event>
 6    1  0.8397183E-002  0.3000000E+03  0.7818608E-02  0.1093470E+00
         21   -1    0    0  501  502  0.00000000000E+00  0.00000000000E+00  0.18407145402E+01  0.18407145402E+01  0.00000000000E+00 0. -1.
         13   -1    0    0    0    0 -0.00000000000E+00 -0.00000000000E+00 -0.10000000000E+04  0.10000000000E+04  0.00000000000E+00 0.  1.
    9000005    2    1    2  501    0 -0.21151589691E+02  0.37201733626E+02 -0.48059601970E+03  0.48251124995E+03  0.36350298833E+01 0.  0.
         13    1    3    3    0    0 -0.18116301815E+02  0.32694915203E+02 -0.43129946056E+03  0.43291613801E+03  0.00000000000E+00 0.  1.
          1    1    3    3  501    0 -0.30352878766E+01  0.45068184229E+01 -0.49296559137E+02  0.49595111932E+02  0.00000000000E+00 0.  1.
         -1    1    1    2    0  502  0.21151589691E+02 -0.37201733626E+02 -0.51756326576E+03  0.51932946459E+03  0.00000000000E+00 0. -1.
<mgrwt>
<rscale>  1 0.30000000E+03</rscale>
<asrwt>0</asrwt>
<pdfrwt beam="1">  1       21 0.66935215E-02 0.30000000E+03</pdfrwt>
<pdfrwt beam="2">0</pdfrwt>
<totfact> 0.17440423E+04</totfact>
</mgrwt>
</event>
<event>
 6    1  0.8397183E-002  0.3000000E+03  0.7818608E-02  0.1093470E+00
         21   -1    0    0  501  502  0.00000000000E+00  0.00000000000E+00  0.13958247669E+01  0.13958247669E+01  0.00000000000E+00 0. -1.
         13   -1    0    0    0    0 -0.00000000000E+00 -0.00000000000E+00 -0.10000000000E+04  0.10000000000E+04  0.00000000000E+00 0.  1.
    9000005    2    1    2  501    0 -0.61538000450E+01  0.30093636304E+02 -0.78356654666E+03  0.78417548064E+03  0.33399384357E+01 0.  0.
         13    1    3    3    0    0 -0.58621349269E+01  0.30032652547E+02 -0.77589298281E+03  0.77649613368E+03  0.00000000000E+00 0.  1.
          3    1    3    3  501    0 -0.29166511811E+00  0.60983757091E-01 -0.76735638539E+01  0.76793469631E+01  0.00000000000E+00 0.  1.
         -1    1    1    2    0  502  0.61538000450E+01 -0.30093636304E+02 -0.21503762857E+03  0.21722034413E+03  0.00000000000E+00 0. -1.
<mgrwt>
<rscale>  1 0.30000000E+03</rscale>
<asrwt>0</asrwt>
<pdfrwt beam="1">  1       21 0.50757371E-02 0.30000000E+03</pdfrwt>
<pdfrwt beam="2">0</pdfrwt>
<totfact> 0.28075540E+04</totfact>
</mgrwt>
</event>
<event>
 6    1  0.8397183E-002  0.3000000E+03  0.7818608E-02  0.1093470E+00
         21   -1    0    0  501  502  0.00000000000E+00  0.00000000000E+00  0.16826799260E+01  0.16826799260E+01  0.00000000000E+00 0. -1.
         13   -1    0    0    0    0 -0.00000000000E+00 -0.00000000000E+00 -0.10000000000E+04  0.10000000000E+04  0.00000000000E+00 0.  1.
    9000005    2    1    2  501    0  0.12466451633E+02  0.32951599436E+02 -0.24371341742E+03  0.24625679328E+03  0.22266750705E+01 0.  0.
         13    1    3    3    0    0  0.87277363527E+01  0.25145416319E+02 -0.17951799918E+03  0.18148051513E+03  0.00000000000E+00 0.  1.
          3    1    3    3  501    0  0.37387152807E+01  0.78061831176E+01 -0.64195418246E+02  0.64776278147E+02  0.00000000000E+00 0.  1.
         -3    1    1    2    0  502 -0.12466451633E+02 -0.32951599436E+02 -0.75460390265E+03  0.75542588665E+03  0.00000000000E+00 0. -1.
<mgrwt>
<rscale>  1 0.30000000E+03</rscale>
<asrwt>0</asrwt>
<pdfrwt beam="1">  1       21 0.61188490E-02 0.30000000E+03</pdfrwt>
<pdfrwt beam="2">0</pdfrwt>
<totfact> 0.20370497E+04</totfact>
</mgrwt>
</event>
<event>
 6    1  0.8397183E-002  0.3000000E+03  0.7818608E-02  0.1093470E+00
         21   -1    0    0  501  502  0.00000000000E+00  0.00000000000E+00  0.30901669154E+01  0.30901669154E+01  0.00000000000E+00 0. -1.
         13   -1    0    0    0    0 -0.00000000000E+00 -0.00000000000E+00 -0.10000000000E+04  0.10000000000E+04  0.00000000000E+00 0.  1.
    9000005    2    1    2  501    0 -0.21216341483E+02 -0.51275536773E+02 -0.47806378858E+03  0.48128509630E+03  0.33232748852E+01 0.  0.
         13    1    3    3    0    0 -0.20464204901E+02 -0.47206424604E+02 -0.44147460976E+03  0.44446266578E+03  0.00000000000E+00 0.  1.
          1    1    3    3  501    0 -0.75213658207E+00 -0.40691121687E+01 -0.36589178815E+02  0.36822430523E+02  0.00000000000E+00 0.  1.
         -3    1    1    2    0  502  0.21216341483E+02  0.51275536773E+02 -0.51884604451E+03  0.52180507062E+03  0.00000000000E+00 0. -1.
<mgrwt>
<rscale>  1 0.30000000E+03</rscale>
<asrwt>0</asrwt>
<pdfrwt beam="1">  1       21 0.11236994E-01 0.30000000E+03</pdfrwt>
<pdfrwt beam="2">0</pdfrwt>
<totfact> 0.69789185E+03</totfact>
</mgrwt>
</event>
<event>
 6    1  0.8397183E-002  0.3000000E+03  0.7818608E-02  0.1093470E+00
         21   -1    0    0  501  502  0.00000000000E+00  0.00000000000E+00  0.12313486745E+01  0.12313486745E+01  0.00000000000E+00 0. -1.
         13   -1    0    0    0    0 -0.00000000000E+00 -0.00000000000E+00 -0.10000000000E+04  0.10000000000E+04  0.00000000000E+00 0.  1.
    9000005    2    1    2  501    0 -0.33639621292E+02  0.71738900236E+01 -0.59358871612E+03  0.59459407946E+03  0.33862381074E+01 0.  0.
         13    1    3    3    0    0 -0.10661341487E+02  0.13684631703E+01 -0.16364826227E+03  0.16400088609E+03  0.00000000000E+00 0.  1.
          1    1    3    3  501    0 -0.22978279805E+02  0.58054268533E+01 -0.42994045385E+03  0.43059319338E+03  0.00000000000E+00 0.  1.
         -3    1    1    2    0  502  0.33639621292E+02 -0.71738900236E+01 -0.40517993520E+03  0.40663726921E+03  0.00000000000E+00 0. -1.
<mgrwt>
<rscale>  1 0.30000000E+03</rscale>
<asrwt>0</asrwt>
<pdfrwt beam="1">  1       21 0.44776410E-02 0.30000000E+03</pdfrwt>
<pdfrwt beam="2">0</pdfrwt>
<totfact> 0.34750618E+04</totfact>
</mgrwt>
</event>
<event>
 6    1  0.8397183E-002  0.3000000E+03  0.7818608E-02  0.1093470E+00
         21   -1    0    0  501  502  0.00000000000E+00  0.00000000000E+00  0.19489572786E+01  0.19489572786E+01  0.00000000000E+00 0. -1.
         13   -1    0    0    0    0 -0.00000000000E+00 -0.00000000000E+00 -0.10000000000E+04  0.10000000000E+04  0.00000000000E+00 0.  1.
    9000005    2    1    2  501    0  0.19272798218E+02  0.39619352755E+02 -0.51755142680E+03  0.51943365725E+03  0.32727716966E+01 0.  0.
         13    1    3    3    0    0 -0.13773069066E+00  0.29021361131E+00 -0.38832906512E+01  0.38965548841E+01  0.00000000000E+00 0.  1.
          1    1    3    3  501    0  0.19410528909E+02  0.39329139144E+02 -0.51366813615E+03  0.51553710236E+03  0.00000000000E+00 0.  1.
         -1    1    1    2    0  502 -0.19272798218E+02 -0.39619352755E+02 -0.48049961592E+03  0.48251530003E+03  0.00000000000E+00 0. -1.
<mgrwt>
<rscale>  1 0.30000000E+03</rscale>
<asrwt>0</asrwt>
<pdfrwt beam="1">  1       21 0.70871323E-02 0.30000000E+03</pdfrwt>
<pdfrwt beam="2">0</pdfrwt>
<totfact> 0.15791450E+04</totfact>
</mgrwt>
</event>
<event>
 6    1  0.8397183E-002  0.3000000E+03  0.7818608E-02  0.1093470E+00
         21   -1    0    0  501  502  0.00000000000E+00  0.00000000000E+00  0.12781444978E+01  0.12781444978E+01  0.00000000000E+00 0. -1.
         13   -1    0    0    0    0 -0.00000000000E+00 -0.00000000000E+00 -0.10000000000E+04  0.10000000000E+04  0.00000000000E+00 0.  1.
    9000005    2    1    2  501    0 -0.27133367390E+02 -0.19106583097E+02 -0.68408825177E+03  0.68489928026E+03  0.30011226543E+01 0.  0.
         13    1    3    3    0    0 -0.26292609186E+01 -0.22016142496E+01 -0.54711197799E+02  0.54818566954E+02  0.00000000000E+00 0.  1.
          1    1    3    3  501    0 -0.24504106472E+02 -0.16904968847E+02 -0.62937705397E+03  0.63008071330E+03  0.00000000000E+00 0.  1.
         -1    1    1    2    0  502  0.27133367390E+02  0.19106583097E+02 -0.31463360373E+03  0.31637886424E+03  0.00000000000E+00 0. -1.
<mgrwt>
<rscale>  1 0.30000000E+03</rscale>
<asrwt>0</asrwt>
<pdfrwt beam="1">  1       21 0.46478080E-02 0.30000000E+03</pdfrwt>
<pdfrwt beam="2">0</pdfrwt>
<totfact> 0.32617651E+04</totfact>
</mgrwt>
</event>
<event>
 6    1  0.8397183E-002  0.3000000E+03  0.7818608E-02  0.1093470E+00
         21   -1    0    0  501  502  0.00000000000E+00  0.00000000000E+00  0.13324175399E+01  0.13324175399E+01  0.00000000000E+00 0. -1.
         13   -1    0    0    0    0 -0.00000000000E+00 -0.00000000000E+00 -0.10000000000E+04  0.10000000000E+04  0.00000000000E+00 0.  1.
    9000005    2    1    2  501    0 -0.18147278334E+02  0.24228183863E+02 -0.22239129973E+03  0.22446615123E+03  0.32915417740E+01 0.  0.
         13    1    3    3    0    0 -0.11001079664E+02  0.17261401611E+02 -0.14984395297E+03  0.15123554470E+03  0.00000000000E+00 0.  1.
          3    1    3    3  501    0 -0.71461986700E+01  0.69667822519E+01 -0.72547346767E+02  0.73230606533E+02  0.00000000000E+00 0.  1.
         -1    1    1    2    0  502  0.18147278334E+02 -0.24228183863E+02 -0.77627628273E+03  0.77686626631E+03  0.00000000000E+00 0. -1.
<mgrwt>
<rscale>  1 0.30000000E+03</rscale>
<asrwt>0</asrwt>
<pdfrwt beam="1">  1       21 0.48451649E-02 0.30000000E+03</pdfrwt>
<pdfrwt beam="2">0</pdfrwt>
<totfact> 0.30390264E+04</totfact>
</mgrwt>
</event>
<event>
 6    1  0.8397183E-002  0.3000000E+03  0.7818608E-02  0.1093470E+00
         21   -1    0    0  501  502  0.00000000000E+00  0.00000000000E+00  0.18131712860E+01  0.18131712860E+01  0.00000000000E+00 0. -1.
         13   -1    0    0    0    0 -0.00000000000E+00 -0.00000000000E+00 -0.10000000000E+04  0.10000000000E+04  0.00000000000E+00 0.  1.
    9000005    2    1    2  501    0 -0.17817914926E+02 -0.38197606136E+02 -0.56704859221E+03  0.56861954923E+03  0.27478431630E+01 0.  0.
         13    1    3    3    0    0 -0.20429274296E+01 -0.49217433840E+01 -0.60593368131E+02  0.60827242021E+02  0.00000000000E+00 0.  1.
          3    1    3    3  501    0 -0.15774987496E+02 -0.33275862752E+02 -0.50645522407E+03  0.50779230721E+03  0.00000000000E+00 0.  1.
         -1    1    1    2    0  502  0.17817914926E+02  0.38197606136E+02 -0.43113823651E+03  0.43319362205E+03  0.00000000000E+00 0. -1.
<mgrwt>
<rscale>  1 0.30000000E+03</rscale>
<asrwt>0</asrwt>
<pdfrwt beam="1">  1       21 0.65933640E-02 0.30000000E+03</pdfrwt>
<pdfrwt beam="2">0</pdfrwt>
<totfact> 0.17902299E+04</totfact>
</mgrwt>
</event>
<event>
 6    1  0.8397183E-002  0.3000000E+03  0.7818608E-02  0.1093470E+00
         21   -1    0    0  501  502  0.00000000000E+00  0.00000000000E+00  0.17209608436E+01  0.17209608436E+01  0.00000000000E+00 0. -1.
         13   -1    0    0    0    0 -0.00000000000E+00 -0.00000000000E+00 -0.10000000000E+04  0.10000000000E+04  0.00000000000E+00 0.  1.
    9000005    2    1    2  501    0 -0.10613945797E+02  0.30780612828E+02 -0.19100667177E+03  0.19379226527E+03  0.34338680431E+01 0.  0.
         13    1    3    3    0    0 -0.91427665007E+01  0.25721509906E+02 -0.15206512293E+03  0.15449591536E+03  0.00000000000E+00 0.  1.
          3    1    3    3  501    0 -0.14711792960E+01  0.50591029226E+01 -0.38941548832E+02  0.39296349911E+02  0.00000000000E+00 0.  1.
         -1    1    1    2    0  502  0.10613945797E+02 -0.30780612828E+02 -0.80727236739E+03  0.80792869557E+03  0.00000000000E+00 0. -1.
<mgrwt>
<rscale>  1 0.30000000E+03</rscale>
<asrwt>0</asrwt>
<pdfrwt beam="1">  1       21 0.62580526E-02 0.30000000E+03</pdfrwt>
<pdfrwt beam="2">0</pdfrwt>
<totfact> 0.19594327E+04</totfact>
</mgrwt>
</event>
<event>
 6    1  0.8397183E-002  0.3000000E+03  0.7818608E-02  0.1093470E+00
         21   -1    0    0  501  502  0.00000000000E+00  0.00000000000E+00  0.85372489432E+01  0.85372489432E+01  0.00000000000E+00 0. -1.
         13   -1    0    0    0    0 -0.00000000000E+00 -0.00000000000E+00 -0.10000000000E+04  0.10000000000E+04  0.00000000000E+00 0.  1.
    9000005    2    1    2  501    0  0.56357649171E+02 -0.27954318631E+02 -0.86497939236E+03  0.86727271490E+03  0.38709505634E+01 0.  0.
         13    1    3    3    0    0  0.33358088804E+02 -0.16109163098E+02 -0.48337090268E+03  0.48478830100E+03  0.00000000000E+00 0.  1.
          1    1    3    3  501    0  0.22999560367E+02 -0.11845155533E+02 -0.38160848968E+03  0.38248441391E+03  0.00000000000E+00 0.  1.
         -1    1    1    2    0  502 -0.56357649171E+02  0.27954318631E+02 -0.12648335870E+03  0.14126453404E+03  0.00000000000E+00 0. -1.
<mgrwt>
<rscale>  1 0.30000000E+03</rscale>
<asrwt>0</asrwt>
<pdfrwt beam="1">  1       21 0.31044607E-01 0.30000000E+03</pdfrwt>
<pdfrwt beam="2">0</pdfrwt>
<totfact> 0.10151449E+03</totfact>
</mgrwt>
</event>
<event>
 6    1  0.8397183E-002  0.3000000E+03  0.7818608E-02  0.1093470E+00
         21   -1    0    0  501  502  0.00000000000E+00  0.00000000000E+00  0.19304227697E+01  0.19304227697E+01  0.00000000000E+00 0. -1.
         13   -1    0    0    0    0 -0.00000000000E+00 -0.00000000000E+00 -0.10000000000E+04  0.10000000000E+04  0.00000000000E+00 0.  1.
    9000005    2    1    2  501    0  0.98502245220E+01  0.34561768063E+02 -0.21275079544E+03  0.21578976629E+03  0.32832211584E+01 0.  0.
         13    1    3    3    0    0  0.39712859053E+01  0.13283969876E+02 -0.91772696761E+02  0.92814130595E+02  0.00000000000E+00 0.  1.
          3    1    3    3  501    0  0.58789386168E+01  0.21277798187E+02 -0.12097809868E+03  0.12297563569E+03  0.00000000000E+00 0.  1.
         -3    1    1    2    0  502 -0.98502245220E+01 -0.34561768063E+02 -0.78531878179E+03  0.78614065648E+03  0.00000000000E+00 0. -1.
<mgrwt>
<rscale>  1 0.30000000E+03</rscale>
<asrwt>0</asrwt>
<pdfrwt beam="1">  1       21 0.70197340E-02 0.30000000E+03</pdfrwt>
<pdfrwt beam="2">0</pdfrwt>
<totfact> 0.16056419E+04</totfact>
</mgrwt>
</event>
<event>
 6    1  0.8397183E-002  0.3000000E+03  0.7818608E-02  0.1093470E+00
         21   -1    0    0  501  502  0.00000000000E+00  0.00000000000E+00  0.17201067297E+01  0.17201067297E+01  0.00000000000E+00 0. -1.
         13   -1    0    0    0    0 -0.00000000000E+00 -0.00000000000E+00 -0.10000000000E+04  0.10000000000E+04  0.00000000000E+00 0.  1.
    9000005    2    1    2  501    0 -0.48936288414E+01  0.41129520601E+02 -0.50595771725E+03  0.50765866311E+03  0.29191642364E+01 0.  0.
         13    1    3    3    0    0  0.19761994069E+00  0.74175966805E+01 -0.94298228171E+02  0.94589722646E+02  0.00000000000E+00 0.  1.
          1    1    3    3  501    0 -0.50912487821E+01  0.33711923921E+02 -0.41165948908E+03  0.41306894047E+03  0.00000000000E+00 0.  1.
         -1    1    1    2    0  502  0.48936288414E+01 -0.41129520601E+02 -0.49232217602E+03  0.49406144362E+03  0.00000000000E+00 0. -1.
<mgrwt>
<rscale>  1 0.30000000E+03</rscale>
<asrwt>0</asrwt>
<pdfrwt beam="1">  1       21 0.62549468E-02 0.30000000E+03</pdfrwt>
<pdfrwt beam="2">0</pdfrwt>
<totfact> 0.19611141E+04</totfact>
</mgrwt>
</event>
<event>
 6    1  0.8397183E-002  0.3000000E+03  0.7818608E-02  0.1093470E+00
         21   -1    0    0  501  502  0.00000000000E+00  0.00000000000E+00  0.15958959377E+01  0.15958959377E+01  0.00000000000E+00 0. -1.
         13   -1    0    0    0    0 -0.00000000000E+00 -0.00000000000E+00 -0.10000000000E+04  0.10000000000E+04  0.00000000000E+00 0.  1.
    9000005    2    1    2  501    0 -0.21565947631E+02  0.27490405412E+02 -0.25881607585E+03  0.26118299494E+03  0.31596267400E+01 0.  0.
         13    1    3    3    0    0 -0.50957340315E+01  0.44825279777E+01 -0.50657430464E+02  0.51110026645E+02  0.00000000000E+00 0.  1.
          3    1    3    3  501    0 -0.16470213600E+02  0.23007877435E+02 -0.20815864539E+03  0.21007296830E+03  0.00000000000E+00 0.  1.
         -3    1    1    2    0  502  0.21565947631E+02 -0.27490405412E+02 -0.73958802821E+03  0.74041290099E+03  0.00000000000E+00 0. -1.
<mgrwt>
<rscale>  1 0.30000000E+03</rscale>
<asrwt>0</asrwt>
<pdfrwt beam="1">  1       21 0.58032702E-02 0.30000000E+03</pdfrwt>
<pdfrwt beam="2">0</pdfrwt>
<totfact> 0.22317897E+04</totfact>
</mgrwt>
</event>
<event>
 6    1  0.8397183E-002  0.3000000E+03  0.7818608E-02  0.1093470E+00
         21   -1    0    0  501  502  0.00000000000E+00  0.00000000000E+00  0.15470099601E+01  0.15470099601E+01  0.00000000000E+00 0. -1.
         13   -1    0    0    0    0 -0.00000000000E+00 -0.00000000000E+00 -0.10000000000E+04  0.10000000000E+04  0.00000000000E+00 0.  1.
    9000005    2    1    2  501    0 -0.29932679185E+02  0.14335077256E+02 -0.23233861682E+03  0.23471411253E+03  0.28323193464E+01 0.  0.
         13    1    3    3    0    0 -0.25702326801E+02  0.12194092291E+02 -0.19158331431E+03  0.19368394825E+03  0.00000000000E+00 0.  1.
          1    1    3    3  501    0 -0.42303523849E+01  0.21409849651E+01 -0.40755302513E+02  0.41030164280E+02  0.00000000000E+00 0.  1.
         -3    1    1    2    0  502  0.29932679185E+02 -0.14335077256E+02 -0.76611437322E+03  0.76683289743E+03  0.00000000000E+00 0. -1.
<mgrwt>
<rscale>  1 0.30000000E+03</rscale>
<asrwt>0</asrwt>
<pdfrwt beam="1">  1       21 0.56255026E-02 0.30000000E+03</pdfrwt>
<pdfrwt beam="2">0</pdfrwt>
<totfact> 0.23544621E+04</totfact>
</mgrwt>
</event>
<event>
 6    1  0.8397183E-002  0.3000000E+03  0.7818608E-02  0.1093470E+00
         21   -1    0    0  501  502  0.00000000000E+00  0.00000000000E+00  0.16477518825E+01  0.16477518825E+01  0.00000000000E+00 0. -1.
         13   -1    0    0    0    0 -0.00000000000E+00 -0.00000000000E+00 -0.10000000000E+04  0.10000000000E+04  0.00000000000E+00 0.  1.
    9000005    2    1    2  501    0  0.27333810342E+02 -0.23669692903E+02 -0.72586015202E+03  0.72676717057E+03  0.31887882620E+01 0.  0.
         13    1    3    3    0    0  0.12523440472E+02 -0.12897677683E+02 -0.35226309953E+03  0.35272153031E+03  0.00000000000E+00 0.  1.
          3    1    3    3  501    0  0.14810369870E+02 -0.10772015220E+02 -0.37359705249E+03  0.37404564026E+03  0.00000000000E+00 0.  1.
         -1    1    1    2    0  502 -0.27333810342E+02  0.23669692903E+02 -0.27249209610E+03  0.27488058132E+03  0.00000000000E+00 0. -1.
<mgrwt>
<rscale>  1 0.30000000E+03</rscale>
<asrwt>0</asrwt>
<pdfrwt beam="1">  1       21 0.59918377E-02 0.30000000E+03</pdfrwt>
<pdfrwt beam="2">0</pdfrwt>
<totfact> 0.21121194E+04</totfact>
</mgrwt>
</event>
<event>
 6    1  0.8397183E-002  0.3000000E+03  0.7818608E-02  0.1093470E+00
         21   -1    0    0  501  502  0.00000000000E+00  0.00000000000E+00  0.27270373942E+01  0.27270373942E+01  0.00000000000E+00 0. -1.
         13   -1    0    0    0    0 -0.00000000000E+00 -0.00000000000E+00 -0.10000000000E+04  0.10000000000E+04  0.00000000000E+00 0.  1.
    9000005    2    1    2  501    0  0.38714905859E+02  0.34962026531E+02 -0.51109487465E+03  0.51375840809E+03  0.29229703051E+01 0.  0.
         13    1    3    3    0    0  0.43284469051E+01  0.52109981132E+01 -0.64677768941E+02  0.65031559640E+02  0.00000000000E+00 0.  1.
          1    1    3    3  501    0  0.34386458954E+02  0.29751028418E+02 -0.44641710571E+03  0.44872684845E+03  0.00000000000E+00 0.  1.
         -3    1    1    2    0  502 -0.38714905859E+02 -0.34962026531E+02 -0.48617808796E+03  0.48896862930E+03  0.00000000000E+00 0. -1.
<mgrwt>
<rscale>  1 0.30000000E+03</rscale>
<asrwt>0</asrwt>
<pdfrwt beam="1">  1       21 0.99165205E-02 0.30000000E+03</pdfrwt>
<pdfrwt beam="2">0</pdfrwt>
<totfact> 0.87330029E+03</totfact>
</mgrwt>
</event>
<event>
 6    1  0.8397183E-002  0.3000000E+03  0.7818608E-02  0.1093470E+00
         21   -1    0    0  501  502  0.00000000000E+00  0.00000000000E+00  0.10123358504E+01  0.10123358504E+01  0.00000000000E+00 0. -1.
         13   -1    0    0    0    0 -0.00000000000E+00 -0.00000000000E+00 -0.10000000000E+04  0.10000000000E+04  0.00000000000E+00 0.  1.
    9000005    2    1    2  501    0 -0.23894278486E+02 -0.18906164845E+02 -0.63973028086E+03  0.64046518628E+03  0.35274604261E+01 0.  0.
         13    1    3    3    0    0 -0.69355354118E+01 -0.45952606691E+01 -0.14658461299E+03  0.14682052594E+03  0.00000000000E+00 0.  1.
          1    1    3    3  501    0 -0.16958743074E+02 -0.14310904176E+02 -0.49314566786E+03  0.49364466034E+03  0.00000000000E+00 0.  1.
         -1    1    1    2    0  502  0.23894278486E+02  0.18906164845E+02 -0.35925738329E+03  0.36054714957E+03  0.00000000000E+00 0. -1.
<mgrwt>
<rscale>  1 0.30000000E+03</rscale>
<asrwt>0</asrwt>
<pdfrwt beam="1">  1       21 0.36812290E-02 0.30000000E+03</pdfrwt>
<pdfrwt beam="2">0</pdfrwt>
<totfact> 0.48346373E+04</totfact>
</mgrwt>
</event>
<event>
 6    1  0.8397183E-002  0.3000000E+03  0.7818608E-02  0.1093470E+00
         21   -1    0    0  501  502  0.00000000000E+00  0.00000000000E+00  0.10214717665E+01  0.10214717665E+01  0.00000000000E+00 0. -1.
         13   -1    0    0    0    0 -0.00000000000E+00 -0.00000000000E+00 -0.10000000000E+04  0.10000000000E+04  0.00000000000E+00 0.  1.
    9000005    2    1    2  501    0  0.13142164467E+02  0.28409905914E+02 -0.59182316962E+03  0.59266461155E+03  0.41034668018E+01 0.  0.
         13    1    3    3    0    0  0.10821121215E+02  0.25054157623E+02 -0.48959387424E+03  0.49035392236E+03  0.00000000000E+00 0.  1.
          1    1    3    3  501    0  0.23210432520E+01  0.33557482911E+01 -0.10222929538E+03  0.10231068919E+03  0.00000000000E+00 0.  1.
         -3    1    1    2    0  502 -0.13142164467E+02 -0.28409905914E+02 -0.40715535861E+03  0.40835686022E+03  0.00000000000E+00 0. -1.
<mgrwt>
<rscale>  1 0.30000000E+03</rscale>
<asrwt>0</asrwt>
<pdfrwt beam="1">  1       21 0.37144506E-02 0.30000000E+03</pdfrwt>
<pdfrwt beam="2">0</pdfrwt>
<totfact> 0.47622819E+04</totfact>
</mgrwt>
</event>
<event>
 6    1  0.8397183E-002  0.3000000E+03  0.7818608E-02  0.1093470E+00
         21   -1    0    0  501  502  0.00000000000E+00  0.00000000000E+00  0.15972237635E+01  0.15972237635E+01  0.00000000000E+00 0. -1.
         13   -1    0    0    0    0 -0.00000000000E+00 -0.00000000000E+00 -0.10000000000E+04  0.10000000000E+04  0.00000000000E+00 0.  1.
    9000005    2    1    2  501    0  0.29332935797E+02 -0.19407924073E+02 -0.26401445852E+03  0.26636713063E+03  0.32749560662E+01 0.  0.
         13    1    3    3    0    0  0.25667717652E+02 -0.16803325653E+02 -0.23764762354E+03  0.23961964956E+03  0.00000000000E+00 0.  1.
          1    1    3    3  501    0  0.36652181446E+01 -0.26045984200E+01 -0.26366834980E+02  0.26747481075E+02  0.00000000000E+00 0.  1.
         -3    1    1    2    0  502 -0.29332935797E+02  0.19407924073E+02 -0.73438831772E+03  0.73523009313E+03  0.00000000000E+00 0. -1.
<mgrwt>
<rscale>  1 0.30000000E+03</rscale>
<asrwt>0</asrwt>
<pdfrwt beam="1">  1       21 0.58080987E-02 0.30000000E+03</pdfrwt>
<pdfrwt beam="2">0</pdfrwt>
<totfact> 0.22285952E+04</totfact>
</mgrwt>
</event>
<event>
 6    1  0.8397183E-002  0.3000000E+03  0.7818608E-02  0.1093470E+00
         21   -1    0    0  501  502  0.00000000000E+00  0.00000000000E+00  0.28602963631E+02  0.28602963631E+02  0.00000000000E+00 0. -1.
         13   -1    0    0    0    0 -0.00000000000E+00 -0.00000000000E+00 -0.10000000000E+04  0.10000000000E+04  0.00000000000E+00 0.  1.
    9000005    2    1    2  501    0 -0.37245911750E+02  0.15688581588E+03 -0.64072855499E+03  0.66071430963E+03  0.31465221589E+01 0.  0.
         13    1    3    3    0    0 -0.36858312405E+02  0.15483341468E+03 -0.63372608135E+03  0.65340696941E+03  0.00000000000E+00 0.  1.
          1    1    3    3  501    0 -0.38759934491E+00  0.20524012012E+01 -0.70024736447E+01  0.73073402197E+01  0.00000000000E+00 0.  1.
         -1    1    1    2    0  502  0.37245911750E+02 -0.15688581588E+03 -0.33066848138E+03  0.36788865400E+03  0.00000000000E+00 0. -1.
<mgrwt>
<rscale>  1 0.30000000E+03</rscale>
<asrwt>0</asrwt>
<pdfrwt beam="1">  1       21 0.10401100E+00 0.30000000E+03</pdfrwt>
<pdfrwt beam="2">0</pdfrwt>
<totfact> 0.66550313E+01</totfact>
</mgrwt>
</event>
<event>
 6    1  0.8397183E-002  0.3000000E+03  0.7818608E-02  0.1093470E+00
         21   -1    0    0  501  502  0.00000000000E+00  0.00000000000E+00  0.91352077385E+00  0.91352077385E+00  0.00000000000E+00 0. -1.
         13   -1    0    0    0    0 -0.00000000000E+00 -0.00000000000E+00 -0.10000000000E+04  0.10000000000E+04  0.00000000000E+00 0.  1.
    9000005    2    1    2  501    0 -0.12929603301E+02  0.27209030796E+02 -0.47109748879E+03  0.47206583001E+03  0.24078882485E+01 0.  0.
         13    1    3    3    0    0 -0.86372799845E+01  0.16407882015E+02 -0.30332960363E+03  0.30389582037E+03  0.00000000000E+00 0.  1.
          1    1    3    3  501    0 -0.42923233167E+01  0.10801148781E+02 -0.16776788515E+03  0.16817000964E+03  0.00000000000E+00 0.  1.
         -3    1    1    2    0  502  0.12929603301E+02 -0.27209030796E+02 -0.52798899044E+03  0.52884769076E+03  0.00000000000E+00 0. -1.
<mgrwt>
<rscale>  1 0.30000000E+03</rscale>
<asrwt>0</asrwt>
<pdfrwt beam="1">  1       21 0.33219007E-02 0.30000000E+03</pdfrwt>
<pdfrwt beam="2">0</pdfrwt>
<totfact> 0.57416388E+04</totfact>
</mgrwt>
</event>
<event>
 6    1  0.8397183E-002  0.3000000E+03  0.7818608E-02  0.1093470E+00
         21   -1    0    0  501  502  0.00000000000E+00  0.00000000000E+00  0.66372924808E+01  0.66372924808E+01  0.00000000000E+00 0. -1.
         13   -1    0    0    0    0 -0.00000000000E+00 -0.00000000000E+00 -0.10000000000E+04  0.10000000000E+04  0.00000000000E+00 0.  1.
    9000005    2    1    2  501    0 -0.54804069757E+02  0.94563780100E+01 -0.12941687040E+03  0.14090331566E+03  0.34797805455E+01 0.  0.
         13    1    3    3    0    0 -0.18443286493E+02  0.40984576105E+01 -0.40510070205E+02  0.44699194171E+02  0.00000000000E+00 0.  1.
          1    1    3    3  501    0 -0.36360783264E+02  0.53579203995E+01 -0.88906800191E+02  0.96204121485E+02  0.00000000000E+00 0.  1.
         -3    1    1    2    0  502  0.54804069757E+02 -0.94563780100E+01 -0.86394583712E+03  0.86573397682E+03  0.00000000000E+00 0. -1.
<mgrwt>
<rscale>  1 0.30000000E+03</rscale>
<asrwt>0</asrwt>
<pdfrwt beam="1">  1       21 0.24135660E-01 0.30000000E+03</pdfrwt>
<pdfrwt beam="2">0</pdfrwt>
<totfact> 0.16704810E+03</totfact>
</mgrwt>
</event>
<event>
 6    1  0.8397183E-002  0.3000000E+03  0.7818608E-02  0.1093470E+00
         21   -1    0    0  501  502  0.00000000000E+00  0.00000000000E+00  0.17806838169E+01  0.17806838169E+01  0.00000000000E+00 0. -1.
         13   -1    0    0    0    0 -0.00000000000E+00 -0.00000000000E+00 -0.10000000000E+04  0.10000000000E+04  0.00000000000E+00 0.  1.
    9000005    2    1    2  501    0 -0.40659339367E+02  0.40725116012E+00 -0.62862734663E+03  0.62995872146E+03  0.47225081956E+01 0.  0.
         13    1    3    3    0    0 -0.35415522578E+02 -0.46993543421E+00 -0.56536514327E+03  0.56647349920E+03  0.00000000000E+00 0.  1.
          1    1    3    3  501    0 -0.52438167894E+01  0.87718659432E+00 -0.63262203365E+02  0.63485222260E+02  0.00000000000E+00 0.  1.
         -3    1    1    2    0  502  0.40659339367E+02 -0.40725116012E+00 -0.36959196955E+03  0.37182196235E+03  0.00000000000E+00 0. -1.
<mgrwt>
<rscale>  1 0.30000000E+03</rscale>
<asrwt>0</asrwt>
<pdfrwt beam="1">  1       21 0.64752275E-02 0.30000000E+03</pdfrwt>
<pdfrwt beam="2">0</pdfrwt>
<totfact> 0.18471749E+04</totfact>
</mgrwt>
</event>
<event>
 6    1  0.8397183E-002  0.3000000E+03  0.7818608E-02  0.1093470E+00
         21   -1    0    0  501  502  0.00000000000E+00  0.00000000000E+00  0.15043591168E+01  0.15043591168E+01  0.00000000000E+00 0. -1.
         13   -1    0    0    0    0 -0.00000000000E+00 -0.00000000000E+00 -0.10000000000E+04  0.10000000000E+04  0.00000000000E+00 0.  1.
    9000005    2    1    2  501    0  0.20011629027E+02 -0.33100528845E+02 -0.51526226964E+03  0.51672543900E+03  0.37232364381E+01 0.  0.
         13    1    3    3    0    0  0.14565187110E+02 -0.22112547320E+02 -0.33301527917E+03  0.33406628921E+03  0.00000000000E+00 0.  1.
          1    1    3    3  501    0  0.54464419165E+01 -0.10987981524E+02 -0.18224699047E+03  0.18265914979E+03  0.00000000000E+00 0.  1.
         -3    1    1    2    0  502 -0.20011629027E+02  0.33100528845E+02 -0.48323337125E+03  0.48477892012E+03  0.00000000000E+00 0. -1.
<mgrwt>
<rscale>  1 0.30000000E+03</rscale>
<asrwt>0</asrwt>
<pdfrwt beam="1">  1       21 0.54704083E-02 0.30000000E+03</pdfrwt>
<pdfrwt beam="2">0</pdfrwt>
<totfact> 0.24701550E+04</totfact>
</mgrwt>
</event>
<event>
 6    1  0.8397183E-002  0.3000000E+03  0.7818608E-02  0.1093470E+00
         21   -1    0    0  501  502  0.00000000000E+00  0.00000000000E+00  0.37267820556E+01  0.37267820556E+01  0.00000000000E+00 0. -1.
         13   -1    0    0    0    0 -0.00000000000E+00 -0.00000000000E+00 -0.10000000000E+04  0.10000000000E+04  0.00000000000E+00 0.  1.
    9000005    2    1    2  501    0 -0.31429198465E+02  0.26971095337E+02 -0.13197593457E+03  0.13843779648E+03  0.56693641938E+01 0.  0.
         13    1    3    3    0    0 -0.95817085350E+01  0.10267175409E+02 -0.52121824609E+02  0.53980631989E+02  0.00000000000E+00 0.  1.
          3    1    3    3  501    0 -0.21847489930E+02  0.16703919928E+02 -0.79854109957E+02  0.84457164493E+02  0.00000000000E+00 0.  1.
         -3    1    1    2    0  502  0.31429198465E+02 -0.26971095337E+02 -0.86429728338E+03  0.86528898557E+03  0.00000000000E+00 0. -1.
<mgrwt>
<rscale>  1 0.30000000E+03</rscale>
<asrwt>0</asrwt>
<pdfrwt beam="1">  1       21 0.13551963E-01 0.30000000E+03</pdfrwt>
<pdfrwt beam="2">0</pdfrwt>
<totfact> 0.49642441E+03</totfact>
</mgrwt>
</event>
<event>
 6    1  0.8397183E-002  0.3000000E+03  0.7818608E-02  0.1093470E+00
         21   -1    0    0  501  502  0.00000000000E+00  0.00000000000E+00  0.12220388273E+01  0.12220388273E+01  0.00000000000E+00 0. -1.
         13   -1    0    0    0    0 -0.00000000000E+00 -0.00000000000E+00 -0.10000000000E+04  0.10000000000E+04  0.00000000000E+00 0.  1.
    9000005    2    1    2  501    0 -0.33684891526E+02 -0.88084719857E+01 -0.47113161666E+03  0.47242819811E+03  0.33378231383E+01 0.  0.
         13    1    3    3    0    0 -0.33011112606E+02 -0.90467567246E+01 -0.45806596965E+03  0.45934301988E+03  0.00000000000E+00 0.  1.
          3    1    3    3  501    0 -0.67377891940E+00  0.23828473883E+00 -0.13065647011E+02  0.13085178236E+02  0.00000000000E+00 0.  1.
         -3    1    1    2    0  502  0.33684891526E+02  0.88084719857E+01 -0.52764634452E+03  0.52879384071E+03  0.00000000000E+00 0. -1.
<mgrwt>
<rscale>  1 0.30000000E+03</rscale>
<asrwt>0</asrwt>
<pdfrwt beam="1">  1       21 0.44437869E-02 0.30000000E+03</pdfrwt>
<pdfrwt beam="2">0</pdfrwt>
<totfact> 0.35200734E+04</totfact>
</mgrwt>
</event>
<event>
 6    1  0.1433146E-001  0.3000000E+03  0.7818608E-02  0.1093470E+00
         21   -1    0    0  501  502  0.00000000000E+00  0.00000000000E+00  0.14092328554E+01  0.14092328554E+01  0.00000000000E+00 0. -1.
         13   -1    0    0    0    0 -0.00000000000E+00 -0.00000000000E+00 -0.10000000000E+04  0.10000000000E+04  0.00000000000E+00 0.  1.
    9000005    2    1    2  501    0 -0.36957054013E+02 -0.20645955653E+01 -0.49801021000E+03  0.49946204382E+03  0.88361501594E+01 0.  0.
         13    1    3    3    0    0 -0.24456350856E+02 -0.55970327276E+00 -0.27058003051E+03  0.27168360141E+03  0.00000000000E+00 0.  1.
          1    1    3    3  501    0 -0.12500703157E+02 -0.15048922926E+01 -0.22743017950E+03  0.22777844241E+03  0.00000000000E+00 0.  1.
         -3    1    1    2    0  502  0.36957054013E+02  0.20645955653E+01 -0.50058055714E+03  0.50194718904E+03  0.00000000000E+00 0. -1.
<mgrwt>
<rscale>  1 0.30000000E+03</rscale>
<asrwt>0</asrwt>
<pdfrwt beam="1">  1       21 0.51244939E-02 0.30000000E+03</pdfrwt>
<pdfrwt beam="2">0</pdfrwt>
<totfact> 0.27621235E+04</totfact>
</mgrwt>
</event>
<event>
 6    1  0.8397183E-002  0.3000000E+03  0.7818608E-02  0.1093470E+00
         21   -1    0    0  501  502  0.00000000000E+00  0.00000000000E+00  0.21017911018E+01  0.21017911018E+01  0.00000000000E+00 0. -1.
         13   -1    0    0    0    0 -0.00000000000E+00 -0.00000000000E+00 -0.10000000000E+04  0.10000000000E+04  0.00000000000E+00 0.  1.
    9000005    2    1    2  501    0 -0.14483510686E+02  0.42793176008E+02 -0.41983965427E+03  0.42228050780E+03  0.38031530300E+01 0.  0.
         13    1    3    3    0    0 -0.16635019363E+01  0.97432786852E+01 -0.93885903480E+02  0.94404775253E+02  0.00000000000E+00 0.  1.
          1    1    3    3  501    0 -0.12820008749E+02  0.33049897322E+02 -0.32595375079E+03  0.32787573255E+03  0.00000000000E+00 0.  1.
         -1    1    1    2    0  502  0.14483510686E+02 -0.42793176008E+02 -0.57805855462E+03  0.57982128330E+03  0.00000000000E+00 0. -1.
<mgrwt>
<rscale>  1 0.30000000E+03</rscale>
<asrwt>0</asrwt>
<pdfrwt beam="1">  1       21 0.76428929E-02 0.30000000E+03</pdfrwt>
<pdfrwt beam="2">0</pdfrwt>
<totfact> 0.13839316E+04</totfact>
</mgrwt>
</event>
<event>
 6    1  0.8397183E-002  0.3000000E+03  0.7818608E-02  0.1093470E+00
         21   -1    0    0  501  502  0.00000000000E+00  0.00000000000E+00  0.23257845788E+01  0.23257845788E+01  0.00000000000E+00 0. -1.
         13   -1    0    0    0    0 -0.00000000000E+00 -0.00000000000E+00 -0.10000000000E+04  0.10000000000E+04  0.00000000000E+00 0.  1.
    9000005    2    1    2  501    0 -0.34433135523E+02  0.74759298619E+01 -0.15805420889E+03  0.16196676266E+03  0.32509860311E+01 0.  0.
         13    1    3    3    0    0 -0.13512882609E+02  0.13764674502E+01 -0.58743918709E+02  0.60293786117E+02  0.00000000000E+00 0.  1.
          1    1    3    3  501    0 -0.20920252914E+02  0.60994624118E+01 -0.99310290184E+02  0.10167297655E+03  0.00000000000E+00 0.  1.
         -1    1    1    2    0  502  0.34433135523E+02 -0.74759298619E+01 -0.83962000653E+03  0.84035902191E+03  0.00000000000E+00 0. -1.
<mgrwt>
<rscale>  1 0.30000000E+03</rscale>
<asrwt>0</asrwt>
<pdfrwt beam="1">  1       21 0.84574163E-02 0.30000000E+03</pdfrwt>
<pdfrwt beam="2">0</pdfrwt>
<totfact> 0.11583377E+04</totfact>
</mgrwt>
</event>
<event>
 6    1  0.8397183E-002  0.3000000E+03  0.7818608E-02  0.1093470E+00
         21   -1    0    0  501  502  0.00000000000E+00  0.00000000000E+00  0.73067417181E+01  0.73067417181E+01  0.00000000000E+00 0. -1.
         13   -1    0    0    0    0 -0.00000000000E+00 -0.00000000000E+00 -0.10000000000E+04  0.10000000000E+04  0.00000000000E+00 0.  1.
    9000005    2    1    2  501    0 -0.80188656590E+02 -0.21833881185E+02 -0.37932462773E+03  0.38833338529E+03  0.29505797467E+01 0.  0.
         13    1    3    3    0    0 -0.11534618116E+02 -0.38477760454E+01 -0.59262691486E+02  0.60497267688E+02  0.00000000000E+00 0.  1.
          1    1    3    3  501    0 -0.68654038474E+02 -0.17986105140E+02 -0.32006193624E+03  0.32783611761E+03  0.00000000000E+00 0.  1.
         -1    1    1    2    0  502  0.80188656590E+02  0.21833881185E+02 -0.61336863056E+03  0.61897335642E+03  0.00000000000E+00 0. -1.
<mgrwt>
<rscale>  1 0.30000000E+03</rscale>
<asrwt>0</asrwt>
<pdfrwt beam="1">  1       21 0.26570026E-01 0.30000000E+03</pdfrwt>
<pdfrwt beam="2">0</pdfrwt>
<totfact> 0.13836240E+03</totfact>
</mgrwt>
</event>
<event>
 6    1  0.8397183E-002  0.3000000E+03  0.7818608E-02  0.1093470E+00
         21   -1    0    0  501  502  0.00000000000E+00  0.00000000000E+00  0.13753775396E+01  0.13753775396E+01  0.00000000000E+00 0. -1.
         13   -1    0    0    0    0 -0.00000000000E+00 -0.00000000000E+00 -0.10000000000E+04  0.10000000000E+04  0.00000000000E+00 0.  1.
    9000005    2    1    2  501    0 -0.13705048993E+02  0.33086181404E+02 -0.62498959890E+03  0.62602799897E+03  0.40660784613E+01 0.  0.
         13    1    3    3    0    0 -0.78216080955E+01  0.20611721480E+02 -0.41604349065E+03  0.41662717954E+03  0.00000000000E+00 0.  1.
          3    1    3    3  501    0 -0.58834408971E+01  0.12474459923E+02 -0.20894610825E+03  0.20940081943E+03  0.00000000000E+00 0.  1.
         -1    1    1    2    0  502  0.13705048993E+02 -0.33086181404E+02 -0.37363502356E+03  0.37534737857E+03  0.00000000000E+00 0. -1.
<mgrwt>
<rscale>  1 0.30000000E+03</rscale>
<asrwt>0</asrwt>
<pdfrwt beam="1">  1       21 0.50013834E-02 0.30000000E+03</pdfrwt>
<pdfrwt beam="2">0</pdfrwt>
<totfact> 0.28791074E+04</totfact>
</mgrwt>
</event>
<event>
 6    1  0.8397183E-002  0.3000000E+03  0.7818608E-02  0.1093470E+00
         21   -1    0    0  501  502  0.00000000000E+00  0.00000000000E+00  0.15903000931E+01  0.15903000931E+01  0.00000000000E+00 0. -1.
         13   -1    0    0    0    0 -0.00000000000E+00 -0.00000000000E+00 -0.10000000000E+04  0.10000000000E+04  0.00000000000E+00 0.  1.
    9000005    2    1    2  501    0 -0.29280033003E+02  0.26808851411E+02 -0.46314438126E+03  0.46485480081E+03  0.33515809647E+01 0.  0.
         13    1    3    3    0    0 -0.97280266950E+01  0.85488122427E+01 -0.13354251591E+03  0.13416899884E+03  0.00000000000E+00 0.  1.
          3    1    3    3  501    0 -0.19552006308E+02  0.18260039168E+02 -0.32960186536E+03  0.33068580198E+03  0.00000000000E+00 0.  1.
         -3    1    1    2    0  502  0.29280033003E+02 -0.26808851411E+02 -0.53526531864E+03  0.53673549928E+03  0.00000000000E+00 0. -1.
<mgrwt>
<rscale>  1 0.30000000E+03</rscale>
<asrwt>0</asrwt>
<pdfrwt beam="1">  1       21 0.57829216E-02 0.30000000E+03</pdfrwt>
<pdfrwt beam="2">0</pdfrwt>
<totfact> 0.22453296E+04</totfact>
</mgrwt>
</event>
<event>
 6    1  0.8397183E-002  0.3000000E+03  0.7818608E-02  0.1093470E+00
         21   -1    0    0  501  502  0.00000000000E+00  0.00000000000E+00  0.12105340202E+01  0.12105340202E+01  0.00000000000E+00 0. -1.
         13   -1    0    0    0    0 -0.00000000000E+00 -0.00000000000E+00 -0.10000000000E+04  0.10000000000E+04  0.00000000000E+00 0.  1.
    9000005    2    1    2  501    0 -0.34174346907E+02  0.48283082305E+01 -0.55435916547E+03  0.55544210697E+03  0.32636335012E+01 0.  0.
         13    1    3    3    0    0 -0.14733215729E+02  0.60720220235E+00 -0.24706216635E+03  0.24750181895E+03  0.00000000000E+00 0.  1.
          1    1    3    3  501    0 -0.19441131178E+02  0.42211060282E+01 -0.30729699912E+03  0.30794028802E+03  0.00000000000E+00 0.  1.
         -1    1    1    2    0  502  0.34174346907E+02 -0.48283082305E+01 -0.44443030051E+03  0.44576842705E+03  0.00000000000E+00 0. -1.
<mgrwt>
<rscale>  1 0.30000000E+03</rscale>
<asrwt>0</asrwt>
<pdfrwt beam="1">  1       21 0.44019512E-02 0.30000000E+03</pdfrwt>
<pdfrwt beam="2">0</pdfrwt>
<totfact> 0.35769530E+04</totfact>
</mgrwt>
</event>
<event>
 6    1  0.8397183E-002  0.3000000E+03  0.7818608E-02  0.1093470E+00
         21   -1    0    0  501  502  0.00000000000E+00  0.00000000000E+00  0.20796327523E+01  0.20796327523E+01  0.00000000000E+00 0. -1.
         13   -1    0    0    0    0 -0.00000000000E+00 -0.00000000000E+00 -0.10000000000E+04  0.10000000000E+04  0.00000000000E+00 0.  1.
    9000005    2    1    2  501    0 -0.68494050175E+01  0.43777208769E+02 -0.40671031821E+03  0.40921145141E+03  0.87960602359E+01 0.  0.
         13    1    3    3    0    0 -0.77044058422E+01  0.43628240198E+02 -0.39819235707E+03  0.40064939091E+03  0.00000000000E+00 0.  1.
          3    1    3    3  501    0  0.85500082472E+00  0.14896857041E+00 -0.85179611395E+01  0.85620605008E+01  0.00000000000E+00 0.  1.
         -1    1    1    2    0  502  0.68494050175E+01 -0.43777208769E+02 -0.59121004904E+03  0.59286818134E+03  0.00000000000E+00 0. -1.
<mgrwt>
<rscale>  1 0.30000000E+03</rscale>
<asrwt>0</asrwt>
<pdfrwt beam="1">  1       21 0.75623169E-02 0.30000000E+03</pdfrwt>
<pdfrwt beam="2">0</pdfrwt>
<totfact> 0.14098682E+04</totfact>
</mgrwt>
</event>
<event>
 6    1  0.8397183E-002  0.3000000E+03  0.7818608E-02  0.1093470E+00
         21   -1    0    0  501  502  0.00000000000E+00  0.00000000000E+00  0.17628008592E+02  0.17628008592E+02  0.00000000000E+00 0. -1.
         13   -1    0    0    0    0 -0.00000000000E+00 -0.00000000000E+00 -0.10000000000E+04  0.10000000000E+04  0.00000000000E+00 0.  1.
    9000005    2    1    2  501    0  0.10307111327E+03 -0.63828327518E+02 -0.69853797750E+03  0.70898670022E+03  0.30208094180E+01 0.  0.
         13    1    3    3    0    0  0.91181818315E+02 -0.55408633442E+02 -0.61690175759E+03  0.62606071524E+03  0.00000000000E+00 0.  1.
          3    1    3    3  501    0  0.11889294957E+02 -0.84196940765E+01 -0.81636219914E+02  0.82925984979E+02  0.00000000000E+00 0.  1.
         -1    1    1    2    0  502 -0.10307111327E+03  0.63828327518E+02 -0.28383401391E+03  0.30864130838E+03  0.00000000000E+00 0. -1.
<mgrwt>
<rscale>  1 0.30000000E+03</rscale>
<asrwt>0</asrwt>
<pdfrwt beam="1">  1       21 0.64101985E-01 0.30000000E+03</pdfrwt>
<pdfrwt beam="2">0</pdfrwt>
<totfact> 0.21618862E+02</totfact>
</mgrwt>
</event>
<event>
 6    1  0.8397183E-002  0.3000000E+03  0.7818608E-02  0.1093470E+00
         21   -1    0    0  501  502  0.00000000000E+00  0.00000000000E+00  0.19187407026E+01  0.19187407026E+01  0.00000000000E+00 0. -1.
         13   -1    0    0    0    0 -0.00000000000E+00 -0.00000000000E+00 -0.10000000000E+04  0.10000000000E+04  0.00000000000E+00 0.  1.
    9000005    2    1    2  501    0 -0.36484642913E+02  0.21288096018E+02 -0.36973728045E+03  0.37215650941E+03  0.32401768562E+01 0.  0.
         13    1    3    3    0    0 -0.21699404120E+02  0.11007837004E+02 -0.20607245266E+03  0.20750395745E+03  0.00000000000E+00 0.  1.
          3    1    3    3  501    0 -0.14785238793E+02  0.10280259014E+02 -0.16366482779E+03  0.16465255196E+03  0.00000000000E+00 0.  1.
         -1    1    1    2    0  502  0.36484642913E+02 -0.21288096018E+02 -0.62834397885E+03  0.62976223129E+03  0.00000000000E+00 0. -1.
<mgrwt>
<rscale>  1 0.30000000E+03</rscale>
<asrwt>0</asrwt>
<pdfrwt beam="1">  1       21 0.69772536E-02 0.30000000E+03</pdfrwt>
<pdfrwt beam="2">0</pdfrwt>
<totfact> 0.16226931E+04</totfact>
</mgrwt>
</event>
<event>
 6    1  0.8397183E-002  0.3000000E+03  0.7818608E-02  0.1093470E+00
         21   -1    0    0  501  502  0.00000000000E+00  0.00000000000E+00  0.10845088875E+01  0.10845088875E+01  0.00000000000E+00 0. -1.
         13   -1    0    0    0    0 -0.00000000000E+00 -0.00000000000E+00 -0.10000000000E+04  0.10000000000E+04  0.00000000000E+00 0.  1.
    9000005    2    1    2  501    0  0.12783356559E+02  0.28387604179E+02 -0.66051659631E+03  0.66125649021E+03  0.29498416003E+01 0.  0.
         13    1    3    3    0    0  0.89912143662E+01  0.17059793965E+02 -0.39086280486E+03  0.39133823060E+03  0.00000000000E+00 0.  1.
          3    1    3    3  501    0  0.37921421932E+01  0.11327810214E+02 -0.26965379145E+03  0.26991825961E+03  0.00000000000E+00 0.  1.
         -3    1    1    2    0  502 -0.12783356559E+02 -0.28387604179E+02 -0.33839889480E+03  0.33982801867E+03  0.00000000000E+00 0. -1.
<mgrwt>
<rscale>  1 0.30000000E+03</rscale>
<asrwt>0</asrwt>
<pdfrwt beam="1">  1       21 0.39436770E-02 0.30000000E+03</pdfrwt>
<pdfrwt beam="2">0</pdfrwt>
<totfact> 0.43063179E+04</totfact>
</mgrwt>
</event>
<event>
 6    1  0.8397183E-002  0.3000000E+03  0.7818608E-02  0.1093470E+00
         21   -1    0    0  501  502  0.00000000000E+00  0.00000000000E+00  0.28045985051E+01  0.28045985051E+01  0.00000000000E+00 0. -1.
         13   -1    0    0    0    0 -0.00000000000E+00 -0.00000000000E+00 -0.10000000000E+04  0.10000000000E+04  0.00000000000E+00 0.  1.
    9000005    2    1    2  501    0 -0.50862224340E+02  0.14425073580E+02 -0.50259922082E+03  0.50539085669E+03  0.43465664674E+01 0.  0.
         13    1    3    3    0    0 -0.75991502824E+01  0.13751953616E+01 -0.61482231525E+02  0.61965337412E+02  0.00000000000E+00 0.  1.
          1    1    3    3  501    0 -0.43263074057E+02  0.13049878219E+02 -0.44111698930E+03  0.44342551927E+03  0.00000000000E+00 0.  1.
         -3    1    1    2    0  502  0.50862224340E+02 -0.14425073580E+02 -0.49459618067E+03  0.49741374182E+03  0.00000000000E+00 0. -1.
<mgrwt>
<rscale>  1 0.30000000E+03</rscale>
<asrwt>0</asrwt>
<pdfrwt beam="1">  1       21 0.10198562E-01 0.30000000E+03</pdfrwt>
<pdfrwt beam="2">0</pdfrwt>
<totfact> 0.83060222E+03</totfact>
</mgrwt>
</event>
<event>
 6    1  0.8397183E-002  0.3000000E+03  0.7818608E-02  0.1093470E+00
         21   -1    0    0  501  502  0.00000000000E+00  0.00000000000E+00  0.15859692658E+01  0.15859692658E+01  0.00000000000E+00 0. -1.
         13   -1    0    0    0    0 -0.00000000000E+00 -0.00000000000E+00 -0.10000000000E+04  0.10000000000E+04  0.00000000000E+00 0.  1.
    9000005    2    1    2  501    0  0.37921709201E+02 -0.11687497103E+02 -0.48055720320E+03  0.48221101084E+03  0.41928283466E+01 0.  0.
         13    1    3    3    0    0  0.26694591454E+02 -0.77779040296E+01 -0.31297254799E+03  0.31420520811E+03  0.00000000000E+00 0.  1.
          3    1    3    3  501    0  0.11227117748E+02 -0.39095930735E+01 -0.16758465520E+03  0.16800580273E+03  0.00000000000E+00 0.  1.
         -1    1    1    2    0  502 -0.37921709201E+02  0.11687497103E+02 -0.51785682754E+03  0.51937495843E+03  0.00000000000E+00 0. -1.
<mgrwt>
<rscale>  1 0.30000000E+03</rscale>
<asrwt>0</asrwt>
<pdfrwt beam="1">  1       21 0.57671731E-02 0.30000000E+03</pdfrwt>
<pdfrwt beam="2">0</pdfrwt>
<totfact> 0.22558950E+04</totfact>
</mgrwt>
</event>
<event>
 6    1  0.8397183E-002  0.3000000E+03  0.7818608E-02  0.1093470E+00
         21   -1    0    0  501  502  0.00000000000E+00  0.00000000000E+00  0.99664853144E+00  0.99664853144E+00  0.00000000000E+00 0. -1.
         13   -1    0    0    0    0 -0.00000000000E+00 -0.00000000000E+00 -0.10000000000E+04  0.10000000000E+04  0.00000000000E+00 0.  1.
    9000005    2    1    2  501    0 -0.23077618633E+02  0.20151080125E+02 -0.38904791416E+03  0.39027226060E+03  0.39389554026E+01 0.  0.
         13    1    3    3    0    0 -0.19743391777E+02  0.18881886727E+02 -0.34239215104E+03  0.34348029385E+03  0.00000000000E+00 0.  1.
          3    1    3    3  501    0 -0.33342268554E+01  0.12691933976E+01 -0.46655763121E+02  0.46791966757E+02  0.00000000000E+00 0.  1.
         -3    1    1    2    0  502  0.23077618633E+02 -0.20151080125E+02 -0.60995543731E+03  0.61072438793E+03  0.00000000000E+00 0. -1.
<mgrwt>
<rscale>  1 0.30000000E+03</rscale>
<asrwt>0</asrwt>
<pdfrwt beam="1">  1       21 0.36241841E-02 0.30000000E+03</pdfrwt>
<pdfrwt beam="2">0</pdfrwt>
<totfact> 0.49629880E+04</totfact>
</mgrwt>
</event>
<event>
 6    1  0.8397183E-002  0.3000000E+03  0.7818608E-02  0.1093470E+00
         21   -1    0    0  501  502  0.00000000000E+00  0.00000000000E+00  0.16078819364E+01  0.16078819364E+01  0.00000000000E+00 0. -1.
         13   -1    0    0    0    0 -0.00000000000E+00 -0.00000000000E+00 -0.10000000000E+04  0.10000000000E+04  0.00000000000E+00 0.  1.
    9000005    2    1    2  501    0 -0.36177446313E+02  0.51770572464E+01 -0.70312178355E+03  0.70408447111E+03  0.43692583032E+01 0.  0.
         13    1    3    3    0    0 -0.19892120252E+01 -0.42252597294E+00 -0.54819443249E+02  0.54857149496E+02  0.00000000000E+00 0.  1.
          3    1    3    3  501    0 -0.34188234288E+02  0.55995832193E+01 -0.64830234030E+03  0.64922732162E+03  0.00000000000E+00 0.  1.
         -1    1    1    2    0  502  0.36177446313E+02 -0.51770572464E+01 -0.29527033451E+03  0.29752341082E+03  0.00000000000E+00 0. -1.
<mgrwt>
<rscale>  1 0.30000000E+03</rscale>
<asrwt>0</asrwt>
<pdfrwt beam="1">  1       21 0.58468557E-02 0.30000000E+03</pdfrwt>
<pdfrwt beam="2">0</pdfrwt>
<totfact> 0.22032064E+04</totfact>
</mgrwt>
</event>
<event>
 6    1  0.8397183E-002  0.3000000E+03  0.7818608E-02  0.1093470E+00
         21   -1    0    0  501  502  0.00000000000E+00  0.00000000000E+00  0.10609306338E+01  0.10609306338E+01  0.00000000000E+00 0. -1.
         13   -1    0    0    0    0 -0.00000000000E+00 -0.00000000000E+00 -0.10000000000E+04  0.10000000000E+04  0.00000000000E+00 0.  1.
    9000005    2    1    2  501    0  0.19313764569E+02 -0.24949381528E+02 -0.39128841866E+03  0.39259169851E+03  0.51109704895E+01 0.  0.
         13    1    3    3    0    0  0.87536071235E+01 -0.13777843454E+02 -0.17612740607E+03  0.17688221441E+03  0.00000000000E+00 0.  1.
          1    1    3    3  501    0  0.10560157445E+02 -0.11171538074E+02 -0.21516101260E+03  0.21570948410E+03  0.00000000000E+00 0.  1.
         -1    1    1    2    0  502 -0.19313764569E+02  0.24949381528E+02 -0.60765065070E+03  0.60846923212E+03  0.00000000000E+00 0. -1.
<mgrwt>
<rscale>  1 0.30000000E+03</rscale>
<asrwt>0</asrwt>
<pdfrwt beam="1">  1       21 0.38579377E-02 0.30000000E+03</pdfrwt>
<pdfrwt beam="2">0</pdfrwt>
<totfact> 0.44685109E+04</totfact>
</mgrwt>
</event>
<event>
 6    1  0.8397183E-002  0.3000000E+03  0.7818608E-02  0.1093470E+00
         21   -1    0    0  501  502  0.00000000000E+00  0.00000000000E+00  0.63229141919E+01  0.63229141919E+01  0.00000000000E+00 0. -1.
         13   -1    0    0    0    0 -0.00000000000E+00 -0.00000000000E+00 -0.10000000000E+04  0.10000000000E+04  0.00000000000E+00 0.  1.
    9000005    2    1    2  501    0  0.63803734736E+02  0.34662363446E+02 -0.29246176746E+03  0.30135815004E+03  0.32331355272E+01 0.  0.
         13    1    3    3    0    0  0.57669645889E+02  0.31640866950E+02 -0.26095339068E+03  0.26911634031E+03  0.00000000000E+00 0.  1.
          3    1    3    3  501    0  0.61340888469E+01  0.30214964954E+01 -0.31508376782E+02  0.32241809727E+02  0.00000000000E+00 0.  1.
         -3    1    1    2    0  502 -0.63803734736E+02 -0.34662363446E+02 -0.70121531835E+03  0.70496476415E+03  0.00000000000E+00 0. -1.
<mgrwt>
<rscale>  1 0.30000000E+03</rscale>
<asrwt>0</asrwt>
<pdfrwt beam="1">  1       21 0.22992464E-01 0.30000000E+03</pdfrwt>
<pdfrwt beam="2">0</pdfrwt>
<totfact> 0.18354412E+03</totfact>
</mgrwt>
</event>
<event>
 6    1  0.8397183E-002  0.3000000E+03  0.7818608E-02  0.1093470E+00
         21   -1    0    0  501  502  0.00000000000E+00  0.00000000000E+00  0.19333354988E+01  0.19333354988E+01  0.00000000000E+00 0. -1.
         13   -1    0    0    0    0 -0.00000000000E+00 -0.00000000000E+00 -0.10000000000E+04  0.10000000000E+04  0.00000000000E+00 0.  1.
    9000005    2    1    2  501    0 -0.41897003291E+02 -0.61234459061E+01 -0.36742524646E+03  0.36987206187E+03  0.33428939511E+01 0.  0.
         13    1    3    3    0    0 -0.49628646521E+00  0.27955860991E-01 -0.21539715156E+01  0.22105825196E+01  0.00000000000E+00 0.  1.
          3    1    3    3  501    0 -0.41400716825E+02 -0.61514017671E+01 -0.36527127494E+03  0.36766147935E+03  0.00000000000E+00 0.  1.
         -1    1    1    2    0  502  0.41897003291E+02  0.61234459061E+01 -0.63064141804E+03  0.63206127363E+03  0.00000000000E+00 0. -1.
<mgrwt>
<rscale>  1 0.30000000E+03</rscale>
<asrwt>0</asrwt>
<pdfrwt beam="1">  1       21 0.70303257E-02 0.30000000E+03</pdfrwt>
<pdfrwt beam="2">0</pdfrwt>
<totfact> 0.16014331E+04</totfact>
</mgrwt>
</event>
<event>
 6    1  0.8397183E-002  0.3000000E+03  0.7818608E-02  0.1093470E+00
         21   -1    0    0  501  502  0.00000000000E+00  0.00000000000E+00  0.22480754673E+01  0.22480754673E+01  0.00000000000E+00 0. -1.
         13   -1    0    0    0    0 -0.00000000000E+00 -0.00000000000E+00 -0.10000000000E+04  0.10000000000E+04  0.00000000000E+00 0.  1.
    9000005    2    1    2  501    0  0.66819250630E+01  0.31750582459E+02 -0.86399819564E+03  0.86461520293E+03  0.37174542832E+01 0.  0.
         13    1    3    3    0    0  0.37796181645E+01  0.10253057470E+02 -0.30951906809E+03  0.30971190518E+03  0.00000000000E+00 0.  1.
          3    1    3    3  501    0  0.29023068984E+01  0.21497524990E+02 -0.55447912755E+03  0.55490329775E+03  0.00000000000E+00 0.  1.
         -1    1    1    2    0  502 -0.66819250630E+01 -0.31750582459E+02 -0.13375372889E+03  0.13763287253E+03  0.00000000000E+00 0. -1.
<mgrwt>
<rscale>  1 0.30000000E+03</rscale>
<asrwt>0</asrwt>
<pdfrwt beam="1">  1       21 0.81748371E-02 0.30000000E+03</pdfrwt>
<pdfrwt beam="2">0</pdfrwt>
<totfact> 0.12297600E+04</totfact>
</mgrwt>
</event>
<event>
 6    1  0.8397183E-002  0.3000000E+03  0.7818608E-02  0.1093470E+00
         21   -1    0    0  501  502  0.00000000000E+00  0.00000000000E+00  0.11631806042E+01  0.11631806042E+01  0.00000000000E+00 0. -1.
         13   -1    0    0    0    0 -0.00000000000E+00 -0.00000000000E+00 -0.10000000000E+04  0.10000000000E+04  0.00000000000E+00 0.  1.
    9000005    2    1    2  501    0 -0.12212893854E+02 -0.29605903253E+02 -0.67002310673E+03  0.67079350597E+03  0.27018160255E+01 0.  0.
         13    1    3    3    0    0 -0.73589764957E+01 -0.15973448257E+02 -0.39122208831E+03  0.39161719570E+03  0.00000000000E+00 0.  1.
          1    1    3    3  501    0 -0.48539173586E+01 -0.13632454996E+02 -0.27880101842E+03  0.27917631027E+03  0.00000000000E+00 0.  1.
         -1    1    1    2    0  502  0.12212893854E+02  0.29605903253E+02 -0.32881371266E+03  0.33036967464E+03  0.00000000000E+00 0. -1.
<mgrwt>
<rscale>  1 0.30000000E+03</rscale>
<asrwt>0</asrwt>
<pdfrwt beam="1">  1       21 0.42297566E-02 0.30000000E+03</pdfrwt>
<pdfrwt beam="2">0</pdfrwt>
<totfact> 0.38267416E+04</totfact>
</mgrwt>
</event>
<event>
 6    1  0.8465863E-002  0.3000000E+03  0.7818608E-02  0.1093470E+00
         21   -1    0    0  501  502  0.00000000000E+00  0.00000000000E+00  0.15222734711E+01  0.15222734711E+01  0.00000000000E+00 0. -1.
         13   -1    0    0    0    0 -0.00000000000E+00 -0.00000000000E+00 -0.10000000000E+04  0.10000000000E+04  0.00000000000E+00 0.  1.
    9000005    2    1    2  501    0  0.29787642776E+02 -0.10832454038E+02 -0.78822601417E+03  0.78889483339E+03  0.70825859253E+01 0.  0.
         13    1    3    3    0    0  0.27002253368E+02 -0.90369715784E+01 -0.64182498730E+03  0.64245630425E+03  0.00000000000E+00 0.  1.
          1    1    3    3  501    0  0.27853894084E+01 -0.17954824593E+01 -0.14640102686E+03  0.14643852915E+03  0.00000000000E+00 0.  1.
         -1    1    1    2    0  502 -0.29787642776E+02  0.10832454038E+02 -0.21025171236E+03  0.21262744008E+03  0.00000000000E+00 0. -1.
<mgrwt>
<rscale>  1 0.30000000E+03</rscale>
<asrwt>0</asrwt>
<pdfrwt beam="1">  1       21 0.55355516E-02 0.30000000E+03</pdfrwt>
<pdfrwt beam="2">0</pdfrwt>
<totfact> 0.24205186E+04</totfact>
</mgrwt>
</event>
<event>
 6    1  0.8397183E-002  0.3000000E+03  0.7818608E-02  0.1093470E+00
         21   -1    0    0  501  502  0.00000000000E+00  0.00000000000E+00  0.42706576289E+01  0.42706576289E+01  0.00000000000E+00 0. -1.
         13   -1    0    0    0    0 -0.00000000000E+00 -0.00000000000E+00 -0.10000000000E+04  0.10000000000E+04  0.00000000000E+00 0.  1.
    9000005    2    1    2  501    0 -0.45753567466E+01 -0.65068652831E+02 -0.52380660141E+03  0.52786123611E+03  0.30439188192E+01 0.  0.
         13    1    3    3    0    0 -0.19934849872E+01 -0.21999889877E+02 -0.18861065455E+03  0.18989983714E+03  0.00000000000E+00 0.  1.
          3    1    3    3  501    0 -0.25818717594E+01 -0.43068762954E+02 -0.33519594686E+03  0.33796139897E+03  0.00000000000E+00 0.  1.
         -1    1    1    2    0  502  0.45753567466E+01  0.65068652831E+02 -0.47192274096E+03  0.47640942152E+03  0.00000000000E+00 0. -1.
<mgrwt>
<rscale>  1 0.30000000E+03</rscale>
<asrwt>0</asrwt>
<pdfrwt beam="1">  1       21 0.15529697E-01 0.30000000E+03</pdfrwt>
<pdfrwt beam="2">0</pdfrwt>
<totfact> 0.38613011E+03</totfact>
</mgrwt>
</event>
<event>
 6    1  0.8397183E-002  0.3000000E+03  0.7818608E-02  0.1093470E+00
         21   -1    0    0  501  502  0.00000000000E+00  0.00000000000E+00  0.14242578387E+01  0.14242578387E+01  0.00000000000E+00 0. -1.
         13   -1    0    0    0    0 -0.00000000000E+00 -0.00000000000E+00 -0.10000000000E+04  0.10000000000E+04  0.00000000000E+00 0.  1.
    9000005    2    1    2  501    0  0.15938059458E+01  0.35852281245E+02 -0.34975203434E+03  0.35160879933E+03  0.37862847614E+01 0.  0.
         13    1    3    3    0    0  0.16903366926E+01  0.33504882040E+02 -0.31621051290E+03  0.31798509844E+03  0.00000000000E+00 0.  1.
          1    1    3    3  501    0 -0.96530746784E-01  0.23473992050E+01 -0.33541521437E+02  0.33623700889E+02  0.00000000000E+00 0.  1.
         -3    1    1    2    0  502 -0.15938059458E+01 -0.35852281245E+02 -0.64882370782E+03  0.64981545851E+03  0.00000000000E+00 0. -1.
<mgrwt>
<rscale>  1 0.30000000E+03</rscale>
<asrwt>0</asrwt>
<pdfrwt beam="1">  1       21 0.51791303E-02 0.30000000E+03</pdfrwt>
<pdfrwt beam="2">0</pdfrwt>
<totfact> 0.27125576E+04</totfact>
</mgrwt>
</event>
<event>
 6    1  0.8397183E-002  0.3000000E+03  0.7818608E-02  0.1093470E+00
         21   -1    0    0  501  502  0.00000000000E+00  0.00000000000E+00  0.14173924332E+01  0.14173924332E+01  0.00000000000E+00 0. -1.
         13   -1    0    0    0    0 -0.00000000000E+00 -0.00000000000E+00 -0.10000000000E+04  0.10000000000E+04  0.00000000000E+00 0.  1.
    9000005    2    1    2  501    0  0.15831999566E+01 -0.34232224242E+02 -0.69943829495E+03  0.70031662613E+03  0.74227144586E+01 0.  0.
         13    1    3    3    0    0  0.18870711630E+01 -0.17124243716E+02 -0.28003149402E+03  0.28056093528E+03  0.00000000000E+00 0.  1.
          1    1    3    3  501    0 -0.30387120638E+00 -0.17107980526E+02 -0.41940680093E+03  0.41975569085E+03  0.00000000000E+00 0.  1.
         -1    1    1    2    0  502 -0.15831999566E+01  0.34232224242E+02 -0.29914431262E+03  0.30110076631E+03  0.00000000000E+00 0. -1.
<mgrwt>
<rscale>  1 0.30000000E+03</rscale>
<asrwt>0</asrwt>
<pdfrwt beam="1">  1       21 0.51541652E-02 0.30000000E+03</pdfrwt>
<pdfrwt beam="2">0</pdfrwt>
<totfact> 0.27350331E+04</totfact>
</mgrwt>
</event>
<event>
 6    1  0.8397183E-002  0.3000000E+03  0.7818608E-02  0.1093470E+00
         21   -1    0    0  501  502  0.00000000000E+00  0.00000000000E+00  0.33037757123E+01  0.33037757123E+01  0.00000000000E+00 0. -1.
         13   -1    0    0    0    0 -0.00000000000E+00 -0.00000000000E+00 -0.10000000000E+04  0.10000000000E+04  0.00000000000E+00 0.  1.
    9000005    2    1    2  501    0 -0.22747869779E+02  0.49710771578E+02 -0.34595162700E+03  0.35026690287E+03  0.39684547215E+01 0.  0.
         13    1    3    3    0    0 -0.42435046313E+01  0.88210363221E+01 -0.72180661606E+02  0.72841375078E+02  0.00000000000E+00 0.  1.
          1    1    3    3  501    0 -0.18504365148E+02  0.40889735256E+02 -0.27377096539E+03  0.27742552779E+03  0.00000000000E+00 0.  1.
         -3    1    1    2    0  502  0.22747869779E+02 -0.49710771578E+02 -0.65074459729E+03  0.65303687284E+03  0.00000000000E+00 0. -1.
<mgrwt>
<rscale>  1 0.30000000E+03</rscale>
<asrwt>0</asrwt>
<pdfrwt beam="1">  1       21 0.12013755E-01 0.30000000E+03</pdfrwt>
<pdfrwt beam="2">0</pdfrwt>
<totfact> 0.61842474E+03</totfact>
</mgrwt>
</event>
<event>
 6    1  0.8397183E-002  0.3000000E+03  0.7818608E-02  0.1093470E+00
         21   -1    0    0  501  502  0.00000000000E+00  0.00000000000E+00  0.10582492969E+01  0.10582492969E+01  0.00000000000E+00 0. -1.
         13   -1    0    0    0    0 -0.00000000000E+00 -0.00000000000E+00 -0.10000000000E+04  0.10000000000E+04  0.00000000000E+00 0.  1.
    9000005    2    1    2  501    0 -0.10852086860E-01 -0.32375523090E+02 -0.46644635904E+03  0.46757955548E+03  0.32031592048E+01 0.  0.
         13    1    3    3    0    0 -0.62240945756E+00 -0.12749094080E+01 -0.22606132343E+02  0.22650607212E+02  0.00000000000E+00 0.  1.
          3    1    3    3  501    0  0.61155737070E+00 -0.31100613682E+02 -0.44384022670E+03  0.44492894827E+03  0.00000000000E+00 0.  1.
         -3    1    1    2    0  502  0.10852086860E-01  0.32375523090E+02 -0.53249539166E+03  0.53347869382E+03  0.00000000000E+00 0. -1.
<mgrwt>
<rscale>  1 0.30000000E+03</rscale>
<asrwt>0</asrwt>
<pdfrwt beam="1">  1       21 0.38481874E-02 0.30000000E+03</pdfrwt>
<pdfrwt beam="2">0</pdfrwt>
<totfact> 0.44875609E+04</totfact>
</mgrwt>
</event>
<event>
 6    1  0.8397183E-002  0.3000000E+03  0.7818608E-02  0.1093470E+00
         21   -1    0    0  501  502  0.00000000000E+00  0.00000000000E+00  0.14080483384E+01  0.14080483384E+01  0.00000000000E+00 0. -1.
         13   -1    0    0    0    0 -0.00000000000E+00 -0.00000000000E+00 -0.10000000000E+04  0.10000000000E+04  0.00000000000E+00 0.  1.
    9000005    2    1    2  501    0 -0.32379348272E+02  0.17284358244E+02 -0.59986955887E+03  0.60099985942E+03  0.31893787887E+01 0.  0.
         13    1    3    3    0    0 -0.22634642295E+02  0.12815524664E+02 -0.40285718893E+03  0.40369602349E+03  0.00000000000E+00 0.  1.
          3    1    3    3  501    0 -0.97447059776E+01  0.44688335805E+01 -0.19701236993E+03  0.19730383593E+03  0.00000000000E+00 0.  1.
         -3    1    1    2    0  502  0.32379348272E+02 -0.17284358244E+02 -0.39872239280E+03  0.40040818892E+03  0.00000000000E+00 0. -1.
<mgrwt>
<rscale>  1 0.30000000E+03</rscale>
<asrwt>0</asrwt>
<pdfrwt beam="1">  1       21 0.51201866E-02 0.30000000E+03</pdfrwt>
<pdfrwt beam="2">0</pdfrwt>
<totfact> 0.27660908E+04</totfact>
</mgrwt>
</event>
<event>
 6    1  0.8397183E-002  0.3000000E+03  0.7818608E-02  0.1093470E+00
         21   -1    0    0  501  502  0.00000000000E+00  0.00000000000E+00  0.10757472407E+01  0.10757472407E+01  0.00000000000E+00 0. -1.
         13   -1    0    0    0    0 -0.00000000000E+00 -0.00000000000E+00 -0.10000000000E+04  0.10000000000E+04  0.00000000000E+00 0.  1.
    9000005    2    1    2  501    0  0.77642109351E-01 -0.30943545245E+02 -0.66254172530E+03  0.66327297372E+03  0.34627848189E+01 0.  0.
         13    1    3    3    0    0  0.18179272687E+00 -0.29627462806E+02 -0.64579794392E+03  0.64647722618E+03  0.00000000000E+00 0.  1.
          1    1    3    3  501    0 -0.10415061752E+00 -0.13160824396E+01 -0.16743781385E+02  0.16795747540E+02  0.00000000000E+00 0.  1.
         -1    1    1    2    0  502 -0.77642109351E-01  0.30943545245E+02 -0.33638252746E+03  0.33780277352E+03  0.00000000000E+00 0. -1.
<mgrwt>
<rscale>  1 0.30000000E+03</rscale>
<asrwt>0</asrwt>
<pdfrwt beam="1">  1       21 0.39118164E-02 0.30000000E+03</pdfrwt>
<pdfrwt beam="2">0</pdfrwt>
<totfact> 0.43654949E+04</totfact>
</mgrwt>
</event>
<event>
 6    1  0.8397183E-002  0.3000000E+03  0.7818608E-02  0.1093470E+00
         21   -1    0    0  501  502  0.00000000000E+00  0.00000000000E+00  0.32225058512E+01  0.32225058512E+01  0.00000000000E+00 0. -1.
         13   -1    0    0    0    0 -0.00000000000E+00 -0.00000000000E+00 -0.10000000000E+04  0.10000000000E+04  0.00000000000E+00 0.  1.
    9000005    2    1    2  501    0  0.46007471335E+02  0.33041653196E+02 -0.52039037602E+03  0.52347973667E+03  0.40562276886E+01 0.  0.
         13    1    3    3    0    0  0.38281175795E+02  0.28829571463E+02 -0.43013461115E+03  0.43279599850E+03  0.00000000000E+00 0.  1.
          3    1    3    3  501    0  0.77262955403E+01  0.42120817329E+01 -0.90255764877E+02  0.90683738172E+02  0.00000000000E+00 0.  1.
         -1    1    1    2    0  502 -0.46007471335E+02 -0.33041653196E+02 -0.47638711812E+03  0.47974276918E+03  0.00000000000E+00 0. -1.
<mgrwt>
<rscale>  1 0.30000000E+03</rscale>
<asrwt>0</asrwt>
<pdfrwt beam="1">  1       21 0.11718228E-01 0.30000000E+03</pdfrwt>
<pdfrwt beam="2">0</pdfrwt>
<totfact> 0.64698385E+03</totfact>
</mgrwt>
</event>
<event>
 6    1  0.8397183E-002  0.3000000E+03  0.7818608E-02  0.1093470E+00
         21   -1    0    0  501  502  0.00000000000E+00  0.00000000000E+00  0.38448446562E+01  0.38448446562E+01  0.00000000000E+00 0. -1.
         13   -1    0    0    0    0 -0.00000000000E+00 -0.00000000000E+00 -0.10000000000E+04  0.10000000000E+04  0.00000000000E+00 0.  1.
    9000005    2    1    2  501    0  0.11001018862E+02 -0.58936896854E+02 -0.62515061539E+03  0.62802713766E+03  0.31958544947E+01 0.  0.
         13    1    3    3    0    0  0.34234308443E+01 -0.22646700916E+02 -0.25287007773E+03  0.25390523656E+03  0.00000000000E+00 0.  1.
          1    1    3    3  501    0  0.75775880180E+01 -0.36290195939E+02 -0.37228053767E+03  0.37412190111E+03  0.00000000000E+00 0.  1.
         -3    1    1    2    0  502 -0.11001018862E+02  0.58936896854E+02 -0.37100453995E+03  0.37581770699E+03  0.00000000000E+00 0. -1.
<mgrwt>
<rscale>  1 0.30000000E+03</rscale>
<asrwt>0</asrwt>
<pdfrwt beam="1">  1       21 0.13981283E-01 0.30000000E+03</pdfrwt>
<pdfrwt beam="2">0</pdfrwt>
<totfact> 0.46881859E+03</totfact>
</mgrwt>
</event>
<event>
 6    1  0.8397183E-002  0.3000000E+03  0.7818608E-02  0.1093470E+00
         21   -1    0    0  501  502  0.00000000000E+00  0.00000000000E+00  0.99101492370E+00  0.99101492370E+00  0.00000000000E+00 0. -1.
         13   -1    0    0    0    0 -0.00000000000E+00 -0.00000000000E+00 -0.10000000000E+04  0.10000000000E+04  0.00000000000E+00 0.  1.
    9000005    2    1    2  501    0 -0.25341654656E+02 -0.18126220243E+02 -0.54965606192E+03  0.55055921224E+03  0.47854419308E+01 0.  0.
         13    1    3    3    0    0 -0.11265121637E+02 -0.71750743010E+01 -0.19677205456E+03  0.19722481110E+03  0.00000000000E+00 0.  1.
          3    1    3    3  501    0 -0.14076533019E+02 -0.10951145942E+02 -0.35288400736E+03  0.35333440114E+03  0.00000000000E+00 0.  1.
         -3    1    1    2    0  502  0.25341654656E+02  0.18126220243E+02 -0.44935292316E+03  0.45043180269E+03  0.00000000000E+00 0. -1.
<mgrwt>
<rscale>  1 0.30000000E+03</rscale>
<asrwt>0</asrwt>
<pdfrwt beam="1">  1       21 0.36036982E-02 0.30000000E+03</pdfrwt>
<pdfrwt beam="2">0</pdfrwt>
<totfact> 0.50103965E+04</totfact>
</mgrwt>
</event>
<event>
 6    1  0.8397183E-002  0.3000000E+03  0.7818608E-02  0.1093470E+00
         21   -1    0    0  501  502  0.00000000000E+00  0.00000000000E+00  0.26091072289E+01  0.26091072289E+01  0.00000000000E+00 0. -1.
         13   -1    0    0    0    0 -0.00000000000E+00 -0.00000000000E+00 -0.10000000000E+04  0.10000000000E+04  0.00000000000E+00 0.  1.
    9000005    2    1    2  501    0  0.37529764786E+02 -0.25689793167E+02 -0.27228025001E+03  0.27607356580E+03  0.34103472881E+01 0.  0.
         13    1    3    3    0    0  0.17940953036E+02 -0.10226626622E+02 -0.12274741706E+03  0.12447244708E+03  0.00000000000E+00 0.  1.
          1    1    3    3  501    0  0.19588811749E+02 -0.15463166545E+02 -0.14953283295E+03  0.15160111872E+03  0.00000000000E+00 0.  1.
         -3    1    1    2    0  502 -0.37529764786E+02  0.25689793167E+02 -0.72511064276E+03  0.72653554143E+03  0.00000000000E+00 0. -1.
<mgrwt>
<rscale>  1 0.30000000E+03</rscale>
<asrwt>0</asrwt>
<pdfrwt beam="1">  1       21 0.94876827E-02 0.30000000E+03</pdfrwt>
<pdfrwt beam="2">0</pdfrwt>
<totfact> 0.94495363E+03</totfact>
</mgrwt>
</event>
<event>
 6    1  0.8397183E-002  0.3000000E+03  0.7818608E-02  0.1093470E+00
         21   -1    0    0  501  502  0.00000000000E+00  0.00000000000E+00  0.16963285979E+01  0.16963285979E+01  0.00000000000E+00 0. -1.
         13   -1    0    0    0    0 -0.00000000000E+00 -0.00000000000E+00 -0.10000000000E+04  0.10000000000E+04  0.00000000000E+00 0.  1.
    9000005    2    1    2  501    0 -0.40785703164E+02  0.33072126405E+01 -0.44689416990E+03  0.44877061063E+03  0.25001281928E+01 0.  0.
         13    1    3    3    0    0 -0.40232829900E+02  0.31603071633E+01 -0.44303329895E+03  0.44486758942E+03  0.00000000000E+00 0.  1.
          3    1    3    3  501    0 -0.55287326339E+00  0.14690547713E+00 -0.38608709498E+01  0.39030212087E+01  0.00000000000E+00 0.  1.
         -3    1    1    2    0  502  0.40785703164E+02 -0.33072126405E+01 -0.55140950150E+03  0.55292571797E+03  0.00000000000E+00 0. -1.
<mgrwt>
<rscale>  1 0.30000000E+03</rscale>
<asrwt>0</asrwt>
<pdfrwt beam="1">  1       21 0.61684806E-02 0.30000000E+03</pdfrwt>
<pdfrwt beam="2">0</pdfrwt>
<totfact> 0.20088372E+04</totfact>
</mgrwt>
</event>
<event>
 6    1  0.8397183E-002  0.3000000E+03  0.7818608E-02  0.1093470E+00
         21   -1    0    0  501  502  0.00000000000E+00  0.00000000000E+00  0.16524277494E+01  0.16524277494E+01  0.00000000000E+00 0. -1.
         13   -1    0    0    0    0 -0.00000000000E+00 -0.00000000000E+00 -0.10000000000E+04  0.10000000000E+04  0.00000000000E+00 0.  1.
    9000005    2    1    2  501    0 -0.31437323782E+02 -0.23695539505E+02 -0.62058711730E+03  0.62184623343E+03  0.38188942316E+01 0.  0.
         13    1    3    3    0    0 -0.83161761311E+00 -0.14142168459E+01 -0.33103681120E+02  0.33144310233E+02  0.00000000000E+00 0.  1.
          1    1    3    3  501    0 -0.30605706169E+02 -0.22281322659E+02 -0.58748343618E+03  0.58870192319E+03  0.00000000000E+00 0.  1.
         -1    1    1    2    0  502  0.31437323782E+02  0.23695539505E+02 -0.37776045496E+03  0.37980619432E+03  0.00000000000E+00 0. -1.
<mgrwt>
<rscale>  1 0.30000000E+03</rscale>
<asrwt>0</asrwt>
<pdfrwt beam="1">  1       21 0.60088409E-02 0.30000000E+03</pdfrwt>
<pdfrwt beam="2">0</pdfrwt>
<totfact> 0.21018223E+04</totfact>
</mgrwt>
</event>
<event>
 6    1  0.8397183E-002  0.3000000E+03  0.7818608E-02  0.1093470E+00
         21   -1    0    0  501  502  0.00000000000E+00  0.00000000000E+00  0.98850858076E+00  0.98850858076E+00  0.00000000000E+00 0. -1.
         13   -1    0    0    0    0 -0.00000000000E+00 -0.00000000000E+00 -0.10000000000E+04  0.10000000000E+04  0.00000000000E+00 0.  1.
    9000005    2    1    2  501    0 -0.24774467818E+02 -0.18739889744E+02 -0.44767043076E+03  0.44877304077E+03  0.48445659978E+01 0.  0.
         13    1    3    3    0    0 -0.54627562151E+01 -0.38721702248E+01 -0.71036911535E+02  0.71351791905E+02  0.00000000000E+00 0.  1.
          3    1    3    3  501    0 -0.19311711603E+02 -0.14867719519E+02 -0.37663351922E+03  0.37742124886E+03  0.00000000000E+00 0.  1.
         -1    1    1    2    0  502  0.24774467818E+02  0.18739889744E+02 -0.55134106066E+03  0.55221546782E+03  0.00000000000E+00 0. -1.
<mgrwt>
<rscale>  1 0.30000000E+03</rscale>
<asrwt>0</asrwt>
<pdfrwt beam="1">  1       21 0.35945842E-02 0.30000000E+03</pdfrwt>
<pdfrwt beam="2">0</pdfrwt>
<totfact> 0.50317183E+04</totfact>
</mgrwt>
</event>
<event>
 6    1  0.8397183E-002  0.3000000E+03  0.7818608E-02  0.1093470E+00
         21   -1    0    0  501  502  0.00000000000E+00  0.00000000000E+00  0.24146128931E+01  0.24146128931E+01  0.00000000000E+00 0. -1.
         13   -1    0    0    0    0 -0.00000000000E+00 -0.00000000000E+00 -0.10000000000E+04  0.10000000000E+04  0.00000000000E+00 0.  1.
    9000005    2    1    2  501    0 -0.13846422060E+02  0.37338717154E+02 -0.79201569187E+03  0.79302310686E+03  0.32997923161E+01 0.  0.
         13    1    3    3    0    0 -0.10889344906E+02  0.32105937509E+02 -0.65832448141E+03  0.65919685367E+03  0.00000000000E+00 0.  1.
          1    1    3    3  501    0 -0.29570771537E+01  0.52327796452E+01 -0.13369121046E+03  0.13382625319E+03  0.00000000000E+00 0.  1.
         -1    1    1    2    0  502  0.13846422060E+02 -0.37338717154E+02 -0.20556969523E+03  0.20939150604E+03  0.00000000000E+00 0. -1.
<mgrwt>
<rscale>  1 0.30000000E+03</rscale>
<asrwt>0</asrwt>
<pdfrwt beam="1">  1       21 0.87804290E-02 0.30000000E+03</pdfrwt>
<pdfrwt beam="2">0</pdfrwt>
<totfact> 0.10841786E+04</totfact>
</mgrwt>
</event>
<event>
 6    1  0.8397183E-002  0.3000000E+03  0.7818608E-02  0.1093470E+00
         21   -1    0    0  501  502  0.00000000000E+00  0.00000000000E+00  0.15259499976E+01  0.15259499976E+01  0.00000000000E+00 0. -1.
         13   -1    0    0    0    0 -0.00000000000E+00 -0.00000000000E+00 -0.10000000000E+04  0.10000000000E+04  0.00000000000E+00 0.  1.
    9000005    2    1    2  501    0  0.21968921259E+02  0.30936196833E+02 -0.38374206863E+03  0.38562409848E+03  0.28789441445E+01 0.  0.
         13    1    3    3    0    0  0.49095604099E+01  0.78765601720E+01 -0.83058789967E+02  0.83575753508E+02  0.00000000000E+00 0.  1.
          1    1    3    3  501    0  0.17059360849E+02  0.23059636661E+02 -0.30068327866E+03  0.30204834497E+03  0.00000000000E+00 0.  1.
         -1    1    1    2    0  502 -0.21968921259E+02 -0.30936196833E+02 -0.61473198137E+03  0.61590185151E+03  0.00000000000E+00 0. -1.
<mgrwt>
<rscale>  1 0.30000000E+03</rscale>
<asrwt>0</asrwt>
<pdfrwt beam="1">  1       21 0.55489208E-02 0.30000000E+03</pdfrwt>
<pdfrwt beam="2">0</pdfrwt>
<totfact> 0.24105218E+04</totfact>
</mgrwt>
</event>
<event>
 6    1  0.8397183E-002  0.3000000E+03  0.7818608E-02  0.1093470E+00
         21   -1    0    0  501  502  0.00000000000E+00  0.00000000000E+00  0.24793567785E+01  0.24793567785E+01  0.00000000000E+00 0. -1.
         13   -1    0    0    0    0 -0.00000000000E+00 -0.00000000000E+00 -0.10000000000E+04  0.10000000000E+04  0.00000000000E+00 0.  1.
    9000005    2    1    2  501    0  0.20649457528E+01 -0.48978257056E+02 -0.41451805269E+03  0.41741939897E+03  0.32565264981E+01 0.  0.
         13    1    3    3    0    0  0.13788641464E+01 -0.74240491533E+01 -0.59663530778E+02  0.60139460232E+02  0.00000000000E+00 0.  1.
          3    1    3    3  501    0  0.68608160636E+00 -0.41554207903E+02 -0.35485452191E+03  0.35727993874E+03  0.00000000000E+00 0.  1.
         -1    1    1    2    0  502 -0.20649457528E+01  0.48978257056E+02 -0.58300259053E+03  0.58505995781E+03  0.00000000000E+00 0. -1.
<mgrwt>
<rscale>  1 0.30000000E+03</rscale>
<asrwt>0</asrwt>
<pdfrwt beam="1">  1       21 0.90158618E-02 0.30000000E+03</pdfrwt>
<pdfrwt beam="2">0</pdfrwt>
<totfact> 0.10345761E+04</totfact>
</mgrwt>
</event>
<event>
 6    1  0.8397183E-002  0.3000000E+03  0.7818608E-02  0.1093470E+00
         21   -1    0    0  501  502  0.00000000000E+00  0.00000000000E+00  0.10911890219E+01  0.10911890219E+01  0.00000000000E+00 0. -1.
         13   -1    0    0    0    0 -0.00000000000E+00 -0.00000000000E+00 -0.10000000000E+04  0.10000000000E+04  0.00000000000E+00 0.  1.
    9000005    2    1    2  501    0  0.29625322408E+02 -0.53970576788E+01 -0.70390007577E+03  0.70454955314E+03  0.28228015664E+01 0.  0.
         13    1    3    3    0    0  0.85656284713E+01 -0.31186275980E+00 -0.20723734163E+03  0.20741451978E+03  0.00000000000E+00 0.  1.
          3    1    3    3  501    0  0.21059693937E+02 -0.50851949190E+01 -0.49666273413E+03  0.49713503336E+03  0.00000000000E+00 0.  1.
         -1    1    1    2    0  502 -0.29625322408E+02  0.53970576788E+01 -0.29500873521E+03  0.29654163588E+03  0.00000000000E+00 0. -1.
<mgrwt>
<rscale>  1 0.30000000E+03</rscale>
<asrwt>0</asrwt>
<pdfrwt beam="1">  1       21 0.39679684E-02 0.30000000E+03</pdfrwt>
<pdfrwt beam="2">0</pdfrwt>
<totfact> 0.42620393E+04</totfact>
</mgrwt>
</event>
<event>
 6    1  0.8397183E-002  0.3000000E+03  0.7818608E-02  0.1093470E+00
         21   -1    0    0  501  502  0.00000000000E+00  0.00000000000E+00  0.23829437540E+01  0.23829437540E+01  0.00000000000E+00 0. -1.
         13   -1    0    0    0    0 -0.00000000000E+00 -0.00000000000E+00 -0.10000000000E+04  0.10000000000E+04  0.00000000000E+00 0.  1.
    9000005    2    1    2  501    0 -0.38652214050E+01  0.42323258761E+02 -0.74488150480E+03  0.74609900525E+03  0.30118563251E+01 0.  0.
         13    1    3    3    0    0 -0.18840137874E+01  0.15486752546E+02 -0.24973858049E+03  0.25022539359E+03  0.00000000000E+00 0.  1.
          3    1    3    3  501    0 -0.19812076176E+01  0.26836506215E+02 -0.49514292431E+03  0.49587361166E+03  0.00000000000E+00 0.  1.
         -1    1    1    2    0  502  0.38652214050E+01 -0.42323258761E+02 -0.25273555145E+03  0.25628393850E+03  0.00000000000E+00 0. -1.
<mgrwt>
<rscale>  1 0.30000000E+03</rscale>
<asrwt>0</asrwt>
<pdfrwt beam="1">  1       21 0.86652683E-02 0.30000000E+03</pdfrwt>
<pdfrwt beam="2">0</pdfrwt>
<totfact> 0.11097668E+04</totfact>
</mgrwt>
</event>
<event>
 6    1  0.8397183E-002  0.3000000E+03  0.7818608E-02  0.1093470E+00
         21   -1    0    0  501  502  0.00000000000E+00  0.00000000000E+00  0.25997466073E+01  0.25997466073E+01  0.00000000000E+00 0. -1.
         13   -1    0    0    0    0 -0.00000000000E+00 -0.00000000000E+00 -0.10000000000E+04  0.10000000000E+04  0.00000000000E+00 0.  1.
    9000005    2    1    2  501    0 -0.50373551905E+02 -0.14108478855E+01 -0.57197895458E+03  0.57420417391E+03  0.33201851908E+01 0.  0.
         13    1    3    3    0    0 -0.14797464656E+02 -0.17428349918E+01 -0.17722206445E+03  0.17784730125E+03  0.00000000000E+00 0.  1.
          1    1    3    3  501    0 -0.35576087249E+02  0.33198710632E+00 -0.39475689014E+03  0.39635687267E+03  0.00000000000E+00 0.  1.
         -3    1    1    2    0  502  0.50373551905E+02  0.14108478855E+01 -0.42542129881E+03  0.42839557269E+03  0.00000000000E+00 0. -1.
<mgrwt>
<rscale>  1 0.30000000E+03</rscale>
<asrwt>0</asrwt>
<pdfrwt beam="1">  1       21 0.94536440E-02 0.30000000E+03</pdfrwt>
<pdfrwt beam="2">0</pdfrwt>
<totfact> 0.95102096E+03</totfact>
</mgrwt>
</event>
<event>
 6    1  0.8397183E-002  0.3000000E+03  0.7818608E-02  0.1093470E+00
         21   -1    0    0  501  502  0.00000000000E+00  0.00000000000E+00  0.20134789695E+01  0.20134789695E+01  0.00000000000E+00 0. -1.
         13   -1    0    0    0    0 -0.00000000000E+00 -0.00000000000E+00 -0.10000000000E+04  0.10000000000E+04  0.00000000000E+00 0.  1.
    9000005    2    1    2  501    0 -0.20530273790E+02 -0.37995491467E+02 -0.39012728274E+03  0.39262197666E+03  0.93579005882E+01 0.  0.
         13    1    3    3    0    0 -0.70262060162E+01 -0.59739560843E+01 -0.98683422598E+02  0.99113438130E+02  0.00000000000E+00 0.  1.
          1    1    3    3  501    0 -0.13504067774E+02 -0.32021535383E+02 -0.29144386014E+03  0.29350853853E+03  0.00000000000E+00 0.  1.
         -3    1    1    2    0  502  0.20530273790E+02  0.37995491467E+02 -0.60785923829E+03  0.60939150231E+03  0.00000000000E+00 0. -1.
<mgrwt>
<rscale>  1 0.30000000E+03</rscale>
<asrwt>0</asrwt>
<pdfrwt beam="1">  1       21 0.73217571E-02 0.30000000E+03</pdfrwt>
<pdfrwt beam="2">0</pdfrwt>
<totfact> 0.14919163E+04</totfact>
</mgrwt>
</event>
<event>
 6    1  0.8397183E-002  0.3000000E+03  0.7818608E-02  0.1093470E+00
         21   -1    0    0  501  502  0.00000000000E+00  0.00000000000E+00  0.20730237275E+01  0.20730237275E+01  0.00000000000E+00 0. -1.
         13   -1    0    0    0    0 -0.00000000000E+00 -0.00000000000E+00 -0.10000000000E+04  0.10000000000E+04  0.00000000000E+00 0.  1.
    9000005    2    1    2  501    0  0.41459770139E+02  0.49880500310E+01 -0.30215146168E+03  0.30504550642E+03  0.36690606557E+01 0.  0.
         13    1    3    3    0    0  0.39908151972E+02  0.54914513363E+01 -0.28952977685E+03  0.29231884700E+03  0.00000000000E+00 0.  1.
          1    1    3    3  501    0  0.15516181676E+01 -0.50340130538E+00 -0.12621684835E+02  0.12726659416E+02  0.00000000000E+00 0.  1.
         -3    1    1    2    0  502 -0.41459770139E+02 -0.49880500310E+01 -0.69577551459E+03  0.69702751731E+03  0.00000000000E+00 0. -1.
<mgrwt>
<rscale>  1 0.30000000E+03</rscale>
<asrwt>0</asrwt>
<pdfrwt beam="1">  1       21 0.75382840E-02 0.30000000E+03</pdfrwt>
<pdfrwt beam="2">0</pdfrwt>
<totfact> 0.14177497E+04</totfact>
</mgrwt>
</event>
<event>
 6    1  0.8397183E-002  0.3000000E+03  0.7818608E-02  0.1093470E+00
         21   -1    0    0  501  502  0.00000000000E+00  0.00000000000E+00  0.18571415650E+01  0.18571415650E+01  0.00000000000E+00 0. -1.
         13   -1    0    0    0    0 -0.00000000000E+00 -0.00000000000E+00 -0.10000000000E+04  0.10000000000E+04  0.00000000000E+00 0.  1.
    9000005    2    1    2  501    0 -0.29810396452E+02  0.28414617018E+02 -0.35485333041E+03  0.35725069802E+03  0.33354060721E+01 0.  0.
         13    1    3    3    0    0 -0.14428023770E+01  0.23132951702E+01 -0.27817271566E+02  0.27950556535E+02  0.00000000000E+00 0.  1.
          1    1    3    3  501    0 -0.28367594076E+02  0.26101321847E+02 -0.32703605885E+03  0.32930014148E+03  0.00000000000E+00 0.  1.
         -3    1    1    2    0  502  0.29810396452E+02 -0.28414617018E+02 -0.64328952802E+03  0.64460644355E+03  0.00000000000E+00 0. -1.
<mgrwt>
<rscale>  1 0.30000000E+03</rscale>
<asrwt>0</asrwt>
<pdfrwt beam="1">  1       21 0.67532563E-02 0.30000000E+03</pdfrwt>
<pdfrwt beam="2">0</pdfrwt>
<totfact> 0.17173624E+04</totfact>
</mgrwt>
</event>
<event>
 6    1  0.8397183E-002  0.3000000E+03  0.7818608E-02  0.1093470E+00
         21   -1    0    0  501  502  0.00000000000E+00  0.00000000000E+00  0.13682937267E+01  0.13682937267E+01  0.00000000000E+00 0. -1.
         13   -1    0    0    0    0 -0.00000000000E+00 -0.00000000000E+00 -0.10000000000E+04  0.10000000000E+04  0.00000000000E+00 0.  1.
    9000005    2    1    2  501    0  0.34379221963E+02  0.94963641852E+01 -0.37139309711E+03  0.37311644561E+03  0.33071995606E+01 0.  0.
         13    1    3    3    0    0  0.56095401437E+01  0.18896215507E+01 -0.50209388259E+02  0.50557099201E+02  0.00000000000E+00 0.  1.
          1    1    3    3  501    0  0.28769681819E+02  0.76067426346E+01 -0.32118370885E+03  0.32255934641E+03  0.00000000000E+00 0.  1.
         -1    1    1    2    0  502 -0.34379221963E+02 -0.94963641852E+01 -0.62723860916E+03  0.62825184811E+03  0.00000000000E+00 0. -1.
<mgrwt>
<rscale>  1 0.30000000E+03</rscale>
<asrwt>0</asrwt>
<pdfrwt beam="1">  1       21 0.49756240E-02 0.30000000E+03</pdfrwt>
<pdfrwt beam="2">0</pdfrwt>
<totfact> 0.29045606E+04</totfact>
</mgrwt>
</event>
<event>
 6    1  0.1183142E-001  0.3000000E+03  0.7818608E-02  0.1093470E+00
         21   -1    0    0  501  502  0.00000000000E+00  0.00000000000E+00  0.41790063665E+01  0.41790063665E+01  0.00000000000E+00 0. -1.
         13   -1    0    0    0    0 -0.00000000000E+00 -0.00000000000E+00 -0.10000000000E+04  0.10000000000E+04  0.00000000000E+00 0.  1.
    9000005    2    1    2  501    0  0.54534735951E+02 -0.25974702357E+02 -0.67376706342E+03  0.67650926936E+03  0.73493662843E+01 0.  0.
         13    1    3    3    0    0  0.26590664977E+02 -0.86110279610E+01 -0.31091758458E+03  0.31217135946E+03  0.00000000000E+00 0.  1.
          3    1    3    3  501    0  0.27944070974E+02 -0.17363674396E+02 -0.36284947884E+03  0.36433790990E+03  0.00000000000E+00 0.  1.
         -3    1    1    2    0  502 -0.54534735951E+02  0.25974702357E+02 -0.32205393021E+03  0.32766973701E+03  0.00000000000E+00 0. -1.
<mgrwt>
<rscale>  1 0.30000000E+03</rscale>
<asrwt>0</asrwt>
<pdfrwt beam="1">  1       21 0.15196419E-01 0.30000000E+03</pdfrwt>
<pdfrwt beam="2">0</pdfrwt>
<totfact> 0.40199843E+03</totfact>
</mgrwt>
</event>
<event>
 6    1  0.8397183E-002  0.3000000E+03  0.7818608E-02  0.1093470E+00
         21   -1    0    0  501  502  0.00000000000E+00  0.00000000000E+00  0.32161802169E+01  0.32161802169E+01  0.00000000000E+00 0. -1.
         13   -1    0    0    0    0 -0.00000000000E+00 -0.00000000000E+00 -0.10000000000E+04  0.10000000000E+04  0.00000000000E+00 0.  1.
    9000005    2    1    2  501    0 -0.48447062316E+02  0.28896480368E+02 -0.54458189844E+03  0.54750936428E+03  0.38646398867E+01 0.  0.
         13    1    3    3    0    0 -0.29327438547E+02  0.17692000860E+02 -0.34857949223E+03  0.35025814473E+03  0.00000000000E+00 0.  1.
          3    1    3    3  501    0 -0.19119623769E+02  0.11204479508E+02 -0.19600240620E+03  0.19725121955E+03  0.00000000000E+00 0.  1.
         -3    1    1    2    0  502  0.48447062316E+02 -0.28896480368E+02 -0.45220192135E+03  0.45570681594E+03  0.00000000000E+00 0. -1.
<mgrwt>
<rscale>  1 0.30000000E+03</rscale>
<asrwt>0</asrwt>
<pdfrwt beam="1">  1       21 0.11695225E-01 0.30000000E+03</pdfrwt>
<pdfrwt beam="2">0</pdfrwt>
<totfact> 0.64928880E+03</totfact>
</mgrwt>
</event>
<event>
 6    1  0.1296112E-001  0.3000000E+03  0.7818608E-02  0.1093470E+00
         21   -1    0    0  501  502  0.00000000000E+00  0.00000000000E+00  0.12336225643E+01  0.12336225643E+01  0.00000000000E+00 0. -1.
         13   -1    0    0    0    0 -0.00000000000E+00 -0.00000000000E+00 -0.10000000000E+04  0.10000000000E+04  0.00000000000E+00 0.  1.
    9000005    2    1    2  501    0 -0.92673959568E+01  0.33010359547E+02 -0.48135492240E+03  0.48268740257E+03  0.10440249933E+02 0.  0.
         13    1    3    3    0    0 -0.42891089976E+01  0.26515441080E+01 -0.60791751375E+02  0.61000526042E+02  0.00000000000E+00 0.  1.
          3    1    3    3  501    0 -0.49782869592E+01  0.30358815439E+02 -0.42056317102E+03  0.42168687653E+03  0.00000000000E+00 0.  1.
         -1    1    1    2    0  502  0.92673959568E+01 -0.33010359547E+02 -0.51741145504E+03  0.51854621999E+03  0.00000000000E+00 0. -1.
<mgrwt>
<rscale>  1 0.30000000E+03</rscale>
<asrwt>0</asrwt>
<pdfrwt beam="1">  1       21 0.44859097E-02 0.30000000E+03</pdfrwt>
<pdfrwt beam="2">0</pdfrwt>
<totfact> 0.34642029E+04</totfact>
</mgrwt>
</event>
<event>
 6    1  0.8397183E-002  0.3000000E+03  0.7818608E-02  0.1093470E+00
         21   -1    0    0  501  502  0.00000000000E+00  0.00000000000E+00  0.25992400577E+01  0.25992400577E+01  0.00000000000E+00 0. -1.
         13   -1    0    0    0    0 -0.00000000000E+00 -0.00000000000E+00 -0.10000000000E+04  0.10000000000E+04  0.00000000000E+00 0.  1.
    9000005    2    1    2  501    0  0.33901631086E+02  0.37826931027E+02 -0.53413911266E+03  0.53656109661E+03  0.36085212691E+01 0.  0.
         13    1    3    3    0    0  0.76740205164E+01  0.97606584284E+01 -0.11697366103E+03  0.11763077157E+03  0.00000000000E+00 0.  1.
          1    1    3    3  501    0  0.26227610569E+02  0.28066272599E+02 -0.41716545162E+03  0.41893032504E+03  0.00000000000E+00 0.  1.
         -1    1    1    2    0  502 -0.33901631086E+02 -0.37826931027E+02 -0.46326164729E+03  0.46603814345E+03  0.00000000000E+00 0. -1.
<mgrwt>
<rscale>  1 0.30000000E+03</rscale>
<asrwt>0</asrwt>
<pdfrwt beam="1">  1       21 0.94518020E-02 0.30000000E+03</pdfrwt>
<pdfrwt beam="2">0</pdfrwt>
<totfact> 0.95135096E+03</totfact>
</mgrwt>
</event>
<event>
 6    1  0.8397183E-002  0.3000000E+03  0.7818608E-02  0.1093470E+00
         21   -1    0    0  501  502  0.00000000000E+00  0.00000000000E+00  0.11253873696E+01  0.11253873696E+01  0.00000000000E+00 0. -1.
         13   -1    0    0    0    0 -0.00000000000E+00 -0.00000000000E+00 -0.10000000000E+04  0.10000000000E+04  0.00000000000E+00 0.  1.
    9000005    2    1    2  501    0  0.56179178568E+01  0.32565290356E+02 -0.58026403169E+03  0.58121244685E+03  0.30826560252E+01 0.  0.
         13    1    3    3    0    0  0.17778736092E+01  0.18148083219E+02 -0.33235296129E+03  0.33285282730E+03  0.00000000000E+00 0.  1.
          3    1    3    3  501    0  0.38400442476E+01  0.14417207137E+02 -0.24791107039E+03  0.24835961955E+03  0.00000000000E+00 0.  1.
         -1    1    1    2    0  502 -0.56179178568E+01 -0.32565290356E+02 -0.41861058094E+03  0.41991294052E+03  0.00000000000E+00 0. -1.
<mgrwt>
<rscale>  1 0.30000000E+03</rscale>
<asrwt>0</asrwt>
<pdfrwt beam="1">  1       21 0.40923263E-02 0.30000000E+03</pdfrwt>
<pdfrwt beam="2">0</pdfrwt>
<totfact> 0.40461243E+04</totfact>
</mgrwt>
</event>
<event>
 6    1  0.8397183E-002  0.3000000E+03  0.7818608E-02  0.1093470E+00
         21   -1    0    0  501  502  0.00000000000E+00  0.00000000000E+00  0.31316979173E+01  0.31316979173E+01  0.00000000000E+00 0. -1.
         13   -1    0    0    0    0 -0.00000000000E+00 -0.00000000000E+00 -0.10000000000E+04  0.10000000000E+04  0.00000000000E+00 0.  1.
    9000005    2    1    2  501    0  0.43705409248E+02  0.31749481225E+02 -0.62780608738E+03  0.63013691153E+03  0.37217680617E+01 0.  0.
         13    1    3    3    0    0  0.33332958332E+02  0.24928956066E+02 -0.46594335385E+03  0.46779883279E+03  0.00000000000E+00 0.  1.
          3    1    3    3  501    0  0.10372450916E+02  0.68205251585E+01 -0.16186273354E+03  0.16233807874E+03  0.00000000000E+00 0.  1.
         -1    1    1    2    0  502 -0.43705409248E+02 -0.31749481225E+02 -0.36906221470E+03  0.37299478639E+03  0.00000000000E+00 0. -1.
<mgrwt>
<rscale>  1 0.30000000E+03</rscale>
<asrwt>0</asrwt>
<pdfrwt beam="1">  1       21 0.11388016E-01 0.30000000E+03</pdfrwt>
<pdfrwt beam="2">0</pdfrwt>
<totfact> 0.68128766E+03</totfact>
</mgrwt>
</event>
<event>
 6    1  0.8397183E-002  0.3000000E+03  0.7818608E-02  0.1093470E+00
         21   -1    0    0  501  502  0.00000000000E+00  0.00000000000E+00  0.33235062853E+01  0.33235062853E+01  0.00000000000E+00 0. -1.
         13   -1    0    0    0    0 -0.00000000000E+00 -0.00000000000E+00 -0.10000000000E+04  0.10000000000E+04  0.00000000000E+00 0.  1.
    9000005    2    1    2  501    0  0.44864631098E+02  0.85143758178E+01 -0.19337016248E+03  0.19872025529E+03  0.35200005384E+01 0.  0.
         13    1    3    3    0    0  0.38692418746E+02  0.83103641397E+01 -0.17030407361E+03  0.17484176534E+03  0.00000000000E+00 0.  1.
          1    1    3    3  501    0  0.61722123513E+01  0.20401167807E+00 -0.23066088875E+02  0.23878489945E+02  0.00000000000E+00 0.  1.
         -3    1    1    2    0  502 -0.44864631098E+02 -0.85143758178E+01 -0.80330633123E+03  0.80460325100E+03  0.00000000000E+00 0. -1.
<mgrwt>
<rscale>  1 0.30000000E+03</rscale>
<asrwt>0</asrwt>
<pdfrwt beam="1">  1       21 0.12085503E-01 0.30000000E+03</pdfrwt>
<pdfrwt beam="2">0</pdfrwt>
<totfact> 0.61177438E+03</totfact>
</mgrwt>
</event>
<event>
 6    1  0.8397183E-002  0.3000000E+03  0.7818608E-02  0.1093470E+00
         21   -1    0    0  501  502  0.00000000000E+00  0.00000000000E+00  0.95466921587E+01  0.95466921587E+01  0.00000000000E+00 0. -1.
         13   -1    0    0    0    0 -0.00000000000E+00 -0.00000000000E+00 -0.10000000000E+04  0.10000000000E+04  0.00000000000E+00 0.  1.
    9000005    2    1    2  501    0 -0.81440785413E+02 -0.31397362873E+02 -0.72187819676E+03  0.72714452110E+03  0.35535461322E+01 0.  0.
         13    1    3    3    0    0 -0.56044310936E+02 -0.23357492407E+02 -0.50108893625E+03  0.50475405821E+03  0.00000000000E+00 0.  1.
          1    1    3    3  501    0 -0.25396474476E+02 -0.80398704653E+01 -0.22078926051E+03  0.22239046290E+03  0.00000000000E+00 0.  1.
         -3    1    1    2    0  502  0.81440785413E+02  0.31397362873E+02 -0.26857511108E+03  0.28240217105E+03  0.00000000000E+00 0. -1.
<mgrwt>
<rscale>  1 0.30000000E+03</rscale>
<asrwt>0</asrwt>
<pdfrwt beam="1">  1       21 0.34715317E-01 0.30000000E+03</pdfrwt>
<pdfrwt beam="2">0</pdfrwt>
<totfact> 0.80919358E+02</totfact>
</mgrwt>
</event>
<event>
 6    1  0.8397183E-002  0.3000000E+03  0.7818608E-02  0.1093470E+00
         21   -1    0    0  501  502  0.00000000000E+00  0.00000000000E+00  0.14094695721E+01  0.14094695721E+01  0.00000000000E+00 0. -1.
         13   -1    0    0    0    0 -0.00000000000E+00 -0.00000000000E+00 -0.10000000000E+04  0.10000000000E+04  0.00000000000E+00 0.  1.
    9000005    2    1    2  501    0 -0.29830919236E+02  0.21340961727E+02 -0.40593508792E+03  0.40762011809E+03  0.50541748738E+01 0.  0.
         13    1    3    3    0    0 -0.11176330888E+02  0.64790072835E+01 -0.12060710253E+03  0.12129699538E+03  0.00000000000E+00 0.  1.
          3    1    3    3  501    0 -0.18654588348E+02  0.14861954443E+02 -0.28532798539E+03  0.28632312271E+03  0.00000000000E+00 0.  1.
         -3    1    1    2    0  502  0.29830919236E+02 -0.21340961727E+02 -0.59265544251E+03  0.59378935148E+03  0.00000000000E+00 0. -1.
<mgrwt>
<rscale>  1 0.30000000E+03</rscale>
<asrwt>0</asrwt>
<pdfrwt beam="1">  1       21 0.51253547E-02 0.30000000E+03</pdfrwt>
<pdfrwt beam="2">0</pdfrwt>
<totfact> 0.27613317E+04</totfact>
</mgrwt>
</event>
<event>
 6    1  0.8397183E-002  0.3000000E+03  0.7818608E-02  0.1093470E+00
         21   -1    0    0  501  502  0.00000000000E+00  0.00000000000E+00  0.29199920614E+01  0.29199920614E+01  0.00000000000E+00 0. -1.
         13   -1    0    0    0    0 -0.00000000000E+00 -0.00000000000E+00 -0.10000000000E+04  0.10000000000E+04  0.00000000000E+00 0.  1.
    9000005    2    1    2  501    0 -0.17582830397E+02 -0.49019512238E+02 -0.63001596033E+03  0.63218007844E+03  0.44127997620E+01 0.  0.
         13    1    3    3    0    0 -0.37858466009E+01 -0.13871188871E+02 -0.19407308046E+03  0.19460499242E+03  0.00000000000E+00 0.  1.
          1    1    3    3  501    0 -0.13796983796E+02 -0.35148323367E+02 -0.43594287987E+03  0.43757508602E+03  0.00000000000E+00 0.  1.
         -3    1    1    2    0  502  0.17582830397E+02  0.49019512238E+02 -0.36706404760E+03  0.37073991362E+03  0.00000000000E+00 0. -1.
<mgrwt>
<rscale>  1 0.30000000E+03</rscale>
<asrwt>0</asrwt>
<pdfrwt beam="1">  1       21 0.10618175E-01 0.30000000E+03</pdfrwt>
<pdfrwt beam="2">0</pdfrwt>
<totfact> 0.77272135E+03</totfact>
</mgrwt>
</event>
<event>
 6    1  0.8397183E-002  0.3000000E+03  0.7818608E-02  0.1093470E+00
         21   -1    0    0  501  502  0.00000000000E+00  0.00000000000E+00  0.95256979986E+00  0.95256979986E+00  0.00000000000E+00 0. -1.
         13   -1    0    0    0    0 -0.00000000000E+00 -0.00000000000E+00 -0.10000000000E+04  0.10000000000E+04  0.00000000000E+00 0.  1.
    9000005    2    1    2  501    0 -0.26239899594E+02 -0.16031614424E+02 -0.52393229148E+03  0.52484340161E+03  0.31630947136E+01 0.  0.
         13    1    3    3    0    0 -0.30123271309E+01 -0.22225539651E+01 -0.82383927173E+02  0.82468935469E+02  0.00000000000E+00 0.  1.
          3    1    3    3  501    0 -0.23227572463E+02 -0.13809060459E+02 -0.44154836430E+03  0.44237446614E+03  0.00000000000E+00 0.  1.
         -1    1    1    2    0  502  0.26239899594E+02  0.16031614424E+02 -0.47511513872E+03  0.47610916819E+03  0.00000000000E+00 0. -1.
<mgrwt>
<rscale>  1 0.30000000E+03</rscale>
<asrwt>0</asrwt>
<pdfrwt beam="1">  1       21 0.34638975E-02 0.30000000E+03</pdfrwt>
<pdfrwt beam="2">0</pdfrwt>
<totfact> 0.53537961E+04</totfact>
</mgrwt>
</event>
<event>
 6    1  0.8397183E-002  0.3000000E+03  0.7818608E-02  0.1093470E+00
         21   -1    0    0  501  502  0.00000000000E+00  0.00000000000E+00  0.11775166643E+01  0.11775166643E+01  0.00000000000E+00 0. -1.
         13   -1    0    0    0    0 -0.00000000000E+00 -0.00000000000E+00 -0.10000000000E+04  0.10000000000E+04  0.00000000000E+00 0.  1.
    9000005    2    1    2  501    0  0.28291133044E+02 -0.18691238423E+02 -0.43157949405E+03  0.43292197600E+03  0.32904431259E+01 0.  0.
         13    1    3    3    0    0  0.58418921433E+01 -0.53091694450E+01 -0.10901604049E+03  0.10930147331E+03  0.00000000000E+00 0.  1.
          1    1    3    3  501    0  0.22449240901E+02 -0.13382068978E+02 -0.32256345356E+03  0.32362050269E+03  0.00000000000E+00 0.  1.
         -1    1    1    2    0  502 -0.28291133044E+02  0.18691238423E+02 -0.56724298929E+03  0.56825554067E+03  0.00000000000E+00 0. -1.
<mgrwt>
<rscale>  1 0.30000000E+03</rscale>
<asrwt>0</asrwt>
<pdfrwt beam="1">  1       21 0.42818878E-02 0.30000000E+03</pdfrwt>
<pdfrwt beam="2">0</pdfrwt>
<totfact> 0.37483334E+04</totfact>
</mgrwt>
</event>
<event>
 6    1  0.8397183E-002  0.3000000E+03  0.7818608E-02  0.1093470E+00
         21   -1    0    0  501  502  0.00000000000E+00  0.00000000000E+00  0.85806145350E+01  0.85806145350E+01  0.00000000000E+00 0. -1.
         13   -1    0    0    0    0 -0.00000000000E+00 -0.00000000000E+00 -0.10000000000E+04  0.10000000000E+04  0.00000000000E+00 0.  1.
    9000005    2    1    2  501    0  0.32954602917E+02 -0.85240927845E+02 -0.57719205325E+03  0.58439161847E+03  0.32978422393E+01 0.  0.
         13    1    3    3    0    0  0.33969923280E+01 -0.75392902625E+01 -0.47133479318E+02  0.47853373206E+02  0.00000000000E+00 0.  1.
          1    1    3    3  501    0  0.29557610589E+02 -0.77701637582E+02 -0.53005857394E+03  0.53653824526E+03  0.00000000000E+00 0.  1.
         -1    1    1    2    0  502 -0.32954602917E+02  0.85240927845E+02 -0.41422733221E+03  0.42418899607E+03  0.00000000000E+00 0. -1.
<mgrwt>
<rscale>  1 0.30000000E+03</rscale>
<asrwt>0</asrwt>
<pdfrwt beam="1">  1       21 0.31202300E-01 0.30000000E+03</pdfrwt>
<pdfrwt beam="2">0</pdfrwt>
<totfact> 0.10048498E+03</totfact>
</mgrwt>
</event>
<event>
 6    1  0.8397183E-002  0.3000000E+03  0.7818608E-02  0.1093470E+00
         21   -1    0    0  501  502  0.00000000000E+00  0.00000000000E+00  0.11402157481E+01  0.11402157481E+01  0.00000000000E+00 0. -1.
         13   -1    0    0    0    0 -0.00000000000E+00 -0.00000000000E+00 -0.10000000000E+04  0.10000000000E+04  0.00000000000E+00 0.  1.
    9000005    2    1    2  501    0 -0.58774771794E+01  0.30234085872E+02 -0.70276184343E+03  0.70344467456E+03  0.33995431870E+01 0.  0.
         13    1    3    3    0    0 -0.39707322726E+00  0.92776430725E+01 -0.22756893033E+03  0.22775831572E+03  0.00000000000E+00 0.  1.
          1    1    3    3  501    0 -0.54804039522E+01  0.20956442799E+02 -0.47519291310E+03  0.47568635884E+03  0.00000000000E+00 0.  1.
         -3    1    1    2    0  502  0.58774771794E+01 -0.30234085872E+02 -0.29609794082E+03  0.29769554119E+03  0.00000000000E+00 0. -1.
<mgrwt>
<rscale>  1 0.30000000E+03</rscale>
<asrwt>0</asrwt>
<pdfrwt beam="1">  1       21 0.41462478E-02 0.30000000E+03</pdfrwt>
<pdfrwt beam="2">0</pdfrwt>
<totfact> 0.39577684E+04</totfact>
</mgrwt>
</event>
<event>
 6    1  0.8397183E-002  0.3000000E+03  0.7818608E-02  0.1093470E+00
         21   -1    0    0  501  502  0.00000000000E+00  0.00000000000E+00  0.20225710154E+01  0.20225710154E+01  0.00000000000E+00 0. -1.
         13   -1    0    0    0    0 -0.00000000000E+00 -0.00000000000E+00 -0.10000000000E+04  0.10000000000E+04  0.00000000000E+00 0.  1.
    9000005    2    1    2  501    0 -0.24701572237E+02  0.35711929781E+02 -0.62331164633E+03  0.62484892627E+03  0.57673744666E+01 0.  0.
         13    1    3    3    0    0 -0.22161931335E+02  0.28680180979E+02 -0.50150872745E+03  0.50281677348E+03  0.00000000000E+00 0.  1.
          1    1    3    3  501    0 -0.25396409029E+01  0.70317488015E+01 -0.12180291888E+03  0.12203215279E+03  0.00000000000E+00 0.  1.
         -3    1    1    2    0  502  0.24701572237E+02 -0.35711929781E+02 -0.37466578265E+03  0.37717364475E+03  0.00000000000E+00 0. -1.
<mgrwt>
<rscale>  1 0.30000000E+03</rscale>
<asrwt>0</asrwt>
<pdfrwt beam="1">  1       21 0.73548192E-02 0.30000000E+03</pdfrwt>
<pdfrwt beam="2">0</pdfrwt>
<totfact> 0.14802152E+04</totfact>
</mgrwt>
</event>
<event>
 6    1  0.8397183E-002  0.3000000E+03  0.7818608E-02  0.1093470E+00
         21   -1    0    0  501  502  0.00000000000E+00  0.00000000000E+00  0.11962722536E+01  0.11962722536E+01  0.00000000000E+00 0. -1.
         13   -1    0    0    0    0 -0.00000000000E+00 -0.00000000000E+00 -0.10000000000E+04  0.10000000000E+04  0.00000000000E+00 0.  1.
    9000005    2    1    2  501    0 -0.14706603541E+02 -0.30065473991E+02 -0.62231113512E+03  0.62321890624E+03  0.32309890059E+01 0.  0.
         13    1    3    3    0    0 -0.29024566944E+01 -0.91978307330E+01 -0.17351744891E+03  0.17378529691E+03  0.00000000000E+00 0.  1.
          3    1    3    3  501    0 -0.11804146847E+02 -0.20867643258E+02 -0.44879368621E+03  0.44943360934E+03  0.00000000000E+00 0.  1.
         -1    1    1    2    0  502  0.14706603541E+02  0.30065473991E+02 -0.37649259263E+03  0.37797736601E+03  0.00000000000E+00 0. -1.
<mgrwt>
<rscale>  1 0.30000000E+03</rscale>
<asrwt>0</asrwt>
<pdfrwt beam="1">  1       21 0.43500901E-02 0.30000000E+03</pdfrwt>
<pdfrwt beam="2">0</pdfrwt>
<totfact> 0.36494594E+04</totfact>
</mgrwt>
</event>
<event>
 6    1  0.8397183E-002  0.3000000E+03  0.7818608E-02  0.1093470E+00
         21   -1    0    0  501  502  0.00000000000E+00  0.00000000000E+00  0.16055341420E+01  0.16055341420E+01  0.00000000000E+00 0. -1.
         13   -1    0    0    0    0 -0.00000000000E+00 -0.00000000000E+00 -0.10000000000E+04  0.10000000000E+04  0.00000000000E+00 0.  1.
    9000005    2    1    2  501    0 -0.33594653117E+02  0.19197247442E+02 -0.38067340478E+03  0.38267383813E+03  0.54671981837E+01 0.  0.
         13    1    3    3    0    0 -0.27912209746E+02  0.13517073043E+02 -0.29614773270E+03  0.29776716122E+03  0.00000000000E+00 0.  1.
          3    1    3    3  501    0 -0.56824433705E+01  0.56801743990E+01 -0.84525672078E+02  0.84906676912E+02  0.00000000000E+00 0.  1.
         -1    1    1    2    0  502  0.33594653117E+02 -0.19197247442E+02 -0.61772106108E+03  0.61893169601E+03  0.00000000000E+00 0. -1.
<mgrwt>
<rscale>  1 0.30000000E+03</rscale>
<asrwt>0</asrwt>
<pdfrwt beam="1">  1       21 0.58383183E-02 0.30000000E+03</pdfrwt>
<pdfrwt beam="2">0</pdfrwt>
<totfact> 0.22087603E+04</totfact>
</mgrwt>
</event>
<event>
 6    1  0.8397183E-002  0.3000000E+03  0.7818608E-02  0.1093470E+00
         21   -1    0    0  501  502  0.00000000000E+00  0.00000000000E+00  0.10783667530E+01  0.10783667530E+01  0.00000000000E+00 0. -1.
         13   -1    0    0    0    0 -0.00000000000E+00 -0.00000000000E+00 -0.10000000000E+04  0.10000000000E+04  0.00000000000E+00 0.  1.
    9000005    2    1    2  501    0  0.84101101771E+01 -0.31182309891E+02 -0.58431637137E+03  0.58521710433E+03  0.32203963267E+01 0.  0.
         13    1    3    3    0    0  0.30580925221E+01 -0.64179313183E+01 -0.12175457507E+03  0.12196195441E+03  0.00000000000E+00 0.  1.
          1    1    3    3  501    0  0.53520176550E+01 -0.24764378572E+02 -0.46256179630E+03  0.46325514992E+03  0.00000000000E+00 0.  1.
         -1    1    1    2    0  502 -0.84101101771E+01  0.31182309891E+02 -0.41460526188E+03  0.41586126242E+03  0.00000000000E+00 0. -1.
<mgrwt>
<rscale>  1 0.30000000E+03</rscale>
<asrwt>0</asrwt>
<pdfrwt beam="1">  1       21 0.39213419E-02 0.30000000E+03</pdfrwt>
<pdfrwt beam="2">0</pdfrwt>
<totfact> 0.43476696E+04</totfact>
</mgrwt>
</event>
<event>
 6    1  0.8397183E-002  0.3000000E+03  0.7818608E-02  0.1093470E+00
         21   -1    0    0  501  502  0.00000000000E+00  0.00000000000E+00  0.13467784208E+01  0.13467784208E+01  0.00000000000E+00 0. -1.
         13   -1    0    0    0    0 -0.00000000000E+00 -0.00000000000E+00 -0.10000000000E+04  0.10000000000E+04  0.00000000000E+00 0.  1.
    9000005    2    1    2  501    0 -0.31681400091E+02 -0.47176794500E+01 -0.25783817989E+03  0.25983960138E+03  0.31817958543E+01 0.  0.
         13    1    3    3    0    0 -0.39950208695E+01 -0.10149900544E+01 -0.41904168031E+02  0.42106409190E+02  0.00000000000E+00 0.  1.
          1    1    3    3  501    0 -0.27686379222E+02 -0.37026893956E+01 -0.21593401186E+03  0.21773319219E+03  0.00000000000E+00 0.  1.
         -3    1    1    2    0  502  0.31681400091E+02  0.47176794500E+01 -0.74081504169E+03  0.74150717704E+03  0.00000000000E+00 0. -1.
<mgrwt>
<rscale>  1 0.30000000E+03</rscale>
<asrwt>0</asrwt>
<pdfrwt beam="1">  1       21 0.48973864E-02 0.30000000E+03</pdfrwt>
<pdfrwt beam="2">0</pdfrwt>
<totfact> 0.29840576E+04</totfact>
</mgrwt>
</event>
<event>
 6    1  0.8397183E-002  0.3000000E+03  0.7818608E-02  0.1093470E+00
         21   -1    0    0  501  502  0.00000000000E+00  0.00000000000E+00  0.11955301748E+01  0.11955301748E+01  0.00000000000E+00 0. -1.
         13   -1    0    0    0    0 -0.00000000000E+00 -0.00000000000E+00 -0.10000000000E+04  0.10000000000E+04  0.00000000000E+00 0.  1.
    9000005    2    1    2  501    0  0.32329534596E+02 -0.11417458197E+02 -0.45177419453E+03  0.45309181804E+03  0.40884690198E+01 0.  0.
         13    1    3    3    0    0  0.16226580711E+02 -0.77665562095E+01 -0.22640367803E+03  0.22711725329E+03  0.00000000000E+00 0.  1.
          1    1    3    3  501    0  0.16102953885E+02 -0.36509019875E+01 -0.22537051650E+03  0.22597456475E+03  0.00000000000E+00 0.  1.
         -1    1    1    2    0  502 -0.32329534596E+02  0.11417458197E+02 -0.54703027530E+03  0.54810371213E+03  0.00000000000E+00 0. -1.
<mgrwt>
<rscale>  1 0.30000000E+03</rscale>
<asrwt>0</asrwt>
<pdfrwt beam="1">  1       21 0.43473916E-02 0.30000000E+03</pdfrwt>
<pdfrwt beam="2">0</pdfrwt>
<totfact> 0.36532943E+04</totfact>
</mgrwt>
</event>
<event>
 6    1  0.8397183E-002  0.3000000E+03  0.7818608E-02  0.1093470E+00
         21   -1    0    0  501  502  0.00000000000E+00  0.00000000000E+00  0.11603602996E+01  0.11603602996E+01  0.00000000000E+00 0. -1.
         13   -1    0    0    0    0 -0.00000000000E+00 -0.00000000000E+00 -0.10000000000E+04  0.10000000000E+04  0.00000000000E+00 0.  1.
    9000005    2    1    2  501    0 -0.28431554519E+02 -0.18219775703E+02 -0.55762016740E+03  0.55865054543E+03  0.31412256959E+01 0.  0.
         13    1    3    3    0    0 -0.28109005389E+02 -0.17992286305E+02 -0.54274848868E+03  0.54377362984E+03  0.00000000000E+00 0.  1.
          1    1    3    3  501    0 -0.32254913028E+00 -0.22748939801E+00 -0.14871678725E+02  0.14876915590E+02  0.00000000000E+00 0.  1.
         -3    1    1    2    0  502  0.28431554519E+02  0.18219775703E+02 -0.44121947230E+03  0.44250981487E+03  0.00000000000E+00 0. -1.
<mgrwt>
<rscale>  1 0.30000000E+03</rscale>
<asrwt>0</asrwt>
<pdfrwt beam="1">  1       21 0.42195009E-02 0.30000000E+03</pdfrwt>
<pdfrwt beam="2">0</pdfrwt>
<totfact> 0.38424666E+04</totfact>
</mgrwt>
</event>
<event>
 6    1  0.8397183E-002  0.3000000E+03  0.7818608E-02  0.1093470E+00
         21   -1    0    0  501  502  0.00000000000E+00  0.00000000000E+00  0.11090199330E+01  0.11090199330E+01  0.00000000000E+00 0. -1.
         13   -1    0    0    0    0 -0.00000000000E+00 -0.00000000000E+00 -0.10000000000E+04  0.10000000000E+04  0.00000000000E+00 0.  1.
    9000005    2    1    2  501    0  0.18388908734E+02 -0.26959034758E+02 -0.58635782764E+03  0.58728714597E+03  0.50742749654E+01 0.  0.
         13    1    3    3    0    0  0.82920287012E+01 -0.11076156357E+02 -0.29269107143E+03  0.29301792143E+03  0.00000000000E+00 0.  1.
          3    1    3    3  501    0  0.10096880033E+02 -0.15882878401E+02 -0.29366675621E+03  0.29426922454E+03  0.00000000000E+00 0.  1.
         -1    1    1    2    0  502 -0.18388908734E+02  0.26959034758E+02 -0.41253315243E+03  0.41382187396E+03  0.00000000000E+00 0. -1.
<mgrwt>
<rscale>  1 0.30000000E+03</rscale>
<asrwt>0</asrwt>
<pdfrwt beam="1">  1       21 0.40328083E-02 0.30000000E+03</pdfrwt>
<pdfrwt beam="2">0</pdfrwt>
<totfact> 0.41472753E+04</totfact>
</mgrwt>
</event>
<event>
 6    1  0.8397183E-002  0.3000000E+03  0.7818608E-02  0.1093470E+00
         21   -1    0    0  501  502  0.00000000000E+00  0.00000000000E+00  0.10583458250E+01  0.10583458250E+01  0.00000000000E+00 0. -1.
         13   -1    0    0    0    0 -0.00000000000E+00 -0.00000000000E+00 -0.10000000000E+04  0.10000000000E+04  0.00000000000E+00 0.  1.
    9000005    2    1    2  501    0 -0.24648039602E+02  0.18187530582E+02 -0.66608988453E+03  0.66680004349E+03  0.28725595583E+01 0.  0.
         13    1    3    3    0    0 -0.24162838382E+02  0.17179546460E+02 -0.64181715664E+03  0.64250155030E+03  0.00000000000E+00 0.  1.
          3    1    3    3  501    0 -0.48520121956E+00  0.10079841225E+01 -0.24272727892E+02  0.24298493195E+02  0.00000000000E+00 0.  1.
         -3    1    1    2    0  502  0.24648039602E+02 -0.18187530582E+02 -0.33285176964E+03  0.33425830233E+03  0.00000000000E+00 0. -1.
<mgrwt>
<rscale>  1 0.30000000E+03</rscale>
<asrwt>0</asrwt>
<pdfrwt beam="1">  1       21 0.38485384E-02 0.30000000E+03</pdfrwt>
<pdfrwt beam="2">0</pdfrwt>
<totfact> 0.44868729E+04</totfact>
</mgrwt>
</event>
<event>
 6    1  0.8397183E-002  0.3000000E+03  0.7818608E-02  0.1093470E+00
         21   -1    0    0  501  502  0.00000000000E+00  0.00000000000E+00  0.18574815006E+01  0.18574815006E+01  0.00000000000E+00 0. -1.
         13   -1    0    0    0    0 -0.00000000000E+00 -0.00000000000E+00 -0.10000000000E+04  0.10000000000E+04  0.00000000000E+00 0.  1.
    9000005    2    1    2  501    0 -0.76244774112E+01 -0.37259301499E+02 -0.73368821993E+03  0.73468251217E+03  0.36880107509E+01 0.  0.
         13    1    3    3    0    0 -0.12407161370E+01 -0.12257243419E+02 -0.26069008231E+03  0.26098103074E+03  0.00000000000E+00 0.  1.
          3    1    3    3  501    0 -0.63837612741E+01 -0.25002058080E+02 -0.47299813762E+03  0.47370148143E+03  0.00000000000E+00 0.  1.
         -3    1    1    2    0  502  0.76244774112E+01  0.37259301499E+02 -0.26445429857E+03  0.26717496933E+03  0.00000000000E+00 0. -1.
<mgrwt>
<rscale>  1 0.30000000E+03</rscale>
<asrwt>0</asrwt>
<pdfrwt beam="1">  1       21 0.67544924E-02 0.30000000E+03</pdfrwt>
<pdfrwt beam="2">0</pdfrwt>
<totfact> 0.17168170E+04</totfact>
</mgrwt>
</event>
<event>
 6    1  0.8397183E-002  0.3000000E+03  0.7818608E-02  0.1093470E+00
         21   -1    0    0  501  502  0.00000000000E+00  0.00000000000E+00  0.12347250294E+01  0.12347250294E+01  0.00000000000E+00 0. -1.
         13   -1    0    0    0    0 -0.00000000000E+00 -0.00000000000E+00 -0.10000000000E+04  0.10000000000E+04  0.00000000000E+00 0.  1.
    9000005    2    1    2  501    0 -0.31604924074E+02 -0.14810689545E+02 -0.55117168334E+03  0.55228233221E+03  0.27059570857E+01 0.  0.
         13    1    3    3    0    0 -0.21805362821E+01 -0.14806385219E+01 -0.33295138490E+02  0.33399300531E+02  0.00000000000E+00 0.  1.
          1    1    3    3  501    0 -0.29424387791E+02 -0.13330051023E+02 -0.51787654485E+03  0.51888303168E+03  0.00000000000E+00 0.  1.
         -3    1    1    2    0  502  0.31604924074E+02  0.14810689545E+02 -0.44759359163E+03  0.44895239282E+03  0.00000000000E+00 0. -1.
<mgrwt>
<rscale>  1 0.30000000E+03</rscale>
<asrwt>0</asrwt>
<pdfrwt beam="1">  1       21 0.44899187E-02 0.30000000E+03</pdfrwt>
<pdfrwt beam="2">0</pdfrwt>
<totfact> 0.34589569E+04</totfact>
</mgrwt>
</event>
<event>
 6    1  0.8397183E-002  0.3000000E+03  0.7818608E-02  0.1093470E+00
         21   -1    0    0  501  502  0.00000000000E+00  0.00000000000E+00  0.12126373420E+01  0.12126373420E+01  0.00000000000E+00 0. -1.
         13   -1    0    0    0    0 -0.00000000000E+00 -0.00000000000E+00 -0.10000000000E+04  0.10000000000E+04  0.00000000000E+00 0.  1.
    9000005    2    1    2  501    0  0.70404264497E+01 -0.32196030664E+02 -0.34136312732E+03  0.34296285405E+03  0.29296021492E+01 0.  0.
         13    1    3    3    0    0  0.59450270835E+01 -0.30368095677E+02 -0.31707442845E+03  0.31858084965E+03  0.00000000000E+00 0.  1.
          1    1    3    3  501    0  0.10953993662E+01 -0.18279349875E+01 -0.24288698861E+02  0.24382004398E+02  0.00000000000E+00 0.  1.
         -1    1    1    2    0  502 -0.70404264497E+01  0.32196030664E+02 -0.65742423534E+03  0.65824978330E+03  0.00000000000E+00 0. -1.
<mgrwt>
<rscale>  1 0.30000000E+03</rscale>
<asrwt>0</asrwt>
<pdfrwt beam="1">  1       21 0.44095996E-02 0.30000000E+03</pdfrwt>
<pdfrwt beam="2">0</pdfrwt>
<totfact> 0.35664486E+04</totfact>
</mgrwt>
</event>
<event>
 6    1  0.8397183E-002  0.3000000E+03  0.7818608E-02  0.1093470E+00
         21   -1    0    0  501  502  0.00000000000E+00  0.00000000000E+00  0.10071826096E+01  0.10071826096E+01  0.00000000000E+00 0. -1.
         13   -1    0    0    0    0 -0.00000000000E+00 -0.00000000000E+00 -0.10000000000E+04  0.10000000000E+04  0.00000000000E+00 0.  1.
    9000005    2    1    2  501    0  0.61748739551E+00  0.31157245838E+02 -0.41422388714E+03  0.41540846587E+03  0.34072836006E+01 0.  0.
         13    1    3    3    0    0  0.53719374515E+00  0.28659948322E+02 -0.36653473958E+03  0.36765390864E+03  0.00000000000E+00 0.  1.
          1    1    3    3  501    0  0.80293650365E-01  0.24972975165E+01 -0.47689147559E+02  0.47754557237E+02  0.00000000000E+00 0.  1.
         -3    1    1    2    0  502 -0.61748739551E+00 -0.31157245838E+02 -0.58476893025E+03  0.58559871674E+03  0.00000000000E+00 0. -1.
<mgrwt>
<rscale>  1 0.30000000E+03</rscale>
<asrwt>0</asrwt>
<pdfrwt beam="1">  1       21 0.36624899E-02 0.30000000E+03</pdfrwt>
<pdfrwt beam="2">0</pdfrwt>
<totfact> 0.48762174E+04</totfact>
</mgrwt>
</event>
<event>
 6    1  0.8397183E-002  0.3000000E+03  0.7818608E-02  0.1093470E+00
         21   -1    0    0  501  502  0.00000000000E+00  0.00000000000E+00  0.10478273813E+01  0.10478273813E+01  0.00000000000E+00 0. -1.
         13   -1    0    0    0    0 -0.00000000000E+00 -0.00000000000E+00 -0.10000000000E+04  0.10000000000E+04  0.00000000000E+00 0.  1.
    9000005    2    1    2  501    0 -0.31828173921E+02  0.37393522940E+01 -0.46808812685E+03  0.46921735580E+03  0.56050938228E+01 0.  0.
         13    1    3    3    0    0 -0.18479868745E+02  0.44624686107E+01 -0.25194535608E+03  0.25266159507E+03  0.00000000000E+00 0.  1.
          1    1    3    3  501    0 -0.13348305177E+02 -0.72311631671E+00 -0.21614277077E+03  0.21655576073E+03  0.00000000000E+00 0.  1.
         -1    1    1    2    0  502  0.31828173921E+02 -0.37393522940E+01 -0.53086404577E+03  0.53183047158E+03  0.00000000000E+00 0. -1.
<mgrwt>
<rscale>  1 0.30000000E+03</rscale>
<asrwt>0</asrwt>
<pdfrwt beam="1">  1       21 0.38102894E-02 0.30000000E+03</pdfrwt>
<pdfrwt beam="2">0</pdfrwt>
<totfact> 0.45628298E+04</totfact>
</mgrwt>
</event>
<event>
 6    1  0.8397183E-002  0.3000000E+03  0.7818608E-02  0.1093470E+00
         21   -1    0    0  501  502  0.00000000000E+00  0.00000000000E+00  0.25546530931E+01  0.25546530931E+01  0.00000000000E+00 0. -1.
         13   -1    0    0    0    0 -0.00000000000E+00 -0.00000000000E+00 -0.10000000000E+04  0.10000000000E+04  0.00000000000E+00 0.  1.
    9000005    2    1    2  501    0  0.12510527092E+02  0.44524275139E+02 -0.29954893163E+03  0.30312750834E+03  0.42189460056E+01 0.  0.
         13    1    3    3    0    0  0.45912427511E+01  0.98699584654E+01 -0.72527495896E+02  0.73339847634E+02  0.00000000000E+00 0.  1.
          1    1    3    3  501    0  0.79192843411E+01  0.34654316674E+02 -0.22702143574E+03  0.22978766071E+03  0.00000000000E+00 0.  1.
         -3    1    1    2    0  502 -0.12510527092E+02 -0.44524275139E+02 -0.69789641527E+03  0.69942714475E+03  0.00000000000E+00 0. -1.
<mgrwt>
<rscale>  1 0.30000000E+03</rscale>
<asrwt>0</asrwt>
<pdfrwt beam="1">  1       21 0.92896672E-02 0.30000000E+03</pdfrwt>
<pdfrwt beam="2">0</pdfrwt>
<totfact> 0.98108548E+03</totfact>
</mgrwt>
</event>
<event>
 6    1  0.8397183E-002  0.3000000E+03  0.7818608E-02  0.1093470E+00
         21   -1    0    0  501  502  0.00000000000E+00  0.00000000000E+00  0.14657665408E+01  0.14657665408E+01  0.00000000000E+00 0. -1.
         13   -1    0    0    0    0 -0.00000000000E+00 -0.00000000000E+00 -0.10000000000E+04  0.10000000000E+04  0.00000000000E+00 0.  1.
    9000005    2    1    2  501    0  0.36370117844E+02 -0.36521420056E+01 -0.64609103447E+03  0.64713212133E+03  0.31990660943E+01 0.  0.
         13    1    3    3    0    0  0.33328456950E+02 -0.41258744602E+01 -0.58392333668E+03  0.58488825599E+03  0.00000000000E+00 0.  1.
          1    1    3    3  501    0  0.30416608944E+01  0.47373245459E+00 -0.62167697792E+02  0.62243865338E+02  0.00000000000E+00 0.  1.
         -1    1    1    2    0  502 -0.36370117844E+02  0.36521420056E+01 -0.35244319899E+03  0.35433364521E+03  0.00000000000E+00 0. -1.
<mgrwt>
<rscale>  1 0.30000000E+03</rscale>
<asrwt>0</asrwt>
<pdfrwt beam="1">  1       21 0.53300714E-02 0.30000000E+03</pdfrwt>
<pdfrwt beam="2">0</pdfrwt>
<totfact> 0.25825699E+04</totfact>
</mgrwt>
</event>
<event>
 6    1  0.8397183E-002  0.3000000E+03  0.7818608E-02  0.1093470E+00
         21   -1    0    0  501  502  0.00000000000E+00  0.00000000000E+00  0.37278863328E+01  0.37278863328E+01  0.00000000000E+00 0. -1.
         13   -1    0    0    0    0 -0.00000000000E+00 -0.00000000000E+00 -0.10000000000E+04  0.10000000000E+04  0.00000000000E+00 0.  1.
    9000005    2    1    2  501    0  0.54756027829E+02 -0.25401504684E+02 -0.44075655470E+03  0.44494260084E+03  0.80074035267E+01 0.  0.
         13    1    3    3    0    0  0.36564889509E+02 -0.14613720481E+02 -0.30911589278E+03  0.31161384299E+03  0.00000000000E+00 0.  1.
          3    1    3    3  501    0  0.18191138319E+02 -0.10787784203E+02 -0.13164066192E+03  0.13332875785E+03  0.00000000000E+00 0.  1.
         -1    1    1    2    0  502 -0.54756027829E+02  0.25401504684E+02 -0.55551555897E+03  0.55878528549E+03  0.00000000000E+00 0. -1.
<mgrwt>
<rscale>  1 0.30000000E+03</rscale>
<asrwt>0</asrwt>
<pdfrwt beam="1">  1       21 0.13555979E-01 0.30000000E+03</pdfrwt>
<pdfrwt beam="2">0</pdfrwt>
<totfact> 0.49615504E+03</totfact>
</mgrwt>
</event>
<event>
 6    1  0.8397183E-002  0.3000000E+03  0.7818608E-02  0.1093470E+00
         21   -1    0    0  501  502  0.00000000000E+00  0.00000000000E+00  0.11717285933E+01  0.11717285933E+01  0.00000000000E+00 0. -1.
         13   -1    0    0    0    0 -0.00000000000E+00 -0.00000000000E+00 -0.10000000000E+04  0.10000000000E+04  0.00000000000E+00 0.  1.
    9000005    2    1    2  501    0 -0.32678276449E+02  0.83654082657E+01 -0.54668126568E+03  0.54776819465E+03  0.71929836911E+01 0.  0.
         13    1    3    3    0    0 -0.25735842782E+02  0.70855218236E+01 -0.47193360220E+03  0.47268791301E+03  0.00000000000E+00 0.  1.
          3    1    3    3  501    0 -0.69424336675E+01  0.12798864421E+01 -0.74747663477E+02  0.75080281631E+02  0.00000000000E+00 0.  1.
         -1    1    1    2    0  502  0.32678276449E+02 -0.83654082657E+01 -0.45214700573E+03  0.45340353395E+03  0.00000000000E+00 0. -1.
<mgrwt>
<rscale>  1 0.30000000E+03</rscale>
<asrwt>0</asrwt>
<pdfrwt beam="1">  1       21 0.42608402E-02 0.30000000E+03</pdfrwt>
<pdfrwt beam="2">0</pdfrwt>
<totfact> 0.37796871E+04</totfact>
</mgrwt>
</event>
<event>
 6    1  0.8397183E-002  0.3000000E+03  0.7818608E-02  0.1093470E+00
         21   -1    0    0  501  502  0.00000000000E+00  0.00000000000E+00  0.97760050683E+00  0.97760050683E+00  0.00000000000E+00 0. -1.
         13   -1    0    0    0    0 -0.00000000000E+00 -0.00000000000E+00 -0.10000000000E+04  0.10000000000E+04  0.00000000000E+00 0.  1.
    9000005    2    1    2  501    0  0.22048037178E+02 -0.20709109053E+02 -0.38075570602E+03  0.38197139101E+03  0.35003913753E+01 0.  0.
         13    1    3    3    0    0  0.14176150285E+02 -0.15481516363E+02 -0.25809185834E+03  0.25894410193E+03  0.00000000000E+00 0.  1.
          3    1    3    3  501    0  0.78718868930E+01 -0.52275926904E+01 -0.12266384768E+03  0.12302728907E+03  0.00000000000E+00 0.  1.
         -3    1    1    2    0  502 -0.22048037178E+02  0.20709109053E+02 -0.61826669347E+03  0.61900620950E+03  0.00000000000E+00 0. -1.
<mgrwt>
<rscale>  1 0.30000000E+03</rscale>
<asrwt>0</asrwt>
<pdfrwt beam="1">  1       21 0.35549184E-02 0.30000000E+03</pdfrwt>
<pdfrwt beam="2">0</pdfrwt>
<totfact> 0.51262041E+04</totfact>
</mgrwt>
</event>
<event>
 6    1  0.8397183E-002  0.3000000E+03  0.7818608E-02  0.1093470E+00
         21   -1    0    0  501  502  0.00000000000E+00  0.00000000000E+00  0.15774153296E+01  0.15774153296E+01  0.00000000000E+00 0. -1.
         13   -1    0    0    0    0 -0.00000000000E+00 -0.00000000000E+00 -0.10000000000E+04  0.10000000000E+04  0.00000000000E+00 0.  1.
    9000005    2    1    2  501    0  0.26409824135E+01 -0.36292481809E+02 -0.31084282780E+03  0.31303544778E+03  0.66188326749E+01 0.  0.
         13    1    3    3    0    0  0.20055925973E+00 -0.32335864657E+02 -0.27134183440E+03  0.27326185146E+03  0.00000000000E+00 0.  1.
          3    1    3    3  501    0  0.24404231537E+01 -0.39566171511E+01 -0.39500993395E+02  0.39773596313E+02  0.00000000000E+00 0.  1.
         -1    1    1    2    0  502 -0.26409824135E+01  0.36292481809E+02 -0.68757975687E+03  0.68854196755E+03  0.00000000000E+00 0. -1.
<mgrwt>
<rscale>  1 0.30000000E+03</rscale>
<asrwt>0</asrwt>
<pdfrwt beam="1">  1       21 0.57360678E-02 0.30000000E+03</pdfrwt>
<pdfrwt beam="2">0</pdfrwt>
<totfact> 0.22769878E+04</totfact>
</mgrwt>
</event>
<event>
 6    1  0.8397183E-002  0.3000000E+03  0.7818608E-02  0.1093470E+00
         21   -1    0    0  501  502  0.00000000000E+00  0.00000000000E+00  0.23393147732E+01  0.23393147732E+01  0.00000000000E+00 0. -1.
         13   -1    0    0    0    0 -0.00000000000E+00 -0.00000000000E+00 -0.10000000000E+04  0.10000000000E+04  0.00000000000E+00 0.  1.
    9000005    2    1    2  501    0 -0.43176069251E+02 -0.17960950209E+02 -0.37375676199E+03  0.37668535761E+03  0.33125237083E+01 0.  0.
         13    1    3    3    0    0 -0.22596196596E+02 -0.97199969866E+01 -0.20961627363E+03  0.21105461050E+03  0.00000000000E+00 0.  1.
          3    1    3    3  501    0 -0.20579872655E+02 -0.82409532222E+01 -0.16414048836E+03  0.16563074711E+03  0.00000000000E+00 0.  1.
         -1    1    1    2    0  502  0.43176069251E+02  0.17960950209E+02 -0.62390392323E+03  0.62565395716E+03  0.00000000000E+00 0. -1.
<mgrwt>
<rscale>  1 0.30000000E+03</rscale>
<asrwt>0</asrwt>
<pdfrwt beam="1">  1       21 0.85066171E-02 0.30000000E+03</pdfrwt>
<pdfrwt beam="2">0</pdfrwt>
<totfact> 0.11465517E+04</totfact>
</mgrwt>
</event>
<event>
 6    1  0.8397183E-002  0.3000000E+03  0.7818608E-02  0.1093470E+00
         21   -1    0    0  501  502  0.00000000000E+00  0.00000000000E+00  0.97798333235E+00  0.97798333235E+00  0.00000000000E+00 0. -1.
         13   -1    0    0    0    0 -0.00000000000E+00 -0.00000000000E+00 -0.10000000000E+04  0.10000000000E+04  0.00000000000E+00 0.  1.
    9000005    2    1    2  501    0 -0.27714718364E+02 -0.11916871687E+02 -0.62763088071E+03  0.62836358035E+03  0.31857871635E+01 0.  0.
         13    1    3    3    0    0 -0.23460249309E+02 -0.91312573867E+01 -0.50446450533E+03  0.50509226909E+03  0.00000000000E+00 0.  1.
          1    1    3    3  501    0 -0.42544690556E+01 -0.27856143004E+01 -0.12316637539E+03  0.12327131126E+03  0.00000000000E+00 0.  1.
         -3    1    1    2    0  502  0.27714718364E+02  0.11916871687E+02 -0.37139113596E+03  0.37261440299E+03  0.00000000000E+00 0. -1.
<mgrwt>
<rscale>  1 0.30000000E+03</rscale>
<asrwt>0</asrwt>
<pdfrwt beam="1">  1       21 0.35563105E-02 0.30000000E+03</pdfrwt>
<pdfrwt beam="2">0</pdfrwt>
<totfact> 0.51228408E+04</totfact>
</mgrwt>
</event>
<event>
 6    1  0.8397183E-002  0.3000000E+03  0.7818608E-02  0.1093470E+00
         21   -1    0    0  501  502  0.00000000000E+00  0.00000000000E+00  0.14845858709E+01  0.14845858709E+01  0.00000000000E+00 0. -1.
         13   -1    0    0    0    0 -0.00000000000E+00 -0.00000000000E+00 -0.10000000000E+04  0.10000000000E+04  0.00000000000E+00 0.  1.
    9000005    2    1    2  501    0 -0.70688321687E+01  0.29641293849E+02 -0.19528762412E+03  0.19767897670E+03  0.33387132408E+01 0.  0.
         13    1    3    3    0    0 -0.40870766948E+01  0.22836916200E+02 -0.15133127382E+03  0.15309925987E+03  0.00000000000E+00 0.  1.
          1    1    3    3  501    0 -0.29817554739E+01  0.68043776485E+01 -0.43956350300E+02  0.44579716830E+02  0.00000000000E+00 0.  1.
         -1    1    1    2    0  502  0.70688321687E+01 -0.29641293849E+02 -0.80322779001E+03  0.80380560917E+03  0.00000000000E+00 0. -1.
<mgrwt>
<rscale>  1 0.30000000E+03</rscale>
<asrwt>0</asrwt>
<pdfrwt beam="1">  1       21 0.53985055E-02 0.30000000E+03</pdfrwt>
<pdfrwt beam="2">0</pdfrwt>
<totfact> 0.25267865E+04</totfact>
</mgrwt>
</event>
<event>
 6    1  0.8397183E-002  0.3000000E+03  0.7818608E-02  0.1093470E+00
         21   -1    0    0  501  502  0.00000000000E+00  0.00000000000E+00  0.19274590715E+01  0.19274590715E+01  0.00000000000E+00 0. -1.
         13   -1    0    0    0    0 -0.00000000000E+00 -0.00000000000E+00 -0.10000000000E+04  0.10000000000E+04  0.00000000000E+00 0.  1.
    9000005    2    1    2  501    0  0.12842445724E+01  0.35612695847E+02 -0.20763049049E+03  0.21068252323E+03  0.26060746132E+01 0.  0.
         13    1    3    3    0    0 -0.68489148984E+00  0.54000692725E+01 -0.29809613476E+02  0.30302522669E+02  0.00000000000E+00 0.  1.
          3    1    3    3  501    0  0.19691360623E+01  0.30212626574E+02 -0.17782087701E+03  0.18038000056E+03  0.00000000000E+00 0.  1.
         -3    1    1    2    0  502 -0.12842445724E+01 -0.35612695847E+02 -0.79044205044E+03  0.79124493584E+03  0.00000000000E+00 0. -1.
<mgrwt>
<rscale>  1 0.30000000E+03</rscale>
<asrwt>0</asrwt>
<pdfrwt beam="1">  1       21 0.70089569E-02 0.30000000E+03</pdfrwt>
<pdfrwt beam="2">0</pdfrwt>
<totfact> 0.16099417E+04</totfact>
</mgrwt>
</event>
<event>
 6    1  0.8397183E-002  0.3000000E+03  0.7818608E-02  0.1093470E+00
         21   -1    0    0  501  502  0.00000000000E+00  0.00000000000E+00  0.21073438259E+01  0.21073438259E+01  0.00000000000E+00 0. -1.
         13   -1    0    0    0    0 -0.00000000000E+00 -0.00000000000E+00 -0.10000000000E+04  0.10000000000E+04  0.00000000000E+00 0.  1.
    9000005    2    1    2  501    0  0.29750793699E+02  0.15182678346E+02 -0.15658406385E+03  0.16013598388E+03  0.30562778941E+01 0.  0.
         13    1    3    3    0    0  0.77842142330E+01  0.25099832807E+01 -0.38870377347E+02  0.39721533737E+02  0.00000000000E+00 0.  1.
          1    1    3    3  501    0  0.21966579466E+02  0.12672695065E+02 -0.11771368650E+03  0.12041445014E+03  0.00000000000E+00 0.  1.
         -3    1    1    2    0  502 -0.29750793699E+02 -0.15182678346E+02 -0.84130859233E+03  0.84197135995E+03  0.00000000000E+00 0. -1.
<mgrwt>
<rscale>  1 0.30000000E+03</rscale>
<asrwt>0</asrwt>
<pdfrwt beam="1">  1       21 0.76630846E-02 0.30000000E+03</pdfrwt>
<pdfrwt beam="2">0</pdfrwt>
<totfact> 0.13775475E+04</totfact>
</mgrwt>
</event>
<event>
 6    1  0.8397183E-002  0.3000000E+03  0.7818608E-02  0.1093470E+00
         21   -1    0    0  501  502  0.00000000000E+00  0.00000000000E+00  0.16238514061E+01  0.16238514061E+01  0.00000000000E+00 0. -1.
         13   -1    0    0    0    0 -0.00000000000E+00 -0.00000000000E+00 -0.10000000000E+04  0.10000000000E+04  0.00000000000E+00 0.  1.
    9000005    2    1    2  501    0  0.34780546153E+02  0.47969123515E+01 -0.74407004325E+03  0.74490553890E+03  0.33668781828E+01 0.  0.
         13    1    3    3    0    0  0.50664316366E+01  0.28409139015E+00 -0.86062660408E+02  0.86212127650E+02  0.00000000000E+00 0.  1.
          1    1    3    3  501    0  0.29714114517E+02  0.45128209614E+01 -0.65800738284E+03  0.65869341125E+03  0.00000000000E+00 0.  1.
         -1    1    1    2    0  502 -0.34780546153E+02 -0.47969123515E+01 -0.25430610534E+03  0.25671831250E+03  0.00000000000E+00 0. -1.
<mgrwt>
<rscale>  1 0.30000000E+03</rscale>
<asrwt>0</asrwt>
<pdfrwt beam="1">  1       21 0.59049267E-02 0.30000000E+03</pdfrwt>
<pdfrwt beam="2">0</pdfrwt>
<totfact> 0.21660006E+04</totfact>
</mgrwt>
</event>
<event>
 6    1  0.8397183E-002  0.3000000E+03  0.7818608E-02  0.1093470E+00
         21   -1    0    0  501  502  0.00000000000E+00  0.00000000000E+00  0.12121200640E+01  0.12121200640E+01  0.00000000000E+00 0. -1.
         13   -1    0    0    0    0 -0.00000000000E+00 -0.00000000000E+00 -0.10000000000E+04  0.10000000000E+04  0.00000000000E+00 0.  1.
    9000005    2    1    2  501    0 -0.31407261858E+01 -0.30055850562E+02 -0.74681192169E+03  0.74743051740E+03  0.33337151207E+01 0.  0.
         13    1    3    3    0    0 -0.26170643730E+00 -0.16433285541E+02 -0.38418497120E+03  0.38453636169E+03  0.00000000000E+00 0.  1.
          1    1    3    3  501    0 -0.28790197485E+01 -0.13622565021E+02 -0.36262695049E+03  0.36289415571E+03  0.00000000000E+00 0.  1.
         -1    1    1    2    0  502  0.31407261858E+01  0.30055850562E+02 -0.25197595825E+03  0.25378160266E+03  0.00000000000E+00 0. -1.
<mgrwt>
<rscale>  1 0.30000000E+03</rscale>
<asrwt>0</asrwt>
<pdfrwt beam="1">  1       21 0.44077186E-02 0.30000000E+03</pdfrwt>
<pdfrwt beam="2">0</pdfrwt>
<totfact> 0.35690275E+04</totfact>
</mgrwt>
</event>
<event>
 6    1  0.8397183E-002  0.3000000E+03  0.7818608E-02  0.1093470E+00
         21   -1    0    0  501  502  0.00000000000E+00  0.00000000000E+00  0.22329334463E+01  0.22329334463E+01  0.00000000000E+00 0. -1.
         13   -1    0    0    0    0 -0.00000000000E+00 -0.00000000000E+00 -0.10000000000E+04  0.10000000000E+04  0.00000000000E+00 0.  1.
    9000005    2    1    2  501    0  0.38446426363E+02  0.27278752092E+02 -0.47571190842E+03  0.47805372158E+03  0.33590014757E+01 0.  0.
         13    1    3    3    0    0  0.36942511964E+02  0.26901817177E+02 -0.46178458938E+03  0.46404036888E+03  0.00000000000E+00 0.  1.
          3    1    3    3  501    0  0.15039143990E+01  0.37693491506E+00 -0.13927319042E+02  0.14013352709E+02  0.00000000000E+00 0.  1.
         -3    1    1    2    0  502 -0.38446426363E+02 -0.27278752092E+02 -0.52205515813E+03  0.52417921186E+03  0.00000000000E+00 0. -1.
<mgrwt>
<rscale>  1 0.30000000E+03</rscale>
<asrwt>0</asrwt>
<pdfrwt beam="1">  1       21 0.81197751E-02 0.30000000E+03</pdfrwt>
<pdfrwt beam="2">0</pdfrwt>
<totfact> 0.12444611E+04</totfact>
</mgrwt>
</event>
<event>
 6    1  0.8397183E-002  0.3000000E+03  0.7818608E-02  0.1093470E+00
         21   -1    0    0  501  502  0.00000000000E+00  0.00000000000E+00  0.36497375800E+01  0.36497375800E+01  0.00000000000E+00 0. -1.
         13   -1    0    0    0    0 -0.00000000000E+00 -0.00000000000E+00 -0.10000000000E+04  0.10000000000E+04  0.00000000000E+00 0.  1.
    9000005    2    1    2  501    0  0.57823132641E+02 -0.12289956695E+02 -0.40159834064E+03  0.40596720800E+03  0.57956071748E+01 0.  0.
         13    1    3    3    0    0  0.47249434723E+01 -0.36531783013E+00 -0.23562928260E+02  0.24034769317E+02  0.00000000000E+00 0.  1.
          1    1    3    3  501    0  0.53098189169E+02 -0.11924638865E+02 -0.37803541238E+03  0.38193243868E+03  0.00000000000E+00 0.  1.
         -1    1    1    2    0  502 -0.57823132641E+02  0.12289956695E+02 -0.59475192178E+03  0.59768252958E+03  0.00000000000E+00 0. -1.
<mgrwt>
<rscale>  1 0.30000000E+03</rscale>
<asrwt>0</asrwt>
<pdfrwt beam="1">  1       21 0.13271801E-01 0.30000000E+03</pdfrwt>
<pdfrwt beam="2">0</pdfrwt>
<totfact> 0.51577456E+03</totfact>
</mgrwt>
</event>
<event>
 6    1  0.8397183E-002  0.3000000E+03  0.7818608E-02  0.1093470E+00
         21   -1    0    0  501  502  0.00000000000E+00  0.00000000000E+00  0.13905422080E+01  0.13905422080E+01  0.00000000000E+00 0. -1.
         13   -1    0    0    0    0 -0.00000000000E+00 -0.00000000000E+00 -0.10000000000E+04  0.10000000000E+04  0.00000000000E+00 0.  1.
    9000005    2    1    2  501    0 -0.25648496667E+02  0.26818613826E+02 -0.53718040063E+03  0.53847169595E+03  0.34497953328E+01 0.  0.
         13    1    3    3    0    0 -0.25057571851E+02  0.25437682294E+02 -0.50860595467E+03  0.50985779852E+03  0.00000000000E+00 0.  1.
          3    1    3    3  501    0 -0.59092481622E+00  0.13809315319E+01 -0.28574445968E+02  0.28613897435E+02  0.00000000000E+00 0.  1.
         -3    1    1    2    0  502  0.25648496667E+02 -0.26818613826E+02 -0.46142905716E+03  0.46291884626E+03  0.00000000000E+00 0. -1.
<mgrwt>
<rscale>  1 0.30000000E+03</rscale>
<asrwt>0</asrwt>
<pdfrwt beam="1">  1       21 0.50565278E-02 0.30000000E+03</pdfrwt>
<pdfrwt beam="2">0</pdfrwt>
<totfact> 0.28257725E+04</totfact>
</mgrwt>
</event>
<event>
 6    1  0.8397183E-002  0.3000000E+03  0.7818608E-02  0.1093470E+00
         21   -1    0    0  501  502  0.00000000000E+00  0.00000000000E+00  0.16661932902E+01  0.16661932902E+01  0.00000000000E+00 0. -1.
         13   -1    0    0    0    0 -0.00000000000E+00 -0.00000000000E+00 -0.10000000000E+04  0.10000000000E+04  0.00000000000E+00 0.  1.
    9000005    2    1    2  501    0 -0.34371241275E+02 -0.21850426117E+02 -0.48085965262E+03  0.48259170586E+03  0.31505079487E+01 0.  0.
         13    1    3    3    0    0 -0.16280010616E+02 -0.11329185197E+02 -0.24983647681E+03  0.25062253356E+03  0.00000000000E+00 0.  1.
          3    1    3    3  501    0 -0.18091230660E+02 -0.10521240920E+02 -0.23102317581E+03  0.23196917230E+03  0.00000000000E+00 0.  1.
         -1    1    1    2    0  502  0.34371241275E+02  0.21850426117E+02 -0.51747415409E+03  0.51907448743E+03  0.00000000000E+00 0. -1.
<mgrwt>
<rscale>  1 0.30000000E+03</rscale>
<asrwt>0</asrwt>
<pdfrwt beam="1">  1       21 0.60588975E-02 0.30000000E+03</pdfrwt>
<pdfrwt beam="2">0</pdfrwt>
<totfact> 0.20719577E+04</totfact>
</mgrwt>
</event>
<event>
 6    1  0.8397183E-002  0.3000000E+03  0.7818608E-02  0.1093470E+00
         21   -1    0    0  501  502  0.00000000000E+00  0.00000000000E+00  0.14586115902E+01  0.14586115902E+01  0.00000000000E+00 0. -1.
         13   -1    0    0    0    0 -0.00000000000E+00 -0.00000000000E+00 -0.10000000000E+04  0.10000000000E+04  0.00000000000E+00 0.  1.
    9000005    2    1    2  501    0 -0.17976322075E+02  0.32708628051E+02 -0.40045655092E+03  0.40221035307E+03  0.38362009268E+01 0.  0.
         13    1    3    3    0    0 -0.12164639344E+02  0.19688132319E+02 -0.26296813309E+03  0.26398454505E+03  0.00000000000E+00 0.  1.
          3    1    3    3  501    0 -0.58116827312E+01  0.13020495732E+02 -0.13748841783E+03  0.13822580802E+03  0.00000000000E+00 0.  1.
         -3    1    1    2    0  502  0.17976322075E+02 -0.32708628051E+02 -0.59808483749E+03  0.59924825852E+03  0.00000000000E+00 0. -1.
<mgrwt>
<rscale>  1 0.30000000E+03</rscale>
<asrwt>0</asrwt>
<pdfrwt beam="1">  1       21 0.53040533E-02 0.30000000E+03</pdfrwt>
<pdfrwt beam="2">0</pdfrwt>
<totfact> 0.26042790E+04</totfact>
</mgrwt>
</event>
<event>
 6    1  0.8397183E-002  0.3000000E+03  0.7818608E-02  0.1093470E+00
         21   -1    0    0  501  502  0.00000000000E+00  0.00000000000E+00  0.11583835245E+02  0.11583835245E+02  0.00000000000E+00 0. -1.
         13   -1    0    0    0    0 -0.00000000000E+00 -0.00000000000E+00 -0.10000000000E+04  0.10000000000E+04  0.00000000000E+00 0.  1.
    9000005    2    1    2  501    0 -0.46802002210E+02  0.43234980881E+02 -0.86979397908E+02  0.10789808477E+03  0.41097511534E+01 0.  0.
         13    1    3    3    0    0 -0.11980616371E+01  0.14722596958E+01 -0.16306216096E+01  0.25023643084E+01  0.00000000000E+00 0.  1.
          3    1    3    3  501    0 -0.45603940573E+02  0.41762721185E+02 -0.85348776298E+02  0.10539572046E+03  0.00000000000E+00 0.  1.
         -1    1    1    2    0  502  0.46802002210E+02 -0.43234980881E+02 -0.90143676685E+03  0.90368575047E+03  0.00000000000E+00 0. -1.
<mgrwt>
<rscale>  1 0.30000000E+03</rscale>
<asrwt>0</asrwt>
<pdfrwt beam="1">  1       21 0.42123126E-01 0.30000000E+03</pdfrwt>
<pdfrwt beam="2">0</pdfrwt>
<totfact> 0.54188562E+02</totfact>
</mgrwt>
</event>
<event>
 6    1  0.1025491E-001  0.3000000E+03  0.7818608E-02  0.1093470E+00
         21   -1    0    0  501  502  0.00000000000E+00  0.00000000000E+00  0.26551043925E+01  0.26551043925E+01  0.00000000000E+00 0. -1.
         13   -1    0    0    0    0 -0.00000000000E+00 -0.00000000000E+00 -0.10000000000E+04  0.10000000000E+04  0.00000000000E+00 0.  1.
    9000005    2    1    2  501    0  0.39989639398E+02  0.30569362354E+02 -0.59678195717E+03  0.59894193292E+03  0.70055283577E+01 0.  0.
         13    1    3    3    0    0  0.27891104733E+02  0.17666991087E+02 -0.40758420622E+03  0.40891921141E+03  0.00000000000E+00 0.  1.
          3    1    3    3  501    0  0.12098534666E+02  0.12902371267E+02 -0.18919775095E+03  0.19002272151E+03  0.00000000000E+00 0.  1.
         -3    1    1    2    0  502 -0.39989639398E+02 -0.30569362354E+02 -0.40056293844E+03  0.40371317147E+03  0.00000000000E+00 0. -1.
<mgrwt>
<rscale>  1 0.30000000E+03</rscale>
<asrwt>0</asrwt>
<pdfrwt beam="1">  1       21 0.96549454E-02 0.30000000E+03</pdfrwt>
<pdfrwt beam="2">0</pdfrwt>
<totfact> 0.91597223E+03</totfact>
</mgrwt>
</event>
<event>
 6    1  0.8397183E-002  0.3000000E+03  0.7818608E-02  0.1093470E+00
         21   -1    0    0  501  502  0.00000000000E+00  0.00000000000E+00  0.54495164846E+01  0.54495164846E+01  0.00000000000E+00 0. -1.
         13   -1    0    0    0    0 -0.00000000000E+00 -0.00000000000E+00 -0.10000000000E+04  0.10000000000E+04  0.00000000000E+00 0.  1.
    9000005    2    1    2  501    0 -0.35466311807E+02  0.50704424707E+02 -0.22370723346E+03  0.23212674162E+03  0.30166070078E+01 0.  0.
         13    1    3    3    0    0 -0.35160314625E+02  0.49711757356E+02 -0.22068690952E+03  0.22893278179E+03  0.00000000000E+00 0.  1.
          3    1    3    3  501    0 -0.30599718140E+00  0.99266735060E+00 -0.30203239393E+01  0.31939598373E+01  0.00000000000E+00 0.  1.
         -1    1    1    2    0  502  0.35466311807E+02 -0.50704424707E+02 -0.77084325006E+03  0.77332277486E+03  0.00000000000E+00 0. -1.
<mgrwt>
<rscale>  1 0.30000000E+03</rscale>
<asrwt>0</asrwt>
<pdfrwt beam="1">  1       21 0.19816465E-01 0.30000000E+03</pdfrwt>
<pdfrwt beam="2">0</pdfrwt>
<totfact> 0.24417908E+03</totfact>
</mgrwt>
</event>
<event>
 6    1  0.8397183E-002  0.3000000E+03  0.7818608E-02  0.1093470E+00
         21   -1    0    0  501  502  0.00000000000E+00  0.00000000000E+00  0.13580801776E+01  0.13580801776E+01  0.00000000000E+00 0. -1.
         13   -1    0    0    0    0 -0.00000000000E+00 -0.00000000000E+00 -0.10000000000E+04  0.10000000000E+04  0.00000000000E+00 0.  1.
    9000005    2    1    2  501    0  0.33031518587E+02 -0.15779967538E+02 -0.54618819528E+03  0.54742585897E+03  0.36657622902E+01 0.  0.
         13    1    3    3    0    0  0.15795957154E+02 -0.61980982316E+01 -0.23242733012E+03  0.23304590207E+03  0.00000000000E+00 0.  1.
          3    1    3    3  501    0  0.17235561433E+02 -0.95818693065E+01 -0.31376086515E+03  0.31437995690E+03  0.00000000000E+00 0.  1.
         -1    1    1    2    0  502 -0.33031518587E+02  0.15779967538E+02 -0.45245372455E+03  0.45393222121E+03  0.00000000000E+00 0. -1.
<mgrwt>
<rscale>  1 0.30000000E+03</rscale>
<asrwt>0</asrwt>
<pdfrwt beam="1">  1       21 0.49384838E-02 0.30000000E+03</pdfrwt>
<pdfrwt beam="2">0</pdfrwt>
<totfact> 0.29418815E+04</totfact>
</mgrwt>
</event>
<event>
 6    1  0.8397183E-002  0.3000000E+03  0.7818608E-02  0.1093470E+00
         21   -1    0    0  501  502  0.00000000000E+00  0.00000000000E+00  0.25783510722E+01  0.25783510722E+01  0.00000000000E+00 0. -1.
         13   -1    0    0    0    0 -0.00000000000E+00 -0.00000000000E+00 -0.10000000000E+04  0.10000000000E+04  0.00000000000E+00 0.  1.
    9000005    2    1    2  501    0 -0.17492278083E+01 -0.50251680226E+02 -0.56408282341E+03  0.56633205726E+03  0.37783926596E+01 0.  0.
         13    1    3    3    0    0 -0.32706019729E+00 -0.44417022023E+02 -0.49642160277E+03  0.49840484198E+03  0.00000000000E+00 0.  1.
          1    1    3    3  501    0 -0.14221676110E+01 -0.58346582028E+01 -0.67661220640E+02  0.67927215279E+02  0.00000000000E+00 0.  1.
         -3    1    1    2    0  502  0.17492278083E+01  0.50251680226E+02 -0.43333882552E+03  0.43624629381E+03  0.00000000000E+00 0. -1.
<mgrwt>
<rscale>  1 0.30000000E+03</rscale>
<asrwt>0</asrwt>
<pdfrwt beam="1">  1       21 0.93758419E-02 0.30000000E+03</pdfrwt>
<pdfrwt beam="2">0</pdfrwt>
<totfact> 0.96511049E+03</totfact>
</mgrwt>
</event>
<event>
 6    1  0.8397183E-002  0.3000000E+03  0.7818608E-02  0.1093470E+00
         21   -1    0    0  501  502  0.00000000000E+00  0.00000000000E+00  0.17258780800E+01  0.17258780800E+01  0.00000000000E+00 0. -1.
         13   -1    0    0    0    0 -0.00000000000E+00 -0.00000000000E+00 -0.10000000000E+04  0.10000000000E+04  0.00000000000E+00 0.  1.
    9000005    2    1    2  501    0 -0.18184592131E+01 -0.36445099968E+02 -0.26160648120E+03  0.26415502386E+03  0.28937036686E+01 0.  0.
         13    1    3    3    0    0  0.15298815590E+00 -0.58180801000E-01 -0.10446583142E+01  0.10574031279E+01  0.00000000000E+00 0.  1.
          1    1    3    3  501    0 -0.19714473690E+01 -0.36386919167E+02 -0.26056182288E+03  0.26309762073E+03  0.00000000000E+00 0.  1.
         -3    1    1    2    0  502  0.18184592131E+01  0.36445099968E+02 -0.73666764072E+03  0.73757085422E+03  0.00000000000E+00 0. -1.
<mgrwt>
<rscale>  1 0.30000000E+03</rscale>
<asrwt>0</asrwt>
<pdfrwt beam="1">  1       21 0.62759335E-02 0.30000000E+03</pdfrwt>
<pdfrwt beam="2">0</pdfrwt>
<totfact> 0.19497960E+04</totfact>
</mgrwt>
</event>
<event>
 6    1  0.8397183E-002  0.3000000E+03  0.7818608E-02  0.1093470E+00
         21   -1    0    0  501  502  0.00000000000E+00  0.00000000000E+00  0.83260150538E+01  0.83260150538E+01  0.00000000000E+00 0. -1.
         13   -1    0    0    0    0 -0.00000000000E+00 -0.00000000000E+00 -0.10000000000E+04  0.10000000000E+04  0.00000000000E+00 0.  1.
    9000005    2    1    2  501    0  0.83645458693E+02 -0.31911109996E+02 -0.59128706264E+03  0.59805224152E+03  0.55867192996E+01 0.  0.
         13    1    3    3    0    0  0.41804134532E+01 -0.28871563876E+01 -0.36533239645E+02  0.36884808900E+02  0.00000000000E+00 0.  1.
          1    1    3    3  501    0  0.79465045240E+02 -0.29023953609E+02 -0.55475382300E+03  0.56116743262E+03  0.00000000000E+00 0.  1.
         -1    1    1    2    0  502 -0.83645458693E+02  0.31911109996E+02 -0.40038692230E+03  0.41027377354E+03  0.00000000000E+00 0. -1.
<mgrwt>
<rscale>  1 0.30000000E+03</rscale>
<asrwt>0</asrwt>
<pdfrwt beam="1">  1       21 0.30276482E-01 0.30000000E+03</pdfrwt>
<pdfrwt beam="2">0</pdfrwt>
<totfact> 0.10674947E+03</totfact>
</mgrwt>
</event>
<event>
 6    1  0.8397183E-002  0.3000000E+03  0.7818608E-02  0.1093470E+00
         21   -1    0    0  501  502  0.00000000000E+00  0.00000000000E+00  0.27150148381E+01  0.27150148381E+01  0.00000000000E+00 0. -1.
         13   -1    0    0    0    0 -0.00000000000E+00 -0.00000000000E+00 -0.10000000000E+04  0.10000000000E+04  0.00000000000E+00 0.  1.
    9000005    2    1    2  501    0 -0.22357428391E+02  0.44844998516E+02 -0.36342194889E+03  0.36687440804E+03  0.32233285027E+01 0.  0.
         13    1    3    3    0    0 -0.18231479614E+02  0.37463960909E+02 -0.31000141147E+03  0.31278876311E+03  0.00000000000E+00 0.  1.
          1    1    3    3  501    0 -0.41259487770E+01  0.73810376068E+01 -0.53420537423E+02  0.54085644935E+02  0.00000000000E+00 0.  1.
         -3    1    1    2    0  502  0.22357428391E+02 -0.44844998516E+02 -0.63386303627E+03  0.63584060679E+03  0.00000000000E+00 0. -1.
<mgrwt>
<rscale>  1 0.30000000E+03</rscale>
<asrwt>0</asrwt>
<pdfrwt beam="1">  1       21 0.98728020E-02 0.30000000E+03</pdfrwt>
<pdfrwt beam="2">0</pdfrwt>
<totfact> 0.88021795E+03</totfact>
</mgrwt>
</event>
<event>
 6    1  0.8397183E-002  0.3000000E+03  0.7818608E-02  0.1093470E+00
         21   -1    0    0  501  502  0.00000000000E+00  0.00000000000E+00  0.37061962256E+01  0.37061962256E+01  0.00000000000E+00 0. -1.
         13   -1    0    0    0    0 -0.00000000000E+00 -0.00000000000E+00 -0.10000000000E+04  0.10000000000E+04  0.00000000000E+00 0.  1.
    9000005    2    1    2  501    0 -0.22634781127E+02 -0.23848127975E+02 -0.91986478890E+03  0.92050486908E+03  0.98446742620E+01 0.  0.
         13    1    3    3    0    0 -0.90102224328E+01 -0.57714384576E+01 -0.20191271874E+03  0.20219604249E+03  0.00000000000E+00 0.  1.
          1    1    3    3  501    0 -0.13624558695E+02 -0.18076689518E+02 -0.71795207016E+03  0.71830882659E+03  0.00000000000E+00 0.  1.
         -3    1    1    2    0  502  0.22634781127E+02  0.23848127975E+02 -0.76429014871E+02  0.83201327145E+02  0.00000000000E+00 0. -1.
<mgrwt>
<rscale>  1 0.30000000E+03</rscale>
<asrwt>0</asrwt>
<pdfrwt beam="1">  1       21 0.13477106E-01 0.30000000E+03</pdfrwt>
<pdfrwt beam="2">0</pdfrwt>
<totfact> 0.50148651E+03</totfact>
</mgrwt>
</event>
<event>
 6    1  0.8397183E-002  0.3000000E+03  0.7818608E-02  0.1093470E+00
         21   -1    0    0  501  502  0.00000000000E+00  0.00000000000E+00  0.17459617536E+01  0.17459617536E+01  0.00000000000E+00 0. -1.
         13   -1    0    0    0    0 -0.00000000000E+00 -0.00000000000E+00 -0.10000000000E+04  0.10000000000E+04  0.00000000000E+00 0.  1.
    9000005    2    1    2  501    0  0.37535110384E+01  0.41533015111E+02 -0.49061469733E+03  0.49239659184E+03  0.35415005710E+01 0.  0.
         13    1    3    3    0    0 -0.45167708472E+00  0.50206030433E+01 -0.68122539805E+02  0.68308790771E+02  0.00000000000E+00 0.  1.
          3    1    3    3  501    0  0.42051881231E+01  0.36512412068E+02 -0.42249215753E+03  0.42408780107E+03  0.00000000000E+00 0.  1.
         -1    1    1    2    0  502 -0.37535110384E+01 -0.41533015111E+02 -0.50763934091E+03  0.50934936992E+03  0.00000000000E+00 0. -1.
<mgrwt>
<rscale>  1 0.30000000E+03</rscale>
<asrwt>0</asrwt>
<pdfrwt beam="1">  1       21 0.63489652E-02 0.30000000E+03</pdfrwt>
<pdfrwt beam="2">0</pdfrwt>
<totfact> 0.19111888E+04</totfact>
</mgrwt>
</event>
<event>
 6    1  0.1293894E-001  0.3000000E+03  0.7818608E-02  0.1093470E+00
         21   -1    0    0  501  502  0.00000000000E+00  0.00000000000E+00  0.17246724906E+01  0.17246724906E+01  0.00000000000E+00 0. -1.
         13   -1    0    0    0    0 -0.00000000000E+00 -0.00000000000E+00 -0.10000000000E+04  0.10000000000E+04  0.00000000000E+00 0.  1.
    9000005    2    1    2  501    0  0.39866727944E+02 -0.43338600841E+00 -0.39336854734E+03  0.39550544109E+03  0.98079599347E+01 0.  0.
         13    1    3    3    0    0  0.68008440518E+01  0.24247035213E+01 -0.47131513714E+02  0.47681340710E+02  0.00000000000E+00 0.  1.
          3    1    3    3  501    0  0.33065883892E+02 -0.28580895297E+01 -0.34623703362E+03  0.34782410038E+03  0.00000000000E+00 0.  1.
         -3    1    1    2    0  502 -0.39866727944E+02  0.43338600841E+00 -0.60490678017E+03  0.60621923140E+03  0.00000000000E+00 0. -1.
<mgrwt>
<rscale>  1 0.30000000E+03</rscale>
<asrwt>0</asrwt>
<pdfrwt beam="1">  1       21 0.62715496E-02 0.30000000E+03</pdfrwt>
<pdfrwt beam="2">0</pdfrwt>
<totfact> 0.19521519E+04</totfact>
</mgrwt>
</event>
<event>
 6    1  0.8397183E-002  0.3000000E+03  0.7818608E-02  0.1093470E+00
         21   -1    0    0  501  502  0.00000000000E+00  0.00000000000E+00  0.14583868615E+01  0.14583868615E+01  0.00000000000E+00 0. -1.
         13   -1    0    0    0    0 -0.00000000000E+00 -0.00000000000E+00 -0.10000000000E+04  0.10000000000E+04  0.00000000000E+00 0.  1.
    9000005    2    1    2  501    0  0.22806053594E+02 -0.21003281537E+02 -0.21110815352E+03  0.21341479210E+03  0.42387603332E+01 0.  0.
         13    1    3    3    0    0  0.89449816137E+00 -0.22959187686E+01 -0.14813651355E+02  0.15017178045E+02  0.00000000000E+00 0.  1.
          1    1    3    3  501    0  0.21911555432E+02 -0.18707362768E+02 -0.19629450217E+03  0.19839761406E+03  0.00000000000E+00 0.  1.
         -1    1    1    2    0  502 -0.22806053594E+02  0.21003281537E+02 -0.78743345962E+03  0.78804359476E+03  0.00000000000E+00 0. -1.
<mgrwt>
<rscale>  1 0.30000000E+03</rscale>
<asrwt>0</asrwt>
<pdfrwt beam="1">  1       21 0.53032361E-02 0.30000000E+03</pdfrwt>
<pdfrwt beam="2">0</pdfrwt>
<totfact> 0.26049654E+04</totfact>
</mgrwt>
</event>
<event>
 6    1  0.8397183E-002  0.3000000E+03  0.7818608E-02  0.1093470E+00
         21   -1    0    0  501  502  0.00000000000E+00  0.00000000000E+00  0.58629056071E+01  0.58629056071E+01  0.00000000000E+00 0. -1.
         13   -1    0    0    0    0 -0.00000000000E+00 -0.00000000000E+00 -0.10000000000E+04  0.10000000000E+04  0.00000000000E+00 0.  1.
    9000005    2    1    2  501    0 -0.75022482354E+00 -0.75837087273E+02 -0.42969337453E+03  0.43634684829E+03  0.32170264001E+01 0.  0.
         13    1    3    3    0    0  0.26360729041E-01 -0.64905496811E+02 -0.37268924148E+03  0.37829881698E+03  0.00000000000E+00 0.  1.
          3    1    3    3  501    0 -0.77658555258E+00 -0.10931590463E+02 -0.57004133042E+02  0.58048031311E+02  0.00000000000E+00 0.  1.
         -1    1    1    2    0  502  0.75022482354E+00  0.75837087273E+02 -0.56444371987E+03  0.56951605732E+03  0.00000000000E+00 0. -1.
<mgrwt>
<rscale>  1 0.30000000E+03</rscale>
<asrwt>0</asrwt>
<pdfrwt beam="1">  1       21 0.21319702E-01 0.30000000E+03</pdfrwt>
<pdfrwt beam="2">0</pdfrwt>
<totfact> 0.21229937E+03</totfact>
</mgrwt>
</event>
<event>
 6    1  0.8397183E-002  0.3000000E+03  0.7818608E-02  0.1093470E+00
         21   -1    0    0  501  502  0.00000000000E+00  0.00000000000E+00  0.39218138087E+01  0.39218138087E+01  0.00000000000E+00 0. -1.
         13   -1    0    0    0    0 -0.00000000000E+00 -0.00000000000E+00 -0.10000000000E+04  0.10000000000E+04  0.00000000000E+00 0.  1.
    9000005    2    1    2  501    0 -0.44992603894E+02 -0.41982615643E+02 -0.58990612420E+03  0.59311453738E+03  0.29571381444E+01 0.  0.
         13    1    3    3    0    0 -0.74202376644E+01 -0.69199796519E+01 -0.87144543464E+02  0.87733217774E+02  0.00000000000E+00 0.  1.
          1    1    3    3  501    0 -0.37572366230E+02 -0.35062635991E+02 -0.50276158073E+03  0.50538131961E+03  0.00000000000E+00 0.  1.
         -1    1    1    2    0  502  0.44992603894E+02  0.41982615643E+02 -0.40617206200E+03  0.41080727643E+03  0.00000000000E+00 0. -1.
<mgrwt>
<rscale>  1 0.30000000E+03</rscale>
<asrwt>0</asrwt>
<pdfrwt beam="1">  1       21 0.14261171E-01 0.30000000E+03</pdfrwt>
<pdfrwt beam="2">0</pdfrwt>
<totfact> 0.45203871E+03</totfact>
</mgrwt>
</event>
<event>
 6    1  0.8397183E-002  0.3000000E+03  0.7818608E-02  0.1093470E+00
         21   -1    0    0  501  502  0.00000000000E+00  0.00000000000E+00  0.23762912785E+01  0.23762912785E+01  0.00000000000E+00 0. -1.
         13   -1    0    0    0    0 -0.00000000000E+00 -0.00000000000E+00 -0.10000000000E+04  0.10000000000E+04  0.00000000000E+00 0.  1.
    9000005    2    1    2  501    0  0.37693381026E+02  0.28279096934E+02 -0.37333387295E+03  0.37631056203E+03  0.33106047912E+01 0.  0.
         13    1    3    3    0    0  0.14276638536E+02  0.12610344236E+02 -0.14604389035E+03  0.14728089183E+03  0.00000000000E+00 0.  1.
          3    1    3    3  501    0  0.23416742489E+02  0.15668752699E+02 -0.22728998260E+03  0.22902967020E+03  0.00000000000E+00 0.  1.
         -3    1    1    2    0  502 -0.37693381026E+02 -0.28279096934E+02 -0.62428983577E+03  0.62606572925E+03  0.00000000000E+00 0. -1.
<mgrwt>
<rscale>  1 0.30000000E+03</rscale>
<asrwt>0</asrwt>
<pdfrwt beam="1">  1       21 0.86410774E-02 0.30000000E+03</pdfrwt>
<pdfrwt beam="2">0</pdfrwt>
<totfact> 0.11152585E+04</totfact>
</mgrwt>
</event>
<event>
 6    1  0.8397183E-002  0.3000000E+03  0.7818608E-02  0.1093470E+00
         21   -1    0    0  501  502  0.00000000000E+00  0.00000000000E+00  0.30932418134E+01  0.30932418134E+01  0.00000000000E+00 0. -1.
         13   -1    0    0    0    0 -0.00000000000E+00 -0.00000000000E+00 -0.10000000000E+04  0.10000000000E+04  0.00000000000E+00 0.  1.
    9000005    2    1    2  501    0  0.91928584586E+01 -0.36590892533E+02 -0.13104605312E+03  0.13641096863E+03  0.33885487504E+01 0.  0.
         13    1    3    3    0    0  0.15787620583E+01 -0.35403054306E+01 -0.16498274945E+02  0.16947546381E+02  0.00000000000E+00 0.  1.
          1    1    3    3  501    0  0.76140964003E+01 -0.33050587102E+02 -0.11454777817E+03  0.11946342225E+03  0.00000000000E+00 0.  1.
         -3    1    1    2    0  502 -0.91928584586E+01  0.36590892533E+02 -0.86586070507E+03  0.86668227318E+03  0.00000000000E+00 0. -1.
<mgrwt>
<rscale>  1 0.30000000E+03</rscale>
<asrwt>0</asrwt>
<pdfrwt beam="1">  1       21 0.11248176E-01 0.30000000E+03</pdfrwt>
<pdfrwt beam="2">0</pdfrwt>
<totfact> 0.69664177E+03</totfact>
</mgrwt>
</event>
<event>
 6    1  0.8397183E-002  0.3000000E+03  0.7818608E-02  0.1093470E+00
         21   -1    0    0  501  502  0.00000000000E+00  0.00000000000E+00  0.22233120269E+01  0.22233120269E+01  0.00000000000E+00 0. -1.
         13   -1    0    0    0    0 -0.00000000000E+00 -0.00000000000E+00 -0.10000000000E+04  0.10000000000E+04  0.00000000000E+00 0.  1.
    9000005    2    1    2  501    0  0.39345042232E+02 -0.25183824071E+02 -0.43627022532E+03  0.43877698366E+03  0.33577597442E+01 0.  0.
         13    1    3    3    0    0  0.28492595173E+01 -0.22706581091E+01 -0.42490278867E+02  0.42646195214E+02  0.00000000000E+00 0.  1.
          1    1    3    3  501    0  0.36495782714E+02 -0.22913165961E+02 -0.39377994645E+03  0.39613078845E+03  0.00000000000E+00 0.  1.
         -3    1    1    2    0  502 -0.39345042232E+02  0.25183824071E+02 -0.56150646266E+03  0.56344632837E+03  0.00000000000E+00 0. -1.
<mgrwt>
<rscale>  1 0.30000000E+03</rscale>
<asrwt>0</asrwt>
<pdfrwt beam="1">  1       21 0.80847881E-02 0.30000000E+03</pdfrwt>
<pdfrwt beam="2">0</pdfrwt>
<totfact> 0.12539430E+04</totfact>
</mgrwt>
</event>
<event>
 6    1  0.8397183E-002  0.3000000E+03  0.7818608E-02  0.1093470E+00
         21   -1    0    0  501  502  0.00000000000E+00  0.00000000000E+00  0.28457703882E+01  0.28457703882E+01  0.00000000000E+00 0. -1.
         13   -1    0    0    0    0 -0.00000000000E+00 -0.00000000000E+00 -0.10000000000E+04  0.10000000000E+04  0.00000000000E+00 0.  1.
    9000005    2    1    2  501    0 -0.29839594084E+02 -0.29214790011E+02 -0.81040558527E+03  0.81148495545E+03  0.25913228184E+01 0.  0.
         13    1    3    3    0    0 -0.17809937260E+02 -0.17365319982E+02 -0.45777790006E+03  0.45845321898E+03  0.00000000000E+00 0.  1.
          1    1    3    3  501    0 -0.12029656824E+02 -0.11849470029E+02 -0.35262768521E+03  0.35303173647E+03  0.00000000000E+00 0.  1.
         -3    1    1    2    0  502  0.29839594084E+02  0.29214790011E+02 -0.18674864434E+03  0.19136081494E+03  0.00000000000E+00 0. -1.
<mgrwt>
<rscale>  1 0.30000000E+03</rscale>
<asrwt>0</asrwt>
<pdfrwt beam="1">  1       21 0.10348278E-01 0.30000000E+03</pdfrwt>
<pdfrwt beam="2">0</pdfrwt>
<totfact> 0.80921653E+03</totfact>
</mgrwt>
</event>
<event>
 6    1  0.8397183E-002  0.3000000E+03  0.7818608E-02  0.1093470E+00
         21   -1    0    0  501  502  0.00000000000E+00  0.00000000000E+00  0.12094445780E+01  0.12094445780E+01  0.00000000000E+00 0. -1.
         13   -1    0    0    0    0 -0.00000000000E+00 -0.00000000000E+00 -0.10000000000E+04  0.10000000000E+04  0.00000000000E+00 0.  1.
    9000005    2    1    2  501    0 -0.34065639638E+02  0.60178271337E+01 -0.46589841591E+03  0.46719566722E+03  0.37115334430E+01 0.  0.
         13    1    3    3    0    0 -0.25304877197E+02  0.59848508860E+01 -0.35641492227E+03  0.35736221410E+03  0.00000000000E+00 0.  1.
          1    1    3    3  501    0 -0.87607624416E+01  0.32976247712E-01 -0.10948349364E+03  0.10983345312E+03  0.00000000000E+00 0.  1.
         -3    1    1    2    0  502  0.34065639638E+02 -0.60178271337E+01 -0.53289213951E+03  0.53401377735E+03  0.00000000000E+00 0. -1.
<mgrwt>
<rscale>  1 0.30000000E+03</rscale>
<asrwt>0</asrwt>
<pdfrwt beam="1">  1       21 0.43979896E-02 0.30000000E+03</pdfrwt>
<pdfrwt beam="2">0</pdfrwt>
<totfact> 0.35824127E+04</totfact>
</mgrwt>
</event>
<event>
 6    1  0.8397183E-002  0.3000000E+03  0.7818608E-02  0.1093470E+00
         21   -1    0    0  501  502  0.00000000000E+00  0.00000000000E+00  0.14318784145E+01  0.14318784145E+01  0.00000000000E+00 0. -1.
         13   -1    0    0    0    0 -0.00000000000E+00 -0.00000000000E+00 -0.10000000000E+04  0.10000000000E+04  0.00000000000E+00 0.  1.
    9000005    2    1    2  501    0  0.13539225670E+02  0.29917088308E+02 -0.25699068173E+03  0.25912773448E+03  0.49628091286E+01 0.  0.
         13    1    3    3    0    0  0.13468348172E+01  0.65669202954E+01 -0.42468539715E+02  0.42994363255E+02  0.00000000000E+00 0.  1.
          1    1    3    3  501    0  0.12192390853E+02  0.23350168012E+02 -0.21452214202E+03  0.21613337122E+03  0.00000000000E+00 0.  1.
         -1    1    1    2    0  502 -0.13539225670E+02 -0.29917088308E+02 -0.74157743985E+03  0.74230414394E+03  0.00000000000E+00 0. -1.
<mgrwt>
<rscale>  1 0.30000000E+03</rscale>
<asrwt>0</asrwt>
<pdfrwt beam="1">  1       21 0.52068416E-02 0.30000000E+03</pdfrwt>
<pdfrwt beam="2">0</pdfrwt>
<totfact> 0.26879437E+04</totfact>
</mgrwt>
</event>
<event>
 6    1  0.8397183E-002  0.3000000E+03  0.7818608E-02  0.1093470E+00
         21   -1    0    0  501  502  0.00000000000E+00  0.00000000000E+00  0.28379962348E+01  0.28379962348E+01  0.00000000000E+00 0. -1.
         13   -1    0    0    0    0 -0.00000000000E+00 -0.00000000000E+00 -0.10000000000E+04  0.10000000000E+04  0.00000000000E+00 0.  1.
    9000005    2    1    2  501    0  0.63075406528E+01 -0.40534276712E+02 -0.18006229334E+03  0.18470918643E+03  0.34987727408E+01 0.  0.
         13    1    3    3    0    0  0.21613066961E+01 -0.14034149356E+02 -0.55057903537E+02  0.56859487657E+02  0.00000000000E+00 0.  1.
          3    1    3    3  501    0  0.41462339568E+01 -0.26500127356E+02 -0.12500438980E+03  0.12784969877E+03  0.00000000000E+00 0.  1.
         -1    1    1    2    0  502 -0.63075406528E+01  0.40534276712E+02 -0.81709971043E+03  0.81812880981E+03  0.00000000000E+00 0. -1.
<mgrwt>
<rscale>  1 0.30000000E+03</rscale>
<asrwt>0</asrwt>
<pdfrwt beam="1">  1       21 0.10320008E-01 0.30000000E+03</pdfrwt>
<pdfrwt beam="2">0</pdfrwt>
<totfact> 0.81318998E+03</totfact>
</mgrwt>
</event>
<event>
 6    1  0.8397183E-002  0.3000000E+03  0.7818608E-02  0.1093470E+00
         21   -1    0    0  501  502  0.00000000000E+00  0.00000000000E+00  0.24388605526E+01  0.24388605526E+01  0.00000000000E+00 0. -1.
         13   -1    0    0    0    0 -0.00000000000E+00 -0.00000000000E+00 -0.10000000000E+04  0.10000000000E+04  0.00000000000E+00 0.  1.
    9000005    2    1    2  501    0  0.95497516065E+01 -0.47871484612E+02 -0.57248015874E+03  0.57456420957E+03  0.27607920187E+01 0.  0.
         13    1    3    3    0    0  0.47536383319E+01 -0.23413092466E+02 -0.26400978903E+03  0.26508854875E+03  0.00000000000E+00 0.  1.
          3    1    3    3  501    0  0.47961132746E+01 -0.24458392146E+02 -0.30847036970E+03  0.30947566081E+03  0.00000000000E+00 0.  1.
         -1    1    1    2    0  502 -0.95497516065E+01  0.47871484612E+02 -0.42508098071E+03  0.42787465099E+03  0.00000000000E+00 0. -1.
<mgrwt>
<rscale>  1 0.30000000E+03</rscale>
<asrwt>0</asrwt>
<pdfrwt beam="1">  1       21 0.88686025E-02 0.30000000E+03</pdfrwt>
<pdfrwt beam="2">0</pdfrwt>
<totfact> 0.10651876E+04</totfact>
</mgrwt>
</event>
<event>
 6    1  0.8397183E-002  0.3000000E+03  0.7818608E-02  0.1093470E+00
         21   -1    0    0  501  502  0.00000000000E+00  0.00000000000E+00  0.99016716003E+00  0.99016716003E+00  0.00000000000E+00 0. -1.
         13   -1    0    0    0    0 -0.00000000000E+00 -0.00000000000E+00 -0.10000000000E+04  0.10000000000E+04  0.00000000000E+00 0.  1.
    9000005    2    1    2  501    0  0.35408321630E+01  0.30494232766E+02 -0.59438457224E+03  0.59520199922E+03  0.54739779359E+01 0.  0.
         13    1    3    3    0    0 -0.63302804195E+00  0.33230057924E+00 -0.10849970102E+02  0.10873499869E+02  0.00000000000E+00 0.  1.
          3    1    3    3  501    0  0.41738602050E+01  0.30161932186E+02 -0.58353460213E+03  0.58432849935E+03  0.00000000000E+00 0.  1.
         -3    1    1    2    0  502 -0.35408321630E+01 -0.30494232766E+02 -0.40462526060E+03  0.40578816794E+03  0.00000000000E+00 0. -1.
<mgrwt>
<rscale>  1 0.30000000E+03</rscale>
<asrwt>0</asrwt>
<pdfrwt beam="1">  1       21 0.36006154E-02 0.30000000E+03</pdfrwt>
<pdfrwt beam="2">0</pdfrwt>
<totfact> 0.50175926E+04</totfact>
</mgrwt>
</event>
<event>
 6    1  0.8397183E-002  0.3000000E+03  0.7818608E-02  0.1093470E+00
         21   -1    0    0  501  502  0.00000000000E+00  0.00000000000E+00  0.10366586360E+01  0.10366586360E+01  0.00000000000E+00 0. -1.
         13   -1    0    0    0    0 -0.00000000000E+00 -0.00000000000E+00 -0.10000000000E+04  0.10000000000E+04  0.00000000000E+00 0.  1.
    9000005    2    1    2  501    0 -0.28990634649E+02 -0.87671927985E+01 -0.33594911017E+03  0.33733100751E+03  0.36171036402E+01 0.  0.
         13    1    3    3    0    0 -0.17793140548E+02 -0.59624696909E+01 -0.18906355040E+03  0.18999256034E+03  0.00000000000E+00 0.  1.
          3    1    3    3  501    0 -0.11197494101E+02 -0.28047231076E+01 -0.14688555977E+03  0.14733844717E+03  0.00000000000E+00 0.  1.
         -1    1    1    2    0  502  0.28990634649E+02  0.87671927985E+01 -0.66301423120E+03  0.66370565113E+03  0.00000000000E+00 0. -1.
<mgrwt>
<rscale>  1 0.30000000E+03</rscale>
<asrwt>0</asrwt>
<pdfrwt beam="1">  1       21 0.37696757E-02 0.30000000E+03</pdfrwt>
<pdfrwt beam="2">0</pdfrwt>
<totfact> 0.46457173E+04</totfact>
</mgrwt>
</event>
<event>
 6    1  0.8397183E-002  0.3000000E+03  0.7818608E-02  0.1093470E+00
         21   -1    0    0  501  502  0.00000000000E+00  0.00000000000E+00  0.16092717742E+01  0.16092717742E+01  0.00000000000E+00 0. -1.
         13   -1    0    0    0    0 -0.00000000000E+00 -0.00000000000E+00 -0.10000000000E+04  0.10000000000E+04  0.00000000000E+00 0.  1.
    9000005    2    1    2  501    0 -0.58619834574E+01 -0.34537261394E+02 -0.74091702454E+03  0.74176336867E+03  0.52604715081E+01 0.  0.
         13    1    3    3    0    0 -0.39006949306E+01 -0.20198869539E+02 -0.38019954178E+03  0.38075569769E+03  0.00000000000E+00 0.  1.
          3    1    3    3  501    0 -0.19612885268E+01 -0.14338391855E+02 -0.36071748276E+03  0.36100767098E+03  0.00000000000E+00 0.  1.
         -3    1    1    2    0  502  0.58619834574E+01  0.34537261394E+02 -0.25747370368E+03  0.25984590311E+03  0.00000000000E+00 0. -1.
<mgrwt>
<rscale>  1 0.30000000E+03</rscale>
<asrwt>0</asrwt>
<pdfrwt beam="1">  1       21 0.58519097E-02 0.30000000E+03</pdfrwt>
<pdfrwt beam="2">0</pdfrwt>
<totfact> 0.21999289E+04</totfact>
</mgrwt>
</event>
<event>
 6    1  0.8397183E-002  0.3000000E+03  0.7818608E-02  0.1093470E+00
         21   -1    0    0  501  502  0.00000000000E+00  0.00000000000E+00  0.12756107711E+01  0.12756107711E+01  0.00000000000E+00 0. -1.
         13   -1    0    0    0    0 -0.00000000000E+00 -0.00000000000E+00 -0.10000000000E+04  0.10000000000E+04  0.00000000000E+00 0.  1.
    9000005    2    1    2  501    0 -0.62002519358E+01 -0.32838293714E+02 -0.35332787857E+03  0.35501447730E+03  0.88256820255E+01 0.  0.
         13    1    3    3    0    0 -0.24644249532E+00 -0.40459511068E+00 -0.31116065360E+02  0.31119671506E+02  0.00000000000E+00 0.  1.
          1    1    3    3  501    0 -0.59538094405E+01 -0.32433698604E+02 -0.32221181321E+03  0.32389480580E+03  0.00000000000E+00 0.  1.
         -3    1    1    2    0  502  0.62002519358E+01  0.32838293714E+02 -0.64539651066E+03  0.64626113347E+03  0.00000000000E+00 0. -1.
<mgrwt>
<rscale>  1 0.30000000E+03</rscale>
<asrwt>0</asrwt>
<pdfrwt beam="1">  1       21 0.46385944E-02 0.30000000E+03</pdfrwt>
<pdfrwt beam="2">0</pdfrwt>
<totfact> 0.32727835E+04</totfact>
</mgrwt>
</event>
<event>
 6    1  0.8397183E-002  0.3000000E+03  0.7818608E-02  0.1093470E+00
         21   -1    0    0  501  502  0.00000000000E+00  0.00000000000E+00  0.22296772125E+01  0.22296772125E+01  0.00000000000E+00 0. -1.
         13   -1    0    0    0    0 -0.00000000000E+00 -0.00000000000E+00 -0.10000000000E+04  0.10000000000E+04  0.00000000000E+00 0.  1.
    9000005    2    1    2  501    0 -0.32270549326E+02  0.15524335688E+02 -0.17375040824E+03  0.17743199722E+03  0.32428260997E+01 0.  0.
         13    1    3    3    0    0 -0.10160940151E+01 -0.22715366969E-01 -0.63339922934E+01  0.64150153085E+01  0.00000000000E+00 0.  1.
          3    1    3    3  501    0 -0.31254455311E+02  0.15547051055E+02 -0.16741641595E+03  0.17101698191E+03  0.00000000000E+00 0.  1.
         -3    1    1    2    0  502  0.32270549326E+02 -0.15524335688E+02 -0.82401991454E+03  0.82479767999E+03  0.00000000000E+00 0. -1.
<mgrwt>
<rscale>  1 0.30000000E+03</rscale>
<asrwt>0</asrwt>
<pdfrwt beam="1">  1       21 0.81079342E-02 0.30000000E+03</pdfrwt>
<pdfrwt beam="2">0</pdfrwt>
<totfact> 0.12476578E+04</totfact>
</mgrwt>
</event>
<event>
 6    1  0.8397183E-002  0.3000000E+03  0.7818608E-02  0.1093470E+00
         21   -1    0    0  501  502  0.00000000000E+00  0.00000000000E+00  0.12660727837E+01  0.12660727837E+01  0.00000000000E+00 0. -1.
         13   -1    0    0    0    0 -0.00000000000E+00 -0.00000000000E+00 -0.10000000000E+04  0.10000000000E+04  0.00000000000E+00 0.  1.
    9000005    2    1    2  501    0  0.32410062885E+02 -0.25395227165E+01 -0.29839885611E+03  0.30017686793E+03  0.27227478923E+01 0.  0.
         13    1    3    3    0    0  0.17700107388E+02 -0.77648506620E+00 -0.17358364128E+03  0.17448546429E+03  0.00000000000E+00 0.  1.
          1    1    3    3  501    0  0.14709955497E+02 -0.17630376503E+01 -0.12481521483E+03  0.12569140363E+03  0.00000000000E+00 0.  1.
         -3    1    1    2    0  502 -0.32410062885E+02  0.25395227165E+01 -0.70033507110E+03  0.70108920486E+03  0.00000000000E+00 0. -1.
<mgrwt>
<rscale>  1 0.30000000E+03</rscale>
<asrwt>0</asrwt>
<pdfrwt beam="1">  1       21 0.46039107E-02 0.30000000E+03</pdfrwt>
<pdfrwt beam="2">0</pdfrwt>
<totfact> 0.33147891E+04</totfact>
</mgrwt>
</event>
<event>
 6    1  0.8397183E-002  0.3000000E+03  0.7818608E-02  0.1093470E+00
         21   -1    0    0  501  502  0.00000000000E+00  0.00000000000E+00  0.14090468175E+02  0.14090468175E+02  0.00000000000E+00 0. -1.
         13   -1    0    0    0    0 -0.00000000000E+00 -0.00000000000E+00 -0.10000000000E+04  0.10000000000E+04  0.00000000000E+00 0.  1.
    9000005    2    1    2  501    0 -0.61536541237E+02 -0.98860127626E+02 -0.39570494565E+03  0.41250795157E+03  0.45094740247E+01 0.  0.
         13    1    3    3    0    0 -0.36265027881E+02 -0.56197959764E+02 -0.22031857025E+03  0.23024690080E+03  0.00000000000E+00 0.  1.
          3    1    3    3  501    0 -0.25271513356E+02 -0.42662167862E+02 -0.17538637540E+03  0.18226105078E+03  0.00000000000E+00 0.  1.
         -3    1    1    2    0  502  0.61536541237E+02  0.98860127626E+02 -0.59020458618E+03  0.60158251660E+03  0.00000000000E+00 0. -1.
<mgrwt>
<rscale>  1 0.30000000E+03</rscale>
<asrwt>0</asrwt>
<pdfrwt beam="1">  1       21 0.51238174E-01 0.30000000E+03</pdfrwt>
<pdfrwt beam="2">0</pdfrwt>
<totfact> 0.35626876E+02</totfact>
</mgrwt>
</event>
<event>
 6    1  0.8397183E-002  0.3000000E+03  0.7818608E-02  0.1093470E+00
         21   -1    0    0  501  502  0.00000000000E+00  0.00000000000E+00  0.11901195787E+01  0.11901195787E+01  0.00000000000E+00 0. -1.
         13   -1    0    0    0    0 -0.00000000000E+00 -0.00000000000E+00 -0.10000000000E+04  0.10000000000E+04  0.00000000000E+00 0.  1.
    9000005    2    1    2  501    0 -0.18350759957E+02 -0.29145466649E+02 -0.49746008022E+03  0.49865869690E+03  0.27849532562E+01 0.  0.
         13    1    3    3    0    0 -0.23594298821E+01 -0.57500235012E+01 -0.89205037247E+02  0.89421296960E+02  0.00000000000E+00 0.  1.
          1    1    3    3  501    0 -0.15991330075E+02 -0.23395443148E+02 -0.40825504297E+03  0.40923739994E+03  0.00000000000E+00 0.  1.
         -3    1    1    2    0  502  0.18350759957E+02  0.29145466649E+02 -0.50134980020E+03  0.50253142268E+03  0.00000000000E+00 0. -1.
<mgrwt>
<rscale>  1 0.30000000E+03</rscale>
<asrwt>0</asrwt>
<pdfrwt beam="1">  1       21 0.43277167E-02 0.30000000E+03</pdfrwt>
<pdfrwt beam="2">0</pdfrwt>
<totfact> 0.36814444E+04</totfact>
</mgrwt>
</event>
<event>
 6    1  0.8397183E-002  0.3000000E+03  0.7818608E-02  0.1093470E+00
         21   -1    0    0  501  502  0.00000000000E+00  0.00000000000E+00  0.22472973861E+01  0.22472973861E+01  0.00000000000E+00 0. -1.
         13   -1    0    0    0    0 -0.00000000000E+00 -0.00000000000E+00 -0.10000000000E+04  0.10000000000E+04  0.00000000000E+00 0.  1.
    9000005    2    1    2  501    0  0.81167906238E+01  0.42691788887E+02 -0.30195042940E+03  0.30508929912E+03  0.41167338860E+01 0.  0.
         13    1    3    3    0    0  0.78194459228E+01  0.41775153308E+02 -0.29835750048E+03  0.30136938342E+03  0.00000000000E+00 0.  1.
          1    1    3    3  501    0  0.29734470096E+00  0.91663557925E+00 -0.35929289123E+01  0.37199157014E+01  0.00000000000E+00 0.  1.
         -1    1    1    2    0  502 -0.81167906238E+01 -0.42691788887E+02 -0.69580227322E+03  0.69715799826E+03  0.00000000000E+00 0. -1.
<mgrwt>
<rscale>  1 0.30000000E+03</rscale>
<asrwt>0</asrwt>
<pdfrwt beam="1">  1       21 0.81720077E-02 0.30000000E+03</pdfrwt>
<pdfrwt beam="2">0</pdfrwt>
<totfact> 0.12305090E+04</totfact>
</mgrwt>
</event>
<event>
 6    1  0.8397183E-002  0.3000000E+03  0.7818608E-02  0.1093470E+00
         21   -1    0    0  501  502  0.00000000000E+00  0.00000000000E+00  0.28440949207E+01  0.28440949207E+01  0.00000000000E+00 0. -1.
         13   -1    0    0    0    0 -0.00000000000E+00 -0.00000000000E+00 -0.10000000000E+04  0.10000000000E+04  0.00000000000E+00 0.  1.
    9000005    2    1    2  501    0 -0.34519914115E+02 -0.34118388748E+02 -0.70573734399E+03  0.70741141788E+03  0.31664666749E+01 0.  0.
         13    1    3    3    0    0 -0.19748452896E+01 -0.27375459701E+01 -0.58128567543E+02  0.58226493424E+02  0.00000000000E+00 0.  1.
          3    1    3    3  501    0 -0.32545068825E+02 -0.31380842778E+02 -0.64760877645E+03  0.64918492445E+03  0.00000000000E+00 0.  1.
         -3    1    1    2    0  502  0.34519914115E+02  0.34118388748E+02 -0.29141856109E+03  0.29543267705E+03  0.00000000000E+00 0. -1.
<mgrwt>
<rscale>  1 0.30000000E+03</rscale>
<asrwt>0</asrwt>
<pdfrwt beam="1">  1       21 0.10342185E-01 0.30000000E+03</pdfrwt>
<pdfrwt beam="2">0</pdfrwt>
<totfact> 0.81007038E+03</totfact>
</mgrwt>
</event>
<event>
 6    1  0.8397183E-002  0.3000000E+03  0.7818608E-02  0.1093470E+00
         21   -1    0    0  501  502  0.00000000000E+00  0.00000000000E+00  0.19764702600E+01  0.19764702600E+01  0.00000000000E+00 0. -1.
         13   -1    0    0    0    0 -0.00000000000E+00 -0.00000000000E+00 -0.10000000000E+04  0.10000000000E+04  0.00000000000E+00 0.  1.
    9000005    2    1    2  501    0  0.12185139186E+02  0.35562392316E+02 -0.23378763867E+03  0.23681657941E+03  0.35029879962E+01 0.  0.
         13    1    3    3    0    0  0.56131463563E+01  0.18309046969E+02 -0.10875260477E+03  0.11042580159E+03  0.00000000000E+00 0.  1.
          3    1    3    3  501    0  0.65719928299E+01  0.17253345347E+02 -0.12503503390E+03  0.12639077782E+03  0.00000000000E+00 0.  1.
         -3    1    1    2    0  502 -0.12185139186E+02 -0.35562392316E+02 -0.76423589107E+03  0.76515989085E+03  0.00000000000E+00 0. -1.
<mgrwt>
<rscale>  1 0.30000000E+03</rscale>
<asrwt>0</asrwt>
<pdfrwt beam="1">  1       21 0.71871797E-02 0.30000000E+03</pdfrwt>
<pdfrwt beam="2">0</pdfrwt>
<totfact> 0.15410247E+04</totfact>
</mgrwt>
</event>
<event>
 6    1  0.8397183E-002  0.3000000E+03  0.7818608E-02  0.1093470E+00
         21   -1    0    0  501  502  0.00000000000E+00  0.00000000000E+00  0.14659761294E+01  0.14659761294E+01  0.00000000000E+00 0. -1.
         13   -1    0    0    0    0 -0.00000000000E+00 -0.00000000000E+00 -0.10000000000E+04  0.10000000000E+04  0.00000000000E+00 0.  1.
    9000005    2    1    2  501    0 -0.12628583214E+02 -0.33810099225E+02 -0.33592012108E+03  0.33786987299E+03  0.33345775896E+01 0.  0.
         13    1    3    3    0    0 -0.26222279277E+01 -0.76075859265E+01 -0.62840230964E+02  0.63353343010E+02  0.00000000000E+00 0.  1.
          3    1    3    3  501    0 -0.10006355287E+02 -0.26202513298E+02 -0.27307989011E+03  0.27451652998E+03  0.00000000000E+00 0.  1.
         -1    1    1    2    0  502  0.12628583214E+02  0.33810099225E+02 -0.66261390279E+03  0.66359610314E+03  0.00000000000E+00 0. -1.
<mgrwt>
<rscale>  1 0.30000000E+03</rscale>
<asrwt>0</asrwt>
<pdfrwt beam="1">  1       21 0.53308335E-02 0.30000000E+03</pdfrwt>
<pdfrwt beam="2">0</pdfrwt>
<totfact> 0.25819382E+04</totfact>
</mgrwt>
</event>
<event>
 6    1  0.8397183E-002  0.3000000E+03  0.7818608E-02  0.1093470E+00
         21   -1    0    0  501  502  0.00000000000E+00  0.00000000000E+00  0.99559658547E+00  0.99559658547E+00  0.00000000000E+00 0. -1.
         13   -1    0    0    0    0 -0.00000000000E+00 -0.00000000000E+00 -0.10000000000E+04  0.10000000000E+04  0.00000000000E+00 0.  1.
    9000005    2    1    2  501    0  0.28051987643E+02 -0.12836386273E+02 -0.40300009643E+03  0.40419343441E+03  0.34011587775E+01 0.  0.
         13    1    3    3    0    0  0.25480793916E+02 -0.10522289807E+02 -0.35487171502E+03  0.35594089898E+03  0.00000000000E+00 0.  1.
          3    1    3    3  501    0  0.25711937268E+01 -0.23140964656E+01 -0.48128381403E+02  0.48252535437E+02  0.00000000000E+00 0.  1.
         -1    1    1    2    0  502 -0.28051987643E+02  0.12836386273E+02 -0.59600430699E+03  0.59680216217E+03  0.00000000000E+00 0. -1.
<mgrwt>
<rscale>  1 0.30000000E+03</rscale>
<asrwt>0</asrwt>
<pdfrwt beam="1">  1       21 0.36203589E-02 0.30000000E+03</pdfrwt>
<pdfrwt beam="2">0</pdfrwt>
<totfact> 0.49717866E+04</totfact>
</mgrwt>
</event>
<event>
 6    1  0.8397183E-002  0.3000000E+03  0.7818608E-02  0.1093470E+00
         21   -1    0    0  501  502  0.00000000000E+00  0.00000000000E+00  0.61670272815E+01  0.61670272815E+01  0.00000000000E+00 0. -1.
         13   -1    0    0    0    0 -0.00000000000E+00 -0.00000000000E+00 -0.10000000000E+04  0.10000000000E+04  0.00000000000E+00 0.  1.
    9000005    2    1    2  501    0 -0.74116304751E+02  0.19827785183E+02 -0.39084427136E+03  0.39831692926E+03  0.32808516318E+01 0.  0.
         13    1    3    3    0    0 -0.66232644680E+02  0.16772603031E+02 -0.35016657191E+03  0.35676982989E+03  0.00000000000E+00 0.  1.
          1    1    3    3  501    0 -0.78836600707E+01  0.30551821515E+01 -0.40677699443E+02  0.41547099370E+02  0.00000000000E+00 0.  1.
         -1    1    1    2    0  502  0.74116304751E+02 -0.19827785183E+02 -0.60298870136E+03  0.60785009802E+03  0.00000000000E+00 0. -1.
<mgrwt>
<rscale>  1 0.30000000E+03</rscale>
<asrwt>0</asrwt>
<pdfrwt beam="1">  1       21 0.22425601E-01 0.30000000E+03</pdfrwt>
<pdfrwt beam="2">0</pdfrwt>
<totfact> 0.19261335E+03</totfact>
</mgrwt>
</event>
<event>
 6    1  0.8397183E-002  0.3000000E+03  0.7818608E-02  0.1093470E+00
         21   -1    0    0  501  502  0.00000000000E+00  0.00000000000E+00  0.96312883977E+01  0.96312883977E+01  0.00000000000E+00 0. -1.
         13   -1    0    0    0    0 -0.00000000000E+00 -0.00000000000E+00 -0.10000000000E+04  0.10000000000E+04  0.00000000000E+00 0.  1.
    9000005    2    1    2  501    0  0.15327276755E+02  0.75778511171E+02 -0.80599154066E+03  0.80970067710E+03  0.39388726471E+01 0.  0.
         13    1    3    3    0    0  0.69445254112E+01  0.44141085811E+02 -0.46443445180E+03  0.46657906287E+03  0.00000000000E+00 0.  1.
          3    1    3    3  501    0  0.83827513443E+01  0.31637425360E+02 -0.34155708886E+03  0.34312161423E+03  0.00000000000E+00 0.  1.
         -1    1    1    2    0  502 -0.15327276755E+02 -0.75778511171E+02 -0.18437717094E+03  0.19993061129E+03  0.00000000000E+00 0. -1.
<mgrwt>
<rscale>  1 0.30000000E+03</rscale>
<asrwt>0</asrwt>
<pdfrwt beam="1">  1       21 0.35022941E-01 0.30000000E+03</pdfrwt>
<pdfrwt beam="2">0</pdfrwt>
<totfact> 0.79472848E+02</totfact>
</mgrwt>
</event>
<event>
 6    1  0.8397183E-002  0.3000000E+03  0.7818608E-02  0.1093470E+00
         21   -1    0    0  501  502  0.00000000000E+00  0.00000000000E+00  0.12108276330E+01  0.12108276330E+01  0.00000000000E+00 0. -1.
         13   -1    0    0    0    0 -0.00000000000E+00 -0.00000000000E+00 -0.10000000000E+04  0.10000000000E+04  0.00000000000E+00 0.  1.
    9000005    2    1    2  501    0  0.46145635130E+01  0.32160751512E+02 -0.67661738225E+03  0.67740491280E+03  0.32750247713E+01 0.  0.
         13    1    3    3    0    0  0.23192311658E+01  0.18538307565E+02 -0.42135507656E+03  0.42176906978E+03  0.00000000000E+00 0.  1.
          1    1    3    3  501    0  0.22953323473E+01  0.13622443947E+02 -0.25526230569E+03  0.25563584302E+03  0.00000000000E+00 0.  1.
         -3    1    1    2    0  502 -0.46145635130E+01 -0.32160751512E+02 -0.32217179011E+03  0.32380591483E+03  0.00000000000E+00 0. -1.
<mgrwt>
<rscale>  1 0.30000000E+03</rscale>
<asrwt>0</asrwt>
<pdfrwt beam="1">  1       21 0.44030189E-02 0.30000000E+03</pdfrwt>
<pdfrwt beam="2">0</pdfrwt>
<totfact> 0.35754838E+04</totfact>
</mgrwt>
</event>
<event>
 6    1  0.8397183E-002  0.3000000E+03  0.7818608E-02  0.1093470E+00
         21   -1    0    0  501  502  0.00000000000E+00  0.00000000000E+00  0.11493383575E+01  0.11493383575E+01  0.00000000000E+00 0. -1.
         13   -1    0    0    0    0 -0.00000000000E+00 -0.00000000000E+00 -0.10000000000E+04  0.10000000000E+04  0.00000000000E+00 0.  1.
    9000005    2    1    2  501    0 -0.82987984518E+01 -0.32781524575E+02 -0.48818126758E+03  0.48936156160E+03  0.32077318319E+01 0.  0.
         13    1    3    3    0    0 -0.45114918297E+01 -0.12213844145E+02 -0.19800308004E+03  0.19843072154E+03  0.00000000000E+00 0.  1.
          1    1    3    3  501    0 -0.37873066220E+01 -0.20567680430E+02 -0.29017818754E+03  0.29093084005E+03  0.00000000000E+00 0.  1.
         -3    1    1    2    0  502  0.82987984518E+01  0.32781524575E+02 -0.51066939406E+03  0.51178777676E+03  0.00000000000E+00 0. -1.
<mgrwt>
<rscale>  1 0.30000000E+03</rscale>
<asrwt>0</asrwt>
<pdfrwt beam="1">  1       21 0.41794210E-02 0.30000000E+03</pdfrwt>
<pdfrwt beam="2">0</pdfrwt>
<totfact> 0.39048952E+04</totfact>
</mgrwt>
</event>
<event>
 6    1  0.8397183E-002  0.3000000E+03  0.7818608E-02  0.1093470E+00
         21   -1    0    0  501  502  0.00000000000E+00  0.00000000000E+00  0.76203195263E+01  0.76203195263E+01  0.00000000000E+00 0. -1.
         13   -1    0    0    0    0 -0.00000000000E+00 -0.00000000000E+00 -0.10000000000E+04  0.10000000000E+04  0.00000000000E+00 0.  1.
    9000005    2    1    2  501    0 -0.50928592728E+02  0.44695245104E+02 -0.17940996391E+03  0.19183165416E+03  0.44790506772E+01 0.  0.
         13    1    3    3    0    0 -0.18994398121E+02  0.13851642637E+02 -0.62762199595E+02  0.67020510754E+02  0.00000000000E+00 0.  1.
          1    1    3    3  501    0 -0.31934194607E+02  0.30843602467E+02 -0.11664776431E+03  0.12481114340E+03  0.00000000000E+00 0.  1.
         -3    1    1    2    0  502  0.50928592728E+02 -0.44695245104E+02 -0.81296971657E+03  0.81578866537E+03  0.00000000000E+00 0. -1.
<mgrwt>
<rscale>  1 0.30000000E+03</rscale>
<asrwt>0</asrwt>
<pdfrwt beam="1">  1       21 0.27710311E-01 0.30000000E+03</pdfrwt>
<pdfrwt beam="2">0</pdfrwt>
<totfact> 0.12733732E+03</totfact>
</mgrwt>
</event>
<event>
 6    1  0.8397183E-002  0.3000000E+03  0.7818608E-02  0.1093470E+00
         21   -1    0    0  501  502  0.00000000000E+00  0.00000000000E+00  0.29159504470E+01  0.29159504470E+01  0.00000000000E+00 0. -1.
         13   -1    0    0    0    0 -0.00000000000E+00 -0.00000000000E+00 -0.10000000000E+04  0.10000000000E+04  0.00000000000E+00 0.  1.
    9000005    2    1    2  501    0  0.43162855918E+02  0.14095451738E+02 -0.76973332321E+03  0.77107534429E+03  0.24665430081E+01 0.  0.
         13    1    3    3    0    0  0.77456488193E+01  0.27558752198E+01 -0.12434309907E+03  0.12461459068E+03  0.00000000000E+00 0.  1.
          3    1    3    3  501    0  0.35417207098E+02  0.11339576518E+02 -0.64539022414E+03  0.64646075362E+03  0.00000000000E+00 0.  1.
         -1    1    1    2    0  502 -0.43162855918E+02 -0.14095451738E+02 -0.22735072635E+03  0.23184060615E+03  0.00000000000E+00 0. -1.
<mgrwt>
<rscale>  1 0.30000000E+03</rscale>
<asrwt>0</asrwt>
<pdfrwt beam="1">  1       21 0.10603479E-01 0.30000000E+03</pdfrwt>
<pdfrwt beam="2">0</pdfrwt>
<totfact> 0.77464376E+03</totfact>
</mgrwt>
</event>
<event>
 6    1  0.2070142E-001  0.3000000E+03  0.7818608E-02  0.1093470E+00
         21   -1    0    0  501  502  0.00000000000E+00  0.00000000000E+00  0.14058250652E+01  0.14058250652E+01  0.00000000000E+00 0. -1.
         13   -1    0    0    0    0 -0.00000000000E+00 -0.00000000000E+00 -0.10000000000E+04  0.10000000000E+04  0.00000000000E+00 0.  1.
    9000005    2    1    2  501    0  0.44067590499E+01 -0.30785391961E+02 -0.77053026005E+03  0.77123130616E+03  0.10662366311E+02 0.  0.
         13    1    3    3    0    0 -0.23396876917E+01 -0.88957579312E+01 -0.30392754448E+03  0.30406670476E+03  0.00000000000E+00 0.  1.
          1    1    3    3  501    0  0.67464467416E+01 -0.21889634030E+02 -0.46660271557E+03  0.46716460140E+03  0.00000000000E+00 0.  1.
         -1    1    1    2    0  502 -0.44067590499E+01  0.30785391961E+02 -0.22806391488E+03  0.23017451891E+03  0.00000000000E+00 0. -1.
<mgrwt>
<rscale>  1 0.30000000E+03</rscale>
<asrwt>0</asrwt>
<pdfrwt beam="1">  1       21 0.51121019E-02 0.30000000E+03</pdfrwt>
<pdfrwt beam="2">0</pdfrwt>
<totfact> 0.27735612E+04</totfact>
</mgrwt>
</event>
<event>
 6    1  0.8397183E-002  0.3000000E+03  0.7818608E-02  0.1093470E+00
         21   -1    0    0  501  502  0.00000000000E+00  0.00000000000E+00  0.13681088798E+01  0.13681088798E+01  0.00000000000E+00 0. -1.
         13   -1    0    0    0    0 -0.00000000000E+00 -0.00000000000E+00 -0.10000000000E+04  0.10000000000E+04  0.00000000000E+00 0.  1.
    9000005    2    1    2  501    0 -0.31896889750E+02  0.17908559639E+02 -0.56559636163E+03  0.56679027019E+03  0.37199466181E+01 0.  0.
         13    1    3    3    0    0 -0.78727052489E+01  0.30228781063E+01 -0.11547210015E+03  0.11577963203E+03  0.00000000000E+00 0.  1.
          3    1    3    3  501    0 -0.24024184501E+02  0.14885681533E+02 -0.45012426149E+03  0.45101063816E+03  0.00000000000E+00 0.  1.
         -3    1    1    2    0  502  0.31896889750E+02 -0.17908559639E+02 -0.43303552949E+03  0.43457783869E+03  0.00000000000E+00 0. -1.
<mgrwt>
<rscale>  1 0.30000000E+03</rscale>
<asrwt>0</asrwt>
<pdfrwt beam="1">  1       21 0.49749519E-02 0.30000000E+03</pdfrwt>
<pdfrwt beam="2">0</pdfrwt>
<totfact> 0.29052294E+04</totfact>
</mgrwt>
</event>
<event>
 6    1  0.1599980E-001  0.3000000E+03  0.7818608E-02  0.1093470E+00
         21   -1    0    0  501  502  0.00000000000E+00  0.00000000000E+00  0.13576844182E+01  0.13576844182E+01  0.00000000000E+00 0. -1.
         13   -1    0    0    0    0 -0.00000000000E+00 -0.00000000000E+00 -0.10000000000E+04  0.10000000000E+04  0.00000000000E+00 0.  1.
    9000005    2    1    2  501    0 -0.34703198112E+02  0.89324239565E+01 -0.56693883687E+03  0.56816951089E+03  0.10623002924E+02 0.  0.
         13    1    3    3    0    0 -0.37529777404E+01  0.13787947771E+01 -0.13419106416E+03  0.13425061496E+03  0.00000000000E+00 0.  1.
          3    1    3    3  501    0 -0.30950220372E+02  0.75536291795E+01 -0.43274777271E+03  0.43391889593E+03  0.00000000000E+00 0.  1.
         -1    1    1    2    0  502  0.34703198112E+02 -0.89324239565E+01 -0.43170347871E+03  0.43318817353E+03  0.00000000000E+00 0. -1.
<mgrwt>
<rscale>  1 0.30000000E+03</rscale>
<asrwt>0</asrwt>
<pdfrwt beam="1">  1       21 0.49370447E-02 0.30000000E+03</pdfrwt>
<pdfrwt beam="2">0</pdfrwt>
<totfact> 0.29433426E+04</totfact>
</mgrwt>
</event>
<event>
 6    1  0.8397183E-002  0.3000000E+03  0.7818608E-02  0.1093470E+00
         21   -1    0    0  501  502  0.00000000000E+00  0.00000000000E+00  0.20875745194E+01  0.20875745194E+01  0.00000000000E+00 0. -1.
         13   -1    0    0    0    0 -0.00000000000E+00 -0.00000000000E+00 -0.10000000000E+04  0.10000000000E+04  0.00000000000E+00 0.  1.
    9000005    2    1    2  501    0 -0.24767061890E+02 -0.36031556165E+02 -0.64188534343E+03  0.64338579930E+03  0.41002722160E+01 0.  0.
         13    1    3    3    0    0 -0.22658307116E+02 -0.31659780289E+02 -0.58477192432E+03  0.58606650138E+03  0.00000000000E+00 0.  1.
          1    1    3    3  501    0 -0.21087547745E+01 -0.43717758759E+01 -0.57113419110E+02  0.57319297915E+02  0.00000000000E+00 0.  1.
         -3    1    1    2    0  502  0.24767061890E+02  0.36031556165E+02 -0.35602708205E+03  0.35870177522E+03  0.00000000000E+00 0. -1.
<mgrwt>
<rscale>  1 0.30000000E+03</rscale>
<asrwt>0</asrwt>
<pdfrwt beam="1">  1       21 0.75911961E-02 0.30000000E+03</pdfrwt>
<pdfrwt beam="2">0</pdfrwt>
<totfact> 0.14004865E+04</totfact>
</mgrwt>
</event>
<event>
 6    1  0.8397183E-002  0.3000000E+03  0.7818608E-02  0.1093470E+00
         21   -1    0    0  501  502  0.00000000000E+00  0.00000000000E+00  0.44776822263E+01  0.44776822263E+01  0.00000000000E+00 0. -1.
         13   -1    0    0    0    0 -0.00000000000E+00 -0.00000000000E+00 -0.10000000000E+04  0.10000000000E+04  0.00000000000E+00 0.  1.
    9000005    2    1    2  501    0  0.23690156731E+02 -0.59763042433E+02 -0.35987767787E+03  0.36559040499E+03  0.33994750005E+01 0.  0.
         13    1    3    3    0    0  0.22828492007E+02 -0.56727226193E+02 -0.33807148554E+03  0.34355705141E+03  0.00000000000E+00 0.  1.
          1    1    3    3  501    0  0.86166472419E+00 -0.30358162400E+01 -0.21806192330E+02  0.22033353586E+02  0.00000000000E+00 0.  1.
         -1    1    1    2    0  502 -0.23690156731E+02  0.59763042433E+02 -0.63564463991E+03  0.63888727723E+03  0.00000000000E+00 0. -1.
<mgrwt>
<rscale>  1 0.30000000E+03</rscale>
<asrwt>0</asrwt>
<pdfrwt beam="1">  1       21 0.16282515E-01 0.30000000E+03</pdfrwt>
<pdfrwt beam="2">0</pdfrwt>
<totfact> 0.35353478E+03</totfact>
</mgrwt>
</event>
<event>
 6    1  0.8397183E-002  0.3000000E+03  0.7818608E-02  0.1093470E+00
         21   -1    0    0  501  502  0.00000000000E+00  0.00000000000E+00  0.28637333614E+01  0.28637333614E+01  0.00000000000E+00 0. -1.
         13   -1    0    0    0    0 -0.00000000000E+00 -0.00000000000E+00 -0.10000000000E+04  0.10000000000E+04  0.00000000000E+00 0.  1.
    9000005    2    1    2  501    0  0.30930536146E+02  0.42598355500E+02 -0.58664475855E+03  0.58901038232E+03  0.31368432711E+01 0.  0.
         13    1    3    3    0    0  0.26351229092E+02  0.34991632432E+02 -0.47741482853E+03  0.47942019160E+03  0.00000000000E+00 0.  1.
          3    1    3    3  501    0  0.45793070541E+01  0.76067230678E+01 -0.10922993002E+03  0.10959019072E+03  0.00000000000E+00 0.  1.
         -1    1    1    2    0  502 -0.30930536146E+02 -0.42598355500E+02 -0.41049150809E+03  0.41385335105E+03  0.00000000000E+00 0. -1.
<mgrwt>
<rscale>  1 0.30000000E+03</rscale>
<asrwt>0</asrwt>
<pdfrwt beam="1">  1       21 0.10413598E-01 0.30000000E+03</pdfrwt>
<pdfrwt beam="2">0</pdfrwt>
<totfact> 0.80014759E+03</totfact>
</mgrwt>
</event>
<event>
 6    1  0.8397183E-002  0.3000000E+03  0.7818608E-02  0.1093470E+00
         21   -1    0    0  501  502  0.00000000000E+00  0.00000000000E+00  0.22717471278E+01  0.22717471278E+01  0.00000000000E+00 0. -1.
         13   -1    0    0    0    0 -0.00000000000E+00 -0.00000000000E+00 -0.10000000000E+04  0.10000000000E+04  0.00000000000E+00 0.  1.
    9000005    2    1    2  501    0 -0.35365401075E+02 -0.31155224904E+02 -0.57019130831E+03  0.57214479075E+03  0.31896527966E+01 0.  0.
         13    1    3    3    0    0 -0.13068133460E+02 -0.11976378654E+02 -0.23296284448E+03  0.23363624861E+03  0.00000000000E+00 0.  1.
          1    1    3    3  501    0 -0.22297267615E+02 -0.19178846250E+02 -0.33722846383E+03  0.33850854214E+03  0.00000000000E+00 0.  1.
         -1    1    1    2    0  502  0.35365401075E+02  0.31155224904E+02 -0.42753694457E+03  0.43012695638E+03  0.00000000000E+00 0. -1.
<mgrwt>
<rscale>  1 0.30000000E+03</rscale>
<asrwt>0</asrwt>
<pdfrwt beam="1">  1       21 0.82609161E-02 0.30000000E+03</pdfrwt>
<pdfrwt beam="2">0</pdfrwt>
<totfact> 0.12073053E+04</totfact>
</mgrwt>
</event>
<event>
 6    1  0.8397183E-002  0.3000000E+03  0.7818608E-02  0.1093470E+00
         21   -1    0    0  501  502  0.00000000000E+00  0.00000000000E+00  0.11976502422E+01  0.11976502422E+01  0.00000000000E+00 0. -1.
         13   -1    0    0    0    0 -0.00000000000E+00 -0.00000000000E+00 -0.10000000000E+04  0.10000000000E+04  0.00000000000E+00 0.  1.
    9000005    2    1    2  501    0 -0.33680965945E+02  0.46598097074E+01 -0.58886265136E+03  0.58985025737E+03  0.28253617270E+01 0.  0.
         13    1    3    3    0    0 -0.72970510255E+01 -0.13154678343E+00 -0.13029101820E+03  0.13049526306E+03  0.00000000000E+00 0.  1.
          1    1    3    3  501    0 -0.26383914919E+02  0.47913564908E+01 -0.45857163316E+03  0.45935499431E+03  0.00000000000E+00 0.  1.
         -3    1    1    2    0  502  0.33680965945E+02 -0.46598097074E+01 -0.40993969840E+03  0.41134739287E+03  0.00000000000E+00 0. -1.
<mgrwt>
<rscale>  1 0.30000000E+03</rscale>
<asrwt>0</asrwt>
<pdfrwt beam="1">  1       21 0.43551010E-02 0.30000000E+03</pdfrwt>
<pdfrwt beam="2">0</pdfrwt>
<totfact> 0.36423549E+04</totfact>
</mgrwt>
</event>
<event>
 6    1  0.8397183E-002  0.3000000E+03  0.7818608E-02  0.1093470E+00
         21   -1    0    0  501  502  0.00000000000E+00  0.00000000000E+00  0.14651545284E+01  0.14651545284E+01  0.00000000000E+00 0. -1.
         13   -1    0    0    0    0 -0.00000000000E+00 -0.00000000000E+00 -0.10000000000E+04  0.10000000000E+04  0.00000000000E+00 0.  1.
    9000005    2    1    2  501    0  0.32923344318E+02  0.15320967397E+02 -0.35718105148E+03  0.35908414009E+03  0.66661446828E+01 0.  0.
         13    1    3    3    0    0  0.97441970389E+00 -0.57207087483E+00 -0.16739461358E+02  0.16777554214E+02  0.00000000000E+00 0.  1.
          3    1    3    3  501    0  0.31948924614E+02  0.15893038272E+02 -0.34044159012E+03  0.34230658587E+03  0.00000000000E+00 0.  1.
         -3    1    1    2    0  502 -0.32923344318E+02 -0.15320967397E+02 -0.64135379399E+03  0.64238101444E+03  0.00000000000E+00 0. -1.
<mgrwt>
<rscale>  1 0.30000000E+03</rscale>
<asrwt>0</asrwt>
<pdfrwt beam="1">  1       21 0.53278459E-02 0.30000000E+03</pdfrwt>
<pdfrwt beam="2">0</pdfrwt>
<totfact> 0.25844158E+04</totfact>
</mgrwt>
</event>
<event>
 6    1  0.8397183E-002  0.3000000E+03  0.7818608E-02  0.1093470E+00
         21   -1    0    0  501  502  0.00000000000E+00  0.00000000000E+00  0.21101649117E+01  0.21101649117E+01  0.00000000000E+00 0. -1.
         13   -1    0    0    0    0 -0.00000000000E+00 -0.00000000000E+00 -0.10000000000E+04  0.10000000000E+04  0.00000000000E+00 0.  1.
    9000005    2    1    2  501    0  0.18895549843E+02  0.39834805715E+02 -0.63819576580E+03  0.63972407656E+03  0.30339898155E+01 0.  0.
         13    1    3    3    0    0  0.63069818408E+01  0.16348467182E+02 -0.26339796894E+03  0.26398018948E+03  0.00000000000E+00 0.  1.
          3    1    3    3  501    0  0.12588568002E+02  0.23486338533E+02 -0.37479779686E+03  0.37574388707E+03  0.00000000000E+00 0.  1.
         -3    1    1    2    0  502 -0.18895549843E+02 -0.39834805715E+02 -0.35969406929E+03  0.36238608836E+03  0.00000000000E+00 0. -1.
<mgrwt>
<rscale>  1 0.30000000E+03</rscale>
<asrwt>0</asrwt>
<pdfrwt beam="1">  1       21 0.76733431E-02 0.30000000E+03</pdfrwt>
<pdfrwt beam="2">0</pdfrwt>
<totfact> 0.13743215E+04</totfact>
</mgrwt>
</event>
<event>
 6    1  0.8397183E-002  0.3000000E+03  0.7818608E-02  0.1093470E+00
         21   -1    0    0  501  502  0.00000000000E+00  0.00000000000E+00  0.93463861581E+00  0.93463861581E+00  0.00000000000E+00 0. -1.
         13   -1    0    0    0    0 -0.00000000000E+00 -0.00000000000E+00 -0.10000000000E+04  0.10000000000E+04  0.00000000000E+00 0.  1.
    9000005    2    1    2  501    0 -0.30355012907E+02 -0.79172765825E+00 -0.45406735990E+03  0.45509136875E+03  0.29888021969E+01 0.  0.
         13    1    3    3    0    0 -0.23512347677E+02 -0.17305024275E+01 -0.34258625904E+03  0.34339652010E+03  0.00000000000E+00 0.  1.
          3    1    3    3  501    0 -0.68426652301E+01  0.93877476925E+00 -0.11148110086E+03  0.11169484865E+03  0.00000000000E+00 0.  1.
         -1    1    1    2    0  502  0.30355012907E+02  0.79172765825E+00 -0.54499800148E+03  0.54584326987E+03  0.00000000000E+00 0. -1.
<mgrwt>
<rscale>  1 0.30000000E+03</rscale>
<asrwt>0</asrwt>
<pdfrwt beam="1">  1       21 0.33986930E-02 0.30000000E+03</pdfrwt>
<pdfrwt beam="2">0</pdfrwt>
<totfact> 0.55266517E+04</totfact>
</mgrwt>
</event>
<event>
 6    1  0.8397183E-002  0.3000000E+03  0.7818608E-02  0.1093470E+00
         21   -1    0    0  501  502  0.00000000000E+00  0.00000000000E+00  0.31114302804E+01  0.31114302804E+01  0.00000000000E+00 0. -1.
         13   -1    0    0    0    0 -0.00000000000E+00 -0.00000000000E+00 -0.10000000000E+04  0.10000000000E+04  0.00000000000E+00 0.  1.
    9000005    2    1    2  501    0  0.10133810552E+02 -0.54667018753E+02 -0.47083683961E+03  0.47412976726E+03  0.45309620165E+01 0.  0.
         13    1    3    3    0    0  0.70138091646E+01 -0.39299435202E+02 -0.35457652598E+03  0.35681669230E+03  0.00000000000E+00 0.  1.
          3    1    3    3  501    0  0.31200013870E+01 -0.15367583550E+02 -0.11626031363E+03  0.11731307497E+03  0.00000000000E+00 0.  1.
         -3    1    1    2    0  502 -0.10133810552E+02  0.54667018753E+02 -0.52605173011E+03  0.52898166302E+03  0.00000000000E+00 0. -1.
<mgrwt>
<rscale>  1 0.30000000E+03</rscale>
<asrwt>0</asrwt>
<pdfrwt beam="1">  1       21 0.11314316E-01 0.30000000E+03</pdfrwt>
<pdfrwt beam="2">0</pdfrwt>
<totfact> 0.68931571E+03</totfact>
</mgrwt>
</event>
<event>
 6    1  0.8397183E-002  0.3000000E+03  0.7818608E-02  0.1093470E+00
         21   -1    0    0  501  502  0.00000000000E+00  0.00000000000E+00  0.21509483259E+01  0.21509483259E+01  0.00000000000E+00 0. -1.
         13   -1    0    0    0    0 -0.00000000000E+00 -0.00000000000E+00 -0.10000000000E+04  0.10000000000E+04  0.00000000000E+00 0.  1.
    9000005    2    1    2  501    0 -0.87709165901E+01  0.31360402965E+02 -0.85541172123E+03  0.85603867316E+03  0.35486990612E+01 0.  0.
         13    1    3    3    0    0 -0.84549448588E+01  0.25809567151E+02 -0.69398097183E+03  0.69451220948E+03  0.00000000000E+00 0.  1.
          3    1    3    3  501    0 -0.31597173132E+00  0.55508358137E+01 -0.16143074940E+03  0.16152646368E+03  0.00000000000E+00 0.  1.
         -3    1    1    2    0  502  0.87709165901E+01 -0.31360402965E+02 -0.14243733044E+03  0.14611227517E+03  0.00000000000E+00 0. -1.
<mgrwt>
<rscale>  1 0.30000000E+03</rscale>
<asrwt>0</asrwt>
<pdfrwt beam="1">  1       21 0.78216468E-02 0.30000000E+03</pdfrwt>
<pdfrwt beam="2">0</pdfrwt>
<totfact> 0.13289562E+04</totfact>
</mgrwt>
</event>
<event>
 6    1  0.8397183E-002  0.3000000E+03  0.7818608E-02  0.1093470E+00
         21   -1    0    0  501  502  0.00000000000E+00  0.00000000000E+00  0.10734866337E+01  0.10734866337E+01  0.00000000000E+00 0. -1.
         13   -1    0    0    0    0 -0.00000000000E+00 -0.00000000000E+00 -0.10000000000E+04  0.10000000000E+04  0.00000000000E+00 0.  1.
    9000005    2    1    2  501    0 -0.30736297144E+02  0.41259126448E+01 -0.34370194482E+03  0.34511542521E+03  0.34477135928E+01 0.  0.
         13    1    3    3    0    0 -0.30289278443E+02  0.37569379123E+01 -0.34014036515E+03  0.34150698818E+03  0.00000000000E+00 0.  1.
          3    1    3    3  501    0 -0.44701870106E+00  0.36897473253E+00 -0.35615796672E+01  0.36084370298E+01  0.00000000000E+00 0.  1.
         -3    1    1    2    0  502  0.30736297144E+02 -0.41259126448E+01 -0.65522456855E+03  0.65595806142E+03  0.00000000000E+00 0. -1.
<mgrwt>
<rscale>  1 0.30000000E+03</rscale>
<asrwt>0</asrwt>
<pdfrwt beam="1">  1       21 0.39035960E-02 0.30000000E+03</pdfrwt>
<pdfrwt beam="2">0</pdfrwt>
<totfact> 0.43809701E+04</totfact>
</mgrwt>
</event>
<event>
 6    1  0.8397183E-002  0.3000000E+03  0.7818608E-02  0.1093470E+00
         21   -1    0    0  501  502  0.00000000000E+00  0.00000000000E+00  0.16183372466E+01  0.16183372466E+01  0.00000000000E+00 0. -1.
         13   -1    0    0    0    0 -0.00000000000E+00 -0.00000000000E+00 -0.10000000000E+04  0.10000000000E+04  0.00000000000E+00 0.  1.
    9000005    2    1    2  501    0  0.12510199608E+02  0.33460950784E+02 -0.27210266504E+03  0.27446132336E+03  0.36079604192E+01 0.  0.
         13    1    3    3    0    0  0.12712882753E+02  0.32356363822E+02 -0.26496346961E+03  0.26723433892E+03  0.00000000000E+00 0.  1.
          1    1    3    3  501    0 -0.20268314429E+00  0.11045869613E+01 -0.71391954286E+01  0.72269844458E+01  0.00000000000E+00 0.  1.
         -1    1    1    2    0  502 -0.12510199608E+02 -0.33460950784E+02 -0.72627899771E+03  0.72715701388E+03  0.00000000000E+00 0. -1.
<mgrwt>
<rscale>  1 0.30000000E+03</rscale>
<asrwt>0</asrwt>
<pdfrwt beam="1">  1       21 0.58848751E-02 0.30000000E+03</pdfrwt>
<pdfrwt beam="2">0</pdfrwt>
<totfact> 0.21787360E+04</totfact>
</mgrwt>
</event>
<event>
 6    1  0.8397183E-002  0.3000000E+03  0.7818608E-02  0.1093470E+00
         21   -1    0    0  501  502  0.00000000000E+00  0.00000000000E+00  0.16090993440E+01  0.16090993440E+01  0.00000000000E+00 0. -1.
         13   -1    0    0    0    0 -0.00000000000E+00 -0.00000000000E+00 -0.10000000000E+04  0.10000000000E+04  0.00000000000E+00 0.  1.
    9000005    2    1    2  501    0  0.31059955749E+02 -0.35251712253E+00 -0.18433552515E+03  0.18696132300E+03  0.31788904476E+01 0.  0.
         13    1    3    3    0    0  0.11578609954E+02  0.10150533988E+01 -0.62750481812E+02  0.63817846325E+02  0.00000000000E+00 0.  1.
          3    1    3    3  501    0  0.19481345794E+02 -0.13675705213E+01 -0.12158504334E+03  0.12314347667E+03  0.00000000000E+00 0.  1.
         -1    1    1    2    0  502 -0.31059955749E+02  0.35251712253E+00 -0.81405537550E+03  0.81464777635E+03  0.00000000000E+00 0. -1.
<mgrwt>
<rscale>  1 0.30000000E+03</rscale>
<asrwt>0</asrwt>
<pdfrwt beam="1">  1       21 0.58512827E-02 0.30000000E+03</pdfrwt>
<pdfrwt beam="2">0</pdfrwt>
<totfact> 0.22003351E+04</totfact>
</mgrwt>
</event>
<event>
 6    1  0.8397183E-002  0.3000000E+03  0.7818608E-02  0.1093470E+00
         21   -1    0    0  501  502  0.00000000000E+00  0.00000000000E+00  0.14053357651E+01  0.14053357651E+01  0.00000000000E+00 0. -1.
         13   -1    0    0    0    0 -0.00000000000E+00 -0.00000000000E+00 -0.10000000000E+04  0.10000000000E+04  0.00000000000E+00 0.  1.
    9000005    2    1    2  501    0 -0.35164264221E+02 -0.12318754500E+02 -0.54658369360E+03  0.54786129736E+03  0.31606730865E+01 0.  0.
         13    1    3    3    0    0 -0.58799806998E+01 -0.32274898668E+01 -0.90963067436E+02  0.91210035090E+02  0.00000000000E+00 0.  1.
          1    1    3    3  501    0 -0.29284283521E+02 -0.90912646328E+01 -0.45562062616E+03  0.45665126227E+03  0.00000000000E+00 0.  1.
         -3    1    1    2    0  502  0.35164264221E+02  0.12318754500E+02 -0.45201097064E+03  0.45354403840E+03  0.00000000000E+00 0. -1.
<mgrwt>
<rscale>  1 0.30000000E+03</rscale>
<asrwt>0</asrwt>
<pdfrwt beam="1">  1       21 0.51103226E-02 0.30000000E+03</pdfrwt>
<pdfrwt beam="2">0</pdfrwt>
<totfact> 0.27752095E+04</totfact>
</mgrwt>
</event>
<event>
 6    1  0.8397183E-002  0.3000000E+03  0.7818608E-02  0.1093470E+00
         21   -1    0    0  501  502  0.00000000000E+00  0.00000000000E+00  0.18596696768E+01  0.18596696768E+01  0.00000000000E+00 0. -1.
         13   -1    0    0    0    0 -0.00000000000E+00 -0.00000000000E+00 -0.10000000000E+04  0.10000000000E+04  0.00000000000E+00 0.  1.
    9000005    2    1    2  501    0 -0.34941590440E+02  0.54437950474E+00 -0.79213043589E+03  0.79290683362E+03  0.30672866805E+01 0.  0.
         13    1    3    3    0    0 -0.17066290007E+02  0.17851505174E+01 -0.38279128934E+03  0.38317569888E+03  0.00000000000E+00 0.  1.
          1    1    3    3  501    0 -0.17875300433E+02 -0.12407710126E+01 -0.40933914655E+03  0.40973113474E+03  0.00000000000E+00 0.  1.
         -3    1    1    2    0  502  0.34941590440E+02 -0.54437950474E+00 -0.20600989443E+03  0.20895283605E+03  0.00000000000E+00 0. -1.
<mgrwt>
<rscale>  1 0.30000000E+03</rscale>
<asrwt>0</asrwt>
<pdfrwt beam="1">  1       21 0.67624494E-02 0.30000000E+03</pdfrwt>
<pdfrwt beam="2">0</pdfrwt>
<totfact> 0.17133121E+04</totfact>
</mgrwt>
</event>
<event>
 6    1  0.8397183E-002  0.3000000E+03  0.7818608E-02  0.1093470E+00
         21   -1    0    0  501  502  0.00000000000E+00  0.00000000000E+00  0.13410397068E+01  0.13410397068E+01  0.00000000000E+00 0. -1.
         13   -1    0    0    0    0 -0.00000000000E+00 -0.00000000000E+00 -0.10000000000E+04  0.10000000000E+04  0.00000000000E+00 0.  1.
    9000005    2    1    2  501    0  0.35563478978E+02  0.78690706990E+01 -0.54147090221E+03  0.54270436023E+03  0.32559726891E+01 0.  0.
         13    1    3    3    0    0  0.12409491947E+02  0.43420021720E+01 -0.19314500423E+03  0.19359194490E+03  0.00000000000E+00 0.  1.
          3    1    3    3  501    0  0.23153987032E+02  0.35270685270E+01 -0.34832589799E+03  0.34911241533E+03  0.00000000000E+00 0.  1.
         -1    1    1    2    0  502 -0.35563478978E+02 -0.78690706990E+01 -0.45718805808E+03  0.45863667948E+03  0.00000000000E+00 0. -1.
<mgrwt>
<rscale>  1 0.30000000E+03</rscale>
<asrwt>0</asrwt>
<pdfrwt beam="1">  1       21 0.48765183E-02 0.30000000E+03</pdfrwt>
<pdfrwt beam="2">0</pdfrwt>
<totfact> 0.30058358E+04</totfact>
</mgrwt>
</event>
<event>
 6    1  0.8397183E-002  0.3000000E+03  0.7818608E-02  0.1093470E+00
         21   -1    0    0  501  502  0.00000000000E+00  0.00000000000E+00  0.27945784151E+01  0.27945784151E+01  0.00000000000E+00 0. -1.
         13   -1    0    0    0    0 -0.00000000000E+00 -0.00000000000E+00 -0.10000000000E+04  0.10000000000E+04  0.00000000000E+00 0.  1.
    9000005    2    1    2  501    0 -0.80163265637E+01  0.46812486431E+02 -0.29493139967E+03  0.29891641266E+03  0.10527148985E+02 0.  0.
         13    1    3    3    0    0 -0.43896982702E+01  0.29455837602E+02 -0.21422359427E+03  0.21628375844E+03  0.00000000000E+00 0.  1.
          1    1    3    3  501    0 -0.36266282935E+01  0.17356648829E+02 -0.80707805400E+02  0.82632654222E+02  0.00000000000E+00 0.  1.
         -1    1    1    2    0  502  0.80163265637E+01 -0.46812486431E+02 -0.70227402191E+03  0.70387816576E+03  0.00000000000E+00 0. -1.
<mgrwt>
<rscale>  1 0.30000000E+03</rscale>
<asrwt>0</asrwt>
<pdfrwt beam="1">  1       21 0.10162125E-01 0.30000000E+03</pdfrwt>
<pdfrwt beam="2">0</pdfrwt>
<totfact> 0.83593711E+03</totfact>
</mgrwt>
</event>
<event>
 6    1  0.8397183E-002  0.3000000E+03  0.7818608E-02  0.1093470E+00
         21   -1    0    0  501  502  0.00000000000E+00  0.00000000000E+00  0.21214064020E+01  0.21214064020E+01  0.00000000000E+00 0. -1.
         13   -1    0    0    0    0 -0.00000000000E+00 -0.00000000000E+00 -0.10000000000E+04  0.10000000000E+04  0.00000000000E+00 0.  1.
    9000005    2    1    2  501    0 -0.21443839907E+02 -0.40327722633E+02 -0.51815488525E+03  0.52022826489E+03  0.81730656424E+01 0.  0.
         13    1    3    3    0    0 -0.96323179185E+01 -0.24910240019E+02 -0.32721413975E+03  0.32830229188E+03  0.00000000000E+00 0.  1.
          1    1    3    3  501    0 -0.11811521989E+02 -0.15417482613E+02 -0.19094074551E+03  0.19192597301E+03  0.00000000000E+00 0.  1.
         -3    1    1    2    0  502  0.21443839907E+02  0.40327722633E+02 -0.47972370835E+03  0.48189314151E+03  0.00000000000E+00 0. -1.
<mgrwt>
<rscale>  1 0.30000000E+03</rscale>
<asrwt>0</asrwt>
<pdfrwt beam="1">  1       21 0.77142214E-02 0.30000000E+03</pdfrwt>
<pdfrwt beam="2">0</pdfrwt>
<totfact> 0.13615813E+04</totfact>
</mgrwt>
</event>
<event>
 6    1  0.8397183E-002  0.3000000E+03  0.7818608E-02  0.1093470E+00
         21   -1    0    0  501  502  0.00000000000E+00  0.00000000000E+00  0.11584359652E+01  0.11584359652E+01  0.00000000000E+00 0. -1.
         13   -1    0    0    0    0 -0.00000000000E+00 -0.00000000000E+00 -0.10000000000E+04  0.10000000000E+04  0.00000000000E+00 0.  1.
    9000005    2    1    2  501    0 -0.31737327746E+02 -0.87176524730E+01 -0.38108804252E+03  0.38252876583E+03  0.41115803341E+01 0.  0.
         13    1    3    3    0    0 -0.14182047836E+02 -0.32671772165E+01 -0.14621580188E+03  0.14693830558E+03  0.00000000000E+00 0.  1.
          1    1    3    3  501    0 -0.17555279910E+02 -0.54504752565E+01 -0.23487224064E+03  0.23559046024E+03  0.00000000000E+00 0.  1.
         -3    1    1    2    0  502  0.31737327746E+02  0.87176524730E+01 -0.61775352151E+03  0.61862967014E+03  0.00000000000E+00 0. -1.
<mgrwt>
<rscale>  1 0.30000000E+03</rscale>
<asrwt>0</asrwt>
<pdfrwt beam="1">  1       21 0.42125033E-02 0.30000000E+03</pdfrwt>
<pdfrwt beam="2">0</pdfrwt>
<totfact> 0.38532537E+04</totfact>
</mgrwt>
</event>
<event>
 6    1  0.8397183E-002  0.3000000E+03  0.7818608E-02  0.1093470E+00
         21   -1    0    0  501  502  0.00000000000E+00  0.00000000000E+00  0.17016562234E+01  0.17016562234E+01  0.00000000000E+00 0. -1.
         13   -1    0    0    0    0 -0.00000000000E+00 -0.00000000000E+00 -0.10000000000E+04  0.10000000000E+04  0.00000000000E+00 0.  1.
    9000005    2    1    2  501    0 -0.34377600592E+02 -0.21722811835E+02 -0.57832505405E+03  0.57976414419E+03  0.35909289817E+01 0.  0.
         13    1    3    3    0    0 -0.23834016348E+02 -0.16965643548E+02 -0.41245350881E+03  0.41348977052E+03  0.00000000000E+00 0.  1.
          1    1    3    3  501    0 -0.10543584244E+02 -0.47571682870E+01 -0.16587154524E+03  0.16627437367E+03  0.00000000000E+00 0.  1.
         -3    1    1    2    0  502  0.34377600592E+02  0.21722811835E+02 -0.41997328973E+03  0.42193751203E+03  0.00000000000E+00 0. -1.
<mgrwt>
<rscale>  1 0.30000000E+03</rscale>
<asrwt>0</asrwt>
<pdfrwt beam="1">  1       21 0.61878539E-02 0.30000000E+03</pdfrwt>
<pdfrwt beam="2">0</pdfrwt>
<totfact> 0.19979891E+04</totfact>
</mgrwt>
</event>
<event>
 6    1  0.8397183E-002  0.3000000E+03  0.7818608E-02  0.1093470E+00
         21   -1    0    0  501  502  0.00000000000E+00  0.00000000000E+00  0.15408063184E+01  0.15408063184E+01  0.00000000000E+00 0. -1.
         13   -1    0    0    0    0 -0.00000000000E+00 -0.00000000000E+00 -0.10000000000E+04  0.10000000000E+04  0.00000000000E+00 0.  1.
    9000005    2    1    2  501    0 -0.39154504859E+02  0.11607020921E+01 -0.51543705676E+03  0.51693291613E+03  0.31397154929E+01 0.  0.
         13    1    3    3    0    0 -0.33142320403E+02  0.18396830734E+01 -0.44524138905E+03  0.44647697853E+03  0.00000000000E+00 0.  1.
          3    1    3    3  501    0 -0.60121844563E+01 -0.67898098125E+00 -0.70195667710E+02  0.70455937594E+02  0.00000000000E+00 0.  1.
         -3    1    1    2    0  502  0.39154504859E+02 -0.11607020921E+01 -0.48302213692E+03  0.48460789019E+03  0.00000000000E+00 0. -1.
<mgrwt>
<rscale>  1 0.30000000E+03</rscale>
<asrwt>0</asrwt>
<pdfrwt beam="1">  1       21 0.56029439E-02 0.30000000E+03</pdfrwt>
<pdfrwt beam="2">0</pdfrwt>
<totfact> 0.23707657E+04</totfact>
</mgrwt>
</event>
<event>
 6    1  0.8397183E-002  0.3000000E+03  0.7818608E-02  0.1093470E+00
         21   -1    0    0  501  502  0.00000000000E+00  0.00000000000E+00  0.13250298569E+01  0.13250298569E+01  0.00000000000E+00 0. -1.
         13   -1    0    0    0    0 -0.00000000000E+00 -0.00000000000E+00 -0.10000000000E+04  0.10000000000E+04  0.00000000000E+00 0.  1.
    9000005    2    1    2  501    0  0.23852455572E+02  0.24306981179E+02 -0.67415288005E+03  0.67502094480E+03  0.33765750638E+01 0.  0.
         13    1    3    3    0    0  0.16420840104E+02  0.15226317988E+02 -0.46559731635E+03  0.46613554439E+03  0.00000000000E+00 0.  1.
          1    1    3    3  501    0  0.74316154672E+01  0.90806631913E+01 -0.20855556370E+03  0.20888540041E+03  0.00000000000E+00 0.  1.
         -3    1    1    2    0  502 -0.23852455572E+02 -0.24306981179E+02 -0.32452209009E+03  0.32630408506E+03  0.00000000000E+00 0. -1.
<mgrwt>
<rscale>  1 0.30000000E+03</rscale>
<asrwt>0</asrwt>
<pdfrwt beam="1">  1       21 0.48183005E-02 0.30000000E+03</pdfrwt>
<pdfrwt beam="2">0</pdfrwt>
<totfact> 0.30679227E+04</totfact>
</mgrwt>
</event>
<event>
 6    1  0.8397183E-002  0.3000000E+03  0.7818608E-02  0.1093470E+00
         21   -1    0    0  501  502  0.00000000000E+00  0.00000000000E+00  0.15082646047E+01  0.15082646047E+01  0.00000000000E+00 0. -1.
         13   -1    0    0    0    0 -0.00000000000E+00 -0.00000000000E+00 -0.10000000000E+04  0.10000000000E+04  0.00000000000E+00 0.  1.
    9000005    2    1    2  501    0  0.32830828122E+02  0.20388531614E+02 -0.54190534417E+03  0.54328922512E+03  0.28678549805E+01 0.  0.
         13    1    3    3    0    0  0.14629959636E+01  0.27397958541E+00 -0.19971982282E+02  0.20027368730E+02  0.00000000000E+00 0.  1.
          1    1    3    3  501    0  0.31367832158E+02  0.20114552028E+02 -0.52193336189E+03  0.52326185639E+03  0.00000000000E+00 0.  1.
         -3    1    1    2    0  502 -0.32830828122E+02 -0.20388531614E+02 -0.45658639123E+03  0.45821903949E+03  0.00000000000E+00 0. -1.
<mgrwt>
<rscale>  1 0.30000000E+03</rscale>
<asrwt>0</asrwt>
<pdfrwt beam="1">  1       21 0.54846101E-02 0.30000000E+03</pdfrwt>
<pdfrwt beam="2">0</pdfrwt>
<totfact> 0.24592010E+04</totfact>
</mgrwt>
</event>
<event>
 6    1  0.8397183E-002  0.3000000E+03  0.7818608E-02  0.1093470E+00
         21   -1    0    0  501  502  0.00000000000E+00  0.00000000000E+00  0.15887750546E+01  0.15887750546E+01  0.00000000000E+00 0. -1.
         13   -1    0    0    0    0 -0.00000000000E+00 -0.00000000000E+00 -0.10000000000E+04  0.10000000000E+04  0.00000000000E+00 0.  1.
    9000005    2    1    2  501    0 -0.23081848065E+02 -0.31284941891E+02 -0.60680297051E+03  0.60805536575E+03  0.31565004429E+01 0.  0.
         13    1    3    3    0    0 -0.19430420625E+02 -0.26044357165E+02 -0.52389360886E+03  0.52490033644E+03  0.00000000000E+00 0.  1.
          1    1    3    3  501    0 -0.36514274395E+01 -0.52405847256E+01 -0.82909361648E+02  0.83155029310E+02  0.00000000000E+00 0.  1.
         -1    1    1    2    0  502  0.23081848065E+02  0.31284941891E+02 -0.39160825444E+03  0.39353340931E+03  0.00000000000E+00 0. -1.
<mgrwt>
<rscale>  1 0.30000000E+03</rscale>
<asrwt>0</asrwt>
<pdfrwt beam="1">  1       21 0.57773760E-02 0.30000000E+03</pdfrwt>
<pdfrwt beam="2">0</pdfrwt>
<totfact> 0.22490414E+04</totfact>
</mgrwt>
</event>
<event>
 6    1  0.8397183E-002  0.3000000E+03  0.7818608E-02  0.1093470E+00
         21   -1    0    0  501  502  0.00000000000E+00  0.00000000000E+00  0.10899247802E+01  0.10899247802E+01  0.00000000000E+00 0. -1.
         13   -1    0    0    0    0 -0.00000000000E+00 -0.00000000000E+00 -0.10000000000E+04  0.10000000000E+04  0.00000000000E+00 0.  1.
    9000005    2    1    2  501    0  0.15120584618E+02  0.28425692134E+02 -0.60320689024E+03  0.60407901478E+03  0.40313294932E+01 0.  0.
         13    1    3    3    0    0  0.66068626057E+01  0.16433807078E+02 -0.31667936675E+03  0.31717430850E+03  0.00000000000E+00 0.  1.
          1    1    3    3  501    0  0.85137220120E+01  0.11991885057E+02 -0.28652752349E+03  0.28690470628E+03  0.00000000000E+00 0.  1.
         -3    1    1    2    0  502 -0.15120584618E+02 -0.28425692134E+02 -0.39570318498E+03  0.39701091000E+03  0.00000000000E+00 0. -1.
<mgrwt>
<rscale>  1 0.30000000E+03</rscale>
<asrwt>0</asrwt>
<pdfrwt beam="1">  1       21 0.39633712E-02 0.30000000E+03</pdfrwt>
<pdfrwt beam="2">0</pdfrwt>
<totfact> 0.42703643E+04</totfact>
</mgrwt>
</event>
<event>
 6    1  0.8397183E-002  0.3000000E+03  0.7818608E-02  0.1093470E+00
         21   -1    0    0  501  502  0.00000000000E+00  0.00000000000E+00  0.18397465263E+01  0.18397465263E+01  0.00000000000E+00 0. -1.
         13   -1    0    0    0    0 -0.00000000000E+00 -0.00000000000E+00 -0.10000000000E+04  0.10000000000E+04  0.00000000000E+00 0.  1.
    9000005    2    1    2  501    0  0.37963041906E+02  0.52031602039E+01 -0.27637998741E+03  0.27904308224E+03  0.32983143327E+01 0.  0.
         13    1    3    3    0    0  0.32668651175E+02  0.35975531071E+01 -0.23072101794E+03  0.23305014756E+03  0.00000000000E+00 0.  1.
          1    1    3    3  501    0  0.52943907305E+01  0.16056070968E+01 -0.45658969467E+02  0.45992934676E+02  0.00000000000E+00 0.  1.
         -3    1    1    2    0  502 -0.37963041906E+02 -0.52031602039E+01 -0.72178026607E+03  0.72279666429E+03  0.00000000000E+00 0. -1.
<mgrwt>
<rscale>  1 0.30000000E+03</rscale>
<asrwt>0</asrwt>
<pdfrwt beam="1">  1       21 0.66900015E-02 0.30000000E+03</pdfrwt>
<pdfrwt beam="2">0</pdfrwt>
<totfact> 0.17456343E+04</totfact>
</mgrwt>
</event>
<event>
 6    1  0.8397183E-002  0.3000000E+03  0.7818608E-02  0.1093470E+00
         21   -1    0    0  501  502  0.00000000000E+00  0.00000000000E+00  0.56731586318E+01  0.56731586318E+01  0.00000000000E+00 0. -1.
         13   -1    0    0    0    0 -0.00000000000E+00 -0.00000000000E+00 -0.10000000000E+04  0.10000000000E+04  0.00000000000E+00 0.  1.
    9000005    2    1    2  501    0  0.18740560851E+01  0.74881347989E+02 -0.44699809639E+03  0.45324263499E+03  0.32953969043E+01 0.  0.
         13    1    3    3    0    0  0.22701195655E+01  0.66946944101E+02 -0.39440899332E+03  0.40005687193E+03  0.00000000000E+00 0.  1.
          1    1    3    3  501    0 -0.39606348045E+00  0.79344038876E+01 -0.52589103063E+02  0.53185763061E+02  0.00000000000E+00 0.  1.
         -3    1    1    2    0  502 -0.18740560851E+01 -0.74881347989E+02 -0.54732874498E+03  0.55243052364E+03  0.00000000000E+00 0. -1.
<mgrwt>
<rscale>  1 0.30000000E+03</rscale>
<asrwt>0</asrwt>
<pdfrwt beam="1">  1       21 0.20629711E-01 0.30000000E+03</pdfrwt>
<pdfrwt beam="2">0</pdfrwt>
<totfact> 0.22611754E+03</totfact>
</mgrwt>
</event>
<event>
 6    1  0.8397183E-002  0.3000000E+03  0.7818608E-02  0.1093470E+00
         21   -1    0    0  501  502  0.00000000000E+00  0.00000000000E+00  0.40557528274E+01  0.40557528274E+01  0.00000000000E+00 0. -1.
         13   -1    0    0    0    0 -0.00000000000E+00 -0.00000000000E+00 -0.10000000000E+04  0.10000000000E+04  0.00000000000E+00 0.  1.
    9000005    2    1    2  501    0  0.52729321917E+02  0.18859609842E+02 -0.25989891567E+03  0.26588314679E+03  0.32148263865E+01 0.  0.
         13    1    3    3    0    0  0.14835308551E+02  0.57329801709E+01 -0.80578036007E+02  0.82132656893E+02  0.00000000000E+00 0.  1.
          1    1    3    3  501    0  0.37894013366E+02  0.13126629671E+02 -0.17932087966E+03  0.18375048990E+03  0.00000000000E+00 0.  1.
         -3    1    1    2    0  502 -0.52729321917E+02 -0.18859609842E+02 -0.73604533150E+03  0.73817260603E+03  0.00000000000E+00 0. -1.
<mgrwt>
<rscale>  1 0.30000000E+03</rscale>
<asrwt>0</asrwt>
<pdfrwt beam="1">  1       21 0.14748223E-01 0.30000000E+03</pdfrwt>
<pdfrwt beam="2">0</pdfrwt>
<totfact> 0.42489688E+03</totfact>
</mgrwt>
</event>
<event>
 6    1  0.8397183E-002  0.3000000E+03  0.7818608E-02  0.1093470E+00
         21   -1    0    0  501  502  0.00000000000E+00  0.00000000000E+00  0.11988434423E+02  0.11988434423E+02  0.00000000000E+00 0. -1.
         13   -1    0    0    0    0 -0.00000000000E+00 -0.00000000000E+00 -0.10000000000E+04  0.10000000000E+04  0.00000000000E+00 0.  1.
    9000005    2    1    2  501    0  0.97883395038E+02 -0.46343079551E+02 -0.42043768828E+03  0.43417449704E+03  0.32869600634E+01 0.  0.
         13    1    3    3    0    0  0.29057404212E+02 -0.15383140836E+02 -0.12899777587E+03  0.13312174856E+03  0.00000000000E+00 0.  1.
          3    1    3    3  501    0  0.68825990826E+02 -0.30959938715E+02 -0.29143991242E+03  0.30105274848E+03  0.00000000000E+00 0.  1.
         -3    1    1    2    0  502 -0.97883395038E+02  0.46343079551E+02 -0.56757387729E+03  0.57781393738E+03  0.00000000000E+00 0. -1.
<mgrwt>
<rscale>  1 0.30000000E+03</rscale>
<asrwt>0</asrwt>
<pdfrwt beam="1">  1       21 0.43594399E-01 0.30000000E+03</pdfrwt>
<pdfrwt beam="2">0</pdfrwt>
<totfact> 0.50393656E+02</totfact>
</mgrwt>
</event>
<event>
 6    1  0.8397183E-002  0.3000000E+03  0.7818608E-02  0.1093470E+00
         21   -1    0    0  501  502  0.00000000000E+00  0.00000000000E+00  0.52632009352E+01  0.52632009352E+01  0.00000000000E+00 0. -1.
         13   -1    0    0    0    0 -0.00000000000E+00 -0.00000000000E+00 -0.10000000000E+04  0.10000000000E+04  0.00000000000E+00 0.  1.
    9000005    2    1    2  501    0 -0.49315077977E+02 -0.17290994176E+02 -0.14923460719E+03  0.15814755838E+03  0.29541230843E+01 0.  0.
         13    1    3    3    0    0 -0.15676515112E+02 -0.44507883361E+01 -0.43677900869E+02  0.46618898177E+02  0.00000000000E+00 0.  1.
          3    1    3    3  501    0 -0.33638562864E+02 -0.12840205840E+02 -0.10555670632E+03  0.11152866020E+03  0.00000000000E+00 0.  1.
         -1    1    1    2    0  502  0.49315077977E+02  0.17290994176E+02 -0.84550219188E+03  0.84711564256E+03  0.00000000000E+00 0. -1.
<mgrwt>
<rscale>  1 0.30000000E+03</rscale>
<asrwt>0</asrwt>
<pdfrwt beam="1">  1       21 0.19138953E-01 0.30000000E+03</pdfrwt>
<pdfrwt beam="2">0</pdfrwt>
<totfact> 0.26087911E+03</totfact>
</mgrwt>
</event>
<event>
 6    1  0.8397183E-002  0.3000000E+03  0.7818608E-02  0.1093470E+00
         21   -1    0    0  501  502  0.00000000000E+00  0.00000000000E+00  0.12204272271E+01  0.12204272271E+01  0.00000000000E+00 0. -1.
         13   -1    0    0    0    0 -0.00000000000E+00 -0.00000000000E+00 -0.10000000000E+04  0.10000000000E+04  0.00000000000E+00 0.  1.
    9000005    2    1    2  501    0 -0.33804130022E+02  0.85310792873E+01 -0.48268935166E+03  0.48395394383E+03  0.26288818326E+01 0.  0.
         13    1    3    3    0    0 -0.33368235071E+00  0.30928271353E+00 -0.96263824391E+01  0.96371281288E+01  0.00000000000E+00 0.  1.
          3    1    3    3  501    0 -0.33470447671E+02  0.82217965738E+01 -0.47306296923E+03  0.47431681570E+03  0.00000000000E+00 0.  1.
         -3    1    1    2    0  502  0.33804130022E+02 -0.85310792873E+01 -0.51609022111E+03  0.51726648340E+03  0.00000000000E+00 0. -1.
<mgrwt>
<rscale>  1 0.30000000E+03</rscale>
<asrwt>0</asrwt>
<pdfrwt beam="1">  1       21 0.44379265E-02 0.30000000E+03</pdfrwt>
<pdfrwt beam="2">0</pdfrwt>
<totfact> 0.35279566E+04</totfact>
</mgrwt>
</event>
<event>
 6    1  0.8397183E-002  0.3000000E+03  0.7818608E-02  0.1093470E+00
         21   -1    0    0  501  502  0.00000000000E+00  0.00000000000E+00  0.16593833262E+01  0.16593833262E+01  0.00000000000E+00 0. -1.
         13   -1    0    0    0    0 -0.00000000000E+00 -0.00000000000E+00 -0.10000000000E+04  0.10000000000E+04  0.00000000000E+00 0.  1.
    9000005    2    1    2  501    0  0.13379854113E+02 -0.28264877536E+02 -0.17998049010E+03  0.18270198482E+03  0.30190467403E+01 0.  0.
         13    1    3    3    0    0  0.26490109409E+01 -0.41267811547E+01 -0.23323155985E+02  0.23833111143E+02  0.00000000000E+00 0.  1.
          3    1    3    3  501    0  0.10730843172E+02 -0.24138096381E+02 -0.15665733411E+03  0.15886887368E+03  0.00000000000E+00 0.  1.
         -3    1    1    2    0  502 -0.13379854113E+02  0.28264877536E+02 -0.81836012658E+03  0.81895739851E+03  0.00000000000E+00 0. -1.
<mgrwt>
<rscale>  1 0.30000000E+03</rscale>
<asrwt>0</asrwt>
<pdfrwt beam="1">  1       21 0.60341339E-02 0.30000000E+03</pdfrwt>
<pdfrwt beam="2">0</pdfrwt>
<totfact> 0.20866489E+04</totfact>
</mgrwt>
</event>
<event>
 6    1  0.8397183E-002  0.3000000E+03  0.7818608E-02  0.1093470E+00
         21   -1    0    0  501  502  0.00000000000E+00  0.00000000000E+00  0.15218876456E+01  0.15218876456E+01  0.00000000000E+00 0. -1.
         13   -1    0    0    0    0 -0.00000000000E+00 -0.00000000000E+00 -0.10000000000E+04  0.10000000000E+04  0.00000000000E+00 0.  1.
    9000005    2    1    2  501    0 -0.25748849546E+02 -0.27619543894E+02 -0.37742326966E+03  0.37932018394E+03  0.31040307313E+01 0.  0.
         13    1    3    3    0    0 -0.30967532831E+01 -0.21305900174E+01 -0.42138419084E+02  0.42305740244E+02  0.00000000000E+00 0.  1.
          1    1    3    3  501    0 -0.22652096263E+02 -0.25488953877E+02 -0.33528485058E+03  0.33701444370E+03  0.00000000000E+00 0.  1.
         -1    1    1    2    0  502  0.25748849546E+02  0.27619543894E+02 -0.62105484269E+03  0.62220170370E+03  0.00000000000E+00 0. -1.
<mgrwt>
<rscale>  1 0.30000000E+03</rscale>
<asrwt>0</asrwt>
<pdfrwt beam="1">  1       21 0.55341486E-02 0.30000000E+03</pdfrwt>
<pdfrwt beam="2">0</pdfrwt>
<totfact> 0.24215714E+04</totfact>
</mgrwt>
</event>
<event>
 6    1  0.1831125E-001  0.3000000E+03  0.7818608E-02  0.1093470E+00
         21   -1    0    0  501  502  0.00000000000E+00  0.00000000000E+00  0.83089611449E+01  0.83089611449E+01  0.00000000000E+00 0. -1.
         13   -1    0    0    0    0 -0.00000000000E+00 -0.00000000000E+00 -0.10000000000E+04  0.10000000000E+04  0.00000000000E+00 0.  1.
    9000005    2    1    2  501    0  0.56465475611E+02 -0.49688864980E+02 -0.77967510524E+03  0.78334654352E+03  0.90113410232E+01 0.  0.
         13    1    3    3    0    0  0.39441097225E+02 -0.39952118899E+02 -0.57894833842E+03  0.58166394981E+03  0.00000000000E+00 0.  1.
          1    1    3    3  501    0  0.17024378386E+02 -0.97367460810E+01 -0.20072676683E+03  0.20168259371E+03  0.00000000000E+00 0.  1.
         -3    1    1    2    0  502 -0.56465475611E+02  0.49688864980E+02 -0.21201593361E+03  0.22496241763E+03  0.00000000000E+00 0. -1.
<mgrwt>
<rscale>  1 0.30000000E+03</rscale>
<asrwt>0</asrwt>
<pdfrwt beam="1">  1       21 0.30214468E-01 0.30000000E+03</pdfrwt>
<pdfrwt beam="2">0</pdfrwt>
<totfact> 0.10718874E+03</totfact>
</mgrwt>
</event>
<event>
 6    1  0.8397183E-002  0.3000000E+03  0.7818608E-02  0.1093470E+00
         21   -1    0    0  501  502  0.00000000000E+00  0.00000000000E+00  0.21140472035E+01  0.21140472035E+01  0.00000000000E+00 0. -1.
         13   -1    0    0    0    0 -0.00000000000E+00 -0.00000000000E+00 -0.10000000000E+04  0.10000000000E+04  0.00000000000E+00 0.  1.
    9000005    2    1    2  501    0 -0.39807126683E+02  0.22807496078E+02 -0.47816984752E+03  0.48037693016E+03  0.32867529733E+01 0.  0.
         13    1    3    3    0    0 -0.23496904814E+02  0.15062831740E+02 -0.29868658554E+03  0.29998778278E+03  0.00000000000E+00 0.  1.
          3    1    3    3  501    0 -0.16310221870E+02  0.77446643375E+01 -0.17948326198E+03  0.18038914738E+03  0.00000000000E+00 0.  1.
         -3    1    1    2    0  502  0.39807126683E+02 -0.22807496078E+02 -0.51971610528E+03  0.52173711704E+03  0.00000000000E+00 0. -1.
<mgrwt>
<rscale>  1 0.30000000E+03</rscale>
<asrwt>0</asrwt>
<pdfrwt beam="1">  1       21 0.76874606E-02 0.30000000E+03</pdfrwt>
<pdfrwt beam="2">0</pdfrwt>
<totfact> 0.13699009E+04</totfact>
</mgrwt>
</event>
<event>
 6    1  0.8397183E-002  0.3000000E+03  0.7818608E-02  0.1093470E+00
         21   -1    0    0  501  502  0.00000000000E+00  0.00000000000E+00  0.55746772727E+01  0.55746772727E+01  0.00000000000E+00 0. -1.
         13   -1    0    0    0    0 -0.00000000000E+00 -0.00000000000E+00 -0.10000000000E+04  0.10000000000E+04  0.00000000000E+00 0.  1.
    9000005    2    1    2  501    0 -0.47154358044E+02  0.47621849769E+02 -0.27782829230E+03  0.28585064816E+03  0.55370566165E+01 0.  0.
         13    1    3    3    0    0 -0.86303996797E+01  0.65747759868E+01 -0.39350899235E+02  0.40819171335E+02  0.00000000000E+00 0.  1.
          1    1    3    3  501    0 -0.38523958364E+02  0.41047073782E+02 -0.23847739306E+03  0.24503147683E+03  0.00000000000E+00 0.  1.
         -1    1    1    2    0  502  0.47154358044E+02 -0.47621849769E+02 -0.71659703043E+03  0.71972402911E+03  0.00000000000E+00 0. -1.
<mgrwt>
<rscale>  1 0.30000000E+03</rscale>
<asrwt>0</asrwt>
<pdfrwt beam="1">  1       21 0.20271596E-01 0.30000000E+03</pdfrwt>
<pdfrwt beam="2">0</pdfrwt>
<totfact> 0.23381918E+03</totfact>
</mgrwt>
</event>
<event>
 6    1  0.8397183E-002  0.3000000E+03  0.7818608E-02  0.1093470E+00
         21   -1    0    0  501  502  0.00000000000E+00  0.00000000000E+00  0.22890523368E+01  0.22890523368E+01  0.00000000000E+00 0. -1.
         13   -1    0    0    0    0 -0.00000000000E+00 -0.00000000000E+00 -0.10000000000E+04  0.10000000000E+04  0.00000000000E+00 0.  1.
    9000005    2    1    2  501    0 -0.48820877304E+01 -0.47387568309E+02 -0.45953037833E+03  0.46200418153E+03  0.32060467229E+01 0.  0.
         13    1    3    3    0    0 -0.46570284991E+01 -0.35674329615E+02 -0.35582271331E+03  0.35763689549E+03  0.00000000000E+00 0.  1.
          1    1    3    3  501    0 -0.22505923132E+00 -0.11713238694E+02 -0.10370766502E+03  0.10436728604E+03  0.00000000000E+00 0.  1.
         -1    1    1    2    0  502  0.48820877304E+01  0.47387568309E+02 -0.53818056933E+03  0.54028487080E+03  0.00000000000E+00 0. -1.
<mgrwt>
<rscale>  1 0.30000000E+03</rscale>
<asrwt>0</asrwt>
<pdfrwt beam="1">  1       21 0.83238442E-02 0.30000000E+03</pdfrwt>
<pdfrwt beam="2">0</pdfrwt>
<totfact> 0.11912845E+04</totfact>
</mgrwt>
</event>
<event>
 6    1  0.8397183E-002  0.3000000E+03  0.7818608E-02  0.1093470E+00
         21   -1    0    0  501  502  0.00000000000E+00  0.00000000000E+00  0.29011675456E+01  0.29011675456E+01  0.00000000000E+00 0. -1.
         13   -1    0    0    0    0 -0.00000000000E+00 -0.00000000000E+00 -0.10000000000E+04  0.10000000000E+04  0.00000000000E+00 0.  1.
    9000005    2    1    2  501    0  0.41027434696E+02 -0.34726134189E+02 -0.47428866873E+03  0.47733516590E+03  0.31566635224E+01 0.  0.
         13    1    3    3    0    0  0.10296839851E+02 -0.76611960014E+01 -0.10388842454E+03  0.10467819061E+03  0.00000000000E+00 0.  1.
          3    1    3    3  501    0  0.30730594845E+02 -0.27064938188E+02 -0.37040024419E+03  0.37265697529E+03  0.00000000000E+00 0.  1.
         -3    1    1    2    0  502 -0.41027434696E+02  0.34726134189E+02 -0.52281016373E+03  0.52556600165E+03  0.00000000000E+00 0. -1.
<mgrwt>
<rscale>  1 0.30000000E+03</rscale>
<asrwt>0</asrwt>
<pdfrwt beam="1">  1       21 0.10549722E-01 0.30000000E+03</pdfrwt>
<pdfrwt beam="2">0</pdfrwt>
<totfact> 0.78173741E+03</totfact>
</mgrwt>
</event>
<event>
 6    1  0.8397183E-002  0.3000000E+03  0.7818608E-02  0.1093470E+00
         21   -1    0    0  501  502  0.00000000000E+00  0.00000000000E+00  0.57675876983E+01  0.57675876983E+01  0.00000000000E+00 0. -1.
         13   -1    0    0    0    0 -0.00000000000E+00 -0.00000000000E+00 -0.10000000000E+04  0.10000000000E+04  0.00000000000E+00 0.  1.
    9000005    2    1    2  501    0 -0.21736416627E+02 -0.70558653638E+02 -0.38043266954E+03  0.38754342154E+03  0.31451729100E+01 0.  0.
         13    1    3    3    0    0 -0.23652317852E+01 -0.94303266099E+01 -0.45400403969E+02  0.46429754058E+02  0.00000000000E+00 0.  1.
          1    1    3    3  501    0 -0.19371184842E+02 -0.61128327028E+02 -0.33503226557E+03  0.34111366748E+03  0.00000000000E+00 0.  1.
         -1    1    1    2    0  502  0.21736416627E+02  0.70558653638E+02 -0.61379974276E+03  0.61822416616E+03  0.00000000000E+00 0. -1.
<mgrwt>
<rscale>  1 0.30000000E+03</rscale>
<asrwt>0</asrwt>
<pdfrwt beam="1">  1       21 0.20973090E-01 0.30000000E+03</pdfrwt>
<pdfrwt beam="2">0</pdfrwt>
<totfact> 0.21908006E+03</totfact>
</mgrwt>
</event>
<event>
 6    1  0.8397183E-002  0.3000000E+03  0.7818608E-02  0.1093470E+00
         21   -1    0    0  501  502  0.00000000000E+00  0.00000000000E+00  0.20332643148E+01  0.20332643148E+01  0.00000000000E+00 0. -1.
         13   -1    0    0    0    0 -0.00000000000E+00 -0.00000000000E+00 -0.10000000000E+04  0.10000000000E+04  0.00000000000E+00 0.  1.
    9000005    2    1    2  501    0  0.22910732023E+02 -0.32798456759E+02 -0.72952887837E+03  0.73063038362E+03  0.27807715265E+01 0.  0.
         13    1    3    3    0    0  0.18950526767E+02 -0.28265407462E+02 -0.63287482900E+03  0.63378908551E+03  0.00000000000E+00 0.  1.
          3    1    3    3  501    0  0.39602052560E+01 -0.45330492972E+01 -0.96654049365E+02  0.96841298113E+02  0.00000000000E+00 0.  1.
         -3    1    1    2    0  502 -0.22910732023E+02  0.32798456759E+02 -0.26843785732E+03  0.27140288070E+03  0.00000000000E+00 0. -1.
<mgrwt>
<rscale>  1 0.30000000E+03</rscale>
<asrwt>0</asrwt>
<pdfrwt beam="1">  1       21 0.73937040E-02 0.30000000E+03</pdfrwt>
<pdfrwt beam="2">0</pdfrwt>
<totfact> 0.14666305E+04</totfact>
</mgrwt>
</event>
<event>
 6    1  0.8397183E-002  0.3000000E+03  0.7818608E-02  0.1093470E+00
         21   -1    0    0  501  502  0.00000000000E+00  0.00000000000E+00  0.11465041738E+01  0.11465041738E+01  0.00000000000E+00 0. -1.
         13   -1    0    0    0    0 -0.00000000000E+00 -0.00000000000E+00 -0.10000000000E+04  0.10000000000E+04  0.00000000000E+00 0.  1.
    9000005    2    1    2  501    0  0.29637862088E+02 -0.15644894628E+02 -0.56118491343E+03  0.56219667377E+03  0.36643330451E+01 0.  0.
         13    1    3    3    0    0  0.27175287154E+02 -0.15407871098E+02 -0.51972474372E+03  0.52066275838E+03  0.00000000000E+00 0.  1.
          1    1    3    3  501    0  0.24625749333E+01 -0.23702353072E+00 -0.41460169711E+02  0.41533915393E+02  0.00000000000E+00 0.  1.
         -1    1    1    2    0  502 -0.29637862088E+02  0.15644894628E+02 -0.43766858239E+03  0.43894983040E+03  0.00000000000E+00 0. -1.
<mgrwt>
<rscale>  1 0.30000000E+03</rscale>
<asrwt>0</asrwt>
<pdfrwt beam="1">  1       21 0.41691149E-02 0.30000000E+03</pdfrwt>
<pdfrwt beam="2">0</pdfrwt>
<totfact> 0.39212033E+04</totfact>
</mgrwt>
</event>
<event>
 6    1  0.8397183E-002  0.3000000E+03  0.7818608E-02  0.1093470E+00
         21   -1    0    0  501  502  0.00000000000E+00  0.00000000000E+00  0.95299014187E+00  0.95299014187E+00  0.00000000000E+00 0. -1.
         13   -1    0    0    0    0 -0.00000000000E+00 -0.00000000000E+00 -0.10000000000E+04  0.10000000000E+04  0.00000000000E+00 0.  1.
    9000005    2    1    2  501    0 -0.15607246003E+02 -0.25875366984E+02 -0.59608101732E+03  0.59685558618E+03  0.33001217857E+01 0.  0.
         13    1    3    3    0    0  0.64336462127E-01 -0.90272328309E+00 -0.15349259703E+02  0.15375916947E+02  0.00000000000E+00 0.  1.
          1    1    3    3  501    0 -0.15671582465E+02 -0.24972643701E+02 -0.58073175762E+03  0.58147966924E+03  0.00000000000E+00 0.  1.
         -1    1    1    2    0  502  0.15607246003E+02  0.25875366984E+02 -0.40296599254E+03  0.40409740396E+03  0.00000000000E+00 0. -1.
<mgrwt>
<rscale>  1 0.30000000E+03</rscale>
<asrwt>0</asrwt>
<pdfrwt beam="1">  1       21 0.34654260E-02 0.30000000E+03</pdfrwt>
<pdfrwt beam="2">0</pdfrwt>
<totfact> 0.53498454E+04</totfact>
</mgrwt>
</event>
<event>
 6    1  0.8397183E-002  0.3000000E+03  0.7818608E-02  0.1093470E+00
         21   -1    0    0  501  502  0.00000000000E+00  0.00000000000E+00  0.19830862562E+01  0.19830862562E+01  0.00000000000E+00 0. -1.
         13   -1    0    0    0    0 -0.00000000000E+00 -0.00000000000E+00 -0.10000000000E+04  0.10000000000E+04  0.00000000000E+00 0.  1.
    9000005    2    1    2  501    0 -0.34194758704E+02  0.19123308789E+02 -0.26243309819E+03  0.26535663264E+03  0.28335488005E+01 0.  0.
         13    1    3    3    0    0 -0.26885693083E+02  0.13666535444E+02 -0.20162586239E+03  0.20386908316E+03  0.00000000000E+00 0.  1.
          1    1    3    3  501    0 -0.73090656205E+01  0.54567733446E+01 -0.60807235801E+02  0.61487549482E+02  0.00000000000E+00 0.  1.
         -3    1    1    2    0  502  0.34194758704E+02 -0.19123308789E+02 -0.73558381555E+03  0.73662645362E+03  0.00000000000E+00 0. -1.
<mgrwt>
<rscale>  1 0.30000000E+03</rscale>
<asrwt>0</asrwt>
<pdfrwt beam="1">  1       21 0.72112380E-02 0.30000000E+03</pdfrwt>
<pdfrwt beam="2">0</pdfrwt>
<totfact> 0.15320670E+04</totfact>
</mgrwt>
</event>
<event>
 6    1  0.8397183E-002  0.3000000E+03  0.7818608E-02  0.1093470E+00
         21   -1    0    0  501  502  0.00000000000E+00  0.00000000000E+00  0.14822815800E+01  0.14822815800E+01  0.00000000000E+00 0. -1.
         13   -1    0    0    0    0 -0.00000000000E+00 -0.00000000000E+00 -0.10000000000E+04  0.10000000000E+04  0.00000000000E+00 0.  1.
    9000005    2    1    2  501    0  0.32896613943E+02  0.16348560332E+02 -0.35222316418E+03  0.35414456951E+03  0.27849759763E+01 0.  0.
         13    1    3    3    0    0  0.50431763457E+00 -0.93327945978E-01 -0.45648053000E+01  0.45935273819E+01  0.00000000000E+00 0.  1.
          1    1    3    3  501    0  0.32392296309E+02  0.16441888278E+02 -0.34765835888E+03  0.34955104213E+03  0.00000000000E+00 0.  1.
         -1    1    1    2    0  502 -0.32896613943E+02 -0.16348560332E+02 -0.64629455424E+03  0.64733771207E+03  0.00000000000E+00 0. -1.
<mgrwt>
<rscale>  1 0.30000000E+03</rscale>
<asrwt>0</asrwt>
<pdfrwt beam="1">  1       21 0.53901262E-02 0.30000000E+03</pdfrwt>
<pdfrwt beam="2">0</pdfrwt>
<totfact> 0.25335163E+04</totfact>
</mgrwt>
</event>
<event>
 6    1  0.8397183E-002  0.3000000E+03  0.7818608E-02  0.1093470E+00
         21   -1    0    0  501  502  0.00000000000E+00  0.00000000000E+00  0.12636052791E+01  0.12636052791E+01  0.00000000000E+00 0. -1.
         13   -1    0    0    0    0 -0.00000000000E+00 -0.00000000000E+00 -0.10000000000E+04  0.10000000000E+04  0.00000000000E+00 0.  1.
    9000005    2    1    2  501    0  0.14154627196E+02  0.31600619584E+02 -0.39225817340E+03  0.39379773335E+03  0.33507549445E+01 0.  0.
         13    1    3    3    0    0  0.45428445971E+01  0.10492407448E+02 -0.14790832620E+03  0.14834959053E+03  0.00000000000E+00 0.  1.
          1    1    3    3  501    0  0.96117825984E+01  0.21108212136E+02 -0.24434984720E+03  0.24544814282E+03  0.00000000000E+00 0.  1.
         -1    1    1    2    0  502 -0.14154627196E+02 -0.31600619584E+02 -0.60647822132E+03  0.60746587193E+03  0.00000000000E+00 0. -1.
<mgrwt>
<rscale>  1 0.30000000E+03</rscale>
<asrwt>0</asrwt>
<pdfrwt beam="1">  1       21 0.45949380E-02 0.30000000E+03</pdfrwt>
<pdfrwt beam="2">0</pdfrwt>
<totfact> 0.33257938E+04</totfact>
</mgrwt>
</event>
<event>
 6    1  0.8397183E-002  0.3000000E+03  0.7818608E-02  0.1093470E+00
         21   -1    0    0  501  502  0.00000000000E+00  0.00000000000E+00  0.20313123046E+01  0.20313123046E+01  0.00000000000E+00 0. -1.
         13   -1    0    0    0    0 -0.00000000000E+00 -0.00000000000E+00 -0.10000000000E+04  0.10000000000E+04  0.00000000000E+00 0.  1.
    9000005    2    1    2  501    0 -0.21444759015E+01  0.41313271556E+02 -0.69666394358E+03  0.69789987031E+03  0.34919206916E+01 0.  0.
         13    1    3    3    0    0 -0.67184586602E+00  0.50899170370E+01 -0.10621201826E+03  0.10633603084E+03  0.00000000000E+00 0.  1.
          1    1    3    3  501    0 -0.14726300355E+01  0.36223354519E+02 -0.59045192533E+03  0.59156383948E+03  0.00000000000E+00 0.  1.
         -3    1    1    2    0  502  0.21444759015E+01 -0.41313271556E+02 -0.30130474411E+03  0.30413144199E+03  0.00000000000E+00 0. -1.
<mgrwt>
<rscale>  1 0.30000000E+03</rscale>
<asrwt>0</asrwt>
<pdfrwt beam="1">  1       21 0.73866058E-02 0.30000000E+03</pdfrwt>
<pdfrwt beam="2">0</pdfrwt>
<totfact> 0.14690962E+04</totfact>
</mgrwt>
</event>
<event>
 6    1  0.8397183E-002  0.3000000E+03  0.7818608E-02  0.1093470E+00
         21   -1    0    0  501  502  0.00000000000E+00  0.00000000000E+00  0.23007202858E+01  0.23007202858E+01  0.00000000000E+00 0. -1.
         13   -1    0    0    0    0 -0.00000000000E+00 -0.00000000000E+00 -0.10000000000E+04  0.10000000000E+04  0.00000000000E+00 0.  1.
    9000005    2    1    2  501    0  0.25781819710E+02  0.23632957125E+02 -0.15792355413E+03  0.16179700931E+03  0.38992795860E+01 0.  0.
         13    1    3    3    0    0  0.10981744365E+02  0.87639398480E+01 -0.71084160787E+02  0.72459390459E+02  0.00000000000E+00 0.  1.
          1    1    3    3  501    0  0.14800075345E+02  0.14869017277E+02 -0.86839393344E+02  0.89337618847E+02  0.00000000000E+00 0.  1.
         -1    1    1    2    0  502 -0.25781819710E+02 -0.23632957125E+02 -0.83977572558E+03  0.84050371098E+03  0.00000000000E+00 0. -1.
<mgrwt>
<rscale>  1 0.30000000E+03</rscale>
<asrwt>0</asrwt>
<pdfrwt beam="1">  1       21 0.83662732E-02 0.30000000E+03</pdfrwt>
<pdfrwt beam="2">0</pdfrwt>
<totfact> 0.11806654E+04</totfact>
</mgrwt>
</event>
<event>
 6    1  0.8397183E-002  0.3000000E+03  0.7818608E-02  0.1093470E+00
         21   -1    0    0  501  502  0.00000000000E+00  0.00000000000E+00  0.10716366760E+01  0.10716366760E+01  0.00000000000E+00 0. -1.
         13   -1    0    0    0    0 -0.00000000000E+00 -0.00000000000E+00 -0.10000000000E+04  0.10000000000E+04  0.00000000000E+00 0.  1.
    9000005    2    1    2  501    0 -0.17344112759E+02 -0.27642845422E+02 -0.50313326191E+03  0.50420371888E+03  0.36559185222E+01 0.  0.
         13    1    3    3    0    0 -0.11756621563E+01 -0.18483916280E+01 -0.22169169567E+02  0.22277136540E+02  0.00000000000E+00 0.  1.
          1    1    3    3  501    0 -0.16168450603E+02 -0.25794453794E+02 -0.48096409234E+03  0.48192658234E+03  0.00000000000E+00 0.  1.
         -3    1    1    2    0  502  0.17344112759E+02  0.27642845422E+02 -0.49579510142E+03  0.49686791780E+03  0.00000000000E+00 0. -1.
<mgrwt>
<rscale>  1 0.30000000E+03</rscale>
<asrwt>0</asrwt>
<pdfrwt beam="1">  1       21 0.38968689E-02 0.30000000E+03</pdfrwt>
<pdfrwt beam="2">0</pdfrwt>
<totfact> 0.43936983E+04</totfact>
</mgrwt>
</event>
<event>
 6    1  0.8397183E-002  0.3000000E+03  0.7818608E-02  0.1093470E+00
         21   -1    0    0  501  502  0.00000000000E+00  0.00000000000E+00  0.17788487325E+01  0.17788487325E+01  0.00000000000E+00 0. -1.
         13   -1    0    0    0    0 -0.00000000000E+00 -0.00000000000E+00 -0.10000000000E+04  0.10000000000E+04  0.00000000000E+00 0.  1.
    9000005    2    1    2  501    0  0.35779683113E+02  0.21809743231E+02 -0.55010664302E+03  0.55170945061E+03  0.31856828709E+01 0.  0.
         13    1    3    3    0    0  0.20129701358E+02  0.13098547148E+02 -0.29643189844E+03  0.29740317286E+03  0.00000000000E+00 0.  1.
          3    1    3    3  501    0  0.15649981755E+02  0.87111960834E+01 -0.25367474458E+03  0.25430627775E+03  0.00000000000E+00 0.  1.
         -3    1    1    2    0  502 -0.35779683113E+02 -0.21809743231E+02 -0.44811450825E+03  0.45006939812E+03  0.00000000000E+00 0. -1.
<mgrwt>
<rscale>  1 0.30000000E+03</rscale>
<asrwt>0</asrwt>
<pdfrwt beam="1">  1       21 0.64685545E-02 0.30000000E+03</pdfrwt>
<pdfrwt beam="2">0</pdfrwt>
<totfact> 0.18504746E+04</totfact>
</mgrwt>
</event>
<event>
 6    1  0.8397183E-002  0.3000000E+03  0.7818608E-02  0.1093470E+00
         21   -1    0    0  501  502  0.00000000000E+00  0.00000000000E+00  0.18532056826E+01  0.18532056826E+01  0.00000000000E+00 0. -1.
         13   -1    0    0    0    0 -0.00000000000E+00 -0.00000000000E+00 -0.10000000000E+04  0.10000000000E+04  0.00000000000E+00 0.  1.
    9000005    2    1    2  501    0 -0.37743475145E+02 -0.19817942687E+02 -0.56418818484E+03  0.56580573636E+03  0.32407729889E+01 0.  0.
         13    1    3    3    0    0 -0.16507591229E+02 -0.79865346461E+01 -0.22311409234E+03  0.22386644122E+03  0.00000000000E+00 0.  1.
          3    1    3    3  501    0 -0.21235883915E+02 -0.11831408041E+02 -0.34107409250E+03  0.34193929514E+03  0.00000000000E+00 0.  1.
         -1    1    1    2    0  502  0.37743475145E+02  0.19817942687E+02 -0.43395860947E+03  0.43604746932E+03  0.00000000000E+00 0. -1.
<mgrwt>
<rscale>  1 0.30000000E+03</rscale>
<asrwt>0</asrwt>
<pdfrwt beam="1">  1       21 0.67389440E-02 0.30000000E+03</pdfrwt>
<pdfrwt beam="2">0</pdfrwt>
<totfact> 0.17236975E+04</totfact>
</mgrwt>
</event>
<event>
 6    1  0.8397183E-002  0.3000000E+03  0.7818608E-02  0.1093470E+00
         21   -1    0    0  501  502  0.00000000000E+00  0.00000000000E+00  0.10573661435E+01  0.10573661435E+01  0.00000000000E+00 0. -1.
         13   -1    0    0    0    0 -0.00000000000E+00 -0.00000000000E+00 -0.10000000000E+04  0.10000000000E+04  0.00000000000E+00 0.  1.
    9000005    2    1    2  501    0 -0.13610217266E+02  0.26777864269E+02 -0.31360591582E+03  0.31506268022E+03  0.36783148403E+01 0.  0.
         13    1    3    3    0    0 -0.21987553508E+01  0.24612317937E+01 -0.27058139850E+02  0.27258670532E+02  0.00000000000E+00 0.  1.
          1    1    3    3  501    0 -0.11411461916E+02  0.24316632475E+02 -0.28654777597E+03  0.28780400969E+03  0.00000000000E+00 0.  1.
         -1    1    1    2    0  502  0.13610217266E+02 -0.26777864269E+02 -0.68533671803E+03  0.68599468592E+03  0.00000000000E+00 0. -1.
<mgrwt>
<rscale>  1 0.30000000E+03</rscale>
<asrwt>0</asrwt>
<pdfrwt beam="1">  1       21 0.38449759E-02 0.30000000E+03</pdfrwt>
<pdfrwt beam="2">0</pdfrwt>
<totfact> 0.44938633E+04</totfact>
</mgrwt>
</event>
<event>
 6    1  0.8397183E-002  0.3000000E+03  0.7818608E-02  0.1093470E+00
         21   -1    0    0  501  502  0.00000000000E+00  0.00000000000E+00  0.15011925226E+01  0.15011925226E+01  0.00000000000E+00 0. -1.
         13   -1    0    0    0    0 -0.00000000000E+00 -0.00000000000E+00 -0.10000000000E+04  0.10000000000E+04  0.00000000000E+00 0.  1.
    9000005    2    1    2  501    0  0.32051566954E+02 -0.93916854723E+00 -0.22337728901E+03  0.22571671641E+03  0.47368598218E+01 0.  0.
         13    1    3    3    0    0  0.16810419042E+02 -0.19675476903E+01 -0.13021503402E+03  0.13131038237E+03  0.00000000000E+00 0.  1.
          1    1    3    3  501    0  0.15241147912E+02  0.10283791431E+01 -0.93162254988E+02  0.94406334045E+02  0.00000000000E+00 0.  1.
         -1    1    1    2    0  502 -0.32051566954E+02  0.93916854723E+00 -0.77512151847E+03  0.77578447611E+03  0.00000000000E+00 0. -1.
<mgrwt>
<rscale>  1 0.30000000E+03</rscale>
<asrwt>0</asrwt>
<pdfrwt beam="1">  1       21 0.54588934E-02 0.30000000E+03</pdfrwt>
<pdfrwt beam="2">0</pdfrwt>
<totfact> 0.24790918E+04</totfact>
</mgrwt>
</event>
<event>
 6    1  0.8397183E-002  0.3000000E+03  0.7818608E-02  0.1093470E+00
         21   -1    0    0  501  502  0.00000000000E+00  0.00000000000E+00  0.20759799374E+01  0.20759799374E+01  0.00000000000E+00 0. -1.
         13   -1    0    0    0    0 -0.00000000000E+00 -0.00000000000E+00 -0.10000000000E+04  0.10000000000E+04  0.00000000000E+00 0.  1.
    9000005    2    1    2  501    0 -0.40661056705E+02 -0.19950046188E+02 -0.45180671766E+03  0.45408379582E+03  0.33849112459E+01 0.  0.
         13    1    3    3    0    0 -0.21611216508E+02 -0.11910661860E+02 -0.25786713832E+03  0.25904511107E+03  0.00000000000E+00 0.  1.
          1    1    3    3  501    0 -0.19049840197E+02 -0.80393843274E+01 -0.19393957934E+03  0.19503868475E+03  0.00000000000E+00 0.  1.
         -1    1    1    2    0  502  0.40661056705E+02  0.19950046188E+02 -0.54611730240E+03  0.54799218412E+03  0.00000000000E+00 0. -1.
<mgrwt>
<rscale>  1 0.30000000E+03</rscale>
<asrwt>0</asrwt>
<pdfrwt beam="1">  1       21 0.75490339E-02 0.30000000E+03</pdfrwt>
<pdfrwt beam="2">0</pdfrwt>
<totfact> 0.14142159E+04</totfact>
</mgrwt>
</event>
<event>
 6    1  0.8397183E-002  0.3000000E+03  0.7818608E-02  0.1093470E+00
         21   -1    0    0  501  502  0.00000000000E+00  0.00000000000E+00  0.22287440875E+01  0.22287440875E+01  0.00000000000E+00 0. -1.
         13   -1    0    0    0    0 -0.00000000000E+00 -0.00000000000E+00 -0.10000000000E+04  0.10000000000E+04  0.00000000000E+00 0.  1.
    9000005    2    1    2  501    0 -0.22998596624E+02 -0.24013913099E+02 -0.85451306074E+03  0.85516238508E+03  0.21284744914E+01 0.  0.
         13    1    3    3    0    0 -0.98261140922E+01 -0.11757904453E+02 -0.39887115783E+03  0.39916538099E+03  0.00000000000E+00 0.  1.
          3    1    3    3  501    0 -0.13172482532E+02 -0.12256008646E+02 -0.45564190292E+03  0.45599700409E+03  0.00000000000E+00 0.  1.
         -1    1    1    2    0  502  0.22998596624E+02  0.24013913099E+02 -0.14325819517E+03  0.14706635901E+03  0.00000000000E+00 0. -1.
<mgrwt>
<rscale>  1 0.30000000E+03</rscale>
<asrwt>0</asrwt>
<pdfrwt beam="1">  1       21 0.81045410E-02 0.30000000E+03</pdfrwt>
<pdfrwt beam="2">0</pdfrwt>
<totfact> 0.12485761E+04</totfact>
</mgrwt>
</event>
<event>
 6    1  0.8397183E-002  0.3000000E+03  0.7818608E-02  0.1093470E+00
         21   -1    0    0  501  502  0.00000000000E+00  0.00000000000E+00  0.10906015972E+01  0.10906015972E+01  0.00000000000E+00 0. -1.
         13   -1    0    0    0    0 -0.00000000000E+00 -0.00000000000E+00 -0.10000000000E+04  0.10000000000E+04  0.00000000000E+00 0.  1.
    9000005    2    1    2  501    0  0.11255922087E+02 -0.29960533428E+02 -0.38097470845E+03  0.38232763374E+03  0.28916598677E+01 0.  0.
         13    1    3    3    0    0  0.91428430162E+01 -0.23268593602E+02 -0.28315700096E+03  0.28425852005E+03  0.00000000000E+00 0.  1.
          1    1    3    3  501    0  0.21130790713E+01 -0.66919398257E+01 -0.97817707488E+02  0.98069113691E+02  0.00000000000E+00 0.  1.
         -3    1    1    2    0  502 -0.11255922087E+02  0.29960533428E+02 -0.61793468995E+03  0.61876296786E+03  0.00000000000E+00 0. -1.
<mgrwt>
<rscale>  1 0.30000000E+03</rscale>
<asrwt>0</asrwt>
<pdfrwt beam="1">  1       21 0.39658324E-02 0.30000000E+03</pdfrwt>
<pdfrwt beam="2">0</pdfrwt>
<totfact> 0.42659043E+04</totfact>
</mgrwt>
</event>
<event>
 6    1  0.8397183E-002  0.3000000E+03  0.7818608E-02  0.1093470E+00
         21   -1    0    0  501  502  0.00000000000E+00  0.00000000000E+00  0.12112487854E+01  0.12112487854E+01  0.00000000000E+00 0. -1.
         13   -1    0    0    0    0 -0.00000000000E+00 -0.00000000000E+00 -0.10000000000E+04  0.10000000000E+04  0.00000000000E+00 0.  1.
    9000005    2    1    2  501    0 -0.12111379155E+02  0.31227595973E+02 -0.36865266218E+03  0.37018562414E+03  0.32806603428E+01 0.  0.
         13    1    3    3    0    0 -0.11363197713E+02  0.26023049776E+02 -0.31036492478E+03  0.31166120695E+03  0.00000000000E+00 0.  1.
          1    1    3    3  501    0 -0.74818144144E+00  0.52045461966E+01 -0.58287737398E+02  0.58524417191E+02  0.00000000000E+00 0.  1.
         -3    1    1    2    0  502  0.12111379155E+02 -0.31227595973E+02 -0.63013608904E+03  0.63102562465E+03  0.00000000000E+00 0. -1.
<mgrwt>
<rscale>  1 0.30000000E+03</rscale>
<asrwt>0</asrwt>
<pdfrwt beam="1">  1       21 0.44045503E-02 0.30000000E+03</pdfrwt>
<pdfrwt beam="2">0</pdfrwt>
<totfact> 0.35733780E+04</totfact>
</mgrwt>
</event>
<event>
 6    1  0.8397183E-002  0.3000000E+03  0.7818608E-02  0.1093470E+00
         21   -1    0    0  501  502  0.00000000000E+00  0.00000000000E+00  0.15707386496E+01  0.15707386496E+01  0.00000000000E+00 0. -1.
         13   -1    0    0    0    0 -0.00000000000E+00 -0.00000000000E+00 -0.10000000000E+04  0.10000000000E+04  0.00000000000E+00 0.  1.
    9000005    2    1    2  501    0 -0.38768117200E+01  0.39287487704E+02 -0.46778919360E+03  0.46946415360E+03  0.33653380267E+01 0.  0.
         13    1    3    3    0    0 -0.10058133575E+01  0.26343706295E+02 -0.31199454745E+03  0.31310637196E+03  0.00000000000E+00 0.  1.
          1    1    3    3  501    0 -0.28709983624E+01  0.12943781409E+02 -0.15579464615E+03  0.15635778164E+03  0.00000000000E+00 0.  1.
         -1    1    1    2    0  502  0.38768117200E+01 -0.39287487704E+02 -0.53064006775E+03  0.53210658505E+03  0.00000000000E+00 0. -1.
<mgrwt>
<rscale>  1 0.30000000E+03</rscale>
<asrwt>0</asrwt>
<pdfrwt beam="1">  1       21 0.57117890E-02 0.30000000E+03</pdfrwt>
<pdfrwt beam="2">0</pdfrwt>
<totfact> 0.22936621E+04</totfact>
</mgrwt>
</event>
<event>
 6    1  0.8397183E-002  0.3000000E+03  0.7818608E-02  0.1093470E+00
         21   -1    0    0  501  502  0.00000000000E+00  0.00000000000E+00  0.11622754942E+01  0.11622754942E+01  0.00000000000E+00 0. -1.
         13   -1    0    0    0    0 -0.00000000000E+00 -0.00000000000E+00 -0.10000000000E+04  0.10000000000E+04  0.00000000000E+00 0.  1.
    9000005    2    1    2  501    0 -0.66241713463E+00  0.32481159622E+02 -0.35957440924E+03  0.36107396067E+03  0.50184428332E+01 0.  0.
         13    1    3    3    0    0  0.78028243358E+00  0.10770971504E+01 -0.21475880679E+02  0.21517026512E+02  0.00000000000E+00 0.  1.
          3    1    3    3  501    0 -0.14426995682E+01  0.31404062472E+02 -0.33809852856E+03  0.33955693416E+03  0.00000000000E+00 0.  1.
         -3    1    1    2    0  502  0.66241713463E+00 -0.32481159622E+02 -0.63926331527E+03  0.64008831482E+03  0.00000000000E+00 0. -1.
<mgrwt>
<rscale>  1 0.30000000E+03</rscale>
<asrwt>0</asrwt>
<pdfrwt beam="1">  1       21 0.42264653E-02 0.30000000E+03</pdfrwt>
<pdfrwt beam="2">0</pdfrwt>
<totfact> 0.38317772E+04</totfact>
</mgrwt>
</event>
<event>
 6    1  0.8397183E-002  0.3000000E+03  0.7818608E-02  0.1093470E+00
         21   -1    0    0  501  502  0.00000000000E+00  0.00000000000E+00  0.26943540859E+01  0.26943540859E+01  0.00000000000E+00 0. -1.
         13   -1    0    0    0    0 -0.00000000000E+00 -0.00000000000E+00 -0.10000000000E+04  0.10000000000E+04  0.00000000000E+00 0.  1.
    9000005    2    1    2  501    0  0.70398208817E+01  0.46298352530E+02 -0.71418828689E+03  0.71573000872E+03  0.33822684799E+01 0.  0.
         13    1    3    3    0    0  0.57361334311E+01  0.28885775260E+02 -0.43367040748E+03  0.43466920016E+03  0.00000000000E+00 0.  1.
          1    1    3    3  501    0  0.13036874507E+01  0.17412577270E+02 -0.28051787940E+03  0.28106080857E+03  0.00000000000E+00 0.  1.
         -3    1    1    2    0  502 -0.70398208817E+01 -0.46298352530E+02 -0.28311735903E+03  0.28696434536E+03  0.00000000000E+00 0. -1.
<mgrwt>
<rscale>  1 0.30000000E+03</rscale>
<asrwt>0</asrwt>
<pdfrwt beam="1">  1       21 0.97976719E-02 0.30000000E+03</pdfrwt>
<pdfrwt beam="2">0</pdfrwt>
<totfact> 0.89230321E+03</totfact>
</mgrwt>
</event>
<event>
 6    1  0.8397183E-002  0.3000000E+03  0.7818608E-02  0.1093470E+00
         21   -1    0    0  501  502  0.00000000000E+00  0.00000000000E+00  0.13212810806E+01  0.13212810806E+01  0.00000000000E+00 0. -1.
         13   -1    0    0    0    0 -0.00000000000E+00 -0.00000000000E+00 -0.10000000000E+04  0.10000000000E+04  0.00000000000E+00 0.  1.
    9000005    2    1    2  501    0  0.34149405970E+02 -0.22114803506E+00 -0.33178118073E+03  0.33354994501E+03  0.32531669127E+01 0.  0.
         13    1    3    3    0    0  0.23713425007E+02  0.12891771620E+01 -0.22572119974E+03  0.22696706482E+03  0.00000000000E+00 0.  1.
          1    1    3    3  501    0  0.10435980963E+02 -0.15103251971E+01 -0.10605998100E+03  0.10658288019E+03  0.00000000000E+00 0.  1.
         -3    1    1    2    0  502 -0.34149405970E+02  0.22114803506E+00 -0.66689753819E+03  0.66777133607E+03  0.00000000000E+00 0. -1.
<mgrwt>
<rscale>  1 0.30000000E+03</rscale>
<asrwt>0</asrwt>
<pdfrwt beam="1">  1       21 0.48046686E-02 0.30000000E+03</pdfrwt>
<pdfrwt beam="2">0</pdfrwt>
<totfact> 0.30827503E+04</totfact>
</mgrwt>
</event>
<event>
 6    1  0.8397183E-002  0.3000000E+03  0.7818608E-02  0.1093470E+00
         21   -1    0    0  501  502  0.00000000000E+00  0.00000000000E+00  0.18590279166E+01  0.18590279166E+01  0.00000000000E+00 0. -1.
         13   -1    0    0    0    0 -0.00000000000E+00 -0.00000000000E+00 -0.10000000000E+04  0.10000000000E+04  0.00000000000E+00 0.  1.
    9000005    2    1    2  501    0 -0.37678643129E+01  0.34999835880E+02 -0.21172138055E+03  0.21465196541E+03  0.32152696901E+01 0.  0.
         13    1    3    3    0    0  0.16519134090E+00  0.99090538910E+01 -0.64180456489E+02  0.64941108955E+02  0.00000000000E+00 0.  1.
          3    1    3    3  501    0 -0.39330556537E+01  0.25090781989E+02 -0.14754092406E+03  0.14971085646E+03  0.00000000000E+00 0.  1.
         -3    1    1    2    0  502  0.37678643129E+01 -0.34999835880E+02 -0.78641959153E+03  0.78720706250E+03  0.00000000000E+00 0. -1.
<mgrwt>
<rscale>  1 0.30000000E+03</rscale>
<asrwt>0</asrwt>
<pdfrwt beam="1">  1       21 0.67601158E-02 0.30000000E+03</pdfrwt>
<pdfrwt beam="2">0</pdfrwt>
<totfact> 0.17143389E+04</totfact>
</mgrwt>
</event>
<event>
 6    1  0.8397183E-002  0.3000000E+03  0.7818608E-02  0.1093470E+00
         21   -1    0    0  501  502  0.00000000000E+00  0.00000000000E+00  0.25365911971E+01  0.25365911971E+01  0.00000000000E+00 0. -1.
         13   -1    0    0    0    0 -0.00000000000E+00 -0.00000000000E+00 -0.10000000000E+04  0.10000000000E+04  0.00000000000E+00 0.  1.
    9000005    2    1    2  501    0  0.34905680247E+02 -0.29244188131E+02 -0.71204253703E+03  0.71350596463E+03  0.35437215894E+01 0.  0.
         13    1    3    3    0    0  0.33651379627E+02 -0.27564440088E+02 -0.66934315837E+03  0.67075515456E+03  0.00000000000E+00 0.  1.
          3    1    3    3  501    0  0.12543006204E+01 -0.16797480433E+01 -0.42699378658E+02  0.42750810066E+02  0.00000000000E+00 0.  1.
         -1    1    1    2    0  502 -0.34905680247E+02  0.29244188131E+02 -0.28542087177E+03  0.28903062657E+03  0.00000000000E+00 0. -1.
<mgrwt>
<rscale>  1 0.30000000E+03</rscale>
<asrwt>0</asrwt>
<pdfrwt beam="1">  1       21 0.92239874E-02 0.30000000E+03</pdfrwt>
<pdfrwt beam="2">0</pdfrwt>
<totfact> 0.99352989E+03</totfact>
</mgrwt>
</event>
<event>
 6    1  0.8397183E-002  0.3000000E+03  0.7818608E-02  0.1093470E+00
         21   -1    0    0  501  502  0.00000000000E+00  0.00000000000E+00  0.16299984208E+01  0.16299984208E+01  0.00000000000E+00 0. -1.
         13   -1    0    0    0    0 -0.00000000000E+00 -0.00000000000E+00 -0.10000000000E+04  0.10000000000E+04  0.00000000000E+00 0.  1.
    9000005    2    1    2  501    0  0.38010147844E+02  0.10186185562E+02 -0.39311670508E+03  0.39509880991E+03  0.37143051000E+01 0.  0.
         13    1    3    3    0    0  0.11159938628E+02  0.23987660002E+01 -0.98760261273E+02  0.99417742456E+02  0.00000000000E+00 0.  1.
          1    1    3    3  501    0  0.26850209216E+02  0.77874195618E+01 -0.29435644381E+03  0.29568106746E+03  0.00000000000E+00 0.  1.
         -3    1    1    2    0  502 -0.38010147844E+02 -0.10186185562E+02 -0.60525329649E+03  0.60653118851E+03  0.00000000000E+00 0. -1.
<mgrwt>
<rscale>  1 0.30000000E+03</rscale>
<asrwt>0</asrwt>
<pdfrwt beam="1">  1       21 0.59272795E-02 0.30000000E+03</pdfrwt>
<pdfrwt beam="2">0</pdfrwt>
<totfact> 0.21519399E+04</totfact>
</mgrwt>
</event>
<event>
 6    1  0.8397183E-002  0.3000000E+03  0.7818608E-02  0.1093470E+00
         21   -1    0    0  501  502  0.00000000000E+00  0.00000000000E+00  0.16474230991E+01  0.16474230991E+01  0.00000000000E+00 0. -1.
         13   -1    0    0    0    0 -0.00000000000E+00 -0.00000000000E+00 -0.10000000000E+04  0.10000000000E+04  0.00000000000E+00 0.  1.
    9000005    2    1    2  501    0  0.38186856596E+02 -0.37588145595E+00 -0.33330750687E+03  0.33550680545E+03  0.35419015874E+01 0.  0.
         13    1    3    3    0    0  0.39552026877E+01 -0.51108485656E-01 -0.45158896060E+02  0.45331800469E+02  0.00000000000E+00 0.  1.
          3    1    3    3  501    0  0.34231653908E+02 -0.32477297029E+00 -0.28814861081E+03  0.29017500498E+03  0.00000000000E+00 0.  1.
         -3    1    1    2    0  502 -0.38186856596E+02  0.37588145595E+00 -0.66504507003E+03  0.66614061765E+03  0.00000000000E+00 0. -1.
<mgrwt>
<rscale>  1 0.30000000E+03</rscale>
<asrwt>0</asrwt>
<pdfrwt beam="1">  1       21 0.59906421E-02 0.30000000E+03</pdfrwt>
<pdfrwt beam="2">0</pdfrwt>
<totfact> 0.21128464E+04</totfact>
</mgrwt>
</event>
<event>
 6    1  0.8397183E-002  0.3000000E+03  0.7818608E-02  0.1093470E+00
         21   -1    0    0  501  502  0.00000000000E+00  0.00000000000E+00  0.17800525267E+01  0.17800525267E+01  0.00000000000E+00 0. -1.
         13   -1    0    0    0    0 -0.00000000000E+00 -0.00000000000E+00 -0.10000000000E+04  0.10000000000E+04  0.00000000000E+00 0.  1.
    9000005    2    1    2  501    0 -0.18415020492E+02  0.30123705579E+02 -0.22700234212E+03  0.22975469968E+03  0.32570053130E+01 0.  0.
         13    1    3    3    0    0 -0.13482978567E+02  0.22667101862E+02 -0.17803839199E+03  0.17998126914E+03  0.00000000000E+00 0.  1.
          3    1    3    3  501    0 -0.49320419244E+01  0.74566037161E+01 -0.48963950123E+02  0.49773430544E+02  0.00000000000E+00 0.  1.
         -1    1    1    2    0  502  0.18415020492E+02 -0.30123705579E+02 -0.77121760536E+03  0.77202535284E+03  0.00000000000E+00 0. -1.
<mgrwt>
<rscale>  1 0.30000000E+03</rscale>
<asrwt>0</asrwt>
<pdfrwt beam="1">  1       21 0.64729319E-02 0.30000000E+03</pdfrwt>
<pdfrwt beam="2">0</pdfrwt>
<totfact> 0.18483090E+04</totfact>
</mgrwt>
</event>
<event>
 6    1  0.8397183E-002  0.3000000E+03  0.7818608E-02  0.1093470E+00
         21   -1    0    0  501  502  0.00000000000E+00  0.00000000000E+00  0.26967065999E+01  0.26967065999E+01  0.00000000000E+00 0. -1.
         13   -1    0    0    0    0 -0.00000000000E+00 -0.00000000000E+00 -0.10000000000E+04  0.10000000000E+04  0.00000000000E+00 0.  1.
    9000005    2    1    2  501    0 -0.97880969823E+01  0.45044806328E+02 -0.26975780961E+03  0.27369240456E+03  0.36626554155E+01 0.  0.
         13    1    3    3    0    0 -0.65531596956E+01  0.33214613008E+02 -0.18890882672E+03  0.19191847027E+03  0.00000000000E+00 0.  1.
          1    1    3    3  501    0 -0.32349372866E+01  0.11830193321E+02 -0.80848982892E+02  0.81773934282E+02  0.00000000000E+00 0.  1.
         -3    1    1    2    0  502  0.97880969823E+01 -0.45044806328E+02 -0.72754548379E+03  0.72900430204E+03  0.00000000000E+00 0. -1.
<mgrwt>
<rscale>  1 0.30000000E+03</rscale>
<asrwt>0</asrwt>
<pdfrwt beam="1">  1       21 0.98062265E-02 0.30000000E+03</pdfrwt>
<pdfrwt beam="2">0</pdfrwt>
<totfact> 0.89091437E+03</totfact>
</mgrwt>
</event>
<event>
 6    1  0.8397183E-002  0.3000000E+03  0.7818608E-02  0.1093470E+00
         21   -1    0    0  501  502  0.00000000000E+00  0.00000000000E+00  0.10836045404E+01  0.10836045404E+01  0.00000000000E+00 0. -1.
         13   -1    0    0    0    0 -0.00000000000E+00 -0.00000000000E+00 -0.10000000000E+04  0.10000000000E+04  0.00000000000E+00 0.  1.
    9000005    2    1    2  501    0  0.22021163201E+02  0.23674109406E+02 -0.49139351911E+03  0.49253187157E+03  0.86405328542E+01 0.  0.
         13    1    3    3    0    0  0.12028525202E+02  0.16040192317E+02 -0.24564939889E+03  0.24646622560E+03  0.00000000000E+00 0.  1.
          3    1    3    3  501    0  0.99926379988E+01  0.76339170889E+01 -0.24574412022E+03  0.24606564597E+03  0.00000000000E+00 0.  1.
         -1    1    1    2    0  502 -0.22021163201E+02 -0.23674109406E+02 -0.50752287635E+03  0.50855173297E+03  0.00000000000E+00 0. -1.
<mgrwt>
<rscale>  1 0.30000000E+03</rscale>
<asrwt>0</asrwt>
<pdfrwt beam="1">  1       21 0.39403885E-02 0.30000000E+03</pdfrwt>
<pdfrwt beam="2">0</pdfrwt>
<totfact> 0.43123676E+04</totfact>
</mgrwt>
</event>
<event>
 6    1  0.8397183E-002  0.3000000E+03  0.7818608E-02  0.1093470E+00
         21   -1    0    0  501  502  0.00000000000E+00  0.00000000000E+00  0.21158106101E+01  0.21158106101E+01  0.00000000000E+00 0. -1.
         13   -1    0    0    0    0 -0.00000000000E+00 -0.00000000000E+00 -0.10000000000E+04  0.10000000000E+04  0.00000000000E+00 0.  1.
    9000005    2    1    2  501    0  0.29382181468E+02 -0.32466860491E+02 -0.64963812108E+03  0.65112758615E+03  0.44760992029E+01 0.  0.
         13    1    3    3    0    0  0.15141527203E+01 -0.15238380023E+01 -0.20327580170E+02  0.20440774357E+02  0.00000000000E+00 0.  1.
          1    1    3    3  501    0  0.27868028748E+02 -0.30943022489E+02 -0.62931054091E+03  0.63068681179E+03  0.00000000000E+00 0.  1.
         -3    1    1    2    0  502 -0.29382181468E+02  0.32466860491E+02 -0.34824606831E+03  0.35098822446E+03  0.00000000000E+00 0. -1.
<mgrwt>
<rscale>  1 0.30000000E+03</rscale>
<asrwt>0</asrwt>
<pdfrwt beam="1">  1       21 0.76938730E-02 0.30000000E+03</pdfrwt>
<pdfrwt beam="2">0</pdfrwt>
<totfact> 0.13679002E+04</totfact>
</mgrwt>
</event>
<event>
 6    1  0.8397183E-002  0.3000000E+03  0.7818608E-02  0.1093470E+00
         21   -1    0    0  501  502  0.00000000000E+00  0.00000000000E+00  0.12757006457E+01  0.12757006457E+01  0.00000000000E+00 0. -1.
         13   -1    0    0    0    0 -0.00000000000E+00 -0.00000000000E+00 -0.10000000000E+04  0.10000000000E+04  0.00000000000E+00 0.  1.
    9000005    2    1    2  501    0  0.24948313325E+02 -0.19947057021E+02 -0.71679029397E+03  0.71753799287E+03  0.72209598468E+01 0.  0.
         13    1    3    3    0    0  0.21125616059E+02 -0.18082485054E+02 -0.66156273001E+03  0.66214689734E+03  0.00000000000E+00 0.  1.
          3    1    3    3  501    0  0.38226972667E+01 -0.18645719671E+01 -0.55227563959E+02  0.55391095528E+02  0.00000000000E+00 0.  1.
         -1    1    1    2    0  502 -0.24948313325E+02  0.19947057021E+02 -0.28193400538E+03  0.28373770777E+03  0.00000000000E+00 0. -1.
<mgrwt>
<rscale>  1 0.30000000E+03</rscale>
<asrwt>0</asrwt>
<pdfrwt beam="1">  1       21 0.46389212E-02 0.30000000E+03</pdfrwt>
<pdfrwt beam="2">0</pdfrwt>
<totfact> 0.32723916E+04</totfact>
</mgrwt>
</event>
<event>
 6    1  0.8397183E-002  0.3000000E+03  0.7818608E-02  0.1093470E+00
         21   -1    0    0  501  502  0.00000000000E+00  0.00000000000E+00  0.13301900359E+01  0.13301900359E+01  0.00000000000E+00 0. -1.
         13   -1    0    0    0    0 -0.00000000000E+00 -0.00000000000E+00 -0.10000000000E+04  0.10000000000E+04  0.00000000000E+00 0.  1.
    9000005    2    1    2  501    0  0.33555830890E+02 -0.26209787650E+01 -0.32168567605E+03  0.32350987395E+03  0.66408626108E+01 0.  0.
         13    1    3    3    0    0  0.13466898443E+02  0.16987728673E+01 -0.11188756939E+03  0.11270790286E+03  0.00000000000E+00 0.  1.
          1    1    3    3  501    0  0.20088932446E+02 -0.43197516322E+01 -0.20979810665E+03  0.21080197109E+03  0.00000000000E+00 0.  1.
         -3    1    1    2    0  502 -0.33555830890E+02  0.26209787650E+01 -0.67698413392E+03  0.67782031608E+03  0.00000000000E+00 0. -1.
<mgrwt>
<rscale>  1 0.30000000E+03</rscale>
<asrwt>0</asrwt>
<pdfrwt beam="1">  1       21 0.48370649E-02 0.30000000E+03</pdfrwt>
<pdfrwt beam="2">0</pdfrwt>
<totfact> 0.30476941E+04</totfact>
</mgrwt>
</event>
<event>
 6    1  0.8397183E-002  0.3000000E+03  0.7818608E-02  0.1093470E+00
         21   -1    0    0  501  502  0.00000000000E+00  0.00000000000E+00  0.19282727451E+01  0.19282727451E+01  0.00000000000E+00 0. -1.
         13   -1    0    0    0    0 -0.00000000000E+00 -0.00000000000E+00 -0.10000000000E+04  0.10000000000E+04  0.00000000000E+00 0.  1.
    9000005    2    1    2  501    0 -0.32540099083E+02 -0.21157709016E+02 -0.73106382568E+03  0.73211402886E+03  0.54888376277E+01 0.  0.
         13    1    3    3    0    0 -0.75056965796E+01 -0.69085739691E+01 -0.16095367971E+03  0.16127662846E+03  0.00000000000E+00 0.  1.
          1    1    3    3  501    0 -0.25034402503E+02 -0.14249135047E+02 -0.57011014596E+03  0.57083740039E+03  0.00000000000E+00 0.  1.
         -1    1    1    2    0  502  0.32540099083E+02  0.21157709016E+02 -0.26700790158E+03  0.26981424389E+03  0.00000000000E+00 0. -1.
<mgrwt>
<rscale>  1 0.30000000E+03</rscale>
<asrwt>0</asrwt>
<pdfrwt beam="1">  1       21 0.70119157E-02 0.30000000E+03</pdfrwt>
<pdfrwt beam="2">0</pdfrwt>
<totfact> 0.16087595E+04</totfact>
</mgrwt>
</event>
<event>
 6    1  0.8397183E-002  0.3000000E+03  0.7818608E-02  0.1093470E+00
         21   -1    0    0  501  502  0.00000000000E+00  0.00000000000E+00  0.27229485391E+01  0.27229485391E+01  0.00000000000E+00 0. -1.
         13   -1    0    0    0    0 -0.00000000000E+00 -0.00000000000E+00 -0.10000000000E+04  0.10000000000E+04  0.00000000000E+00 0.  1.
    9000005    2    1    2  501    0 -0.44579078448E+02 -0.26709467266E+02 -0.46188349450E+03  0.46481315061E+03  0.37699612805E+01 0.  0.
         13    1    3    3    0    0 -0.76087416575E+01 -0.34441847184E+01 -0.83492433914E+02  0.83909128698E+02  0.00000000000E+00 0.  1.
          1    1    3    3  501    0 -0.36970336791E+02 -0.23265282547E+02 -0.37839106059E+03  0.38090402191E+03  0.00000000000E+00 0.  1.
         -1    1    1    2    0  502  0.44579078448E+02  0.26709467266E+02 -0.53539355696E+03  0.53790979793E+03  0.00000000000E+00 0. -1.
<mgrwt>
<rscale>  1 0.30000000E+03</rscale>
<asrwt>0</asrwt>
<pdfrwt beam="1">  1       21 0.99016519E-02 0.30000000E+03</pdfrwt>
<pdfrwt beam="2">0</pdfrwt>
<totfact> 0.87564363E+03</totfact>
</mgrwt>
</event>
<event>
 6    1  0.8397183E-002  0.3000000E+03  0.7818608E-02  0.1093470E+00
         21   -1    0    0  501  502  0.00000000000E+00  0.00000000000E+00  0.15280146554E+01  0.15280146554E+01  0.00000000000E+00 0. -1.
         13   -1    0    0    0    0 -0.00000000000E+00 -0.00000000000E+00 -0.10000000000E+04  0.10000000000E+04  0.00000000000E+00 0.  1.
    9000005    2    1    2  501    0  0.18335701132E+02  0.30582951202E+02 -0.29674253823E+03  0.29889316512E+03  0.30782003496E+01 0.  0.
         13    1    3    3    0    0  0.46743002224E+01  0.54089923033E+01 -0.58998676390E+02  0.59430211981E+02  0.00000000000E+00 0.  1.
          1    1    3    3  501    0  0.13661400910E+02  0.25173958898E+02 -0.23774386184E+03  0.23946295314E+03  0.00000000000E+00 0.  1.
         -1    1    1    2    0  502 -0.18335701132E+02 -0.30582951202E+02 -0.70172944711E+03  0.70263484954E+03  0.00000000000E+00 0. -1.
<mgrwt>
<rscale>  1 0.30000000E+03</rscale>
<asrwt>0</asrwt>
<pdfrwt beam="1">  1       21 0.55564286E-02 0.30000000E+03</pdfrwt>
<pdfrwt beam="2">0</pdfrwt>
<totfact> 0.24049356E+04</totfact>
</mgrwt>
</event>
<event>
 6    1  0.8397183E-002  0.3000000E+03  0.7818608E-02  0.1093470E+00
         21   -1    0    0  501  502  0.00000000000E+00  0.00000000000E+00  0.25983053379E+01  0.25983053379E+01  0.00000000000E+00 0. -1.
         13   -1    0    0    0    0 -0.00000000000E+00 -0.00000000000E+00 -0.10000000000E+04  0.10000000000E+04  0.00000000000E+00 0.  1.
    9000005    2    1    2  501    0  0.41452988836E+02  0.23927067919E+01 -0.21325289334E+03  0.21735094434E+03  0.63687644941E+01 0.  0.
         13    1    3    3    0    0  0.37046823590E+02  0.49065980328E+00 -0.19421948465E+03  0.19772181494E+03  0.00000000000E+00 0.  1.
          1    1    3    3  501    0  0.44061652455E+01  0.19020469886E+01 -0.19033408682E+02  0.19629129400E+02  0.00000000000E+00 0.  1.
         -1    1    1    2    0  502 -0.41452988836E+02 -0.23927067919E+01 -0.78414880133E+03  0.78524736100E+03  0.00000000000E+00 0. -1.
<mgrwt>
<rscale>  1 0.30000000E+03</rscale>
<asrwt>0</asrwt>
<pdfrwt beam="1">  1       21 0.94484030E-02 0.30000000E+03</pdfrwt>
<pdfrwt beam="2">0</pdfrwt>
<totfact> 0.95196035E+03</totfact>
</mgrwt>
</event>
<event>
 6    1  0.8397183E-002  0.3000000E+03  0.7818608E-02  0.1093470E+00
         21   -1    0    0  501  502  0.00000000000E+00  0.00000000000E+00  0.60008066782E+01  0.60008066782E+01  0.00000000000E+00 0. -1.
         13   -1    0    0    0    0 -0.00000000000E+00 -0.00000000000E+00 -0.10000000000E+04  0.10000000000E+04  0.00000000000E+00 0.  1.
    9000005    2    1    2  501    0  0.74180075734E+02 -0.17931406081E+02 -0.58198110385E+03  0.58697440535E+03  0.35676792341E+01 0.  0.
         13    1    3    3    0    0  0.51565779727E+02 -0.13946320816E+02 -0.40099961951E+03  0.40454199330E+03  0.00000000000E+00 0.  1.
          3    1    3    3  501    0  0.22614296007E+02 -0.39850852642E+01 -0.18098148435E+03  0.18243241205E+03  0.00000000000E+00 0.  1.
         -3    1    1    2    0  502 -0.74180075734E+02  0.17931406081E+02 -0.41201808947E+03  0.41902640133E+03  0.00000000000E+00 0. -1.
<mgrwt>
<rscale>  1 0.30000000E+03</rscale>
<asrwt>0</asrwt>
<pdfrwt beam="1">  1       21 0.21821161E-01 0.30000000E+03</pdfrwt>
<pdfrwt beam="2">0</pdfrwt>
<totfact> 0.20302369E+03</totfact>
</mgrwt>
</event>
<event>
 6    1  0.8397183E-002  0.3000000E+03  0.7818608E-02  0.1093470E+00
         21   -1    0    0  501  502  0.00000000000E+00  0.00000000000E+00  0.10073802942E+01  0.10073802942E+01  0.00000000000E+00 0. -1.
         13   -1    0    0    0    0 -0.00000000000E+00 -0.00000000000E+00 -0.10000000000E+04  0.10000000000E+04  0.00000000000E+00 0.  1.
    9000005    2    1    2  501    0  0.30615514356E+02  0.63805080524E+01 -0.56510232767E+03  0.56599151147E+03  0.52659016818E+01 0.  0.
         13    1    3    3    0    0  0.24785336533E+02  0.72311346443E+01 -0.45703204622E+03  0.45776073825E+03  0.00000000000E+00 0.  1.
          1    1    3    3  501    0  0.58301778230E+01 -0.85062659193E+00 -0.10807028145E+03  0.10823077322E+03  0.00000000000E+00 0.  1.
         -3    1    1    2    0  502 -0.30615514356E+02 -0.63805080524E+01 -0.43389029204E+03  0.43501586882E+03  0.00000000000E+00 0. -1.
<mgrwt>
<rscale>  1 0.30000000E+03</rscale>
<asrwt>0</asrwt>
<pdfrwt beam="1">  1       21 0.36632088E-02 0.30000000E+03</pdfrwt>
<pdfrwt beam="2">0</pdfrwt>
<totfact> 0.48746119E+04</totfact>
</mgrwt>
</event>
<event>
 6    1  0.8397183E-002  0.3000000E+03  0.7818608E-02  0.1093470E+00
         21   -1    0    0  501  502  0.00000000000E+00  0.00000000000E+00  0.11748781412E+01  0.11748781412E+01  0.00000000000E+00 0. -1.
         13   -1    0    0    0    0 -0.00000000000E+00 -0.00000000000E+00 -0.10000000000E+04  0.10000000000E+04  0.00000000000E+00 0.  1.
    9000005    2    1    2  501    0 -0.22924180923E+02 -0.25127251129E+02 -0.55476425460E+03  0.55581328275E+03  0.28513640906E+01 0.  0.
         13    1    3    3    0    0 -0.13237213105E+02 -0.15971403898E+02 -0.32153501848E+03  0.32220347245E+03  0.00000000000E+00 0.  1.
          3    1    3    3  501    0 -0.96869678179E+01 -0.91558472317E+01 -0.23322923612E+03  0.23360981029E+03  0.00000000000E+00 0.  1.
         -3    1    1    2    0  502  0.22924180923E+02  0.25127251129E+02 -0.44406086726E+03  0.44536159540E+03  0.00000000000E+00 0. -1.
<mgrwt>
<rscale>  1 0.30000000E+03</rscale>
<asrwt>0</asrwt>
<pdfrwt beam="1">  1       21 0.42722932E-02 0.30000000E+03</pdfrwt>
<pdfrwt beam="2">0</pdfrwt>
<totfact> 0.37625759E+04</totfact>
</mgrwt>
</event>
<event>
 6    1  0.1908242E-001  0.3000000E+03  0.7818608E-02  0.1093470E+00
         21   -1    0    0  501  502  0.00000000000E+00  0.00000000000E+00  0.47739308216E+01  0.47739308216E+01  0.00000000000E+00 0. -1.
         13   -1    0    0    0    0 -0.00000000000E+00 -0.00000000000E+00 -0.10000000000E+04  0.10000000000E+04  0.00000000000E+00 0.  1.
    9000005    2    1    2  501    0 -0.49050475267E+02  0.44184406053E+02 -0.64283101688E+03  0.64624850112E+03  0.68700849689E+01 0.  0.
         13    1    3    3    0    0 -0.49136819901E+02  0.43845097231E+02 -0.63410589897E+03  0.63751636115E+03  0.00000000000E+00 0.  1.
          3    1    3    3  501    0  0.86344633707E-01  0.33930882217E+00 -0.87251179148E+01  0.87321399726E+01  0.00000000000E+00 0.  1.
         -3    1    1    2    0  502  0.49050475267E+02 -0.44184406053E+02 -0.35239505229E+03  0.35852542970E+03  0.00000000000E+00 0. -1.
<mgrwt>
<rscale>  1 0.30000000E+03</rscale>
<asrwt>0</asrwt>
<pdfrwt beam="1">  1       21 0.17359785E-01 0.30000000E+03</pdfrwt>
<pdfrwt beam="2">0</pdfrwt>
<totfact> 0.31359472E+03</totfact>
</mgrwt>
</event>
<event>
 6    1  0.8397183E-002  0.3000000E+03  0.7818608E-02  0.1093470E+00
         21   -1    0    0  501  502  0.00000000000E+00  0.00000000000E+00  0.11123196463E+01  0.11123196463E+01  0.00000000000E+00 0. -1.
         13   -1    0    0    0    0 -0.00000000000E+00 -0.00000000000E+00 -0.10000000000E+04  0.10000000000E+04  0.00000000000E+00 0.  1.
    9000005    2    1    2  501    0 -0.29564252858E+02 -0.55114635092E+01 -0.28733473131E+03  0.28892412783E+03  0.33885904648E+01 0.  0.
         13    1    3    3    0    0 -0.28035928860E+02 -0.57071377788E+01 -0.26614048830E+03  0.26767395137E+03  0.00000000000E+00 0.  1.
          1    1    3    3  501    0 -0.15283239986E+01  0.19567426959E+00 -0.21194243009E+02  0.21250176456E+02  0.00000000000E+00 0.  1.
         -1    1    1    2    0  502  0.29564252858E+02  0.55114635092E+01 -0.71155294904E+03  0.71218819182E+03  0.00000000000E+00 0. -1.
<mgrwt>
<rscale>  1 0.30000000E+03</rscale>
<asrwt>0</asrwt>
<pdfrwt beam="1">  1       21 0.40448072E-02 0.30000000E+03</pdfrwt>
<pdfrwt beam="2">0</pdfrwt>
<totfact> 0.41265675E+04</totfact>
</mgrwt>
</event>
<event>
 6    1  0.8397183E-002  0.3000000E+03  0.7818608E-02  0.1093470E+00
         21   -1    0    0  501  502  0.00000000000E+00  0.00000000000E+00  0.27620300174E+01  0.27620300174E+01  0.00000000000E+00 0. -1.
         13   -1    0    0    0    0 -0.00000000000E+00 -0.00000000000E+00 -0.10000000000E+04  0.10000000000E+04  0.00000000000E+00 0.  1.
    9000005    2    1    2  501    0 -0.37183355541E+02 -0.18957003418E+02 -0.19493995741E+03  0.19937913818E+03  0.29127034350E+01 0.  0.
         13    1    3    3    0    0 -0.22997845209E+02 -0.10816610880E+02 -0.11296970229E+03  0.11579315002E+03  0.00000000000E+00 0.  1.
          1    1    3    3  501    0 -0.14185510332E+02 -0.81403925372E+01 -0.81970255117E+02  0.83585988167E+02  0.00000000000E+00 0.  1.
         -3    1    1    2    0  502  0.37183355541E+02  0.18957003418E+02 -0.80229801257E+03  0.80338289183E+03  0.00000000000E+00 0. -1.
<mgrwt>
<rscale>  1 0.30000000E+03</rscale>
<asrwt>0</asrwt>
<pdfrwt beam="1">  1       21 0.10043767E-01 0.30000000E+03</pdfrwt>
<pdfrwt beam="2">0</pdfrwt>
<totfact> 0.85363166E+03</totfact>
</mgrwt>
</event>
<event>
 6    1  0.8397183E-002  0.3000000E+03  0.7818608E-02  0.1093470E+00
         21   -1    0    0  501  502  0.00000000000E+00  0.00000000000E+00  0.16584567357E+01  0.16584567357E+01  0.00000000000E+00 0. -1.
         13   -1    0    0    0    0 -0.00000000000E+00 -0.00000000000E+00 -0.10000000000E+04  0.10000000000E+04  0.00000000000E+00 0.  1.
    9000005    2    1    2  501    0 -0.32743625363E+02 -0.18750313627E+02 -0.31357567129E+03  0.31585380621E+03  0.31946844562E+01 0.  0.
         13    1    3    3    0    0 -0.30108382207E+02 -0.16388823545E+02 -0.28858870249E+03  0.29061752773E+03  0.00000000000E+00 0.  1.
          3    1    3    3  501    0 -0.26352431561E+01 -0.23614900823E+01 -0.24986968803E+02  0.25236278486E+02  0.00000000000E+00 0.  1.
         -1    1    1    2    0  502  0.32743625363E+02  0.18750313627E+02 -0.68476587197E+03  0.68580465052E+03  0.00000000000E+00 0. -1.
<mgrwt>
<rscale>  1 0.30000000E+03</rscale>
<asrwt>0</asrwt>
<pdfrwt beam="1">  1       21 0.60307645E-02 0.30000000E+03</pdfrwt>
<pdfrwt beam="2">0</pdfrwt>
<totfact> 0.20886604E+04</totfact>
</mgrwt>
</event>
<event>
 6    1  0.8397183E-002  0.3000000E+03  0.7818608E-02  0.1093470E+00
         21   -1    0    0  501  502  0.00000000000E+00  0.00000000000E+00  0.11621399861E+01  0.11621399861E+01  0.00000000000E+00 0. -1.
         13   -1    0    0    0    0 -0.00000000000E+00 -0.00000000000E+00 -0.10000000000E+04  0.10000000000E+04  0.00000000000E+00 0.  1.
    9000005    2    1    2  501    0 -0.18762163436E+02 -0.24405046393E+02 -0.70687008537E+03  0.70757602571E+03  0.71336876690E+01 0.  0.
         13    1    3    3    0    0 -0.71760746435E+01 -0.11621257848E+02 -0.24115516850E+03  0.24154164232E+03  0.00000000000E+00 0.  1.
          1    1    3    3  501    0 -0.11586088793E+02 -0.12783788545E+02 -0.46571491688E+03  0.46603438339E+03  0.00000000000E+00 0.  1.
         -1    1    1    2    0  502  0.18762163436E+02  0.24405046393E+02 -0.29196777464E+03  0.29358611428E+03  0.00000000000E+00 0. -1.
<mgrwt>
<rscale>  1 0.30000000E+03</rscale>
<asrwt>0</asrwt>
<pdfrwt beam="1">  1       21 0.42259725E-02 0.30000000E+03</pdfrwt>
<pdfrwt beam="2">0</pdfrwt>
<totfact> 0.38325320E+04</totfact>
</mgrwt>
</event>
<event>
 6    1  0.8397183E-002  0.3000000E+03  0.7818608E-02  0.1093470E+00
         21   -1    0    0  501  502  0.00000000000E+00  0.00000000000E+00  0.10616720712E+01  0.10616720712E+01  0.00000000000E+00 0. -1.
         13   -1    0    0    0    0 -0.00000000000E+00 -0.00000000000E+00 -0.10000000000E+04  0.10000000000E+04  0.00000000000E+00 0.  1.
    9000005    2    1    2  501    0  0.28354814905E+02  0.15888637588E+02 -0.51534418278E+03  0.51637647366E+03  0.29311253854E+01 0.  0.
         13    1    3    3    0    0  0.21527423475E+02  0.13431248540E+02 -0.39696322075E+03  0.39777333625E+03  0.00000000000E+00 0.  1.
          3    1    3    3  501    0  0.68273914300E+01  0.24573890480E+01 -0.11838096203E+03  0.11860313742E+03  0.00000000000E+00 0.  1.
         -1    1    1    2    0  502 -0.28354814905E+02 -0.15888637588E+02 -0.48359414515E+03  0.48468519841E+03  0.00000000000E+00 0. -1.
<mgrwt>
<rscale>  1 0.30000000E+03</rscale>
<asrwt>0</asrwt>
<pdfrwt beam="1">  1       21 0.38606339E-02 0.30000000E+03</pdfrwt>
<pdfrwt beam="2">0</pdfrwt>
<totfact> 0.44632656E+04</totfact>
</mgrwt>
</event>
<event>
 6    1  0.8397183E-002  0.3000000E+03  0.7818608E-02  0.1093470E+00
         21   -1    0    0  501  502  0.00000000000E+00  0.00000000000E+00  0.18022954929E+01  0.18022954929E+01  0.00000000000E+00 0. -1.
         13   -1    0    0    0    0 -0.00000000000E+00 -0.00000000000E+00 -0.10000000000E+04  0.10000000000E+04  0.00000000000E+00 0.  1.
    9000005    2    1    2  501    0 -0.26704491184E+02  0.25637808459E+02 -0.25644409864E+03  0.25912548901E+03  0.34664470250E+01 0.  0.
         13    1    3    3    0    0 -0.14477537316E+02  0.15179697842E+02 -0.15512059488E+03  0.15653249269E+03  0.00000000000E+00 0.  1.
          1    1    3    3  501    0 -0.12226953868E+02  0.10458110617E+02 -0.10132350377E+03  0.10259299632E+03  0.00000000000E+00 0.  1.
         -1    1    1    2    0  502  0.26704491184E+02 -0.25637808459E+02 -0.74175360586E+03  0.74267680648E+03  0.00000000000E+00 0. -1.
<mgrwt>
<rscale>  1 0.30000000E+03</rscale>
<asrwt>0</asrwt>
<pdfrwt beam="1">  1       21 0.65538156E-02 0.30000000E+03</pdfrwt>
<pdfrwt beam="2">0</pdfrwt>
<totfact> 0.18089882E+04</totfact>
</mgrwt>
</event>
<event>
 6    1  0.1729992E-001  0.3000000E+03  0.7818608E-02  0.1093470E+00
         21   -1    0    0  501  502  0.00000000000E+00  0.00000000000E+00  0.16993852244E+01  0.16993852244E+01  0.00000000000E+00 0. -1.
         13   -1    0    0    0    0 -0.00000000000E+00 -0.00000000000E+00 -0.10000000000E+04  0.10000000000E+04  0.00000000000E+00 0.  1.
    9000005    2    1    2  501    0  0.32637538737E+02 -0.18921072919E+02 -0.68827066072E+03  0.68938257757E+03  0.10422087422E+02 0.  0.
         13    1    3    3    0    0  0.28306636555E+02 -0.11765918087E+02 -0.51733051121E+03  0.51823793795E+03  0.00000000000E+00 0.  1.
          1    1    3    3  501    0  0.43309021818E+01 -0.71551548321E+01 -0.17094014951E+03  0.17114463962E+03  0.00000000000E+00 0.  1.
         -3    1    1    2    0  502 -0.32637538737E+02  0.18921072919E+02 -0.31002995405E+03  0.31231680766E+03  0.00000000000E+00 0. -1.
<mgrwt>
<rscale>  1 0.30000000E+03</rscale>
<asrwt>0</asrwt>
<pdfrwt beam="1">  1       21 0.61795957E-02 0.30000000E+03</pdfrwt>
<pdfrwt beam="2">0</pdfrwt>
<totfact> 0.20026021E+04</totfact>
</mgrwt>
</event>
<event>
 6    1  0.8397183E-002  0.3000000E+03  0.7818608E-02  0.1093470E+00
         21   -1    0    0  501  502  0.00000000000E+00  0.00000000000E+00  0.26666335380E+01  0.26666335380E+01  0.00000000000E+00 0. -1.
         13   -1    0    0    0    0 -0.00000000000E+00 -0.00000000000E+00 -0.10000000000E+04  0.10000000000E+04  0.00000000000E+00 0.  1.
    9000005    2    1    2  501    0 -0.44387708950E+02  0.16763543777E+02 -0.69514646802E+03  0.69677742697E+03  0.43457595581E+01 0.  0.
         13    1    3    3    0    0 -0.12293906874E+02  0.43083484160E+01 -0.16408576444E+03  0.16460206591E+03  0.00000000000E+00 0.  1.
          3    1    3    3  501    0 -0.32093802076E+02  0.12455195361E+02 -0.53106070358E+03  0.53217536105E+03  0.00000000000E+00 0.  1.
         -3    1    1    2    0  502  0.44387708950E+02 -0.16763543777E+02 -0.30218689844E+03  0.30588920657E+03  0.00000000000E+00 0. -1.
<mgrwt>
<rscale>  1 0.30000000E+03</rscale>
<asrwt>0</asrwt>
<pdfrwt beam="1">  1       21 0.96968697E-02 0.30000000E+03</pdfrwt>
<pdfrwt beam="2">0</pdfrwt>
<totfact> 0.90892097E+03</totfact>
</mgrwt>
</event>
<event>
 6    1  0.8397183E-002  0.3000000E+03  0.7818608E-02  0.1093470E+00
         21   -1    0    0  501  502  0.00000000000E+00  0.00000000000E+00  0.12155628564E+01  0.12155628564E+01  0.00000000000E+00 0. -1.
         13   -1    0    0    0    0 -0.00000000000E+00 -0.00000000000E+00 -0.10000000000E+04  0.10000000000E+04  0.00000000000E+00 0.  1.
    9000005    2    1    2  501    0  0.31429090327E+02 -0.14326690511E+02 -0.56060824289E+03  0.56168010468E+03  0.31458261944E+01 0.  0.
         13    1    3    3    0    0  0.20945092125E+02 -0.80006747210E+01 -0.37104683292E+03  0.37172363376E+03  0.00000000000E+00 0.  1.
          1    1    3    3  501    0  0.10483998202E+02 -0.63260157900E+01 -0.18956140997E+03  0.18995647092E+03  0.00000000000E+00 0.  1.
         -3    1    1    2    0  502 -0.31429090327E+02  0.14326690511E+02 -0.43817619425E+03  0.43953545817E+03  0.00000000000E+00 0. -1.
<mgrwt>
<rscale>  1 0.30000000E+03</rscale>
<asrwt>0</asrwt>
<pdfrwt beam="1">  1       21 0.44202379E-02 0.30000000E+03</pdfrwt>
<pdfrwt beam="2">0</pdfrwt>
<totfact> 0.35519170E+04</totfact>
</mgrwt>
</event>
<event>
 6    1  0.8397183E-002  0.3000000E+03  0.7818608E-02  0.1093470E+00
         21   -1    0    0  501  502  0.00000000000E+00  0.00000000000E+00  0.11750938780E+01  0.11750938780E+01  0.00000000000E+00 0. -1.
         13   -1    0    0    0    0 -0.00000000000E+00 -0.00000000000E+00 -0.10000000000E+04  0.10000000000E+04  0.00000000000E+00 0.  1.
    9000005    2    1    2  501    0 -0.71700479665E+01 -0.31161433811E+02 -0.67823386068E+03  0.67899337037E+03  0.28952873043E+01 0.  0.
         13    1    3    3    0    0 -0.46705001372E+01 -0.17503562930E+02 -0.41096208349E+03  0.41136118236E+03  0.00000000000E+00 0.  1.
          1    1    3    3  501    0 -0.24995478293E+01 -0.13657870881E+02 -0.26727177719E+03  0.26763218801E+03  0.00000000000E+00 0.  1.
         -3    1    1    2    0  502  0.71700479665E+01  0.31161433811E+02 -0.32059104544E+03  0.32218172351E+03  0.00000000000E+00 0. -1.
<mgrwt>
<rscale>  1 0.30000000E+03</rscale>
<asrwt>0</asrwt>
<pdfrwt beam="1">  1       21 0.42730777E-02 0.30000000E+03</pdfrwt>
<pdfrwt beam="2">0</pdfrwt>
<totfact> 0.37614082E+04</totfact>
</mgrwt>
</event>
<event>
 6    1  0.8397183E-002  0.3000000E+03  0.7818608E-02  0.1093470E+00
         21   -1    0    0  501  502  0.00000000000E+00  0.00000000000E+00  0.19297794045E+01  0.19297794045E+01  0.00000000000E+00 0. -1.
         13   -1    0    0    0    0 -0.00000000000E+00 -0.00000000000E+00 -0.10000000000E+04  0.10000000000E+04  0.00000000000E+00 0.  1.
    9000005    2    1    2  501    0 -0.21648509239E+02  0.23471565551E+02 -0.15670527658E+03  0.15995914966E+03  0.32883900099E+01 0.  0.
         13    1    3    3    0    0 -0.11351305020E+02  0.12173104827E+02 -0.89822470512E+02  0.91351589015E+02  0.00000000000E+00 0.  1.
          1    1    3    3  501    0 -0.10297204218E+02  0.11298460724E+02 -0.66882806072E+02  0.68607560644E+02  0.00000000000E+00 0.  1.
         -3    1    1    2    0  502  0.21648509239E+02 -0.23471565551E+02 -0.84136494401E+03  0.84197062975E+03  0.00000000000E+00 0. -1.
<mgrwt>
<rscale>  1 0.30000000E+03</rscale>
<asrwt>0</asrwt>
<pdfrwt beam="1">  1       21 0.70173945E-02 0.30000000E+03</pdfrwt>
<pdfrwt beam="2">0</pdfrwt>
<totfact> 0.16065738E+04</totfact>
</mgrwt>
</event>
<event>
 6    1  0.8397183E-002  0.3000000E+03  0.7818608E-02  0.1093470E+00
         21   -1    0    0  501  502  0.00000000000E+00  0.00000000000E+00  0.27692216459E+01  0.27692216459E+01  0.00000000000E+00 0. -1.
         13   -1    0    0    0    0 -0.00000000000E+00 -0.00000000000E+00 -0.10000000000E+04  0.10000000000E+04  0.00000000000E+00 0.  1.
    9000005    2    1    2  501    0 -0.35005643577E+02 -0.54293531730E+01 -0.12899084618E+03  0.13380693663E+03  0.32840423120E+01 0.  0.
         13    1    3    3    0    0 -0.26923214657E+02 -0.37935926069E+01 -0.93670730530E+02  0.97536949872E+02  0.00000000000E+00 0.  1.
          1    1    3    3  501    0 -0.80824289199E+01 -0.16357605661E+01 -0.35320115645E+02  0.36269986753E+02  0.00000000000E+00 0.  1.
         -1    1    1    2    0  502  0.35005643577E+02  0.54293531730E+01 -0.86823993218E+03  0.86896228502E+03  0.00000000000E+00 0. -1.
<mgrwt>
<rscale>  1 0.30000000E+03</rscale>
<asrwt>0</asrwt>
<pdfrwt beam="1">  1       21 0.10069918E-01 0.30000000E+03</pdfrwt>
<pdfrwt beam="2">0</pdfrwt>
<totfact> 0.84967318E+03</totfact>
</mgrwt>
</event>
<event>
 6    1  0.8397183E-002  0.3000000E+03  0.7818608E-02  0.1093470E+00
         21   -1    0    0  501  502  0.00000000000E+00  0.00000000000E+00  0.16017309870E+01  0.16017309870E+01  0.00000000000E+00 0. -1.
         13   -1    0    0    0    0 -0.00000000000E+00 -0.00000000000E+00 -0.10000000000E+04  0.10000000000E+04  0.00000000000E+00 0.  1.
    9000005    2    1    2  501    0  0.44889984446E+01 -0.31404125165E+02 -0.80408930203E+03  0.80472018072E+03  0.29314568581E+01 0.  0.
         13    1    3    3    0    0  0.37561422006E+01 -0.25098150149E+02 -0.67058095814E+03  0.67106098618E+03  0.00000000000E+00 0.  1.
          3    1    3    3  501    0  0.73285624402E+00 -0.63059750155E+01 -0.13350834388E+03  0.13365919454E+03  0.00000000000E+00 0.  1.
         -3    1    1    2    0  502 -0.44889984446E+01  0.31404125165E+02 -0.19430896699E+03  0.19688155027E+03  0.00000000000E+00 0. -1.
<mgrwt>
<rscale>  1 0.30000000E+03</rscale>
<asrwt>0</asrwt>
<pdfrwt beam="1">  1       21 0.58244886E-02 0.30000000E+03</pdfrwt>
<pdfrwt beam="2">0</pdfrwt>
<totfact> 0.22178035E+04</totfact>
</mgrwt>
</event>
<event>
 6    1  0.8397183E-002  0.3000000E+03  0.7818608E-02  0.1093470E+00
         21   -1    0    0  501  502  0.00000000000E+00  0.00000000000E+00  0.16101416002E+01  0.16101416002E+01  0.00000000000E+00 0. -1.
         13   -1    0    0    0    0 -0.00000000000E+00 -0.00000000000E+00 -0.10000000000E+04  0.10000000000E+04  0.00000000000E+00 0.  1.
    9000005    2    1    2  501    0  0.39823522667E+02 -0.23243168284E+01 -0.45410095213E+03  0.45586136341E+03  0.32546151034E+01 0.  0.
         13    1    3    3    0    0  0.55344829433E+01 -0.64121626562E-01 -0.51509251467E+02  0.51805768016E+02  0.00000000000E+00 0.  1.
          3    1    3    3  501    0  0.34289039723E+02 -0.22601952018E+01 -0.40259170066E+03  0.40405559540E+03  0.00000000000E+00 0.  1.
         -1    1    1    2    0  502 -0.39823522667E+02  0.23243168284E+01 -0.54428890627E+03  0.54574877819E+03  0.00000000000E+00 0. -1.
<mgrwt>
<rscale>  1 0.30000000E+03</rscale>
<asrwt>0</asrwt>
<pdfrwt beam="1">  1       21 0.58550727E-02 0.30000000E+03</pdfrwt>
<pdfrwt beam="2">0</pdfrwt>
<totfact> 0.21978815E+04</totfact>
</mgrwt>
</event>
<event>
 6    1  0.8397183E-002  0.3000000E+03  0.7818608E-02  0.1093470E+00
         21   -1    0    0  501  502  0.00000000000E+00  0.00000000000E+00  0.17985173408E+01  0.17985173408E+01  0.00000000000E+00 0. -1.
         13   -1    0    0    0    0 -0.00000000000E+00 -0.00000000000E+00 -0.10000000000E+04  0.10000000000E+04  0.00000000000E+00 0.  1.
    9000005    2    1    2  501    0  0.38950361788E+02 -0.35927324128E+01 -0.30859998134E+03  0.31108854273E+03  0.34777181101E+01 0.  0.
         13    1    3    3    0    0  0.32055201855E+02 -0.41340125722E+01 -0.25889312737E+03  0.26090281222E+03  0.00000000000E+00 0.  1.
          3    1    3    3  501    0  0.68951599337E+01  0.54128015936E+00 -0.49706853975E+02  0.50185730510E+02  0.00000000000E+00 0.  1.
         -1    1    1    2    0  502 -0.38950361788E+02  0.35927324128E+01 -0.68960150131E+03  0.69070997461E+03  0.00000000000E+00 0. -1.
<mgrwt>
<rscale>  1 0.30000000E+03</rscale>
<asrwt>0</asrwt>
<pdfrwt beam="1">  1       21 0.65400768E-02 0.30000000E+03</pdfrwt>
<pdfrwt beam="2">0</pdfrwt>
<totfact> 0.18155756E+04</totfact>
</mgrwt>
</event>
<event>
 6    1  0.8397183E-002  0.3000000E+03  0.7818608E-02  0.1093470E+00
         21   -1    0    0  501  502  0.00000000000E+00  0.00000000000E+00  0.40572104467E+01  0.40572104467E+01  0.00000000000E+00 0. -1.
         13   -1    0    0    0    0 -0.00000000000E+00 -0.00000000000E+00 -0.10000000000E+04  0.10000000000E+04  0.00000000000E+00 0.  1.
    9000005    2    1    2  501    0 -0.62477705499E+02 -0.85196246195E+01 -0.44084045180E+03  0.44538498716E+03  0.71718310043E+01 0.  0.
         13    1    3    3    0    0 -0.31418138453E+02 -0.27122766916E+01 -0.19753489970E+03  0.20003622789E+03  0.00000000000E+00 0.  1.
          3    1    3    3  501    0 -0.31059567047E+02 -0.58073479279E+01 -0.24330555210E+03  0.24534875927E+03  0.00000000000E+00 0.  1.
         -3    1    1    2    0  502  0.62477705499E+02  0.85196246195E+01 -0.55510233775E+03  0.55867222328E+03  0.00000000000E+00 0. -1.
<mgrwt>
<rscale>  1 0.30000000E+03</rscale>
<asrwt>0</asrwt>
<pdfrwt beam="1">  1       21 0.14753524E-01 0.30000000E+03</pdfrwt>
<pdfrwt beam="2">0</pdfrwt>
<totfact> 0.42461493E+03</totfact>
</mgrwt>
</event>
<event>
 6    1  0.8397183E-002  0.3000000E+03  0.7818608E-02  0.1093470E+00
         21   -1    0    0  501  502  0.00000000000E+00  0.00000000000E+00  0.20438555038E+01  0.20438555038E+01  0.00000000000E+00 0. -1.
         13   -1    0    0    0    0 -0.00000000000E+00 -0.00000000000E+00 -0.10000000000E+04  0.10000000000E+04  0.00000000000E+00 0.  1.
    9000005    2    1    2  501    0  0.11334100431E+02 -0.33568080906E+02 -0.18938537196E+03  0.19269722266E+03  0.31816068266E+01 0.  0.
         13    1    3    3    0    0  0.60520882153E-01 -0.21155210040E+01 -0.92070281692E+01  0.94471402871E+01  0.00000000000E+00 0.  1.
          1    1    3    3  501    0  0.11273579548E+02 -0.31452559902E+02 -0.18017834379E+03  0.18325008238E+03  0.00000000000E+00 0.  1.
         -3    1    1    2    0  502 -0.11334100431E+02  0.33568080906E+02 -0.80857077254E+03  0.80934663284E+03  0.00000000000E+00 0. -1.
<mgrwt>
<rscale>  1 0.30000000E+03</rscale>
<asrwt>0</asrwt>
<pdfrwt beam="1">  1       21 0.74322175E-02 0.30000000E+03</pdfrwt>
<pdfrwt beam="2">0</pdfrwt>
<totfact> 0.14533608E+04</totfact>
</mgrwt>
</event>
<event>
 6    1  0.8397183E-002  0.3000000E+03  0.7818608E-02  0.1093470E+00
         21   -1    0    0  501  502  0.00000000000E+00  0.00000000000E+00  0.93487602708E+00  0.93487602708E+00  0.00000000000E+00 0. -1.
         13   -1    0    0    0    0 -0.00000000000E+00 -0.00000000000E+00 -0.10000000000E+04  0.10000000000E+04  0.00000000000E+00 0.  1.
    9000005    2    1    2  501    0  0.62890165208E+01  0.29398920641E+02 -0.58356658937E+03  0.58435009411E+03  0.33496267748E+01 0.  0.
         13    1    3    3    0    0  0.52855603134E+01  0.27959140411E+02 -0.55609913175E+03  0.55682662923E+03  0.00000000000E+00 0.  1.
          3    1    3    3  501    0  0.10034562074E+01  0.14397802301E+01 -0.27467457612E+02  0.27523464883E+02  0.00000000000E+00 0.  1.
         -1    1    1    2    0  502 -0.62890165208E+01 -0.29398920641E+02 -0.41549853461E+03  0.41658478192E+03  0.00000000000E+00 0. -1.
<mgrwt>
<rscale>  1 0.30000000E+03</rscale>
<asrwt>0</asrwt>
<pdfrwt beam="1">  1       21 0.33995564E-02 0.30000000E+03</pdfrwt>
<pdfrwt beam="2">0</pdfrwt>
<totfact> 0.55243066E+04</totfact>
</mgrwt>
</event>
<event>
 6    1  0.8397183E-002  0.3000000E+03  0.7818608E-02  0.1093470E+00
         21   -1    0    0  501  502  0.00000000000E+00  0.00000000000E+00  0.16696143272E+01  0.16696143272E+01  0.00000000000E+00 0. -1.
         13   -1    0    0    0    0 -0.00000000000E+00 -0.00000000000E+00 -0.10000000000E+04  0.10000000000E+04  0.00000000000E+00 0.  1.
    9000005    2    1    2  501    0  0.27578148269E+02 -0.29798928013E+02 -0.54898300918E+03  0.55049160608E+03  0.31833338060E+01 0.  0.
         13    1    3    3    0    0  0.15054505783E+02 -0.18341483159E+02 -0.32933092681E+03  0.33018465667E+03  0.00000000000E+00 0.  1.
          3    1    3    3  501    0  0.12523642486E+02 -0.11457444854E+02 -0.21965208238E+03  0.22030694940E+03  0.00000000000E+00 0.  1.
         -1    1    1    2    0  502 -0.27578148269E+02  0.29798928013E+02 -0.44934737649E+03  0.45117800825E+03  0.00000000000E+00 0. -1.
<mgrwt>
<rscale>  1 0.30000000E+03</rscale>
<asrwt>0</asrwt>
<pdfrwt beam="1">  1       21 0.60713376E-02 0.30000000E+03</pdfrwt>
<pdfrwt beam="2">0</pdfrwt>
<totfact> 0.20646381E+04</totfact>
</mgrwt>
</event>
<event>
 6    1  0.8397183E-002  0.3000000E+03  0.7818608E-02  0.1093470E+00
         21   -1    0    0  501  502  0.00000000000E+00  0.00000000000E+00  0.10335691577E+01  0.10335691577E+01  0.00000000000E+00 0. -1.
         13   -1    0    0    0    0 -0.00000000000E+00 -0.00000000000E+00 -0.10000000000E+04  0.10000000000E+04  0.00000000000E+00 0.  1.
    9000005    2    1    2  501    0 -0.31559269191E+02  0.50329273266E+01 -0.54117599565E+03  0.54212900350E+03  0.33287140195E+01 0.  0.
         13    1    3    3    0    0 -0.17402528338E+02  0.15098308782E+01 -0.31315532615E+03  0.31364213027E+03  0.00000000000E+00 0.  1.
          1    1    3    3  501    0 -0.14156740853E+02  0.35230964484E+01 -0.22802066950E+03  0.22848687323E+03  0.00000000000E+00 0.  1.
         -3    1    1    2    0  502  0.31559269191E+02 -0.50329273266E+01 -0.45779043520E+03  0.45890456566E+03  0.00000000000E+00 0. -1.
<mgrwt>
<rscale>  1 0.30000000E+03</rscale>
<asrwt>0</asrwt>
<pdfrwt beam="1">  1       21 0.37584412E-02 0.30000000E+03</pdfrwt>
<pdfrwt beam="2">0</pdfrwt>
<totfact> 0.46690639E+04</totfact>
</mgrwt>
</event>
<event>
 6    1  0.8397183E-002  0.3000000E+03  0.7818608E-02  0.1093470E+00
         21   -1    0    0  501  502  0.00000000000E+00  0.00000000000E+00  0.16047944955E+02  0.16047944955E+02  0.00000000000E+00 0. -1.
         13   -1    0    0    0    0 -0.00000000000E+00 -0.00000000000E+00 -0.10000000000E+04  0.10000000000E+04  0.00000000000E+00 0.  1.
    9000005    2    1    2  501    0 -0.11313446301E+03 -0.55746896365E+02 -0.44533235961E+03  0.46285873728E+03  0.31901392212E+01 0.  0.
         13    1    3    3    0    0 -0.21952674589E+02 -0.10844300306E+02 -0.91171223288E+02  0.94401857644E+02  0.00000000000E+00 0.  1.
          1    1    3    3  501    0 -0.91181788419E+02 -0.44902596058E+02 -0.35416113632E+03  0.36845687963E+03  0.00000000000E+00 0.  1.
         -1    1    1    2    0  502  0.11313446301E+03  0.55746896365E+02 -0.53861969544E+03  0.55318920768E+03  0.00000000000E+00 0. -1.
<mgrwt>
<rscale>  1 0.30000000E+03</rscale>
<asrwt>0</asrwt>
<pdfrwt beam="1">  1       21 0.58356287E-01 0.30000000E+03</pdfrwt>
<pdfrwt beam="2">0</pdfrwt>
<totfact> 0.26724742E+02</totfact>
</mgrwt>
</event>
<event>
 6    1  0.8397183E-002  0.3000000E+03  0.7818608E-02  0.1093470E+00
         21   -1    0    0  501  502  0.00000000000E+00  0.00000000000E+00  0.12999150447E+01  0.12999150447E+01  0.00000000000E+00 0. -1.
         13   -1    0    0    0    0 -0.00000000000E+00 -0.00000000000E+00 -0.10000000000E+04  0.10000000000E+04  0.00000000000E+00 0.  1.
    9000005    2    1    2  501    0 -0.25112551297E+02 -0.19755929818E+02 -0.72999674778E+03  0.73070349895E+03  0.33785512732E+01 0.  0.
         13    1    3    3    0    0 -0.15285391610E+02 -0.14074332615E+02 -0.47446012622E+03  0.47491487807E+03  0.00000000000E+00 0.  1.
          1    1    3    3  501    0 -0.98271596874E+01 -0.56815972030E+01 -0.25553662156E+03  0.25578862088E+03  0.00000000000E+00 0.  1.
         -3    1    1    2    0  502  0.25112551297E+02  0.19755929818E+02 -0.26870333717E+03  0.27059641610E+03  0.00000000000E+00 0. -1.
<mgrwt>
<rscale>  1 0.30000000E+03</rscale>
<asrwt>0</asrwt>
<pdfrwt beam="1">  1       21 0.47269738E-02 0.30000000E+03</pdfrwt>
<pdfrwt beam="2">0</pdfrwt>
<totfact> 0.31694413E+04</totfact>
</mgrwt>
</event>
<event>
 6    1  0.8397183E-002  0.3000000E+03  0.7818608E-02  0.1093470E+00
         21   -1    0    0  501  502  0.00000000000E+00  0.00000000000E+00  0.16638908872E+01  0.16638908872E+01  0.00000000000E+00 0. -1.
         13   -1    0    0    0    0 -0.00000000000E+00 -0.00000000000E+00 -0.10000000000E+04  0.10000000000E+04  0.00000000000E+00 0.  1.
    9000005    2    1    2  501    0  0.68356158737E+01 -0.40139333613E+02 -0.49526815837E+03  0.49695084884E+03  0.34213624607E+01 0.  0.
         13    1    3    3    0    0  0.54870978153E+01 -0.22307898089E+02 -0.27442380292E+03  0.27538368538E+03  0.00000000000E+00 0.  1.
          3    1    3    3  501    0  0.13485180584E+01 -0.17831435524E+02 -0.22084435544E+03  0.22156716346E+03  0.00000000000E+00 0.  1.
         -1    1    1    2    0  502 -0.68356158737E+01  0.40139333613E+02 -0.50306795075E+03  0.50471304205E+03  0.00000000000E+00 0. -1.
<mgrwt>
<rscale>  1 0.30000000E+03</rscale>
<asrwt>0</asrwt>
<pdfrwt beam="1">  1       21 0.60505251E-02 0.30000000E+03</pdfrwt>
<pdfrwt beam="2">0</pdfrwt>
<totfact> 0.20769067E+04</totfact>
</mgrwt>
</event>
<event>
 6    1  0.8397183E-002  0.3000000E+03  0.7818608E-02  0.1093470E+00
         21   -1    0    0  501  502  0.00000000000E+00  0.00000000000E+00  0.19119288628E+01  0.19119288628E+01  0.00000000000E+00 0. -1.
         13   -1    0    0    0    0 -0.00000000000E+00 -0.00000000000E+00 -0.10000000000E+04  0.10000000000E+04  0.00000000000E+00 0.  1.
    9000005    2    1    2  501    0  0.15982845845E+02 -0.32031170363E+02 -0.21322805192E+03  0.21623597976E+03  0.32170763377E+01 0.  0.
         13    1    3    3    0    0  0.11837152290E+02 -0.21550416484E+02 -0.15285718700E+03  0.15482202118E+03  0.00000000000E+00 0.  1.
          1    1    3    3  501    0  0.41456935544E+01 -0.10480753879E+02 -0.60370864924E+02  0.61413958582E+02  0.00000000000E+00 0.  1.
         -1    1    1    2    0  502 -0.15982845845E+02  0.32031170363E+02 -0.78486001922E+03  0.78567594910E+03  0.00000000000E+00 0. -1.
<mgrwt>
<rscale>  1 0.30000000E+03</rscale>
<asrwt>0</asrwt>
<pdfrwt beam="1">  1       21 0.69524833E-02 0.30000000E+03</pdfrwt>
<pdfrwt beam="2">0</pdfrwt>
<totfact> 0.16327637E+04</totfact>
</mgrwt>
</event>
<event>
 6    1  0.8397183E-002  0.3000000E+03  0.7818608E-02  0.1093470E+00
         21   -1    0    0  501  502  0.00000000000E+00  0.00000000000E+00  0.12340530507E+01  0.12340530507E+01  0.00000000000E+00 0. -1.
         13   -1    0    0    0    0 -0.00000000000E+00 -0.00000000000E+00 -0.10000000000E+04  0.10000000000E+04  0.00000000000E+00 0.  1.
    9000005    2    1    2  501    0  0.27014841180E+02 -0.18714267042E+02 -0.67444381073E+03  0.67525111871E+03  0.30974282823E+01 0.  0.
         13    1    3    3    0    0  0.94898041484E+01 -0.56808359541E+01 -0.25335751282E+03  0.25359881227E+03  0.00000000000E+00 0.  1.
          3    1    3    3  501    0  0.17525037031E+02 -0.13033431088E+02 -0.42108629790E+03  0.42165230644E+03  0.00000000000E+00 0.  1.
         -3    1    1    2    0  502 -0.27014841180E+02  0.18714267042E+02 -0.32432213622E+03  0.32598293434E+03  0.00000000000E+00 0. -1.
<mgrwt>
<rscale>  1 0.30000000E+03</rscale>
<asrwt>0</asrwt>
<pdfrwt beam="1">  1       21 0.44874751E-02 0.30000000E+03</pdfrwt>
<pdfrwt beam="2">0</pdfrwt>
<totfact> 0.34621530E+04</totfact>
</mgrwt>
</event>
<event>
 6    1  0.8397183E-002  0.3000000E+03  0.7818608E-02  0.1093470E+00
         21   -1    0    0  501  502  0.00000000000E+00  0.00000000000E+00  0.11617934037E+01  0.11617934037E+01  0.00000000000E+00 0. -1.
         13   -1    0    0    0    0 -0.00000000000E+00 -0.00000000000E+00 -0.10000000000E+04  0.10000000000E+04  0.00000000000E+00 0.  1.
    9000005    2    1    2  501    0  0.14097999055E+02 -0.29104022345E+02 -0.34487948164E+03  0.34640396669E+03  0.28378847055E+01 0.  0.
         13    1    3    3    0    0  0.97855637640E+01 -0.17033970591E+02 -0.21009483704E+03  0.21101126501E+03  0.00000000000E+00 0.  1.
          3    1    3    3  501    0  0.43124352911E+01 -0.12070051754E+02 -0.13478464460E+03  0.13539270168E+03  0.00000000000E+00 0.  1.
         -3    1    1    2    0  502 -0.14097999055E+02  0.29104022345E+02 -0.65395872495E+03  0.65475782671E+03  0.00000000000E+00 0. -1.
<mgrwt>
<rscale>  1 0.30000000E+03</rscale>
<asrwt>0</asrwt>
<pdfrwt beam="1">  1       21 0.42247122E-02 0.30000000E+03</pdfrwt>
<pdfrwt beam="2">0</pdfrwt>
<totfact> 0.38344636E+04</totfact>
</mgrwt>
</event>
<event>
 6    1  0.8397183E-002  0.3000000E+03  0.7818608E-02  0.1093470E+00
         21   -1    0    0  501  502  0.00000000000E+00  0.00000000000E+00  0.31748647367E+01  0.31748647367E+01  0.00000000000E+00 0. -1.
         13   -1    0    0    0    0 -0.00000000000E+00 -0.00000000000E+00 -0.10000000000E+04  0.10000000000E+04  0.00000000000E+00 0.  1.
    9000005    2    1    2  501    0 -0.27879472783E+00  0.44826203926E+02 -0.80165649897E+03  0.80292436442E+03  0.49926297398E+01 0.  0.
         13    1    3    3    0    0 -0.52847944531E+00  0.17900710802E+02 -0.27826205682E+03  0.27883774314E+03  0.00000000000E+00 0.  1.
          3    1    3    3  501    0  0.24968471748E+00  0.26925493124E+02 -0.52339444215E+03  0.52408662127E+03  0.00000000000E+00 0.  1.
         -1    1    1    2    0  502  0.27879472783E+00 -0.44826203926E+02 -0.19516863629E+03  0.20025050032E+03  0.00000000000E+00 0. -1.
<mgrwt>
<rscale>  1 0.30000000E+03</rscale>
<asrwt>0</asrwt>
<pdfrwt beam="1">  1       21 0.11544987E-01 0.30000000E+03</pdfrwt>
<pdfrwt beam="2">0</pdfrwt>
<totfact> 0.66464983E+03</totfact>
</mgrwt>
</event>
<event>
 6    1  0.8397183E-002  0.3000000E+03  0.7818608E-02  0.1093470E+00
         21   -1    0    0  501  502  0.00000000000E+00  0.00000000000E+00  0.16284556650E+01  0.16284556650E+01  0.00000000000E+00 0. -1.
         13   -1    0    0    0    0 -0.00000000000E+00 -0.00000000000E+00 -0.10000000000E+04  0.10000000000E+04  0.00000000000E+00 0.  1.
    9000005    2    1    2  501    0  0.35666196417E+02  0.12757894373E+02 -0.66974871155E+03  0.67082971373E+03  0.37850719025E+01 0.  0.
         13    1    3    3    0    0  0.27934070949E+02  0.90118020010E+01 -0.49418708920E+03  0.49505798047E+03  0.00000000000E+00 0.  1.
          3    1    3    3  501    0  0.77321254683E+01  0.37460923718E+01 -0.17556162235E+03  0.17577173327E+03  0.00000000000E+00 0.  1.
         -3    1    1    2    0  502 -0.35666196417E+02 -0.12757894373E+02 -0.32862283278E+03  0.33079874193E+03  0.00000000000E+00 0. -1.
<mgrwt>
<rscale>  1 0.30000000E+03</rscale>
<asrwt>0</asrwt>
<pdfrwt beam="1">  1       21 0.59216695E-02 0.30000000E+03</pdfrwt>
<pdfrwt beam="2">0</pdfrwt>
<totfact> 0.21554554E+04</totfact>
</mgrwt>
</event>
<event>
 6    1  0.8397183E-002  0.3000000E+03  0.7818608E-02  0.1093470E+00
         21   -1    0    0  501  502  0.00000000000E+00  0.00000000000E+00  0.31999119554E+01  0.31999119554E+01  0.00000000000E+00 0. -1.
         13   -1    0    0    0    0 -0.00000000000E+00 -0.00000000000E+00 -0.10000000000E+04  0.10000000000E+04  0.00000000000E+00 0.  1.
    9000005    2    1    2  501    0  0.41750585836E+02  0.71606748248E+00 -0.16094311967E+03  0.16630057766E+03  0.30935722700E+01 0.  0.
         13    1    3    3    0    0  0.32197947742E+02  0.70326332518E-01 -0.12865031152E+03  0.13261830733E+03  0.00000000000E+00 0.  1.
          1    1    3    3  501    0  0.95526380942E+01  0.64574114996E+00 -0.32292808148E+02  0.33682270326E+02  0.00000000000E+00 0.  1.
         -3    1    1    2    0  502 -0.41750585836E+02 -0.71606748248E+00 -0.83585696838E+03  0.83689933430E+03  0.00000000000E+00 0. -1.
<mgrwt>
<rscale>  1 0.30000000E+03</rscale>
<asrwt>0</asrwt>
<pdfrwt beam="1">  1       21 0.11636068E-01 0.30000000E+03</pdfrwt>
<pdfrwt beam="2">0</pdfrwt>
<totfact> 0.65527332E+03</totfact>
</mgrwt>
</event>
<event>
 6    1  0.8397183E-002  0.3000000E+03  0.7818608E-02  0.1093470E+00
         21   -1    0    0  501  502  0.00000000000E+00  0.00000000000E+00  0.11951171413E+01  0.11951171413E+01  0.00000000000E+00 0. -1.
         13   -1    0    0    0    0 -0.00000000000E+00 -0.00000000000E+00 -0.10000000000E+04  0.10000000000E+04  0.00000000000E+00 0.  1.
    9000005    2    1    2  501    0  0.29718966401E+02  0.16911258556E+02 -0.56514869267E+03  0.56619293448E+03  0.34909311381E+01 0.  0.
         13    1    3    3    0    0  0.19195225563E+02  0.12570673243E+02 -0.36424434712E+03  0.36496633121E+03  0.00000000000E+00 0.  1.
          3    1    3    3  501    0  0.10523740838E+02  0.43405853129E+01 -0.20090434555E+03  0.20122660327E+03  0.00000000000E+00 0.  1.
         -1    1    1    2    0  502 -0.29718966401E+02 -0.16911258556E+02 -0.43365619019E+03  0.43500218266E+03  0.00000000000E+00 0. -1.
<mgrwt>
<rscale>  1 0.30000000E+03</rscale>
<asrwt>0</asrwt>
<pdfrwt beam="1">  1       21 0.43458897E-02 0.30000000E+03</pdfrwt>
<pdfrwt beam="2">0</pdfrwt>
<totfact> 0.36554314E+04</totfact>
</mgrwt>
</event>
<event>
 6    1  0.8397183E-002  0.3000000E+03  0.7818608E-02  0.1093470E+00
         21   -1    0    0  501  502  0.00000000000E+00  0.00000000000E+00  0.22826565070E+01  0.22826565070E+01  0.00000000000E+00 0. -1.
         13   -1    0    0    0    0 -0.00000000000E+00 -0.00000000000E+00 -0.10000000000E+04  0.10000000000E+04  0.00000000000E+00 0.  1.
    9000005    2    1    2  501    0 -0.25318270192E+02  0.37955529194E+02 -0.35262474506E+03  0.35557863026E+03  0.32116151826E+01 0.  0.
         13    1    3    3    0    0 -0.70580870999E+01  0.83301807017E+01 -0.79940538426E+02  0.80682700673E+02  0.00000000000E+00 0.  1.
          1    1    3    3  501    0 -0.18260183092E+02  0.29625348492E+02 -0.27268420663E+03  0.27489592959E+03  0.00000000000E+00 0.  1.
         -1    1    1    2    0  502  0.25318270192E+02 -0.37955529194E+02 -0.64509259844E+03  0.64670402624E+03  0.00000000000E+00 0. -1.
<mgrwt>
<rscale>  1 0.30000000E+03</rscale>
<asrwt>0</asrwt>
<pdfrwt beam="1">  1       21 0.83005866E-02 0.30000000E+03</pdfrwt>
<pdfrwt beam="2">0</pdfrwt>
<totfact> 0.11971675E+04</totfact>
</mgrwt>
</event>
<event>
 6    1  0.8397183E-002  0.3000000E+03  0.7818608E-02  0.1093470E+00
         21   -1    0    0  501  502  0.00000000000E+00  0.00000000000E+00  0.15280083990E+01  0.15280083990E+01  0.00000000000E+00 0. -1.
         13   -1    0    0    0    0 -0.00000000000E+00 -0.00000000000E+00 -0.10000000000E+04  0.10000000000E+04  0.00000000000E+00 0.  1.
    9000005    2    1    2  501    0 -0.36711784416E+02  0.10571407055E+02 -0.40111926523E+03  0.40295488048E+03  0.40572161583E+01 0.  0.
         13    1    3    3    0    0 -0.33423802906E+02  0.10766320580E+02 -0.36916125203E+03  0.37082758023E+03  0.00000000000E+00 0.  1.
          3    1    3    3  501    0 -0.32879815101E+01 -0.19491352506E+00 -0.31958013199E+02  0.32127300249E+02  0.00000000000E+00 0.  1.
         -1    1    1    2    0  502  0.36711784416E+02 -0.10571407055E+02 -0.59735272637E+03  0.59857312792E+03  0.00000000000E+00 0. -1.
<mgrwt>
<rscale>  1 0.30000000E+03</rscale>
<asrwt>0</asrwt>
<pdfrwt beam="1">  1       21 0.55564059E-02 0.30000000E+03</pdfrwt>
<pdfrwt beam="2">0</pdfrwt>
<totfact> 0.24049525E+04</totfact>
</mgrwt>
</event>
<event>
 6    1  0.8397183E-002  0.3000000E+03  0.7818608E-02  0.1093470E+00
         21   -1    0    0  501  502  0.00000000000E+00  0.00000000000E+00  0.26385056666E+01  0.26385056666E+01  0.00000000000E+00 0. -1.
         13   -1    0    0    0    0 -0.00000000000E+00 -0.00000000000E+00 -0.10000000000E+04  0.10000000000E+04  0.00000000000E+00 0.  1.
    9000005    2    1    2  501    0 -0.40045485336E+02 -0.12102097827E+02 -0.20888927378E+03  0.21305725953E+03  0.29266824496E+01 0.  0.
         13    1    3    3    0    0 -0.39430883781E+02 -0.12145344669E+02 -0.20409968157E+03  0.20822820176E+03  0.00000000000E+00 0.  1.
          1    1    3    3  501    0 -0.61460155420E+00  0.43246842204E-01 -0.47895922174E+01  0.48290577723E+01  0.00000000000E+00 0.  1.
         -3    1    1    2    0  502  0.40045485336E+02  0.12102097827E+02 -0.78847222055E+03  0.78958124613E+03  0.00000000000E+00 0. -1.
<mgrwt>
<rscale>  1 0.30000000E+03</rscale>
<asrwt>0</asrwt>
<pdfrwt beam="1">  1       21 0.95945863E-02 0.30000000E+03</pdfrwt>
<pdfrwt beam="2">0</pdfrwt>
<totfact> 0.92627220E+03</totfact>
</mgrwt>
</event>
<event>
 6    1  0.8397183E-002  0.3000000E+03  0.7818608E-02  0.1093470E+00
         21   -1    0    0  501  502  0.00000000000E+00  0.00000000000E+00  0.10545585844E+01  0.10545585844E+01  0.00000000000E+00 0. -1.
         13   -1    0    0    0    0 -0.00000000000E+00 -0.00000000000E+00 -0.10000000000E+04  0.10000000000E+04  0.00000000000E+00 0.  1.
    9000005    2    1    2  501    0  0.29158398808E+02  0.81181300491E+01 -0.32322720815E+03  0.32465878167E+03  0.33734510673E+01 0.  0.
         13    1    3    3    0    0  0.85632024929E+01  0.34196812067E+01 -0.86001339762E+02  0.86494237365E+02  0.00000000000E+00 0.  1.
          1    1    3    3  501    0  0.20595196316E+02  0.46984488424E+01 -0.23722586839E+03  0.23816454431E+03  0.00000000000E+00 0.  1.
         -1    1    1    2    0  502 -0.29158398808E+02 -0.81181300491E+01 -0.67571823327E+03  0.67639577691E+03  0.00000000000E+00 0. -1.
<mgrwt>
<rscale>  1 0.30000000E+03</rscale>
<asrwt>0</asrwt>
<pdfrwt beam="1">  1       21 0.38347666E-02 0.30000000E+03</pdfrwt>
<pdfrwt beam="2">0</pdfrwt>
<totfact> 0.45139914E+04</totfact>
</mgrwt>
</event>
<event>
 6    1  0.8397183E-002  0.3000000E+03  0.7818608E-02  0.1093470E+00
         21   -1    0    0  501  502  0.00000000000E+00  0.00000000000E+00  0.13583843181E+01  0.13583843181E+01  0.00000000000E+00 0. -1.
         13   -1    0    0    0    0 -0.00000000000E+00 -0.00000000000E+00 -0.10000000000E+04  0.10000000000E+04  0.00000000000E+00 0.  1.
    9000005    2    1    2  501    0 -0.85382522043E+01  0.30001168208E+02 -0.23652629718E+03  0.23860499655E+03  0.38318768383E+01 0.  0.
         13    1    3    3    0    0 -0.58489744386E+00  0.35879210901E+01 -0.19880892798E+02  0.20210521547E+02  0.00000000000E+00 0.  1.
          3    1    3    3  501    0 -0.79533547604E+01  0.26413247118E+02 -0.21664540438E+03  0.21839447501E+03  0.00000000000E+00 0.  1.
         -1    1    1    2    0  502  0.85382522043E+01 -0.30001168208E+02 -0.76211531851E+03  0.76275338776E+03  0.00000000000E+00 0. -1.
<mgrwt>
<rscale>  1 0.30000000E+03</rscale>
<asrwt>0</asrwt>
<pdfrwt beam="1">  1       21 0.49395898E-02 0.30000000E+03</pdfrwt>
<pdfrwt beam="2">0</pdfrwt>
<totfact> 0.29407593E+04</totfact>
</mgrwt>
</event>
<event>
 6    1  0.8397183E-002  0.3000000E+03  0.7818608E-02  0.1093470E+00
         21   -1    0    0  501  502  0.00000000000E+00  0.00000000000E+00  0.95179569269E+00  0.95179569269E+00  0.00000000000E+00 0. -1.
         13   -1    0    0    0    0 -0.00000000000E+00 -0.00000000000E+00 -0.10000000000E+04  0.10000000000E+04  0.00000000000E+00 0.  1.
    9000005    2    1    2  501    0 -0.31322105300E+01  0.30554633410E+02 -0.47740070341E+03  0.47840083018E+03  0.35392562926E+01 0.  0.
         13    1    3    3    0    0 -0.30118873476E+01  0.12457457617E+02 -0.20174214491E+03  0.20214883810E+03  0.00000000000E+00 0.  1.
          3    1    3    3  501    0 -0.12032318234E+00  0.18097175794E+02 -0.27565855850E+03  0.27625199207E+03  0.00000000000E+00 0.  1.
         -3    1    1    2    0  502  0.31322105300E+01 -0.30554633410E+02 -0.52164750090E+03  0.52255096552E+03  0.00000000000E+00 0. -1.
<mgrwt>
<rscale>  1 0.30000000E+03</rscale>
<asrwt>0</asrwt>
<pdfrwt beam="1">  1       21 0.34610825E-02 0.30000000E+03</pdfrwt>
<pdfrwt beam="2">0</pdfrwt>
<totfact> 0.53610836E+04</totfact>
</mgrwt>
</event>
<event>
 6    1  0.8397183E-002  0.3000000E+03  0.7818608E-02  0.1093470E+00
         21   -1    0    0  501  502  0.00000000000E+00  0.00000000000E+00  0.12329013954E+01  0.12329013954E+01  0.00000000000E+00 0. -1.
         13   -1    0    0    0    0 -0.00000000000E+00 -0.00000000000E+00 -0.10000000000E+04  0.10000000000E+04  0.00000000000E+00 0.  1.
    9000005    2    1    2  501    0 -0.29483998742E+02 -0.16996719664E+02 -0.38289088963E+03  0.38441712708E+03  0.35915972677E+01 0.  0.
         13    1    3    3    0    0 -0.19719098986E+02 -0.93959873222E+01 -0.24711433682E+03  0.24807785654E+03  0.00000000000E+00 0.  1.
          1    1    3    3  501    0 -0.97648997563E+01 -0.76007323417E+01 -0.13577655281E+03  0.13633927054E+03  0.00000000000E+00 0.  1.
         -3    1    1    2    0  502  0.29483998742E+02  0.16996719664E+02 -0.61587620897E+03  0.61681577431E+03  0.00000000000E+00 0. -1.
<mgrwt>
<rscale>  1 0.30000000E+03</rscale>
<asrwt>0</asrwt>
<pdfrwt beam="1">  1       21 0.44832873E-02 0.30000000E+03</pdfrwt>
<pdfrwt beam="2">0</pdfrwt>
<totfact> 0.34676411E+04</totfact>
</mgrwt>
</event>
<event>
 6    1  0.8397183E-002  0.3000000E+03  0.7818608E-02  0.1093470E+00
         21   -1    0    0  501  502  0.00000000000E+00  0.00000000000E+00  0.14345228704E+01  0.14345228704E+01  0.00000000000E+00 0. -1.
         13   -1    0    0    0    0 -0.00000000000E+00 -0.00000000000E+00 -0.10000000000E+04  0.10000000000E+04  0.00000000000E+00 0.  1.
    9000005    2    1    2  501    0  0.35693941631E+02 -0.65799565701E+01 -0.63924534410E+03  0.64028592285E+03  0.37549628962E+01 0.  0.
         13    1    3    3    0    0  0.28504880663E+02 -0.40895280229E+01 -0.48710511230E+03  0.48795557471E+03  0.00000000000E+00 0.  1.
          1    1    3    3  501    0  0.71890609676E+01 -0.24904285472E+01 -0.15214023180E+03  0.15233034814E+03  0.00000000000E+00 0.  1.
         -3    1    1    2    0  502 -0.35693941631E+02  0.65799565701E+01 -0.35932013303E+03  0.36114860002E+03  0.00000000000E+00 0. -1.
<mgrwt>
<rscale>  1 0.30000000E+03</rscale>
<asrwt>0</asrwt>
<pdfrwt beam="1">  1       21 0.52164578E-02 0.30000000E+03</pdfrwt>
<pdfrwt beam="2">0</pdfrwt>
<totfact> 0.26794833E+04</totfact>
</mgrwt>
</event>
<event>
 6    1  0.8397183E-002  0.3000000E+03  0.7818608E-02  0.1093470E+00
         21   -1    0    0  501  502  0.00000000000E+00  0.00000000000E+00  0.12314386515E+01  0.12314386515E+01  0.00000000000E+00 0. -1.
         13   -1    0    0    0    0 -0.00000000000E+00 -0.00000000000E+00 -0.10000000000E+04  0.10000000000E+04  0.00000000000E+00 0.  1.
    9000005    2    1    2  501    0 -0.21922120672E+02 -0.26745231034E+02 -0.42218770742E+03  0.42361446532E+03  0.32966920205E+01 0.  0.
         13    1    3    3    0    0 -0.28599844990E-01 -0.61239521562E+00 -0.53687455082E+01  0.54036352748E+01  0.00000000000E+00 0.  1.
          1    1    3    3  501    0 -0.21893520827E+02 -0.26132835819E+02 -0.41681896191E+03  0.41821083005E+03  0.00000000000E+00 0.  1.
         -1    1    1    2    0  502  0.21922120672E+02  0.26745231034E+02 -0.57658085393E+03  0.57761697333E+03  0.00000000000E+00 0. -1.
<mgrwt>
<rscale>  1 0.30000000E+03</rscale>
<asrwt>0</asrwt>
<pdfrwt beam="1">  1       21 0.44779682E-02 0.30000000E+03</pdfrwt>
<pdfrwt beam="2">0</pdfrwt>
<totfact> 0.34746311E+04</totfact>
</mgrwt>
</event>
<event>
 6    1  0.8397183E-002  0.3000000E+03  0.7818608E-02  0.1093470E+00
         21   -1    0    0  501  502  0.00000000000E+00  0.00000000000E+00  0.19714024830E+01  0.19714024830E+01  0.00000000000E+00 0. -1.
         13   -1    0    0    0    0 -0.00000000000E+00 -0.00000000000E+00 -0.10000000000E+04  0.10000000000E+04  0.00000000000E+00 0.  1.
    9000005    2    1    2  501    0 -0.20553355719E+02  0.34145635716E+02 -0.28004359057E+03  0.28288111951E+03  0.29917026104E+01 0.  0.
         13    1    3    3    0    0 -0.14993624947E+02  0.22558579570E+02 -0.19477852315E+03  0.19665292111E+03  0.00000000000E+00 0.  1.
          3    1    3    3  501    0 -0.55597307715E+01  0.11587056146E+02 -0.85265067429E+02  0.86228198405E+02  0.00000000000E+00 0.  1.
         -3    1    1    2    0  502  0.20553355719E+02 -0.34145635716E+02 -0.71798500694E+03  0.71909028297E+03  0.00000000000E+00 0. -1.
<mgrwt>
<rscale>  1 0.30000000E+03</rscale>
<asrwt>0</asrwt>
<pdfrwt beam="1">  1       21 0.71687514E-02 0.30000000E+03</pdfrwt>
<pdfrwt beam="2">0</pdfrwt>
<totfact> 0.15479403E+04</totfact>
</mgrwt>
</event>
<event>
 6    1  0.8397183E-002  0.3000000E+03  0.7818608E-02  0.1093470E+00
         21   -1    0    0  501  502  0.00000000000E+00  0.00000000000E+00  0.20214863787E+01  0.20214863787E+01  0.00000000000E+00 0. -1.
         13   -1    0    0    0    0 -0.00000000000E+00 -0.00000000000E+00 -0.10000000000E+04  0.10000000000E+04  0.00000000000E+00 0.  1.
    9000005    2    1    2  501    0 -0.34914456458E+02  0.27830043863E+02 -0.49903694731E+03  0.50108614404E+03  0.74778577639E+01 0.  0.
         13    1    3    3    0    0 -0.27312038379E+02  0.20944439479E+02 -0.41518742145E+03  0.41661158399E+03  0.00000000000E+00 0.  1.
          1    1    3    3  501    0 -0.76024180789E+01  0.68856043835E+01 -0.83849525856E+02  0.84474560044E+02  0.00000000000E+00 0.  1.
         -3    1    1    2    0  502  0.34914456458E+02 -0.27830043863E+02 -0.49894156631E+03  0.50093534234E+03  0.00000000000E+00 0. -1.
<mgrwt>
<rscale>  1 0.30000000E+03</rscale>
<asrwt>0</asrwt>
<pdfrwt beam="1">  1       21 0.73508751E-02 0.30000000E+03</pdfrwt>
<pdfrwt beam="2">0</pdfrwt>
<totfact> 0.14816038E+04</totfact>
</mgrwt>
</event>
<event>
 6    1  0.8397183E-002  0.3000000E+03  0.7818608E-02  0.1093470E+00
         21   -1    0    0  501  502  0.00000000000E+00  0.00000000000E+00  0.21097885294E+01  0.21097885294E+01  0.00000000000E+00 0. -1.
         13   -1    0    0    0    0 -0.00000000000E+00 -0.00000000000E+00 -0.10000000000E+04  0.10000000000E+04  0.00000000000E+00 0.  1.
    9000005    2    1    2  501    0 -0.43993922169E+02 -0.35808368996E+01 -0.36509788729E+03  0.36777989556E+03  0.41589288406E+01 0.  0.
         13    1    3    3    0    0 -0.35804688516E+02 -0.37322058578E+01 -0.30827004103E+03  0.31036482287E+03  0.00000000000E+00 0.  1.
          3    1    3    3  501    0 -0.81892336527E+01  0.15136895819E+00 -0.56827846265E+02  0.57415072686E+02  0.00000000000E+00 0.  1.
         -3    1    1    2    0  502  0.43993922169E+02  0.35808368996E+01 -0.63279232418E+03  0.63432989297E+03  0.00000000000E+00 0. -1.
<mgrwt>
<rscale>  1 0.30000000E+03</rscale>
<asrwt>0</asrwt>
<pdfrwt beam="1">  1       21 0.76719745E-02 0.30000000E+03</pdfrwt>
<pdfrwt beam="2">0</pdfrwt>
<totfact> 0.13747512E+04</totfact>
</mgrwt>
</event>
<event>
 6    1  0.8397183E-002  0.3000000E+03  0.7818608E-02  0.1093470E+00
         21   -1    0    0  501  502  0.00000000000E+00  0.00000000000E+00  0.51144834951E+01  0.51144834951E+01  0.00000000000E+00 0. -1.
         13   -1    0    0    0    0 -0.00000000000E+00 -0.00000000000E+00 -0.10000000000E+04  0.10000000000E+04  0.00000000000E+00 0.  1.
    9000005    2    1    2  501    0  0.12298596169E+02  0.63310850957E+02 -0.71414295409E+03  0.71705909704E+03  0.37510598321E+01 0.  0.
         13    1    3    3    0    0  0.20667154458E+01  0.16100769596E+02 -0.16609072579E+03  0.16688209996E+03  0.00000000000E+00 0.  1.
          1    1    3    3  501    0  0.10231880723E+02  0.47210081360E+02 -0.54805222830E+03  0.55017699707E+03  0.00000000000E+00 0.  1.
         -1    1    1    2    0  502 -0.12298596169E+02 -0.63310850957E+02 -0.28074256242E+03  0.28805538646E+03  0.00000000000E+00 0. -1.
<mgrwt>
<rscale>  1 0.30000000E+03</rscale>
<asrwt>0</asrwt>
<pdfrwt beam="1">  1       21 0.18598161E-01 0.30000000E+03</pdfrwt>
<pdfrwt beam="2">0</pdfrwt>
<totfact> 0.27543103E+03</totfact>
</mgrwt>
</event>
<event>
 6    1  0.8397183E-002  0.3000000E+03  0.7818608E-02  0.1093470E+00
         21   -1    0    0  501  502  0.00000000000E+00  0.00000000000E+00  0.30645864844E+02  0.30645864844E+02  0.00000000000E+00 0. -1.
         13   -1    0    0    0    0 -0.00000000000E+00 -0.00000000000E+00 -0.10000000000E+04  0.10000000000E+04  0.00000000000E+00 0.  1.
    9000005    2    1    2  501    0  0.27575307695E+02 -0.13799310695E+03 -0.17822606196E+03  0.22709989643E+03  0.27089915558E+01 0.  0.
         13    1    3    3    0    0  0.14611399923E+02 -0.69270237347E+02 -0.91472558150E+02  0.11566800631E+03  0.00000000000E+00 0.  1.
          3    1    3    3  501    0  0.12963907772E+02 -0.68722869604E+02 -0.86753503813E+02  0.11143189012E+03  0.00000000000E+00 0.  1.
         -3    1    1    2    0  502 -0.27575307695E+02  0.13799310695E+03 -0.79112807319E+03  0.80354596841E+03  0.00000000000E+00 0. -1.
<mgrwt>
<rscale>  1 0.30000000E+03</rscale>
<asrwt>0</asrwt>
<pdfrwt beam="1">  1       21 0.11143974E+00 0.30000000E+03</pdfrwt>
<pdfrwt beam="2">0</pdfrwt>
<totfact> 0.55471000E+01</totfact>
</mgrwt>
</event>
<event>
 6    1  0.8397183E-002  0.3000000E+03  0.7818608E-02  0.1093470E+00
         21   -1    0    0  501  502  0.00000000000E+00  0.00000000000E+00  0.12414196737E+01  0.12414196737E+01  0.00000000000E+00 0. -1.
         13   -1    0    0    0    0 -0.00000000000E+00 -0.00000000000E+00 -0.10000000000E+04  0.10000000000E+04  0.00000000000E+00 0.  1.
    9000005    2    1    2  501    0 -0.32230632857E+02 -0.88238120487E+01 -0.34537443012E+03  0.34700329705E+03  0.33343409277E+01 0.  0.
         13    1    3    3    0    0 -0.15769763237E+02 -0.59530663219E+01 -0.17900780271E+03  0.17979966035E+03  0.00000000000E+00 0.  1.
          3    1    3    3  501    0 -0.16460869620E+02 -0.28707457269E+01 -0.16636662741E+03  0.16720363670E+03  0.00000000000E+00 0.  1.
         -3    1    1    2    0  502  0.32230632857E+02  0.88238120487E+01 -0.65338415020E+03  0.65423812262E+03  0.00000000000E+00 0. -1.
<mgrwt>
<rscale>  1 0.30000000E+03</rscale>
<asrwt>0</asrwt>
<pdfrwt beam="1">  1       21 0.45142629E-02 0.30000000E+03</pdfrwt>
<pdfrwt beam="2">0</pdfrwt>
<totfact> 0.34273625E+04</totfact>
</mgrwt>
</event>
<event>
 6    1  0.8397183E-002  0.3000000E+03  0.7818608E-02  0.1093470E+00
         21   -1    0    0  501  502  0.00000000000E+00  0.00000000000E+00  0.17120941324E+01  0.17120941324E+01  0.00000000000E+00 0. -1.
         13   -1    0    0    0    0 -0.00000000000E+00 -0.00000000000E+00 -0.10000000000E+04  0.10000000000E+04  0.00000000000E+00 0.  1.
    9000005    2    1    2  501    0 -0.16994421860E+02  0.34672542059E+02 -0.32204143769E+03  0.32436411763E+03  0.32245418636E+01 0.  0.
         13    1    3    3    0    0 -0.50485498338E+00  0.11815743415E+01 -0.68239229237E+01  0.69438404754E+01  0.00000000000E+00 0.  1.
          1    1    3    3  501    0 -0.16489566877E+02  0.33490967717E+02 -0.31521751477E+03  0.31742027716E+03  0.00000000000E+00 0.  1.
         -1    1    1    2    0  502  0.16994421860E+02 -0.34672542059E+02 -0.67624646817E+03  0.67734797650E+03  0.00000000000E+00 0. -1.
<mgrwt>
<rscale>  1 0.30000000E+03</rscale>
<asrwt>0</asrwt>
<pdfrwt beam="1">  1       21 0.62258100E-02 0.30000000E+03</pdfrwt>
<pdfrwt beam="2">0</pdfrwt>
<totfact> 0.19769972E+04</totfact>
</mgrwt>
</event>
<event>
 6    1  0.8397183E-002  0.3000000E+03  0.7818608E-02  0.1093470E+00
         21   -1    0    0  501  502  0.00000000000E+00  0.00000000000E+00  0.11788296773E+01  0.11788296773E+01  0.00000000000E+00 0. -1.
         13   -1    0    0    0    0 -0.00000000000E+00 -0.00000000000E+00 -0.10000000000E+04  0.10000000000E+04  0.00000000000E+00 0.  1.
    9000005    2    1    2  501    0 -0.15152926224E+02 -0.26019967761E+02 -0.73887196116E+03  0.73949153300E+03  0.30500003501E+01 0.  0.
         13    1    3    3    0    0 -0.26886650284E+00 -0.21709015420E+00 -0.36341472749E+01  0.36505401994E+01  0.00000000000E+00 0.  1.
          1    1    3    3  501    0 -0.14884059721E+02 -0.25802877607E+02 -0.73523781388E+03  0.73584099280E+03  0.00000000000E+00 0.  1.
         -1    1    1    2    0  502  0.15152926224E+02  0.26019967761E+02 -0.25994920917E+03  0.26168729667E+03  0.00000000000E+00 0. -1.
<mgrwt>
<rscale>  1 0.30000000E+03</rscale>
<asrwt>0</asrwt>
<pdfrwt beam="1">  1       21 0.42866624E-02 0.30000000E+03</pdfrwt>
<pdfrwt beam="2">0</pdfrwt>
<totfact> 0.37412771E+04</totfact>
</mgrwt>
</event>
<event>
 6    1  0.8397183E-002  0.3000000E+03  0.7818608E-02  0.1093470E+00
         21   -1    0    0  501  502  0.00000000000E+00  0.00000000000E+00  0.48117785472E+01  0.48117785472E+01  0.00000000000E+00 0. -1.
         13   -1    0    0    0    0 -0.00000000000E+00 -0.00000000000E+00 -0.10000000000E+04  0.10000000000E+04  0.00000000000E+00 0.  1.
    9000005    2    1    2  501    0 -0.65991074629E+02  0.18190417885E+02 -0.57688823364E+03  0.58094789351E+03  0.38350527551E+01 0.  0.
         13    1    3    3    0    0 -0.56512317991E+02  0.16844329708E+02 -0.49179176277E+03  0.49531455809E+03  0.00000000000E+00 0.  1.
          1    1    3    3  501    0 -0.94787566379E+01  0.13460881767E+01 -0.85096470870E+02  0.85633335421E+02  0.00000000000E+00 0.  1.
         -1    1    1    2    0  502  0.65991074629E+02 -0.18190417885E+02 -0.41829998781E+03  0.42386388504E+03  0.00000000000E+00 0. -1.
<mgrwt>
<rscale>  1 0.30000000E+03</rscale>
<asrwt>0</asrwt>
<pdfrwt beam="1">  1       21 0.17497413E-01 0.30000000E+03</pdfrwt>
<pdfrwt beam="2">0</pdfrwt>
<totfact> 0.30898022E+03</totfact>
</mgrwt>
</event>
<event>
 6    1  0.8397183E-002  0.3000000E+03  0.7818608E-02  0.1093470E+00
         21   -1    0    0  501  502  0.00000000000E+00  0.00000000000E+00  0.19536789953E+01  0.19536789953E+01  0.00000000000E+00 0. -1.
         13   -1    0    0    0    0 -0.00000000000E+00 -0.00000000000E+00 -0.10000000000E+04  0.10000000000E+04  0.00000000000E+00 0.  1.
    9000005    2    1    2  501    0 -0.15846712652E+02 -0.41125167328E+02 -0.47160512940E+03  0.47367087036E+03  0.32089958312E+01 0.  0.
         13    1    3    3    0    0 -0.48829565979E+01 -0.16985396781E+02 -0.19138426319E+03  0.19219855142E+03  0.00000000000E+00 0.  1.
          1    1    3    3  501    0 -0.10963756054E+02 -0.24139770548E+02 -0.28022086621E+03  0.28147231894E+03  0.00000000000E+00 0.  1.
         -3    1    1    2    0  502  0.15846712652E+02  0.41125167328E+02 -0.52644119160E+03  0.52828280864E+03  0.00000000000E+00 0. -1.
<mgrwt>
<rscale>  1 0.30000000E+03</rscale>
<asrwt>0</asrwt>
<pdfrwt beam="1">  1       21 0.71043022E-02 0.30000000E+03</pdfrwt>
<pdfrwt beam="2">0</pdfrwt>
<totfact> 0.15725014E+04</totfact>
</mgrwt>
</event>
<event>
 6    1  0.8397183E-002  0.3000000E+03  0.7818608E-02  0.1093470E+00
         21   -1    0    0  501  502  0.00000000000E+00  0.00000000000E+00  0.70793670322E+01  0.70793670322E+01  0.00000000000E+00 0. -1.
         13   -1    0    0    0    0 -0.00000000000E+00 -0.00000000000E+00 -0.10000000000E+04  0.10000000000E+04  0.00000000000E+00 0.  1.
    9000005    2    1    2  501    0  0.43546111642E+02 -0.49145205431E+02 -0.18215622538E+03  0.19366038541E+03  0.34553401600E+01 0.  0.
         13    1    3    3    0    0  0.40137235769E+02 -0.43798647711E+02 -0.16394323792E+03  0.17437518314E+03  0.00000000000E+00 0.  1.
          3    1    3    3  501    0  0.34088758725E+01 -0.53465577205E+01 -0.18212987469E+02  0.19285202273E+02  0.00000000000E+00 0.  1.
         -1    1    1    2    0  502 -0.43546111642E+02  0.49145205431E+02 -0.81076440758E+03  0.81341898162E+03  0.00000000000E+00 0. -1.
<mgrwt>
<rscale>  1 0.30000000E+03</rscale>
<asrwt>0</asrwt>
<pdfrwt beam="1">  1       21 0.25743207E-01 0.30000000E+03</pdfrwt>
<pdfrwt beam="2">0</pdfrwt>
<totfact> 0.14724883E+03</totfact>
</mgrwt>
</event>
<event>
 6    1  0.8397183E-002  0.3000000E+03  0.7818608E-02  0.1093470E+00
         21   -1    0    0  501  502  0.00000000000E+00  0.00000000000E+00  0.27924547847E+01  0.27924547847E+01  0.00000000000E+00 0. -1.
         13   -1    0    0    0    0 -0.00000000000E+00 -0.00000000000E+00 -0.10000000000E+04  0.10000000000E+04  0.00000000000E+00 0.  1.
    9000005    2    1    2  501    0  0.37678276906E+02  0.35886844895E+02 -0.58301373185E+03  0.58534301687E+03  0.37306410875E+01 0.  0.
         13    1    3    3    0    0  0.24721364804E+02  0.24091275398E+02 -0.40553720759E+03  0.40700363901E+03  0.00000000000E+00 0.  1.
          3    1    3    3  501    0  0.12956912103E+02  0.11795569498E+02 -0.17747652426E+03  0.17833937785E+03  0.00000000000E+00 0.  1.
         -1    1    1    2    0  502 -0.37678276906E+02 -0.35886844895E+02 -0.41419381337E+03  0.41744943792E+03  0.00000000000E+00 0. -1.
<mgrwt>
<rscale>  1 0.30000000E+03</rscale>
<asrwt>0</asrwt>
<pdfrwt beam="1">  1       21 0.10154402E-01 0.30000000E+03</pdfrwt>
<pdfrwt beam="2">0</pdfrwt>
<totfact> 0.83707447E+03</totfact>
</mgrwt>
</event>
<event>
 6    1  0.8397183E-002  0.3000000E+03  0.7818608E-02  0.1093470E+00
         21   -1    0    0  501  502  0.00000000000E+00  0.00000000000E+00  0.15787780205E+01  0.15787780205E+01  0.00000000000E+00 0. -1.
         13   -1    0    0    0    0 -0.00000000000E+00 -0.00000000000E+00 -0.10000000000E+04  0.10000000000E+04  0.00000000000E+00 0.  1.
    9000005    2    1    2  501    0  0.10400678713E+01  0.31582366139E+02 -0.80216941429E+03  0.80279925288E+03  0.35133483826E+01 0.  0.
         13    1    3    3    0    0  0.14645480496E+01  0.27813481719E+02 -0.67775129663E+03  0.67832334086E+03  0.00000000000E+00 0.  1.
          1    1    3    3  501    0 -0.42448017832E+00  0.37688844195E+01 -0.12441811765E+03  0.12447591202E+03  0.00000000000E+00 0.  1.
         -1    1    1    2    0  502 -0.10400678713E+01 -0.31582366139E+02 -0.19625180769E+03  0.19877952514E+03  0.00000000000E+00 0. -1.
<mgrwt>
<rscale>  1 0.30000000E+03</rscale>
<asrwt>0</asrwt>
<pdfrwt beam="1">  1       21 0.57410231E-02 0.30000000E+03</pdfrwt>
<pdfrwt beam="2">0</pdfrwt>
<totfact> 0.22736074E+04</totfact>
</mgrwt>
</event>
<event>
 6    1  0.8397183E-002  0.3000000E+03  0.7818608E-02  0.1093470E+00
         21   -1    0    0  501  502  0.00000000000E+00  0.00000000000E+00  0.91961764245E+00  0.91961764245E+00  0.00000000000E+00 0. -1.
         13   -1    0    0    0    0 -0.00000000000E+00 -0.00000000000E+00 -0.10000000000E+04  0.10000000000E+04  0.00000000000E+00 0.  1.
    9000005    2    1    2  501    0  0.24064631159E+02  0.18282601042E+02 -0.50055382599E+03  0.50147784188E+03  0.35402272571E+01 0.  0.
         13    1    3    3    0    0  0.92922579053E+01  0.92611191547E+01 -0.21596168825E+03  0.21635980490E+03  0.00000000000E+00 0.  1.
          1    1    3    3  501    0  0.14772373254E+02  0.90214818875E+01 -0.28459213774E+03  0.28511803698E+03  0.00000000000E+00 0.  1.
         -3    1    1    2    0  502 -0.24064631159E+02 -0.18282601042E+02 -0.49852655637E+03  0.49944177576E+03  0.00000000000E+00 0. -1.
<mgrwt>
<rscale>  1 0.30000000E+03</rscale>
<asrwt>0</asrwt>
<pdfrwt beam="1">  1       21 0.33440712E-02 0.30000000E+03</pdfrwt>
<pdfrwt beam="2">0</pdfrwt>
<totfact> 0.56782476E+04</totfact>
</mgrwt>
</event>
<event>
 6    1  0.8397183E-002  0.3000000E+03  0.7818608E-02  0.1093470E+00
         21   -1    0    0  501  502  0.00000000000E+00  0.00000000000E+00  0.10810210793E+01  0.10810210793E+01  0.00000000000E+00 0. -1.
         13   -1    0    0    0    0 -0.00000000000E+00 -0.00000000000E+00 -0.10000000000E+04  0.10000000000E+04  0.00000000000E+00 0.  1.
    9000005    2    1    2  501    0 -0.27804964958E+02  0.17385694110E+02 -0.49600984820E+03  0.49710386664E+03  0.33326085169E+01 0.  0.
         13    1    3    3    0    0  0.44783410834E-01 -0.49720801595E-01 -0.27819523775E+01  0.27827570398E+01  0.00000000000E+00 0.  1.
          1    1    3    3  501    0 -0.27849748369E+02  0.17435414912E+02 -0.49322789582E+03  0.49432110960E+03  0.00000000000E+00 0.  1.
         -3    1    1    2    0  502  0.27804964958E+02 -0.17385694110E+02 -0.50290913072E+03  0.50397715444E+03  0.00000000000E+00 0. -1.
<mgrwt>
<rscale>  1 0.30000000E+03</rscale>
<asrwt>0</asrwt>
<pdfrwt beam="1">  1       21 0.39309940E-02 0.30000000E+03</pdfrwt>
<pdfrwt beam="2">0</pdfrwt>
<totfact> 0.43297235E+04</totfact>
</mgrwt>
</event>
<event>
 6    1  0.8488157E-002  0.3000000E+03  0.7818608E-02  0.1093470E+00
         21   -1    0    0  501  502  0.00000000000E+00  0.00000000000E+00  0.45930326037E+01  0.45930326037E+01  0.00000000000E+00 0. -1.
         13   -1    0    0    0    0 -0.00000000000E+00 -0.00000000000E+00 -0.10000000000E+04  0.10000000000E+04  0.00000000000E+00 0.  1.
    9000005    2    1    2  501    0  0.25295951663E+02 -0.56119970636E+02 -0.70638440923E+03  0.70908774432E+03  0.60958401102E+01 0.  0.
         13    1    3    3    0    0  0.13480158731E+02 -0.22582384107E+02 -0.30203224390E+03  0.30317512284E+03  0.00000000000E+00 0.  1.
          3    1    3    3  501    0  0.11815792932E+02 -0.33537586529E+02 -0.40435216533E+03  0.40591262148E+03  0.00000000000E+00 0.  1.
         -1    1    1    2    0  502 -0.25295951663E+02  0.56119970636E+02 -0.28902255817E+03  0.29550528828E+03  0.00000000000E+00 0. -1.
<mgrwt>
<rscale>  1 0.30000000E+03</rscale>
<asrwt>0</asrwt>
<pdfrwt beam="1">  1       21 0.16701972E-01 0.30000000E+03</pdfrwt>
<pdfrwt beam="2">0</pdfrwt>
<totfact> 0.33712861E+03</totfact>
</mgrwt>
</event>
<event>
 6    1  0.8397183E-002  0.3000000E+03  0.7818608E-02  0.1093470E+00
         21   -1    0    0  501  502  0.00000000000E+00  0.00000000000E+00  0.10879640160E+01  0.10879640160E+01  0.00000000000E+00 0. -1.
         13   -1    0    0    0    0 -0.00000000000E+00 -0.00000000000E+00 -0.10000000000E+04  0.10000000000E+04  0.00000000000E+00 0.  1.
    9000005    2    1    2  501    0  0.13225542300E+02  0.28536892148E+02 -0.35598935396E+03  0.35739638862E+03  0.38064785337E+01 0.  0.
         13    1    3    3    0    0  0.62640869882E+01  0.17561925088E+02 -0.20087003038E+03  0.20173355968E+03  0.00000000000E+00 0.  1.
          3    1    3    3  501    0  0.69614553122E+01  0.10974967059E+02 -0.15511932358E+03  0.15566282893E+03  0.00000000000E+00 0.  1.
         -1    1    1    2    0  502 -0.13225542300E+02 -0.28536892148E+02 -0.64292268202E+03  0.64369157540E+03  0.00000000000E+00 0. -1.
<mgrwt>
<rscale>  1 0.30000000E+03</rscale>
<asrwt>0</asrwt>
<pdfrwt beam="1">  1       21 0.39562411E-02 0.30000000E+03</pdfrwt>
<pdfrwt beam="2">0</pdfrwt>
<totfact> 0.42833265E+04</totfact>
</mgrwt>
</event>
<event>
 6    1  0.8397183E-002  0.3000000E+03  0.7818608E-02  0.1093470E+00
         21   -1    0    0  501  502  0.00000000000E+00  0.00000000000E+00  0.17447803629E+01  0.17447803629E+01  0.00000000000E+00 0. -1.
         13   -1    0    0    0    0 -0.00000000000E+00 -0.00000000000E+00 -0.10000000000E+04  0.10000000000E+04  0.00000000000E+00 0.  1.
    9000005    2    1    2  501    0  0.22157762853E+02 -0.21041692171E+02 -0.84014480157E+03  0.84070868638E+03  0.37534630180E+01 0.  0.
         13    1    3    3    0    0  0.11964040082E+02 -0.92086403748E+01 -0.38454859564E+03  0.38484485149E+03  0.00000000000E+00 0.  1.
          3    1    3    3  501    0  0.10193722771E+02 -0.11833051796E+02 -0.45559620594E+03  0.45586383489E+03  0.00000000000E+00 0.  1.
         -1    1    1    2    0  502 -0.22157762853E+02  0.21041692171E+02 -0.15811041806E+03  0.16103609398E+03  0.00000000000E+00 0. -1.
<mgrwt>
<rscale>  1 0.30000000E+03</rscale>
<asrwt>0</asrwt>
<pdfrwt beam="1">  1       21 0.63446692E-02 0.30000000E+03</pdfrwt>
<pdfrwt beam="2">0</pdfrwt>
<totfact> 0.19134269E+04</totfact>
</mgrwt>
</event>
<event>
 6    1  0.8397183E-002  0.3000000E+03  0.7818608E-02  0.1093470E+00
         21   -1    0    0  501  502  0.00000000000E+00  0.00000000000E+00  0.13989127638E+01  0.13989127638E+01  0.00000000000E+00 0. -1.
         13   -1    0    0    0    0 -0.00000000000E+00 -0.00000000000E+00 -0.10000000000E+04  0.10000000000E+04  0.00000000000E+00 0.  1.
    9000005    2    1    2  501    0 -0.36337608352E+02  0.85898025199E+01 -0.49083386876E+03  0.49226066568E+03  0.29102856182E+01 0.  0.
         13    1    3    3    0    0 -0.22245721980E+02  0.40553723583E+01 -0.28590944787E+03  0.28680224994E+03  0.00000000000E+00 0.  1.
          3    1    3    3  501    0 -0.14091886371E+02  0.45344301616E+01 -0.20492442089E+03  0.20545841574E+03  0.00000000000E+00 0.  1.
         -3    1    1    2    0  502  0.36337608352E+02 -0.85898025199E+01 -0.50776721847E+03  0.50913824709E+03  0.00000000000E+00 0. -1.
<mgrwt>
<rscale>  1 0.30000000E+03</rscale>
<asrwt>0</asrwt>
<pdfrwt beam="1">  1       21 0.50869662E-02 0.30000000E+03</pdfrwt>
<pdfrwt beam="2">0</pdfrwt>
<totfact> 0.27969885E+04</totfact>
</mgrwt>
</event>
<event>
 6    1  0.8397183E-002  0.3000000E+03  0.7818608E-02  0.1093470E+00
         21   -1    0    0  501  502  0.00000000000E+00  0.00000000000E+00  0.12759556268E+01  0.12759556268E+01  0.00000000000E+00 0. -1.
         13   -1    0    0    0    0 -0.00000000000E+00 -0.00000000000E+00 -0.10000000000E+04  0.10000000000E+04  0.00000000000E+00 0.  1.
    9000005    2    1    2  501    0 -0.11791827510E+02  0.32559844586E+02 -0.38400686523E+03  0.38558414879E+03  0.38304799585E+01 0.  0.
         13    1    3    3    0    0 -0.11272154927E+02  0.30265386704E+02 -0.34579160580E+03  0.34729654440E+03  0.00000000000E+00 0.  1.
          3    1    3    3  501    0 -0.51967258316E+00  0.22944578822E+01 -0.38215259430E+02  0.38287604389E+02  0.00000000000E+00 0.  1.
         -1    1    1    2    0  502  0.11791827510E+02 -0.32559844586E+02 -0.61471717914E+03  0.61569180684E+03  0.00000000000E+00 0. -1.
<mgrwt>
<rscale>  1 0.30000000E+03</rscale>
<asrwt>0</asrwt>
<pdfrwt beam="1">  1       21 0.46398484E-02 0.30000000E+03</pdfrwt>
<pdfrwt beam="2">0</pdfrwt>
<totfact> 0.32712804E+04</totfact>
</mgrwt>
</event>
<event>
 6    1  0.8397183E-002  0.3000000E+03  0.7818608E-02  0.1093470E+00
         21   -1    0    0  501  502  0.00000000000E+00  0.00000000000E+00  0.14211035997E+01  0.14211035997E+01  0.00000000000E+00 0. -1.
         13   -1    0    0    0    0 -0.00000000000E+00 -0.00000000000E+00 -0.10000000000E+04  0.10000000000E+04  0.00000000000E+00 0.  1.
    9000005    2    1    2  501    0  0.46266019652E+01  0.36805196515E+02 -0.58107174563E+03  0.58226928280E+03  0.41371711673E+01 0.  0.
         13    1    3    3    0    0  0.11472421694E+01  0.55865356705E+01 -0.69197805735E+02  0.69432426602E+02  0.00000000000E+00 0.  1.
          1    1    3    3  501    0  0.34793597958E+01  0.31218660845E+02 -0.51187393990E+03  0.51283685620E+03  0.00000000000E+00 0.  1.
         -3    1    1    2    0  502 -0.46266019652E+01 -0.36805196515E+02 -0.41750715077E+03  0.41915182080E+03  0.00000000000E+00 0. -1.
<mgrwt>
<rscale>  1 0.30000000E+03</rscale>
<asrwt>0</asrwt>
<pdfrwt beam="1">  1       21 0.51676604E-02 0.30000000E+03</pdfrwt>
<pdfrwt beam="2">0</pdfrwt>
<totfact> 0.27228480E+04</totfact>
</mgrwt>
</event>
<event>
 6    1  0.8397183E-002  0.3000000E+03  0.7818608E-02  0.1093470E+00
         21   -1    0    0  501  502  0.00000000000E+00  0.00000000000E+00  0.11146841094E+01  0.11146841094E+01  0.00000000000E+00 0. -1.
         13   -1    0    0    0    0 -0.00000000000E+00 -0.00000000000E+00 -0.10000000000E+04  0.10000000000E+04  0.00000000000E+00 0.  1.
    9000005    2    1    2  501    0 -0.10804111752E+02  0.30994443917E+02 -0.41727810776E+03  0.41858199924E+03  0.35336231650E+01 0.  0.
         13    1    3    3    0    0 -0.19792561227E+01  0.25530361386E+01 -0.42748821067E+02  0.42870702711E+02  0.00000000000E+00 0.  1.
          1    1    3    3  501    0 -0.88248556290E+01  0.28441407778E+02 -0.37452928669E+03  0.37571129653E+03  0.00000000000E+00 0.  1.
         -3    1    1    2    0  502  0.10804111752E+02 -0.30994443917E+02 -0.58160720813E+03  0.58253268487E+03  0.00000000000E+00 0. -1.
<mgrwt>
<rscale>  1 0.30000000E+03</rscale>
<asrwt>0</asrwt>
<pdfrwt beam="1">  1       21 0.40534053E-02 0.30000000E+03</pdfrwt>
<pdfrwt beam="2">0</pdfrwt>
<totfact> 0.41118282E+04</totfact>
</mgrwt>
</event>
<event>
 6    1  0.8397183E-002  0.3000000E+03  0.7818608E-02  0.1093470E+00
         21   -1    0    0  501  502  0.00000000000E+00  0.00000000000E+00  0.11536540317E+01  0.11536540317E+01  0.00000000000E+00 0. -1.
         13   -1    0    0    0    0 -0.00000000000E+00 -0.00000000000E+00 -0.10000000000E+04  0.10000000000E+04  0.00000000000E+00 0.  1.
    9000005    2    1    2  501    0  0.11248786741E+02  0.31202089225E+02 -0.60129671420E+03  0.60222281379E+03  0.38043881098E+01 0.  0.
         13    1    3    3    0    0  0.40356178010E+01  0.15657368231E+02 -0.31271055492E+03  0.31312829727E+03  0.00000000000E+00 0.  1.
          3    1    3    3  501    0  0.72131689399E+01  0.15544720994E+02 -0.28858615928E+03  0.28909451652E+03  0.00000000000E+00 0.  1.
         -1    1    1    2    0  502 -0.11248786741E+02 -0.31202089225E+02 -0.39754963177E+03  0.39893084024E+03  0.00000000000E+00 0. -1.
<mgrwt>
<rscale>  1 0.30000000E+03</rscale>
<asrwt>0</asrwt>
<pdfrwt beam="1">  1       21 0.41951144E-02 0.30000000E+03</pdfrwt>
<pdfrwt beam="2">0</pdfrwt>
<totfact> 0.38802644E+04</totfact>
</mgrwt>
</event>
<event>
 6    1  0.8397183E-002  0.3000000E+03  0.7818608E-02  0.1093470E+00
         21   -1    0    0  501  502  0.00000000000E+00  0.00000000000E+00  0.24197976193E+01  0.24197976193E+01  0.00000000000E+00 0. -1.
         13   -1    0    0    0    0 -0.00000000000E+00 -0.00000000000E+00 -0.10000000000E+04  0.10000000000E+04  0.00000000000E+00 0.  1.
    9000005    2    1    2  501    0 -0.47745631888E+02 -0.11583126114E+02 -0.50368355441E+03  0.50608552210E+03  0.34085957328E+01 0.  0.
         13    1    3    3    0    0 -0.24085265674E+02 -0.49294809465E+01 -0.23692530330E+03  0.23819739535E+03  0.00000000000E+00 0.  1.
          3    1    3    3  501    0 -0.23660366215E+02 -0.66536451672E+01 -0.26675825111E+03  0.26788812676E+03  0.00000000000E+00 0.  1.
         -1    1    1    2    0  502  0.47745631888E+02  0.11583126114E+02 -0.49389664797E+03  0.49633427552E+03  0.00000000000E+00 0. -1.
<mgrwt>
<rscale>  1 0.30000000E+03</rscale>
<asrwt>0</asrwt>
<pdfrwt beam="1">  1       21 0.87992826E-02 0.30000000E+03</pdfrwt>
<pdfrwt beam="2">0</pdfrwt>
<totfact> 0.10800749E+04</totfact>
</mgrwt>
</event>
<event>
 6    1  0.8397183E-002  0.3000000E+03  0.7818608E-02  0.1093470E+00
         21   -1    0    0  501  502  0.00000000000E+00  0.00000000000E+00  0.10692460655E+01  0.10692460655E+01  0.00000000000E+00 0. -1.
         13   -1    0    0    0    0 -0.00000000000E+00 -0.00000000000E+00 -0.10000000000E+04  0.10000000000E+04  0.00000000000E+00 0.  1.
    9000005    2    1    2  501    0  0.32175034496E+02 -0.67030362517E-01 -0.58283055408E+03  0.58372692416E+03  0.32295320600E+01 0.  0.
         13    1    3    3    0    0  0.13812207812E+02 -0.26846622744E+00 -0.22208674573E+03  0.22251600345E+03  0.00000000000E+00 0.  1.
          3    1    3    3  501    0  0.18362826685E+02  0.20143586492E+00 -0.36074380835E+03  0.36121092071E+03  0.00000000000E+00 0.  1.
         -3    1    1    2    0  502 -0.32175034496E+02  0.67030362517E-01 -0.41610019985E+03  0.41734232191E+03  0.00000000000E+00 0. -1.
<mgrwt>
<rscale>  1 0.30000000E+03</rscale>
<asrwt>0</asrwt>
<pdfrwt beam="1">  1       21 0.38881757E-02 0.30000000E+03</pdfrwt>
<pdfrwt beam="2">0</pdfrwt>
<totfact> 0.44102324E+04</totfact>
</mgrwt>
</event>
<event>
 6    1  0.8397183E-002  0.3000000E+03  0.7818608E-02  0.1093470E+00
         21   -1    0    0  501  502  0.00000000000E+00  0.00000000000E+00  0.18770406898E+01  0.18770406898E+01  0.00000000000E+00 0. -1.
         13   -1    0    0    0    0 -0.00000000000E+00 -0.00000000000E+00 -0.10000000000E+04  0.10000000000E+04  0.00000000000E+00 0.  1.
    9000005    2    1    2  501    0  0.35428135683E+02 -0.30830350395E+01 -0.21530716320E+03  0.21825389878E+03  0.35960954820E+01 0.  0.
         13    1    3    3    0    0  0.32482411591E+02 -0.37821564316E+01 -0.19869412295E+03  0.20136724229E+03  0.00000000000E+00 0.  1.
          3    1    3    3  501    0  0.29457240917E+01  0.69912139210E+00 -0.16613040245E+02  0.16886656488E+02  0.00000000000E+00 0.  1.
         -1    1    1    2    0  502 -0.35428135683E+02  0.30830350395E+01 -0.78281579611E+03  0.78362314191E+03  0.00000000000E+00 0. -1.
<mgrwt>
<rscale>  1 0.30000000E+03</rscale>
<asrwt>0</asrwt>
<pdfrwt beam="1">  1       21 0.68256169E-02 0.30000000E+03</pdfrwt>
<pdfrwt beam="2">0</pdfrwt>
<totfact> 0.16858743E+04</totfact>
</mgrwt>
</event>
<event>
 6    1  0.8397183E-002  0.3000000E+03  0.7818608E-02  0.1093470E+00
         21   -1    0    0  501  502  0.00000000000E+00  0.00000000000E+00  0.25767292482E+01  0.25767292482E+01  0.00000000000E+00 0. -1.
         13   -1    0    0    0    0 -0.00000000000E+00 -0.00000000000E+00 -0.10000000000E+04  0.10000000000E+04  0.00000000000E+00 0.  1.
    9000005    2    1    2  501    0 -0.35051758915E+02 -0.33664101180E+02 -0.64211889245E+03  0.64396398721E+03  0.33237436129E+01 0.  0.
         13    1    3    3    0    0 -0.27694599196E+02 -0.24685563312E+02 -0.49321517317E+03  0.49460850670E+03  0.00000000000E+00 0.  1.
          1    1    3    3  501    0 -0.73571597186E+01 -0.89785378684E+01 -0.14890371929E+03  0.14935548051E+03  0.00000000000E+00 0.  1.
         -3    1    1    2    0  502  0.35051758915E+02  0.33664101180E+02 -0.35530437830E+03  0.35861274204E+03  0.00000000000E+00 0. -1.
<mgrwt>
<rscale>  1 0.30000000E+03</rscale>
<asrwt>0</asrwt>
<pdfrwt beam="1">  1       21 0.93699443E-02 0.30000000E+03</pdfrwt>
<pdfrwt beam="2">0</pdfrwt>
<totfact> 0.96619127E+03</totfact>
</mgrwt>
</event>
<event>
 6    1  0.8397183E-002  0.3000000E+03  0.7818608E-02  0.1093470E+00
         21   -1    0    0  501  502  0.00000000000E+00  0.00000000000E+00  0.14488683350E+01  0.14488683350E+01  0.00000000000E+00 0. -1.
         13   -1    0    0    0    0 -0.00000000000E+00 -0.00000000000E+00 -0.10000000000E+04  0.10000000000E+04  0.00000000000E+00 0.  1.
    9000005    2    1    2  501    0  0.31366901735E+02  0.61516732647E+01 -0.22981459695E+03  0.23204807199E+03  0.31357830350E+01 0.  0.
         13    1    3    3    0    0  0.23493536579E+02  0.32309520681E+01 -0.16779689744E+03  0.16946440364E+03  0.00000000000E+00 0.  1.
          1    1    3    3  501    0  0.78733651562E+01  0.29207211966E+01 -0.62017699511E+02  0.62583668347E+02  0.00000000000E+00 0.  1.
         -1    1    1    2    0  502 -0.31366901735E+02 -0.61516732647E+01 -0.76873653472E+03  0.76940079634E+03  0.00000000000E+00 0. -1.
<mgrwt>
<rscale>  1 0.30000000E+03</rscale>
<asrwt>0</asrwt>
<pdfrwt beam="1">  1       21 0.52686232E-02 0.30000000E+03</pdfrwt>
<pdfrwt beam="2">0</pdfrwt>
<totfact> 0.26342985E+04</totfact>
</mgrwt>
</event>
<event>
 6    1  0.8397183E-002  0.3000000E+03  0.7818608E-02  0.1093470E+00
         21   -1    0    0  501  502  0.00000000000E+00  0.00000000000E+00  0.11741863058E+01  0.11741863058E+01  0.00000000000E+00 0. -1.
         13   -1    0    0    0    0 -0.00000000000E+00 -0.00000000000E+00 -0.10000000000E+04  0.10000000000E+04  0.00000000000E+00 0.  1.
    9000005    2    1    2  501    0  0.30140431341E+02 -0.10813284134E+02 -0.32498414232E+03  0.32657210300E+03  0.30451577266E+01 0.  0.
         13    1    3    3    0    0  0.21491989820E+02 -0.87518563640E+01 -0.22503825429E+03  0.22623155508E+03  0.00000000000E+00 0.  1.
          1    1    3    3  501    0  0.86484415206E+01 -0.20614277696E+01 -0.99945888022E+02  0.10034054792E+03  0.00000000000E+00 0.  1.
         -1    1    1    2    0  502 -0.30140431341E+02  0.10813284134E+02 -0.67384167138E+03  0.67460208331E+03  0.00000000000E+00 0. -1.
<mgrwt>
<rscale>  1 0.30000000E+03</rscale>
<asrwt>0</asrwt>
<pdfrwt beam="1">  1       21 0.42697774E-02 0.30000000E+03</pdfrwt>
<pdfrwt beam="2">0</pdfrwt>
<totfact> 0.37663242E+04</totfact>
</mgrwt>
</event>
<event>
 6    1  0.8397183E-002  0.3000000E+03  0.7818608E-02  0.1093470E+00
         21   -1    0    0  501  502  0.00000000000E+00  0.00000000000E+00  0.20447253470E+01  0.20447253470E+01  0.00000000000E+00 0. -1.
         13   -1    0    0    0    0 -0.00000000000E+00 -0.00000000000E+00 -0.10000000000E+04  0.10000000000E+04  0.00000000000E+00 0.  1.
    9000005    2    1    2  501    0  0.43253821481E+02  0.10207359914E+02 -0.41118947684E+03  0.41359830914E+03  0.34193839420E+01 0.  0.
         13    1    3    3    0    0  0.27622745342E+02  0.65970440231E+01 -0.24719790208E+03  0.24882391332E+03  0.00000000000E+00 0.  1.
          1    1    3    3  501    0  0.15631076139E+02  0.36103158912E+01 -0.16399157477E+03  0.16477439582E+03  0.00000000000E+00 0.  1.
         -3    1    1    2    0  502 -0.43253821481E+02 -0.10207359914E+02 -0.58676579781E+03  0.58844641621E+03  0.00000000000E+00 0. -1.
<mgrwt>
<rscale>  1 0.30000000E+03</rscale>
<asrwt>0</asrwt>
<pdfrwt beam="1">  1       21 0.74353806E-02 0.30000000E+03</pdfrwt>
<pdfrwt beam="2">0</pdfrwt>
<totfact> 0.14522790E+04</totfact>
</mgrwt>
</event>
<event>
 6    1  0.8397183E-002  0.3000000E+03  0.7818608E-02  0.1093470E+00
         21   -1    0    0  501  502  0.00000000000E+00  0.00000000000E+00  0.15856266076E+01  0.15856266076E+01  0.00000000000E+00 0. -1.
         13   -1    0    0    0    0 -0.00000000000E+00 -0.00000000000E+00 -0.10000000000E+04  0.10000000000E+04  0.00000000000E+00 0.  1.
    9000005    2    1    2  501    0  0.36833377993E+02 -0.11642986692E+02 -0.38383283882E+03  0.38579124573E+03  0.38704338049E+01 0.  0.
         13    1    3    3    0    0  0.25538931536E+02 -0.62357217175E+01 -0.26440987426E+03  0.26571357296E+03  0.00000000000E+00 0.  1.
          3    1    3    3  501    0  0.11294446456E+02 -0.54072649750E+01 -0.11942296455E+03  0.12007767277E+03  0.00000000000E+00 0.  1.
         -1    1    1    2    0  502 -0.36833377993E+02  0.11642986692E+02 -0.61458153458E+03  0.61579438087E+03  0.00000000000E+00 0. -1.
<mgrwt>
<rscale>  1 0.30000000E+03</rscale>
<asrwt>0</asrwt>
<pdfrwt beam="1">  1       21 0.57659271E-02 0.30000000E+03</pdfrwt>
<pdfrwt beam="2">0</pdfrwt>
<totfact> 0.22567342E+04</totfact>
</mgrwt>
</event>
<event>
 6    1  0.8397183E-002  0.3000000E+03  0.7818608E-02  0.1093470E+00
         21   -1    0    0  501  502  0.00000000000E+00  0.00000000000E+00  0.18315518041E+01  0.18315518041E+01  0.00000000000E+00 0. -1.
         13   -1    0    0    0    0 -0.00000000000E+00 -0.00000000000E+00 -0.10000000000E+04  0.10000000000E+04  0.00000000000E+00 0.  1.
    9000005    2    1    2  501    0  0.17222030970E+02 -0.25703030041E+02 -0.15496734930E+03  0.15806301880E+03  0.34343063324E+01 0.  0.
         13    1    3    3    0    0  0.41404455783E+01 -0.38224070482E+01 -0.28630387989E+02  0.29179671034E+02  0.00000000000E+00 0.  1.
          3    1    3    3  501    0  0.13081585392E+02 -0.21880622992E+02 -0.12633696131E+03  0.12888334777E+03  0.00000000000E+00 0.  1.
         -3    1    1    2    0  502 -0.17222030970E+02  0.25703030041E+02 -0.84320109890E+03  0.84376853300E+03  0.00000000000E+00 0. -1.
<mgrwt>
<rscale>  1 0.30000000E+03</rscale>
<asrwt>0</asrwt>
<pdfrwt beam="1">  1       21 0.66602024E-02 0.30000000E+03</pdfrwt>
<pdfrwt beam="2">0</pdfrwt>
<totfact> 0.17592018E+04</totfact>
</mgrwt>
</event>
<event>
 6    1  0.8397183E-002  0.3000000E+03  0.7818608E-02  0.1093470E+00
         21   -1    0    0  501  502  0.00000000000E+00  0.00000000000E+00  0.15715563886E+01  0.15715563886E+01  0.00000000000E+00 0. -1.
         13   -1    0    0    0    0 -0.00000000000E+00 -0.00000000000E+00 -0.10000000000E+04  0.10000000000E+04  0.00000000000E+00 0.  1.
    9000005    2    1    2  501    0 -0.12064899697E+02  0.33645903143E+02 -0.28591500716E+03  0.28816213276E+03  0.35234688367E+01 0.  0.
         13    1    3    3    0    0 -0.56857600027E+01  0.11044713276E+02 -0.10224066290E+03  0.10299255657E+03  0.00000000000E+00 0.  1.
          1    1    3    3  501    0 -0.63791396944E+01  0.22601189867E+02 -0.18367434427E+03  0.18516957619E+03  0.00000000000E+00 0.  1.
         -3    1    1    2    0  502  0.12064899697E+02 -0.33645903143E+02 -0.71251343645E+03  0.71340942363E+03  0.00000000000E+00 0. -1.
<mgrwt>
<rscale>  1 0.30000000E+03</rscale>
<asrwt>0</asrwt>
<pdfrwt beam="1">  1       21 0.57147626E-02 0.30000000E+03</pdfrwt>
<pdfrwt beam="2">0</pdfrwt>
<totfact> 0.22916098E+04</totfact>
</mgrwt>
</event>
<event>
 6    1  0.8397183E-002  0.3000000E+03  0.7818608E-02  0.1093470E+00
         21   -1    0    0  501  502  0.00000000000E+00  0.00000000000E+00  0.46526580252E+01  0.46526580252E+01  0.00000000000E+00 0. -1.
         13   -1    0    0    0    0 -0.00000000000E+00 -0.00000000000E+00 -0.10000000000E+04  0.10000000000E+04  0.00000000000E+00 0.  1.
    9000005    2    1    2  501    0  0.31319748120E+02  0.44550735048E+02 -0.79996936645E+03  0.80182699905E+03  0.31391946738E+01 0.  0.
         13    1    3    3    0    0  0.12999164333E+02  0.16382730923E+02 -0.29336785388E+03  0.29411234221E+03  0.00000000000E+00 0.  1.
          3    1    3    3  501    0  0.18320583787E+02  0.28168004125E+02 -0.50660151256E+03  0.50771465685E+03  0.00000000000E+00 0.  1.
         -1    1    1    2    0  502 -0.31319748120E+02 -0.44550735048E+02 -0.19537797553E+03  0.20282565897E+03  0.00000000000E+00 0. -1.
<mgrwt>
<rscale>  1 0.30000000E+03</rscale>
<asrwt>0</asrwt>
<pdfrwt beam="1">  1       21 0.16918792E-01 0.30000000E+03</pdfrwt>
<pdfrwt beam="2">0</pdfrwt>
<totfact> 0.32908969E+03</totfact>
</mgrwt>
</event>
<event>
 6    1  0.8397183E-002  0.3000000E+03  0.7818608E-02  0.1093470E+00
         21   -1    0    0  501  502  0.00000000000E+00  0.00000000000E+00  0.11471110580E+01  0.11471110580E+01  0.00000000000E+00 0. -1.
         13   -1    0    0    0    0 -0.00000000000E+00 -0.00000000000E+00 -0.10000000000E+04  0.10000000000E+04  0.00000000000E+00 0.  1.
    9000005    2    1    2  501    0  0.40822791626E+01  0.33272701819E+02 -0.43886250830E+03  0.44015427322E+03  0.34271499028E+01 0.  0.
         13    1    3    3    0    0  0.39557961350E+01  0.19168643538E+02 -0.26244936532E+03  0.26317818028E+03  0.00000000000E+00 0.  1.
          1    1    3    3  501    0  0.12648302755E+00  0.14104058280E+02 -0.17641314298E+03  0.17697609295E+03  0.00000000000E+00 0.  1.
         -3    1    1    2    0  502 -0.40822791626E+01 -0.33272701819E+02 -0.55999038064E+03  0.56099283784E+03  0.00000000000E+00 0. -1.
<mgrwt>
<rscale>  1 0.30000000E+03</rscale>
<asrwt>0</asrwt>
<pdfrwt beam="1">  1       21 0.41713217E-02 0.30000000E+03</pdfrwt>
<pdfrwt beam="2">0</pdfrwt>
<totfact> 0.39177024E+04</totfact>
</mgrwt>
</event>
<event>
 6    1  0.8397183E-002  0.3000000E+03  0.7818608E-02  0.1093470E+00
         21   -1    0    0  501  502  0.00000000000E+00  0.00000000000E+00  0.27117959355E+01  0.27117959355E+01  0.00000000000E+00 0. -1.
         13   -1    0    0    0    0 -0.00000000000E+00 -0.00000000000E+00 -0.10000000000E+04  0.10000000000E+04  0.00000000000E+00 0.  1.
    9000005    2    1    2  501    0 -0.53399455113E+01 -0.47768977475E+02 -0.30729887493E+03  0.31105027139E+03  0.30467305376E+01 0.  0.
         13    1    3    3    0    0 -0.43714341610E+01 -0.42812862716E+02 -0.26920784226E+03  0.27262595802E+03  0.00000000000E+00 0.  1.
          3    1    3    3  501    0 -0.96851135034E+00 -0.49561147591E+01 -0.38091032670E+02  0.38424313366E+02  0.00000000000E+00 0.  1.
         -1    1    1    2    0  502  0.53399455113E+01  0.47768977475E+02 -0.68998932913E+03  0.69166152455E+03  0.00000000000E+00 0. -1.
<mgrwt>
<rscale>  1 0.30000000E+03</rscale>
<asrwt>0</asrwt>
<pdfrwt beam="1">  1       21 0.98610969E-02 0.30000000E+03</pdfrwt>
<pdfrwt beam="2">0</pdfrwt>
<totfact> 0.88208429E+03</totfact>
</mgrwt>
</event>
<event>
 6    1  0.8397183E-002  0.3000000E+03  0.7818608E-02  0.1093470E+00
         21   -1    0    0  501  502  0.00000000000E+00  0.00000000000E+00  0.18420156000E+01  0.18420156000E+01  0.00000000000E+00 0. -1.
         13   -1    0    0    0    0 -0.00000000000E+00 -0.00000000000E+00 -0.10000000000E+04  0.10000000000E+04  0.00000000000E+00 0.  1.
    9000005    2    1    2  501    0 -0.10155420979E+02  0.41577998519E+02 -0.51045157408E+03  0.51226116916E+03  0.43397476731E+01 0.  0.
         13    1    3    3    0    0 -0.15711246628E+01  0.27588449554E+01 -0.30024991874E+02  0.30192379755E+02  0.00000000000E+00 0.  1.
          1    1    3    3  501    0 -0.85842963164E+01  0.38819153564E+02 -0.48042658220E+03  0.48206878940E+03  0.00000000000E+00 0.  1.
         -1    1    1    2    0  502  0.10155420979E+02 -0.41577998519E+02 -0.48770641032E+03  0.48958084644E+03  0.00000000000E+00 0. -1.
<mgrwt>
<rscale>  1 0.30000000E+03</rscale>
<asrwt>0</asrwt>
<pdfrwt beam="1">  1       21 0.66982527E-02 0.30000000E+03</pdfrwt>
<pdfrwt beam="2">0</pdfrwt>
<totfact> 0.17419060E+04</totfact>
</mgrwt>
</event>
<event>
 6    1  0.8397183E-002  0.3000000E+03  0.7818608E-02  0.1093470E+00
         21   -1    0    0  501  502  0.00000000000E+00  0.00000000000E+00  0.26065704936E+01  0.26065704936E+01  0.00000000000E+00 0. -1.
         13   -1    0    0    0    0 -0.00000000000E+00 -0.00000000000E+00 -0.10000000000E+04  0.10000000000E+04  0.00000000000E+00 0.  1.
    9000005    2    1    2  501    0 -0.18625593864E+02 -0.47349303624E+02 -0.52786164998E+03  0.53032597457E+03  0.43414840696E+01 0.  0.
         13    1    3    3    0    0 -0.15150076623E+01 -0.61098027579E+01 -0.54050228967E+02  0.54415550988E+02  0.00000000000E+00 0.  1.
          3    1    3    3  501    0 -0.17110586201E+02 -0.41239500866E+02 -0.47381142101E+03  0.47591042358E+03  0.00000000000E+00 0.  1.
         -1    1    1    2    0  502  0.18625593864E+02  0.47349303624E+02 -0.46953177953E+03  0.47228059592E+03  0.00000000000E+00 0. -1.
<mgrwt>
<rscale>  1 0.30000000E+03</rscale>
<asrwt>0</asrwt>
<pdfrwt beam="1">  1       21 0.94784581E-02 0.30000000E+03</pdfrwt>
<pdfrwt beam="2">0</pdfrwt>
<totfact> 0.94659214E+03</totfact>
</mgrwt>
</event>
<event>
 6    1  0.8397183E-002  0.3000000E+03  0.7818608E-02  0.1093470E+00
         21   -1    0    0  501  502  0.00000000000E+00  0.00000000000E+00  0.15353358544E+01  0.15353358544E+01  0.00000000000E+00 0. -1.
         13   -1    0    0    0    0 -0.00000000000E+00 -0.00000000000E+00 -0.10000000000E+04  0.10000000000E+04  0.00000000000E+00 0.  1.
    9000005    2    1    2  501    0 -0.15479143162E+02  0.33674730860E+02 -0.35919570883E+03  0.36119293635E+03  0.80739492449E+01 0.  0.
         13    1    3    3    0    0  0.94108119055E+00  0.13582119101E+01 -0.12975096247E+02  0.13079888991E+02  0.00000000000E+00 0.  1.
          1    1    3    3  501    0 -0.16420224353E+02  0.32316518949E+02 -0.34622061259E+03  0.34811304736E+03  0.00000000000E+00 0.  1.
         -3    1    1    2    0  502  0.15479143162E+02 -0.33674730860E+02 -0.63926895531E+03  0.64034239950E+03  0.00000000000E+00 0. -1.
<mgrwt>
<rscale>  1 0.30000000E+03</rscale>
<asrwt>0</asrwt>
<pdfrwt beam="1">  1       21 0.55830512E-02 0.30000000E+03</pdfrwt>
<pdfrwt beam="2">0</pdfrwt>
<totfact> 0.23852869E+04</totfact>
</mgrwt>
</event>
<event>
 6    1  0.8397183E-002  0.3000000E+03  0.7818608E-02  0.1093470E+00
         21   -1    0    0  501  502  0.00000000000E+00  0.00000000000E+00  0.44896568026E+01  0.44896568026E+01  0.00000000000E+00 0. -1.
         13   -1    0    0    0    0 -0.00000000000E+00 -0.00000000000E+00 -0.10000000000E+04  0.10000000000E+04  0.00000000000E+00 0.  1.
    9000005    2    1    2  501    0  0.51133819987E+01  0.31147996551E+02 -0.59968266995E+02  0.68415236305E+02  0.93865407743E+01 0.  0.
         13    1    3    3    0    0  0.49443481983E+01  0.28632994534E+02 -0.58900507915E+02  0.65677734337E+02  0.00000000000E+00 0.  1.
          3    1    3    3  501    0  0.16903380041E+00  0.25150020170E+01 -0.10677590808E+01  0.27375019682E+01  0.00000000000E+00 0.  1.
         -3    1    1    2    0  502 -0.51133819987E+01 -0.31147996551E+02 -0.93554207620E+03  0.93607442050E+03  0.00000000000E+00 0. -1.
<mgrwt>
<rscale>  1 0.30000000E+03</rscale>
<asrwt>0</asrwt>
<pdfrwt beam="1">  1       21 0.16326059E-01 0.30000000E+03</pdfrwt>
<pdfrwt beam="2">0</pdfrwt>
<totfact> 0.35177682E+03</totfact>
</mgrwt>
</event>
<event>
 6    1  0.8397183E-002  0.3000000E+03  0.7818608E-02  0.1093470E+00
         21   -1    0    0  501  502  0.00000000000E+00  0.00000000000E+00  0.24614519798E+01  0.24614519798E+01  0.00000000000E+00 0. -1.
         13   -1    0    0    0    0 -0.00000000000E+00 -0.00000000000E+00 -0.10000000000E+04  0.10000000000E+04  0.00000000000E+00 0.  1.
    9000005    2    1    2  501    0  0.46154718285E+01  0.45858079631E+02 -0.31521083818E+03  0.31857888190E+03  0.32195398269E+01 0.  0.
         13    1    3    3    0    0  0.10710073729E+01  0.12559175987E+02 -0.76729142554E+02  0.77757580179E+02  0.00000000000E+00 0.  1.
          1    1    3    3  501    0  0.35444644557E+01  0.33298903645E+02 -0.23848169562E+03  0.24082130172E+03  0.00000000000E+00 0.  1.
         -3    1    1    2    0  502 -0.46154718285E+01 -0.45858079631E+02 -0.68232770984E+03  0.68388257008E+03  0.00000000000E+00 0. -1.
<mgrwt>
<rscale>  1 0.30000000E+03</rscale>
<asrwt>0</asrwt>
<pdfrwt beam="1">  1       21 0.89507533E-02 0.30000000E+03</pdfrwt>
<pdfrwt beam="2">0</pdfrwt>
<totfact> 0.10479440E+04</totfact>
</mgrwt>
</event>
<event>
 6    1  0.8397183E-002  0.3000000E+03  0.7818608E-02  0.1093470E+00
         21   -1    0    0  501  502  0.00000000000E+00  0.00000000000E+00  0.15056359676E+01  0.15056359676E+01  0.00000000000E+00 0. -1.
         13   -1    0    0    0    0 -0.00000000000E+00 -0.00000000000E+00 -0.10000000000E+04  0.10000000000E+04  0.00000000000E+00 0.  1.
    9000005    2    1    2  501    0  0.30385820163E+02  0.22871403549E+02 -0.59296846986E+03  0.59420028366E+03  0.39964604458E+01 0.  0.
         13    1    3    3    0    0  0.23396353924E+02  0.17996913722E+02 -0.43290625888E+03  0.43391140485E+03  0.00000000000E+00 0.  1.
          1    1    3    3  501    0  0.69894662394E+01  0.48744898267E+01 -0.16006221097E+03  0.16028887881E+03  0.00000000000E+00 0.  1.
         -1    1    1    2    0  502 -0.30385820163E+02 -0.22871403549E+02 -0.40552589418E+03  0.40730535230E+03  0.00000000000E+00 0. -1.
<mgrwt>
<rscale>  1 0.30000000E+03</rscale>
<asrwt>0</asrwt>
<pdfrwt beam="1">  1       21 0.54750514E-02 0.30000000E+03</pdfrwt>
<pdfrwt beam="2">0</pdfrwt>
<totfact> 0.24665654E+04</totfact>
</mgrwt>
</event>
<event>
 6    1  0.8397183E-002  0.3000000E+03  0.7818608E-02  0.1093470E+00
         21   -1    0    0  501  502  0.00000000000E+00  0.00000000000E+00  0.14992686290E+01  0.14992686290E+01  0.00000000000E+00 0. -1.
         13   -1    0    0    0    0 -0.00000000000E+00 -0.00000000000E+00 -0.10000000000E+04  0.10000000000E+04  0.00000000000E+00 0.  1.
    9000005    2    1    2  501    0 -0.16760393947E+02  0.27560358577E+02 -0.77570093181E+03  0.77637655797E+03  0.28530657108E+01 0.  0.
         13    1    3    3    0    0 -0.66980710340E+01  0.11629236235E+02 -0.29030715229E+03  0.29061718112E+03  0.00000000000E+00 0.  1.
          3    1    3    3  501    0 -0.10062322913E+02  0.15931122343E+02 -0.48539377952E+03  0.48575937685E+03  0.00000000000E+00 0.  1.
         -3    1    1    2    0  502  0.16760393947E+02 -0.27560358577E+02 -0.22279979956E+03  0.22512271066E+03  0.00000000000E+00 0. -1.
<mgrwt>
<rscale>  1 0.30000000E+03</rscale>
<asrwt>0</asrwt>
<pdfrwt beam="1">  1       21 0.54518974E-02 0.30000000E+03</pdfrwt>
<pdfrwt beam="2">0</pdfrwt>
<totfact> 0.24845458E+04</totfact>
</mgrwt>
</event>
<event>
 6    1  0.8397183E-002  0.3000000E+03  0.7818608E-02  0.1093470E+00
         21   -1    0    0  501  502  0.00000000000E+00  0.00000000000E+00  0.10310831209E+01  0.10310831209E+01  0.00000000000E+00 0. -1.
         13   -1    0    0    0    0 -0.00000000000E+00 -0.00000000000E+00 -0.10000000000E+04  0.10000000000E+04  0.00000000000E+00 0.  1.
    9000005    2    1    2  501    0 -0.23519000518E+02  0.21389380004E+02 -0.43889531475E+03  0.44005596000E+03  0.30824757543E+01 0.  0.
         13    1    3    3    0    0 -0.77239681486E+01  0.54946323452E+01 -0.11921242185E+03  0.11958867920E+03  0.00000000000E+00 0.  1.
          3    1    3    3  501    0 -0.15795032369E+02  0.15894747659E+02 -0.31968289290E+03  0.32046728080E+03  0.00000000000E+00 0.  1.
         -1    1    1    2    0  502  0.23519000518E+02 -0.21389380004E+02 -0.56007360213E+03  0.56097512312E+03  0.00000000000E+00 0. -1.
<mgrwt>
<rscale>  1 0.30000000E+03</rscale>
<asrwt>0</asrwt>
<pdfrwt beam="1">  1       21 0.37494011E-02 0.30000000E+03</pdfrwt>
<pdfrwt beam="2">0</pdfrwt>
<totfact> 0.46879846E+04</totfact>
</mgrwt>
</event>
<event>
 6    1  0.8397183E-002  0.3000000E+03  0.7818608E-02  0.1093470E+00
         21   -1    0    0  501  502  0.00000000000E+00  0.00000000000E+00  0.11855723606E+01  0.11855723606E+01  0.00000000000E+00 0. -1.
         13   -1    0    0    0    0 -0.00000000000E+00 -0.00000000000E+00 -0.10000000000E+04  0.10000000000E+04  0.00000000000E+00 0.  1.
    9000005    2    1    2  501    0  0.54524022373E+01  0.31852901218E+02 -0.66977975119E+03  0.67056773510E+03  0.34403854470E+01 0.  0.
         13    1    3    3    0    0  0.37387701699E+01  0.18309678951E+02 -0.35369412162E+03  0.35418745661E+03  0.00000000000E+00 0.  1.
          3    1    3    3  501    0  0.17136320674E+01  0.13543222267E+02 -0.31608562957E+03  0.31638027850E+03  0.00000000000E+00 0.  1.
         -3    1    1    2    0  502 -0.54524022373E+01 -0.31852901218E+02 -0.32903467645E+03  0.33061783726E+03  0.00000000000E+00 0. -1.
<mgrwt>
<rscale>  1 0.30000000E+03</rscale>
<asrwt>0</asrwt>
<pdfrwt beam="1">  1       21 0.43111813E-02 0.30000000E+03</pdfrwt>
<pdfrwt beam="2">0</pdfrwt>
<totfact> 0.37053634E+04</totfact>
</mgrwt>
</event>
<event>
 6    1  0.8397183E-002  0.3000000E+03  0.7818608E-02  0.1093470E+00
         21   -1    0    0  501  502  0.00000000000E+00  0.00000000000E+00  0.12978759216E+01  0.12978759216E+01  0.00000000000E+00 0. -1.
         13   -1    0    0    0    0 -0.00000000000E+00 -0.00000000000E+00 -0.10000000000E+04  0.10000000000E+04  0.00000000000E+00 0.  1.
    9000005    2    1    2  501    0  0.32431135144E+02  0.25371141097E+01 -0.28754226951E+03  0.28939440337E+03  0.32169045444E+01 0.  0.
         13    1    3    3    0    0  0.46762351305E+01  0.14749551758E+01 -0.45809627446E+02  0.46071299466E+02  0.00000000000E+00 0.  1.
          3    1    3    3  501    0  0.27754900013E+02  0.10621589339E+01 -0.24173264206E+03  0.24332310391E+03  0.00000000000E+00 0.  1.
         -1    1    1    2    0  502 -0.32431135144E+02 -0.25371141097E+01 -0.71115985457E+03  0.71190347255E+03  0.00000000000E+00 0. -1.
<mgrwt>
<rscale>  1 0.30000000E+03</rscale>
<asrwt>0</asrwt>
<pdfrwt beam="1">  1       21 0.47195588E-02 0.30000000E+03</pdfrwt>
<pdfrwt beam="2">0</pdfrwt>
<totfact> 0.31779139E+04</totfact>
</mgrwt>
</event>
<event>
 6    1  0.8397183E-002  0.3000000E+03  0.7818608E-02  0.1093470E+00
         21   -1    0    0  501  502  0.00000000000E+00  0.00000000000E+00  0.10903179899E+01  0.10903179899E+01  0.00000000000E+00 0. -1.
         13   -1    0    0    0    0 -0.00000000000E+00 -0.00000000000E+00 -0.10000000000E+04  0.10000000000E+04  0.00000000000E+00 0.  1.
    9000005    2    1    2  501    0  0.11208428346E+02  0.28796625963E+02 -0.67332223629E+03  0.67403977244E+03  0.34505677548E+01 0.  0.
         13    1    3    3    0    0  0.60691776727E+01  0.20033013656E+02 -0.45014976139E+03  0.45063617723E+03  0.00000000000E+00 0.  1.
          1    1    3    3  501    0  0.51392506732E+01  0.87636123072E+01 -0.22317247491E+03  0.22340359521E+03  0.00000000000E+00 0.  1.
         -1    1    1    2    0  502 -0.11208428346E+02 -0.28796625963E+02 -0.32558744572E+03  0.32705054555E+03  0.00000000000E+00 0. -1.
<mgrwt>
<rscale>  1 0.30000000E+03</rscale>
<asrwt>0</asrwt>
<pdfrwt beam="1">  1       21 0.39648011E-02 0.30000000E+03</pdfrwt>
<pdfrwt beam="2">0</pdfrwt>
<totfact> 0.42677723E+04</totfact>
</mgrwt>
</event>
<event>
 6    1  0.8397183E-002  0.3000000E+03  0.7818608E-02  0.1093470E+00
         21   -1    0    0  501  502  0.00000000000E+00  0.00000000000E+00  0.10283520938E+01  0.10283520938E+01  0.00000000000E+00 0. -1.
         13   -1    0    0    0    0 -0.00000000000E+00 -0.00000000000E+00 -0.10000000000E+04  0.10000000000E+04  0.00000000000E+00 0.  1.
    9000005    2    1    2  501    0  0.28249251107E+02  0.11130361027E+02 -0.65773497202E+03  0.65844350991E+03  0.32645365689E+01 0.  0.
         13    1    3    3    0    0  0.72557632280E+01  0.17717479261E+01 -0.18324136733E+03  0.18339352194E+03  0.00000000000E+00 0.  1.
          3    1    3    3  501    0  0.20993487879E+02  0.93586131006E+01 -0.47449360470E+03  0.47504998797E+03  0.00000000000E+00 0.  1.
         -1    1    1    2    0  502 -0.28249251107E+02 -0.11130361027E+02 -0.34123667589E+03  0.34258484218E+03  0.00000000000E+00 0. -1.
<mgrwt>
<rscale>  1 0.30000000E+03</rscale>
<asrwt>0</asrwt>
<pdfrwt beam="1">  1       21 0.37394700E-02 0.30000000E+03</pdfrwt>
<pdfrwt beam="2">0</pdfrwt>
<totfact> 0.47089094E+04</totfact>
</mgrwt>
</event>
<event>
 6    1  0.8397183E-002  0.3000000E+03  0.7818608E-02  0.1093470E+00
         21   -1    0    0  501  502  0.00000000000E+00  0.00000000000E+00  0.14257967023E+01  0.14257967023E+01  0.00000000000E+00 0. -1.
         13   -1    0    0    0    0 -0.00000000000E+00 -0.00000000000E+00 -0.10000000000E+04  0.10000000000E+04  0.00000000000E+00 0.  1.
    9000005    2    1    2  501    0  0.99513417544E+00 -0.37656327365E+02 -0.51832169501E+03  0.51969821705E+03  0.31413377089E+01 0.  0.
         13    1    3    3    0    0  0.19411566696E+00 -0.15347617537E+02 -0.19048360090E+03  0.19110099230E+03  0.00000000000E+00 0.  1.
          3    1    3    3  501    0  0.80101850849E+00 -0.22308709828E+02 -0.32783809411E+03  0.32859722475E+03  0.00000000000E+00 0.  1.
         -3    1    1    2    0  502 -0.99513417544E+00  0.37656327365E+02 -0.48025250829E+03  0.48172757966E+03  0.00000000000E+00 0. -1.
<mgrwt>
<rscale>  1 0.30000000E+03</rscale>
<asrwt>0</asrwt>
<pdfrwt beam="1">  1       21 0.51847262E-02 0.30000000E+03</pdfrwt>
<pdfrwt beam="2">0</pdfrwt>
<totfact> 0.27075591E+04</totfact>
</mgrwt>
</event>
<event>
 6    1  0.8397183E-002  0.3000000E+03  0.7818608E-02  0.1093470E+00
         21   -1    0    0  501  502  0.00000000000E+00  0.00000000000E+00  0.24907691462E+01  0.24907691462E+01  0.00000000000E+00 0. -1.
         13   -1    0    0    0    0 -0.00000000000E+00 -0.00000000000E+00 -0.10000000000E+04  0.10000000000E+04  0.00000000000E+00 0.  1.
    9000005    2    1    2  501    0  0.16149927310E+02 -0.34421556375E+02 -0.17509252666E+03  0.17919562217E+03  0.28309747092E+01 0.  0.
         13    1    3    3    0    0  0.29045857934E+00 -0.99399385314E+00 -0.72410651615E+01  0.73147395469E+01  0.00000000000E+00 0.  1.
          3    1    3    3  501    0  0.15859468730E+02 -0.33427562522E+02 -0.16785146150E+03  0.17188088263E+03  0.00000000000E+00 0.  1.
         -1    1    1    2    0  502 -0.16149927310E+02  0.34421556375E+02 -0.82241670419E+03  0.82329514697E+03  0.00000000000E+00 0. -1.
<mgrwt>
<rscale>  1 0.30000000E+03</rscale>
<asrwt>0</asrwt>
<pdfrwt beam="1">  1       21 0.90573614E-02 0.30000000E+03</pdfrwt>
<pdfrwt beam="2">0</pdfrwt>
<totfact> 0.10261897E+04</totfact>
</mgrwt>
</event>
<event>
 6    1  0.8397183E-002  0.3000000E+03  0.7818608E-02  0.1093470E+00
         21   -1    0    0  501  502  0.00000000000E+00  0.00000000000E+00  0.41329097258E+01  0.41329097258E+01  0.00000000000E+00 0. -1.
         13   -1    0    0    0    0 -0.00000000000E+00 -0.00000000000E+00 -0.10000000000E+04  0.10000000000E+04  0.00000000000E+00 0.  1.
    9000005    2    1    2  501    0 -0.89007224639E+01  0.63469715211E+02 -0.53280268261E+03  0.53665427571E+03  0.33890175108E+01 0.  0.
         13    1    3    3    0    0 -0.92005648735E+00  0.26691350186E+01 -0.27356870163E+02  0.27502165929E+02  0.00000000000E+00 0.  1.
          1    1    3    3  501    0 -0.79806659766E+01  0.60800580192E+02 -0.50544581244E+03  0.50915210979E+03  0.00000000000E+00 0.  1.
         -1    1    1    2    0  502  0.89007224639E+01 -0.63469715211E+02 -0.46306440767E+03  0.46747863401E+03  0.00000000000E+00 0. -1.
<mgrwt>
<rscale>  1 0.30000000E+03</rscale>
<asrwt>0</asrwt>
<pdfrwt beam="1">  1       21 0.15028794E-01 0.30000000E+03</pdfrwt>
<pdfrwt beam="2">0</pdfrwt>
<totfact> 0.41034429E+03</totfact>
</mgrwt>
</event>
<event>
 6    1  0.8397183E-002  0.3000000E+03  0.7818608E-02  0.1093470E+00
         21   -1    0    0  501  502  0.00000000000E+00  0.00000000000E+00  0.18498912372E+01  0.18498912372E+01  0.00000000000E+00 0. -1.
         13   -1    0    0    0    0 -0.00000000000E+00 -0.00000000000E+00 -0.10000000000E+04  0.10000000000E+04  0.00000000000E+00 0.  1.
    9000005    2    1    2  501    0 -0.25472073737E+02 -0.24846225061E+02 -0.77970556725E+03  0.78052619355E+03  0.37690556215E+01 0.  0.
         13    1    3    3    0    0 -0.17960311226E+02 -0.15176994851E+02 -0.52609127911E+03  0.52661650934E+03  0.00000000000E+00 0.  1.
          3    1    3    3  501    0 -0.75117625106E+01 -0.96692302103E+01 -0.25361428814E+03  0.25390968421E+03  0.00000000000E+00 0.  1.
         -1    1    1    2    0  502  0.25472073737E+02  0.24846225061E+02 -0.21844454151E+03  0.22132369768E+03  0.00000000000E+00 0. -1.
<mgrwt>
<rscale>  1 0.30000000E+03</rscale>
<asrwt>0</asrwt>
<pdfrwt beam="1">  1       21 0.67268914E-02 0.30000000E+03</pdfrwt>
<pdfrwt beam="2">0</pdfrwt>
<totfact> 0.17290601E+04</totfact>
</mgrwt>
</event>
<event>
 6    1  0.8397183E-002  0.3000000E+03  0.7818608E-02  0.1093470E+00
         21   -1    0    0  501  502  0.00000000000E+00  0.00000000000E+00  0.10637241584E+01  0.10637241584E+01  0.00000000000E+00 0. -1.
         13   -1    0    0    0    0 -0.00000000000E+00 -0.00000000000E+00 -0.10000000000E+04  0.10000000000E+04  0.00000000000E+00 0.  1.
    9000005    2    1    2  501    0 -0.31317621159E+02 -0.83228752427E+01 -0.45497238554E+03  0.45613549256E+03  0.31068176950E+01 0.  0.
         13    1    3    3    0    0 -0.21214925540E+02 -0.58921877564E+01 -0.28833995539E+03  0.28917939210E+03  0.00000000000E+00 0.  1.
          3    1    3    3  501    0 -0.10102695619E+02 -0.24306874863E+01 -0.16663243016E+03  0.16695610046E+03  0.00000000000E+00 0.  1.
         -1    1    1    2    0  502  0.31317621159E+02  0.83228752427E+01 -0.54396389030E+03  0.54492823160E+03  0.00000000000E+00 0. -1.
<mgrwt>
<rscale>  1 0.30000000E+03</rscale>
<asrwt>0</asrwt>
<pdfrwt beam="1">  1       21 0.38680960E-02 0.30000000E+03</pdfrwt>
<pdfrwt beam="2">0</pdfrwt>
<totfact> 0.44487985E+04</totfact>
</mgrwt>
</event>
<event>
 6    1  0.8397183E-002  0.3000000E+03  0.7818608E-02  0.1093470E+00
         21   -1    0    0  501  502  0.00000000000E+00  0.00000000000E+00  0.15720067150E+01  0.15720067150E+01  0.00000000000E+00 0. -1.
         13   -1    0    0    0    0 -0.00000000000E+00 -0.00000000000E+00 -0.10000000000E+04  0.10000000000E+04  0.00000000000E+00 0.  1.
    9000005    2    1    2  501    0  0.35173094052E+02 -0.72978215947E+01 -0.70979825063E+03  0.71071545601E+03  0.35352600003E+01 0.  0.
         13    1    3    3    0    0  0.73621534065E+01 -0.35236641478E+00 -0.12933008324E+03  0.12953993938E+03  0.00000000000E+00 0.  1.
          1    1    3    3  501    0  0.27810940646E+02 -0.69454551799E+01 -0.58046816739E+03  0.58117551663E+03  0.00000000000E+00 0.  1.
         -1    1    1    2    0  502 -0.35173094052E+02  0.72978215947E+01 -0.28862974265E+03  0.29085655071E+03  0.00000000000E+00 0. -1.
<mgrwt>
<rscale>  1 0.30000000E+03</rscale>
<asrwt>0</asrwt>
<pdfrwt beam="1">  1       21 0.57164001E-02 0.30000000E+03</pdfrwt>
<pdfrwt beam="2">0</pdfrwt>
<totfact> 0.22904809E+04</totfact>
</mgrwt>
</event>
<event>
 6    1  0.8397183E-002  0.3000000E+03  0.7818608E-02  0.1093470E+00
         21   -1    0    0  501  502  0.00000000000E+00  0.00000000000E+00  0.14804009775E+01  0.14804009775E+01  0.00000000000E+00 0. -1.
         13   -1    0    0    0    0 -0.00000000000E+00 -0.00000000000E+00 -0.10000000000E+04  0.10000000000E+04  0.00000000000E+00 0.  1.
    9000005    2    1    2  501    0  0.23929496798E+02  0.25849296008E+02 -0.29994090022E+03  0.30201417210E+03  0.26850703325E+01 0.  0.
         13    1    3    3    0    0  0.63784193516E+01  0.83779491819E+01 -0.83630495711E+02  0.84290771018E+02  0.00000000000E+00 0.  1.
          3    1    3    3  501    0  0.17551077446E+02  0.17471346826E+02 -0.21631040451E+03  0.21772340108E+03  0.00000000000E+00 0.  1.
         -3    1    1    2    0  502 -0.23929496798E+02 -0.25849296008E+02 -0.69857869881E+03  0.69946622888E+03  0.00000000000E+00 0. -1.
<mgrwt>
<rscale>  1 0.30000000E+03</rscale>
<asrwt>0</asrwt>
<pdfrwt beam="1">  1       21 0.53832876E-02 0.30000000E+03</pdfrwt>
<pdfrwt beam="2">0</pdfrwt>
<totfact> 0.25390291E+04</totfact>
</mgrwt>
</event>
<event>
 6    1  0.8397183E-002  0.3000000E+03  0.7818608E-02  0.1093470E+00
         21   -1    0    0  501  502  0.00000000000E+00  0.00000000000E+00  0.15098982137E+01  0.15098982137E+01  0.00000000000E+00 0. -1.
         13   -1    0    0    0    0 -0.00000000000E+00 -0.00000000000E+00 -0.10000000000E+04  0.10000000000E+04  0.00000000000E+00 0.  1.
    9000005    2    1    2  501    0 -0.26774955963E+02 -0.22668149426E+02 -0.28711610763E+03  0.28927138281E+03  0.33956421880E+01 0.  0.
         13    1    3    3    0    0 -0.12257911220E+02 -0.10557651107E+02 -0.14634709291E+03  0.14723855469E+03  0.00000000000E+00 0.  1.
          3    1    3    3  501    0 -0.14517044744E+02 -0.12110498319E+02 -0.14076901472E+03  0.14203282812E+03  0.00000000000E+00 0.  1.
         -1    1    1    2    0  502  0.26774955963E+02  0.22668149426E+02 -0.71137399415E+03  0.71223851540E+03  0.00000000000E+00 0. -1.
<mgrwt>
<rscale>  1 0.30000000E+03</rscale>
<asrwt>0</asrwt>
<pdfrwt beam="1">  1       21 0.54905505E-02 0.30000000E+03</pdfrwt>
<pdfrwt beam="2">0</pdfrwt>
<totfact> 0.24546413E+04</totfact>
</mgrwt>
</event>
<event>
 6    1  0.8397183E-002  0.3000000E+03  0.7818608E-02  0.1093470E+00
         21   -1    0    0  501  502  0.00000000000E+00  0.00000000000E+00  0.10731295079E+01  0.10731295079E+01  0.00000000000E+00 0. -1.
         13   -1    0    0    0    0 -0.00000000000E+00 -0.00000000000E+00 -0.10000000000E+04  0.10000000000E+04  0.00000000000E+00 0.  1.
    9000005    2    1    2  501    0 -0.49825801162E+01 -0.30006968518E+02 -0.68343701203E+03  0.68412030170E+03  0.30320815701E+01 0.  0.
         13    1    3    3    0    0 -0.18736682475E+01 -0.96113546280E+01 -0.25225331146E+03  0.25244330436E+03  0.00000000000E+00 0.  1.
          3    1    3    3  501    0 -0.31089118687E+01 -0.20395613890E+02 -0.43118370056E+03  0.43167699734E+03  0.00000000000E+00 0.  1.
         -1    1    1    2    0  502  0.49825801162E+01  0.30006968518E+02 -0.31548985846E+03  0.31695282781E+03  0.00000000000E+00 0. -1.
<mgrwt>
<rscale>  1 0.30000000E+03</rscale>
<asrwt>0</asrwt>
<pdfrwt beam="1">  1       21 0.39022973E-02 0.30000000E+03</pdfrwt>
<pdfrwt beam="2">0</pdfrwt>
<totfact> 0.43834227E+04</totfact>
</mgrwt>
</event>
<event>
 6    1  0.8397183E-002  0.3000000E+03  0.7818608E-02  0.1093470E+00
         21   -1    0    0  501  502  0.00000000000E+00  0.00000000000E+00  0.11606002578E+01  0.11606002578E+01  0.00000000000E+00 0. -1.
         13   -1    0    0    0    0 -0.00000000000E+00 -0.00000000000E+00 -0.10000000000E+04  0.10000000000E+04  0.00000000000E+00 0.  1.
    9000005    2    1    2  501    0 -0.29237669646E+02 -0.16844616262E+02 -0.43999430427E+03  0.44129773923E+03  0.31818920991E+01 0.  0.
         13    1    3    3    0    0 -0.28261543889E+02 -0.15761465241E+02 -0.41411046534E+03  0.41537286401E+03  0.00000000000E+00 0.  1.
          1    1    3    3  501    0 -0.97612575646E+00 -0.10831510206E+01 -0.25883838924E+02  0.25924875218E+02  0.00000000000E+00 0.  1.
         -1    1    1    2    0  502  0.29237669646E+02  0.16844616262E+02 -0.55884509548E+03  0.55986286103E+03  0.00000000000E+00 0. -1.
<mgrwt>
<rscale>  1 0.30000000E+03</rscale>
<asrwt>0</asrwt>
<pdfrwt beam="1">  1       21 0.42203735E-02 0.30000000E+03</pdfrwt>
<pdfrwt beam="2">0</pdfrwt>
<totfact> 0.38411248E+04</totfact>
</mgrwt>
</event>
<event>
 6    1  0.8397183E-002  0.3000000E+03  0.7818608E-02  0.1093470E+00
         21   -1    0    0  501  502  0.00000000000E+00  0.00000000000E+00  0.12804812019E+01  0.12804812019E+01  0.00000000000E+00 0. -1.
         13   -1    0    0    0    0 -0.00000000000E+00 -0.00000000000E+00 -0.10000000000E+04  0.10000000000E+04  0.00000000000E+00 0.  1.
    9000005    2    1    2  501    0  0.14308541376E+02 -0.31032852635E+02 -0.64233824600E+03  0.64326458225E+03  0.48091795299E+01 0.  0.
         13    1    3    3    0    0  0.11082359680E+02 -0.27865082611E+02 -0.55803133050E+03  0.55883651218E+03  0.00000000000E+00 0.  1.
          1    1    3    3  501    0  0.32261816956E+01 -0.31677700241E+01 -0.84306915502E+02  0.84428070076E+02  0.00000000000E+00 0.  1.
         -1    1    1    2    0  502 -0.14308541376E+02  0.31032852635E+02 -0.35638127280E+03  0.35801589895E+03  0.00000000000E+00 0. -1.
<mgrwt>
<rscale>  1 0.30000000E+03</rscale>
<asrwt>0</asrwt>
<pdfrwt beam="1">  1       21 0.46563051E-02 0.30000000E+03</pdfrwt>
<pdfrwt beam="2">0</pdfrwt>
<totfact> 0.32516551E+04</totfact>
</mgrwt>
</event>
<event>
 6    1  0.8397183E-002  0.3000000E+03  0.7818608E-02  0.1093470E+00
         21   -1    0    0  501  502  0.00000000000E+00  0.00000000000E+00  0.16484580828E+01  0.16484580828E+01  0.00000000000E+00 0. -1.
         13   -1    0    0    0    0 -0.00000000000E+00 -0.00000000000E+00 -0.10000000000E+04  0.10000000000E+04  0.00000000000E+00 0.  1.
    9000005    2    1    2  501    0 -0.32902261845E+02  0.85176441736E+01 -0.22785640521E+03  0.23040409681E+03  0.35209852923E+01 0.  0.
         13    1    3    3    0    0 -0.44236600617E+00  0.50869653968E+00 -0.68570182728E+01  0.68900768825E+01  0.00000000000E+00 0.  1.
          3    1    3    3  501    0 -0.32459895839E+02  0.80089476339E+01 -0.22099938693E+03  0.22351401993E+03  0.00000000000E+00 0.  1.
         -3    1    1    2    0  502  0.32902261845E+02 -0.85176441736E+01 -0.77049513671E+03  0.77124436127E+03  0.00000000000E+00 0. -1.
<mgrwt>
<rscale>  1 0.30000000E+03</rscale>
<asrwt>0</asrwt>
<pdfrwt beam="1">  1       21 0.59944057E-02 0.30000000E+03</pdfrwt>
<pdfrwt beam="2">0</pdfrwt>
<totfact> 0.21105592E+04</totfact>
</mgrwt>
</event>
<event>
 6    1  0.8397183E-002  0.3000000E+03  0.7818608E-02  0.1093470E+00
         21   -1    0    0  501  502  0.00000000000E+00  0.00000000000E+00  0.12216824251E+01  0.12216824251E+01  0.00000000000E+00 0. -1.
         13   -1    0    0    0    0 -0.00000000000E+00 -0.00000000000E+00 -0.10000000000E+04  0.10000000000E+04  0.00000000000E+00 0.  1.
    9000005    2    1    2  501    0  0.29357293342E+02 -0.98466139153E+01 -0.72701896565E+03  0.72770394655E+03  0.61360358484E+01 0.  0.
         13    1    3    3    0    0  0.86965160744E+01 -0.10069222893E+00 -0.21381831901E+03  0.21399512395E+03  0.00000000000E+00 0.  1.
          3    1    3    3  501    0  0.20660777268E+02 -0.97459216864E+01 -0.51320064664E+03  0.51370882260E+03  0.00000000000E+00 0.  1.
         -3    1    1    2    0  502 -0.29357293342E+02  0.98466139153E+01 -0.27175935192E+03  0.27351773587E+03  0.00000000000E+00 0. -1.
<mgrwt>
<rscale>  1 0.30000000E+03</rscale>
<asrwt>0</asrwt>
<pdfrwt beam="1">  1       21 0.44424909E-02 0.30000000E+03</pdfrwt>
<pdfrwt beam="2">0</pdfrwt>
<totfact> 0.35218144E+04</totfact>
</mgrwt>
</event>
<event>
 6    1  0.8397183E-002  0.3000000E+03  0.7818608E-02  0.1093470E+00
         21   -1    0    0  501  502  0.00000000000E+00  0.00000000000E+00  0.23933730171E+01  0.23933730171E+01  0.00000000000E+00 0. -1.
         13   -1    0    0    0    0 -0.00000000000E+00 -0.00000000000E+00 -0.10000000000E+04  0.10000000000E+04  0.00000000000E+00 0.  1.
    9000005    2    1    2  501    0 -0.42250118082E+02 -0.21974633279E+02 -0.38650375940E+03  0.38943768803E+03  0.29325492077E+01 0.  0.
         13    1    3    3    0    0 -0.96191045335E+01 -0.48273859418E+01 -0.77800608949E+02  0.78541489545E+02  0.00000000000E+00 0.  1.
          1    1    3    3  501    0 -0.32631013548E+02 -0.17147247337E+02 -0.30870315045E+03  0.31089619848E+03  0.00000000000E+00 0.  1.
         -3    1    1    2    0  502  0.42250118082E+02  0.21974633279E+02 -0.61110286759E+03  0.61295568499E+03  0.00000000000E+00 0. -1.
<mgrwt>
<rscale>  1 0.30000000E+03</rscale>
<asrwt>0</asrwt>
<pdfrwt beam="1">  1       21 0.87031930E-02 0.30000000E+03</pdfrwt>
<pdfrwt beam="2">0</pdfrwt>
<totfact> 0.11012396E+04</totfact>
</mgrwt>
</event>
