<event>
 6    1  0.5828552E-003  0.6518797E+03  0.7818608E-02  0.9803258E-01
          1   -1    0    0  502    0  0.00000000000E+00  0.00000000000E+00  0.10698895449E+03  0.10698895449E+03  0.00000000000E+00 0.  1.
         13   -1    0    0    0    0 -0.00000000000E+00 -0.00000000000E+00 -0.10000000000E+04  0.10000000000E+04  0.00000000000E+00 0.  1.
    9000005    2    1    2  501    0 -0.57583101562E-01 -0.11046525741E+00 -0.89375751209E+03  0.11062321647E+04  0.65187966402E+03 0.  0.
         13    1    3    3    0    0  0.11194251913E+02 -0.26911716784E+02 -0.99778977179E+03  0.99821539783E+03  0.00000000000E+00 0.  1.
          3    1    3    3  501    0 -0.11251835015E+02  0.26801251527E+02  0.10403225970E+03  0.10801676691E+03  0.00000000000E+00 0.  1.
         21    1    1    2  502  501  0.57583101562E-01  0.11046525741E+00  0.74646657645E+00  0.75678975709E+00  0.00000000000E+00 0. -1.
<mgrwt>
<rscale>  1 0.65187968E+03</rscale>
<asrwt>0</asrwt>
<pdfrwt beam="1">  1        1 0.38905156E+00 0.65187968E+03</pdfrwt>
<pdfrwt beam="2">0</pdfrwt>
<totfact> 0.14959671E+00</totfact>
</mgrwt>
</event>
<event>
 6    1  0.5828552E-003  0.6559384E+03  0.7818608E-02  0.9795700E-01
          1   -1    0    0  502    0  0.00000000000E+00  0.00000000000E+00  0.10756385971E+03  0.10756385971E+03  0.00000000000E+00 0.  1.
         13   -1    0    0    0    0 -0.00000000000E+00 -0.00000000000E+00 -0.10000000000E+04  0.10000000000E+04  0.00000000000E+00 0.  1.
    9000005    2    1    2  501    0  0.15067830077E-05  0.20451506941E-05 -0.89243619342E+03  0.11075638065E+04  0.65593843171E+03 0.  0.
         13    1    3    3    0    0 -0.28893865692E+03  0.12255182150E+03 -0.28550427139E+03  0.42428432142E+03  0.00000000000E+00 0.  1.
          1    1    3    3  501    0  0.28893865843E+03 -0.12255181945E+03 -0.60693192203E+03  0.68327948510E+03  0.00000000000E+00 0.  1.
         21    1    1    2  502  501 -0.15067830113E-05 -0.20451506960E-05  0.53128882848E-04  0.53189578200E-04  0.00000000000E+00 0.  1.
<mgrwt>
<rscale>  1 0.65593843E+03</rscale>
<asrwt>0</asrwt>
<pdfrwt beam="1">  1        1 0.39114213E+00 0.65593843E+03</pdfrwt>
<pdfrwt beam="2">0</pdfrwt>
<totfact> 0.14632664E+00</totfact>
</mgrwt>
</event>
<event>
 6    1  0.5828552E-003  0.6510300E+03  0.7818608E-02  0.9804848E-01
          1   -1    0    0  502    0  0.00000000000E+00  0.00000000000E+00  0.10596106258E+03  0.10596106258E+03  0.00000000000E+00 0.  1.
         13   -1    0    0    0    0 -0.00000000000E+00 -0.00000000000E+00 -0.10000000000E+04  0.10000000000E+04  0.00000000000E+00 0.  1.
    9000005    2    1    2  501    0 -0.14886670343E-03  0.30978138795E-03 -0.89403994311E+03  0.11059599998E+04  0.65103003097E+03 0.  0.
         13    1    3    3    0    0 -0.12892840943E+03  0.28528585906E+03 -0.29555585722E+03  0.43053898880E+03  0.00000000000E+00 0.  1.
          3    1    3    3  501    0  0.12892826056E+03 -0.28528554928E+03 -0.59848408590E+03  0.67542101098E+03  0.00000000000E+00 0.  1.
         21    1    1    2  502  501  0.14886670342E-03 -0.30978138795E-03  0.10056982106E-02  0.10628051065E-02  0.00000000000E+00 0.  1.
<mgrwt>
<rscale>  1 0.65103003E+03</rscale>
<asrwt>0</asrwt>
<pdfrwt beam="1">  1        1 0.38531377E+00 0.65103003E+03</pdfrwt>
<pdfrwt beam="2">0</pdfrwt>
<totfact> 0.15543244E+00</totfact>
</mgrwt>
</event>
<event>
 6    1  0.5828552E-003  0.6951367E+03  0.7818608E-02  0.9725585E-01
          1   -1    0    0  502    0  0.00000000000E+00  0.00000000000E+00  0.12086131985E+03  0.12086131985E+03  0.00000000000E+00 0.  1.
         13   -1    0    0    0    0 -0.00000000000E+00 -0.00000000000E+00 -0.10000000000E+04  0.10000000000E+04  0.00000000000E+00 0.  1.
    9000005    2    1    2  501    0 -0.19648997453E-01  0.36367089008E-01 -0.87918780079E+03  0.11207971211E+04  0.69513667418E+03 0.  0.
         13    1    3    3    0    0  0.30425487269E+02 -0.33893804662E+03 -0.32571909437E+03  0.47106012160E+03  0.00000000000E+00 0.  1.
          1    1    3    3  501    0 -0.30445136267E+02  0.33897441371E+03 -0.55346870642E+03  0.64973699946E+03  0.00000000000E+00 0.  1.
         21    1    1    2  502  501  0.19648997453E-01 -0.36367089008E-01  0.49120643313E-01  0.64198799547E-01  0.00000000000E+00 0. -1.
<mgrwt>
<rscale>  1 0.69513668E+03</rscale>
<asrwt>0</asrwt>
<pdfrwt beam="1">  1        1 0.43949664E+00 0.69513668E+03</pdfrwt>
<pdfrwt beam="2">0</pdfrwt>
<totfact> 0.87975382E-01</totfact>
</mgrwt>
</event>
<event>
 6    1  0.5828552E-003  0.5769682E+03  0.7818608E-02  0.9954376E-01
          1   -1    0    0  502    0  0.00000000000E+00  0.00000000000E+00  0.83330018608E+02  0.83330018608E+02  0.00000000000E+00 0.  1.
         13   -1    0    0    0    0 -0.00000000000E+00 -0.00000000000E+00 -0.10000000000E+04  0.10000000000E+04  0.00000000000E+00 0.  1.
    9000005    2    1    2  501    0  0.91366180917E-01 -0.20080990150E+00 -0.91664024781E+03  0.10831074058E+04  0.57696816188E+03 0.  0.
         13    1    3    3    0    0 -0.28679311350E+03  0.17819745335E+02 -0.50518557437E+03  0.58118869382E+03  0.00000000000E+00 0.  1.
          1    1    3    3  501    0  0.28688447968E+03 -0.18020555236E+02 -0.41145467345E+03  0.50191871194E+03  0.00000000000E+00 0.  1.
         21    1    1    2  502  501 -0.91366180916E-01  0.20080990150E+00 -0.29733578268E-01  0.22261285056E+00  0.00000000000E+00 0.  1.
<mgrwt>
<rscale>  1 0.57696820E+03</rscale>
<asrwt>0</asrwt>
<pdfrwt beam="1">  1        1 0.30301889E+00 0.57696820E+03</pdfrwt>
<pdfrwt beam="2">0</pdfrwt>
<totfact> 0.35954711E+00</totfact>
</mgrwt>
</event>
<event>
 6    1  0.5828552E-003  0.6463124E+03  0.7818608E-02  0.9813723E-01
          1   -1    0    0  502    0  0.00000000000E+00  0.00000000000E+00  0.10442999143E+03  0.10442999143E+03  0.00000000000E+00 0.  1.
         13   -1    0    0    0    0 -0.00000000000E+00 -0.00000000000E+00 -0.10000000000E+04  0.10000000000E+04  0.00000000000E+00 0.  1.
    9000005    2    1    2  501    0 -0.34964691054E-05  0.22660060040E-04 -0.89557005265E+03  0.11044299417E+04  0.64631244534E+03 0.  0.
         13    1    3    3    0    0 -0.88337706818E+02  0.17100774064E+03 -0.89136305836E+03  0.91190750606E+03  0.00000000000E+00 0.  1.
          3    1    3    3  501    0  0.88337703322E+02 -0.17100771798E+03 -0.42069942914E+01  0.19252243567E+03  0.00000000000E+00 0.  1.
         21    1    1    2  502  501  0.34964691116E-05 -0.22660060036E-04  0.44079332613E-04  0.49685925379E-04  0.00000000000E+00 0.  1.
<mgrwt>
<rscale>  1 0.64631245E+03</rscale>
<asrwt>0</asrwt>
<pdfrwt beam="1">  1        1 0.37974622E+00 0.64631245E+03</pdfrwt>
<pdfrwt beam="2">0</pdfrwt>
<totfact> 0.16463239E+00</totfact>
</mgrwt>
</event>
<event>
 6    1  0.5828552E-003  0.6485329E+03  0.7818608E-02  0.9809536E-01
          1   -1    0    0  502    0  0.00000000000E+00  0.00000000000E+00  0.10528919057E+03  0.10528919057E+03  0.00000000000E+00 0.  1.
         13   -1    0    0    0    0 -0.00000000000E+00 -0.00000000000E+00 -0.10000000000E+04  0.10000000000E+04  0.00000000000E+00 0.  1.
    9000005    2    1    2  501    0  0.72060825325E-02 -0.10407401821E-01 -0.89485095071E+03  0.11051484787E+04  0.64853291044E+03 0.  0.
         13    1    3    3    0    0 -0.27553531881E+03  0.16635310386E+03 -0.51454924213E+03  0.60692173272E+03  0.00000000000E+00 0.  1.
          1    1    3    3  501    0  0.27554252489E+03 -0.16636351126E+03 -0.38030170858E+03  0.49822674602E+03  0.00000000000E+00 0.  1.
         21    1    1    2  502  501 -0.72060825325E-02  0.10407401821E-01  0.14014127618E+00  0.14071182938E+00  0.00000000000E+00 0.  1.
<mgrwt>
<rscale>  1 0.64853291E+03</rscale>
<asrwt>0</asrwt>
<pdfrwt beam="1">  1        1 0.38287059E+00 0.64853291E+03</pdfrwt>
<pdfrwt beam="2">0</pdfrwt>
<totfact> 0.15942026E+00</totfact>
</mgrwt>
</event>
<event>
 6    1  0.5828552E-003  0.6618911E+03  0.7818608E-02  0.9784719E-01
          1   -1    0    0  502    0  0.00000000000E+00  0.00000000000E+00  0.10954818113E+03  0.10954818113E+03  0.00000000000E+00 0.  1.
         13   -1    0    0    0    0 -0.00000000000E+00 -0.00000000000E+00 -0.10000000000E+04  0.10000000000E+04  0.00000000000E+00 0.  1.
    9000005    2    1    2  501    0  0.52828269614E-02  0.15686963952E-01 -0.89047172298E+03  0.11095222936E+04  0.66189110159E+03 0.  0.
         13    1    3    3    0    0  0.23067657052E+03  0.42671714078E+02 -0.83655334229E+03  0.86882337092E+03  0.00000000000E+00 0.  1.
          1    1    3    3  501    0 -0.23067128769E+03 -0.42656027114E+02 -0.53918380692E+02  0.24069892271E+03  0.00000000000E+00 0.  1.
         21    1    1    2  502  501 -0.52828269614E-02 -0.15686963952E-01  0.19904105414E-01  0.25887497196E-01  0.00000000000E+00 0.  1.
<mgrwt>
<rscale>  1 0.66189110E+03</rscale>
<asrwt>0</asrwt>
<pdfrwt beam="1">  1        1 0.39835786E+00 0.66189110E+03</pdfrwt>
<pdfrwt beam="2">0</pdfrwt>
<totfact> 0.13575603E+00</totfact>
</mgrwt>
</event>
<event>
 6    1  0.5828552E-003  0.6522363E+03  0.7818608E-02  0.9802592E-01
          1   -1    0    0  502    0  0.00000000000E+00  0.00000000000E+00  0.10710182987E+03  0.10710182987E+03  0.00000000000E+00 0.  1.
         13   -1    0    0    0    0 -0.00000000000E+00 -0.00000000000E+00 -0.10000000000E+04  0.10000000000E+04  0.00000000000E+00 0.  1.
    9000005    2    1    2  501    0  0.26729645277E-01  0.13043082610E+00 -0.89364040454E+03  0.11063477486E+04  0.65223626888E+03 0.  0.
         13    1    3    3    0    0  0.12917173621E+03 -0.10293527358E+03 -0.92374691716E+03  0.93839723728E+03  0.00000000000E+00 0.  1.
          1    1    3    3  501    0 -0.12914500656E+03  0.10306570440E+03  0.30106512616E+02  0.16795051130E+03  0.00000000000E+00 0.  1.
         21    1    1    2  502  501 -0.26729645277E-01 -0.13043082610E+00  0.74223440837E+00  0.75408128959E+00  0.00000000000E+00 0.  1.
<mgrwt>
<rscale>  1 0.65223628E+03</rscale>
<asrwt>0</asrwt>
<pdfrwt beam="1">  1        1 0.38946202E+00 0.65223628E+03</pdfrwt>
<pdfrwt beam="2">0</pdfrwt>
<totfact> 0.14896143E+00</totfact>
</mgrwt>
</event>
<event>
 6    1  0.5828552E-003  0.5790620E+03  0.7818608E-02  0.9949824E-01
          1   -1    0    0  502    0  0.00000000000E+00  0.00000000000E+00  0.83846443120E+02  0.83846443120E+02  0.00000000000E+00 0.  1.
         13   -1    0    0    0    0 -0.00000000000E+00 -0.00000000000E+00 -0.10000000000E+04  0.10000000000E+04  0.00000000000E+00 0.  1.
    9000005    2    1    2  501    0  0.37541810150E-03  0.56194498248E-03 -0.91617178078E+03  0.10838282067E+04  0.57906204306E+03 0.  0.
         13    1    3    3    0    0  0.25194674544E+03 -0.12806348877E+03 -0.57573237260E+03  0.64136197623E+03  0.00000000000E+00 0.  1.
          1    1    3    3  501    0 -0.25194637002E+03  0.12806405071E+03 -0.34043940818E+03  0.44246623046E+03  0.00000000000E+00 0.  1.
         21    1    1    2  502  501 -0.37541810149E-03 -0.56194498249E-03  0.18223904680E-01  0.18236431194E-01  0.00000000000E+00 0.  1.
<mgrwt>
<rscale>  1 0.57906204E+03</rscale>
<asrwt>0</asrwt>
<pdfrwt beam="1">  1        1 0.30489680E+00 0.57906204E+03</pdfrwt>
<pdfrwt beam="2">0</pdfrwt>
<totfact> 0.35277079E+00</totfact>
</mgrwt>
</event>
<event>
 6    1  0.5828552E-003  0.6278732E+03  0.7818608E-02  0.9849208E-01
          1   -1    0    0  502    0  0.00000000000E+00  0.00000000000E+00  0.98556210798E+02  0.98556210798E+02  0.00000000000E+00 0.  1.
         13   -1    0    0    0    0 -0.00000000000E+00 -0.00000000000E+00 -0.10000000000E+04  0.10000000000E+04  0.00000000000E+00 0.  1.
    9000005    2    1    2  501    0  0.34321257480E-05  0.43494918600E-06 -0.90144381481E+03  0.10985561850E+04  0.62787318804E+03 0.  0.
         13    1    3    3    0    0  0.83050631351E+01 -0.10865673138E+03  0.64402474063E+02  0.12658174439E+03  0.00000000000E+00 0.  1.
          1    1    3    3  501    0 -0.83050597029E+01  0.10865673182E+03 -0.96584628887E+03  0.97197444056E+03  0.00000000000E+00 0.  1.
         21    1    1    2  502  501 -0.34321257496E-05 -0.43494918130E-06  0.25605212281E-04  0.25837870731E-04  0.00000000000E+00 0.  1.
<mgrwt>
<rscale>  1 0.62787319E+03</rscale>
<asrwt>0</asrwt>
<pdfrwt beam="1">  1        1 0.35838698E+00 0.62787319E+03</pdfrwt>
<pdfrwt beam="2">0</pdfrwt>
<totfact> 0.20499749E+00</totfact>
</mgrwt>
</event>
<event>
 6    1  0.5828552E-003  0.6349616E+03  0.7818608E-02  0.9835414E-01
          1   -1    0    0  502    0  0.00000000000E+00  0.00000000000E+00  0.10086892033E+03  0.10086892033E+03  0.00000000000E+00 0.  1.
         13   -1    0    0    0    0 -0.00000000000E+00 -0.00000000000E+00 -0.10000000000E+04  0.10000000000E+04  0.00000000000E+00 0.  1.
    9000005    2    1    2  501    0  0.36367139141E-02  0.13021347698E-02 -0.89920587736E+03  0.11007940230E+04  0.63496162963E+03 0.  0.
         13    1    3    3    0    0 -0.17616326194E+03 -0.22646070889E+03 -0.68524300147E+03  0.74288351617E+03  0.00000000000E+00 0.  1.
          1    1    3    3  501    0  0.17616689865E+03  0.22646201102E+03 -0.21396287588E+03  0.35791050679E+03  0.00000000000E+00 0.  1.
         21    1    1    2  502  501 -0.36367139141E-02 -0.13021347698E-02  0.74797687256E-01  0.74897364853E-01  0.00000000000E+00 0. -1.
<mgrwt>
<rscale>  1 0.63496163E+03</rscale>
<asrwt>0</asrwt>
<pdfrwt beam="1">  1        1 0.36679685E+00 0.63496163E+03</pdfrwt>
<pdfrwt beam="2">0</pdfrwt>
<totfact> 0.18809304E+00</totfact>
</mgrwt>
</event>
<event>
 6    1  0.5828552E-003  0.6467879E+03  0.7818608E-02  0.9812825E-01
          1   -1    0    0  502    0  0.00000000000E+00  0.00000000000E+00  0.10458366715E+03  0.10458366715E+03  0.00000000000E+00 0.  1.
         13   -1    0    0    0    0 -0.00000000000E+00 -0.00000000000E+00 -0.10000000000E+04  0.10000000000E+04  0.00000000000E+00 0.  1.
    9000005    2    1    2  501    0 -0.50660890070E-05 -0.33239734449E-05 -0.89541634147E+03  0.11045836566E+04  0.64678793269E+03 0.  0.
         13    1    3    3    0    0  0.30424116277E+01  0.11807101297E+03  0.66431847416E+02  0.13551092474E+03  0.00000000000E+00 0.  1.
          1    1    3    3  501    0 -0.30424166937E+01 -0.11807101629E+03 -0.96184818889E+03  0.96907273187E+03  0.00000000000E+00 0.  1.
         21    1    1    2  502  501  0.50660890070E-05  0.33239734336E-05  0.86277219351E-05  0.10542847955E-04  0.00000000000E+00 0.  1.
<mgrwt>
<rscale>  1 0.64678793E+03</rscale>
<asrwt>0</asrwt>
<pdfrwt beam="1">  1        1 0.38030505E+00 0.64678793E+03</pdfrwt>
<pdfrwt beam="2">0</pdfrwt>
<totfact> 0.16368603E+00</totfact>
</mgrwt>
</event>
<event>
 6    1  0.5828552E-003  0.6530557E+03  0.7818608E-02  0.9801062E-01
          1   -1    0    0  502    0  0.00000000000E+00  0.00000000000E+00  0.10662389911E+03  0.10662389911E+03  0.00000000000E+00 0.  1.
         13   -1    0    0    0    0 -0.00000000000E+00 -0.00000000000E+00 -0.10000000000E+04  0.10000000000E+04  0.00000000000E+00 0.  1.
    9000005    2    1    2  501    0  0.89361181449E-03  0.99903378454E-03 -0.89337941731E+03  0.11066203221E+04  0.65305570508E+03 0.  0.
         13    1    3    3    0    0 -0.28391263767E+03 -0.32626469420E+02 -0.17903283933E+03  0.33722934316E+03  0.00000000000E+00 0.  1.
          3    1    3    3  501    0  0.28391353128E+03  0.32627468454E+02 -0.71434657798E+03  0.76939097890E+03  0.00000000000E+00 0.  1.
         21    1    1    2  502  501 -0.89361181451E-03 -0.99903378454E-03  0.33164230299E-02  0.35770479855E-02  0.00000000000E+00 0.  1.
<mgrwt>
<rscale>  1 0.65305571E+03</rscale>
<asrwt>0</asrwt>
<pdfrwt beam="1">  1        1 0.38772409E+00 0.65305571E+03</pdfrwt>
<pdfrwt beam="2">0</pdfrwt>
<totfact> 0.15160350E+00</totfact>
</mgrwt>
</event>
<event>
 6    1  0.5828552E-003  0.6694122E+03  0.7818608E-02  0.9771020E-01
          1   -1    0    0  502    0  0.00000000000E+00  0.00000000000E+00  0.11209231508E+03  0.11209231508E+03  0.00000000000E+00 0.  1.
         13   -1    0    0    0    0 -0.00000000000E+00 -0.00000000000E+00 -0.10000000000E+04  0.10000000000E+04  0.00000000000E+00 0.  1.
    9000005    2    1    2  501    0 -0.38906500641E-01 -0.22088106846E-01 -0.88796301354E+03  0.11120211613E+04  0.66941224058E+03 0.  0.
         13    1    3    3    0    0 -0.87071737912E+02 -0.30839906126E+03 -0.28339873113E+03  0.42779236709E+03  0.00000000000E+00 0.  1.
          1    1    3    3  501    0  0.87032831411E+02  0.30837697315E+03 -0.60456428240E+03  0.68422879424E+03  0.00000000000E+00 0.  1.
         21    1    1    2  502  501  0.38906500641E-01  0.22088106846E-01  0.55328619039E-01  0.71153751418E-01  0.00000000000E+00 0. -1.
<mgrwt>
<rscale>  1 0.66941224E+03</rscale>
<asrwt>0</asrwt>
<pdfrwt beam="1">  1        1 0.40760928E+00 0.66941224E+03</pdfrwt>
<pdfrwt beam="2">0</pdfrwt>
<totfact> 0.12325920E+00</totfact>
</mgrwt>
</event>
<event>
 6    1  0.5828552E-003  0.6542090E+03  0.7818608E-02  0.9798913E-01
          1   -1    0    0  502    0  0.00000000000E+00  0.00000000000E+00  0.10765935968E+03  0.10765935968E+03  0.00000000000E+00 0.  1.
         13   -1    0    0    0    0 -0.00000000000E+00 -0.00000000000E+00 -0.10000000000E+04  0.10000000000E+04  0.00000000000E+00 0.  1.
    9000005    2    1    2  501    0 -0.67423657575E+00  0.66816952692E+00 -0.89260256851E+03  0.11066746507E+04  0.65420832772E+03 0.  0.
         13    1    3    3    0    0  0.66584484370E+02  0.28446976451E+03 -0.19692058782E+03  0.35232691976E+03  0.00000000000E+00 0.  1.
          1    1    3    3  501    0 -0.67258720945E+02 -0.28380159499E+03 -0.69568198068E+03  0.75434773089E+03  0.00000000000E+00 0.  1.
         21    1    1    2  502  501  0.67423657575E+00 -0.66816952692E+00  0.26192818374E+00  0.98470901805E+00  0.00000000000E+00 0.  1.
<mgrwt>
<rscale>  1 0.65420902E+03</rscale>
<asrwt>0</asrwt>
<pdfrwt beam="1">  1        1 0.39148941E+00 0.65420902E+03</pdfrwt>
<pdfrwt beam="2">0</pdfrwt>
<totfact> 0.14585518E+00</totfact>
</mgrwt>
</event>
<event>
 6    1  0.5828552E-003  0.6553880E+03  0.7818608E-02  0.9796721E-01
          1   -1    0    0  502    0  0.00000000000E+00  0.00000000000E+00  0.10740442082E+03  0.10740442082E+03  0.00000000000E+00 0.  1.
         13   -1    0    0    0    0 -0.00000000000E+00 -0.00000000000E+00 -0.10000000000E+04  0.10000000000E+04  0.00000000000E+00 0.  1.
    9000005    2    1    2  501    0  0.46496191065E-01 -0.27534705028E-01 -0.89256681401E+03  0.11073432041E+04  0.65538801575E+03 0.  0.
         13    1    3    3    0    0 -0.31644025349E+03  0.70900046335E+02 -0.52559604973E+03  0.61758599246E+03  0.00000000000E+00 0.  1.
          1    1    3    3  501    0  0.31648674968E+03 -0.70927581040E+02 -0.36697076429E+03  0.48975721160E+03  0.00000000000E+00 0.  1.
         21    1    1    2  502  501 -0.46496191065E-01  0.27534705028E-01 -0.28765168990E-01  0.61216751887E-01  0.00000000000E+00 0. -1.
<mgrwt>
<rscale>  1 0.65538802E+03</rscale>
<asrwt>0</asrwt>
<pdfrwt beam="1">  1        1 0.39056235E+00 0.65538802E+03</pdfrwt>
<pdfrwt beam="2">0</pdfrwt>
<totfact> 0.14721095E+00</totfact>
</mgrwt>
</event>
<event>
 6    1  0.5828552E-003  0.6461191E+03  0.7818608E-02  0.9814089E-01
          1   -1    0    0  502    0  0.00000000000E+00  0.00000000000E+00  0.10436746929E+03  0.10436746929E+03  0.00000000000E+00 0.  1.
         13   -1    0    0    0    0 -0.00000000000E+00 -0.00000000000E+00 -0.10000000000E+04  0.10000000000E+04  0.00000000000E+00 0.  1.
    9000005    2    1    2  501    0  0.13297391916E-05  0.24107142167E-05 -0.89563253667E+03  0.11043674627E+04  0.64611906952E+03 0.  0.
         13    1    3    3    0    0  0.96377393907E+02 -0.22320137153E+03 -0.84187395758E+02  0.25728383531E+03  0.00000000000E+00 0.  1.
          1    1    3    3  501    0 -0.96377392577E+02  0.22320137394E+03 -0.81144514091E+03  0.84708362741E+03  0.00000000000E+00 0.  1.
         21    1    1    2  502  501 -0.13297391857E-05 -0.24107142118E-05  0.59590022816E-05  0.65642560512E-05  0.00000000000E+00 0.  1.
<mgrwt>
<rscale>  1 0.64611907E+03</rscale>
<asrwt>0</asrwt>
<pdfrwt beam="1">  1        1 0.37951887E+00 0.64611907E+03</pdfrwt>
<pdfrwt beam="2">0</pdfrwt>
<totfact> 0.16501889E+00</totfact>
</mgrwt>
</event>
<event>
 6    1  0.5828552E-003  0.6506017E+03  0.7818608E-02  0.9805651E-01
          1   -1    0    0  502    0  0.00000000000E+00  0.00000000000E+00  0.10584620625E+03  0.10584620625E+03  0.00000000000E+00 0.  1.
         13   -1    0    0    0    0 -0.00000000000E+00 -0.00000000000E+00 -0.10000000000E+04  0.10000000000E+04  0.00000000000E+00 0.  1.
    9000005    2    1    2  501    0  0.64666604229E-03  0.59655261992E-03 -0.89417934022E+03  0.11058206446E+04  0.65060172579E+03 0.  0.
         13    1    3    3    0    0  0.20566429265E+03  0.12002853712E+03 -0.82377818820E+03  0.85750519202E+03  0.00000000000E+00 0.  1.
          1    1    3    3  501    0 -0.20566364599E+03 -0.12002794057E+03 -0.70401152025E+02  0.24831545261E+03  0.00000000000E+00 0.  1.
         21    1    1    2  502  501 -0.64666604229E-03 -0.59655261993E-03  0.25546473374E-01  0.25561618765E-01  0.00000000000E+00 0.  1.
<mgrwt>
<rscale>  1 0.65060173E+03</rscale>
<asrwt>0</asrwt>
<pdfrwt beam="1">  1        1 0.38489611E+00 0.65060173E+03</pdfrwt>
<pdfrwt beam="2">0</pdfrwt>
<totfact> 0.15610741E+00</totfact>
</mgrwt>
</event>
<event>
 6    1  0.5828552E-003  0.6432864E+03  0.7818608E-02  0.9819459E-01
          1   -1    0    0  502    0  0.00000000000E+00  0.00000000000E+00  0.10345458545E+03  0.10345458545E+03  0.00000000000E+00 0.  1.
         13   -1    0    0    0    0 -0.00000000000E+00 -0.00000000000E+00 -0.10000000000E+04  0.10000000000E+04  0.00000000000E+00 0.  1.
    9000005    2    1    2  501    0  0.46510677407E-05  0.23583737715E-04 -0.89654566625E+03  0.11034543326E+04  0.64328635341E+03 0.  0.
         13    1    3    3    0    0  0.29522376826E+03  0.12467425677E+03 -0.49536175714E+03  0.58998645245E+03  0.00000000000E+00 0.  1.
          1    1    3    3  501    0 -0.29522376361E+03 -0.12467423319E+03 -0.40118390911E+03  0.51346788015E+03  0.00000000000E+00 0.  1.
         21    1    1    2  502  501 -0.46510677659E-05 -0.23583737709E-04  0.25169450330E-03  0.25283976765E-03  0.00000000000E+00 0.  1.
<mgrwt>
<rscale>  1 0.64328635E+03</rscale>
<asrwt>0</asrwt>
<pdfrwt beam="1">  1        1 0.37619929E+00 0.64328635E+03</pdfrwt>
<pdfrwt beam="2">0</pdfrwt>
<totfact> 0.17076194E+00</totfact>
</mgrwt>
</event>
<event>
 6    1  0.5828552E-003  0.6467920E+03  0.7818608E-02  0.9812817E-01
          1   -1    0    0  502    0  0.00000000000E+00  0.00000000000E+00  0.10458498860E+03  0.10458498860E+03  0.00000000000E+00 0.  1.
         13   -1    0    0    0    0 -0.00000000000E+00 -0.00000000000E+00 -0.10000000000E+04  0.10000000000E+04  0.00000000000E+00 0.  1.
    9000005    2    1    2  501    0 -0.13304676258E-05  0.11552301970E-04 -0.89541500636E+03  0.11045849759E+04  0.64679203415E+03 0.  0.
         13    1    3    3    0    0  0.19324929067E+03  0.29003107155E+02 -0.88776928606E+03  0.90902187754E+03  0.00000000000E+00 0.  1.
          1    1    3    3  501    0 -0.19324929200E+03 -0.29003095602E+02 -0.76457202957E+01  0.19556309839E+03  0.00000000000E+00 0.  1.
         21    1    1    2  502  501  0.13304676244E-05 -0.11552301971E-04 -0.50404230769E-05  0.12674055772E-04  0.00000000000E+00 0.  1.
<mgrwt>
<rscale>  1 0.64679203E+03</rscale>
<asrwt>0</asrwt>
<pdfrwt beam="1">  1        1 0.38030985E+00 0.64679203E+03</pdfrwt>
<pdfrwt beam="2">0</pdfrwt>
<totfact> 0.16367792E+00</totfact>
</mgrwt>
</event>
<event>
 6    1  0.5828552E-003  0.6831265E+03  0.7818608E-02  0.9746531E-01
          1   -1    0    0  502    0  0.00000000000E+00  0.00000000000E+00  0.11681596406E+03  0.11681596406E+03  0.00000000000E+00 0.  1.
         13   -1    0    0    0    0 -0.00000000000E+00 -0.00000000000E+00 -0.10000000000E+04  0.10000000000E+04  0.00000000000E+00 0.  1.
    9000005    2    1    2  501    0  0.40066764609E+00  0.17630457989E+00 -0.88269559699E+03  0.11161600750E+04  0.68312634588E+03 0.  0.
         13    1    3    3    0    0  0.19217120966E+03  0.77744133354E+02 -0.88533319950E+03  0.90927927406E+03  0.00000000000E+00 0.  1.
          1    1    3    3  501    0 -0.19177054201E+03 -0.77567828774E+02  0.26376025171E+01  0.20688080093E+03  0.00000000000E+00 0.  1.
         21    1    1    2  502  501 -0.40066764609E+00 -0.17630457989E+00 -0.48843895369E+00  0.65588907522E+00  0.00000000000E+00 0.  1.
<mgrwt>
<rscale>  1 0.68312649E+03</rscale>
<asrwt>0</asrwt>
<pdfrwt beam="1">  1        1 0.42478622E+00 0.68312649E+03</pdfrwt>
<pdfrwt beam="2">0</pdfrwt>
<totfact> 0.10287982E+00</totfact>
</mgrwt>
</event>
<event>
 6    1  0.5828552E-003  0.6557341E+03  0.7818608E-02  0.9796079E-01
          1   -1    0    0  502    0  0.00000000000E+00  0.00000000000E+00  0.10859530076E+03  0.10859530076E+03  0.00000000000E+00 0.  1.
         13   -1    0    0    0    0 -0.00000000000E+00 -0.00000000000E+00 -0.10000000000E+04  0.10000000000E+04  0.00000000000E+00 0.  1.
    9000005    2    1    2  501    0 -0.31483493221E-01  0.69143041747E-01 -0.89250173975E+03  0.11074956327E+04  0.65573410405E+03 0.  0.
         13    1    3    3    0    0 -0.20877517680E+03 -0.45412383160E+02 -0.26221348562E+02  0.21526011733E+03  0.00000000000E+00 0.  1.
          1    1    3    3  501    0  0.20874369331E+03  0.45481526201E+02 -0.86628039119E+03  0.89223551536E+03  0.00000000000E+00 0.  1.
         21    1    1    2  502  501  0.31483493221E-01 -0.69143041747E-01  0.10970405101E+01  0.10996680641E+01  0.00000000000E+00 0. -1.
<mgrwt>
<rscale>  1 0.65573411E+03</rscale>
<asrwt>0</asrwt>
<pdfrwt beam="1">  1        1 0.39489284E+00 0.65573411E+03</pdfrwt>
<pdfrwt beam="2">0</pdfrwt>
<totfact> 0.14082514E+00</totfact>
</mgrwt>
</event>
<event>
 6    1  0.5828552E-003  0.6499032E+03  0.7818608E-02  0.9806961E-01
          1   -1    0    0  502    0  0.00000000000E+00  0.00000000000E+00  0.11019115187E+03  0.11019115187E+03  0.00000000000E+00 0.  1.
         13   -1    0    0    0    0 -0.00000000000E+00 -0.00000000000E+00 -0.10000000000E+04  0.10000000000E+04  0.00000000000E+00 0.  1.
    9000005    2    1    2  501    0  0.38145681002E+01 -0.74852223571E+01 -0.88969962926E+03  0.11017892823E+04  0.64984891537E+03 0.  0.
         13    1    3    3    0    0  0.26206184220E+03 -0.17870487717E+03 -0.30488833040E+03  0.43996447161E+03  0.00000000000E+00 0.  1.
          1    1    3    3  501    0 -0.25824727410E+03  0.17121965481E+03 -0.58481129886E+03  0.66182481070E+03  0.00000000000E+00 0.  1.
         21    1    1    2  502  501 -0.38145681002E+01  0.74852223571E+01 -0.10921886590E+00  0.84018695710E+01  0.00000000000E+00 0. -1.
<mgrwt>
<rscale>  1 0.64990322E+03</rscale>
<asrwt>0</asrwt>
<pdfrwt beam="1">  1        1 0.40069594E+00 0.64990322E+03</pdfrwt>
<pdfrwt beam="2">0</pdfrwt>
<totfact> 0.13283738E+00</totfact>
</mgrwt>
</event>
<event>
 6    1  0.5828552E-003  0.6300966E+03  0.7818608E-02  0.9844860E-01
          1   -1    0    0  502    0  0.00000000000E+00  0.00000000000E+00  0.99255583274E+02  0.99255583274E+02  0.00000000000E+00 0.  1.
         13   -1    0    0    0    0 -0.00000000000E+00 -0.00000000000E+00 -0.10000000000E+04  0.10000000000E+04  0.00000000000E+00 0.  1.
    9000005    2    1    2  501    0  0.11119237328E-03 -0.11343107874E-03 -0.90074451403E+03  0.10992553970E+04  0.63009661821E+03 0.  0.
         13    1    3    3    0    0  0.14453924918E+03  0.21507217299E+03 -0.13776667977E+03  0.29347451713E+03  0.00000000000E+00 0.  1.
          1    1    3    3  501    0 -0.14453913799E+03 -0.21507228642E+03 -0.76297783425E+03  0.80578087987E+03  0.00000000000E+00 0.  1.
         21    1    1    2  502  501 -0.11119237327E-03  0.11343107875E-03  0.97301769096E-04  0.18627395892E-03  0.00000000000E+00 0. -1.
<mgrwt>
<rscale>  1 0.63009662E+03</rscale>
<asrwt>0</asrwt>
<pdfrwt beam="1">  1        1 0.36093015E+00 0.63009662E+03</pdfrwt>
<pdfrwt beam="2">0</pdfrwt>
<totfact> 0.19973463E+00</totfact>
</mgrwt>
</event>
<event>
 6    1  0.5828552E-003  0.6544267E+03  0.7818608E-02  0.9798508E-01
          1   -1    0    0  502    0  0.00000000000E+00  0.00000000000E+00  0.10706863467E+03  0.10706863467E+03  0.00000000000E+00 0.  1.
         13   -1    0    0    0    0 -0.00000000000E+00 -0.00000000000E+00 -0.10000000000E+04  0.10000000000E+04  0.00000000000E+00 0.  1.
    9000005    2    1    2  501    0  0.52014911489E-05  0.73101078897E-05 -0.89293143105E+03  0.11070685683E+04  0.65442667614E+03 0.  0.
         13    1    3    3    0    0 -0.14567398640E+03  0.15134106122E+03 -0.22052289249E+02  0.21121394506E+03  0.00000000000E+00 0.  1.
          3    1    3    3  501    0  0.14567399160E+03 -0.15134105391E+03 -0.87087914180E+03  0.89585462328E+03  0.00000000000E+00 0.  1.
         21    1    1    2  502  501 -0.52014911506E-05 -0.73101078726E-05  0.65723563836E-04  0.66333099057E-04  0.00000000000E+00 0.  1.
<mgrwt>
<rscale>  1 0.65442668E+03</rscale>
<asrwt>0</asrwt>
<pdfrwt beam="1">  1        1 0.38934131E+00 0.65442668E+03</pdfrwt>
<pdfrwt beam="2">0</pdfrwt>
<totfact> 0.14908449E+00</totfact>
</mgrwt>
</event>
<event>
 6    1  0.5828552E-003  0.6500560E+03  0.7818608E-02  0.9806674E-01
          3   -1    0    0  502    0  0.00000000000E+00  0.00000000000E+00  0.10564322221E+03  0.10564322221E+03  0.00000000000E+00 0.  1.
         13   -1    0    0    0    0 -0.00000000000E+00 -0.00000000000E+00 -0.10000000000E+04  0.10000000000E+04  0.00000000000E+00 0.  1.
    9000005    2    1    2  501    0  0.60017146097E-05  0.28168136879E-04 -0.89435679077E+03  0.11056431906E+04  0.65005599433E+03 0.  0.
         13    1    3    3    0    0  0.18342734019E+03 -0.14721919928E+03 -0.82872912656E+03  0.86145867398E+03  0.00000000000E+00 0.  1.
          1    1    3    3  501    0 -0.18342733419E+03  0.14721922745E+03 -0.65627664216E+02  0.24418451665E+03  0.00000000000E+00 0.  1.
         21    1    1    2  502  501 -0.60017145989E-05 -0.28168136887E-04  0.12983738425E-04  0.31591802375E-04  0.00000000000E+00 0.  1.
<mgrwt>
<rscale>  1 0.65005599E+03</rscale>
<asrwt>0</asrwt>
<pdfrwt beam="1">  1        3 0.38415798E+00 0.65005599E+03</pdfrwt>
<pdfrwt beam="2">0</pdfrwt>
<totfact> 0.71759023E-02</totfact>
</mgrwt>
</event>
<event>
 6    1  0.5828552E-003  0.6497445E+03  0.7818608E-02  0.9807259E-01
          1   -1    0    0  502    0  0.00000000000E+00  0.00000000000E+00  0.11757281474E+03  0.11757281474E+03  0.00000000000E+00 0.  1.
         13   -1    0    0    0    0 -0.00000000000E+00 -0.00000000000E+00 -0.10000000000E+04  0.10000000000E+04  0.00000000000E+00 0.  1.
    9000005    2    1    2  501    0 -0.17593172903E+00  0.43962486421E-01 -0.89445726906E+03  0.11055413643E+04  0.64974446441E+03 0.  0.
         13    1    3    3    0    0  0.89226786816E+02  0.23928787231E+03 -0.10557288069E+03  0.27634351532E+03  0.00000000000E+00 0.  1.
          1    1    3    3  501    0 -0.89402718545E+02 -0.23924390982E+03 -0.78888438837E+03  0.82919784894E+03  0.00000000000E+00 0.  1.
         21    1    1    2  502  501  0.17593172903E+00 -0.43962486421E-01  0.12030083792E+02  0.12031450483E+02  0.00000000000E+00 0.  1.
<mgrwt>
<rscale>  1 0.64974449E+03</rscale>
<asrwt>0</asrwt>
<pdfrwt beam="1">  1        1 0.42753841E+00 0.64974449E+03</pdfrwt>
<pdfrwt beam="2">0</pdfrwt>
<totfact> 0.10062325E+00</totfact>
</mgrwt>
</event>
<event>
 6    1  0.5828552E-003  0.6533531E+03  0.7818608E-02  0.9800508E-01
          1   -1    0    0  502    0  0.00000000000E+00  0.00000000000E+00  0.15071274511E+03  0.15071274511E+03  0.00000000000E+00 0.  1.
         13   -1    0    0    0    0 -0.00000000000E+00 -0.00000000000E+00 -0.10000000000E+04  0.10000000000E+04  0.00000000000E+00 0.  1.
    9000005    2    1    2  501    0  0.25418882357E+02 -0.36686246375E+01 -0.88909434890E+03  0.11033399352E+04  0.65284812395E+03 0.  0.
         13    1    3    3    0    0  0.14544344854E+03  0.27747248420E+03 -0.27284844483E+03  0.41544079007E+03  0.00000000000E+00 0.  1.
          3    1    3    3  501    0 -0.12002456619E+03 -0.28114110883E+03 -0.61624590407E+03  0.68789914511E+03  0.00000000000E+00 0.  1.
         21    1    1    2  502  501 -0.25418882357E+02  0.36686246375E+01  0.39807094011E+02  0.47372809929E+02  0.00000000000E+00 0.  1.
<mgrwt>
<rscale>  1 0.65335308E+03</rscale>
<asrwt>0</asrwt>
<pdfrwt beam="1">  1        1 0.54804750E+00 0.65335308E+03</pdfrwt>
<pdfrwt beam="2">0</pdfrwt>
<totfact> 0.26764810E-01</totfact>
</mgrwt>
</event>
<event>
 6    1  0.5828552E-003  0.6447091E+03  0.7818608E-02  0.9816758E-01
          1   -1    0    0  502    0  0.00000000000E+00  0.00000000000E+00  0.10391337307E+03  0.10391337307E+03  0.00000000000E+00 0.  1.
         13   -1    0    0    0    0 -0.00000000000E+00 -0.00000000000E+00 -0.10000000000E+04  0.10000000000E+04  0.00000000000E+00 0.  1.
    9000005    2    1    2  501    0 -0.22545517069E-03 -0.19652595505E-04 -0.89608753593E+03  0.11039124363E+04  0.64470907782E+03 0.  0.
         13    1    3    3    0    0 -0.19222625232E+03  0.50133207507E+02 -0.13357205734E+02  0.19910470994E+03  0.00000000000E+00 0.  1.
          1    1    3    3  501    0  0.19222602687E+03 -0.50133227159E+02 -0.88273033019E+03  0.90480772638E+03  0.00000000000E+00 0.  1.
         21    1    1    2  502  501  0.22545517070E-03  0.19652595501E-04  0.90899732553E-03  0.93674564121E-03  0.00000000000E+00 0. -1.
<mgrwt>
<rscale>  1 0.64470908E+03</rscale>
<asrwt>0</asrwt>
<pdfrwt beam="1">  1        1 0.37786761E+00 0.64470908E+03</pdfrwt>
<pdfrwt beam="2">0</pdfrwt>
<totfact> 0.16785228E+00</totfact>
</mgrwt>
</event>
<event>
 6    1  0.5828552E-003  0.6544037E+03  0.7818608E-02  0.9798551E-01
          1   -1    0    0  502    0  0.00000000000E+00  0.00000000000E+00  0.10706132081E+03  0.10706132081E+03  0.00000000000E+00 0.  1.
         13   -1    0    0    0    0 -0.00000000000E+00 -0.00000000000E+00 -0.10000000000E+04  0.10000000000E+04  0.00000000000E+00 0.  1.
    9000005    2    1    2  501    0  0.12335352693E-04  0.43654526507E-04 -0.89293893671E+03  0.11070610593E+04  0.65440373193E+03 0.  0.
         13    1    3    3    0    0  0.13395327534E+03 -0.29721368908E+03 -0.49376453813E+03  0.59167801723E+03  0.00000000000E+00 0.  1.
          3    1    3    3  501    0 -0.13395326300E+03  0.29721373274E+03 -0.39917439858E+03  0.51538304209E+03  0.00000000000E+00 0.  1.
         21    1    1    2  502  501 -0.12335352695E-04 -0.43654526525E-04  0.25752048017E-03  0.26148551837E-03  0.00000000000E+00 0.  1.
<mgrwt>
<rscale>  1 0.65440373E+03</rscale>
<asrwt>0</asrwt>
<pdfrwt beam="1">  1        1 0.38931471E+00 0.65440373E+03</pdfrwt>
<pdfrwt beam="2">0</pdfrwt>
<totfact> 0.14912561E+00</totfact>
</mgrwt>
</event>
<event>
 6    1  0.5828552E-003  0.6272751E+03  0.7818608E-02  0.9850381E-01
          1   -1    0    0  502    0  0.00000000000E+00  0.00000000000E+00  0.10261564932E+03  0.10261564932E+03  0.00000000000E+00 0.  1.
         13   -1    0    0    0    0 -0.00000000000E+00 -0.00000000000E+00 -0.10000000000E+04  0.10000000000E+04  0.00000000000E+00 0.  1.
    9000005    2    1    2  501    0  0.57193749863E+00 -0.41369514224E+00 -0.90159924975E+03  0.10983420524E+04  0.62727470756E+03 0.  0.
         13    1    3    3    0    0 -0.26563473180E+03  0.82645465565E+02 -0.70284179067E+03  0.75589593624E+03  0.00000000000E+00 0.  1.
          1    1    3    3  501    0  0.26620666930E+03 -0.83059160707E+02 -0.19875745908E+03  0.34244611619E+03  0.00000000000E+00 0.  1.
         21    1    1    2  502  501 -0.57193749863E+00  0.41369514224E+00  0.42148990649E+01  0.42735968809E+01  0.00000000000E+00 0. -1.
<mgrwt>
<rscale>  1 0.62727510E+03</rscale>
<asrwt>0</asrwt>
<pdfrwt beam="1">  1        1 0.37314860E+00 0.62727510E+03</pdfrwt>
<pdfrwt beam="2">0</pdfrwt>
<totfact> 0.17664355E+00</totfact>
</mgrwt>
</event>
<event>
 6    1  0.5828552E-003  0.6454405E+03  0.7818608E-02  0.9815373E-01
          1   -1    0    0  502    0  0.00000000000E+00  0.00000000000E+00  0.10414847972E+03  0.10414847972E+03  0.00000000000E+00 0.  1.
         13   -1    0    0    0    0 -0.00000000000E+00 -0.00000000000E+00 -0.10000000000E+04  0.10000000000E+04  0.00000000000E+00 0.  1.
    9000005    2    1    2  501    0  0.20744480295E-03 -0.98466437635E-05 -0.89585150595E+03  0.11041482716E+04  0.64544053550E+03 0.  0.
         13    1    3    3    0    0 -0.23135867680E+03  0.22009192918E+03 -0.52781733813E+03  0.61689418627E+03  0.00000000000E+00 0.  1.
          1    1    3    3  501    0  0.23135888425E+03 -0.22009193902E+03 -0.36803416781E+03  0.48725408528E+03  0.00000000000E+00 0.  1.
         21    1    1    2  502  501 -0.20744480297E-03  0.98466437511E-05 -0.14330149676E-04  0.20817217841E-03  0.00000000000E+00 0.  1.
<mgrwt>
<rscale>  1 0.64544054E+03</rscale>
<asrwt>0</asrwt>
<pdfrwt beam="1">  1        1 0.37872254E+00 0.64544054E+03</pdfrwt>
<pdfrwt beam="2">0</pdfrwt>
<totfact> 0.16637952E+00</totfact>
</mgrwt>
</event>
<event>
 6    1  0.5828552E-003  0.6455307E+03  0.7818608E-02  0.9815202E-01
          1   -1    0    0  502    0  0.00000000000E+00  0.00000000000E+00  0.10417746579E+03  0.10417746579E+03  0.00000000000E+00 0.  1.
         13   -1    0    0    0    0 -0.00000000000E+00 -0.00000000000E+00 -0.10000000000E+04  0.10000000000E+04  0.00000000000E+00 0.  1.
    9000005    2    1    2  501    0 -0.92288337328E-06 -0.56270232562E-06 -0.89582253674E+03  0.11041774630E+04  0.64553067514E+03 0.  0.
         13    1    3    3    0    0 -0.27527103609E+02  0.29428790281E+03 -0.22611100375E+03  0.37214150157E+03  0.00000000000E+00 0.  1.
          3    1    3    3  501    0  0.27527102686E+02 -0.29428790338E+03 -0.66971153299E+03  0.73203596146E+03  0.00000000000E+00 0.  1.
         21    1    1    2  502  501  0.92288337402E-06  0.56270237385E-06  0.25326202916E-05  0.27536363640E-05  0.00000000000E+00 0.  1.
<mgrwt>
<rscale>  1 0.64553068E+03</rscale>
<asrwt>0</asrwt>
<pdfrwt beam="1">  1        1 0.37882795E+00 0.64553068E+03</pdfrwt>
<pdfrwt beam="2">0</pdfrwt>
<totfact> 0.16619881E+00</totfact>
</mgrwt>
</event>
<event>
 6    1  0.5828552E-003  0.5984755E+03  0.7818608E-02  0.9908574E-01
          1   -1    0    0  502    0  0.00000000000E+00  0.00000000000E+00  0.89617867829E+02  0.89617867829E+02  0.00000000000E+00 0.  1.
         13   -1    0    0    0    0 -0.00000000000E+00 -0.00000000000E+00 -0.10000000000E+04  0.10000000000E+04  0.00000000000E+00 0.  1.
    9000005    2    1    2  501    0  0.27516631178E-02  0.69074139105E-03 -0.91045673868E+03  0.10895432074E+04  0.59847550306E+03 0.  0.
         13    1    3    3    0    0 -0.10828758165E+03 -0.20792288988E+03 -0.79379052102E+03  0.82768443246E+03  0.00000000000E+00 0.  1.
          3    1    3    3  501    0  0.10829033331E+03  0.20792358062E+03 -0.11666621767E+03  0.26185877494E+03  0.00000000000E+00 0.  1.
         21    1    1    2  502  501 -0.27516631178E-02 -0.69074139104E-03  0.74606511959E-01  0.74660433968E-01  0.00000000000E+00 0. -1.
<mgrwt>
<rscale>  1 0.59847550E+03</rscale>
<asrwt>0</asrwt>
<pdfrwt beam="1">  1        1 0.32588384E+00 0.59847550E+03</pdfrwt>
<pdfrwt beam="2">0</pdfrwt>
<totfact> 0.28530821E+00</totfact>
</mgrwt>
</event>
<event>
 6    1  0.5828552E-003  0.6529497E+03  0.7818608E-02  0.9801260E-01
          1   -1    0    0  502    0  0.00000000000E+00  0.00000000000E+00  0.10659756575E+03  0.10659756575E+03  0.00000000000E+00 0.  1.
         13   -1    0    0    0    0 -0.00000000000E+00 -0.00000000000E+00 -0.10000000000E+04  0.10000000000E+04  0.00000000000E+00 0.  1.
    9000005    2    1    2  501    0  0.36247685583E-02 -0.41406677623E-02 -0.89341345980E+03  0.11065852431E+04  0.65294968423E+03 0.  0.
         13    1    3    3    0    0  0.25793300683E+02  0.16901298328E+03  0.24649459371E+02  0.17273760078E+03  0.00000000000E+00 0.  1.
          1    1    3    3  501    0 -0.25789675914E+02 -0.16901712395E+03 -0.91806291917E+03  0.93384764235E+03  0.00000000000E+00 0.  1.
         21    1    1    2  502  501 -0.36247685583E-02  0.41406677623E-02  0.11025547988E-01  0.12322612753E-01  0.00000000000E+00 0.  1.
<mgrwt>
<rscale>  1 0.65294968E+03</rscale>
<asrwt>0</asrwt>
<pdfrwt beam="1">  1        1 0.38762833E+00 0.65294968E+03</pdfrwt>
<pdfrwt beam="2">0</pdfrwt>
<totfact> 0.15175461E+00</totfact>
</mgrwt>
</event>
<event>
 6    1  0.5828552E-003  0.5992534E+03  0.7818608E-02  0.9906956E-01
          1   -1    0    0  502    0  0.00000000000E+00  0.00000000000E+00  0.89776189433E+02  0.89776189433E+02  0.00000000000E+00 0.  1.
         13   -1    0    0    0    0 -0.00000000000E+00 -0.00000000000E+00 -0.10000000000E+04  0.10000000000E+04  0.00000000000E+00 0.  1.
    9000005    2    1    2  501    0 -0.69059524321E-07 -0.82036062565E-05 -0.91022383832E+03  0.10897761605E+04  0.59925340560E+03 0.  0.
         13    1    3    3    0    0  0.23829519014E+03  0.15316642213E+03 -0.63265751320E+03  0.69318113039E+03  0.00000000000E+00 0.  1.
          3    1    3    3  501    0 -0.23829519021E+03 -0.15316643034E+03 -0.27756632512E+03  0.39659503010E+03  0.00000000000E+00 0.  1.
         21    1    1    2  502  501  0.69059530525E-07  0.82036062554E-05  0.27754941400E-04  0.28942023028E-04  0.00000000000E+00 0. -1.
<mgrwt>
<rscale>  1 0.59925341E+03</rscale>
<asrwt>0</asrwt>
<pdfrwt beam="1">  1        1 0.32645956E+00 0.59925341E+03</pdfrwt>
<pdfrwt beam="2">0</pdfrwt>
<totfact> 0.28363734E+00</totfact>
</mgrwt>
</event>
<event>
 6    1  0.5828552E-003  0.6547379E+03  0.7818608E-02  0.9797929E-01
          1   -1    0    0  502    0  0.00000000000E+00  0.00000000000E+00  0.10717185277E+03  0.10717185277E+03  0.00000000000E+00 0.  1.
         13   -1    0    0    0    0 -0.00000000000E+00 -0.00000000000E+00 -0.10000000000E+04  0.10000000000E+04  0.00000000000E+00 0.  1.
    9000005    2    1    2  501    0  0.36777814842E-04 -0.12337786757E-05 -0.89282957626E+03  0.11071704233E+04  0.65473788183E+03 0.  0.
         13    1    3    3    0    0 -0.22800494018E+03 -0.23437108616E+03 -0.47338399925E+03  0.57533335513E+03  0.00000000000E+00 0.  1.
          3    1    3    3  501    0  0.22800497696E+03  0.23437108493E+03 -0.41944557701E+03  0.53183706813E+03  0.00000000000E+00 0.  1.
         21    1    1    2  502  501 -0.36777814836E-04  0.12337786550E-05  0.14290339957E-02  0.14295077092E-02  0.00000000000E+00 0. -1.
<mgrwt>
<rscale>  1 0.65473788E+03</rscale>
<asrwt>0</asrwt>
<pdfrwt beam="1">  1        1 0.38971665E+00 0.65473788E+03</pdfrwt>
<pdfrwt beam="2">0</pdfrwt>
<totfact> 0.14850575E+00</totfact>
</mgrwt>
</event>
<event>
 6    1  0.5828552E-003  0.6559753E+03  0.7818608E-02  0.9795631E-01
          1   -1    0    0  502    0  0.00000000000E+00  0.00000000000E+00  0.10816505638E+03  0.10816505638E+03  0.00000000000E+00 0.  1.
         13   -1    0    0    0    0 -0.00000000000E+00 -0.00000000000E+00 -0.10000000000E+04  0.10000000000E+04  0.00000000000E+00 0.  1.
    9000005    2    1    2  501    0 -0.13044607880E+01  0.14552287679E+00 -0.89146144518E+03  0.11068003967E+04  0.65597399887E+03 0.  0.
         13    1    3    3    0    0  0.17137563462E+03  0.26675918463E+03 -0.58509689899E+03  0.66548362259E+03  0.00000000000E+00 0.  1.
          3    1    3    3  501    0 -0.17268009541E+03 -0.26661366175E+03 -0.30636454619E+03  0.44131677415E+03  0.00000000000E+00 0.  1.
         21    1    1    2  502  501  0.13044607880E+01 -0.14552287679E+00 -0.37349844031E+00  0.13646596425E+01  0.00000000000E+00 0. -1.
<mgrwt>
<rscale>  1 0.65597531E+03</rscale>
<asrwt>0</asrwt>
<pdfrwt beam="1">  1        1 0.39332831E+00 0.65597531E+03</pdfrwt>
<pdfrwt beam="2">0</pdfrwt>
<totfact> 0.14309150E+00</totfact>
</mgrwt>
</event>
<event>
 6    1  0.5828552E-003  0.6331176E+03  0.7818608E-02  0.9838984E-01
          1   -1    0    0  502    0  0.00000000000E+00  0.00000000000E+00  0.10048084348E+03  0.10048084348E+03  0.00000000000E+00 0.  1.
         13   -1    0    0    0    0 -0.00000000000E+00 -0.00000000000E+00 -0.10000000000E+04  0.10000000000E+04  0.00000000000E+00 0.  1.
    9000005    2    1    2  501    0 -0.22869617081E-01 -0.80703776158E-02 -0.89978993740E+03  0.11002089787E+04  0.63311757587E+03 0.  0.
         13    1    3    3    0    0 -0.98090616292E+02  0.12953812290E+03  0.22214080113E+02  0.16399804768E+03  0.00000000000E+00 0.  1.
          3    1    3    3  501    0  0.98067746675E+02 -0.12954619328E+03 -0.92200401751E+03  0.93621093106E+03  0.00000000000E+00 0.  1.
         21    1    1    2  502  501  0.22869617081E-01  0.80703776158E-02  0.27078087717E+00  0.27186473442E+00  0.00000000000E+00 0. -1.
<mgrwt>
<rscale>  1 0.63311758E+03</rscale>
<asrwt>0</asrwt>
<pdfrwt beam="1">  1        1 0.36538566E+00 0.63311758E+03</pdfrwt>
<pdfrwt beam="2">0</pdfrwt>
<totfact> 0.19085576E+00</totfact>
</mgrwt>
</event>
<event>
 6    1  0.5828552E-003  0.6565808E+03  0.7818608E-02  0.9794509E-01
          1   -1    0    0  502    0  0.00000000000E+00  0.00000000000E+00  0.10779539940E+03  0.10779539940E+03  0.00000000000E+00 0.  1.
         13   -1    0    0    0    0 -0.00000000000E+00 -0.00000000000E+00 -0.10000000000E+04  0.10000000000E+04  0.00000000000E+00 0.  1.
    9000005    2    1    2  501    0 -0.13499428374E-01  0.58401548624E-02 -0.89222250616E+03  0.11077722272E+04  0.65658076931E+03 0.  0.
         13    1    3    3    0    0 -0.24329700390E+03  0.21980134784E+03 -0.47400164143E+03  0.57635372880E+03  0.00000000000E+00 0.  1.
          1    1    3    3  501    0  0.24328350447E+03 -0.21979550768E+03 -0.41822086473E+03  0.53141849840E+03  0.00000000000E+00 0.  1.
         21    1    1    2  502  501  0.13499428374E-01 -0.58401548624E-02  0.17905564000E-01  0.23172207435E-01  0.00000000000E+00 0.  1.
<mgrwt>
<rscale>  1 0.65658077E+03</rscale>
<asrwt>0</asrwt>
<pdfrwt beam="1">  1        1 0.39198410E+00 0.65658077E+03</pdfrwt>
<pdfrwt beam="2">0</pdfrwt>
<totfact> 0.14505561E+00</totfact>
</mgrwt>
</event>
<event>
 6    1  0.5828552E-003  0.6551358E+03  0.7818608E-02  0.9797190E-01
          1   -1    0    0  502    0  0.00000000000E+00  0.00000000000E+00  0.10730073049E+03  0.10730073049E+03  0.00000000000E+00 0.  1.
         13   -1    0    0    0    0 -0.00000000000E+00 -0.00000000000E+00 -0.10000000000E+04  0.10000000000E+04  0.00000000000E+00 0.  1.
    9000005    2    1    2  501    0  0.30453804953E-04 -0.31179850873E-04 -0.89269916008E+03  0.11073006127E+04  0.65513575422E+03 0.  0.
         13    1    3    3    0    0  0.14304834978E+03 -0.56056658530E+01  0.51628544306E+02  0.15218331200E+03  0.00000000000E+00 0.  1.
          1    1    3    3  501    0 -0.14304831933E+03  0.56056346732E+01 -0.94432770439E+03  0.95511730069E+03  0.00000000000E+00 0.  1.
         21    1    1    2  502  501 -0.30453804954E-04  0.31179850873E-04 -0.10943365603E-03  0.11779364333E-03  0.00000000000E+00 0. -1.
<mgrwt>
<rscale>  1 0.65513575E+03</rscale>
<asrwt>0</asrwt>
<pdfrwt beam="1">  1        1 0.39018530E+00 0.65513575E+03</pdfrwt>
<pdfrwt beam="2">0</pdfrwt>
<totfact> 0.14778588E+00</totfact>
</mgrwt>
</event>
<event>
 6    1  0.5828552E-003  0.6444271E+03  0.7818608E-02  0.9817293E-01
          1   -1    0    0  502    0  0.00000000000E+00  0.00000000000E+00  0.10382156006E+03  0.10382156006E+03  0.00000000000E+00 0.  1.
         13   -1    0    0    0    0 -0.00000000000E+00 -0.00000000000E+00 -0.10000000000E+04  0.10000000000E+04  0.00000000000E+00 0.  1.
    9000005    2    1    2  501    0  0.32414848761E-05  0.80465008523E-06 -0.89617844277E+03  0.11038215557E+04  0.64442705213E+03 0.  0.
         13    1    3    3    0    0 -0.14583576502E+03  0.22987721817E+03 -0.74332981465E+03  0.79161279622E+03  0.00000000000E+00 0.  1.
          1    1    3    3  501    0  0.14583576827E+03 -0.22987721736E+03 -0.15284862812E+03  0.31220875946E+03  0.00000000000E+00 0.  1.
         21    1    1    2  502  501 -0.32414848789E-05 -0.80465007121E-06  0.28227273221E-05  0.43729252785E-05  0.00000000000E+00 0. -1.
<mgrwt>
<rscale>  1 0.64442705E+03</rscale>
<asrwt>0</asrwt>
<pdfrwt beam="1">  1        1 0.37753374E+00 0.64442705E+03</pdfrwt>
<pdfrwt beam="2">0</pdfrwt>
<totfact> 0.16843067E+00</totfact>
</mgrwt>
</event>
<event>
 6    1  0.5828552E-003  0.6508195E+03  0.7818608E-02  0.9805243E-01
          3   -1    0    0  502    0  0.00000000000E+00  0.00000000000E+00  0.10589153065E+03  0.10589153065E+03  0.00000000000E+00 0.  1.
         13   -1    0    0    0    0 -0.00000000000E+00 -0.00000000000E+00 -0.10000000000E+04  0.10000000000E+04  0.00000000000E+00 0.  1.
    9000005    2    1    2  501    0  0.42842084913E-04  0.14454291033E-04 -0.89410843091E+03  0.11058914713E+04  0.65081952958E+03 0.  0.
         13    1    3    3    0    0 -0.17034281951E+02 -0.13643952277E+03  0.54104888717E+02  0.14776078343E+03  0.00000000000E+00 0.  1.
          3    1    3    3  501    0  0.17034324793E+02  0.13643953723E+03 -0.94821331963E+03  0.95813068788E+03  0.00000000000E+00 0.  1.
         21    1    1    2  502  501 -0.42842084910E-04 -0.14454291036E-04 -0.38433813572E-04  0.59342470411E-04  0.00000000000E+00 0. -1.
<mgrwt>
<rscale>  1 0.65081953E+03</rscale>
<asrwt>0</asrwt>
<pdfrwt beam="1">  1        3 0.38506092E+00 0.65081953E+03</pdfrwt>
<pdfrwt beam="2">0</pdfrwt>
<totfact> 0.70967607E-02</totfact>
</mgrwt>
</event>
<event>
 6    1  0.5828552E-003  0.6423874E+03  0.7818608E-02  0.9821169E-01
          1   -1    0    0  502    0  0.00000000000E+00  0.00000000000E+00  0.10333935508E+03  0.10333935508E+03  0.00000000000E+00 0.  1.
         13   -1    0    0    0    0 -0.00000000000E+00 -0.00000000000E+00 -0.10000000000E+04  0.10000000000E+04  0.00000000000E+00 0.  1.
    9000005    2    1    2  501    0  0.17351578826E+00 -0.14881828386E+00 -0.89674769050E+03  0.11030947502E+04  0.64238738722E+03 0.  0.
         13    1    3    3    0    0 -0.24501810081E+03 -0.76348225956E+02 -0.77982101266E+03  0.82096512296E+03  0.00000000000E+00 0.  1.
          1    1    3    3  501    0  0.24519161660E+03  0.76199407672E+02 -0.11692667784E+03  0.28212962725E+03  0.00000000000E+00 0.  1.
         21    1    1    2  502  501 -0.17351578826E+00  0.14881828386E+00  0.87045587902E-01  0.24460487477E+00  0.00000000000E+00 0. -1.
<mgrwt>
<rscale>  1 0.64238743E+03</rscale>
<asrwt>0</asrwt>
<pdfrwt beam="1">  1        1 0.37578027E+00 0.64238743E+03</pdfrwt>
<pdfrwt beam="2">0</pdfrwt>
<totfact> 0.17151726E+00</totfact>
</mgrwt>
</event>
<event>
 6    1  0.5828552E-003  0.6526998E+03  0.7818608E-02  0.9801726E-01
          1   -1    0    0  502    0  0.00000000000E+00  0.00000000000E+00  0.11619205701E+03  0.11619205701E+03  0.00000000000E+00 0.  1.
         13   -1    0    0    0    0 -0.00000000000E+00 -0.00000000000E+00 -0.10000000000E+04  0.10000000000E+04  0.00000000000E+00 0.  1.
    9000005    2    1    2  501    0 -0.57183724858E+00 -0.13755855638E+02 -0.88775116708E+03  0.11018707589E+04  0.65255458331E+03 0.  0.
         13    1    3    3    0    0 -0.32503381526E+03 -0.25562149150E+02 -0.48774001050E+03  0.58667769889E+03  0.00000000000E+00 0.  1.
          3    1    3    3  501    0  0.32446197801E+03  0.11806293513E+02 -0.40001115658E+03  0.51519306005E+03  0.00000000000E+00 0.  1.
         21    1    1    2  502  501  0.57183724858E+00  0.13755855638E+02  0.39432240953E+01  0.14321298071E+02  0.00000000000E+00 0.  1.
<mgrwt>
<rscale>  1 0.65269980E+03</rscale>
<asrwt>0</asrwt>
<pdfrwt beam="1">  1        1 0.42251746E+00 0.65269980E+03</pdfrwt>
<pdfrwt beam="2">0</pdfrwt>
<totfact> 0.10596467E+00</totfact>
</mgrwt>
</event>
<event>
 6    1  0.5828552E-003  0.6520383E+03  0.7818608E-02  0.9802962E-01
          1   -1    0    0  502    0  0.00000000000E+00  0.00000000000E+00  0.10628863455E+03  0.10628863455E+03  0.00000000000E+00 0.  1.
         13   -1    0    0    0    0 -0.00000000000E+00 -0.00000000000E+00 -0.10000000000E+04  0.10000000000E+04  0.00000000000E+00 0.  1.
    9000005    2    1    2  501    0  0.54586239742E-05 -0.24445982177E-03 -0.89371138099E+03  0.11062883895E+04  0.65203831814E+03 0.  0.
         13    1    3    3    0    0 -0.22948357089E+03 -0.13164425437E+03 -0.77009363565E+03  0.81427091725E+03  0.00000000000E+00 0.  1.
          1    1    3    3  501    0  0.22948357635E+03  0.13164400991E+03 -0.12361774534E+03  0.29201747229E+03  0.00000000000E+00 0.  1.
         21    1    1    2  502  501 -0.54586239811E-05  0.24445982178E-03  0.15537341745E-04  0.24501389763E-03  0.00000000000E+00 0. -1.
<mgrwt>
<rscale>  1 0.65203832E+03</rscale>
<asrwt>0</asrwt>
<pdfrwt beam="1">  1        1 0.38650494E+00 0.65203832E+03</pdfrwt>
<pdfrwt beam="2">0</pdfrwt>
<totfact> 0.15352865E+00</totfact>
</mgrwt>
</event>
<event>
 6    1  0.5828552E-003  0.6508277E+03  0.7818608E-02  0.9805227E-01
          3   -1    0    0  502    0  0.00000000000E+00  0.00000000000E+00  0.10632130849E+03  0.10632130849E+03  0.00000000000E+00 0.  1.
         13   -1    0    0    0    0 -0.00000000000E+00 -0.00000000000E+00 -0.10000000000E+04  0.10000000000E+04  0.00000000000E+00 0.  1.
    9000005    2    1    2  501    0  0.21974752842E+00  0.18494819486E+00 -0.89405177788E+03  0.11058504707E+04  0.65082762653E+03 0.  0.
         13    1    3    3    0    0 -0.14046366913E+03 -0.26073465959E+03 -0.21824684591E+03  0.36789168353E+03  0.00000000000E+00 0.  1.
          1    1    3    3  501    0  0.14068341666E+03  0.26091960779E+03 -0.67580493197E+03  0.73795878714E+03  0.00000000000E+00 0.  1.
         21    1    1    2  502  501 -0.21974752842E+00 -0.18494819486E+00  0.37308636664E+00  0.47083781497E+00  0.00000000000E+00 0.  1.
<mgrwt>
<rscale>  1 0.65082769E+03</rscale>
<asrwt>0</asrwt>
<pdfrwt beam="1">  1        3 0.38662376E+00 0.65082769E+03</pdfrwt>
<pdfrwt beam="2">0</pdfrwt>
<totfact> 0.69634235E-02</totfact>
</mgrwt>
</event>
<event>
 6    1  0.5828552E-003  0.5147401E+03  0.7818608E-02  0.1010002E+00
          1   -1    0    0  502    0  0.00000000000E+00  0.00000000000E+00  0.66254523055E+02  0.66254523055E+02  0.00000000000E+00 0.  1.
         13   -1    0    0    0    0 -0.00000000000E+00 -0.00000000000E+00 -0.10000000000E+04  0.10000000000E+04  0.00000000000E+00 0.  1.
    9000005    2    1    2  501    0  0.17422520590E-01  0.11213123687E-01 -0.93375286098E+03  0.10662325275E+04  0.51474012569E+03 0.  0.
         13    1    3    3    0    0  0.20724895431E+02 -0.14741810367E+03 -0.31994163899E+02  0.15226701910E+03  0.00000000000E+00 0.  1.
          3    1    3    3  501    0 -0.20707472911E+02  0.14742931680E+03 -0.90175869708E+03  0.91396550845E+03  0.00000000000E+00 0.  1.
         21    1    1    2  502  501 -0.17422520590E-01 -0.11213123687E-01  0.73840301759E-02  0.21995505636E-01  0.00000000000E+00 0.  1.
<mgrwt>
<rscale>  1 0.51474013E+03</rscale>
<asrwt>0</asrwt>
<pdfrwt beam="1">  1        1 0.24092605E+00 0.51474013E+03</pdfrwt>
<pdfrwt beam="2">0</pdfrwt>
<totfact> 0.67482424E+00</totfact>
</mgrwt>
</event>
<event>
 6    1  0.5828552E-003  0.5744873E+03  0.7818608E-02  0.9959798E-01
          1   -1    0    0  502    0  0.00000000000E+00  0.00000000000E+00  0.82519555662E+02  0.82519555662E+02  0.00000000000E+00 0.  1.
         13   -1    0    0    0    0 -0.00000000000E+00 -0.00000000000E+00 -0.10000000000E+04  0.10000000000E+04  0.00000000000E+00 0.  1.
    9000005    2    1    2  501    0 -0.22782680303E-03  0.10979836401E-03 -0.91749107006E+03  0.10825089269E+04  0.57448734820E+03 0.  0.
         13    1    3    3    0    0  0.23934636237E+02  0.28109161629E+03 -0.35686083709E+03  0.45490111080E+03  0.00000000000E+00 0.  1.
          3    1    3    3  501    0 -0.23934864064E+02 -0.28109150649E+03 -0.56063023297E+03  0.62760781612E+03  0.00000000000E+00 0.  1.
         21    1    1    2  502  501  0.22782680303E-03 -0.10979836400E-03  0.10625723850E-01  0.10628733135E-01  0.00000000000E+00 0.  1.
<mgrwt>
<rscale>  1 0.57448735E+03</rscale>
<asrwt>0</asrwt>
<pdfrwt beam="1">  1        1 0.30007174E+00 0.57448735E+03</pdfrwt>
<pdfrwt beam="2">0</pdfrwt>
<totfact> 0.37039079E+00</totfact>
</mgrwt>
</event>
<event>
 6    1  0.5828552E-003  0.6557606E+03  0.7818608E-02  0.9796029E-01
          1   -1    0    0  502    0  0.00000000000E+00  0.00000000000E+00  0.11544236266E+03  0.11544236266E+03  0.00000000000E+00 0.  1.
         13   -1    0    0    0    0 -0.00000000000E+00 -0.00000000000E+00 -0.10000000000E+04  0.10000000000E+04  0.00000000000E+00 0.  1.
    9000005    2    1    2  501    0 -0.15200049644E+00  0.27386201633E+00 -0.89249108870E+03  0.11075027307E+04  0.65576051808E+03 0.  0.
         13    1    3    3    0    0  0.31769533153E+03 -0.74578178272E+02 -0.49800701826E+03  0.59540172874E+03  0.00000000000E+00 0.  1.
          3    1    3    3  501    0 -0.31784733203E+03  0.74852040289E+02 -0.39448407044E+03  0.51210100200E+03  0.00000000000E+00 0.  1.
         21    1    1    2  502  501  0.15200049644E+00 -0.27386201633E+00  0.79334513579E+01  0.79396319186E+01  0.00000000000E+00 0. -1.
<mgrwt>
<rscale>  1 0.65576059E+03</rscale>
<asrwt>0</asrwt>
<pdfrwt beam="1">  1        1 0.41979129E+00 0.65576059E+03</pdfrwt>
<pdfrwt beam="2">0</pdfrwt>
<totfact> 0.10894443E+00</totfact>
</mgrwt>
</event>
<event>
 6    1  0.5828552E-003  0.6426772E+03  0.7818608E-02  0.9820618E-01
          1   -1    0    0  502    0  0.00000000000E+00  0.00000000000E+00  0.10373063221E+03  0.10373063221E+03  0.00000000000E+00 0.  1.
         13   -1    0    0    0    0 -0.00000000000E+00 -0.00000000000E+00 -0.10000000000E+04  0.10000000000E+04  0.00000000000E+00 0.  1.
    9000005    2    1    2  501    0 -0.13495467704E+01  0.50757354676E+00 -0.89469612322E+03  0.11015966205E+04  0.64267556555E+03 0.  0.
         13    1    3    3    0    0  0.19600809978E+03 -0.21135327432E+03 -0.68771143568E+03  0.74567848333E+03  0.00000000000E+00 0.  1.
          1    1    3    3  501    0 -0.19735764656E+03  0.21186084786E+03 -0.20698468754E+03  0.35591813720E+03  0.00000000000E+00 0.  1.
         21    1    1    2  502  501  0.13495467704E+01 -0.50757354676E+00 -0.15732445665E+01  0.21340116816E+01  0.00000000000E+00 0. -1.
<mgrwt>
<rscale>  1 0.64267718E+03</rscale>
<asrwt>0</asrwt>
<pdfrwt beam="1">  1        1 0.37720309E+00 0.64267718E+03</pdfrwt>
<pdfrwt beam="2">0</pdfrwt>
<totfact> 0.16905096E+00</totfact>
</mgrwt>
</event>
<event>
 6    1  0.5828552E-003  0.6427863E+03  0.7818608E-02  0.9820410E-01
          1   -1    0    0  502    0  0.00000000000E+00  0.00000000000E+00  0.10337585020E+03  0.10337585020E+03  0.00000000000E+00 0.  1.
         13   -1    0    0    0    0 -0.00000000000E+00 -0.00000000000E+00 -0.10000000000E+04  0.10000000000E+04  0.00000000000E+00 0.  1.
    9000005    2    1    2  501    0 -0.10703587502E-01  0.15800315157E-01 -0.89670520854E+03  0.11032925751E+04  0.64278633694E+03 0.  0.
         13    1    3    3    0    0  0.10479659575E+03  0.84713776940E+02 -0.94916910053E+03  0.95868698326E+03  0.00000000000E+00 0.  1.
          1    1    3    3  501    0 -0.10480729934E+03 -0.84697976625E+02  0.52463891984E+02  0.14460559187E+03  0.00000000000E+00 0.  1.
         21    1    1    2  502  501  0.10703587502E-01 -0.15800315157E-01  0.81058740769E-01  0.83275063492E-01  0.00000000000E+00 0.  1.
<mgrwt>
<rscale>  1 0.64278634E+03</rscale>
<asrwt>0</asrwt>
<pdfrwt beam="1">  1        1 0.37591298E+00 0.64278634E+03</pdfrwt>
<pdfrwt beam="2">0</pdfrwt>
<totfact> 0.17127411E+00</totfact>
</mgrwt>
</event>
<event>
 6    1  0.5828552E-003  0.6426128E+03  0.7818608E-02  0.9820740E-01
          1   -1    0    0  502    0  0.00000000000E+00  0.00000000000E+00  0.10323868020E+03  0.10323868020E+03  0.00000000000E+00 0.  1.
         13   -1    0    0    0    0 -0.00000000000E+00 -0.00000000000E+00 -0.10000000000E+04  0.10000000000E+04  0.00000000000E+00 0.  1.
    9000005    2    1    2  501    0 -0.13466840121E-03  0.32396263578E-04 -0.89676219739E+03  0.11032377918E+04  0.64261278114E+03 0.  0.
         13    1    3    3    0    0  0.30514840551E+02  0.31978025074E+03 -0.43658148301E+03  0.54202763358E+03  0.00000000000E+00 0.  1.
          1    1    3    3  501    0 -0.30514975219E+02 -0.31978021834E+03 -0.46018071437E+03  0.56121015817E+03  0.00000000000E+00 0.  1.
         21    1    1    2  502  501  0.13466840121E-03 -0.32396263600E-04  0.87759001155E-03  0.88845333280E-03  0.00000000000E+00 0.  1.
<mgrwt>
<rscale>  1 0.64261278E+03</rscale>
<asrwt>0</asrwt>
<pdfrwt beam="1">  1        1 0.37541417E+00 0.64261278E+03</pdfrwt>
<pdfrwt beam="2">0</pdfrwt>
<totfact> 0.17214793E+00</totfact>
</mgrwt>
</event>
<event>
 6    1  0.5828552E-003  0.6367158E+03  0.7818608E-02  0.9832030E-01
          1   -1    0    0  502    0  0.00000000000E+00  0.00000000000E+00  0.10135176382E+03  0.10135176382E+03  0.00000000000E+00 0.  1.
         13   -1    0    0    0    0 -0.00000000000E+00 -0.00000000000E+00 -0.10000000000E+04  0.10000000000E+04  0.00000000000E+00 0.  1.
    9000005    2    1    2  501    0  0.49105368021E-05  0.88200126811E-05 -0.89864822842E+03  0.11013517511E+04  0.63671582451E+03 0.  0.
         13    1    3    3    0    0 -0.20292470526E+03  0.17588051885E+03 -0.15354711991E+03  0.30933656581E+03  0.00000000000E+00 0.  1.
          3    1    3    3  501    0  0.20292471017E+03 -0.17588051003E+03 -0.74510110850E+03  0.79201518527E+03  0.00000000000E+00 0.  1.
         21    1    1    2  502  501 -0.49105368267E-05 -0.88200126959E-05 -0.77644751667E-05  0.12735504328E-04  0.00000000000E+00 0. -1.
<mgrwt>
<rscale>  1 0.63671582E+03</rscale>
<asrwt>0</asrwt>
<pdfrwt beam="1">  1        1 0.36855265E+00 0.63671582E+03</pdfrwt>
<pdfrwt beam="2">0</pdfrwt>
<totfact> 0.18472723E+00</totfact>
</mgrwt>
</event>
<event>
 6    1  0.5828552E-003  0.6526888E+03  0.7818608E-02  0.9801747E-01
          1   -1    0    0  502    0  0.00000000000E+00  0.00000000000E+00  0.10700679448E+03  0.10700679448E+03  0.00000000000E+00 0.  1.
         13   -1    0    0    0    0 -0.00000000000E+00 -0.00000000000E+00 -0.10000000000E+04  0.10000000000E+04  0.00000000000E+00 0.  1.
    9000005    2    1    2  501    0  0.84844845352E-03  0.16320331066E+00 -0.89348473265E+03  0.11064888804E+04  0.65268878372E+03 0.  0.
         13    1    3    3    0    0 -0.11902106921E+03  0.27054442112E+03 -0.68164396102E+03  0.74296620940E+03  0.00000000000E+00 0.  1.
          1    1    3    3  501    0  0.11902191766E+03 -0.27038121781E+03 -0.21184077164E+03  0.36352267103E+03  0.00000000000E+00 0.  1.
         21    1    1    2  502  501 -0.84844845352E-03 -0.16320331066E+00  0.49152713034E+00  0.51791404725E+00  0.00000000000E+00 0.  1.
<mgrwt>
<rscale>  1 0.65268880E+03</rscale>
<asrwt>0</asrwt>
<pdfrwt beam="1">  1        1 0.38911644E+00 0.65268880E+03</pdfrwt>
<pdfrwt beam="2">0</pdfrwt>
<totfact> 0.14947524E+00</totfact>
</mgrwt>
</event>
<event>
 6    1  0.5828552E-003  0.6338139E+03  0.7818608E-02  0.9837634E-01
          1   -1    0    0  502    0  0.00000000000E+00  0.00000000000E+00  0.10043033955E+03  0.10043033955E+03  0.00000000000E+00 0.  1.
         13   -1    0    0    0    0 -0.00000000000E+00 -0.00000000000E+00 -0.10000000000E+04  0.10000000000E+04  0.00000000000E+00 0.  1.
    9000005    2    1    2  501    0 -0.32584354955E-04 -0.41163623564E-04 -0.89956997309E+03  0.11004300225E+04  0.63381393013E+03 0.  0.
         13    1    3    3    0    0 -0.28443709375E+02 -0.29820037723E+03 -0.27021146582E+03  0.40341882188E+03  0.00000000000E+00 0.  1.
          1    1    3    3  501    0  0.28443676791E+02  0.29820033607E+03 -0.62935850726E+03  0.69701120066E+03  0.00000000000E+00 0.  1.
         21    1    1    2  502  501  0.32584354955E-04  0.41163623555E-04  0.31263616618E-03  0.31701349576E-03  0.00000000000E+00 0.  1.
<mgrwt>
<rscale>  1 0.63381393E+03</rscale>
<asrwt>0</asrwt>
<pdfrwt beam="1">  1        1 0.36520200E+00 0.63381393E+03</pdfrwt>
<pdfrwt beam="2">0</pdfrwt>
<totfact> 0.19118566E+00</totfact>
</mgrwt>
</event>
<event>
 6    1  0.5828552E-003  0.6434441E+03  0.7818608E-02  0.9819159E-01
          1   -1    0    0  502    0  0.00000000000E+00  0.00000000000E+00  0.10350507793E+03  0.10350507793E+03  0.00000000000E+00 0.  1.
         13   -1    0    0    0    0 -0.00000000000E+00 -0.00000000000E+00 -0.10000000000E+04  0.10000000000E+04  0.00000000000E+00 0.  1.
    9000005    2    1    2  501    0 -0.15281826364E-05  0.20924286446E-05 -0.89649493723E+03  0.11035050626E+04  0.64344405398E+03 0.  0.
         13    1    3    3    0    0 -0.12537570729E+03  0.28335735004E+03 -0.29977771646E+03  0.43113470643E+03  0.00000000000E+00 0.  1.
          3    1    3    3  501    0  0.12537570576E+03 -0.28335734795E+03 -0.59671722077E+03  0.67237035612E+03  0.00000000000E+00 0.  1.
         21    1    1    2  502  501  0.15281826361E-05 -0.20924286107E-05  0.15152700410E-04  0.15372635733E-04  0.00000000000E+00 0.  1.
<mgrwt>
<rscale>  1 0.64344405E+03</rscale>
<asrwt>0</asrwt>
<pdfrwt beam="1">  1        1 0.37638290E+00 0.64344405E+03</pdfrwt>
<pdfrwt beam="2">0</pdfrwt>
<totfact> 0.17043934E+00</totfact>
</mgrwt>
</event>
<event>
 6    1  0.5828552E-003  0.6452870E+03  0.7818608E-02  0.9815663E-01
          1   -1    0    0  502    0  0.00000000000E+00  0.00000000000E+00  0.10410364762E+03  0.10410364762E+03  0.00000000000E+00 0.  1.
         13   -1    0    0    0    0 -0.00000000000E+00 -0.00000000000E+00 -0.10000000000E+04  0.10000000000E+04  0.00000000000E+00 0.  1.
    9000005    2    1    2  501    0 -0.80492358087E-04 -0.22166356763E-03 -0.89590115851E+03  0.11040988357E+04  0.64528703163E+03 0.  0.
         13    1    3    3    0    0 -0.22563422090E+02  0.29693295961E+03 -0.23547731233E+03  0.37964174579E+03  0.00000000000E+00 0.  1.
          3    1    3    3  501    0  0.22563341598E+02 -0.29693318128E+03 -0.66042384618E+03  0.72445708992E+03  0.00000000000E+00 0.  1.
         21    1    1    2  502  501  0.80492358086E-04  0.22166356765E-03  0.48061332125E-02  0.48119154412E-02  0.00000000000E+00 0. -1.
<mgrwt>
<rscale>  1 0.64528703E+03</rscale>
<asrwt>0</asrwt>
<pdfrwt beam="1">  1        1 0.37855952E+00 0.64528703E+03</pdfrwt>
<pdfrwt beam="2">0</pdfrwt>
<totfact> 0.16665984E+00</totfact>
</mgrwt>
</event>
<event>
 6    1  0.5828552E-003  0.6526550E+03  0.7818608E-02  0.9801810E-01
          1   -1    0    0  502    0  0.00000000000E+00  0.00000000000E+00  0.10649274231E+03  0.10649274231E+03  0.00000000000E+00 0.  1.
         13   -1    0    0    0    0 -0.00000000000E+00 -0.00000000000E+00 -0.10000000000E+04  0.10000000000E+04  0.00000000000E+00 0.  1.
    9000005    2    1    2  501    0  0.49349342213E-05  0.24509891904E-03 -0.89351037327E+03  0.11064896171E+04  0.65265495141E+03 0.  0.
         13    1    3    3    0    0  0.21665596327E+02  0.19934230976E+03 -0.10275128757E+02  0.20077931366E+03  0.00000000000E+00 0.  1.
          3    1    3    3  501    0 -0.21665591392E+02 -0.19934206466E+03 -0.88323524452E+03  0.90571030343E+03  0.00000000000E+00 0.  1.
         21    1    1    2  502  501 -0.49349342206E-05 -0.24509891902E-03  0.31155830259E-02  0.31252128607E-02  0.00000000000E+00 0.  1.
<mgrwt>
<rscale>  1 0.65265495E+03</rscale>
<asrwt>0</asrwt>
<pdfrwt beam="1">  1        1 0.38724715E+00 0.65265495E+03</pdfrwt>
<pdfrwt beam="2">0</pdfrwt>
<totfact> 0.15235396E+00</totfact>
</mgrwt>
</event>
<event>
 6    1  0.5828552E-003  0.6708434E+03  0.7818608E-02  0.9768435E-01
          1   -1    0    0  502    0  0.00000000000E+00  0.00000000000E+00  0.11250806738E+03  0.11250806738E+03  0.00000000000E+00 0.  1.
         13   -1    0    0    0    0 -0.00000000000E+00 -0.00000000000E+00 -0.10000000000E+04  0.10000000000E+04  0.00000000000E+00 0.  1.
    9000005    2    1    2  501    0  0.51431093766E-05 -0.21475459356E-04 -0.88749228616E+03  0.11125077131E+04  0.67084338993E+03 0.  0.
         13    1    3    3    0    0 -0.29811462128E+03 -0.44381885792E+02 -0.68784603187E+03  0.75098218538E+03  0.00000000000E+00 0.  1.
          3    1    3    3  501    0  0.29811462643E+03  0.44381864317E+02 -0.19964625430E+03  0.36152552776E+03  0.00000000000E+00 0.  1.
         21    1    1    2  502  501 -0.51431093779E-05  0.21475459351E-04  0.35354435678E-03  0.35423333996E-03  0.00000000000E+00 0. -1.
<mgrwt>
<rscale>  1 0.67084339E+03</rscale>
<asrwt>0</asrwt>
<pdfrwt beam="1">  1        1 0.40912111E+00 0.67084339E+03</pdfrwt>
<pdfrwt beam="2">0</pdfrwt>
<totfact> 0.12131852E+00</totfact>
</mgrwt>
</event>
<event>
 6    1  0.5828552E-003  0.6480457E+03  0.7818608E-02  0.9810453E-01
          1   -1    0    0  502    0  0.00000000000E+00  0.00000000000E+00  0.10499899407E+03  0.10499899407E+03  0.00000000000E+00 0.  1.
         13   -1    0    0    0    0 -0.00000000000E+00 -0.00000000000E+00 -0.10000000000E+04  0.10000000000E+04  0.00000000000E+00 0.  1.
    9000005    2    1    2  501    0  0.10047354547E-03  0.69214930227E-03 -0.89500918618E+03  0.11049907840E+04  0.64804566916E+03 0.  0.
         13    1    3    3    0    0  0.15343001036E+03 -0.28524694155E+03 -0.46313457006E+03  0.56515503689E+03  0.00000000000E+00 0.  1.
          1    1    3    3  501    0 -0.15342990988E+03  0.28524763370E+03 -0.43187461612E+03  0.53983574708E+03  0.00000000000E+00 0.  1.
         21    1    1    2  502  501 -0.10047354550E-03 -0.69214930227E-03  0.81802526513E-02  0.82100973824E-02  0.00000000000E+00 0.  1.
<mgrwt>
<rscale>  1 0.64804567E+03</rscale>
<asrwt>0</asrwt>
<pdfrwt beam="1">  1        1 0.38181533E+00 0.64804567E+03</pdfrwt>
<pdfrwt beam="2">0</pdfrwt>
<totfact> 0.16115505E+00</totfact>
</mgrwt>
</event>
<event>
 6    1  0.5828552E-003  0.6349143E+03  0.7818608E-02  0.9835506E-01
          1   -1    0    0  502    0  0.00000000000E+00  0.00000000000E+00  0.10077906121E+03  0.10077906121E+03  0.00000000000E+00 0.  1.
         13   -1    0    0    0    0 -0.00000000000E+00 -0.00000000000E+00 -0.10000000000E+04  0.10000000000E+04  0.00000000000E+00 0.  1.
    9000005    2    1    2  501    0  0.11031918348E-05  0.14507598536E-05 -0.89922095089E+03  0.11007790490E+04  0.63491432189E+03 0.  0.
         13    1    3    3    0    0  0.26293763444E+03 -0.92134102236E+02 -0.18579545677E+03  0.33488034304E+03  0.00000000000E+00 0.  1.
          1    1    3    3  501    0 -0.26293763333E+03  0.92134103687E+02 -0.71342549412E+03  0.76589870593E+03  0.00000000000E+00 0.  1.
         21    1    1    2  502  501 -0.11031918754E-05 -0.14507598533E-05  0.12105838283E-04  0.12242265191E-04  0.00000000000E+00 0. -1.
<mgrwt>
<rscale>  1 0.63491432E+03</rscale>
<asrwt>0</asrwt>
<pdfrwt beam="1">  1        1 0.36647009E+00 0.63491432E+03</pdfrwt>
<pdfrwt beam="2">0</pdfrwt>
<totfact> 0.18871631E+00</totfact>
</mgrwt>
</event>
<event>
 6    1  0.5828552E-003  0.6329996E+03  0.7818608E-02  0.9839213E-01
          1   -1    0    0  502    0  0.00000000000E+00  0.00000000000E+00  0.10078359042E+03  0.10078359042E+03  0.00000000000E+00 0.  1.
         13   -1    0    0    0    0 -0.00000000000E+00 -0.00000000000E+00 -0.10000000000E+04  0.10000000000E+04  0.00000000000E+00 0.  1.
    9000005    2    1    2  501    0 -0.23015388361E+00 -0.35965932803E+00 -0.89974482347E+03  0.11001042180E+04  0.63299949509E+03 0.  0.
         13    1    3    3    0    0  0.19153495018E+03  0.58589940254E+02 -0.24064467790E+02  0.20173625567E+03  0.00000000000E+00 0.  1.
          1    1    3    3  501    0 -0.19176510407E+03 -0.58949599582E+02 -0.87568035568E+03  0.89836796234E+03  0.00000000000E+00 0.  1.
         21    1    1    2  502  501  0.23015388361E+00  0.35965932803E+00  0.52841389162E+00  0.67937241866E+00  0.00000000000E+00 0.  1.
<mgrwt>
<rscale>  1 0.63299964E+03</rscale>
<asrwt>0</asrwt>
<pdfrwt beam="1">  1        1 0.36648656E+00 0.63299964E+03</pdfrwt>
<pdfrwt beam="2">0</pdfrwt>
<totfact> 0.18875061E+00</totfact>
</mgrwt>
</event>
<event>
 6    1  0.5828552E-003  0.6432678E+03  0.7818608E-02  0.9819494E-01
          1   -1    0    0  502    0  0.00000000000E+00  0.00000000000E+00  0.10345437514E+03  0.10345437514E+03  0.00000000000E+00 0.  1.
         13   -1    0    0    0    0 -0.00000000000E+00 -0.00000000000E+00 -0.10000000000E+04  0.10000000000E+04  0.00000000000E+00 0.  1.
    9000005    2    1    2  501    0 -0.32583845148E-03 -0.22033388236E-02 -0.89655142213E+03  0.11034481647E+04  0.64326775120E+03 0.  0.
         13    1    3    3    0    0  0.28936463048E+02  0.29809628458E+03 -0.24713575315E+03  0.38829730138E+03  0.00000000000E+00 0.  1.
          1    1    3    3  501    0 -0.28936788886E+02 -0.29809848791E+03 -0.64941566897E+03  0.71515086335E+03  0.00000000000E+00 0.  1.
         21    1    1    2  502  501  0.32583845148E-03  0.22033388237E-02  0.57972684434E-02  0.62104101373E-02  0.00000000000E+00 0.  1.
<mgrwt>
<rscale>  1 0.64326775E+03</rscale>
<asrwt>0</asrwt>
<pdfrwt beam="1">  1        1 0.37619852E+00 0.64326775E+03</pdfrwt>
<pdfrwt beam="2">0</pdfrwt>
<totfact> 0.17076384E+00</totfact>
</mgrwt>
</event>
<event>
 6    1  0.5828552E-003  0.6484978E+03  0.7818608E-02  0.9809602E-01
          1   -1    0    0  502    0  0.00000000000E+00  0.00000000000E+00  0.10513758559E+03  0.10513758559E+03  0.00000000000E+00 0.  1.
         13   -1    0    0    0    0 -0.00000000000E+00 -0.00000000000E+00 -0.10000000000E+04  0.10000000000E+04  0.00000000000E+00 0.  1.
    9000005    2    1    2  501    0  0.76559728143E-04  0.20543046017E-03 -0.89486258256E+03  0.11051373093E+04  0.64849782632E+03 0.  0.
         13    1    3    3    0    0  0.26060366789E+03 -0.15351187652E+03 -0.24827764730E+03  0.39130800924E+03  0.00000000000E+00 0.  1.
          1    1    3    3  501    0 -0.26060359133E+03  0.15351208195E+03 -0.64658493526E+03  0.71382930006E+03  0.00000000000E+00 0.  1.
         21    1    1    2  502  501 -0.76559728104E-04 -0.20543046016E-03  0.16814332666E-03  0.27628833532E-03  0.00000000000E+00 0.  1.
<mgrwt>
<rscale>  1 0.64849783E+03</rscale>
<asrwt>0</asrwt>
<pdfrwt beam="1">  1        1 0.38231930E+00 0.64849783E+03</pdfrwt>
<pdfrwt beam="2">0</pdfrwt>
<totfact> 0.16031785E+00</totfact>
</mgrwt>
</event>
<event>
 6    1  0.5828552E-003  0.6523813E+03  0.7818608E-02  0.9802321E-01
          1   -1    0    0  502    0  0.00000000000E+00  0.00000000000E+00  0.10656124051E+03  0.10656124051E+03  0.00000000000E+00 0.  1.
         13   -1    0    0    0    0 -0.00000000000E+00 -0.00000000000E+00 -0.10000000000E+04  0.10000000000E+04  0.00000000000E+00 0.  1.
    9000005    2    1    2  501    0 -0.64106943317E-01  0.20988433293E-01 -0.89359180414E+03  0.11063939896E+04  0.65238128664E+03 0.  0.
         13    1    3    3    0    0 -0.74060328716E+02  0.31595844758E+03 -0.50299177837E+03  0.59859452219E+03  0.00000000000E+00 0.  1.
          1    1    3    3  501    0  0.73996221773E+02 -0.31593745915E+03 -0.39060002578E+03  0.50779946737E+03  0.00000000000E+00 0.  1.
         21    1    1    2  502  501  0.64106943317E-01 -0.20988433293E-01  0.15304465642E+00  0.16725095328E+00  0.00000000000E+00 0.  1.
<mgrwt>
<rscale>  1 0.65238129E+03</rscale>
<asrwt>0</asrwt>
<pdfrwt beam="1">  1        1 0.38749624E+00 0.65238129E+03</pdfrwt>
<pdfrwt beam="2">0</pdfrwt>
<totfact> 0.15197516E+00</totfact>
</mgrwt>
</event>
<event>
 6    1  0.5828552E-003  0.6497617E+03  0.7818608E-02  0.9807226E-01
          1   -1    0    0  502    0  0.00000000000E+00  0.00000000000E+00  0.10555264456E+03  0.10555264456E+03  0.00000000000E+00 0.  1.
         13   -1    0    0    0    0 -0.00000000000E+00 -0.00000000000E+00 -0.10000000000E+04  0.10000000000E+04  0.00000000000E+00 0.  1.
    9000005    2    1    2  501    0 -0.80271560976E-02 -0.40433681397E-02 -0.89444757914E+03  0.11055436538E+04  0.64976172440E+03 0.  0.
         13    1    3    3    0    0  0.21887059001E+03 -0.69975719772E+02 -0.56457972706E+02  0.23661876344E+03  0.00000000000E+00 0.  1.
          3    1    3    3  501    0 -0.21887861717E+03  0.69971676404E+02 -0.83798960643E+03  0.86892489033E+03  0.00000000000E+00 0.  1.
         21    1    1    2  502  501  0.80271560976E-02  0.40433681397E-02  0.22369344846E-03  0.89907785918E-02  0.00000000000E+00 0. -1.
<mgrwt>
<rscale>  1 0.64976172E+03</rscale>
<asrwt>0</asrwt>
<pdfrwt beam="1">  1        1 0.38382861E+00 0.64976172E+03</pdfrwt>
<pdfrwt beam="2">0</pdfrwt>
<totfact> 0.15783784E+00</totfact>
</mgrwt>
</event>
<event>
 6    1  0.5828552E-003  0.6578608E+03  0.7818608E-02  0.9792140E-01
          1   -1    0    0  502    0  0.00000000000E+00  0.00000000000E+00  0.10886384799E+03  0.10886384799E+03  0.00000000000E+00 0.  1.
         13   -1    0    0    0    0 -0.00000000000E+00 -0.00000000000E+00 -0.10000000000E+04  0.10000000000E+04  0.00000000000E+00 0.  1.
    9000005    2    1    2  501    0 -0.19576877644E+01  0.46113710799E+00 -0.88793815786E+03  0.11050859709E+04  0.65785772451E+03 0.  0.
         13    1    3    3    0    0  0.21824299174E+03 -0.24404056772E+03 -0.40650682217E+03  0.52195172057E+03  0.00000000000E+00 0.  1.
          3    1    3    3  501    0 -0.22020067951E+03  0.24450170483E+03 -0.48143133569E+03  0.58313425033E+03  0.00000000000E+00 0.  1.
         21    1    1    2  502  501  0.19576877644E+01 -0.46113710799E+00 -0.31979941415E+01  0.37778770949E+01  0.00000000000E+00 0. -1.
<mgrwt>
<rscale>  1 0.65786080E+03</rscale>
<asrwt>0</asrwt>
<pdfrwt beam="1">  1        1 0.39586937E+00 0.65786080E+03</pdfrwt>
<pdfrwt beam="2">0</pdfrwt>
<totfact> 0.13936848E+00</totfact>
</mgrwt>
</event>
<event>
 6    1  0.7654349E-003  0.6563165E+03  0.7818608E-02  0.9794998E-01
          1   -1    0    0  502    0  0.00000000000E+00  0.00000000000E+00  0.10768785099E+03  0.10768785099E+03  0.00000000000E+00 0.  1.
         13   -1    0    0    0    0 -0.00000000000E+00 -0.00000000000E+00 -0.10000000000E+04  0.10000000000E+04  0.00000000000E+00 0.  1.
    9000005    2    1    2  501    0 -0.58942219994E-07  0.59448802858E-06 -0.89231215046E+03  0.11076878494E+04  0.65631653787E+03 0.  0.
         13    1    3    3    0    0 -0.93420103801E+02  0.31343316537E+03 -0.40086360684E+03  0.51735799621E+03  0.00000000000E+00 0.  1.
          3    1    3    3  501    0  0.93420103742E+02 -0.31343316478E+03 -0.49144854362E+03  0.59032985321E+03  0.00000000000E+00 0.  1.
         21    1    1    2  502  501  0.58942232330E-07 -0.59448800791E-06  0.14530710933E-05  0.15710842690E-05  0.00000000000E+00 0.  1.
<mgrwt>
<rscale>  1 0.65631654E+03</rscale>
<asrwt>0</asrwt>
<pdfrwt beam="1">  1        1 0.39159301E+00 0.65631654E+03</pdfrwt>
<pdfrwt beam="2">0</pdfrwt>
<totfact> 0.14564377E+00</totfact>
</mgrwt>
</event>
<event>
 6    1  0.5828552E-003  0.6567086E+03  0.7818608E-02  0.9794272E-01
          1   -1    0    0  502    0  0.00000000000E+00  0.00000000000E+00  0.10781656075E+03  0.10781656075E+03  0.00000000000E+00 0.  1.
         13   -1    0    0    0    0 -0.00000000000E+00 -0.00000000000E+00 -0.10000000000E+04  0.10000000000E+04  0.00000000000E+00 0.  1.
    9000005    2    1    2  501    0 -0.78283166789E-05  0.30566948368E-04 -0.89218344458E+03  0.11078165288E+04  0.65670858270E+03 0.  0.
         13    1    3    3    0    0 -0.33557065331E+01 -0.23812893486E+03 -0.82742533174E+03  0.86101645163E+03  0.00000000000E+00 0.  1.
          3    1    3    3  501    0  0.33556987048E+01  0.23812896542E+03 -0.64758112843E+02  0.24680007712E+03  0.00000000000E+00 0.  1.
         21    1    1    2  502  501  0.78283166787E-05 -0.30566948381E-04  0.53283497787E-05  0.32000190417E-04  0.00000000000E+00 0.  1.
<mgrwt>
<rscale>  1 0.65670858E+03</rscale>
<asrwt>0</asrwt>
<pdfrwt beam="1">  1        1 0.39206105E+00 0.65670858E+03</pdfrwt>
<pdfrwt beam="2">0</pdfrwt>
<totfact> 0.14493811E+00</totfact>
</mgrwt>
</event>
<event>
 6    1  0.5828552E-003  0.6159919E+03  0.7818608E-02  0.9872772E-01
          1   -1    0    0  502    0  0.00000000000E+00  0.00000000000E+00  0.95061377741E+02  0.95061377741E+02  0.00000000000E+00 0.  1.
         13   -1    0    0    0    0 -0.00000000000E+00 -0.00000000000E+00 -0.10000000000E+04  0.10000000000E+04  0.00000000000E+00 0.  1.
    9000005    2    1    2  501    0  0.42815447583E-02 -0.91612090993E-02 -0.90513835519E+03  0.10948613890E+04  0.61599189843E+03 0.  0.
         13    1    3    3    0    0 -0.48253959298E+02 -0.43334273332E+02  0.82587057583E+02  0.10500917062E+03  0.00000000000E+00 0.  1.
          1    1    3    3  501    0  0.48258240843E+02  0.43325112123E+02 -0.98772541278E+03  0.98985221836E+03  0.00000000000E+00 0.  1.
         21    1    1    2  502  501 -0.42815447583E-02  0.91612090993E-02  0.19973293588E+00  0.19998876232E+00  0.00000000000E+00 0. -1.
<mgrwt>
<rscale>  1 0.61599190E+03</rscale>
<asrwt>0</asrwt>
<pdfrwt beam="1">  1        1 0.34567847E+00 0.61599190E+03</pdfrwt>
<pdfrwt beam="2">0</pdfrwt>
<totfact> 0.23339391E+00</totfact>
</mgrwt>
</event>
<event>
 6    1  0.5828552E-003  0.6484145E+03  0.7818608E-02  0.9809759E-01
          1   -1    0    0  502    0  0.00000000000E+00  0.00000000000E+00  0.10512545617E+03  0.10512545617E+03  0.00000000000E+00 0.  1.
         13   -1    0    0    0    0 -0.00000000000E+00 -0.00000000000E+00 -0.10000000000E+04  0.10000000000E+04  0.00000000000E+00 0.  1.
    9000005    2    1    2  501    0 -0.12277951587E-01  0.23122520441E-01 -0.89487592350E+03  0.11050992397E+04  0.64841453598E+03 0.  0.
         13    1    3    3    0    0 -0.13558136701E+02  0.29894935317E+03 -0.23483812691E+03  0.38039911236E+03  0.00000000000E+00 0.  1.
          1    1    3    3  501    0  0.13545858749E+02 -0.29892623065E+03 -0.66003779659E+03  0.72470012736E+03  0.00000000000E+00 0.  1.
         21    1    1    2  502  501  0.12277951587E-01 -0.23122520441E-01  0.13796774140E-02  0.26216455834E-01  0.00000000000E+00 0.  1.
<mgrwt>
<rscale>  1 0.64841454E+03</rscale>
<asrwt>0</asrwt>
<pdfrwt beam="1">  1        1 0.38227519E+00 0.64841454E+03</pdfrwt>
<pdfrwt beam="2">0</pdfrwt>
<totfact> 0.16039224E+00</totfact>
</mgrwt>
</event>
<event>
 6    1  0.5828552E-003  0.6480737E+03  0.7818608E-02  0.9810400E-01
          1   -1    0    0  502    0  0.00000000000E+00  0.00000000000E+00  0.10500160837E+03  0.10500160837E+03  0.00000000000E+00 0.  1.
         13   -1    0    0    0    0 -0.00000000000E+00 -0.00000000000E+00 -0.10000000000E+04  0.10000000000E+04  0.00000000000E+00 0.  1.
    9000005    2    1    2  501    0  0.27315177778E-03  0.30857137842E-03 -0.89500009714E+03  0.11049998538E+04  0.64807368636E+03 0.  0.
         13    1    3    3    0    0 -0.30897444938E+03  0.21385542631E+02 -0.28505168851E+03  0.42092400375E+03  0.00000000000E+00 0.  1.
          1    1    3    3  501    0  0.30897472253E+03 -0.21385234060E+02 -0.60994840863E+03  0.68407585003E+03  0.00000000000E+00 0.  1.
         21    1    1    2  502  501 -0.27315177781E-03 -0.30857137842E-03  0.17055105410E-02  0.17545923729E-02  0.00000000000E+00 0. -1.
<mgrwt>
<rscale>  1 0.64807369E+03</rscale>
<asrwt>0</asrwt>
<pdfrwt beam="1">  1        1 0.38182484E+00 0.64807369E+03</pdfrwt>
<pdfrwt beam="2">0</pdfrwt>
<totfact> 0.16113865E+00</totfact>
</mgrwt>
</event>
<event>
 6    1  0.5828552E-003  0.6435023E+03  0.7818608E-02  0.9819049E-01
          1   -1    0    0  502    0  0.00000000000E+00  0.00000000000E+00  0.10354280418E+03  0.10354280418E+03  0.00000000000E+00 0.  1.
         13   -1    0    0    0    0 -0.00000000000E+00 -0.00000000000E+00 -0.10000000000E+04  0.10000000000E+04  0.00000000000E+00 0.  1.
    9000005    2    1    2  501    0 -0.73171606505E-02 -0.23411966192E-01 -0.89646704991E+03  0.11035163700E+04  0.64350229741E+03 0.  0.
         13    1    3    3    0    0  0.26057424526E+03 -0.92698294767E+02 -0.73018208586E+03  0.78080585913E+03  0.00000000000E+00 0.  1.
          3    1    3    3  501    0 -0.26058156243E+03  0.92674882801E+02 -0.16628496405E+03  0.32271051090E+03  0.00000000000E+00 0.  1.
         21    1    1    2  502  501  0.73171606504E-02  0.23411966191E-01  0.98540879604E-02  0.26434145541E-01  0.00000000000E+00 0.  1.
<mgrwt>
<rscale>  1 0.64350230E+03</rscale>
<asrwt>0</asrwt>
<pdfrwt beam="1">  1        1 0.37652008E+00 0.64350230E+03</pdfrwt>
<pdfrwt beam="2">0</pdfrwt>
<totfact> 0.17020054E+00</totfact>
</mgrwt>
</event>
<event>
 6    1  0.5828552E-003  0.6509031E+03  0.7818608E-02  0.9805086E-01
          1   -1    0    0  502    0  0.00000000000E+00  0.00000000000E+00  0.12358217174E+03  0.12358217174E+03  0.00000000000E+00 0.  1.
         13   -1    0    0    0    0 -0.00000000000E+00 -0.00000000000E+00 -0.10000000000E+04  0.10000000000E+04  0.00000000000E+00 0.  1.
    9000005    2    1    2  501    0 -0.21489063863E+01 -0.99680565277E+00 -0.89399340265E+03  0.11058476789E+04  0.65089881977E+03 0.  0.
         13    1    3    3    0    0 -0.24307775442E+03  0.11676913161E+03 -0.75927087293E+03  0.80573822254E+03  0.00000000000E+00 0.  1.
          1    1    3    3  501    0  0.24092884803E+03 -0.11776593726E+03 -0.13472252972E+03  0.30010945638E+03  0.00000000000E+00 0.  1.
         21    1    1    2  502  501  0.21489063863E+01  0.99680565277E+00  0.17575574391E+02  0.17734492813E+02  0.00000000000E+00 0. -1.
<mgrwt>
<rscale>  1 0.65090313E+03</rscale>
<asrwt>0</asrwt>
<pdfrwt beam="1">  1        1 0.44939066E+00 0.65090313E+03</pdfrwt>
<pdfrwt beam="2">0</pdfrwt>
<totfact> 0.79947628E-01</totfact>
</mgrwt>
</event>
<event>
 6    1  0.5828552E-003  0.6495397E+03  0.7818608E-02  0.9807643E-01
          3   -1    0    0  502    0  0.00000000000E+00  0.00000000000E+00  0.10547548600E+03  0.10547548600E+03  0.00000000000E+00 0.  1.
         13   -1    0    0    0    0 -0.00000000000E+00 -0.00000000000E+00 -0.10000000000E+04  0.10000000000E+04  0.00000000000E+00 0.  1.
    9000005    2    1    2  501    0 -0.91861210194E-06 -0.10469572464E-03 -0.89452446546E+03  0.11054753706E+04  0.64953966446E+03 0.  0.
         13    1    3    3    0    0 -0.31469833173E+02 -0.14007651847E+03  0.48535219029E+02  0.15155015312E+03  0.00000000000E+00 0.  1.
          1    1    3    3  501    0  0.31469832254E+02  0.14007641377E+03 -0.94305968449E+03  0.95392521748E+03  0.00000000000E+00 0.  1.
         21    1    1    2  502  501  0.91861210284E-06  0.10469572463E-03 -0.48536107827E-04  0.11540273986E-03  0.00000000000E+00 0.  1.
<mgrwt>
<rscale>  1 0.64953966E+03</rscale>
<asrwt>0</asrwt>
<pdfrwt beam="1">  1        3 0.38354803E+00 0.64953966E+03</pdfrwt>
<pdfrwt beam="2">0</pdfrwt>
<totfact> 0.72298782E-02</totfact>
</mgrwt>
</event>
<event>
 6    1  0.5828552E-003  0.6300386E+03  0.7818608E-02  0.9844974E-01
          1   -1    0    0  502    0  0.00000000000E+00  0.00000000000E+00  0.99470053550E+02  0.99470053550E+02  0.00000000000E+00 0.  1.
         13   -1    0    0    0    0 -0.00000000000E+00 -0.00000000000E+00 -0.10000000000E+04  0.10000000000E+04  0.00000000000E+00 0.  1.
    9000005    2    1    2  501    0  0.31742733841E+00  0.45989678339E+00 -0.90031746210E+03  0.10988722118E+04  0.63003832663E+03 0.  0.
         13    1    3    3    0    0 -0.28834426912E+03 -0.25402567175E+02 -0.66598664133E+03  0.72617209695E+03  0.00000000000E+00 0.  1.
          1    1    3    3  501    0  0.28866169646E+03  0.25862463958E+02 -0.23433082077E+03  0.37270011485E+03  0.00000000000E+00 0.  1.
         21    1    1    2  502  501 -0.31742733841E+00 -0.45989678339E+00 -0.21248435352E+00  0.59784175752E+00  0.00000000000E+00 0. -1.
<mgrwt>
<rscale>  1 0.63003857E+03</rscale>
<asrwt>0</asrwt>
<pdfrwt beam="1">  1        1 0.36171005E+00 0.63003857E+03</pdfrwt>
<pdfrwt beam="2">0</pdfrwt>
<totfact> 0.19817340E+00</totfact>
</mgrwt>
</event>
<event>
 6    1  0.5828552E-003  0.6494095E+03  0.7818608E-02  0.9807888E-01
          1   -1    0    0  502    0  0.00000000000E+00  0.00000000000E+00  0.10567142620E+03  0.10567142620E+03  0.00000000000E+00 0.  1.
         13   -1    0    0    0    0 -0.00000000000E+00 -0.00000000000E+00 -0.10000000000E+04  0.10000000000E+04  0.00000000000E+00 0.  1.
    9000005    2    1    2  501    0  0.79843572195E-02  0.30310311557E-02 -0.89456673283E+03  0.11054331141E+04  0.64940952425E+03 0.  0.
         13    1    3    3    0    0 -0.60819504481E+02 -0.26365523677E+03 -0.75282094683E+03  0.79997029569E+03  0.00000000000E+00 0.  1.
          3    1    3    3  501    0  0.60827488838E+02  0.26365826780E+03 -0.14174578600E+03  0.30546281840E+03  0.00000000000E+00 0.  1.
         21    1    1    2  502  501 -0.79843572195E-02 -0.30310311557E-02  0.23815902767E+00  0.23831210538E+00  0.00000000000E+00 0. -1.
<mgrwt>
<rscale>  1 0.64940952E+03</rscale>
<asrwt>0</asrwt>
<pdfrwt beam="1">  1        1 0.38426054E+00 0.64940952E+03</pdfrwt>
<pdfrwt beam="2">0</pdfrwt>
<totfact> 0.15715555E+00</totfact>
</mgrwt>
</event>
<event>
 6    1  0.5828552E-003  0.6112503E+03  0.7818608E-02  0.9882336E-01
          1   -1    0    0  502    0  0.00000000000E+00  0.00000000000E+00  0.93420400643E+02  0.93420400643E+02  0.00000000000E+00 0.  1.
         13   -1    0    0    0    0 -0.00000000000E+00 -0.00000000000E+00 -0.10000000000E+04  0.10000000000E+04  0.00000000000E+00 0.  1.
    9000005    2    1    2  501    0  0.19585904925E-02 -0.17175560839E-01 -0.90658706877E+03  0.10934015691E+04  0.61125025783E+03 0.  0.
         13    1    3    3    0    0 -0.11401869154E+02  0.30286634002E+03 -0.38300436045E+03  0.48841617773E+03  0.00000000000E+00 0.  1.
          3    1    3    3  501    0  0.11403827744E+02 -0.30288351558E+03 -0.52358270831E+03  0.60498539135E+03  0.00000000000E+00 0.  1.
         21    1    1    2  502  501 -0.19585904925E-02  0.17175560839E-01  0.74694106881E-02  0.18831570908E-01  0.00000000000E+00 0. -1.
<mgrwt>
<rscale>  1 0.61125026E+03</rscale>
<asrwt>0</asrwt>
<pdfrwt beam="1">  1        1 0.33971126E+00 0.61125026E+03</pdfrwt>
<pdfrwt beam="2">0</pdfrwt>
<totfact> 0.24796716E+00</totfact>
</mgrwt>
</event>
<event>
 6    1  0.5828552E-003  0.6495930E+03  0.7818608E-02  0.9807543E-01
          1   -1    0    0  502    0  0.00000000000E+00  0.00000000000E+00  0.10549277786E+03  0.10549277786E+03  0.00000000000E+00 0.  1.
         13   -1    0    0    0    0 -0.00000000000E+00 -0.00000000000E+00 -0.10000000000E+04  0.10000000000E+04  0.00000000000E+00 0.  1.
    9000005    2    1    2  501    0  0.59926662743E-06  0.61363508763E-06 -0.89450722254E+03  0.11054927769E+04  0.64959303309E+03 0.  0.
         13    1    3    3    0    0  0.28079037492E+03  0.20994946019E+02 -0.72276385216E+03  0.77567493732E+03  0.00000000000E+00 0.  1.
          1    1    3    3  501    0 -0.28079037432E+03 -0.20994945405E+02 -0.17174337038E+03  0.32981783959E+03  0.00000000000E+00 0.  1.
         21    1    1    2  502  501 -0.59926667968E-06 -0.61363508481E-06  0.39947814500E-06  0.94617723446E-06  0.00000000000E+00 0.  1.
<mgrwt>
<rscale>  1 0.64959303E+03</rscale>
<asrwt>0</asrwt>
<pdfrwt beam="1">  1        1 0.38361091E+00 0.64959303E+03</pdfrwt>
<pdfrwt beam="2">0</pdfrwt>
<totfact> 0.15819289E+00</totfact>
</mgrwt>
</event>
<event>
 6    1  0.5828552E-003  0.6474196E+03  0.7818608E-02  0.9811633E-01
          1   -1    0    0  502    0  0.00000000000E+00  0.00000000000E+00  0.10480373805E+03  0.10480373805E+03  0.00000000000E+00 0.  1.
         13   -1    0    0    0    0 -0.00000000000E+00 -0.00000000000E+00 -0.10000000000E+04  0.10000000000E+04  0.00000000000E+00 0.  1.
    9000005    2    1    2  501    0 -0.10360709927E-02  0.45355170170E-03 -0.89521194273E+03  0.11047880165E+04  0.64741960046E+03 0.  0.
         13    1    3    3    0    0 -0.42541020899E+02 -0.31872578058E+03 -0.51127417438E+03  0.60398438974E+03  0.00000000000E+00 0.  1.
          1    1    3    3  501    0  0.42539984828E+02  0.31872623413E+03 -0.38393776835E+03  0.50080362679E+03  0.00000000000E+00 0.  1.
         21    1    1    2  502  501  0.10360709927E-02 -0.45355170169E-03  0.15680786446E-01  0.15721520786E-01  0.00000000000E+00 0. -1.
<mgrwt>
<rscale>  1 0.64741960E+03</rscale>
<asrwt>0</asrwt>
<pdfrwt beam="1">  1        1 0.38110531E+00 0.64741960E+03</pdfrwt>
<pdfrwt beam="2">0</pdfrwt>
<totfact> 0.16234130E+00</totfact>
</mgrwt>
</event>
<event>
 6    1  0.5828552E-003  0.6534898E+03  0.7818608E-02  0.9800253E-01
          1   -1    0    0  502    0  0.00000000000E+00  0.00000000000E+00  0.11431708553E+03  0.11431708553E+03  0.00000000000E+00 0.  1.
         13   -1    0    0    0    0 -0.00000000000E+00 -0.00000000000E+00 -0.10000000000E+04  0.10000000000E+04  0.00000000000E+00 0.  1.
    9000005    2    1    2  501    0  0.68339371026E-01 -0.35557447552E+00 -0.89323297894E+03  0.11067583438E+04  0.65348966766E+03 0.  0.
         13    1    3    3    0    0 -0.11442512564E+03  0.14886754568E+03 -0.89918382486E+03  0.91857836161E+03  0.00000000000E+00 0.  1.
          3    1    3    3  501    0  0.11449346501E+03 -0.14922312015E+03  0.59508459161E+01  0.18817998216E+03  0.00000000000E+00 0.  1.
         21    1    1    2  502  501 -0.68339371026E-01  0.35557447552E+00  0.75500644669E+01  0.75587417559E+01  0.00000000000E+00 0. -1.
<mgrwt>
<rscale>  1 0.65348977E+03</rscale>
<asrwt>0</asrwt>
<pdfrwt beam="1">  1        1 0.41569937E+00 0.65348977E+03</pdfrwt>
<pdfrwt beam="2">0</pdfrwt>
<totfact> 0.11371811E+00</totfact>
</mgrwt>
</event>
<event>
 6    1  0.5828552E-003  0.6441368E+03  0.7818608E-02  0.9817844E-01
          1   -1    0    0  502    0  0.00000000000E+00  0.00000000000E+00  0.10383821061E+03  0.10383821061E+03  0.00000000000E+00 0.  1.
         13   -1    0    0    0    0 -0.00000000000E+00 -0.00000000000E+00 -0.10000000000E+04  0.10000000000E+04  0.00000000000E+00 0.  1.
    9000005    2    1    2  501    0 -0.26270186489E+00  0.17936426611E+00 -0.89547171825E+03  0.11030783541E+04  0.64413675242E+03 0.  0.
         13    1    3    3    0    0 -0.30720586868E+03  0.17951358923E+02 -0.28442775193E+03  0.41904277003E+03  0.00000000000E+00 0.  1.
          1    1    3    3  501    0  0.30694316682E+03 -0.17771994657E+02 -0.61104396631E+03  0.68403558403E+03  0.00000000000E+00 0.  1.
         21    1    1    2  502  501  0.26270186489E+00 -0.17936426611E+00 -0.69007114072E+00  0.75985655819E+00  0.00000000000E+00 0.  1.
<mgrwt>
<rscale>  1 0.64413683E+03</rscale>
<asrwt>0</asrwt>
<pdfrwt beam="1">  1        1 0.37759429E+00 0.64413683E+03</pdfrwt>
<pdfrwt beam="2">0</pdfrwt>
<totfact> 0.16833618E+00</totfact>
</mgrwt>
</event>
<event>
 6    1  0.5828552E-003  0.6657885E+03  0.7818608E-02  0.9777596E-01
          1   -1    0    0  502    0  0.00000000000E+00  0.00000000000E+00  0.11092532262E+03  0.11092532262E+03  0.00000000000E+00 0.  1.
         13   -1    0    0    0    0 -0.00000000000E+00 -0.00000000000E+00 -0.10000000000E+04  0.10000000000E+04  0.00000000000E+00 0.  1.
    9000005    2    1    2  501    0  0.24159630919E-02  0.73943590567E-03 -0.88918140777E+03  0.11108185623E+04  0.66578848180E+03 0.  0.
         13    1    3    3    0    0 -0.29201145623E+03 -0.15921952839E+03 -0.42121896429E+03  0.53670006956E+03  0.00000000000E+00 0.  1.
          3    1    3    3  501    0  0.29201387219E+03  0.15922026783E+03 -0.46796244348E+03  0.57411849277E+03  0.00000000000E+00 0.  1.
         21    1    1    2  502  501 -0.24159630919E-02 -0.73943590568E-03  0.10673038498E+00  0.10676028625E+00  0.00000000000E+00 0.  1.
<mgrwt>
<rscale>  1 0.66578848E+03</rscale>
<asrwt>0</asrwt>
<pdfrwt beam="1">  1        1 0.40336566E+00 0.66578848E+03</pdfrwt>
<pdfrwt beam="2">0</pdfrwt>
<totfact> 0.12885452E+00</totfact>
</mgrwt>
</event>
<event>
 6    1  0.5828552E-003  0.6432344E+03  0.7818608E-02  0.9819558E-01
          1   -1    0    0  502    0  0.00000000000E+00  0.00000000000E+00  0.10344175149E+03  0.10344175149E+03  0.00000000000E+00 0.  1.
         13   -1    0    0    0    0 -0.00000000000E+00 -0.00000000000E+00 -0.10000000000E+04  0.10000000000E+04  0.00000000000E+00 0.  1.
    9000005    2    1    2  501    0 -0.44329247499E-02 -0.37952883792E-02 -0.89655996958E+03  0.11034356673E+04  0.64323439960E+03 0.  0.
         13    1    3    3    0    0  0.25345662977E+03 -0.60349944133E+02 -0.77174068588E+03  0.81453426274E+03  0.00000000000E+00 0.  1.
          1    1    3    3  501    0 -0.25346106270E+03  0.60346148845E+02 -0.12481928370E+03  0.28890140458E+03  0.00000000000E+00 0.  1.
         21    1    1    2  502  501  0.44329247499E-02  0.37952883792E-02  0.17210655040E-02  0.60841681591E-02  0.00000000000E+00 0.  1.
<mgrwt>
<rscale>  1 0.64323440E+03</rscale>
<asrwt>0</asrwt>
<pdfrwt beam="1">  1        1 0.37615262E+00 0.64323440E+03</pdfrwt>
<pdfrwt beam="2">0</pdfrwt>
<totfact> 0.17084440E+00</totfact>
</mgrwt>
</event>
<event>
 6    1  0.7662513E-003  0.5447856E+03  0.7818608E-02  0.1002708E+00
          1   -1    0    0  502    0  0.00000000000E+00  0.00000000000E+00  0.74197864082E+02  0.74197864082E+02  0.00000000000E+00 0.  1.
         13   -1    0    0    0    0 -0.00000000000E+00 -0.00000000000E+00 -0.10000000000E+04  0.10000000000E+04  0.00000000000E+00 0.  1.
    9000005    2    1    2  501    0  0.82634328180E-05  0.22363468588E-04 -0.92580214585E+03  0.10741978383E+04  0.54478562982E+03 0.  0.
         13    1    3    3    0    0 -0.14192124490E+03  0.21457767087E+03 -0.63940170894E+03  0.68921677430E+03  0.00000000000E+00 0.  1.
          1    1    3    3  501    0  0.14192125316E+03 -0.21457764851E+03 -0.28640043691E+03  0.38498106395E+03  0.00000000000E+00 0.  1.
         21    1    1    2  502  501 -0.82634328160E-05 -0.22363468599E-04  0.99273645853E-05  0.25825600037E-04  0.00000000000E+00 0.  1.
<mgrwt>
<rscale>  1 0.54478563E+03</rscale>
<asrwt>0</asrwt>
<pdfrwt beam="1">  1        1 0.26981098E+00 0.54478563E+03</pdfrwt>
<pdfrwt beam="2">0</pdfrwt>
<totfact> 0.50293475E+00</totfact>
</mgrwt>
</event>
<event>
 6    1  0.5828552E-003  0.6357784E+03  0.7818608E-02  0.9833837E-01
          3   -1    0    0  502    0  0.00000000000E+00  0.00000000000E+00  0.10106968246E+03  0.10106968246E+03  0.00000000000E+00 0.  1.
         13   -1    0    0    0    0 -0.00000000000E+00 -0.00000000000E+00 -0.10000000000E+04  0.10000000000E+04  0.00000000000E+00 0.  1.
    9000005    2    1    2  501    0  0.15043530567E-01 -0.22142758606E-02 -0.89894242251E+03  0.11010502469E+04  0.63577839454E+03 0.  0.
         13    1    3    3    0    0  0.12179907852E+03 -0.24102809293E+03 -0.73991756818E+03  0.78765954880E+03  0.00000000000E+00 0.  1.
          1    1    3    3  501    0 -0.12178403499E+03  0.24102587866E+03 -0.15902485433E+03  0.31339069810E+03  0.00000000000E+00 0.  1.
         21    1    1    2  502  501 -0.15043530567E-01  0.22142758606E-02  0.12104975840E-01  0.19435567128E-01  0.00000000000E+00 0.  1.
<mgrwt>
<rscale>  1 0.63577839E+03</rscale>
<asrwt>0</asrwt>
<pdfrwt beam="1">  1        3 0.36752689E+00 0.63577839E+03</pdfrwt>
<pdfrwt beam="2">0</pdfrwt>
<totfact> 0.88073984E-02</totfact>
</mgrwt>
</event>
<event>
 6    1  0.5828552E-003  0.6459434E+03  0.7818608E-02  0.9814421E-01
          1   -1    0    0  502    0  0.00000000000E+00  0.00000000000E+00  0.10431133401E+03  0.10431133401E+03  0.00000000000E+00 0.  1.
         13   -1    0    0    0    0 -0.00000000000E+00 -0.00000000000E+00 -0.10000000000E+04  0.10000000000E+04  0.00000000000E+00 0.  1.
    9000005    2    1    2  501    0 -0.48467130171E-04  0.75000054871E-04 -0.89568928318E+03  0.11043107104E+04  0.64594338225E+03 0.  0.
         13    1    3    3    0    0 -0.10041684769E+03 -0.41105043546E+02 -0.96790748498E+03  0.97397026001E+03  0.00000000000E+00 0.  1.
          3    1    3    3  501    0  0.10041679922E+03  0.41105118546E+02  0.72218201795E+02  0.13034045038E+03  0.00000000000E+00 0.  1.
         21    1    1    2  502  501  0.48467130169E-04 -0.75000054870E-04  0.61719528686E-03  0.62362175480E-03  0.00000000000E+00 0. -1.
<mgrwt>
<rscale>  1 0.64594338E+03</rscale>
<asrwt>0</asrwt>
<pdfrwt beam="1">  1        1 0.37931474E+00 0.64594338E+03</pdfrwt>
<pdfrwt beam="2">0</pdfrwt>
<totfact> 0.16536671E+00</totfact>
</mgrwt>
</event>
<event>
 6    1  0.5828552E-003  0.6507099E+03  0.7818608E-02  0.9805448E-01
          1   -1    0    0  502    0  0.00000000000E+00  0.00000000000E+00  0.10592540499E+03  0.10592540499E+03  0.00000000000E+00 0.  1.
         13   -1    0    0    0    0 -0.00000000000E+00 -0.00000000000E+00 -0.10000000000E+04  0.10000000000E+04  0.00000000000E+00 0.  1.
    9000005    2    1    2  501    0 -0.67040844625E-02  0.21823829167E-02 -0.89414394947E+03  0.11058556931E+04  0.65070992886E+03 0.  0.
         13    1    3    3    0    0  0.55044683119E+02  0.28899805653E+03 -0.68320775557E+03  0.74385659309E+03  0.00000000000E+00 0.  1.
          3    1    3    3  501    0 -0.55051387203E+02 -0.28899587414E+03 -0.21093619390E+03  0.36199910000E+03  0.00000000000E+00 0.  1.
         21    1    1    2  502  501  0.67040844625E-02 -0.21823829167E-02  0.69354458900E-01  0.69711896495E-01  0.00000000000E+00 0. -1.
<mgrwt>
<rscale>  1 0.65070993E+03</rscale>
<asrwt>0</asrwt>
<pdfrwt beam="1">  1        1 0.38518410E+00 0.65070993E+03</pdfrwt>
<pdfrwt beam="2">0</pdfrwt>
<totfact> 0.15564707E+00</totfact>
</mgrwt>
</event>
<event>
 6    1  0.5828552E-003  0.6550696E+03  0.7818608E-02  0.9797313E-01
          1   -1    0    0  502    0  0.00000000000E+00  0.00000000000E+00  0.10729120686E+03  0.10729120686E+03  0.00000000000E+00 0.  1.
         13   -1    0    0    0    0 -0.00000000000E+00 -0.00000000000E+00 -0.10000000000E+04  0.10000000000E+04  0.00000000000E+00 0.  1.
    9000005    2    1    2  501    0 -0.14958443887E-03  0.38321644882E-03 -0.89272095233E+03  0.11072790407E+04  0.65506959574E+03 0.  0.
         13    1    3    3    0    0  0.29787985258E+03  0.12698791343E+03 -0.52952558697E+03  0.62068968413E+03  0.00000000000E+00 0.  1.
          3    1    3    3  501    0 -0.29788000217E+03 -0.12698753021E+03 -0.36319536537E+03  0.48658935659E+03  0.00000000000E+00 0.  1.
         21    1    1    2  502  501  0.14958443887E-03 -0.38321644882E-03  0.12159191136E-01  0.12166148094E-01  0.00000000000E+00 0. -1.
<mgrwt>
<rscale>  1 0.65506960E+03</rscale>
<asrwt>0</asrwt>
<pdfrwt beam="1">  1        1 0.39015067E+00 0.65506960E+03</pdfrwt>
<pdfrwt beam="2">0</pdfrwt>
<totfact> 0.14783997E+00</totfact>
</mgrwt>
</event>
<event>
 6    1  0.5828552E-003  0.6573883E+03  0.7818608E-02  0.9793013E-01
          1   -1    0    0  502    0  0.00000000000E+00  0.00000000000E+00  0.12029577213E+03  0.12029577213E+03  0.00000000000E+00 0.  1.
         13   -1    0    0    0    0 -0.00000000000E+00 -0.00000000000E+00 -0.10000000000E+04  0.10000000000E+04  0.00000000000E+00 0.  1.
    9000005    2    1    2  501    0 -0.16839487784E+02 -0.15773131634E+02 -0.87844351102E+03  0.10971884262E+04  0.65698331824E+03 0.  0.
         13    1    3    3    0    0 -0.13640263165E+03 -0.30693808791E+03 -0.53155632550E+03  0.62878358353E+03  0.00000000000E+00 0.  1.
          1    1    3    3  501    0  0.11956314387E+03  0.29116495628E+03 -0.34688718552E+03  0.46840484265E+03  0.00000000000E+00 0.  1.
         21    1    1    2  502  501  0.16839487784E+02  0.15773131634E+02 -0.12607168449E+01  0.23107345960E+02  0.00000000000E+00 0.  1.
<mgrwt>
<rscale>  1 0.65738835E+03</rscale>
<asrwt>0</asrwt>
<pdfrwt beam="1">  1        1 0.43744009E+00 0.65738835E+03</pdfrwt>
<pdfrwt beam="2">0</pdfrwt>
<totfact> 0.90573049E-01</totfact>
</mgrwt>
</event>
<event>
 6    1  0.5828552E-003  0.6379509E+03  0.7818608E-02  0.9829655E-01
          1   -1    0    0  502    0  0.00000000000E+00  0.00000000000E+00  0.10174540343E+03  0.10174540343E+03  0.00000000000E+00 0.  1.
         13   -1    0    0    0    0 -0.00000000000E+00 -0.00000000000E+00 -0.10000000000E+04  0.10000000000E+04  0.00000000000E+00 0.  1.
    9000005    2    1    2  501    0  0.27117082482E-05 -0.33201425069E-04 -0.89825466254E+03  0.11017453295E+04  0.63795088554E+03 0.  0.
         13    1    3    3    0    0  0.30285437705E+03 -0.55531091078E+02 -0.30524727553E+03  0.43356703633E+03  0.00000000000E+00 0.  1.
          3    1    3    3  501    0 -0.30285437434E+03  0.55531057877E+02 -0.59300738701E+03  0.66817829319E+03  0.00000000000E+00 0.  1.
         21    1    1    2  502  501 -0.27117082336E-05  0.33201425070E-04  0.65964827843E-04  0.73898893771E-04  0.00000000000E+00 0.  1.
<mgrwt>
<rscale>  1 0.63795089E+03</rscale>
<asrwt>0</asrwt>
<pdfrwt beam="1">  1        1 0.36998407E+00 0.63795089E+03</pdfrwt>
<pdfrwt beam="2">0</pdfrwt>
<totfact> 0.18203242E+00</totfact>
</mgrwt>
</event>
<event>
 6    1  0.5828552E-003  0.6255851E+03  0.7818608E-02  0.9853702E-01
          3   -1    0    0  502    0  0.00000000000E+00  0.00000000000E+00  0.97839390872E+02  0.97839390872E+02  0.00000000000E+00 0.  1.
         13   -1    0    0    0    0 -0.00000000000E+00 -0.00000000000E+00 -0.10000000000E+04  0.10000000000E+04  0.00000000000E+00 0.  1.
    9000005    2    1    2  501    0 -0.45262511895E-03 -0.29330649681E-04 -0.90216050539E+03  0.10978389256E+04  0.62558510935E+03 0.  0.
         13    1    3    3    0    0  0.15537634368E+03  0.13217103293E+03 -0.86721005253E+03  0.89087836730E+03  0.00000000000E+00 0.  1.
          1    1    3    3  501    0 -0.15537679631E+03 -0.13217106226E+03 -0.34950452864E+02  0.20696055828E+03  0.00000000000E+00 0.  1.
         21    1    1    2  502  501  0.45262511895E-03  0.29330649688E-04 -0.10373330136E-03  0.46528527069E-03  0.00000000000E+00 0. -1.
<mgrwt>
<rscale>  1 0.62558511E+03</rscale>
<asrwt>0</asrwt>
<pdfrwt beam="1">  1        3 0.35578035E+00 0.62558511E+03</pdfrwt>
<pdfrwt beam="2">0</pdfrwt>
<totfact> 0.10184563E-01</totfact>
</mgrwt>
</event>
<event>
 6    1  0.5828552E-003  0.6475172E+03  0.7818608E-02  0.9811449E-01
          1   -1    0    0  502    0  0.00000000000E+00  0.00000000000E+00  0.10484484190E+03  0.10484484190E+03  0.00000000000E+00 0.  1.
         13   -1    0    0    0    0 -0.00000000000E+00 -0.00000000000E+00 -0.10000000000E+04  0.10000000000E+04  0.00000000000E+00 0.  1.
    9000005    2    1    2  501    0  0.75662143172E-01 -0.63804600743E-03 -0.89507896449E+03  0.11047374611E+04  0.64751718093E+03 0.  0.
         13    1    3    3    0    0 -0.32263065409E+03 -0.26458498280E+02 -0.45116238259E+03  0.55528198832E+03  0.00000000000E+00 0.  1.
          3    1    3    3  501    0  0.32270631623E+03  0.26457860234E+02 -0.44391658190E+03  0.54945547280E+03  0.00000000000E+00 0.  1.
         21    1    1    2  502  501 -0.75662143172E-01  0.63804600743E-03 -0.76193602426E-01  0.10738078070E+00  0.00000000000E+00 0. -1.
<mgrwt>
<rscale>  1 0.64751719E+03</rscale>
<asrwt>0</asrwt>
<pdfrwt beam="1">  1        1 0.38125477E+00 0.64751719E+03</pdfrwt>
<pdfrwt beam="2">0</pdfrwt>
<totfact> 0.16209191E+00</totfact>
</mgrwt>
</event>
<event>
 6    1  0.5828552E-003  0.6147210E+03  0.7818608E-02  0.9875327E-01
          1   -1    0    0  502    0  0.00000000000E+00  0.00000000000E+00  0.94479637536E+02  0.94479637536E+02  0.00000000000E+00 0.  1.
         13   -1    0    0    0    0 -0.00000000000E+00 -0.00000000000E+00 -0.10000000000E+04  0.10000000000E+04  0.00000000000E+00 0.  1.
    9000005    2    1    2  501    0  0.21049133313E-01 -0.87156875024E-02 -0.90551067233E+03  0.10944548802E+04  0.61472099889E+03 0.  0.
         13    1    3    3    0    0  0.15370511636E+03  0.19996992031E+03 -0.76551724342E+03  0.80599620458E+03  0.00000000000E+00 0.  1.
          1    1    3    3  501    0 -0.15368406723E+03 -0.19997863600E+03 -0.13999342891E+03  0.28845867557E+03  0.00000000000E+00 0.  1.
         21    1    1    2  502  501 -0.21049133313E-01  0.87156875024E-02 -0.96901355517E-02  0.24757381705E-01  0.00000000000E+00 0. -1.
<mgrwt>
<rscale>  1 0.61472100E+03</rscale>
<asrwt>0</asrwt>
<pdfrwt beam="1">  1        1 0.34356304E+00 0.61472100E+03</pdfrwt>
<pdfrwt beam="2">0</pdfrwt>
<totfact> 0.23844531E+00</totfact>
</mgrwt>
</event>
<event>
 6    1  0.5828552E-003  0.6632036E+03  0.7818608E-02  0.9782314E-01
          1   -1    0    0  502    0  0.00000000000E+00  0.00000000000E+00  0.10995982529E+03  0.10995982529E+03  0.00000000000E+00 0.  1.
         13   -1    0    0    0    0 -0.00000000000E+00 -0.00000000000E+00 -0.10000000000E+04  0.10000000000E+04  0.00000000000E+00 0.  1.
    9000005    2    1    2  501    0 -0.42698296994E-04  0.21602520422E-03 -0.89004003942E+03  0.11099595668E+04  0.66320356471E+03 0.  0.
         13    1    3    3    0    0  0.23124865613E+03  0.13680834314E+03 -0.11976934107E+03  0.29417198842E+03  0.00000000000E+00 0.  1.
          3    1    3    3  501    0 -0.23124869883E+03 -0.13680812711E+03 -0.77027069836E+03  0.81578757842E+03  0.00000000000E+00 0.  1.
         21    1    1    2  502  501  0.42698296987E-04 -0.21602520421E-03 -0.13529097804E-03  0.25844473715E-03  0.00000000000E+00 0. -1.
<mgrwt>
<rscale>  1 0.66320356E+03</rscale>
<asrwt>0</asrwt>
<pdfrwt beam="1">  1        1 0.39985475E+00 0.66320356E+03</pdfrwt>
<pdfrwt beam="2">0</pdfrwt>
<totfact> 0.13365365E+00</totfact>
</mgrwt>
</event>
<event>
 6    1  0.5828552E-003  0.6067372E+03  0.7818608E-02  0.9891526E-01
          1   -1    0    0  502    0  0.00000000000E+00  0.00000000000E+00  0.92072146286E+02  0.92072146286E+02  0.00000000000E+00 0.  1.
         13   -1    0    0    0    0 -0.00000000000E+00 -0.00000000000E+00 -0.10000000000E+04  0.10000000000E+04  0.00000000000E+00 0.  1.
    9000005    2    1    2  501    0 -0.15085571034E-01  0.52689616463E-01 -0.90794580377E+03  0.10920144750E+04  0.60673719852E+03 0.  0.
         13    1    3    3    0    0 -0.23892437135E+03  0.98053185886E+01 -0.11796375957E+03  0.26663917204E+03  0.00000000000E+00 0.  1.
          1    1    3    3  501    0  0.23890928578E+03 -0.97526289721E+01 -0.78998204420E+03  0.82537530298E+03  0.00000000000E+00 0.  1.
         21    1    1    2  502  501  0.15085571034E-01 -0.52689616463E-01  0.17950056578E-01  0.57671263794E-01  0.00000000000E+00 0.  1.
<mgrwt>
<rscale>  1 0.60673720E+03</rscale>
<asrwt>0</asrwt>
<pdfrwt beam="1">  1        1 0.33480851E+00 0.60673720E+03</pdfrwt>
<pdfrwt beam="2">0</pdfrwt>
<totfact> 0.26062681E+00</totfact>
</mgrwt>
</event>
<event>
 6    1  0.5828552E-003  0.6739079E+03  0.7818608E-02  0.9762924E-01
          1   -1    0    0  502    0  0.00000000000E+00  0.00000000000E+00  0.11418090105E+03  0.11418090105E+03  0.00000000000E+00 0.  1.
         13   -1    0    0    0    0 -0.00000000000E+00 -0.00000000000E+00 -0.10000000000E+04  0.10000000000E+04  0.00000000000E+00 0.  1.
    9000005    2    1    2  501    0 -0.39395976078E-01  0.32136545040E-01 -0.88646090699E+03  0.11135370825E+04  0.67390792535E+03 0.  0.
         13    1    3    3    0    0  0.62514850666E+02  0.18741909828E+03  0.77912573940E+01  0.19772386969E+03  0.00000000000E+00 0.  1.
          3    1    3    3  501    0 -0.62554246642E+02 -0.18738696174E+03 -0.89425216438E+03  0.91581321278E+03  0.00000000000E+00 0.  1.
         21    1    1    2  502  501  0.39395976078E-01 -0.32136545040E-01  0.64180804038E+00  0.64381857783E+00  0.00000000000E+00 0. -1.
<mgrwt>
<rscale>  1 0.67390793E+03</rscale>
<asrwt>0</asrwt>
<pdfrwt beam="1">  1        1 0.41520415E+00 0.67390793E+03</pdfrwt>
<pdfrwt beam="2">0</pdfrwt>
<totfact> 0.11385471E+00</totfact>
</mgrwt>
</event>
<event>
 6    1  0.5828552E-003  0.6526147E+03  0.7818608E-02  0.9801885E-01
          1   -1    0    0  502    0  0.00000000000E+00  0.00000000000E+00  0.10647901904E+03  0.10647901904E+03  0.00000000000E+00 0.  1.
         13   -1    0    0    0    0 -0.00000000000E+00 -0.00000000000E+00 -0.10000000000E+04  0.10000000000E+04  0.00000000000E+00 0.  1.
    9000005    2    1    2  501    0  0.37970718546E-02  0.16933893944E-02 -0.89352145999E+03  0.11064748340E+04  0.65261470924E+03 0.  0.
         13    1    3    3    0    0 -0.23581621636E+03  0.10976420178E+02 -0.64827882566E+02  0.24481099660E+03  0.00000000000E+00 0.  1.
          1    1    3    3  501    0  0.23582001343E+03 -0.10974726789E+02 -0.82869357743E+03  0.86166383737E+03  0.00000000000E+00 0.  1.
         21    1    1    2  502  501 -0.37970718547E-02 -0.16933893944E-02  0.47902967291E-03  0.41850677101E-02  0.00000000000E+00 0.  1.
<mgrwt>
<rscale>  1 0.65261471E+03</rscale>
<asrwt>0</asrwt>
<pdfrwt beam="1">  1        1 0.38719725E+00 0.65261471E+03</pdfrwt>
<pdfrwt beam="2">0</pdfrwt>
<totfact> 0.15243264E+00</totfact>
</mgrwt>
</event>
<event>
 6    1  0.5828552E-003  0.6512619E+03  0.7818608E-02  0.9804414E-01
          1   -1    0    0  502    0  0.00000000000E+00  0.00000000000E+00  0.10603556259E+03  0.10603556259E+03  0.00000000000E+00 0.  1.
         13   -1    0    0    0    0 -0.00000000000E+00 -0.00000000000E+00 -0.10000000000E+04  0.10000000000E+04  0.00000000000E+00 0.  1.
    9000005    2    1    2  501    0 -0.47666911200E-05  0.50242641692E-05 -0.89396447573E+03  0.11060355236E+04  0.65126192556E+03 0.  0.
         13    1    3    3    0    0  0.52140289474E+02 -0.29722191600E+03 -0.65481401350E+03  0.72099990944E+03  0.00000000000E+00 0.  1.
          1    1    3    3  501    0 -0.52140294241E+02  0.29722192102E+03 -0.23915046223E+03  0.38503561420E+03  0.00000000000E+00 0.  1.
         21    1    1    2  502  501  0.47666911198E-05 -0.50242641729E-05  0.38323408908E-04  0.38944168306E-04  0.00000000000E+00 0.  1.
<mgrwt>
<rscale>  1 0.65126193E+03</rscale>
<asrwt>0</asrwt>
<pdfrwt beam="1">  1        1 0.38558468E+00 0.65126193E+03</pdfrwt>
<pdfrwt beam="2">0</pdfrwt>
<totfact> 0.15499742E+00</totfact>
</mgrwt>
</event>
<event>
 6    1  0.5828552E-003  0.6142949E+03  0.7818608E-02  0.9876185E-01
          1   -1    0    0  502    0  0.00000000000E+00  0.00000000000E+00  0.94375180246E+02  0.94375180246E+02  0.00000000000E+00 0.  1.
         13   -1    0    0    0    0 -0.00000000000E+00 -0.00000000000E+00 -0.10000000000E+04  0.10000000000E+04  0.00000000000E+00 0.  1.
    9000005    2    1    2  501    0 -0.12399718901E-02  0.22447413443E-03 -0.90566043273E+03  0.10943395450E+04  0.61429489685E+03 0.  0.
         13    1    3    3    0    0 -0.14061157270E+03  0.24139338543E+03 -0.68025376490E+03  0.73538259808E+03  0.00000000000E+00 0.  1.
          3    1    3    3  501    0  0.14061033273E+03 -0.24139316095E+03 -0.22540666783E+03  0.35895694690E+03  0.00000000000E+00 0.  1.
         21    1    1    2  502  501  0.12399718901E-02 -0.22447413443E-03  0.35612977461E-01  0.35635264593E-01  0.00000000000E+00 0.  1.
<mgrwt>
<rscale>  1 0.61429490E+03</rscale>
<asrwt>0</asrwt>
<pdfrwt beam="1">  1        1 0.34318320E+00 0.61429490E+03</pdfrwt>
<pdfrwt beam="2">0</pdfrwt>
<totfact> 0.23937190E+00</totfact>
</mgrwt>
</event>
<event>
 6    1  0.5828552E-003  0.6394910E+03  0.7818608E-02  0.9826701E-01
          1   -1    0    0  502    0  0.00000000000E+00  0.00000000000E+00  0.10223740321E+03  0.10223740321E+03  0.00000000000E+00 0.  1.
         13   -1    0    0    0    0 -0.00000000000E+00 -0.00000000000E+00 -0.10000000000E+04  0.10000000000E+04  0.00000000000E+00 0.  1.
    9000005    2    1    2  501    0 -0.24515783082E-04 -0.24665861961E-04 -0.89776282234E+03  0.11022371750E+04  0.63949097316E+03 0.  0.
         13    1    3    3    0    0 -0.28953994449E+03  0.25204486175E+02 -0.67863721944E+03  0.73825274885E+03  0.00000000000E+00 0.  1.
          1    1    3    3  501    0  0.28953991998E+03 -0.25204510841E+02 -0.21912560290E+03  0.36398442614E+03  0.00000000000E+00 0.  1.
         21    1    1    2  502  501  0.24515783086E-04  0.24665861959E-04  0.22555312531E-03  0.22821840571E-03  0.00000000000E+00 0. -1.
<mgrwt>
<rscale>  1 0.63949097E+03</rscale>
<asrwt>0</asrwt>
<pdfrwt beam="1">  1        1 0.37177316E+00 0.63949097E+03</pdfrwt>
<pdfrwt beam="2">0</pdfrwt>
<totfact> 0.17871719E+00</totfact>
</mgrwt>
</event>
<event>
 6    1  0.5828552E-003  0.6561932E+03  0.7818608E-02  0.9795227E-01
          1   -1    0    0  502    0  0.00000000000E+00  0.00000000000E+00  0.11971781013E+03  0.11971781013E+03  0.00000000000E+00 0.  1.
         13   -1    0    0    0    0 -0.00000000000E+00 -0.00000000000E+00 -0.10000000000E+04  0.10000000000E+04  0.00000000000E+00 0.  1.
    9000005    2    1    2  501    0  0.45096912568E+01 -0.22901928275E+01 -0.89176288706E+03  0.11071723446E+04  0.65617373577E+03 0.  0.
         13    1    3    3    0    0 -0.93369604858E+02  0.55607219595E+02 -0.96552663763E+03  0.97162324692E+03  0.00000000000E+00 0.  1.
          1    1    3    3  501    0  0.97879296115E+02 -0.57897412422E+02  0.73763750565E+02  0.13554909764E+03  0.00000000000E+00 0.  1.
         21    1    1    2  502  501 -0.45096912568E+01  0.22901928275E+01  0.11480697198E+02  0.12545465578E+02  0.00000000000E+00 0.  1.
<mgrwt>
<rscale>  1 0.65619323E+03</rscale>
<asrwt>0</asrwt>
<pdfrwt beam="1">  1        1 0.43533841E+00 0.65619323E+03</pdfrwt>
<pdfrwt beam="2">0</pdfrwt>
<totfact> 0.92616552E-01</totfact>
</mgrwt>
</event>
<event>
 6    1  0.5828552E-003  0.6440013E+03  0.7818608E-02  0.9818101E-01
          1   -1    0    0  502    0  0.00000000000E+00  0.00000000000E+00  0.10368558571E+03  0.10368558571E+03  0.00000000000E+00 0.  1.
         13   -1    0    0    0    0 -0.00000000000E+00 -0.00000000000E+00 -0.10000000000E+04  0.10000000000E+04  0.00000000000E+00 0.  1.
    9000005    2    1    2  501    0 -0.28325791476E-03  0.50333355398E-03 -0.89631551478E+03  0.11036843429E+04  0.64400126292E+03 0.  0.
         13    1    3    3    0    0  0.23870346955E+03  0.72564561082E+01 -0.77993022646E+02  0.25122681806E+03  0.00000000000E+00 0.  1.
          3    1    3    3  501    0 -0.23870375281E+03 -0.72559527746E+01 -0.81832249214E+03  0.85245752480E+03  0.00000000000E+00 0.  1.
         21    1    1    2  502  501  0.28325791474E-03 -0.50333355398E-03  0.11004923712E-02  0.12428447900E-02  0.00000000000E+00 0. -1.
<mgrwt>
<rscale>  1 0.64400126E+03</rscale>
<asrwt>0</asrwt>
<pdfrwt beam="1">  1        1 0.37703929E+00 0.64400126E+03</pdfrwt>
<pdfrwt beam="2">0</pdfrwt>
<totfact> 0.16929101E+00</totfact>
</mgrwt>
</event>
