<event>
 6    1  0.1175152E-003  0.6559045E+03  0.7818608E-02  0.9795762E-01
          1   -1    0    0  502    0  0.00000000000E+00  0.00000000000E+00  0.10937819808E+03  0.10937819808E+03  0.00000000000E+00 0.  1.
         13   -1    0    0    0    0 -0.00000000000E+00 -0.00000000000E+00 -0.10000000000E+04  0.10000000000E+04  0.00000000000E+00 0.  1.
    9000005    2    1    2  501    0  0.90008909417E-01  0.50537895999E+00 -0.89240727033E+03  0.11075204018E+04  0.65590429242E+03 0.  0.
         13    1    3    3    0    0 -0.46642538286E+02  0.12322052711E+03 -0.95359370303E+03  0.96265246852E+03  0.00000000000E+00 0.  1.
          3    1    3    3  501    0  0.46732547196E+02 -0.12271514815E+03  0.61186432702E+02  0.14486793331E+03  0.00000000000E+00 0.  1.
         21    1    1    2  502  501 -0.90008909417E-01 -0.50537895999E+00  0.17854684064E+01  0.18577962556E+01  0.00000000000E+00 0. -1.
<mgrwt>
<rscale>  1 0.65590449E+03</rscale>
<asrwt>0</asrwt>
<pdfrwt beam="1">  1        1 0.39773974E+00 0.65590449E+03</pdfrwt>
<pdfrwt beam="2">0</pdfrwt>
<totfact> 0.13677267E+00</totfact>
</mgrwt>
</event>
<event>
 6    1  0.1175152E-003  0.6507167E+03  0.7818608E-02  0.9805435E-01
          1   -1    0    0  502    0  0.00000000000E+00  0.00000000000E+00  0.12129241685E+03  0.12129241685E+03  0.00000000000E+00 0.  1.
         13   -1    0    0    0    0 -0.00000000000E+00 -0.00000000000E+00 -0.10000000000E+04  0.10000000000E+04  0.00000000000E+00 0.  1.
    9000005    2    1    2  501    0 -0.72230608553E+00  0.46998537248E+00 -0.89412865488E+03  0.11058472860E+04  0.65071608705E+03 0.  0.
         13    1    3    3    0    0 -0.12503852788E+03  0.26695220356E+03 -0.68284848060E+03  0.74376082170E+03  0.00000000000E+00 0.  1.
          1    1    3    3  501    0  0.12431622179E+03 -0.26648221819E+03 -0.21128017429E+03  0.36208646434E+03  0.00000000000E+00 0.  1.
         21    1    1    2  502  501  0.72230608553E+00 -0.46998537248E+00  0.15421071738E+02  0.15445130814E+02  0.00000000000E+00 0. -1.
<mgrwt>
<rscale>  1 0.65071666E+03</rscale>
<asrwt>0</asrwt>
<pdfrwt beam="1">  1        1 0.44106426E+00 0.65071666E+03</pdfrwt>
<pdfrwt beam="2">0</pdfrwt>
<totfact> 0.87302959E-01</totfact>
</mgrwt>
</event>
<event>
 6    1  0.1175152E-003  0.6760028E+03  0.7818608E-02  0.9759174E-01
          1   -1    0    0  502    0  0.00000000000E+00  0.00000000000E+00  0.11451756474E+03  0.11451756474E+03  0.00000000000E+00 0.  1.
         13   -1    0    0    0    0 -0.00000000000E+00 -0.00000000000E+00 -0.10000000000E+04  0.10000000000E+04  0.00000000000E+00 0.  1.
    9000005    2    1    2  501    0 -0.74632043374E-01  0.55998850619E-02 -0.88574932145E+03  0.11142403833E+04  0.67600278532E+03 0.  0.
         13    1    3    3    0    0 -0.16850967936E+02  0.20703120732E+03 -0.88239032107E+03  0.90650899314E+03  0.00000000000E+00 0.  1.
          3    1    3    3  501    0  0.16776335893E+02 -0.20702560744E+03 -0.33590003837E+01  0.20773139018E+03  0.00000000000E+00 0.  1.
         21    1    1    2  502  501  0.74632043374E-01 -0.55998850619E-02  0.26688619663E+00  0.27718142536E+00  0.00000000000E+00 0.  1.
<mgrwt>
<rscale>  1 0.67600279E+03</rscale>
<asrwt>0</asrwt>
<pdfrwt beam="1">  1        1 0.41642839E+00 0.67600279E+03</pdfrwt>
<pdfrwt beam="2">0</pdfrwt>
<totfact> 0.11237418E+00</totfact>
</mgrwt>
</event>
<event>
 6    1  0.1175152E-003  0.6496281E+03  0.7818608E-02  0.9807477E-01
          1   -1    0    0  502    0  0.00000000000E+00  0.00000000000E+00  0.10573035727E+03  0.10573035727E+03  0.00000000000E+00 0.  1.
         13   -1    0    0    0    0 -0.00000000000E+00 -0.00000000000E+00 -0.10000000000E+04  0.10000000000E+04  0.00000000000E+00 0.  1.
    9000005    2    1    2  501    0 -0.15501020063E-02  0.34158089243E-02 -0.89449582786E+03  0.11055041410E+04  0.64962806265E+03 0.  0.
         13    1    3    3    0    0 -0.29026097815E+03 -0.14112584119E+03 -0.50945334552E+03  0.60308428080E+03  0.00000000000E+00 0.  1.
          1    1    3    3  501    0  0.29025942805E+03  0.14112925700E+03 -0.38504248234E+03  0.50241986023E+03  0.00000000000E+00 0.  1.
         21    1    1    2  502  501  0.15501020063E-02 -0.34158089243E-02  0.22618512762E+00  0.22621622958E+00  0.00000000000E+00 0. -1.
<mgrwt>
<rscale>  1 0.64962806E+03</rscale>
<asrwt>0</asrwt>
<pdfrwt beam="1">  1        1 0.38447484E+00 0.64962806E+03</pdfrwt>
<pdfrwt beam="2">0</pdfrwt>
<totfact> 0.15680671E+00</totfact>
</mgrwt>
</event>
<event>
 6    1  0.1175152E-003  0.6242233E+03  0.7818608E-02  0.9856387E-01
          1   -1    0    0  502    0  0.00000000000E+00  0.00000000000E+00  0.97430143869E+02  0.97430143869E+02  0.00000000000E+00 0.  1.
         13   -1    0    0    0    0 -0.00000000000E+00 -0.00000000000E+00 -0.10000000000E+04  0.10000000000E+04  0.00000000000E+00 0.  1.
    9000005    2    1    2  501    0 -0.13032495126E-02 -0.63395105116E-03 -0.90258629266E+03  0.10974136436E+04  0.62422326887E+03 0.  0.
         13    1    3    3    0    0  0.10049758719E+03  0.28372230617E+03 -0.59642713317E+03  0.66807442492E+03  0.00000000000E+00 0.  1.
          3    1    3    3  501    0 -0.10049889044E+03 -0.28372294012E+03 -0.30615915949E+03  0.42933921865E+03  0.00000000000E+00 0.  1.
         21    1    1    2  502  501  0.13032495126E-02  0.63395105115E-03  0.16436529834E-01  0.16500298973E-01  0.00000000000E+00 0. -1.
<mgrwt>
<rscale>  1 0.62422327E+03</rscale>
<asrwt>0</asrwt>
<pdfrwt beam="1">  1        1 0.35429218E+00 0.62422327E+03</pdfrwt>
<pdfrwt beam="2">0</pdfrwt>
<totfact> 0.21375541E+00</totfact>
</mgrwt>
</event>
<event>
 6    1  0.1175152E-003  0.6419954E+03  0.7818608E-02  0.9821916E-01
          1   -1    0    0  502    0  0.00000000000E+00  0.00000000000E+00  0.10331684053E+03  0.10331684053E+03  0.00000000000E+00 0.  1.
         13   -1    0    0    0    0 -0.00000000000E+00 -0.00000000000E+00 -0.10000000000E+04  0.10000000000E+04  0.00000000000E+00 0.  1.
    9000005    2    1    2  501    0  0.27018411108E+00  0.21930858737E+00 -0.89683472227E+03  0.11029372789E+04  0.64199532796E+03 0.  0.
         13    1    3    3    0    0  0.66729046220E+02 -0.20363130563E+03 -0.85886151698E+03  0.88519013754E+03  0.00000000000E+00 0.  1.
          3    1    3    3  501    0 -0.66458862109E+02  0.20385061422E+03 -0.37973205292E+02  0.21774714141E+03  0.00000000000E+00 0.  1.
         21    1    1    2  502  501 -0.27018411108E+00 -0.21930858737E+00  0.15156279906E+00  0.37956157924E+00  0.00000000000E+00 0. -1.
<mgrwt>
<rscale>  1 0.64199542E+03</rscale>
<asrwt>0</asrwt>
<pdfrwt beam="1">  1        1 0.37569839E+00 0.64199542E+03</pdfrwt>
<pdfrwt beam="2">0</pdfrwt>
<totfact> 0.17167202E+00</totfact>
</mgrwt>
</event>
<event>
 6    1  0.1175152E-003  0.6565971E+03  0.7818608E-02  0.9794478E-01
          1   -1    0    0  502    0  0.00000000000E+00  0.00000000000E+00  0.10782208541E+03  0.10782208541E+03  0.00000000000E+00 0.  1.
         13   -1    0    0    0    0 -0.00000000000E+00 -0.00000000000E+00 -0.10000000000E+04  0.10000000000E+04  0.00000000000E+00 0.  1.
    9000005    2    1    2  501    0 -0.19075430807E-01  0.81460758733E-01 -0.89216776012E+03  0.11077378071E+04  0.65659708344E+03 0.  0.
         13    1    3    3    0    0  0.50649533829E+02  0.68254595633E+02  0.88903994548E+02  0.12299587533E+03  0.00000000000E+00 0.  1.
          1    1    3    3  501    0 -0.50668609260E+02 -0.68173134874E+02 -0.98107175467E+03  0.98474193172E+03  0.00000000000E+00 0.  1.
         21    1    1    2  502  501  0.19075430807E-01 -0.81460758733E-01 -0.10154472684E-01  0.84278351843E-01  0.00000000000E+00 0.  1.
<mgrwt>
<rscale>  1 0.65659709E+03</rscale>
<asrwt>0</asrwt>
<pdfrwt beam="1">  1        1 0.39208114E+00 0.65659709E+03</pdfrwt>
<pdfrwt beam="2">0</pdfrwt>
<totfact> 0.14491135E+00</totfact>
</mgrwt>
</event>
<event>
 6    1  0.1175152E-003  0.6521072E+03  0.7818608E-02  0.9802833E-01
          1   -1    0    0  502    0  0.00000000000E+00  0.00000000000E+00  0.10647234893E+03  0.10647234893E+03  0.00000000000E+00 0.  1.
         13   -1    0    0    0    0 -0.00000000000E+00 -0.00000000000E+00 -0.10000000000E+04  0.10000000000E+04  0.00000000000E+00 0.  1.
    9000005    2    1    2  501    0 -0.13888183772E+00 -0.64199250459E-02 -0.89365524071E+03  0.11062836468E+04  0.65210719868E+03 0.  0.
         13    1    3    3    0    0 -0.20264074595E+03  0.24864896744E+03 -0.34726819182E+03  0.47274176669E+03  0.00000000000E+00 0.  1.
          1    1    3    3  501    0  0.20250186411E+03 -0.24865538737E+03 -0.54638704889E+03  0.63354188010E+03  0.00000000000E+00 0.  1.
         21    1    1    2  502  501  0.13888183772E+00  0.64199250459E-02  0.12758964157E+00  0.18870213810E+00  0.00000000000E+00 0.  1.
<mgrwt>
<rscale>  1 0.65210721E+03</rscale>
<asrwt>0</asrwt>
<pdfrwt beam="1">  1        1 0.38717299E+00 0.65210721E+03</pdfrwt>
<pdfrwt beam="2">0</pdfrwt>
<totfact> 0.15248465E+00</totfact>
</mgrwt>
</event>
<event>
 6    1  0.1175152E-003  0.6236523E+03  0.7818608E-02  0.9857515E-01
          3   -1    0    0  502    0  0.00000000000E+00  0.00000000000E+00  0.97256367185E+02  0.97256367185E+02  0.00000000000E+00 0.  1.
         13   -1    0    0    0    0 -0.00000000000E+00 -0.00000000000E+00 -0.10000000000E+04  0.10000000000E+04  0.00000000000E+00 0.  1.
    9000005    2    1    2  501    0 -0.83371949066E-03  0.13392322169E-01 -0.90276206297E+03  0.10972335698E+04  0.62365227828E+03 0.  0.
         13    1    3    3    0    0 -0.23454857918E+03 -0.20536722295E+03 -0.46307905737E+03  0.55823914735E+03  0.00000000000E+00 0.  1.
          1    1    3    3  501    0  0.23454774546E+03  0.20538061527E+03 -0.43968300561E+03  0.53899442247E+03  0.00000000000E+00 0.  1.
         21    1    1    2  502  501  0.83371949067E-03 -0.13392322169E-01  0.18430159400E-01  0.22797371708E-01  0.00000000000E+00 0.  1.
<mgrwt>
<rscale>  1 0.62365228E+03</rscale>
<asrwt>0</asrwt>
<pdfrwt beam="1">  1        3 0.35366026E+00 0.62365228E+03</pdfrwt>
<pdfrwt beam="2">0</pdfrwt>
<totfact> 0.10455682E-01</totfact>
</mgrwt>
</event>
<event>
 6    1  0.1175152E-003  0.6509278E+03  0.7818608E-02  0.9805040E-01
          1   -1    0    0  502    0  0.00000000000E+00  0.00000000000E+00  0.10600688937E+03  0.10600688937E+03  0.00000000000E+00 0.  1.
         13   -1    0    0    0    0 -0.00000000000E+00 -0.00000000000E+00 -0.10000000000E+04  0.10000000000E+04  0.00000000000E+00 0.  1.
    9000005    2    1    2  501    0 -0.84922753558E-04 -0.17057653684E-02 -0.89407323201E+03  0.11059267498E+04  0.65092782372E+03 0.  0.
         13    1    3    3    0    0  0.22746573442E+03  0.22800593495E+03 -0.36736398554E+03  0.48855262212E+03  0.00000000000E+00 0.  1.
          1    1    3    3  501    0 -0.22746581934E+03 -0.22800764072E+03 -0.52670924647E+03  0.61737412767E+03  0.00000000000E+00 0.  1.
         21    1    1    2  502  501  0.84922753565E-04  0.17057653684E-02  0.80121383444E-01  0.80139584054E-01  0.00000000000E+00 0. -1.
<mgrwt>
<rscale>  1 0.65092782E+03</rscale>
<asrwt>0</asrwt>
<pdfrwt beam="1">  1        1 0.38548041E+00 0.65092782E+03</pdfrwt>
<pdfrwt beam="2">0</pdfrwt>
<totfact> 0.15517173E+00</totfact>
</mgrwt>
</event>
<event>
 6    1  0.1175152E-003  0.6485673E+03  0.7818608E-02  0.9809471E-01
          1   -1    0    0  502    0  0.00000000000E+00  0.00000000000E+00  0.10515996093E+03  0.10515996093E+03  0.00000000000E+00 0.  1.
         13   -1    0    0    0    0 -0.00000000000E+00 -0.00000000000E+00 -0.10000000000E+04  0.10000000000E+04  0.00000000000E+00 0.  1.
    9000005    2    1    2  501    0 -0.20382436162E-04 -0.76336111221E-04 -0.89484009764E+03  0.11051598626E+04  0.64856728371E+03 0.  0.
         13    1    3    3    0    0 -0.17231318787E+03  0.15104768818E+03 -0.56417008403E+02  0.23598753707E+03  0.00000000000E+00 0.  1.
          1    1    3    3  501    0  0.17231316748E+03 -0.15104776451E+03 -0.83842308924E+03  0.86917232551E+03  0.00000000000E+00 0.  1.
         21    1    1    2  502  501  0.20382436149E-04  0.76336111224E-04  0.58575226411E-04  0.98354983246E-04  0.00000000000E+00 0.  1.
<mgrwt>
<rscale>  1 0.64856728E+03</rscale>
<asrwt>0</asrwt>
<pdfrwt beam="1">  1        1 0.38240066E+00 0.64856728E+03</pdfrwt>
<pdfrwt beam="2">0</pdfrwt>
<totfact> 0.16018317E+00</totfact>
</mgrwt>
</event>
<event>
 6    1  0.1175152E-003  0.6463733E+03  0.7818608E-02  0.9813608E-01
          1   -1    0    0  502    0  0.00000000000E+00  0.00000000000E+00  0.10447412974E+03  0.10447412974E+03  0.00000000000E+00 0.  1.
         13   -1    0    0    0    0 -0.00000000000E+00 -0.00000000000E+00 -0.10000000000E+04  0.10000000000E+04  0.00000000000E+00 0.  1.
    9000005    2    1    2  501    0  0.18737787455E-01  0.22609414764E-01 -0.89554026513E+03  0.11044414265E+04  0.64637334197E+03 0.  0.
         13    1    3    3    0    0  0.15029134810E+03 -0.19102258647E+03 -0.81172254167E+03  0.84733145965E+03  0.00000000000E+00 0.  1.
          3    1    3    3  501    0 -0.15027261031E+03  0.19104519589E+03 -0.83817723465E+02  0.25710996684E+03  0.00000000000E+00 0.  1.
         21    1    1    2  502  501 -0.18737787455E-01 -0.22609414764E-01  0.14394876588E-01  0.32703253457E-01  0.00000000000E+00 0. -1.
<mgrwt>
<rscale>  1 0.64637334E+03</rscale>
<asrwt>0</asrwt>
<pdfrwt beam="1">  1        1 0.37990673E+00 0.64637334E+03</pdfrwt>
<pdfrwt beam="2">0</pdfrwt>
<totfact> 0.16436233E+00</totfact>
</mgrwt>
</event>
<event>
 6    1  0.1175152E-003  0.6812714E+03  0.7818608E-02  0.9749808E-01
          1   -1    0    0  502    0  0.00000000000E+00  0.00000000000E+00  0.11603431498E+03  0.11603431498E+03  0.00000000000E+00 0.  1.
         13   -1    0    0    0    0 -0.00000000000E+00 -0.00000000000E+00 -0.10000000000E+04  0.10000000000E+04  0.00000000000E+00 0.  1.
    9000005    2    1    2  501    0 -0.69676931787E-04 -0.14494157415E-02 -0.88396693209E+03  0.11160324016E+04  0.68127144699E+03 0.  0.
         13    1    3    3    0    0  0.13722836327E+03  0.15996780004E+03 -0.88035912938E+03  0.90523671900E+03  0.00000000000E+00 0.  1.
          1    1    3    3  501    0 -0.13722843295E+03 -0.15996924946E+03 -0.36078027128E+01  0.21079568265E+03  0.00000000000E+00 0.  1.
         21    1    1    2  502  501  0.69676931780E-04  0.14494157415E-02  0.12470766879E-02  0.19133376942E-02  0.00000000000E+00 0.  1.
<mgrwt>
<rscale>  1 0.68127145E+03</rscale>
<asrwt>0</asrwt>
<pdfrwt beam="1">  1        1 0.42194385E+00 0.68127145E+03</pdfrwt>
<pdfrwt beam="2">0</pdfrwt>
<totfact> 0.10600947E+00</totfact>
</mgrwt>
</event>
<event>
 6    1  0.1175152E-003  0.6788564E+03  0.7818608E-02  0.9754090E-01
          1   -1    0    0  502    0  0.00000000000E+00  0.00000000000E+00  0.11521460655E+03  0.11521460655E+03  0.00000000000E+00 0.  1.
         13   -1    0    0    0    0 -0.00000000000E+00 -0.00000000000E+00 -0.10000000000E+04  0.10000000000E+04  0.00000000000E+00 0.  1.
    9000005    2    1    2  501    0 -0.65236822252E-04 -0.56287767245E-03 -0.88478846339E+03  0.11152114848E+04  0.67885641395E+03 0.  0.
         13    1    3    3    0    0 -0.47483151560E+02 -0.17368540709E+03 -0.91507650328E+03  0.93262333081E+03  0.00000000000E+00 0.  1.
          1    1    3    3  501    0  0.47483086323E+02  0.17368484422E+03  0.30288039891E+02  0.18258815394E+03  0.00000000000E+00 0.  1.
         21    1    1    2  502  501  0.65236822249E-04  0.56287767245E-03  0.30699458685E-02  0.31218031252E-02  0.00000000000E+00 0.  1.
<mgrwt>
<rscale>  1 0.67885641E+03</rscale>
<asrwt>0</asrwt>
<pdfrwt beam="1">  1        1 0.41896309E+00 0.67885641E+03</pdfrwt>
<pdfrwt beam="2">0</pdfrwt>
<totfact> 0.10939696E+00</totfact>
</mgrwt>
</event>
<event>
 6    1  0.1175152E-003  0.6126243E+03  0.7818608E-02  0.9879555E-01
          1   -1    0    0  502    0  0.00000000000E+00  0.00000000000E+00  0.95394653751E+02  0.95394653751E+02  0.00000000000E+00 0.  1.
         13   -1    0    0    0    0 -0.00000000000E+00 -0.00000000000E+00 -0.10000000000E+04  0.10000000000E+04  0.00000000000E+00 0.  1.
    9000005    2    1    2  501    0  0.11254926808E-01 -0.21150574323E-01 -0.90617276290E+03  0.10938270540E+04  0.61262431169E+03 0.  0.
         13    1    3    3    0    0 -0.18219996974E+03 -0.23880658574E+03 -0.56029253160E+03  0.63573039516E+03  0.00000000000E+00 0.  1.
          3    1    3    3  501    0  0.18221122466E+03  0.23878543516E+03 -0.34588023130E+03  0.45809665884E+03  0.00000000000E+00 0.  1.
         21    1    1    2  502  501 -0.11254926808E-01  0.21150574323E-01  0.15674166492E+01  0.15675997488E+01  0.00000000000E+00 0.  1.
<mgrwt>
<rscale>  1 0.61262431E+03</rscale>
<asrwt>0</asrwt>
<pdfrwt beam="1">  1        1 0.34689038E+00 0.61262431E+03</pdfrwt>
<pdfrwt beam="2">0</pdfrwt>
<totfact> 0.23071594E+00</totfact>
</mgrwt>
</event>
<event>
 6    1  0.1175152E-003  0.6576722E+03  0.7818608E-02  0.9792488E-01
          1   -1    0    0  502    0  0.00000000000E+00  0.00000000000E+00  0.10813562173E+03  0.10813562173E+03  0.00000000000E+00 0.  1.
         13   -1    0    0    0    0 -0.00000000000E+00 -0.00000000000E+00 -0.10000000000E+04  0.10000000000E+04  0.00000000000E+00 0.  1.
    9000005    2    1    2  501    0  0.36842795078E-02 -0.20663799503E-02 -0.89186458883E+03  0.11081313923E+04  0.65767221147E+03 0.  0.
         13    1    3    3    0    0 -0.98984958584E+02 -0.31325650580E+03 -0.47010481191E+03  0.57352087550E+03  0.00000000000E+00 0.  1.
          3    1    3    3  501    0  0.98988642863E+02  0.31325443942E+03 -0.42175977693E+03  0.53461051680E+03  0.00000000000E+00 0.  1.
         21    1    1    2  502  501 -0.36842795077E-02  0.20663799503E-02  0.21056769919E-03  0.42294420845E-02  0.00000000000E+00 0. -1.
<mgrwt>
<rscale>  1 0.65767221E+03</rscale>
<asrwt>0</asrwt>
<pdfrwt beam="1">  1        1 0.39322127E+00 0.65767221E+03</pdfrwt>
<pdfrwt beam="2">0</pdfrwt>
<totfact> 0.14320302E+00</totfact>
</mgrwt>
</event>
<event>
 6    1  0.1175152E-003  0.6514070E+03  0.7818608E-02  0.9804143E-01
          1   -1    0    0  502    0  0.00000000000E+00  0.00000000000E+00  0.10827778957E+03  0.10827778957E+03  0.00000000000E+00 0.  1.
         13   -1    0    0    0    0 -0.00000000000E+00 -0.00000000000E+00 -0.10000000000E+04  0.10000000000E+04  0.00000000000E+00 0.  1.
    9000005    2    1    2  501    0  0.15057178696E-01  0.36581348900E+00 -0.89390034239E+03  0.11060691010E+04  0.65140686218E+03 0.  0.
         13    1    3    3    0    0  0.12139135300E+03 -0.27886067868E+03 -0.64390381989E+03  0.71211745377E+03  0.00000000000E+00 0.  1.
          1    1    3    3  501    0 -0.12137629582E+03  0.27922649217E+03 -0.24999652250E+03  0.39395164726E+03  0.00000000000E+00 0.  1.
         21    1    1    2  502  501 -0.15057178696E-01 -0.36581348900E+00  0.21781319610E+01  0.22086885401E+01  0.00000000000E+00 0. -1.
<mgrwt>
<rscale>  1 0.65140697E+03</rscale>
<asrwt>0</asrwt>
<pdfrwt beam="1">  1        1 0.39373825E+00 0.65140697E+03</pdfrwt>
<pdfrwt beam="2">0</pdfrwt>
<totfact> 0.14261448E+00</totfact>
</mgrwt>
</event>
<event>
 6    1  0.1175152E-003  0.6521176E+03  0.7818608E-02  0.9802814E-01
          1   -1    0    0  502    0  0.00000000000E+00  0.00000000000E+00  0.10638750390E+03  0.10638750390E+03  0.00000000000E+00 0.  1.
         13   -1    0    0    0    0 -0.00000000000E+00 -0.00000000000E+00 -0.10000000000E+04  0.10000000000E+04  0.00000000000E+00 0.  1.
    9000005    2    1    2  501    0  0.68797433654E-02  0.59379888079E-02 -0.89368535585E+03  0.11063140796E+04  0.65211757167E+03 0.  0.
         13    1    3    3    0    0 -0.35826479838E+02 -0.10993652664E+03  0.70364408695E+02  0.13535407847E+03  0.00000000000E+00 0.  1.
          1    1    3    3  501    0  0.35833359581E+02  0.10994246463E+03 -0.96404976455E+03  0.97096000109E+03  0.00000000000E+00 0.  1.
         21    1    1    2  502  501 -0.68797433654E-02 -0.59379888080E-02  0.72859748714E-01  0.73424339034E-01  0.00000000000E+00 0.  1.
<mgrwt>
<rscale>  1 0.65211757E+03</rscale>
<asrwt>0</asrwt>
<pdfrwt beam="1">  1        1 0.38686447E+00 0.65211757E+03</pdfrwt>
<pdfrwt beam="2">0</pdfrwt>
<totfact> 0.15296477E+00</totfact>
</mgrwt>
</event>
<event>
 6    1  0.1175152E-003  0.6403671E+03  0.7818608E-02  0.9825024E-01
          1   -1    0    0  502    0  0.00000000000E+00  0.00000000000E+00  0.10277092659E+03  0.10277092659E+03  0.00000000000E+00 0.  1.
         13   -1    0    0    0    0 -0.00000000000E+00 -0.00000000000E+00 -0.10000000000E+04  0.10000000000E+04  0.00000000000E+00 0.  1.
    9000005    2    1    2  501    0 -0.48293145258E+00  0.89379183432E-01 -0.89718839842E+03  0.11022781123E+04  0.64036690536E+03 0.  0.
         13    1    3    3    0    0  0.28401564415E+03 -0.14179493103E+03 -0.51705260974E+03  0.60672406399E+03  0.00000000000E+00 0.  1.
          3    1    3    3  501    0 -0.28449857560E+03  0.14188431021E+03 -0.38013578869E+03  0.49555404836E+03  0.00000000000E+00 0.  1.
         21    1    1    2  502  501  0.48293145258E+00 -0.89379183432E-01 -0.40674986556E-01  0.49281424579E+00  0.00000000000E+00 0. -1.
<mgrwt>
<rscale>  1 0.64036709E+03</rscale>
<asrwt>0</asrwt>
<pdfrwt beam="1">  1        1 0.37371325E+00 0.64036709E+03</pdfrwt>
<pdfrwt beam="2">0</pdfrwt>
<totfact> 0.17521280E+00</totfact>
</mgrwt>
</event>
<event>
 6    1  0.1175152E-003  0.6769527E+03  0.7818608E-02  0.9757479E-01
          1   -1    0    0  502    0  0.00000000000E+00  0.00000000000E+00  0.11562154958E+03  0.11562154958E+03  0.00000000000E+00 0.  1.
         13   -1    0    0    0    0 -0.00000000000E+00 -0.00000000000E+00 -0.10000000000E+04  0.10000000000E+04  0.00000000000E+00 0.  1.
    9000005    2    1    2  501    0 -0.10555790648E+01 -0.90882791635E+00 -0.88489294091E+03  0.11141366537E+04  0.67695127299E+03 0.  0.
         13    1    3    3    0    0  0.24380504324E+03  0.11329512809E+03 -0.10474483076E+03  0.28852758053E+03  0.00000000000E+00 0.  1.
          1    1    3    3  501    0 -0.24486062230E+03 -0.11420395600E+03 -0.78014811015E+03  0.82560907316E+03  0.00000000000E+00 0.  1.
         21    1    1    2  502  501  0.10555790648E+01  0.90882791635E+00  0.51449048585E+00  0.14848958899E+01  0.00000000000E+00 0. -1.
<mgrwt>
<rscale>  1 0.67695271E+03</rscale>
<asrwt>0</asrwt>
<pdfrwt beam="1">  1        1 0.42044289E+00 0.67695271E+03</pdfrwt>
<pdfrwt beam="2">0</pdfrwt>
<totfact> 0.10776646E+00</totfact>
</mgrwt>
</event>
<event>
 6    1  0.1175152E-003  0.6436843E+03  0.7818608E-02  0.9818703E-01
          1   -1    0    0  502    0  0.00000000000E+00  0.00000000000E+00  0.10361985453E+03  0.10361985453E+03  0.00000000000E+00 0.  1.
         13   -1    0    0    0    0 -0.00000000000E+00 -0.00000000000E+00 -0.10000000000E+04  0.10000000000E+04  0.00000000000E+00 0.  1.
    9000005    2    1    2  501    0  0.68087359476E-01  0.22892503802E-01 -0.89637516292E+03  0.11035478491E+04  0.64368425288E+03 0.  0.
         13    1    3    3    0    0 -0.21165749016E+03  0.42511859480E+02 -0.85733794876E+03  0.88410096127E+03  0.00000000000E+00 0.  1.
          3    1    3    3  501    0  0.21172557752E+03 -0.42488966976E+02 -0.39037214165E+02  0.21944688784E+03  0.00000000000E+00 0.  1.
         21    1    1    2  502  501 -0.68087359476E-01 -0.22892503802E-01 -0.49825497876E-02  0.72005423776E-01  0.00000000000E+00 0. -1.
<mgrwt>
<rscale>  1 0.64368426E+03</rscale>
<asrwt>0</asrwt>
<pdfrwt beam="1">  1        1 0.37680027E+00 0.64368426E+03</pdfrwt>
<pdfrwt beam="2">0</pdfrwt>
<totfact> 0.16971186E+00</totfact>
</mgrwt>
</event>
<event>
 6    1  0.1175152E-003  0.6369166E+03  0.7818608E-02  0.9831644E-01
          1   -1    0    0  502    0  0.00000000000E+00  0.00000000000E+00  0.10141578718E+03  0.10141578718E+03  0.00000000000E+00 0.  1.
         13   -1    0    0    0    0 -0.00000000000E+00 -0.00000000000E+00 -0.10000000000E+04  0.10000000000E+04  0.00000000000E+00 0.  1.
    9000005    2    1    2  501    0  0.17413315834E-03 -0.11806249493E-03 -0.89858354992E+03  0.11014150917E+04  0.63691664136E+03 0.  0.
         13    1    3    3    0    0  0.29535195386E+03 -0.50277648080E+02 -0.26259926531E+03  0.39839552293E+03  0.00000000000E+00 0.  1.
          3    1    3    3  501    0 -0.29535177973E+03  0.50277530017E+02 -0.63598428461E+03  0.70301956878E+03  0.00000000000E+00 0.  1.
         21    1    1    2  502  501 -0.17413315834E-03  0.11806249493E-03 -0.66289572073E-03  0.69547957993E-03  0.00000000000E+00 0.  1.
<mgrwt>
<rscale>  1 0.63691664E+03</rscale>
<asrwt>0</asrwt>
<pdfrwt beam="1">  1        1 0.36878546E+00 0.63691664E+03</pdfrwt>
<pdfrwt beam="2">0</pdfrwt>
<totfact> 0.18428635E+00</totfact>
</mgrwt>
</event>
<event>
 6    1  0.1175152E-003  0.6547258E+03  0.7818608E-02  0.9797952E-01
          3   -1    0    0  502    0  0.00000000000E+00  0.00000000000E+00  0.10716849110E+03  0.10716849110E+03  0.00000000000E+00 0.  1.
         13   -1    0    0    0    0 -0.00000000000E+00 -0.00000000000E+00 -0.10000000000E+04  0.10000000000E+04  0.00000000000E+00 0.  1.
    9000005    2    1    2  501    0  0.12648970996E-02 -0.24157145221E-03 -0.89283329655E+03  0.11071662879E+04  0.65472581564E+03 0.  0.
         13    1    3    3    0    0  0.15638113523E+03 -0.10219707248E+03 -0.90101204154E+03  0.92017498340E+03  0.00000000000E+00 0.  1.
          3    1    3    3  501    0 -0.15637987034E+03  0.10219683091E+03  0.81787449902E+01  0.18699130451E+03  0.00000000000E+00 0.  1.
         21    1    1    2  502  501 -0.12648970996E-02  0.24157145220E-03  0.17876497626E-02  0.22031824965E-02  0.00000000000E+00 0. -1.
<mgrwt>
<rscale>  1 0.65472582E+03</rscale>
<asrwt>0</asrwt>
<pdfrwt beam="1">  1        3 0.38970443E+00 0.65472582E+03</pdfrwt>
<pdfrwt beam="2">0</pdfrwt>
<totfact> 0.67037658E-02</totfact>
</mgrwt>
</event>
<event>
 6    1  0.1175152E-003  0.6438264E+03  0.7818608E-02  0.9818433E-01
          1   -1    0    0  502    0  0.00000000000E+00  0.00000000000E+00  0.10415372179E+03  0.10415372179E+03  0.00000000000E+00 0.  1.
         13   -1    0    0    0    0 -0.00000000000E+00 -0.00000000000E+00 -0.10000000000E+04  0.10000000000E+04  0.00000000000E+00 0.  1.
    9000005    2    1    2  501    0  0.34430956444E+00 -0.57601680702E-01 -0.89630717574E+03  0.11035755405E+04  0.64382629530E+03 0.  0.
         13    1    3    3    0    0 -0.82226938304E+01 -0.25921842548E+03 -0.12124965354E+03  0.28629230392E+03  0.00000000000E+00 0.  1.
          3    1    3    3  501    0  0.85670033948E+01  0.25916082380E+03 -0.77505752220E+03  0.81728323661E+03  0.00000000000E+00 0.  1.
         21    1    1    2  502  501 -0.34430956444E+00  0.57601680701E-01  0.46089752577E+00  0.57818125103E+00  0.00000000000E+00 0. -1.
<mgrwt>
<rscale>  1 0.64382639E+03</rscale>
<asrwt>0</asrwt>
<pdfrwt beam="1">  1        1 0.37874161E+00 0.64382639E+03</pdfrwt>
<pdfrwt beam="2">0</pdfrwt>
<totfact> 0.16639667E+00</totfact>
</mgrwt>
</event>
<event>
 6    1  0.1175152E-003  0.6420232E+03  0.7818608E-02  0.9821863E-01
          1   -1    0    0  502    0  0.00000000000E+00  0.00000000000E+00  0.10304971458E+03  0.10304971458E+03  0.00000000000E+00 0.  1.
         13   -1    0    0    0    0 -0.00000000000E+00 -0.00000000000E+00 -0.10000000000E+04  0.10000000000E+04  0.00000000000E+00 0.  1.
    9000005    2    1    2  501    0 -0.84424707785E-03 -0.71346341480E-03 -0.89695129066E+03  0.11030482205E+04  0.64202317630E+03 0.  0.
         13    1    3    3    0    0  0.14519504745E+03 -0.27177102790E+03 -0.29377767013E+03  0.42573044627E+03  0.00000000000E+00 0.  1.
          3    1    3    3  501    0 -0.14519589170E+03  0.27177031444E+03 -0.60317362053E+03  0.67731777423E+03  0.00000000000E+00 0.  1.
         21    1    1    2  502  501  0.84424707785E-03  0.71346341482E-03  0.10052383258E-02  0.14940840888E-02  0.00000000000E+00 0. -1.
<mgrwt>
<rscale>  1 0.64202318E+03</rscale>
<asrwt>0</asrwt>
<pdfrwt beam="1">  1        1 0.37472703E+00 0.64202318E+03</pdfrwt>
<pdfrwt beam="2">0</pdfrwt>
<totfact> 0.17336981E+00</totfact>
</mgrwt>
</event>
<event>
 6    1  0.1175152E-003  0.6452994E+03  0.7818608E-02  0.9815640E-01
          1   -1    0    0  502    0  0.00000000000E+00  0.00000000000E+00  0.10410645685E+03  0.10410645685E+03  0.00000000000E+00 0.  1.
         13   -1    0    0    0    0 -0.00000000000E+00 -0.00000000000E+00 -0.10000000000E+04  0.10000000000E+04  0.00000000000E+00 0.  1.
    9000005    2    1    2  501    0  0.61182113750E-03  0.10810697876E-03 -0.89589713792E+03  0.11041028088E+04  0.64529941162E+03 0.  0.
         13    1    3    3    0    0  0.37132146250E+02 -0.71884332173E+02  0.86464114572E+02  0.11841535629E+03  0.00000000000E+00 0.  1.
          3    1    3    3  501    0 -0.37131534429E+02  0.71884440280E+02 -0.98236125249E+03  0.98568745249E+03  0.00000000000E+00 0.  1.
         21    1    1    2  502  501 -0.61182113750E-03 -0.10810697875E-03  0.35947650914E-02  0.36480608939E-02  0.00000000000E+00 0. -1.
<mgrwt>
<rscale>  1 0.64529941E+03</rscale>
<asrwt>0</asrwt>
<pdfrwt beam="1">  1        1 0.37856973E+00 0.64529941E+03</pdfrwt>
<pdfrwt beam="2">0</pdfrwt>
<totfact> 0.16664217E+00</totfact>
</mgrwt>
</event>
<event>
 6    1  0.1175152E-003  0.6065506E+03  0.7818608E-02  0.9891908E-01
          1   -1    0    0  502    0  0.00000000000E+00  0.00000000000E+00  0.95486304740E+02  0.95486304740E+02  0.00000000000E+00 0.  1.
         13   -1    0    0    0    0 -0.00000000000E+00 -0.00000000000E+00 -0.10000000000E+04  0.10000000000E+04  0.00000000000E+00 0.  1.
    9000005    2    1    2  501    0  0.57446194733E+01  0.56952906056E+01 -0.90208124041E+03  0.10870391854E+04  0.60649665241E+03 0.  0.
         13    1    3    3    0    0 -0.94425501890E+02  0.69063650443E+02  0.50276920137E+02  0.12733315326E+03  0.00000000000E+00 0.  1.
          1    1    3    3  501    0  0.10017012136E+03 -0.63368359838E+02 -0.95235816054E+03  0.95970603218E+03  0.00000000000E+00 0.  1.
         21    1    1    2  502  501 -0.57446194733E+01 -0.56952906056E+01 -0.24324548534E+01  0.84471193071E+01  0.00000000000E+00 0. -1.
<mgrwt>
<rscale>  1 0.60655060E+03</rscale>
<asrwt>0</asrwt>
<pdfrwt beam="1">  1        1 0.34722366E+00 0.60655060E+03</pdfrwt>
<pdfrwt beam="2">0</pdfrwt>
<totfact> 0.23019890E+00</totfact>
</mgrwt>
</event>
<event>
 6    1  0.1175152E-003  0.6529957E+03  0.7818608E-02  0.9801174E-01
          1   -1    0    0  502    0  0.00000000000E+00  0.00000000000E+00  0.10661936155E+03  0.10661936155E+03  0.00000000000E+00 0.  1.
         13   -1    0    0    0    0 -0.00000000000E+00 -0.00000000000E+00 -0.10000000000E+04  0.10000000000E+04  0.00000000000E+00 0.  1.
    9000005    2    1    2  501    0 -0.65745894527E-02 -0.47350961202E-02 -0.89339816150E+03  0.11066000560E+04  0.65299571894E+03 0.  0.
         13    1    3    3    0    0 -0.27027554799E+03 -0.13258664141E+03 -0.23251220771E+03  0.38038140866E+03  0.00000000000E+00 0.  1.
          3    1    3    3  501    0  0.27026897340E+03  0.13258190631E+03 -0.66088595379E+03  0.72621864736E+03  0.00000000000E+00 0.  1.
         21    1    1    2  502  501  0.65745894527E-02  0.47350961203E-02  0.17523049244E-01  0.19305533314E-01  0.00000000000E+00 0. -1.
<mgrwt>
<rscale>  1 0.65299572E+03</rscale>
<asrwt>0</asrwt>
<pdfrwt beam="1">  1        1 0.38770759E+00 0.65299572E+03</pdfrwt>
<pdfrwt beam="2">0</pdfrwt>
<totfact> 0.15163070E+00</totfact>
</mgrwt>
</event>
<event>
 6    1  0.1175152E-003  0.6368146E+03  0.7818608E-02  0.9831840E-01
          1   -1    0    0  502    0  0.00000000000E+00  0.00000000000E+00  0.10138334404E+03  0.10138334404E+03  0.00000000000E+00 0.  1.
         13   -1    0    0    0    0 -0.00000000000E+00 -0.00000000000E+00 -0.10000000000E+04  0.10000000000E+04  0.00000000000E+00 0.  1.
    9000005    2    1    2  501    0 -0.15926450681E-04  0.66038368288E-04 -0.89861677128E+03  0.11013832102E+04  0.63681463085E+03 0.  0.
         13    1    3    3    0    0 -0.88712154859E+01 -0.15929977320E+03  0.27261595552E+02  0.16185892252E+03  0.00000000000E+00 0.  1.
          1    1    3    3  501    0  0.88711995595E+01  0.15929983924E+03 -0.92587836684E+03  0.93952428768E+03  0.00000000000E+00 0.  1.
         21    1    1    2  502  501  0.15926450681E-04 -0.66038368292E-04  0.11532814969E-03  0.13384804828E-03  0.00000000000E+00 0.  1.
<mgrwt>
<rscale>  1 0.63681463E+03</rscale>
<asrwt>0</asrwt>
<pdfrwt beam="1">  1        1 0.36866748E+00 0.63681463E+03</pdfrwt>
<pdfrwt beam="2">0</pdfrwt>
<totfact> 0.18450964E+00</totfact>
</mgrwt>
</event>
<event>
 6    1  0.1175152E-003  0.6547061E+03  0.7818608E-02  0.9797988E-01
          1   -1    0    0  502    0  0.00000000000E+00  0.00000000000E+00  0.10716003903E+03  0.10716003903E+03  0.00000000000E+00 0.  1.
         13   -1    0    0    0    0 -0.00000000000E+00 -0.00000000000E+00 -0.10000000000E+04  0.10000000000E+04  0.00000000000E+00 0.  1.
    9000005    2    1    2  501    0 -0.34679583450E-04 -0.83408134515E-05 -0.89283994894E+03  0.11071600014E+04  0.65470611289E+03 0.  0.
         13    1    3    3    0    0  0.16498176260E+03  0.25956670779E+03 -0.25685186215E+03  0.40070779487E+03  0.00000000000E+00 0.  1.
          3    1    3    3  501    0 -0.16498179728E+03 -0.25956671613E+03 -0.63598808679E+03  0.70645220651E+03  0.00000000000E+00 0.  1.
         21    1    1    2  502  501  0.34679583454E-04  0.83408134184E-05 -0.12033380377E-04  0.37643657106E-04  0.00000000000E+00 0. -1.
<mgrwt>
<rscale>  1 0.65470611E+03</rscale>
<asrwt>0</asrwt>
<pdfrwt beam="1">  1        1 0.38967369E+00 0.65470611E+03</pdfrwt>
<pdfrwt beam="2">0</pdfrwt>
<totfact> 0.14857178E+00</totfact>
</mgrwt>
</event>
<event>
 6    1  0.1175152E-003  0.6501430E+03  0.7818608E-02  0.9806511E-01
          1   -1    0    0  502    0  0.00000000000E+00  0.00000000000E+00  0.10618304617E+03  0.10618304617E+03  0.00000000000E+00 0.  1.
         13   -1    0    0    0    0 -0.00000000000E+00 -0.00000000000E+00 -0.10000000000E+04  0.10000000000E+04  0.00000000000E+00 0.  1.
    9000005    2    1    2  501    0  0.80493981581E+00  0.73227200661E+00 -0.89358543451E+03  0.11050705033E+04  0.65014206477E+03 0.  0.
         13    1    3    3    0    0 -0.86490209256E+02 -0.31183210138E+02  0.83125659753E+02  0.12394686039E+03  0.00000000000E+00 0.  1.
          1    1    3    3  501    0  0.87295149072E+02  0.31915482144E+02 -0.97671109426E+03  0.98112364292E+03  0.00000000000E+00 0.  1.
         21    1    1    2  502  501 -0.80493981581E+00 -0.73227200661E+00 -0.23151932563E+00  0.11125428517E+01  0.00000000000E+00 0. -1.
<mgrwt>
<rscale>  1 0.65014298E+03</rscale>
<asrwt>0</asrwt>
<pdfrwt beam="1">  1        1 0.38612098E+00 0.65014298E+03</pdfrwt>
<pdfrwt beam="2">0</pdfrwt>
<totfact> 0.15418465E+00</totfact>
</mgrwt>
</event>
<event>
 6    1  0.1175152E-003  0.6144445E+03  0.7818608E-02  0.9875883E-01
          1   -1    0    0  502    0  0.00000000000E+00  0.00000000000E+00  0.94602431277E+02  0.94602431277E+02  0.00000000000E+00 0.  1.
         13   -1    0    0    0    0 -0.00000000000E+00 -0.00000000000E+00 -0.10000000000E+04  0.10000000000E+04  0.00000000000E+00 0.  1.
    9000005    2    1    2  501    0  0.16408357573E-02  0.31988212149E-02 -0.90561446149E+03  0.10943855087E+04  0.61444453680E+03 0.  0.
         13    1    3    3    0    0 -0.27295774631E+03 -0.13795027977E+03 -0.40092585517E+03  0.50425960805E+03  0.00000000000E+00 0.  1.
          1    1    3    3  501    0  0.27295938715E+03  0.13795347859E+03 -0.50468860632E+03  0.59012590067E+03  0.00000000000E+00 0.  1.
         21    1    1    2  502  501 -0.16408357573E-02 -0.31988212149E-02  0.21689277091E+00  0.21692256423E+00  0.00000000000E+00 0.  1.
<mgrwt>
<rscale>  1 0.61444454E+03</rscale>
<asrwt>0</asrwt>
<pdfrwt beam="1">  1        1 0.34400957E+00 0.61444454E+03</pdfrwt>
<pdfrwt beam="2">0</pdfrwt>
<totfact> 0.23739332E+00</totfact>
</mgrwt>
</event>
<event>
 6    1  0.1175152E-003  0.6523028E+03  0.7818608E-02  0.9802468E-01
          1   -1    0    0  502    0  0.00000000000E+00  0.00000000000E+00  0.10637509363E+03  0.10637509363E+03  0.00000000000E+00 0.  1.
         13   -1    0    0    0    0 -0.00000000000E+00 -0.00000000000E+00 -0.10000000000E+04  0.10000000000E+04  0.00000000000E+00 0.  1.
    9000005    2    1    2  501    0  0.61993446252E-04 -0.20359864989E-03 -0.89362522303E+03  0.11063747121E+04  0.65230281643E+03 0.  0.
         13    1    3    3    0    0  0.31734632701E+03  0.55452857053E+02 -0.53314823652E+03  0.62292114487E+03  0.00000000000E+00 0.  1.
          3    1    3    3  501    0 -0.31734626502E+03 -0.55453060651E+02 -0.36047698651E+03  0.48345356722E+03  0.00000000000E+00 0.  1.
         21    1    1    2  502  501 -0.61993446233E-04  0.20359864989E-03  0.31665802627E-03  0.38153362003E-03  0.00000000000E+00 0. -1.
<mgrwt>
<rscale>  1 0.65230282E+03</rscale>
<asrwt>0</asrwt>
<pdfrwt beam="1">  1        1 0.38681934E+00 0.65230282E+03</pdfrwt>
<pdfrwt beam="2">0</pdfrwt>
<totfact> 0.15302991E+00</totfact>
</mgrwt>
</event>
<event>
 6    1  0.1175152E-003  0.6517883E+03  0.7818608E-02  0.9803429E-01
          1   -1    0    0  502    0  0.00000000000E+00  0.00000000000E+00  0.10620947684E+03  0.10620947684E+03  0.00000000000E+00 0.  1.
         13   -1    0    0    0    0 -0.00000000000E+00 -0.00000000000E+00 -0.10000000000E+04  0.10000000000E+04  0.00000000000E+00 0.  1.
    9000005    2    1    2  501    0  0.20841205037E-03 -0.24939768402E-03 -0.89379298384E+03  0.11062069948E+04  0.65178832251E+03 0.  0.
         13    1    3    3    0    0  0.28379994031E+03  0.79344311220E+02 -0.21069393557E+03  0.36225662220E+03  0.00000000000E+00 0.  1.
          3    1    3    3  501    0 -0.28379973190E+03 -0.79344560617E+02 -0.68309904827E+03  0.74395037258E+03  0.00000000000E+00 0.  1.
         21    1    1    2  502  501 -0.20841205035E-03  0.24939768402E-03  0.24606850068E-02  0.24820567057E-02  0.00000000000E+00 0.  1.
<mgrwt>
<rscale>  1 0.65178832E+03</rscale>
<asrwt>0</asrwt>
<pdfrwt beam="1">  1        1 0.38621709E+00 0.65178832E+03</pdfrwt>
<pdfrwt beam="2">0</pdfrwt>
<totfact> 0.15398684E+00</totfact>
</mgrwt>
</event>
<event>
 6    1  0.1175152E-003  0.6500683E+03  0.7818608E-02  0.9806651E-01
          1   -1    0    0  502    0  0.00000000000E+00  0.00000000000E+00  0.14798265955E+03  0.14798265955E+03  0.00000000000E+00 0.  1.
         13   -1    0    0    0    0 -0.00000000000E+00 -0.00000000000E+00 -0.10000000000E+04  0.10000000000E+04  0.00000000000E+00 0.  1.
    9000005    2    1    2  501    0  0.63732984079E+00 -0.31088509266E+00 -0.89434950344E+03  0.11056445578E+04  0.65006795873E+03 0.  0.
         13    1    3    3    0    0 -0.42293753701E+02  0.32191813354E+02  0.98186094746E+02  0.11164937819E+03  0.00000000000E+00 0.  1.
          3    1    3    3  501    0  0.42931083542E+02 -0.32502698447E+02 -0.99253559819E+03  0.99399517957E+03  0.00000000000E+00 0.  1.
         21    1    1    2  502  501 -0.63732984079E+00  0.31088509266E+00  0.42332162994E+02  0.42338101783E+02  0.00000000000E+00 0.  1.
<mgrwt>
<rscale>  1 0.65006835E+03</rscale>
<asrwt>0</asrwt>
<pdfrwt beam="1">  1        1 0.53811990E+00 0.65006835E+03</pdfrwt>
<pdfrwt beam="2">0</pdfrwt>
<totfact> 0.30057681E-01</totfact>
</mgrwt>
</event>
<event>
 6    1  0.1175152E-003  0.6495778E+03  0.7818608E-02  0.9807572E-01
          1   -1    0    0  502    0  0.00000000000E+00  0.00000000000E+00  0.11628338476E+03  0.11628338476E+03  0.00000000000E+00 0.  1.
         13   -1    0    0    0    0 -0.00000000000E+00 -0.00000000000E+00 -0.10000000000E+04  0.10000000000E+04  0.00000000000E+00 0.  1.
    9000005    2    1    2  501    0  0.56645589250E+00 -0.30940004510E+00 -0.89450150383E+03  0.11054791993E+04  0.64957748053E+03 0.  0.
         13    1    3    3    0    0 -0.24395652573E+03 -0.18499416864E+03 -0.63091752424E+03  0.70128065086E+03  0.00000000000E+00 0.  1.
          3    1    3    3  501    0  0.24452298162E+03  0.18468476860E+03 -0.26358397960E+03  0.40419854848E+03  0.00000000000E+00 0.  1.
         21    1    1    2  502  501 -0.56645589250E+00  0.30940004510E+00  0.10784888588E+02  0.10804185417E+02  0.00000000000E+00 0.  1.
<mgrwt>
<rscale>  1 0.64957780E+03</rscale>
<asrwt>0</asrwt>
<pdfrwt beam="1">  1        1 0.42284956E+00 0.64957780E+03</pdfrwt>
<pdfrwt beam="2">0</pdfrwt>
<totfact> 0.10566463E+00</totfact>
</mgrwt>
</event>
<event>
 6    1  0.1175152E-003  0.6247192E+03  0.7818608E-02  0.9855408E-01
          3   -1    0    0  502    0  0.00000000000E+00  0.00000000000E+00  0.97587502348E+02  0.97587502348E+02  0.00000000000E+00 0.  1.
         13   -1    0    0    0    0 -0.00000000000E+00 -0.00000000000E+00 -0.10000000000E+04  0.10000000000E+04  0.00000000000E+00 0.  1.
    9000005    2    1    2  501    0 -0.41081175602E-03 -0.10331927341E-01 -0.90242990709E+03  0.10975672537E+04  0.62471924828E+03 0.  0.
         13    1    3    3    0    0 -0.21276095605E+02 -0.16571103178E+03  0.12473491584E+02  0.16753628351E+03  0.00000000000E+00 0.  1.
          1    1    3    3  501    0  0.21275684793E+02  0.16570069986E+03 -0.91490339867E+03  0.93003097024E+03  0.00000000000E+00 0.  1.
         21    1    1    2  502  501  0.41081175602E-03  0.10331927341E-01  0.17409435970E-01  0.20248603648E-01  0.00000000000E+00 0.  1.
<mgrwt>
<rscale>  1 0.62471925E+03</rscale>
<asrwt>0</asrwt>
<pdfrwt beam="1">  1        3 0.35486439E+00 0.62471925E+03</pdfrwt>
<pdfrwt beam="2">0</pdfrwt>
<totfact> 0.10300856E-01</totfact>
</mgrwt>
</event>
<event>
 6    1  0.1175152E-003  0.6496762E+03  0.7818608E-02  0.9807387E-01
          1   -1    0    0  502    0  0.00000000000E+00  0.00000000000E+00  0.12109011532E+03  0.12109011532E+03  0.00000000000E+00 0.  1.
         13   -1    0    0    0    0 -0.00000000000E+00 -0.00000000000E+00 -0.10000000000E+04  0.10000000000E+04  0.00000000000E+00 0.  1.
    9000005    2    1    2  501    0  0.38854571073E-01 -0.46041897904E+00 -0.89447640381E+03  0.11055167402E+04  0.64967608264E+03 0.  0.
         13    1    3    3    0    0  0.10941058842E+03 -0.26076462521E+03 -0.72016372210E+03  0.77369545251E+03  0.00000000000E+00 0.  1.
          1    1    3    3  501    0 -0.10937173385E+03  0.26030420623E+03 -0.17431268171E+03  0.33182128767E+03  0.00000000000E+00 0.  1.
         21    1    1    2  502  501 -0.38854571073E-01  0.46041897904E+00  0.15566519133E+02  0.15573375140E+02  0.00000000000E+00 0.  1.
<mgrwt>
<rscale>  1 0.64967625E+03</rscale>
<asrwt>0</asrwt>
<pdfrwt beam="1">  1        1 0.44032862E+00 0.64967625E+03</pdfrwt>
<pdfrwt beam="2">0</pdfrwt>
<totfact> 0.88000689E-01</totfact>
</mgrwt>
</event>
<event>
 6    1  0.1175152E-003  0.6527717E+03  0.7818608E-02  0.9801592E-01
          1   -1    0    0  502    0  0.00000000000E+00  0.00000000000E+00  0.10653393126E+03  0.10653393126E+03  0.00000000000E+00 0.  1.
         13   -1    0    0    0    0 -0.00000000000E+00 -0.00000000000E+00 -0.10000000000E+04  0.10000000000E+04  0.00000000000E+00 0.  1.
    9000005    2    1    2  501    0  0.28801727188E-02  0.51703199450E-02 -0.89347066002E+03  0.11065264408E+04  0.65277173940E+03 0.  0.
         13    1    3    3    0    0  0.17521184151E+03  0.24622357769E+03 -0.65575686878E+03  0.72204038015E+03  0.00000000000E+00 0.  1.
          1    1    3    3  501    0 -0.17520896134E+03 -0.24621840737E+03 -0.23771379124E+03  0.38448606061E+03  0.00000000000E+00 0.  1.
         21    1    1    2  502  501 -0.28801727188E-02 -0.51703199450E-02  0.45912778347E-02  0.74904896622E-02  0.00000000000E+00 0.  1.
<mgrwt>
<rscale>  1 0.65277174E+03</rscale>
<asrwt>0</asrwt>
<pdfrwt beam="1">  1        1 0.38739693E+00 0.65277174E+03</pdfrwt>
<pdfrwt beam="2">0</pdfrwt>
<totfact> 0.15211816E+00</totfact>
</mgrwt>
</event>
<event>
 6    1  0.1175152E-003  0.6449734E+03  0.7818608E-02  0.9816257E-01
          1   -1    0    0  502    0  0.00000000000E+00  0.00000000000E+00  0.10404610098E+03  0.10404610098E+03  0.00000000000E+00 0.  1.
         13   -1    0    0    0    0 -0.00000000000E+00 -0.00000000000E+00 -0.10000000000E+04  0.10000000000E+04  0.00000000000E+00 0.  1.
    9000005    2    1    2  501    0 -0.19248863892E-03  0.58726976288E-02 -0.89600213914E+03  0.11039975043E+04  0.64497337632E+03 0.  0.
         13    1    3    3    0    0 -0.65783307563E+02 -0.47327968590E+02  0.86284151060E+02  0.11837370860E+03  0.00000000000E+00 0.  1.
          3    1    3    3  501    0  0.65783115074E+02  0.47333841288E+02 -0.98228629020E+03  0.98562379572E+03  0.00000000000E+00 0.  1.
         21    1    1    2  502  501  0.19248863892E-03 -0.58726976288E-02  0.48240125612E-01  0.48596659848E-01  0.00000000000E+00 0. -1.
<mgrwt>
<rscale>  1 0.64497338E+03</rscale>
<asrwt>0</asrwt>
<pdfrwt beam="1">  1        1 0.37835026E+00 0.64497338E+03</pdfrwt>
<pdfrwt beam="2">0</pdfrwt>
<totfact> 0.16702388E+00</totfact>
</mgrwt>
</event>
<event>
 6    1  0.1175152E-003  0.6449612E+03  0.7818608E-02  0.9816280E-01
          1   -1    0    0  502    0  0.00000000000E+00  0.00000000000E+00  0.10483650808E+03  0.10483650808E+03  0.00000000000E+00 0.  1.
         13   -1    0    0    0    0 -0.00000000000E+00 -0.00000000000E+00 -0.10000000000E+04  0.10000000000E+04  0.00000000000E+00 0.  1.
    9000005    2    1    2  501    0  0.14350618446E+00  0.37894820392E-01 -0.89599905543E+03  0.11039878642E+04  0.64496114221E+03 0.  0.
         13    1    3    3    0    0 -0.22411928480E+03  0.18216658179E+03 -0.69334957552E+03  0.75109769752E+03  0.00000000000E+00 0.  1.
          3    1    3    3  501    0  0.22426279099E+03 -0.18212868697E+03 -0.20264947991E+03  0.35289016669E+03  0.00000000000E+00 0.  1.
         21    1    1    2  502  501 -0.14350618446E+00 -0.37894820392E-01  0.83556350763E+00  0.84864386976E+00  0.00000000000E+00 0. -1.
<mgrwt>
<rscale>  1 0.64496116E+03</rscale>
<asrwt>0</asrwt>
<pdfrwt beam="1">  1        1 0.38122447E+00 0.64496116E+03</pdfrwt>
<pdfrwt beam="2">0</pdfrwt>
<totfact> 0.16221824E+00</totfact>
</mgrwt>
</event>
<event>
 6    1  0.1175152E-003  0.6541270E+03  0.7818608E-02  0.9799066E-01
          1   -1    0    0  502    0  0.00000000000E+00  0.00000000000E+00  0.10697052685E+03  0.10697052685E+03  0.00000000000E+00 0.  1.
         13   -1    0    0    0    0 -0.00000000000E+00 -0.00000000000E+00 -0.10000000000E+04  0.10000000000E+04  0.00000000000E+00 0.  1.
    9000005    2    1    2  501    0  0.18685166197E-05 -0.13058376311E-04 -0.89302947430E+03  0.11069705136E+04  0.65412695712E+03 0.  0.
         13    1    3    3    0    0  0.21178401598E+03  0.23713722932E+03 -0.57632517967E+03  0.65820760227E+03  0.00000000000E+00 0.  1.
          1    1    3    3  501    0 -0.21178401411E+03 -0.23713724238E+03 -0.31670429463E+03  0.44876291134E+03  0.00000000000E+00 0.  1.
         21    1    1    2  502  501 -0.18685166045E-05  0.13058376297E-04  0.11478071905E-05  0.13241223779E-04  0.00000000000E+00 0. -1.
<mgrwt>
<rscale>  1 0.65412696E+03</rscale>
<asrwt>0</asrwt>
<pdfrwt beam="1">  1        1 0.38898455E+00 0.65412696E+03</pdfrwt>
<pdfrwt beam="2">0</pdfrwt>
<totfact> 0.14963667E+00</totfact>
</mgrwt>
</event>
<event>
 6    1  0.1175152E-003  0.6443613E+03  0.7818608E-02  0.9817418E-01
          1   -1    0    0  502    0  0.00000000000E+00  0.00000000000E+00  0.10380039137E+03  0.10380039137E+03  0.00000000000E+00 0.  1.
         13   -1    0    0    0    0 -0.00000000000E+00 -0.00000000000E+00 -0.10000000000E+04  0.10000000000E+04  0.00000000000E+00 0.  1.
    9000005    2    1    2  501    0 -0.64190358827E-04 -0.42075923631E-04 -0.89619947224E+03  0.11038002349E+04  0.64436128410E+03 0.  0.
         13    1    3    3    0    0 -0.11353607720E+03 -0.22699199997E+03 -0.78805687604E+03  0.82791874525E+03  0.00000000000E+00 0.  1.
          1    1    3    3  501    0  0.11353601301E+03  0.22699195789E+03 -0.10814259621E+03  0.27588148961E+03  0.00000000000E+00 0.  1.
         21    1    1    2  502  501  0.64190358828E-04  0.42075923649E-04 -0.13638748970E-03  0.15650026474E-03  0.00000000000E+00 0.  1.
<mgrwt>
<rscale>  1 0.64436128E+03</rscale>
<asrwt>0</asrwt>
<pdfrwt beam="1">  1        1 0.37745676E+00 0.64436128E+03</pdfrwt>
<pdfrwt beam="2">0</pdfrwt>
<totfact> 0.16856432E+00</totfact>
</mgrwt>
</event>
<event>
 6    1  0.1175152E-003  0.6453330E+03  0.7818608E-02  0.9815576E-01
          1   -1    0    0  502    0  0.00000000000E+00  0.00000000000E+00  0.10411381990E+03  0.10411381990E+03  0.00000000000E+00 0.  1.
         13   -1    0    0    0    0 -0.00000000000E+00 -0.00000000000E+00 -0.10000000000E+04  0.10000000000E+04  0.00000000000E+00 0.  1.
    9000005    2    1    2  501    0 -0.23690188524E-03  0.57307658693E-04 -0.89588618853E+03  0.11041135760E+04  0.64533303492E+03 0.  0.
         13    1    3    3    0    0 -0.14612537215E+03 -0.14358693129E+03 -0.21433342232E+02  0.20598354154E+03  0.00000000000E+00 0.  1.
          1    1    3    3  501    0  0.14612513525E+03  0.14358698860E+03 -0.87445284630E+03  0.89813003448E+03  0.00000000000E+00 0.  1.
         21    1    1    2  502  501  0.23690188525E-03 -0.57307658696E-04  0.84281128929E-05  0.24388051186E-03  0.00000000000E+00 0. -1.
<mgrwt>
<rscale>  1 0.64533303E+03</rscale>
<asrwt>0</asrwt>
<pdfrwt beam="1">  1        1 0.37859651E+00 0.64533303E+03</pdfrwt>
<pdfrwt beam="2">0</pdfrwt>
<totfact> 0.16659585E+00</totfact>
</mgrwt>
</event>
<event>
 6    1  0.1175152E-003  0.6494042E+03  0.7818608E-02  0.9807898E-01
          1   -1    0    0  502    0  0.00000000000E+00  0.00000000000E+00  0.13104475966E+03  0.13104475966E+03  0.00000000000E+00 0.  1.
         13   -1    0    0    0    0 -0.00000000000E+00 -0.00000000000E+00 -0.10000000000E+04  0.10000000000E+04  0.00000000000E+00 0.  1.
    9000005    2    1    2  501    0 -0.21205911405E+01  0.78821856261E+01 -0.89384769650E+03  0.11048481925E+04  0.64935290727E+03 0.  0.
         13    1    3    3    0    0 -0.20107668398E+03  0.40308177350E+02 -0.17733181337E+02  0.20584228846E+03  0.00000000000E+00 0.  1.
          3    1    3    3  501    0  0.19895609283E+03 -0.32425991724E+02 -0.87611451516E+03  0.89900590404E+03  0.00000000000E+00 0.  1.
         21    1    1    2  502  501  0.21205911405E+01 -0.78821856261E+01  0.24892456165E+02  0.26196567160E+02  0.00000000000E+00 0.  1.
<mgrwt>
<rscale>  1 0.64940421E+03</rscale>
<asrwt>0</asrwt>
<pdfrwt beam="1">  1        1 0.47652740E+00 0.64940421E+03</pdfrwt>
<pdfrwt beam="2">0</pdfrwt>
<totfact> 0.59797432E-01</totfact>
</mgrwt>
</event>
<event>
 6    1  0.1175152E-003  0.6511570E+03  0.7818608E-02  0.9804610E-01
          1   -1    0    0  502    0  0.00000000000E+00  0.00000000000E+00  0.10600144612E+03  0.10600144612E+03  0.00000000000E+00 0.  1.
         13   -1    0    0    0    0 -0.00000000000E+00 -0.00000000000E+00 -0.10000000000E+04  0.10000000000E+04  0.00000000000E+00 0.  1.
    9000005    2    1    2  501    0  0.10814567798E-03 -0.58319275347E-04 -0.89399855915E+03  0.11060013231E+04  0.65115704942E+03 0.  0.
         13    1    3    3    0    0  0.14413396597E+03 -0.46685619027E+02  0.42477941268E+02  0.15734841170E+03  0.00000000000E+00 0.  1.
          3    1    3    3  501    0 -0.14413385782E+03  0.46685560707E+02 -0.93647650042E+03  0.94865291144E+03  0.00000000000E+00 0.  1.
         21    1    1    2  502  501 -0.10814567798E-03  0.58319275349E-04  0.52680680071E-05  0.12298121028E-03  0.00000000000E+00 0.  1.
<mgrwt>
<rscale>  1 0.65115705E+03</rscale>
<asrwt>0</asrwt>
<pdfrwt beam="1">  1        1 0.38546062E+00 0.65115705E+03</pdfrwt>
<pdfrwt beam="2">0</pdfrwt>
<totfact> 0.15519645E+00</totfact>
</mgrwt>
</event>
<event>
 6    1  0.1710603E-003  0.6566523E+03  0.7818608E-02  0.9794376E-01
          1   -1    0    0  502    0  0.00000000000E+00  0.00000000000E+00  0.10779804917E+03  0.10779804917E+03  0.00000000000E+00 0.  1.
         13   -1    0    0    0    0 -0.00000000000E+00 -0.00000000000E+00 -0.10000000000E+04  0.10000000000E+04  0.00000000000E+00 0.  1.
    9000005    2    1    2  501    0  0.26477217716E-05 -0.56881421457E-05 -0.89220194275E+03  0.11077980389E+04  0.65665225837E+03 0.  0.
         13    1    3    3    0    0  0.32701685097E+03 -0.21356759464E+02 -0.47992247237E+03  0.58113828946E+03  0.00000000000E+00 0.  1.
          1    1    3    3  501    0 -0.32701684832E+03  0.21356753776E+02 -0.41227947038E+03  0.52665974948E+03  0.00000000000E+00 0.  1.
         21    1    1    2  502  501 -0.26477218003E-05  0.56881421451E-05 -0.80765764937E-05  0.10227242036E-04  0.00000000000E+00 0. -1.
<mgrwt>
<rscale>  1 0.65665226E+03</rscale>
<asrwt>0</asrwt>
<pdfrwt beam="1">  1        1 0.39199373E+00 0.65665226E+03</pdfrwt>
<pdfrwt beam="2">0</pdfrwt>
<totfact> 0.14503940E+00</totfact>
</mgrwt>
</event>
<event>
 6    1  0.1175152E-003  0.6501909E+03  0.7818608E-02  0.9806421E-01
          1   -1    0    0  502    0  0.00000000000E+00  0.00000000000E+00  0.10569160797E+03  0.10569160797E+03  0.00000000000E+00 0.  1.
         13   -1    0    0    0    0 -0.00000000000E+00 -0.00000000000E+00 -0.10000000000E+04  0.10000000000E+04  0.00000000000E+00 0.  1.
    9000005    2    1    2  501    0  0.10043651776E-03  0.78876577332E-03 -0.89431291995E+03  0.11056870108E+04  0.65019086965E+03 0.  0.
         13    1    3    3    0    0 -0.31116245800E+03 -0.91113770659E+02 -0.48751159310E+03  0.58548385791E+03  0.00000000000E+00 0.  1.
          3    1    3    3  501    0  0.31116255843E+03  0.91114559425E+02 -0.40680132686E+03  0.52020315286E+03  0.00000000000E+00 0.  1.
         21    1    1    2  502  501 -0.10043651771E-03 -0.78876577332E-03  0.45279257038E-02  0.45972111239E-02  0.00000000000E+00 0. -1.
<mgrwt>
<rscale>  1 0.65019087E+03</rscale>
<asrwt>0</asrwt>
<pdfrwt beam="1">  1        1 0.38433393E+00 0.65019087E+03</pdfrwt>
<pdfrwt beam="2">0</pdfrwt>
<totfact> 0.15701553E+00</totfact>
</mgrwt>
</event>
<event>
 6    1  0.1175152E-003  0.6547104E+03  0.7818608E-02  0.9797980E-01
          1   -1    0    0  502    0  0.00000000000E+00  0.00000000000E+00  0.10716404440E+03  0.10716404440E+03  0.00000000000E+00 0.  1.
         13   -1    0    0    0    0 -0.00000000000E+00 -0.00000000000E+00 -0.10000000000E+04  0.10000000000E+04  0.00000000000E+00 0.  1.
    9000005    2    1    2  501    0 -0.18148586210E-02  0.75010922636E-02 -0.89282847334E+03  0.11071532952E+04  0.65471042172E+03 0.  0.
         13    1    3    3    0    0 -0.71185950077E+02  0.39436496812E+02  0.89784097316E+02  0.12117698173E+03  0.00000000000E+00 0.  1.
          3    1    3    3  501    0  0.71184135218E+02 -0.39428995720E+02 -0.98261257066E+03  0.98597631352E+03  0.00000000000E+00 0.  1.
         21    1    1    2  502  501  0.18148586210E-02 -0.75010922636E-02 -0.74822558227E-02  0.10749151090E-01  0.00000000000E+00 0. -1.
<mgrwt>
<rscale>  1 0.65471042E+03</rscale>
<asrwt>0</asrwt>
<pdfrwt beam="1">  1        1 0.38968826E+00 0.65471042E+03</pdfrwt>
<pdfrwt beam="2">0</pdfrwt>
<totfact> 0.14854957E+00</totfact>
</mgrwt>
</event>
<event>
 6    1  0.1175152E-003  0.6419777E+03  0.7818608E-02  0.9821950E-01
          1   -1    0    0  502    0  0.00000000000E+00  0.00000000000E+00  0.10339255566E+03  0.10339255566E+03  0.00000000000E+00 0.  1.
         13   -1    0    0    0    0 -0.00000000000E+00 -0.00000000000E+00 -0.10000000000E+04  0.10000000000E+04  0.00000000000E+00 0.  1.
    9000005    2    1    2  501    0  0.33991345191E-02 -0.12535294625E-01 -0.89696602833E+03  0.11030337365E+04  0.64197770039E+03 0.  0.
         13    1    3    3    0    0  0.10633109852E+02 -0.24452807831E+03 -0.91662463317E+02  0.26136000323E+03  0.00000000000E+00 0.  1.
          3    1    3    3  501    0 -0.10629710717E+02  0.24451554301E+03 -0.80530356501E+03  0.84167373331E+03  0.00000000000E+00 0.  1.
         21    1    1    2  502  501 -0.33991345191E-02  0.12535294625E-01  0.35858398653E+00  0.35881912313E+00  0.00000000000E+00 0. -1.
<mgrwt>
<rscale>  1 0.64197770E+03</rscale>
<asrwt>0</asrwt>
<pdfrwt beam="1">  1        1 0.37597372E+00 0.64197770E+03</pdfrwt>
<pdfrwt beam="2">0</pdfrwt>
<totfact> 0.17119402E+00</totfact>
</mgrwt>
</event>
<event>
 6    1  0.1175152E-003  0.5283036E+03  0.7818608E-02  0.1006644E+00
          1   -1    0    0  502    0  0.00000000000E+00  0.00000000000E+00  0.69802925108E+02  0.69802925108E+02  0.00000000000E+00 0.  1.
         13   -1    0    0    0    0 -0.00000000000E+00 -0.00000000000E+00 -0.10000000000E+04  0.10000000000E+04  0.00000000000E+00 0.  1.
    9000005    2    1    2  501    0  0.87940331021E-03 -0.50133977558E-03 -0.93022382579E+03  0.10697761551E+04  0.52830356413E+03 0.  0.
         13    1    3    3    0    0 -0.10855503311E+03  0.22767039170E+03 -0.62401253932E+03  0.67305991688E+03  0.00000000000E+00 0.  1.
          1    1    3    3  501    0  0.10855591252E+03 -0.22767089304E+03 -0.30621128647E+03  0.39671623819E+03  0.00000000000E+00 0.  1.
         21    1    1    2  502  501 -0.87940331020E-03  0.50133977559E-03  0.26750898461E-01  0.26770044084E-01  0.00000000000E+00 0. -1.
<mgrwt>
<rscale>  1 0.52830356E+03</rscale>
<asrwt>0</asrwt>
<pdfrwt beam="1">  1        1 0.25382935E+00 0.52830356E+03</pdfrwt>
<pdfrwt beam="2">0</pdfrwt>
<totfact> 0.59154019E+00</totfact>
</mgrwt>
</event>
<event>
 6    1  0.1175152E-003  0.6487430E+03  0.7818608E-02  0.9809141E-01
          1   -1    0    0  502    0  0.00000000000E+00  0.00000000000E+00  0.10526441022E+03  0.10526441022E+03  0.00000000000E+00 0.  1.
         13   -1    0    0    0    0 -0.00000000000E+00 -0.00000000000E+00 -0.10000000000E+04  0.10000000000E+04  0.00000000000E+00 0.  1.
    9000005    2    1    2  501    0 -0.49402515016E-02 -0.21314484008E-02 -0.89478294572E+03  0.11052167496E+04  0.64874304901E+03 0.  0.
         13    1    3    3    0    0 -0.98266856843E+02  0.20001116310E+03 -0.45840670847E+02  0.22751309330E+03  0.00000000000E+00 0.  1.
          3    1    3    3  501    0  0.98261916592E+02 -0.20001329455E+03 -0.84894227487E+03  0.87770365631E+03  0.00000000000E+00 0.  1.
         21    1    1    2  502  501  0.49402515015E-02  0.21314484008E-02  0.47355940735E-01  0.47660615608E-01  0.00000000000E+00 0.  1.
<mgrwt>
<rscale>  1 0.64874305E+03</rscale>
<asrwt>0</asrwt>
<pdfrwt beam="1">  1        1 0.38278048E+00 0.64874305E+03</pdfrwt>
<pdfrwt beam="2">0</pdfrwt>
<totfact> 0.15956030E+00</totfact>
</mgrwt>
</event>
<event>
 6    1  0.1175152E-003  0.6457415E+03  0.7818608E-02  0.9814803E-01
          1   -1    0    0  502    0  0.00000000000E+00  0.00000000000E+00  0.10430763207E+03  0.10430763207E+03  0.00000000000E+00 0.  1.
         13   -1    0    0    0    0 -0.00000000000E+00 -0.00000000000E+00 -0.10000000000E+04  0.10000000000E+04  0.00000000000E+00 0.  1.
    9000005    2    1    2  501    0 -0.28400380827E-01 -0.54624072172E-01 -0.89573718069E+03  0.11042314838E+04  0.64574148792E+03 0.  0.
         13    1    3    3    0    0 -0.41263778405E+02  0.13114043246E+03 -0.94740143298E+03  0.95732438998E+03  0.00000000000E+00 0.  1.
          3    1    3    3  501    0  0.41235378024E+02 -0.13119505653E+03  0.51664252293E+02  0.14690709385E+03  0.00000000000E+00 0.  1.
         21    1    1    2  502  501  0.28400380827E-01  0.54624072172E-01  0.44812762160E-01  0.76148240585E-01  0.00000000000E+00 0. -1.
<mgrwt>
<rscale>  1 0.64574149E+03</rscale>
<asrwt>0</asrwt>
<pdfrwt beam="1">  1        1 0.37930128E+00 0.64574149E+03</pdfrwt>
<pdfrwt beam="2">0</pdfrwt>
<totfact> 0.16539546E+00</totfact>
</mgrwt>
</event>
<event>
 6    1  0.1175152E-003  0.6357309E+03  0.7818608E-02  0.9833929E-01
          1   -1    0    0  502    0  0.00000000000E+00  0.00000000000E+00  0.10118805265E+03  0.10118805265E+03  0.00000000000E+00 0.  1.
         13   -1    0    0    0    0 -0.00000000000E+00 -0.00000000000E+00 -0.10000000000E+04  0.10000000000E+04  0.00000000000E+00 0.  1.
    9000005    2    1    2  501    0 -0.10220761843E+00 -0.33205985039E+00 -0.89869625723E+03  0.11008218637E+04  0.63573083309E+03 0.  0.
         13    1    3    3    0    0 -0.16172477618E+03 -0.26849973684E+03 -0.35638102335E+03  0.47460978258E+03  0.00000000000E+00 0.  1.
          3    1    3    3  501    0  0.16162256856E+03  0.26816767699E+03 -0.54231523388E+03  0.62621208113E+03  0.00000000000E+00 0.  1.
         21    1    1    2  502  501  0.10220761843E+00  0.33205985039E+00 -0.11569011354E+00  0.36618894560E+00  0.00000000000E+00 0. -1.
<mgrwt>
<rscale>  1 0.63573093E+03</rscale>
<asrwt>0</asrwt>
<pdfrwt beam="1">  1        1 0.36795733E+00 0.63573093E+03</pdfrwt>
<pdfrwt beam="2">0</pdfrwt>
<totfact> 0.18587510E+00</totfact>
</mgrwt>
</event>
<event>
 6    1  0.1175152E-003  0.6556800E+03  0.7818608E-02  0.9796179E-01
          1   -1    0    0  502    0  0.00000000000E+00  0.00000000000E+00  0.10754625049E+03  0.10754625049E+03  0.00000000000E+00 0.  1.
         13   -1    0    0    0    0 -0.00000000000E+00 -0.00000000000E+00 -0.10000000000E+04  0.10000000000E+04  0.00000000000E+00 0.  1.
    9000005    2    1    2  501    0 -0.12905021524E+00 -0.46714385895E-01 -0.89243188571E+03  0.11074072749E+04  0.65567993946E+03 0.  0.
         13    1    3    3    0    0 -0.79295118538E+02 -0.31543264431E+03 -0.51628346757E+03  0.61019184508E+03  0.00000000000E+00 0.  1.
          1    1    3    3  501    0  0.79166068323E+02  0.31538592992E+03 -0.37614841814E+03  0.49721542981E+03  0.00000000000E+00 0.  1.
         21    1    1    2  502  501  0.12905021524E+00  0.46714385895E-01 -0.21863798496E-01  0.13897560069E+00  0.00000000000E+00 0. -1.
<mgrwt>
<rscale>  1 0.65567995E+03</rscale>
<asrwt>0</asrwt>
<pdfrwt beam="1">  1        1 0.39107810E+00 0.65567995E+03</pdfrwt>
<pdfrwt beam="2">0</pdfrwt>
<totfact> 0.14642943E+00</totfact>
</mgrwt>
</event>
<event>
 6    1  0.1175152E-003  0.6547302E+03  0.7818608E-02  0.9797944E-01
          1   -1    0    0  502    0  0.00000000000E+00  0.00000000000E+00  0.10733669363E+03  0.10733669363E+03  0.00000000000E+00 0.  1.
         13   -1    0    0    0    0 -0.00000000000E+00 -0.00000000000E+00 -0.10000000000E+04  0.10000000000E+04  0.00000000000E+00 0.  1.
    9000005    2    1    2  501    0 -0.71791196174E-02  0.83928941367E-02 -0.89283189193E+03  0.11071677467E+04  0.65473019779E+03 0.  0.
         13    1    3    3    0    0 -0.25108299754E+03  0.71552321261E+02 -0.78040626081E+03  0.82291939960E+03  0.00000000000E+00 0.  1.
          3    1    3    3  501    0  0.25107581842E+03 -0.71543928367E+02 -0.11242563113E+03  0.28424834708E+03  0.00000000000E+00 0.  1.
         21    1    1    2  502  501  0.71791196174E-02 -0.83928941367E-02  0.16858556625E+00  0.16894695493E+00  0.00000000000E+00 0. -1.
<mgrwt>
<rscale>  1 0.65473020E+03</rscale>
<asrwt>0</asrwt>
<pdfrwt beam="1">  1        1 0.39031607E+00 0.65473020E+03</pdfrwt>
<pdfrwt beam="2">0</pdfrwt>
<totfact> 0.14759973E+00</totfact>
</mgrwt>
</event>
<event>
 6    1  0.1175152E-003  0.6469113E+03  0.7818608E-02  0.9812592E-01
          1   -1    0    0  502    0  0.00000000000E+00  0.00000000000E+00  0.10469511317E+03  0.10469511317E+03  0.00000000000E+00 0.  1.
         13   -1    0    0    0    0 -0.00000000000E+00 -0.00000000000E+00 -0.10000000000E+04  0.10000000000E+04  0.00000000000E+00 0.  1.
    9000005    2    1    2  501    0 -0.28377131608E-02 -0.12252896633E-01 -0.89537582900E+03  0.11046230647E+04  0.64691130754E+03 0.  0.
         13    1    3    3    0    0  0.10592817189E+03  0.22897225861E+03 -0.79330986357E+03  0.83245997649E+03  0.00000000000E+00 0.  1.
          3    1    3    3  501    0 -0.10593100960E+03 -0.22898451151E+03 -0.10206596543E+03  0.27216308825E+03  0.00000000000E+00 0.  1.
         21    1    1    2  502  501  0.28377131608E-02  0.12252896633E-01  0.70942169285E-01  0.72048438392E-01  0.00000000000E+00 0.  1.
<mgrwt>
<rscale>  1 0.64691131E+03</rscale>
<asrwt>0</asrwt>
<pdfrwt beam="1">  1        1 0.38071031E+00 0.64691131E+03</pdfrwt>
<pdfrwt beam="2">0</pdfrwt>
<totfact> 0.16300962E+00</totfact>
</mgrwt>
</event>
<event>
 6    1  0.1175152E-003  0.6544011E+03  0.7818608E-02  0.9798556E-01
          1   -1    0    0  502    0  0.00000000000E+00  0.00000000000E+00  0.10723646600E+03  0.10723646600E+03  0.00000000000E+00 0.  1.
         13   -1    0    0    0    0 -0.00000000000E+00 -0.00000000000E+00 -0.10000000000E+04  0.10000000000E+04  0.00000000000E+00 0.  1.
    9000005    2    1    2  501    0 -0.51008038838E-04  0.24357375604E-02 -0.89293978128E+03  0.11070602019E+04  0.65440112896E+03 0.  0.
         13    1    3    3    0    0 -0.24231144481E+03 -0.20352365054E+03 -0.30571033256E+03  0.43999490912E+03  0.00000000000E+00 0.  1.
          3    1    3    3  501    0  0.24231139381E+03  0.20352608628E+03 -0.58722944872E+03  0.66706529276E+03  0.00000000000E+00 0.  1.
         21    1    1    2  502  501  0.51008038825E-04 -0.24357375604E-02  0.17624728523E+00  0.17626412275E+00  0.00000000000E+00 0. -1.
<mgrwt>
<rscale>  1 0.65440113E+03</rscale>
<asrwt>0</asrwt>
<pdfrwt beam="1">  1        1 0.38995161E+00 0.65440113E+03</pdfrwt>
<pdfrwt beam="2">0</pdfrwt>
<totfact> 0.14815916E+00</totfact>
</mgrwt>
</event>
<event>
 6    1  0.1175152E-003  0.5235004E+03  0.7818608E-02  0.1007821E+00
          1   -1    0    0  502    0  0.00000000000E+00  0.00000000000E+00  0.68514721990E+02  0.68514721990E+02  0.00000000000E+00 0.  1.
         13   -1    0    0    0    0 -0.00000000000E+00 -0.00000000000E+00 -0.10000000000E+04  0.10000000000E+04  0.00000000000E+00 0.  1.
    9000005    2    1    2  501    0 -0.28079728109E-03 -0.17874900718E-03 -0.93148680382E+03  0.10685131603E+04  0.52350043746E+03 0.  0.
         13    1    3    3    0    0 -0.80850688509E+02  0.17025304656E+03 -0.95015250400E+02  0.21107067893E+03  0.00000000000E+00 0.  1.
          1    1    3    3  501    0  0.80850407711E+02 -0.17025322531E+03 -0.83647155342E+03  0.85744248136E+03  0.00000000000E+00 0.  1.
         21    1    1    2  502  501  0.28079728109E-03  0.17874900717E-03  0.15258135862E-02  0.15616995295E-02  0.00000000000E+00 0. -1.
<mgrwt>
<rscale>  1 0.52350044E+03</rscale>
<asrwt>0</asrwt>
<pdfrwt beam="1">  1        1 0.24914497E+00 0.52350044E+03</pdfrwt>
<pdfrwt beam="2">0</pdfrwt>
<totfact> 0.62044969E+00</totfact>
</mgrwt>
</event>
<event>
 6    1  0.1175152E-003  0.6595643E+03  0.7818608E-02  0.9788996E-01
          1   -1    0    0  502    0  0.00000000000E+00  0.00000000000E+00  0.10905095752E+03  0.10905095752E+03  0.00000000000E+00 0.  1.
         13   -1    0    0    0    0 -0.00000000000E+00 -0.00000000000E+00 -0.10000000000E+04  0.10000000000E+04  0.00000000000E+00 0.  1.
    9000005    2    1    2  501    0 -0.32942646910E+00  0.68353529928E-02 -0.89113787731E+03  0.11086711851E+04  0.65956422862E+03 0.  0.
         13    1    3    3    0    0 -0.77768096813E+02 -0.18724110855E+03 -0.88289379743E+03  0.90587447649E+03  0.00000000000E+00 0.  1.
          1    1    3    3  501    0  0.77438670344E+02  0.18724794390E+03 -0.82440798778E+01  0.20279670859E+03  0.00000000000E+00 0.  1.
         21    1    1    2  502  501  0.32942646910E+00 -0.68353529928E-02  0.18883482666E+00  0.37977244812E+00  0.00000000000E+00 0.  1.
<mgrwt>
<rscale>  1 0.65956431E+03</rscale>
<asrwt>0</asrwt>
<pdfrwt beam="1">  1        1 0.39654977E+00 0.65956431E+03</pdfrwt>
<pdfrwt beam="2">0</pdfrwt>
<totfact> 0.13835630E+00</totfact>
</mgrwt>
</event>
<event>
 6    1  0.1175152E-003  0.6548883E+03  0.7818608E-02  0.9797650E-01
          1   -1    0    0  502    0  0.00000000000E+00  0.00000000000E+00  0.10724064544E+03  0.10724064544E+03  0.00000000000E+00 0.  1.
         13   -1    0    0    0    0 -0.00000000000E+00 -0.00000000000E+00 -0.10000000000E+04  0.10000000000E+04  0.00000000000E+00 0.  1.
    9000005    2    1    2  501    0 -0.14845305264E-01  0.59790150638E-01 -0.89264274154E+03  0.11071087597E+04  0.65488834015E+03 0.  0.
         13    1    3    3    0    0  0.57865552777E+02  0.87536998931E+02 -0.97070272424E+03  0.97635799133E+03  0.00000000000E+00 0.  1.
          1    1    3    3  501    0 -0.57880398083E+02 -0.87477208780E+02  0.78059982705E+02  0.13075076840E+03  0.00000000000E+00 0.  1.
         21    1    1    2  502  501  0.14845305264E-01 -0.59790150638E-01 -0.11661301595E+00  0.13188571071E+00  0.00000000000E+00 0. -1.
<mgrwt>
<rscale>  1 0.65488834E+03</rscale>
<asrwt>0</asrwt>
<pdfrwt beam="1">  1        1 0.38996681E+00 0.65488834E+03</pdfrwt>
<pdfrwt beam="2">0</pdfrwt>
<totfact> 0.14812279E+00</totfact>
</mgrwt>
</event>
<event>
 6    1  0.1175152E-003  0.6461506E+03  0.7818608E-02  0.9814029E-01
          1   -1    0    0  502    0  0.00000000000E+00  0.00000000000E+00  0.10437812550E+03  0.10437812550E+03  0.00000000000E+00 0.  1.
         13   -1    0    0    0    0 -0.00000000000E+00 -0.00000000000E+00 -0.10000000000E+04  0.10000000000E+04  0.00000000000E+00 0.  1.
    9000005    2    1    2  501    0  0.12851597191E-03 -0.23007709785E-04 -0.89562233800E+03  0.11043776440E+04  0.64615060796E+03 0.  0.
         13    1    3    3    0    0  0.16805210295E+03 -0.27418610674E+03 -0.39490576929E+03  0.50928390614E+03  0.00000000000E+00 0.  1.
          1    1    3    3  501    0 -0.16805197444E+03  0.27418608373E+03 -0.50071656871E+03  0.59509373783E+03  0.00000000000E+00 0.  1.
         21    1    1    2  502  501 -0.12851597193E-03  0.23007709790E-04  0.46349937705E-03  0.48153648073E-03  0.00000000000E+00 0. -1.
<mgrwt>
<rscale>  1 0.64615061E+03</rscale>
<asrwt>0</asrwt>
<pdfrwt beam="1">  1        1 0.37955762E+00 0.64615061E+03</pdfrwt>
<pdfrwt beam="2">0</pdfrwt>
<totfact> 0.16495300E+00</totfact>
</mgrwt>
</event>
<event>
 6    1  0.1175152E-003  0.6473632E+03  0.7818608E-02  0.9811740E-01
          1   -1    0    0  502    0  0.00000000000E+00  0.00000000000E+00  0.11237387120E+03  0.11237387120E+03  0.00000000000E+00 0.  1.
         13   -1    0    0    0    0 -0.00000000000E+00 -0.00000000000E+00 -0.10000000000E+04  0.10000000000E+04  0.00000000000E+00 0.  1.
    9000005    2    1    2  501    0  0.49280141204E+00  0.12799337575E+01 -0.89516185333E+03  0.11047143524E+04  0.64736170392E+03 0.  0.
         13    1    3    3    0    0  0.85669964474E+01 -0.31748272655E+03 -0.34578610176E+03  0.46950687243E+03  0.00000000000E+00 0.  1.
          1    1    3    3  501    0 -0.80741950353E+01  0.31876266030E+03 -0.54937575157E+03  0.63520748000E+03  0.00000000000E+00 0.  1.
         21    1    1    2  502  501 -0.49280141204E+00 -0.12799337575E+01  0.75357245286E+01  0.76595187725E+01  0.00000000000E+00 0.  1.
<mgrwt>
<rscale>  1 0.64736316E+03</rscale>
<asrwt>0</asrwt>
<pdfrwt beam="1">  1        1 0.40863312E+00 0.64736316E+03</pdfrwt>
<pdfrwt beam="2">0</pdfrwt>
<totfact> 0.12247972E+00</totfact>
</mgrwt>
</event>
<event>
 6    1  0.1175152E-003  0.6889091E+03  0.7818608E-02  0.9736389E-01
          1   -1    0    0  502    0  0.00000000000E+00  0.00000000000E+00  0.11875760257E+03  0.11875760257E+03  0.00000000000E+00 0.  1.
         13   -1    0    0    0    0 -0.00000000000E+00 -0.00000000000E+00 -0.10000000000E+04  0.10000000000E+04  0.00000000000E+00 0.  1.
    9000005    2    1    2  501    0 -0.49339829973E-01 -0.10179513969E-01 -0.88134448037E+03  0.11186437651E+04  0.68890912143E+03 0.  0.
         13    1    3    3    0    0  0.18680650599E+03  0.80774207609E+02 -0.89187373229E+03  0.91480046876E+03  0.00000000000E+00 0.  1.
          1    1    3    3  501    0 -0.18685584582E+03 -0.80784387123E+02  0.10529251917E+02  0.20384329635E+03  0.00000000000E+00 0.  1.
         21    1    1    2  502  501  0.49339829973E-01  0.10179513969E-01  0.10208294101E+00  0.11383746383E+00  0.00000000000E+00 0.  1.
<mgrwt>
<rscale>  1 0.68890912E+03</rscale>
<asrwt>0</asrwt>
<pdfrwt beam="1">  1        1 0.43184674E+00 0.68890912E+03</pdfrwt>
<pdfrwt beam="2">0</pdfrwt>
<totfact> 0.95454102E-01</totfact>
</mgrwt>
</event>
<event>
 6    1  0.1175152E-003  0.6601868E+03  0.7818608E-02  0.9787850E-01
          1   -1    0    0  502    0  0.00000000000E+00  0.00000000000E+00  0.10922172799E+03  0.10922172799E+03  0.00000000000E+00 0.  1.
         13   -1    0    0    0    0 -0.00000000000E+00 -0.00000000000E+00 -0.10000000000E+04  0.10000000000E+04  0.00000000000E+00 0.  1.
    9000005    2    1    2  501    0  0.33863401886E-01  0.62692469078E-01 -0.89103292100E+03  0.11089572981E+04  0.66018680506E+03 0.  0.
         13    1    3    3    0    0 -0.20529037290E+03 -0.46925187176E+02 -0.18540123272E+02  0.21139973171E+03  0.00000000000E+00 0.  1.
          3    1    3    3  501    0  0.20532423630E+03  0.46987879645E+02 -0.87249279772E+03  0.89755756636E+03  0.00000000000E+00 0.  1.
         21    1    1    2  502  501 -0.33863401886E-01 -0.62692469078E-01  0.25464899006E+00  0.26442992229E+00  0.00000000000E+00 0.  1.
<mgrwt>
<rscale>  1 0.66018681E+03</rscale>
<asrwt>0</asrwt>
<pdfrwt beam="1">  1        1 0.39717076E+00 0.66018681E+03</pdfrwt>
<pdfrwt beam="2">0</pdfrwt>
<totfact> 0.13746251E+00</totfact>
</mgrwt>
</event>
<event>
 6    1  0.1175152E-003  0.6464386E+03  0.7818608E-02  0.9813485E-01
          1   -1    0    0  502    0  0.00000000000E+00  0.00000000000E+00  0.10447095886E+03  0.10447095886E+03  0.00000000000E+00 0.  1.
         13   -1    0    0    0    0 -0.00000000000E+00 -0.00000000000E+00 -0.10000000000E+04  0.10000000000E+04  0.00000000000E+00 0.  1.
    9000005    2    1    2  501    0  0.12828676410E-03  0.14133324842E-03 -0.89552925595E+03  0.11044706715E+04  0.64643856317E+03 0.  0.
         13    1    3    3    0    0  0.25837718932E+03  0.18365729439E+03 -0.33995030300E+03  0.46481714927E+03  0.00000000000E+00 0.  1.
          3    1    3    3  501    0 -0.25837706104E+03 -0.18365715306E+03 -0.55557895295E+03  0.63965352223E+03  0.00000000000E+00 0.  1.
         21    1    1    2  502  501 -0.12828676411E-03 -0.14133324841E-03  0.21480323658E-03  0.28735520075E-03  0.00000000000E+00 0. -1.
<mgrwt>
<rscale>  1 0.64643856E+03</rscale>
<asrwt>0</asrwt>
<pdfrwt beam="1">  1        1 0.37989520E+00 0.64643856E+03</pdfrwt>
<pdfrwt beam="2">0</pdfrwt>
<totfact> 0.16437962E+00</totfact>
</mgrwt>
</event>
<event>
 6    1  0.1175152E-003  0.6104676E+03  0.7818608E-02  0.9883924E-01
          1   -1    0    0  502    0  0.00000000000E+00  0.00000000000E+00  0.94496782185E+02  0.94496782185E+02  0.00000000000E+00 0.  1.
         13   -1    0    0    0    0 -0.00000000000E+00 -0.00000000000E+00 -0.10000000000E+04  0.10000000000E+04  0.00000000000E+00 0.  1.
    9000005    2    1    2  501    0 -0.23589610631E+00 -0.60709710269E+00 -0.90674460896E+03  0.10930949028E+04  0.61046724433E+03 0.  0.
         13    1    3    3    0    0 -0.21438552716E+03 -0.15063524508E+03 -0.17254737847E+03  0.31372715715E+03  0.00000000000E+00 0.  1.
          1    1    3    3  501    0  0.21414963106E+03  0.15002814798E+03 -0.73419723050E+03  0.77936774563E+03  0.00000000000E+00 0.  1.
         21    1    1    2  502  501  0.23589610631E+00  0.60709710269E+00  0.12413911493E+01  0.14018793995E+01  0.00000000000E+00 0.  1.
<mgrwt>
<rscale>  1 0.61046759E+03</rscale>
<asrwt>0</asrwt>
<pdfrwt beam="1">  1        1 0.34362539E+00 0.61046759E+03</pdfrwt>
<pdfrwt beam="2">0</pdfrwt>
<totfact> 0.23847727E+00</totfact>
</mgrwt>
</event>
<event>
 6    1  0.1175152E-003  0.6644463E+03  0.7818608E-02  0.9780043E-01
          1   -1    0    0  502    0  0.00000000000E+00  0.00000000000E+00  0.11037231626E+03  0.11037231626E+03  0.00000000000E+00 0.  1.
         13   -1    0    0    0    0 -0.00000000000E+00 -0.00000000000E+00 -0.10000000000E+04  0.10000000000E+04  0.00000000000E+00 0.  1.
    9000005    2    1    2  501    0 -0.10014427568E-03  0.79225335583E-04 -0.88962773977E+03  0.11103721768E+04  0.66444627750E+03 0.  0.
         13    1    3    3    0    0  0.16896865524E+03  0.73752577791E+02 -0.90666838702E+03  0.92522289920E+03  0.00000000000E+00 0.  1.
          1    1    3    3  501    0 -0.16896875539E+03 -0.73752498566E+02  0.17040647255E+02  0.18514927761E+03  0.00000000000E+00 0.  1.
         21    1    1    2  502  501  0.10014427570E-03 -0.79225335577E-04  0.56028670586E-04  0.13944440355E-03  0.00000000000E+00 0. -1.
<mgrwt>
<rscale>  1 0.66444628E+03</rscale>
<asrwt>0</asrwt>
<pdfrwt beam="1">  1        1 0.40135472E+00 0.66444628E+03</pdfrwt>
<pdfrwt beam="2">0</pdfrwt>
<totfact> 0.13157962E+00</totfact>
</mgrwt>
</event>
<event>
 6    1  0.1175152E-003  0.6437824E+03  0.7818608E-02  0.9818516E-01
          1   -1    0    0  502    0  0.00000000000E+00  0.00000000000E+00  0.10368068467E+03  0.10368068467E+03  0.00000000000E+00 0.  1.
         13   -1    0    0    0    0 -0.00000000000E+00 -0.00000000000E+00 -0.10000000000E+04  0.10000000000E+04  0.00000000000E+00 0.  1.
    9000005    2    1    2  501    0  0.35723833594E-02  0.19946456114E-01 -0.89638434894E+03  0.11036125672E+04  0.64378241431E+03 0.  0.
         13    1    3    3    0    0 -0.23361170773E+03  0.19896645258E+03 -0.61488850758E+03  0.68720444992E+03  0.00000000000E+00 0.  1.
          3    1    3    3  501    0  0.23361528012E+03 -0.19894650613E+03 -0.28149584136E+03  0.41640811725E+03  0.00000000000E+00 0.  1.
         21    1    1    2  502  501 -0.35723833594E-02 -0.19946456114E-01  0.65033609737E-01  0.68117497237E-01  0.00000000000E+00 0. -1.
<mgrwt>
<rscale>  1 0.64378241E+03</rscale>
<asrwt>0</asrwt>
<pdfrwt beam="1">  1        1 0.37702147E+00 0.64378241E+03</pdfrwt>
<pdfrwt beam="2">0</pdfrwt>
<totfact> 0.16932841E+00</totfact>
</mgrwt>
</event>
<event>
 6    1  0.1175152E-003  0.6489583E+03  0.7818608E-02  0.9808736E-01
          1   -1    0    0  502    0  0.00000000000E+00  0.00000000000E+00  0.11358114523E+03  0.11358114523E+03  0.00000000000E+00 0.  1.
         13   -1    0    0    0    0 -0.00000000000E+00 -0.00000000000E+00 -0.10000000000E+04  0.10000000000E+04  0.00000000000E+00 0.  1.
    9000005    2    1    2  501    0  0.40583489341E+01  0.17325447198E+02 -0.88239210910E+03  0.10953368037E+04  0.64871429617E+03 0.  0.
         13    1    3    3    0    0 -0.24336493614E+03  0.20391366717E+03 -0.58619505639E+03  0.66665727322E+03  0.00000000000E+00 0.  1.
          1    1    3    3  501    0  0.24742328508E+03 -0.18658821997E+03 -0.29619705271E+03  0.42867953049E+03  0.00000000000E+00 0.  1.
         21    1    1    2  502  501 -0.40583489341E+01 -0.17325447198E+02 -0.40267456736E+01  0.18244341517E+02  0.00000000000E+00 0. -1.
<mgrwt>
<rscale>  1 0.64895830E+03</rscale>
<asrwt>0</asrwt>
<pdfrwt beam="1">  1        1 0.41302322E+00 0.64895830E+03</pdfrwt>
<pdfrwt beam="2">0</pdfrwt>
<totfact> 0.11701511E+00</totfact>
</mgrwt>
</event>
<event>
 6    1  0.1175152E-003  0.6422846E+03  0.7818608E-02  0.9821365E-01
          1   -1    0    0  502    0  0.00000000000E+00  0.00000000000E+00  0.10313339895E+03  0.10313339895E+03  0.00000000000E+00 0.  1.
         13   -1    0    0    0    0 -0.00000000000E+00 -0.00000000000E+00 -0.10000000000E+04  0.10000000000E+04  0.00000000000E+00 0.  1.
    9000005    2    1    2  501    0 -0.15884175956E-02 -0.11985691602E-02 -0.89686641667E+03  0.11031314005E+04  0.64228460787E+03 0.  0.
         13    1    3    3    0    0 -0.11873091017E+03 -0.12664802043E+03  0.15599379354E+02  0.17429885469E+03  0.00000000000E+00 0.  1.
          3    1    3    3  501    0  0.11872932175E+03  0.12664682186E+03 -0.91246579603E+03  0.92883254586E+03  0.00000000000E+00 0.  1.
         21    1    1    2  502  501  0.15884175956E-02  0.11985691602E-02 -0.18437326015E-03  0.19984073631E-02  0.00000000000E+00 0. -1.
<mgrwt>
<rscale>  1 0.64228461E+03</rscale>
<asrwt>0</asrwt>
<pdfrwt beam="1">  1        1 0.37503133E+00 0.64228461E+03</pdfrwt>
<pdfrwt beam="2">0</pdfrwt>
<totfact> 0.17282767E+00</totfact>
</mgrwt>
</event>
<event>
 6    1  0.1175152E-003  0.6425232E+03  0.7818608E-02  0.9820911E-01
          1   -1    0    0  502    0  0.00000000000E+00  0.00000000000E+00  0.10382633418E+03  0.10382633418E+03  0.00000000000E+00 0.  1.
         13   -1    0    0    0    0 -0.00000000000E+00 -0.00000000000E+00 -0.10000000000E+04  0.10000000000E+04  0.00000000000E+00 0.  1.
    9000005    2    1    2  501    0  0.46424989901E-01  0.59532340342E-01 -0.89678842103E+03  0.11032069608E+04  0.64252324519E+03 0.  0.
         13    1    3    3    0    0  0.66629557160E+02  0.25876202250E+03 -0.75476340534E+03  0.80066539842E+03  0.00000000000E+00 0.  1.
          3    1    3    3  501    0 -0.66583132170E+02 -0.25870249016E+03 -0.14202501569E+03  0.30254156241E+03  0.00000000000E+00 0.  1.
         21    1    1    2  502  501 -0.46424989901E-01 -0.59532340342E-01  0.61475521339E+00  0.61937335398E+00  0.00000000000E+00 0.  1.
<mgrwt>
<rscale>  1 0.64252325E+03</rscale>
<asrwt>0</asrwt>
<pdfrwt beam="1">  1        1 0.37755110E+00 0.64252325E+03</pdfrwt>
<pdfrwt beam="2">0</pdfrwt>
<totfact> 0.16845987E+00</totfact>
</mgrwt>
</event>
<event>
 6    1  0.1175152E-003  0.6376438E+03  0.7818608E-02  0.9830245E-01
          3   -1    0    0  502    0  0.00000000000E+00  0.00000000000E+00  0.10168549863E+03  0.10168549863E+03  0.00000000000E+00 0.  1.
         13   -1    0    0    0    0 -0.00000000000E+00 -0.00000000000E+00 -0.10000000000E+04  0.10000000000E+04  0.00000000000E+00 0.  1.
    9000005    2    1    2  501    0  0.74033466967E-02  0.61493078549E-01 -0.89832270281E+03  0.11016230209E+04  0.63764378603E+03 0.  0.
         13    1    3    3    0    0  0.94291369406E+00 -0.24493269208E+03 -0.80166716420E+03  0.83825005511E+03  0.00000000000E+00 0.  1.
          1    1    3    3  501    0 -0.93551034737E+00  0.24499418516E+03 -0.96655538612E+02  0.26337296575E+03  0.00000000000E+00 0.  1.
         21    1    1    2  502  501 -0.74033466967E-02 -0.61493078549E-01  0.82014422453E-02  0.62477771301E-01  0.00000000000E+00 0.  1.
<mgrwt>
<rscale>  1 0.63764379E+03</rscale>
<asrwt>0</asrwt>
<pdfrwt beam="1">  1        3 0.36976623E+00 0.63764379E+03</pdfrwt>
<pdfrwt beam="2">0</pdfrwt>
<totfact> 0.85673689E-02</totfact>
</mgrwt>
</event>
<event>
 6    1  0.1175152E-003  0.6622440E+03  0.7818608E-02  0.9784072E-01
          1   -1    0    0  502    0  0.00000000000E+00  0.00000000000E+00  0.10964582335E+03  0.10964582335E+03  0.00000000000E+00 0.  1.
         13   -1    0    0    0    0 -0.00000000000E+00 -0.00000000000E+00 -0.10000000000E+04  0.10000000000E+04  0.00000000000E+00 0.  1.
    9000005    2    1    2  501    0  0.73921978651E-03  0.67819242446E-04 -0.89035817213E+03  0.11096417595E+04  0.66224403339E+03 0.  0.
         13    1    3    3    0    0 -0.26520086109E+03 -0.48591893714E+02 -0.12309729808E+03  0.29638760711E+03  0.00000000000E+00 0.  1.
          3    1    3    3  501    0  0.26520160031E+03  0.48591961533E+02 -0.76726087405E+03  0.81325415239E+03  0.00000000000E+00 0.  1.
         21    1    1    2  502  501 -0.73921978653E-03 -0.67819242444E-04  0.39954793165E-02  0.40638528899E-02  0.00000000000E+00 0.  1.
<mgrwt>
<rscale>  1 0.66224403E+03</rscale>
<asrwt>0</asrwt>
<pdfrwt beam="1">  1        1 0.39871293E+00 0.66224403E+03</pdfrwt>
<pdfrwt beam="2">0</pdfrwt>
<totfact> 0.13525348E+00</totfact>
</mgrwt>
</event>
<event>
 6    1  0.1175152E-003  0.6571854E+03  0.7818608E-02  0.9793389E-01
          1   -1    0    0  502    0  0.00000000000E+00  0.00000000000E+00  0.10811673197E+03  0.10811673197E+03  0.00000000000E+00 0.  1.
         13   -1    0    0    0    0 -0.00000000000E+00 -0.00000000000E+00 -0.10000000000E+04  0.10000000000E+04  0.00000000000E+00 0.  1.
    9000005    2    1    2  501    0  0.98427871049E-02 -0.82124194457E-01 -0.89201350707E+03  0.11079624482E+04  0.65718542516E+03 0.  0.
         13    1    3    3    0    0 -0.10458418736E+03 -0.28089166310E+03 -0.67322798431E+03  0.73693547716E+03  0.00000000000E+00 0.  1.
          3    1    3    3  501    0  0.10459403015E+03  0.28080953891E+03 -0.21878552277E+03  0.37102697106E+03  0.00000000000E+00 0.  1.
         21    1    1    2  502  501 -0.98427871049E-02  0.82124194457E-01  0.13023904139E+00  0.15428373756E+00  0.00000000000E+00 0. -1.
<mgrwt>
<rscale>  1 0.65718543E+03</rscale>
<asrwt>0</asrwt>
<pdfrwt beam="1">  1        1 0.39315258E+00 0.65718543E+03</pdfrwt>
<pdfrwt beam="2">0</pdfrwt>
<totfact> 0.14331664E+00</totfact>
</mgrwt>
</event>
<event>
 6    1  0.1175152E-003  0.6569680E+03  0.7818608E-02  0.9793791E-01
          1   -1    0    0  502    0  0.00000000000E+00  0.00000000000E+00  0.10790178259E+03  0.10790178259E+03  0.00000000000E+00 0.  1.
         13   -1    0    0    0    0 -0.00000000000E+00 -0.00000000000E+00 -0.10000000000E+04  0.10000000000E+04  0.00000000000E+00 0.  1.
    9000005    2    1    2  501    0 -0.82598204472E-05 -0.31930891915E-04 -0.89209826443E+03  0.11079017252E+04  0.65696797426E+03 0.  0.
         13    1    3    3    0    0 -0.32277641009E+03  0.60965282703E+02 -0.44504588834E+03  0.55314303695E+03  0.00000000000E+00 0.  1.
          1    1    3    3  501    0  0.32277640183E+03 -0.60965314633E+02 -0.44705237609E+03  0.55475868820E+03  0.00000000000E+00 0.  1.
         21    1    1    2  502  501  0.82598204642E-05  0.31930891916E-04  0.47013519267E-04  0.57428890696E-04  0.00000000000E+00 0. -1.
<mgrwt>
<rscale>  1 0.65696797E+03</rscale>
<asrwt>0</asrwt>
<pdfrwt beam="1">  1        1 0.39237095E+00 0.65696797E+03</pdfrwt>
<pdfrwt beam="2">0</pdfrwt>
<totfact> 0.14447267E+00</totfact>
</mgrwt>
</event>
<event>
 6    1  0.1175152E-003  0.6538509E+03  0.7818608E-02  0.9799580E-01
          1   -1    0    0  502    0  0.00000000000E+00  0.00000000000E+00  0.10786559033E+03  0.10786559033E+03  0.00000000000E+00 0.  1.
         13   -1    0    0    0    0 -0.00000000000E+00 -0.00000000000E+00 -0.10000000000E+04  0.10000000000E+04  0.00000000000E+00 0.  1.
    9000005    2    1    2  501    0 -0.11299123099E+00 -0.15095668118E-01 -0.89311611026E+03  0.11068772933E+04  0.65385085693E+03 0.  0.
         13    1    3    3    0    0  0.15448152028E+03 -0.13473250677E+03 -0.87761502013E+03  0.90123554748E+03  0.00000000000E+00 0.  1.
          1    1    3    3  501    0 -0.15459451151E+03  0.13471741111E+03 -0.15501090129E+02  0.20564174585E+03  0.00000000000E+00 0.  1.
         21    1    1    2  502  501  0.11299123099E+00  0.15095668118E-01  0.98170059182E+00  0.98829699456E+00  0.00000000000E+00 0.  1.
<mgrwt>
<rscale>  1 0.65385087E+03</rscale>
<asrwt>0</asrwt>
<pdfrwt beam="1">  1        1 0.39223934E+00 0.65385087E+03</pdfrwt>
<pdfrwt beam="2">0</pdfrwt>
<totfact> 0.14475114E+00</totfact>
</mgrwt>
</event>
<event>
 6    1  0.1175152E-003  0.6314544E+03  0.7818608E-02  0.9842215E-01
          1   -1    0    0  502    0  0.00000000000E+00  0.00000000000E+00  0.99719846947E+02  0.99719846947E+02  0.00000000000E+00 0.  1.
         13   -1    0    0    0    0 -0.00000000000E+00 -0.00000000000E+00 -0.10000000000E+04  0.10000000000E+04  0.00000000000E+00 0.  1.
    9000005    2    1    2  501    0  0.75641155653E-02  0.74762092072E-02 -0.90031547968E+03  0.10996829541E+04  0.63145438198E+03 0.  0.
         13    1    3    3    0    0 -0.28634490494E+03 -0.65651945229E+01 -0.21882081071E+03  0.36044285755E+03  0.00000000000E+00 0.  1.
          3    1    3    3  501    0  0.28635246905E+03  0.65726707321E+01 -0.68149466898E+03  0.73924009657E+03  0.00000000000E+00 0.  1.
         21    1    1    2  502  501 -0.75641155653E-02 -0.74762092072E-02  0.35326630312E-01  0.36892822575E-01  0.00000000000E+00 0. -1.
<mgrwt>
<rscale>  1 0.63145438E+03</rscale>
<asrwt>0</asrwt>
<pdfrwt beam="1">  1        1 0.36261839E+00 0.63145438E+03</pdfrwt>
<pdfrwt beam="2">0</pdfrwt>
<totfact> 0.19631710E+00</totfact>
</mgrwt>
</event>
<event>
 6    1  0.1175152E-003  0.6431380E+03  0.7818608E-02  0.9819741E-01
          3   -1    0    0  502    0  0.00000000000E+00  0.00000000000E+00  0.10340736426E+03  0.10340736426E+03  0.00000000000E+00 0.  1.
         13   -1    0    0    0    0 -0.00000000000E+00 -0.00000000000E+00 -0.10000000000E+04  0.10000000000E+04  0.00000000000E+00 0.  1.
    9000005    2    1    2  501    0 -0.66926730000E-04  0.30092627505E-03 -0.89659335396E+03  0.11034065827E+04  0.64313796680E+03 0.  0.
         13    1    3    3    0    0  0.11172307669E+03  0.15170348689E+02 -0.96497674437E+03  0.97154119960E+03  0.00000000000E+00 0.  1.
          1    1    3    3  501    0 -0.11172314362E+03 -0.15170047763E+02  0.68383390416E+02  0.13186538308E+03  0.00000000000E+00 0.  1.
         21    1    1    2  502  501  0.66926730008E-04 -0.30092627504E-03  0.71822041058E-03  0.78158580359E-03  0.00000000000E+00 0. -1.
<mgrwt>
<rscale>  1 0.64313797E+03</rscale>
<asrwt>0</asrwt>
<pdfrwt beam="1">  1        3 0.37602757E+00 0.64313797E+03</pdfrwt>
<pdfrwt beam="2">0</pdfrwt>
<totfact> 0.79307879E-02</totfact>
</mgrwt>
</event>
<event>
 6    1  0.1175152E-003  0.6129638E+03  0.7818608E-02  0.9878869E-01
          3   -1    0    0  502    0  0.00000000000E+00  0.00000000000E+00  0.96555456274E+02  0.96555456274E+02  0.00000000000E+00 0.  1.
         13   -1    0    0    0    0 -0.00000000000E+00 -0.00000000000E+00 -0.10000000000E+04  0.10000000000E+04  0.00000000000E+00 0.  1.
    9000005    2    1    2  501    0 -0.58080900327E+00 -0.15498634412E+00 -0.90603112559E+03  0.10938999402E+04  0.61296355299E+03 0.  0.
         13    1    3    3    0    0 -0.11314075399E+03 -0.25244046863E+03 -0.68940892149E+03  0.74284027990E+03  0.00000000000E+00 0.  1.
          3    1    3    3  501    0  0.11255994498E+03  0.25228548228E+03 -0.21662220410E+03  0.35105966030E+03  0.00000000000E+00 0.  1.
         21    1    1    2  502  501  0.58080900327E+00  0.15498634412E+00  0.25865818608E+01  0.26555160681E+01  0.00000000000E+00 0.  1.
<mgrwt>
<rscale>  1 0.61296385E+03</rscale>
<asrwt>0</asrwt>
<pdfrwt beam="1">  1        3 0.35111149E+00 0.61296385E+03</pdfrwt>
<pdfrwt beam="2">0</pdfrwt>
<totfact> 0.10805808E-01</totfact>
</mgrwt>
</event>
<event>
 6    1  0.1175152E-003  0.6601035E+03  0.7818608E-02  0.9788003E-01
          1   -1    0    0  502    0  0.00000000000E+00  0.00000000000E+00  0.10894407236E+03  0.10894407236E+03  0.00000000000E+00 0.  1.
         13   -1    0    0    0    0 -0.00000000000E+00 -0.00000000000E+00 -0.10000000000E+04  0.10000000000E+04  0.00000000000E+00 0.  1.
    9000005    2    1    2  501    0 -0.67806635417E-03 -0.14789773295E-02 -0.89106578328E+03  0.11089340833E+04  0.66010345479E+03 0.  0.
         13    1    3    3    0    0  0.10332949993E+03 -0.24544535942E+03 -0.11799250021E+03  0.29127759976E+03  0.00000000000E+00 0.  1.
          3    1    3    3  501    0 -0.10333017799E+03  0.24544388044E+03 -0.77307328307E+03  0.81765648357E+03  0.00000000000E+00 0.  1.
         21    1    1    2  502  501  0.67806635418E-03  0.14789773295E-02  0.98556414493E-02  0.99890348031E-02  0.00000000000E+00 0. -1.
<mgrwt>
<rscale>  1 0.66010345E+03</rscale>
<asrwt>0</asrwt>
<pdfrwt beam="1">  1        1 0.39616110E+00 0.66010345E+03</pdfrwt>
<pdfrwt beam="2">0</pdfrwt>
<totfact> 0.13889446E+00</totfact>
</mgrwt>
</event>
<event>
 6    1  0.1175152E-003  0.6427673E+03  0.7818608E-02  0.9820446E-01
          1   -1    0    0  502    0  0.00000000000E+00  0.00000000000E+00  0.10328747308E+03  0.10328747308E+03  0.00000000000E+00 0.  1.
         13   -1    0    0    0    0 -0.00000000000E+00 -0.00000000000E+00 -0.10000000000E+04  0.10000000000E+04  0.00000000000E+00 0.  1.
    9000005    2    1    2  501    0  0.39616719505E-04 -0.57023934403E-04 -0.89671242429E+03  0.11032873492E+04  0.64276730080E+03 0.  0.
         13    1    3    3    0    0 -0.23257350827E+03  0.15887818501E+02 -0.68615468591E+02  0.24300399597E+03  0.00000000000E+00 0.  1.
          3    1    3    3  501    0  0.23257354789E+03 -0.15887875525E+02 -0.82809695570E+03  0.86028335321E+03  0.00000000000E+00 0.  1.
         21    1    1    2  502  501 -0.39616719516E-04  0.57023934402E-04 -0.10262395179E-03  0.12390677561E-03  0.00000000000E+00 0. -1.
<mgrwt>
<rscale>  1 0.64276730E+03</rscale>
<asrwt>0</asrwt>
<pdfrwt beam="1">  1        1 0.37559160E+00 0.64276730E+03</pdfrwt>
<pdfrwt beam="2">0</pdfrwt>
<totfact> 0.17183370E+00</totfact>
</mgrwt>
</event>
<event>
 6    1  0.1175152E-003  0.6544744E+03  0.7818608E-02  0.9798419E-01
          1   -1    0    0  502    0  0.00000000000E+00  0.00000000000E+00  0.10896206704E+03  0.10896206704E+03  0.00000000000E+00 0.  1.
         13   -1    0    0    0    0 -0.00000000000E+00 -0.00000000000E+00 -0.10000000000E+04  0.10000000000E+04  0.00000000000E+00 0.  1.
    9000005    2    1    2  501    0 -0.36852250820E+00  0.63073894879E-01 -0.89289517482E+03  0.11070675659E+04  0.65447434062E+03 0.  0.
         13    1    3    3    0    0  0.87611051895E+02  0.50361878863E+02  0.80012858651E+02  0.12889558878E+03  0.00000000000E+00 0.  1.
          1    1    3    3  501    0 -0.87979574403E+02 -0.50298804968E+02 -0.97290803347E+03  0.97817197715E+03  0.00000000000E+00 0.  1.
         21    1    1    2  502  501  0.36852250820E+00 -0.63073894879E-01  0.18572418531E+01  0.18945011101E+01  0.00000000000E+00 0. -1.
<mgrwt>
<rscale>  1 0.65447445E+03</rscale>
<asrwt>0</asrwt>
<pdfrwt beam="1">  1        1 0.39622653E+00 0.65447445E+03</pdfrwt>
<pdfrwt beam="2">0</pdfrwt>
<totfact> 0.13894761E+00</totfact>
</mgrwt>
</event>
<event>
 6    1  0.1175152E-003  0.6279243E+03  0.7818608E-02  0.9849108E-01
          1   -1    0    0  502    0  0.00000000000E+00  0.00000000000E+00  0.99854693011E+02  0.99854693011E+02  0.00000000000E+00 0.  1.
         13   -1    0    0    0    0 -0.00000000000E+00 -0.00000000000E+00 -0.10000000000E+04  0.10000000000E+04  0.00000000000E+00 0.  1.
    9000005    2    1    2  501    0 -0.16680616003E+00  0.63780855659E+00 -0.90133408953E+03  0.10984953446E+04  0.62792391787E+03 0.  0.
         13    1    3    3    0    0 -0.19090053562E+03  0.16878067928E+03 -0.12944828332E+03  0.28580901010E+03  0.00000000000E+00 0.  1.
          3    1    3    3  501    0  0.19073372946E+03 -0.16814287072E+03 -0.77188580621E+03  0.81268633455E+03  0.00000000000E+00 0.  1.
         21    1    1    2  502  501  0.16680616003E+00 -0.63780855659E+00  0.11887825400E+01  0.13593483650E+01  0.00000000000E+00 0.  1.
<mgrwt>
<rscale>  1 0.62792426E+03</rscale>
<asrwt>0</asrwt>
<pdfrwt beam="1">  1        1 0.36310874E+00 0.62792426E+03</pdfrwt>
<pdfrwt beam="2">0</pdfrwt>
<totfact> 0.19547423E+00</totfact>
</mgrwt>
</event>
<event>
 6    1  0.1175152E-003  0.6526611E+03  0.7818608E-02  0.9801799E-01
          1   -1    0    0  502    0  0.00000000000E+00  0.00000000000E+00  0.10650892973E+03  0.10650892973E+03  0.00000000000E+00 0.  1.
         13   -1    0    0    0    0 -0.00000000000E+00 -0.00000000000E+00 -0.10000000000E+04  0.10000000000E+04  0.00000000000E+00 0.  1.
    9000005    2    1    2  501    0 -0.83418292737E-02 -0.47095549774E-02 -0.89350688532E+03  0.11064904397E+04  0.65266112103E+03 0.  0.
         13    1    3    3    0    0 -0.32144754715E+03 -0.38838672068E+02 -0.51578196318E+03  0.60898932796E+03  0.00000000000E+00 0.  1.
          3    1    3    3  501    0  0.32143920533E+03  0.38833962513E+02 -0.37772492214E+03  0.49750111172E+03  0.00000000000E+00 0.  1.
         21    1    1    2  502  501  0.83418292736E-02  0.47095549774E-02  0.15815047616E-01  0.18490044748E-01  0.00000000000E+00 0.  1.
<mgrwt>
<rscale>  1 0.65266112E+03</rscale>
<asrwt>0</asrwt>
<pdfrwt beam="1">  1        1 0.38730602E+00 0.65266112E+03</pdfrwt>
<pdfrwt beam="2">0</pdfrwt>
<totfact> 0.15226236E+00</totfact>
</mgrwt>
</event>
<event>
 6    1  0.1175152E-003  0.6578290E+03  0.7818608E-02  0.9792199E-01
          1   -1    0    0  502    0  0.00000000000E+00  0.00000000000E+00  0.10818507748E+03  0.10818507748E+03  0.00000000000E+00 0.  1.
         13   -1    0    0    0    0 -0.00000000000E+00 -0.00000000000E+00 -0.10000000000E+04  0.10000000000E+04  0.00000000000E+00 0.  1.
    9000005    2    1    2  501    0 -0.67868555050E-04 -0.10307916961E-03 -0.89181523620E+03  0.11081847404E+04  0.65782900767E+03 0.  0.
         13    1    3    3    0    0 -0.19049323834E+03 -0.26471933637E+03 -0.37402422118E+03  0.49624401148E+03  0.00000000000E+00 0.  1.
          1    1    3    3  501    0  0.19049317047E+03  0.26471923329E+03 -0.51779101502E+03  0.61194072892E+03  0.00000000000E+00 0.  1.
         21    1    1    2  502  501  0.67868555028E-04  0.10307916962E-03  0.31368003653E-03  0.33708548069E-03  0.00000000000E+00 0.  1.
<mgrwt>
<rscale>  1 0.65782901E+03</rscale>
<asrwt>0</asrwt>
<pdfrwt beam="1">  1        1 0.39340111E+00 0.65782901E+03</pdfrwt>
<pdfrwt beam="2">0</pdfrwt>
<totfact> 0.14293564E+00</totfact>
</mgrwt>
</event>
<event>
 6    1  0.1175152E-003  0.6471922E+03  0.7818608E-02  0.9812062E-01
          1   -1    0    0  502    0  0.00000000000E+00  0.00000000000E+00  0.10552930351E+03  0.10552930351E+03  0.00000000000E+00 0.  1.
         13   -1    0    0    0    0 -0.00000000000E+00 -0.00000000000E+00 -0.10000000000E+04  0.10000000000E+04  0.00000000000E+00 0.  1.
    9000005    2    1    2  501    0  0.19361920701E-01 -0.19856802005E-01 -0.89528530497E+03  0.11047142231E+04  0.64719219444E+03 0.  0.
         13    1    3    3    0    0 -0.41115936042E+02 -0.27682471265E+03 -0.72497924063E+03  0.77712118815E+03  0.00000000000E+00 0.  1.
          1    1    3    3  501    0  0.41135297962E+02  0.27680485585E+03 -0.17030606434E+03  0.32759303490E+03  0.00000000000E+00 0.  1.
         21    1    1    2  502  501 -0.19361920701E-01  0.19856802005E-01  0.81460847896E+00  0.81508045649E+00  0.00000000000E+00 0. -1.
<mgrwt>
<rscale>  1 0.64719220E+03</rscale>
<asrwt>0</asrwt>
<pdfrwt beam="1">  1        1 0.38374373E+00 0.64719220E+03</pdfrwt>
<pdfrwt beam="2">0</pdfrwt>
<totfact> 0.15804924E+00</totfact>
</mgrwt>
</event>
<event>
 6    1  0.1175152E-003  0.6516687E+03  0.7818608E-02  0.9803653E-01
          1   -1    0    0  502    0  0.00000000000E+00  0.00000000000E+00  0.10663991311E+03  0.10663991311E+03  0.00000000000E+00 0.  1.
         13   -1    0    0    0    0 -0.00000000000E+00 -0.00000000000E+00 -0.10000000000E+04  0.10000000000E+04  0.00000000000E+00 0.  1.
    9000005    2    1    2  501    0 -0.40566480555E-01  0.85402001448E+00 -0.89335782852E+03  0.11057849272E+04  0.65166813978E+03 0.  0.
         13    1    3    3    0    0 -0.26115741667E+03 -0.19228225089E+03 -0.49548858464E+03  0.59218628640E+03  0.00000000000E+00 0.  1.
          1    1    3    3  501    0  0.26111685019E+03  0.19313627090E+03 -0.39786924388E+03  0.51359864079E+03  0.00000000000E+00 0.  1.
         21    1    1    2  502  501  0.40566480555E-01 -0.85402001448E+00 -0.22583702270E-02  0.85498592077E+00  0.00000000000E+00 0.  1.
<mgrwt>
<rscale>  1 0.65166870E+03</rscale>
<asrwt>0</asrwt>
<pdfrwt beam="1">  1        1 0.38778232E+00 0.65166870E+03</pdfrwt>
<pdfrwt beam="2">0</pdfrwt>
<totfact> 0.15155240E+00</totfact>
</mgrwt>
</event>
<event>
 6    1  0.1175152E-003  0.7450539E+03  0.7818608E-02  0.9643142E-01
          1   -1    0    0  502    0  0.00000000000E+00  0.00000000000E+00  0.13878153812E+03  0.13878153812E+03  0.00000000000E+00 0.  1.
         13   -1    0    0    0    0 -0.00000000000E+00 -0.00000000000E+00 -0.10000000000E+04  0.10000000000E+04  0.00000000000E+00 0.  1.
    9000005    2    1    2  501    0 -0.17351400992E-02 -0.36464596771E-03 -0.86122349479E+03  0.11387762020E+04  0.74505391101E+03 0.  0.
         13    1    3    3    0    0  0.33010542622E+03  0.92681576768E+02 -0.20798008813E+03  0.40101768558E+03  0.00000000000E+00 0.  1.
          1    1    3    3  501    0 -0.33010716136E+03 -0.92681941414E+02 -0.65324340666E+03  0.73775851644E+03  0.00000000000E+00 0.  1.
         21    1    1    2  502  501  0.17351400992E-02  0.36464596770E-03  0.50329136728E-02  0.53360938788E-02  0.00000000000E+00 0. -1.
<mgrwt>
<rscale>  1 0.74505391E+03</rscale>
<asrwt>0</asrwt>
<pdfrwt beam="1">  1        1 0.50466120E+00 0.74505391E+03</pdfrwt>
<pdfrwt beam="2">0</pdfrwt>
<totfact> 0.43025299E-01</totfact>
</mgrwt>
</event>
<event>
 6    1  0.1175152E-003  0.6458436E+03  0.7818608E-02  0.9814610E-01
          1   -1    0    0  502    0  0.00000000000E+00  0.00000000000E+00  0.10582065554E+03  0.10582065554E+03  0.00000000000E+00 0.  1.
         13   -1    0    0    0    0 -0.00000000000E+00 -0.00000000000E+00 -0.10000000000E+04  0.10000000000E+04  0.00000000000E+00 0.  1.
    9000005    2    1    2  501    0  0.24577585699E-01 -0.29794836961E-01 -0.89572123440E+03  0.11042782819E+04  0.64584362864E+03 0.  0.
         13    1    3    3    0    0 -0.43399512250E+02 -0.60185716229E+02 -0.98522933597E+03  0.98801957600E+03  0.00000000000E+00 0.  1.
          1    1    3    3  501    0  0.43424089836E+02  0.60155921392E+02  0.89508101564E+02  0.11625870592E+03  0.00000000000E+00 0.  1.
         21    1    1    2  502  501 -0.24577585699E-01  0.29794836961E-01  0.15418899488E+01  0.15423736266E+01  0.00000000000E+00 0.  1.
<mgrwt>
<rscale>  1 0.64584363E+03</rscale>
<asrwt>0</asrwt>
<pdfrwt beam="1">  1        1 0.38480320E+00 0.64584363E+03</pdfrwt>
<pdfrwt beam="2">0</pdfrwt>
<totfact> 0.15639289E+00</totfact>
</mgrwt>
</event>
<event>
 6    1  0.1175152E-003  0.5901941E+03  0.7818608E-02  0.9925962E-01
          1   -1    0    0  502    0  0.00000000000E+00  0.00000000000E+00  0.88307609038E+02  0.88307609038E+02  0.00000000000E+00 0.  1.
         13   -1    0    0    0    0 -0.00000000000E+00 -0.00000000000E+00 -0.10000000000E+04  0.10000000000E+04  0.00000000000E+00 0.  1.
    9000005    2    1    2  501    0  0.44553862404E-01 -0.28097150335E-01 -0.91291710661E+03  0.10870817612E+04  0.59019412843E+03 0.  0.
         13    1    3    3    0    0 -0.13390326479E+03  0.26256340841E+03 -0.48242683362E+03  0.56533642864E+03  0.00000000000E+00 0.  1.
          1    1    3    3  501    0  0.13394781865E+03 -0.26259150556E+03 -0.43049027299E+03  0.52174533257E+03  0.00000000000E+00 0.  1.
         21    1    1    2  502  501 -0.44553862404E-01  0.28097150335E-01  0.12247156463E+01  0.12258478334E+01  0.00000000000E+00 0.  1.
<mgrwt>
<rscale>  1 0.59019413E+03</rscale>
<asrwt>0</asrwt>
<pdfrwt beam="1">  1        1 0.32111926E+00 0.59019413E+03</pdfrwt>
<pdfrwt beam="2">0</pdfrwt>
<totfact> 0.29961936E+00</totfact>
</mgrwt>
</event>
<event>
 6    1  0.1175152E-003  0.6486043E+03  0.7818608E-02  0.9809402E-01
          1   -1    0    0  502    0  0.00000000000E+00  0.00000000000E+00  0.10638539306E+03  0.10638539306E+03  0.00000000000E+00 0.  1.
         13   -1    0    0    0    0 -0.00000000000E+00 -0.00000000000E+00 -0.10000000000E+04  0.10000000000E+04  0.00000000000E+00 0.  1.
    9000005    2    1    2  501    0 -0.18249945429E-01  0.55612542504E-01 -0.89482732060E+03  0.11051712678E+04  0.64860434317E+03 0.  0.
         13    1    3    3    0    0  0.21373506408E+03  0.11168426895E+03 -0.81689141257E+03  0.85174387787E+03  0.00000000000E+00 0.  1.
          3    1    3    3  501    0 -0.21375331403E+03 -0.11162865641E+03 -0.77935908023E+02  0.25342738990E+03  0.00000000000E+00 0.  1.
         21    1    1    2  502  501  0.18249945429E-01 -0.55612542504E-01  0.12127136517E+01  0.12141252886E+01  0.00000000000E+00 0. -1.
<mgrwt>
<rscale>  1 0.64860435E+03</rscale>
<asrwt>0</asrwt>
<pdfrwt beam="1">  1        1 0.38685679E+00 0.64860435E+03</pdfrwt>
<pdfrwt beam="2">0</pdfrwt>
<totfact> 0.15307638E+00</totfact>
</mgrwt>
</event>
<event>
 6    1  0.1175152E-003  0.6571349E+03  0.7818608E-02  0.9793482E-01
          1   -1    0    0  502    0  0.00000000000E+00  0.00000000000E+00  0.10846045301E+03  0.10846045301E+03  0.00000000000E+00 0.  1.
         13   -1    0    0    0    0 -0.00000000000E+00 -0.00000000000E+00 -0.10000000000E+04  0.10000000000E+04  0.00000000000E+00 0.  1.
    9000005    2    1    2  501    0 -0.20274350993E-01 -0.17482774477E-01 -0.89204305083E+03  0.11079562380E+04  0.65713485677E+03 0.  0.
         13    1    3    3    0    0  0.27544223040E+03 -0.97197278146E+02 -0.69968806674E+03  0.75820783688E+03  0.00000000000E+00 0.  1.
          1    1    3    3  501    0 -0.27546250475E+03  0.97179795372E+02 -0.19235498409E+03  0.34974840108E+03  0.00000000000E+00 0.  1.
         21    1    1    2  502  501  0.20274350993E-01  0.17482774477E-01  0.50350383807E+00  0.50421504506E+00  0.00000000000E+00 0.  1.
<mgrwt>
<rscale>  1 0.65713486E+03</rscale>
<asrwt>0</asrwt>
<pdfrwt beam="1">  1        1 0.39440248E+00 0.65713486E+03</pdfrwt>
<pdfrwt beam="2">0</pdfrwt>
<totfact> 0.14149678E+00</totfact>
</mgrwt>
</event>
<event>
 6    1  0.1175152E-003  0.6796961E+03  0.7818608E-02  0.9752599E-01
          1   -1    0    0  502    0  0.00000000000E+00  0.00000000000E+00  0.11685434150E+03  0.11685434150E+03  0.00000000000E+00 0.  1.
         13   -1    0    0    0    0 -0.00000000000E+00 -0.00000000000E+00 -0.10000000000E+04  0.10000000000E+04  0.00000000000E+00 0.  1.
    9000005    2    1    2  501    0  0.59770305512E-01  0.46921729934E-01 -0.88450212551E+03  0.11154957478E+04  0.67969606996E+03 0.  0.
         13    1    3    3    0    0 -0.22474432530E+03 -0.10481294060E+03 -0.82352745456E+03  0.86005420334E+03  0.00000000000E+00 0.  1.
          1    1    3    3  501    0  0.22480409561E+03  0.10485986233E+03 -0.60974670949E+02  0.25544154444E+03  0.00000000000E+00 0.  1.
         21    1    1    2  502  501 -0.59770305512E-01 -0.46921729934E-01  0.13564670065E+01  0.13585937134E+01  0.00000000000E+00 0. -1.
<mgrwt>
<rscale>  1 0.67969607E+03</rscale>
<asrwt>0</asrwt>
<pdfrwt beam="1">  1        1 0.42492577E+00 0.67969607E+03</pdfrwt>
<pdfrwt beam="2">0</pdfrwt>
<totfact> 0.10279769E+00</totfact>
</mgrwt>
</event>
<event>
 6    1  0.1175152E-003  0.6461207E+03  0.7818608E-02  0.9814086E-01
          1   -1    0    0  502    0  0.00000000000E+00  0.00000000000E+00  0.10437958199E+03  0.10437958199E+03  0.00000000000E+00 0.  1.
         13   -1    0    0    0    0 -0.00000000000E+00 -0.00000000000E+00 -0.10000000000E+04  0.10000000000E+04  0.00000000000E+00 0.  1.
    9000005    2    1    2  501    0 -0.12534601388E-02  0.16665187665E-02 -0.89563189796E+03  0.11043679142E+04  0.64612072651E+03 0.  0.
         13    1    3    3    0    0  0.15955791569E+02 -0.14533555956E+03  0.44581030638E+02  0.15285444204E+03  0.00000000000E+00 0.  1.
          1    1    3    3  501    0 -0.15957045029E+02  0.14533722608E+03 -0.94021292860E+03  0.95151347215E+03  0.00000000000E+00 0.  1.
         21    1    1    2  502  501  0.12534601388E-02 -0.16665187665E-02  0.11479951465E-01  0.11667807538E-01  0.00000000000E+00 0. -1.
<mgrwt>
<rscale>  1 0.64612073E+03</rscale>
<asrwt>0</asrwt>
<pdfrwt beam="1">  1        1 0.37956292E+00 0.64612073E+03</pdfrwt>
<pdfrwt beam="2">0</pdfrwt>
<totfact> 0.16494503E+00</totfact>
</mgrwt>
</event>
<event>
 6    1  0.1175152E-003  0.6855020E+03  0.7818608E-02  0.9742352E-01
          1   -1    0    0  502    0  0.00000000000E+00  0.00000000000E+00  0.11748104485E+03  0.11748104485E+03  0.00000000000E+00 0.  1.
         13   -1    0    0    0    0 -0.00000000000E+00 -0.00000000000E+00 -0.10000000000E+04  0.10000000000E+04  0.00000000000E+00 0.  1.
    9000005    2    1    2  501    0  0.36506552136E-03  0.22981425957E-04 -0.88252172654E+03  0.11174782494E+04  0.68550203509E+03 0.  0.
         13    1    3    3    0    0 -0.25405044269E+02  0.34166892842E+03 -0.45716521856E+03  0.57129949237E+03  0.00000000000E+00 0.  1.
          1    1    3    3  501    0  0.25405409335E+02 -0.34166890544E+03 -0.42535650798E+03  0.54617875705E+03  0.00000000000E+00 0.  1.
         21    1    1    2  502  501 -0.36506552136E-03 -0.22981426005E-04  0.27713973003E-02  0.27954326995E-02  0.00000000000E+00 0. -1.
<mgrwt>
<rscale>  1 0.68550204E+03</rscale>
<asrwt>0</asrwt>
<pdfrwt beam="1">  1        1 0.42720470E+00 0.68550204E+03</pdfrwt>
<pdfrwt beam="2">0</pdfrwt>
<totfact> 0.10026993E+00</totfact>
</mgrwt>
</event>
<event>
 6    1  0.1175152E-003  0.6127053E+03  0.7818608E-02  0.9879392E-01
          1   -1    0    0  502    0  0.00000000000E+00  0.00000000000E+00  0.95087305265E+02  0.95087305265E+02  0.00000000000E+00 0.  1.
         13   -1    0    0    0    0 -0.00000000000E+00 -0.00000000000E+00 -0.10000000000E+04  0.10000000000E+04  0.00000000000E+00 0.  1.
    9000005    2    1    2  501    0 -0.99542607919E-02  0.54547977589E-01 -0.90614738688E+03  0.10938513687E+04  0.61270525288E+03 0.  0.
         13    1    3    3    0    0 -0.25506615231E+03 -0.16388177093E+03 -0.53147974133E+03  0.61187146717E+03  0.00000000000E+00 0.  1.
          3    1    3    3  501    0  0.25505619805E+03  0.16393631890E+03 -0.37466764556E+03  0.48197990150E+03  0.00000000000E+00 0.  1.
         21    1    1    2  502  501  0.99542607919E-02 -0.54547977589E-01  0.12346921493E+01  0.12359365973E+01  0.00000000000E+00 0. -1.
<mgrwt>
<rscale>  1 0.61270526E+03</rscale>
<asrwt>0</asrwt>
<pdfrwt beam="1">  1        1 0.34577275E+00 0.61270526E+03</pdfrwt>
<pdfrwt beam="2">0</pdfrwt>
<totfact> 0.23331052E+00</totfact>
</mgrwt>
</event>
<event>
 6    1  0.1175152E-003  0.6584986E+03  0.7818608E-02  0.9790962E-01
          1   -1    0    0  502    0  0.00000000000E+00  0.00000000000E+00  0.10959972712E+03  0.10959972712E+03  0.00000000000E+00 0.  1.
         13   -1    0    0    0    0 -0.00000000000E+00 -0.00000000000E+00 -0.10000000000E+04  0.10000000000E+04  0.00000000000E+00 0.  1.
    9000005    2    1    2  501    0  0.39132775754E-01  0.73377272580E-01 -0.89159328651E+03  0.11084038186E+04  0.65849861784E+03 0.  0.
         13    1    3    3    0    0 -0.20403714481E+03  0.98143283037E+01 -0.88040154682E+03  0.90378889191E+03  0.00000000000E+00 0.  1.
          1    1    3    3  501    0  0.20407627758E+03 -0.97409510311E+01 -0.11191739687E+02  0.20461492672E+03  0.00000000000E+00 0.  1.
         21    1    1    2  502  501 -0.39132775754E-01 -0.73377272580E-01  0.11930136234E+01  0.11959084847E+01  0.00000000000E+00 0. -1.
<mgrwt>
<rscale>  1 0.65849862E+03</rscale>
<asrwt>0</asrwt>
<pdfrwt beam="1">  1        1 0.39854530E+00 0.65849862E+03</pdfrwt>
<pdfrwt beam="2">0</pdfrwt>
<totfact> 0.13558130E+00</totfact>
</mgrwt>
</event>
<event>
 6    1  0.1175152E-003  0.6634522E+03  0.7818608E-02  0.9781859E-01
          1   -1    0    0  502    0  0.00000000000E+00  0.00000000000E+00  0.11102953114E+03  0.11102953114E+03  0.00000000000E+00 0.  1.
         13   -1    0    0    0    0 -0.00000000000E+00 -0.00000000000E+00 -0.10000000000E+04  0.10000000000E+04  0.00000000000E+00 0.  1.
    9000005    2    1    2  501    0 -0.21346284124E+00 -0.67628694403E+00 -0.88981436967E+03  0.11099272159E+04  0.66345181369E+03 0.  0.
         13    1    3    3    0    0 -0.27043080063E+03 -0.18017183021E+03 -0.55906637366E+03  0.64664512408E+03  0.00000000000E+00 0.  1.
          1    1    3    3  501    0  0.27021733779E+03  0.17949554326E+03 -0.33074799601E+03  0.46328209177E+03  0.00000000000E+00 0.  1.
         21    1    1    2  502  501  0.21346284124E+00  0.67628694403E+00  0.84390081357E+00  0.11023152899E+01  0.00000000000E+00 0.  1.
<mgrwt>
<rscale>  1 0.66345219E+03</rscale>
<asrwt>0</asrwt>
<pdfrwt beam="1">  1        1 0.40374460E+00 0.66345219E+03</pdfrwt>
<pdfrwt beam="2">0</pdfrwt>
<totfact> 0.12840949E+00</totfact>
</mgrwt>
</event>
<event>
 6    1  0.1175152E-003  0.6485856E+03  0.7818608E-02  0.9809437E-01
          1   -1    0    0  502    0  0.00000000000E+00  0.00000000000E+00  0.10584725338E+03  0.10584725338E+03  0.00000000000E+00 0.  1.
         13   -1    0    0    0    0 -0.00000000000E+00 -0.00000000000E+00 -0.10000000000E+04  0.10000000000E+04  0.00000000000E+00 0.  1.
    9000005    2    1    2  501    0 -0.20644926624E+01 -0.37002563521E+00 -0.89135173828E+03  0.11023480111E+04  0.64858215914E+03 0.  0.
         13    1    3    3    0    0  0.41766970361E+02  0.27114701885E+03 -0.73824175048E+03  0.78756972250E+03  0.00000000000E+00 0.  1.
          3    1    3    3  501    0 -0.43831463023E+02 -0.27151704449E+03 -0.15310998780E+03  0.31477828858E+03  0.00000000000E+00 0.  1.
         21    1    1    2  502  501  0.20644926624E+01  0.37002563521E+00 -0.28010083403E+01  0.34992422960E+01  0.00000000000E+00 0.  1.
<mgrwt>
<rscale>  1 0.64858555E+03</rscale>
<asrwt>0</asrwt>
<pdfrwt beam="1">  1        1 0.38489991E+00 0.64858555E+03</pdfrwt>
<pdfrwt beam="2">0</pdfrwt>
<totfact> 0.15615953E+00</totfact>
</mgrwt>
</event>
<event>
 6    1  0.1175152E-003  0.6472023E+03  0.7818608E-02  0.9812043E-01
          1   -1    0    0  502    0  0.00000000000E+00  0.00000000000E+00  0.10617825158E+03  0.10617825158E+03  0.00000000000E+00 0.  1.
         13   -1    0    0    0    0 -0.00000000000E+00 -0.00000000000E+00 -0.10000000000E+04  0.10000000000E+04  0.00000000000E+00 0.  1.
    9000005    2    1    2  501    0 -0.62852967132E-01 -0.15456148154E+00 -0.89527702953E+03  0.11047134366E+04  0.64720227875E+03 0.  0.
         13    1    3    3    0    0 -0.60767065000E+02 -0.31492696629E+03 -0.52212482303E+03  0.61276909282E+03  0.00000000000E+00 0.  1.
          3    1    3    3  501    0  0.60704212033E+02  0.31477240481E+03 -0.37315220650E+03  0.49194434381E+03  0.00000000000E+00 0.  1.
         21    1    1    2  502  501  0.62852967132E-01  0.15456148154E+00  0.14552811089E+01  0.14648149552E+01  0.00000000000E+00 0.  1.
<mgrwt>
<rscale>  1 0.64720230E+03</rscale>
<asrwt>0</asrwt>
<pdfrwt beam="1">  1        1 0.38610355E+00 0.64720230E+03</pdfrwt>
<pdfrwt beam="2">0</pdfrwt>
<totfact> 0.15429618E+00</totfact>
</mgrwt>
</event>
<event>
 6    1  0.1175152E-003  0.6549665E+03  0.7818608E-02  0.9797504E-01
          1   -1    0    0  502    0  0.00000000000E+00  0.00000000000E+00  0.10728676987E+03  0.10728676987E+03  0.00000000000E+00 0.  1.
         13   -1    0    0    0    0 -0.00000000000E+00 -0.00000000000E+00 -0.10000000000E+04  0.10000000000E+04  0.00000000000E+00 0.  1.
    9000005    2    1    2  501    0  0.42671590194E-01  0.33247544764E-03 -0.89274222300E+03  0.11072351795E+04  0.65496646042E+03 0.  0.
         13    1    3    3    0    0  0.18720396394E+03  0.25962478319E+03 -0.56354716122E+03  0.64810165489E+03  0.00000000000E+00 0.  1.
          3    1    3    3  501    0 -0.18716129235E+03 -0.25962445071E+03 -0.32919506178E+03  0.45913352465E+03  0.00000000000E+00 0.  1.
         21    1    1    2  502  501 -0.42671590194E-01 -0.33247544767E-03  0.28992870284E-01  0.51590325420E-01  0.00000000000E+00 0.  1.
<mgrwt>
<rscale>  1 0.65496646E+03</rscale>
<asrwt>0</asrwt>
<pdfrwt beam="1">  1        1 0.39013453E+00 0.65496646E+03</pdfrwt>
<pdfrwt beam="2">0</pdfrwt>
<totfact> 0.14786716E+00</totfact>
</mgrwt>
</event>
<event>
 6    1  0.1175152E-003  0.6628989E+03  0.7818608E-02  0.9782872E-01
          1   -1    0    0  502    0  0.00000000000E+00  0.00000000000E+00  0.10993199230E+03  0.10993199230E+03  0.00000000000E+00 0.  1.
         13   -1    0    0    0    0 -0.00000000000E+00 -0.00000000000E+00 -0.10000000000E+04  0.10000000000E+04  0.00000000000E+00 0.  1.
    9000005    2    1    2  501    0  0.49376307746E-02  0.44007025929E-03 -0.89014117140E+03  0.11098586609E+04  0.66289889276E+03 0.  0.
         13    1    3    3    0    0 -0.17570845578E+03  0.28042491329E+03 -0.41390832074E+03  0.52993555401E+03  0.00000000000E+00 0.  1.
          1    1    3    3  501    0  0.17571339341E+03 -0.28042447322E+03 -0.47623285066E+03  0.57992310684E+03  0.00000000000E+00 0.  1.
         21    1    1    2  502  501 -0.49376307746E-02 -0.44007025932E-03  0.73163704721E-01  0.73331449924E-01  0.00000000000E+00 0. -1.
<mgrwt>
<rscale>  1 0.66289889E+03</rscale>
<asrwt>0</asrwt>
<pdfrwt beam="1">  1        1 0.39975354E+00 0.66289889E+03</pdfrwt>
<pdfrwt beam="2">0</pdfrwt>
<totfact> 0.13380023E+00</totfact>
</mgrwt>
</event>
<event>
 6    1  0.1175152E-003  0.6365596E+03  0.7818608E-02  0.9832331E-01
          1   -1    0    0  502    0  0.00000000000E+00  0.00000000000E+00  0.10282898246E+03  0.10282898246E+03  0.00000000000E+00 0.  1.
         13   -1    0    0    0    0 -0.00000000000E+00 -0.00000000000E+00 -0.10000000000E+04  0.10000000000E+04  0.00000000000E+00 0.  1.
    9000005    2    1    2  501    0 -0.15227501218E+00  0.19750251926E+00 -0.89868673254E+03  0.11012928878E+04  0.63655959596E+03 0.  0.
         13    1    3    3    0    0  0.14801979565E+03  0.25579856662E+03 -0.65401664873E+03  0.71769111978E+03  0.00000000000E+00 0.  1.
          3    1    3    3  501    0 -0.14817207067E+03 -0.25560106410E+03 -0.24467008381E+03  0.38360176799E+03  0.00000000000E+00 0.  1.
         21    1    1    2  502  501  0.15227501218E+00 -0.19750251926E+00  0.15157149995E+01  0.15360946859E+01  0.00000000000E+00 0. -1.
<mgrwt>
<rscale>  1 0.63655964E+03</rscale>
<asrwt>0</asrwt>
<pdfrwt beam="1">  1        1 0.37392436E+00 0.63655964E+03</pdfrwt>
<pdfrwt beam="2">0</pdfrwt>
<totfact> 0.17496069E+00</totfact>
</mgrwt>
</event>
<event>
 6    1  0.1175152E-003  0.4682328E+03  0.7818608E-02  0.1022420E+00
          1   -1    0    0  502    0  0.00000000000E+00  0.00000000000E+00  0.56380596952E+02  0.56380596952E+02  0.00000000000E+00 0.  1.
         13   -1    0    0    0    0 -0.00000000000E+00 -0.00000000000E+00 -0.10000000000E+04  0.10000000000E+04  0.00000000000E+00 0.  1.
    9000005    2    1    2  501    0 -0.15771093197E+01 -0.17800085383E+01 -0.94420765946E+03  0.10539307501E+04  0.46822672501E+03 0.  0.
         13    1    3    3    0    0  0.22638207995E+03 -0.56457689939E+02 -0.49513609584E+03  0.54735369760E+03  0.00000000000E+00 0.  1.
          1    1    3    3  501    0 -0.22795918927E+03  0.54677681401E+02 -0.44907156363E+03  0.50657705246E+03  0.00000000000E+00 0.  1.
         21    1    1    2  502  501  0.15771093197E+01  0.17800085383E+01  0.58825641728E+00  0.24498468963E+01  0.00000000000E+00 0.  1.
<mgrwt>
<rscale>  1 0.46823276E+03</rscale>
<asrwt>0</asrwt>
<pdfrwt beam="1">  1        1 0.20502078E+00 0.46823276E+03</pdfrwt>
<pdfrwt beam="2">0</pdfrwt>
<totfact> 0.98061730E+00</totfact>
</mgrwt>
</event>
<event>
 6    1  0.1175152E-003  0.6523895E+03  0.7818608E-02  0.9802306E-01
          1   -1    0    0  502    0  0.00000000000E+00  0.00000000000E+00  0.10640309039E+03  0.10640309039E+03  0.00000000000E+00 0.  1.
         13   -1    0    0    0    0 -0.00000000000E+00 -0.00000000000E+00 -0.10000000000E+04  0.10000000000E+04  0.00000000000E+00 0.  1.
    9000005    2    1    2  501    0  0.35792196620E-04  0.12190725568E-03 -0.89359693212E+03  0.11064029614E+04  0.65238948167E+03 0.  0.
         13    1    3    3    0    0  0.45061340183E+02  0.44676065002E+02 -0.98943198454E+03  0.99146463739E+03  0.00000000000E+00 0.  1.
          1    1    3    3  501    0 -0.45061304391E+02 -0.44675943095E+02  0.95835052417E+02  0.11493832397E+03  0.00000000000E+00 0.  1.
         21    1    1    2  502  501 -0.35792196617E-04 -0.12190725569E-03  0.22507406880E-04  0.12903117334E-03  0.00000000000E+00 0. -1.
<mgrwt>
<rscale>  1 0.65238948E+03</rscale>
<asrwt>0</asrwt>
<pdfrwt beam="1">  1        1 0.38692114E+00 0.65238948E+03</pdfrwt>
<pdfrwt beam="2">0</pdfrwt>
<totfact> 0.15286872E+00</totfact>
</mgrwt>
</event>
<event>
 6    1  0.1175152E-003  0.6479198E+03  0.7818608E-02  0.9810690E-01
          1   -1    0    0  502    0  0.00000000000E+00  0.00000000000E+00  0.10495727407E+03  0.10495727407E+03  0.00000000000E+00 0.  1.
         13   -1    0    0    0    0 -0.00000000000E+00 -0.00000000000E+00 -0.10000000000E+04  0.10000000000E+04  0.00000000000E+00 0.  1.
    9000005    2    1    2  501    0 -0.19800224446E-02 -0.31292727694E-02 -0.89504945268E+03  0.11049495954E+04  0.64791981420E+03 0.  0.
         13    1    3    3    0    0 -0.19081636840E+03 -0.46942763386E+02 -0.82918293477E+01  0.19668061399E+03  0.00000000000E+00 0.  1.
          1    1    3    3  501    0  0.19081438838E+03  0.46939634113E+02 -0.88675762333E+03  0.90826898141E+03  0.00000000000E+00 0.  1.
         21    1    1    2  502  501  0.19800224446E-02  0.31292727694E-02  0.67267477042E-02  0.76786699123E-02  0.00000000000E+00 0.  1.
<mgrwt>
<rscale>  1 0.64791981E+03</rscale>
<asrwt>0</asrwt>
<pdfrwt beam="1">  1        1 0.38166362E+00 0.64791981E+03</pdfrwt>
<pdfrwt beam="2">0</pdfrwt>
<totfact> 0.16140759E+00</totfact>
</mgrwt>
</event>
<event>
 6    1  0.1175152E-003  0.6536355E+03  0.7818608E-02  0.9799981E-01
          1   -1    0    0  502    0  0.00000000000E+00  0.00000000000E+00  0.10751096966E+03  0.10751096966E+03  0.00000000000E+00 0.  1.
         13   -1    0    0    0    0 -0.00000000000E+00 -0.00000000000E+00 -0.10000000000E+04  0.10000000000E+04  0.00000000000E+00 0.  1.
    9000005    2    1    2  501    0 -0.22400450681E-02 -0.20299637317E-01 -0.89318999633E+03  0.11068097062E+04  0.65363549157E+03 0.  0.
         13    1    3    3    0    0  0.72537228343E+02  0.30727188909E+03 -0.30364174056E+03  0.43803649384E+03  0.00000000000E+00 0.  1.
          3    1    3    3  501    0 -0.72539468388E+02 -0.30729218873E+03 -0.58954825577E+03  0.66877321239E+03  0.00000000000E+00 0.  1.
         21    1    1    2  502  501  0.22400450681E-02  0.20299637317E-01  0.70096598550E+00  0.70126343546E+00  0.00000000000E+00 0. -1.
<mgrwt>
<rscale>  1 0.65363549E+03</rscale>
<asrwt>0</asrwt>
<pdfrwt beam="1">  1        1 0.39094980E+00 0.65363549E+03</pdfrwt>
<pdfrwt beam="2">0</pdfrwt>
<totfact> 0.14667720E+00</totfact>
</mgrwt>
</event>
<event>
 6    1  0.1175152E-003  0.5999635E+03  0.7818608E-02  0.9905482E-01
          1   -1    0    0  502    0  0.00000000000E+00  0.00000000000E+00  0.10046811650E+03  0.10046811650E+03  0.00000000000E+00 0.  1.
         13   -1    0    0    0    0 -0.00000000000E+00 -0.00000000000E+00 -0.10000000000E+04  0.10000000000E+04  0.00000000000E+00 0.  1.
    9000005    2    1    2  501    0 -0.12159391125E+02 -0.31542015678E+01 -0.90576355695E+03  0.10864455085E+04  0.59983199494E+03 0.  0.
         13    1    3    3    0    0 -0.34327331599E+02 -0.89330492565E+02  0.62371372968E+02  0.11422999064E+03  0.00000000000E+00 0.  1.
          1    1    3    3  501    0  0.22167940474E+02  0.86176290997E+02 -0.96813492992E+03  0.97221551790E+03  0.00000000000E+00 0.  1.
         21    1    1    2  502  501  0.12159391125E+02  0.31542015678E+01  0.62316734532E+01  0.14022607963E+02  0.00000000000E+00 0. -1.
<mgrwt>
<rscale>  1 0.59996352E+03</rscale>
<asrwt>0</asrwt>
<pdfrwt beam="1">  1        1 0.36533938E+00 0.59996352E+03</pdfrwt>
<pdfrwt beam="2">0</pdfrwt>
<totfact> 0.19212542E+00</totfact>
</mgrwt>
</event>
<event>
 6    1  0.1175152E-003  0.6546142E+03  0.7818608E-02  0.9798159E-01
          1   -1    0    0  502    0  0.00000000000E+00  0.00000000000E+00  0.10712996529E+03  0.10712996529E+03  0.00000000000E+00 0.  1.
         13   -1    0    0    0    0 -0.00000000000E+00 -0.00000000000E+00 -0.10000000000E+04  0.10000000000E+04  0.00000000000E+00 0.  1.
    9000005    2    1    2  501    0 -0.86531591421E-05  0.15039388671E-04 -0.89287004613E+03  0.11071299445E+04  0.65461423355E+03 0.  0.
         13    1    3    3    0    0  0.25248226635E+02  0.19649541877E+03 -0.57882899932E+01  0.19819542589E+03  0.00000000000E+00 0.  1.
          3    1    3    3  501    0 -0.25248235288E+02 -0.19649540373E+03 -0.88708175614E+03  0.90893451862E+03  0.00000000000E+00 0.  1.
         21    1    1    2  502  501  0.86531591431E-05 -0.15039388661E-04  0.11425113844E-04  0.20774830946E-04  0.00000000000E+00 0.  1.
<mgrwt>
<rscale>  1 0.65461423E+03</rscale>
<asrwt>0</asrwt>
<pdfrwt beam="1">  1        1 0.38956433E+00 0.65461423E+03</pdfrwt>
<pdfrwt beam="2">0</pdfrwt>
<totfact> 0.14874028E+00</totfact>
</mgrwt>
</event>
<event>
 6    1  0.1175152E-003  0.6453173E+03  0.7818608E-02  0.9815606E-01
          1   -1    0    0  502    0  0.00000000000E+00  0.00000000000E+00  0.10411685170E+03  0.10411685170E+03  0.00000000000E+00 0.  1.
         13   -1    0    0    0    0 -0.00000000000E+00 -0.00000000000E+00 -0.10000000000E+04  0.10000000000E+04  0.00000000000E+00 0.  1.
    9000005    2    1    2  501    0 -0.11311293322E-01  0.14389599426E-01 -0.89587820727E+03  0.11040978933E+04  0.64531728278E+03 0.  0.
         13    1    3    3    0    0 -0.26817733154E+03  0.37071423316E+02 -0.14758677004E+03  0.30834270912E+03  0.00000000000E+00 0.  1.
          1    1    3    3  501    0  0.26816602024E+03 -0.37057033717E+02 -0.74829143723E+03  0.79575518421E+03  0.00000000000E+00 0.  1.
         21    1    1    2  502  501  0.11311293322E-01 -0.14389599426E-01 -0.49410308372E-02  0.18958367915E-01  0.00000000000E+00 0. -1.
<mgrwt>
<rscale>  1 0.64531728E+03</rscale>
<asrwt>0</asrwt>
<pdfrwt beam="1">  1        1 0.37860753E+00 0.64531728E+03</pdfrwt>
<pdfrwt beam="2">0</pdfrwt>
<totfact> 0.16657769E+00</totfact>
</mgrwt>
</event>
<event>
 6    1  0.1175152E-003  0.6362206E+03  0.7818608E-02  0.9832984E-01
          1   -1    0    0  502    0  0.00000000000E+00  0.00000000000E+00  0.10119928178E+03  0.10119928178E+03  0.00000000000E+00 0.  1.
         13   -1    0    0    0    0 -0.00000000000E+00 -0.00000000000E+00 -0.10000000000E+04  0.10000000000E+04  0.00000000000E+00 0.  1.
    9000005    2    1    2  501    0  0.51168611979E-02  0.74508240225E-02 -0.89880105228E+03  0.11011902370E+04  0.63622056422E+03 0.  0.
         13    1    3    3    0    0  0.21139307598E+03 -0.58772337841E+02 -0.50733405051E+02  0.22520013023E+03  0.00000000000E+00 0.  1.
          1    1    3    3  501    0 -0.21138795912E+03  0.58779788665E+02 -0.84806764723E+03  0.87599010674E+03  0.00000000000E+00 0.  1.
         21    1    1    2  502  501 -0.51168611979E-02 -0.74508240225E-02  0.33406730489E-03  0.90448133257E-02  0.00000000000E+00 0. -1.
<mgrwt>
<rscale>  1 0.63622056E+03</rscale>
<asrwt>0</asrwt>
<pdfrwt beam="1">  1        1 0.36799816E+00 0.63622056E+03</pdfrwt>
<pdfrwt beam="2">0</pdfrwt>
<totfact> 0.18578189E+00</totfact>
</mgrwt>
</event>
<event>
 6    1  0.1175152E-003  0.6273855E+03  0.7818608E-02  0.9850164E-01
          1   -1    0    0  502    0  0.00000000000E+00  0.00000000000E+00  0.12845218498E+03  0.12845218498E+03  0.00000000000E+00 0.  1.
         13   -1    0    0    0    0 -0.00000000000E+00 -0.00000000000E+00 -0.10000000000E+04  0.10000000000E+04  0.00000000000E+00 0.  1.
    9000005    2    1    2  501    0  0.13385939908E+02 -0.11109254775E+02 -0.89880770827E+03  0.10961148890E+04  0.62714428532E+03 0.  0.
         13    1    3    3    0    0 -0.18634946881E+03  0.23956327937E+03 -0.38064853736E+03  0.48683672657E+03  0.00000000000E+00 0.  1.
          3    1    3    3  501    0  0.19973540872E+03 -0.25067253414E+03 -0.51815917091E+03  0.60927816247E+03  0.00000000000E+00 0.  1.
         21    1    1    2  502  501 -0.13385939908E+02  0.11109254775E+02  0.27259893251E+02  0.32337295943E+02  0.00000000000E+00 0.  1.
<mgrwt>
<rscale>  1 0.62738549E+03</rscale>
<asrwt>0</asrwt>
<pdfrwt beam="1">  1        1 0.46709984E+00 0.62738549E+03</pdfrwt>
<pdfrwt beam="2">0</pdfrwt>
<totfact> 0.66520052E-01</totfact>
</mgrwt>
</event>
<event>
 6    1  0.1175152E-003  0.6527456E+03  0.7818608E-02  0.9801641E-01
          1   -1    0    0  502    0  0.00000000000E+00  0.00000000000E+00  0.10653265887E+03  0.10653265887E+03  0.00000000000E+00 0.  1.
         13   -1    0    0    0    0 -0.00000000000E+00 -0.00000000000E+00 -0.10000000000E+04  0.10000000000E+04  0.00000000000E+00 0.  1.
    9000005    2    1    2  501    0 -0.82024572851E-02 -0.53844414373E-02 -0.89347878088E+03  0.11065175877E+04  0.65274561651E+03 0.  0.
         13    1    3    3    0    0 -0.25507211640E+03  0.33728609442E+02 -0.10634785364E+03  0.27840486640E+03  0.00000000000E+00 0.  1.
          3    1    3    3  501    0  0.25506391395E+03 -0.33733993884E+02 -0.78713092724E+03  0.82811272129E+03  0.00000000000E+00 0.  1.
         21    1    1    2  502  501  0.82024572851E-02  0.53844414373E-02  0.11439756638E-01  0.15071182669E-01  0.00000000000E+00 0.  1.
<mgrwt>
<rscale>  1 0.65274562E+03</rscale>
<asrwt>0</asrwt>
<pdfrwt beam="1">  1        1 0.38739230E+00 0.65274562E+03</pdfrwt>
<pdfrwt beam="2">0</pdfrwt>
<totfact> 0.15212607E+00</totfact>
</mgrwt>
</event>
<event>
 6    1  0.1175152E-003  0.7341001E+03  0.7818608E-02  0.9660630E-01
          1   -1    0    0  502    0  0.00000000000E+00  0.00000000000E+00  0.13489059946E+03  0.13489059946E+03  0.00000000000E+00 0.  1.
         13   -1    0    0    0    0 -0.00000000000E+00 -0.00000000000E+00 -0.10000000000E+04  0.10000000000E+04  0.00000000000E+00 0.  1.
    9000005    2    1    2  501    0 -0.10915191139E+00 -0.11455302119E-02 -0.86525344289E+03  0.11347098686E+04  0.73410009774E+03 0.  0.
         13    1    3    3    0    0  0.18114173075E+02 -0.98345993901E+02  0.11326514606E+03  0.15109285587E+03  0.00000000000E+00 0.  1.
          3    1    3    3  501    0 -0.18223324987E+02  0.98344848371E+02 -0.97851858895E+03  0.98361701271E+03  0.00000000000E+00 0.  1.
         21    1    1    2  502  501  0.10915191139E+00  0.11455302119E-02  0.14404234939E+00  0.18073087843E+00  0.00000000000E+00 0.  1.
<mgrwt>
<rscale>  1 0.73410011E+03</rscale>
<asrwt>0</asrwt>
<pdfrwt beam="1">  1        1 0.49051231E+00 0.73410011E+03</pdfrwt>
<pdfrwt beam="2">0</pdfrwt>
<totfact> 0.50433561E-01</totfact>
</mgrwt>
</event>
<event>
 6    1  0.1175152E-003  0.6401199E+03  0.7818608E-02  0.9825497E-01
          1   -1    0    0  502    0  0.00000000000E+00  0.00000000000E+00  0.10251367355E+03  0.10251367355E+03  0.00000000000E+00 0.  1.
         13   -1    0    0    0    0 -0.00000000000E+00 -0.00000000000E+00 -0.10000000000E+04  0.10000000000E+04  0.00000000000E+00 0.  1.
    9000005    2    1    2  501    0  0.60144061752E-03  0.10370091013E-02 -0.89756161339E+03  0.11024383771E+04  0.64011993047E+03 0.  0.
         13    1    3    3    0    0  0.23960275475E+03  0.21219874483E+03 -0.45046738650E+03  0.55259266525E+03  0.00000000000E+00 0.  1.
          1    1    3    3  501    0 -0.23960215331E+03 -0.21219770782E+03 -0.44709422690E+03  0.54984571181E+03  0.00000000000E+00 0.  1.
         21    1    1    2  502  501 -0.60144061753E-03 -0.10370091013E-02  0.75286940386E-01  0.75296484057E-01  0.00000000000E+00 0. -1.
<mgrwt>
<rscale>  1 0.64011993E+03</rscale>
<asrwt>0</asrwt>
<pdfrwt beam="1">  1        1 0.37277778E+00 0.64011993E+03</pdfrwt>
<pdfrwt beam="2">0</pdfrwt>
<totfact> 0.17688859E+00</totfact>
</mgrwt>
</event>
<event>
 6    1  0.1175152E-003  0.7464496E+03  0.7818608E-02  0.9640937E-01
          1   -1    0    0  502    0  0.00000000000E+00  0.00000000000E+00  0.14332940175E+03  0.14332940175E+03  0.00000000000E+00 0.  1.
         13   -1    0    0    0    0 -0.00000000000E+00 -0.00000000000E+00 -0.10000000000E+04  0.10000000000E+04  0.00000000000E+00 0.  1.
    9000005    2    1    2  501    0 -0.79584349440E-01  0.11832175900E+00 -0.86070180455E+03  0.11392956742E+04  0.74644960750E+03 0.  0.
         13    1    3    3    0    0 -0.27394970272E+03 -0.21405007712E+03 -0.22315611470E+03  0.41311563352E+03  0.00000000000E+00 0.  1.
          3    1    3    3  501    0  0.27387011837E+03  0.21416839887E+03 -0.63754568986E+03  0.72618004067E+03  0.00000000000E+00 0.  1.
         21    1    1    2  502  501  0.79584349440E-01 -0.11832175900E+00  0.40312063021E+01  0.40337275512E+01  0.00000000000E+00 0. -1.
<mgrwt>
<rscale>  1 0.74644962E+03</rscale>
<asrwt>0</asrwt>
<pdfrwt beam="1">  1        1 0.52119892E+00 0.74644962E+03</pdfrwt>
<pdfrwt beam="2">0</pdfrwt>
<totfact> 0.35709114E-01</totfact>
</mgrwt>
</event>
<event>
 6    1  0.1175152E-003  0.6338153E+03  0.7818608E-02  0.9837632E-01
          1   -1    0    0  502    0  0.00000000000E+00  0.00000000000E+00  0.10863378537E+03  0.10863378537E+03  0.00000000000E+00 0.  1.
         13   -1    0    0    0    0 -0.00000000000E+00 -0.00000000000E+00 -0.10000000000E+04  0.10000000000E+04  0.00000000000E+00 0.  1.
    9000005    2    1    2  501    0 -0.14694629474E+00  0.86725246179E-01 -0.89956856419E+03  0.11004296612E+04  0.63381527951E+03 0.  0.
         13    1    3    3    0    0 -0.30987364865E+03  0.62212909861E+02 -0.49204387629E+03  0.58480706261E+03  0.00000000000E+00 0.  1.
          1    1    3    3  501    0  0.30972670236E+03 -0.62126184615E+02 -0.40752468790E+03  0.51562259863E+03  0.00000000000E+00 0.  1.
         21    1    1    2  502  501  0.14694629474E+00 -0.86725246179E-01  0.82023495555E+01  0.82041241283E+01  0.00000000000E+00 0.  1.
<mgrwt>
<rscale>  1 0.63381530E+03</rscale>
<asrwt>0</asrwt>
<pdfrwt beam="1">  1        1 0.39503278E+00 0.63381530E+03</pdfrwt>
<pdfrwt beam="2">0</pdfrwt>
<totfact> 0.14120985E+00</totfact>
</mgrwt>
</event>
<event>
 6    1  0.1175152E-003  0.6646843E+03  0.7818608E-02  0.9779609E-01
          1   -1    0    0  502    0  0.00000000000E+00  0.00000000000E+00  0.12542539461E+03  0.12542539461E+03  0.00000000000E+00 0.  1.
         13   -1    0    0    0    0 -0.00000000000E+00 -0.00000000000E+00 -0.10000000000E+04  0.10000000000E+04  0.00000000000E+00 0.  1.
    9000005    2    1    2  501    0  0.45270332128E+01 -0.49110980037E+01 -0.88871693871E+03  0.11097851099E+04  0.66465072042E+03 0.  0.
         13    1    3    3    0    0 -0.79051923196E+02  0.26926049534E+03 -0.73014786660E+03  0.78221884918E+03  0.00000000000E+00 0.  1.
          1    1    3    3  501    0  0.83578956409E+02 -0.27417159334E+03 -0.15856907211E+03  0.32756626075E+03  0.00000000000E+00 0.  1.
         21    1    1    2  502  501 -0.45270332128E+01  0.49110980037E+01  0.14142333317E+02  0.15640284683E+02  0.00000000000E+00 0.  1.
<mgrwt>
<rscale>  1 0.66468428E+03</rscale>
<asrwt>0</asrwt>
<pdfrwt beam="1">  1        1 0.45609331E+00 0.66468428E+03</pdfrwt>
<pdfrwt beam="2">0</pdfrwt>
<totfact> 0.74237746E-01</totfact>
</mgrwt>
</event>
<event>
 6    1  0.1175152E-003  0.6513766E+03  0.7818608E-02  0.9804200E-01
          1   -1    0    0  502    0  0.00000000000E+00  0.00000000000E+00  0.12805877191E+03  0.12805877191E+03  0.00000000000E+00 0.  1.
         13   -1    0    0    0    0 -0.00000000000E+00 -0.00000000000E+00 -0.10000000000E+04  0.10000000000E+04  0.00000000000E+00 0.  1.
    9000005    2    1    2  501    0 -0.27780693065E+00 -0.37963963492E+02 -0.87400826328E+03  0.10900375629E+04  0.65026925541E+03 0.  0.
         13    1    3    3    0    0  0.24087242358E+02 -0.33433427744E+03 -0.59144807566E+03  0.67983117796E+03  0.00000000000E+00 0.  1.
          3    1    3    3  501    0 -0.24365049288E+02  0.29637031395E+03 -0.28256018762E+03  0.41020638494E+03  0.00000000000E+00 0.  1.
         21    1    1    2  502  501  0.27780693065E+00  0.37963963492E+02  0.20670351914E+01  0.38021209018E+02  0.00000000000E+00 0. -1.
<mgrwt>
<rscale>  1 0.65137658E+03</rscale>
<asrwt>0</asrwt>
<pdfrwt beam="1">  1        1 0.46566924E+00 0.65137658E+03</pdfrwt>
<pdfrwt beam="2">0</pdfrwt>
<totfact> 0.67197879E-01</totfact>
</mgrwt>
</event>
<event>
 6    1  0.1175152E-003  0.6519525E+03  0.7818608E-02  0.9803122E-01
          1   -1    0    0  502    0  0.00000000000E+00  0.00000000000E+00  0.11770538944E+03  0.11770538944E+03  0.00000000000E+00 0.  1.
         13   -1    0    0    0    0 -0.00000000000E+00 -0.00000000000E+00 -0.10000000000E+04  0.10000000000E+04  0.00000000000E+00 0.  1.
    9000005    2    1    2  501    0  0.18042910371E+00 -0.11310846355E+01 -0.89370776067E+03  0.11062349098E+04  0.65195153372E+03 0.  0.
         13    1    3    3    0    0 -0.11709570304E+03 -0.27792925901E+03 -0.23555726746E+03  0.38267911223E+03  0.00000000000E+00 0.  1.
          1    1    3    3  501    0  0.11727613214E+03  0.27679817438E+03 -0.65815049322E+03  0.72355579759E+03  0.00000000000E+00 0.  1.
         21    1    1    2  502  501 -0.18042910371E+00  0.11310846355E+01  0.11413150113E+02  0.11470479616E+02  0.00000000000E+00 0.  1.
<mgrwt>
<rscale>  1 0.65195254E+03</rscale>
<asrwt>0</asrwt>
<pdfrwt beam="1">  1        1 0.42802050E+00 0.65195254E+03</pdfrwt>
<pdfrwt beam="2">0</pdfrwt>
<totfact> 0.10007395E+00</totfact>
</mgrwt>
</event>
<event>
 6    1  0.1175152E-003  0.6508058E+03  0.7818608E-02  0.9805268E-01
          1   -1    0    0  502    0  0.00000000000E+00  0.00000000000E+00  0.10632139488E+03  0.10632139488E+03  0.00000000000E+00 0.  1.
         13   -1    0    0    0    0 -0.00000000000E+00 -0.00000000000E+00 -0.10000000000E+04  0.10000000000E+04  0.00000000000E+00 0.  1.
    9000005    2    1    2  501    0  0.53824119920E-01  0.16541291392E-01 -0.89411094868E+03  0.11058853999E+04  0.65080575139E+03 0.  0.
         13    1    3    3    0    0  0.20393530092E+03 -0.24508727337E+03 -0.55767290040E+03  0.64238340761E+03  0.00000000000E+00 0.  1.
          1    1    3    3  501    0 -0.20388147680E+03  0.24510381466E+03 -0.33643804828E+03  0.46350199231E+03  0.00000000000E+00 0.  1.
         21    1    1    2  502  501 -0.53824119920E-01 -0.16541291392E-01  0.43234355735E+00  0.43599495615E+00  0.00000000000E+00 0. -1.
<mgrwt>
<rscale>  1 0.65080575E+03</rscale>
<asrwt>0</asrwt>
<pdfrwt beam="1">  1        1 0.38662407E+00 0.65080575E+03</pdfrwt>
<pdfrwt beam="2">0</pdfrwt>
<totfact> 0.15337730E+00</totfact>
</mgrwt>
</event>
<event>
 6    1  0.1175152E-003  0.6468120E+03  0.7818608E-02  0.9812780E-01
          1   -1    0    0  502    0  0.00000000000E+00  0.00000000000E+00  0.10459196000E+03  0.10459196000E+03  0.00000000000E+00 0.  1.
         13   -1    0    0    0    0 -0.00000000000E+00 -0.00000000000E+00 -0.10000000000E+04  0.10000000000E+04  0.00000000000E+00 0.  1.
    9000005    2    1    2  501    0  0.14957377726E-03  0.23937433322E-03 -0.89540852053E+03  0.11045914027E+04  0.64681198834E+03 0.  0.
         13    1    3    3    0    0  0.32164475751E+03  0.23401229621E+01 -0.50512784617E+03  0.59884469371E+03  0.00000000000E+00 0.  1.
          1    1    3    3  501    0 -0.32164460794E+03 -0.23398835877E+01 -0.39028067436E+03  0.50574670899E+03  0.00000000000E+00 0.  1.
         21    1    1    2  502  501 -0.14957377723E-03 -0.23937433322E-03  0.48053391693E-03  0.55730174193E-03  0.00000000000E+00 0.  1.
<mgrwt>
<rscale>  1 0.64681199E+03</rscale>
<asrwt>0</asrwt>
<pdfrwt beam="1">  1        1 0.38033520E+00 0.64681199E+03</pdfrwt>
<pdfrwt beam="2">0</pdfrwt>
<totfact> 0.16363516E+00</totfact>
</mgrwt>
</event>
<event>
 6    1  0.1175152E-003  0.6457792E+03  0.7818608E-02  0.9814732E-01
          3   -1    0    0  502    0  0.00000000000E+00  0.00000000000E+00  0.10425852873E+03  0.10425852873E+03  0.00000000000E+00 0.  1.
         13   -1    0    0    0    0 -0.00000000000E+00 -0.00000000000E+00 -0.10000000000E+04  0.10000000000E+04  0.00000000000E+00 0.  1.
    9000005    2    1    2  501    0 -0.80580938532E-03 -0.11733904842E-02 -0.89574155450E+03  0.11042571029E+04  0.64577923221E+03 0.  0.
         13    1    3    3    0    0  0.31938804256E+02  0.20801033914E+03 -0.29125137344E+02  0.21245390567E+03  0.00000000000E+00 0.  1.
          1    1    3    3  501    0 -0.31939610065E+02 -0.20801151253E+03 -0.86661641716E+03  0.89180319719E+03  0.00000000000E+00 0.  1.
         21    1    1    2  502  501  0.80580938532E-03  0.11733904842E-02  0.83232205553E-04  0.14258687155E-02  0.00000000000E+00 0. -1.
<mgrwt>
<rscale>  1 0.64577923E+03</rscale>
<asrwt>0</asrwt>
<pdfrwt beam="1">  1        3 0.37912272E+00 0.64577923E+03</pdfrwt>
<pdfrwt beam="2">0</pdfrwt>
<totfact> 0.76342219E-02</totfact>
</mgrwt>
</event>
<event>
 6    1  0.1175152E-003  0.6305541E+03  0.7818608E-02  0.9843968E-01
          1   -1    0    0  502    0  0.00000000000E+00  0.00000000000E+00  0.99723337078E+02  0.99723337078E+02  0.00000000000E+00 0.  1.
         13   -1    0    0    0    0 -0.00000000000E+00 -0.00000000000E+00 -0.10000000000E+04  0.10000000000E+04  0.00000000000E+00 0.  1.
    9000005    2    1    2  501    0  0.53448940974E-01 -0.13913799080E-02 -0.90059795382E+03  0.10993976278E+04  0.63055409493E+03 0.  0.
         13    1    3    3    0    0  0.16611212588E+01 -0.28449919460E+03 -0.68717520088E+03  0.74374209761E+03  0.00000000000E+00 0.  1.
          3    1    3    3  501    0 -0.16076723178E+01  0.28449780322E+03 -0.21342275293E+03  0.35565553014E+03  0.00000000000E+00 0.  1.
         21    1    1    2  502  501 -0.53448940974E-01  0.13913799080E-02  0.32129089599E+00  0.32570932605E+00  0.00000000000E+00 0.  1.
<mgrwt>
<rscale>  1 0.63055410E+03</rscale>
<asrwt>0</asrwt>
<pdfrwt beam="1">  1        1 0.36263108E+00 0.63055410E+03</pdfrwt>
<pdfrwt beam="2">0</pdfrwt>
<totfact> 0.19632398E+00</totfact>
</mgrwt>
</event>
<event>
 6    1  0.1175152E-003  0.6409731E+03  0.7818608E-02  0.9823866E-01
          1   -1    0    0  502    0  0.00000000000E+00  0.00000000000E+00  0.10271436080E+03  0.10271436080E+03  0.00000000000E+00 0.  1.
         13   -1    0    0    0    0 -0.00000000000E+00 -0.00000000000E+00 -0.10000000000E+04  0.10000000000E+04  0.00000000000E+00 0.  1.
    9000005    2    1    2  501    0  0.15184319625E-02 -0.34474358384E-03 -0.89728811219E+03  0.11027114384E+04  0.64097313532E+03 0.  0.
         13    1    3    3    0    0  0.21527509442E+03  0.10587236559E+03 -0.81423706236E+03  0.84884292881E+03  0.00000000000E+00 0.  1.
          3    1    3    3  501    0 -0.21527357598E+03 -0.10587271033E+03 -0.83051049831E+02  0.25386850964E+03  0.00000000000E+00 0.  1.
         21    1    1    2  502  501 -0.15184319625E-02  0.34474358383E-03  0.24729861905E-02  0.29223525560E-02  0.00000000000E+00 0. -1.
<mgrwt>
<rscale>  1 0.64097314E+03</rscale>
<asrwt>0</asrwt>
<pdfrwt beam="1">  1        1 0.37350755E+00 0.64097314E+03</pdfrwt>
<pdfrwt beam="2">0</pdfrwt>
<totfact> 0.17555878E+00</totfact>
</mgrwt>
</event>
<event>
 6    1  0.1175152E-003  0.6494574E+03  0.7818608E-02  0.9807798E-01
          1   -1    0    0  502    0  0.00000000000E+00  0.00000000000E+00  0.10546347773E+03  0.10546347773E+03  0.00000000000E+00 0.  1.
         13   -1    0    0    0    0 -0.00000000000E+00 -0.00000000000E+00 -0.10000000000E+04  0.10000000000E+04  0.00000000000E+00 0.  1.
    9000005    2    1    2  501    0  0.11548733316E-03 -0.49695843541E-02 -0.89455079531E+03  0.11054483638E+04  0.64945743487E+03 0.  0.
         13    1    3    3    0    0  0.98822439431E+02 -0.30400507071E+03 -0.54454206378E+03  0.63143567905E+03  0.00000000000E+00 0.  1.
          1    1    3    3  501    0 -0.98822323944E+02  0.30400010113E+03 -0.35000873153E+03  0.47401268479E+03  0.00000000000E+00 0.  1.
         21    1    1    2  502  501 -0.11548733317E-03  0.49695843540E-02  0.14273038479E-01  0.15113892066E-01  0.00000000000E+00 0. -1.
<mgrwt>
<rscale>  1 0.64945743E+03</rscale>
<asrwt>0</asrwt>
<pdfrwt beam="1">  1        1 0.38350436E+00 0.64945743E+03</pdfrwt>
<pdfrwt beam="2">0</pdfrwt>
<totfact> 0.15836848E+00</totfact>
</mgrwt>
</event>
<event>
 6    1  0.1175152E-003  0.6441363E+03  0.7818608E-02  0.9817845E-01
          1   -1    0    0  502    0  0.00000000000E+00  0.00000000000E+00  0.10374535914E+03  0.10374535914E+03  0.00000000000E+00 0.  1.
         13   -1    0    0    0    0 -0.00000000000E+00 -0.00000000000E+00 -0.10000000000E+04  0.10000000000E+04  0.00000000000E+00 0.  1.
    9000005    2    1    2  501    0 -0.14126215810E-01 -0.49706198509E-02 -0.89626850908E+03  0.11037249487E+04  0.64413626032E+03 0.  0.
         13    1    3    3    0    0  0.32166273941E+03  0.15624782283E-01 -0.42068611032E+03  0.52956937372E+03  0.00000000000E+00 0.  1.
          1    1    3    3  501    0 -0.32167686563E+03 -0.20595402134E-01 -0.47558239877E+03  0.57415557501E+03  0.00000000000E+00 0.  1.
         21    1    1    2  502  501  0.14126215810E-01  0.49706198509E-02  0.13868219197E-01  0.20410402703E-01  0.00000000000E+00 0. -1.
<mgrwt>
<rscale>  1 0.64413626E+03</rscale>
<asrwt>0</asrwt>
<pdfrwt beam="1">  1        1 0.37725665E+00 0.64413626E+03</pdfrwt>
<pdfrwt beam="2">0</pdfrwt>
<totfact> 0.16891391E+00</totfact>
</mgrwt>
</event>
<event>
 6    1  0.1175152E-003  0.6433878E+03  0.7818608E-02  0.9819266E-01
          1   -1    0    0  502    0  0.00000000000E+00  0.00000000000E+00  0.10381856903E+03  0.10381856903E+03  0.00000000000E+00 0.  1.
         13   -1    0    0    0    0 -0.00000000000E+00 -0.00000000000E+00 -0.10000000000E+04  0.10000000000E+04  0.00000000000E+00 0.  1.
    9000005    2    1    2  501    0  0.24286784334E+00 -0.49352583451E+00 -0.89624027748E+03  0.11032653824E+04  0.64338757095E+03 0.  0.
         13    1    3    3    0    0 -0.26699353543E+03 -0.17743185388E+03 -0.49487671045E+03  0.58963596335E+03  0.00000000000E+00 0.  1.
          1    1    3    3  501    0  0.26723640327E+03  0.17693832805E+03 -0.40136356703E+03  0.51362941904E+03  0.00000000000E+00 0.  1.
         21    1    1    2  502  501 -0.24286784334E+00  0.49352583451E+00  0.58846512350E-01  0.55318663277E+00  0.00000000000E+00 0. -1.
<mgrwt>
<rscale>  1 0.64338781E+03</rscale>
<asrwt>0</asrwt>
<pdfrwt beam="1">  1        1 0.37752287E+00 0.64338781E+03</pdfrwt>
<pdfrwt beam="2">0</pdfrwt>
<totfact> 0.16848138E+00</totfact>
</mgrwt>
</event>
<event>
 6    1  0.1175152E-003  0.6385641E+03  0.7818608E-02  0.9828478E-01
          1   -1    0    0  502    0  0.00000000000E+00  0.00000000000E+00  0.10196410880E+03  0.10196410880E+03  0.00000000000E+00 0.  1.
         13   -1    0    0    0    0 -0.00000000000E+00 -0.00000000000E+00 -0.10000000000E+04  0.10000000000E+04  0.00000000000E+00 0.  1.
    9000005    2    1    2  501    0 -0.48319569265E-03 -0.54098136200E-03 -0.89805896949E+03  0.11019410191E+04  0.63856408992E+03 0.  0.
         13    1    3    3    0    0  0.31760137006E+03  0.48442223761E+00 -0.39258136452E+03  0.50496632828E+03  0.00000000000E+00 0.  1.
          1    1    3    3  501    0 -0.31760185325E+03 -0.48496321897E+00 -0.50547760497E+03  0.59697469084E+03  0.00000000000E+00 0.  1.
         21    1    1    2  502  501  0.48319569267E-03  0.54098136200E-03  0.23078285912E-01  0.23089682101E-01  0.00000000000E+00 0.  1.
<mgrwt>
<rscale>  1 0.63856409E+03</rscale>
<asrwt>0</asrwt>
<pdfrwt beam="1">  1        1 0.37077936E+00 0.63856409E+03</pdfrwt>
<pdfrwt beam="2">0</pdfrwt>
<totfact> 0.18055388E+00</totfact>
</mgrwt>
</event>
<event>
 6    1  0.1175152E-003  0.6623409E+03  0.7818608E-02  0.9783894E-01
          1   -1    0    0  502    0  0.00000000000E+00  0.00000000000E+00  0.11114915969E+03  0.11114915969E+03  0.00000000000E+00 0.  1.
         13   -1    0    0    0    0 -0.00000000000E+00 -0.00000000000E+00 -0.10000000000E+04  0.10000000000E+04  0.00000000000E+00 0.  1.
    9000005    2    1    2  501    0 -0.31916404803E-01  0.13789329490E-01 -0.89032592178E+03  0.11096736685E+04  0.66234085065E+03 0.  0.
         13    1    3    3    0    0  0.22754530957E+03  0.22482607062E+03 -0.58875004237E+03  0.67003749322E+03  0.00000000000E+00 0.  1.
          1    1    3    3  501    0 -0.22757722597E+03 -0.22481228129E+03 -0.30157587942E+03  0.43963617531E+03  0.00000000000E+00 0.  1.
         21    1    1    2  502  501  0.31916404802E-01 -0.13789329490E-01  0.14750814759E+01  0.14754911599E+01  0.00000000000E+00 0. -1.
<mgrwt>
<rscale>  1 0.66234085E+03</rscale>
<asrwt>0</asrwt>
<pdfrwt beam="1">  1        1 0.40417961E+00 0.66234085E+03</pdfrwt>
<pdfrwt beam="2">0</pdfrwt>
<totfact> 0.12786273E+00</totfact>
</mgrwt>
</event>
<event>
 6    1  0.1175152E-003  0.6577997E+03  0.7818608E-02  0.9792253E-01
          1   -1    0    0  502    0  0.00000000000E+00  0.00000000000E+00  0.10817709026E+03  0.10817709026E+03  0.00000000000E+00 0.  1.
         13   -1    0    0    0    0 -0.00000000000E+00 -0.00000000000E+00 -0.10000000000E+04  0.10000000000E+04  0.00000000000E+00 0.  1.
    9000005    2    1    2  501    0  0.10485855100E-03  0.18353330572E-03 -0.89182488020E+03  0.11081751085E+04  0.65779970671E+03 0.  0.
         13    1    3    3    0    0  0.15247767807E+03  0.20729320700E+03 -0.79098308894E+03  0.83178973483E+03  0.00000000000E+00 0.  1.
          1    1    3    3  501    0 -0.15247757321E+03 -0.20729302347E+03 -0.10084179125E+03  0.27638537366E+03  0.00000000000E+00 0.  1.
         21    1    1    2  502  501 -0.10485855101E-03 -0.18353330573E-03  0.19704616976E-02  0.19817666592E-02  0.00000000000E+00 0.  1.
<mgrwt>
<rscale>  1 0.65779971E+03</rscale>
<asrwt>0</asrwt>
<pdfrwt beam="1">  1        1 0.39337207E+00 0.65779971E+03</pdfrwt>
<pdfrwt beam="2">0</pdfrwt>
<totfact> 0.14297890E+00</totfact>
</mgrwt>
</event>
<event>
 6    1  0.1175152E-003  0.6493010E+03  0.7818608E-02  0.9808092E-01
          1   -1    0    0  502    0  0.00000000000E+00  0.00000000000E+00  0.10539844943E+03  0.10539844943E+03  0.00000000000E+00 0.  1.
         13   -1    0    0    0    0 -0.00000000000E+00 -0.00000000000E+00 -0.10000000000E+04  0.10000000000E+04  0.00000000000E+00 0.  1.
    9000005    2    1    2  501    0 -0.14749200287E-03 -0.53081634206E-03 -0.89460186545E+03  0.11053978149E+04  0.64930103300E+03 0.  0.
         13    1    3    3    0    0 -0.14211572097E+03 -0.27808143620E+03 -0.59834896151E+03  0.67494269612E+03  0.00000000000E+00 0.  1.
          1    1    3    3  501    0  0.14211557348E+03  0.27808090538E+03 -0.29625290394E+03  0.43045511875E+03  0.00000000000E+00 0.  1.
         21    1    1    2  502  501  0.14749200289E-03  0.53081634207E-03  0.31488323090E-03  0.63456388885E-03  0.00000000000E+00 0. -1.
<mgrwt>
<rscale>  1 0.64930103E+03</rscale>
<asrwt>0</asrwt>
<pdfrwt beam="1">  1        1 0.38326790E+00 0.64930103E+03</pdfrwt>
<pdfrwt beam="2">0</pdfrwt>
<totfact> 0.15875462E+00</totfact>
</mgrwt>
</event>
<event>
 6    1  0.1175152E-003  0.6442646E+03  0.7818608E-02  0.9817601E-01
          1   -1    0    0  502    0  0.00000000000E+00  0.00000000000E+00  0.10379575867E+03  0.10379575867E+03  0.00000000000E+00 0.  1.
         13   -1    0    0    0    0 -0.00000000000E+00 -0.00000000000E+00 -0.10000000000E+04  0.10000000000E+04  0.00000000000E+00 0.  1.
    9000005    2    1    2  501    0  0.43093021313E-03  0.10881998853E-02 -0.89623076089E+03  0.11037692133E+04  0.64426461912E+03 0.  0.
         13    1    3    3    0    0  0.85151318484E+02 -0.25615419402E+02  0.82326718446E+02  0.12117997079E+03  0.00000000000E+00 0.  1.
          3    1    3    3  501    0 -0.85150887554E+02  0.25616507602E+02 -0.97855747934E+03  0.98258924250E+03  0.00000000000E+00 0.  1.
         21    1    1    2  502  501 -0.43093021312E-03 -0.10881998853E-02  0.26519563944E-01  0.26545379101E-01  0.00000000000E+00 0. -1.
<mgrwt>
<rscale>  1 0.64426462E+03</rscale>
<asrwt>0</asrwt>
<pdfrwt beam="1">  1        1 0.37743992E+00 0.64426462E+03</pdfrwt>
<pdfrwt beam="2">0</pdfrwt>
<totfact> 0.16859612E+00</totfact>
</mgrwt>
</event>
<event>
 6    1  0.1175152E-003  0.6477200E+03  0.7818608E-02  0.9811067E-01
          1   -1    0    0  502    0  0.00000000000E+00  0.00000000000E+00  0.10631608684E+03  0.10631608684E+03  0.00000000000E+00 0.  1.
         13   -1    0    0    0    0 -0.00000000000E+00 -0.00000000000E+00 -0.10000000000E+04  0.10000000000E+04  0.00000000000E+00 0.  1.
    9000005    2    1    2  501    0  0.76379596724E+00 -0.56007769647E+00 -0.89493946187E+03  0.11047433587E+04  0.64771934590E+03 0.  0.
         13    1    3    3    0    0  0.25302085345E+03 -0.16821692262E+03 -0.64146920673E+03  0.70978815750E+03  0.00000000000E+00 0.  1.
          3    1    3    3  501    0 -0.25225705748E+03  0.16765684492E+03 -0.25347025514E+03  0.39495520118E+03  0.00000000000E+00 0.  1.
         21    1    1    2  502  501 -0.76379596724E+00  0.56007769647E+00  0.12555487179E+01  0.15727281674E+01  0.00000000000E+00 0.  1.
<mgrwt>
<rscale>  1 0.64772004E+03</rscale>
<asrwt>0</asrwt>
<pdfrwt beam="1">  1        1 0.38660477E+00 0.64772004E+03</pdfrwt>
<pdfrwt beam="2">0</pdfrwt>
<totfact> 0.15349533E+00</totfact>
</mgrwt>
</event>
<event>
 6    1  0.1175152E-003  0.6509711E+03  0.7818608E-02  0.9804959E-01
          1   -1    0    0  502    0  0.00000000000E+00  0.00000000000E+00  0.10594089498E+03  0.10594089498E+03  0.00000000000E+00 0.  1.
         13   -1    0    0    0    0 -0.00000000000E+00 -0.00000000000E+00 -0.10000000000E+04  0.10000000000E+04  0.00000000000E+00 0.  1.
    9000005    2    1    2  501    0 -0.66440961291E-04 -0.60608783095E-05 -0.89405914487E+03  0.11059408173E+04  0.65097107215E+03 0.  0.
         13    1    3    3    0    0 -0.74376458335E+02  0.26504325393E+02  0.89423737726E+02  0.11929351067E+03  0.00000000000E+00 0.  1.
          3    1    3    3  501    0  0.74376391894E+02 -0.26504331454E+02 -0.98348288260E+03  0.98664730660E+03  0.00000000000E+00 0.  1.
         21    1    1    2  502  501  0.66440961301E-04  0.60608783089E-05  0.39849010742E-04  0.77711512929E-04  0.00000000000E+00 0.  1.
<mgrwt>
<rscale>  1 0.65097107E+03</rscale>
<asrwt>0</asrwt>
<pdfrwt beam="1">  1        1 0.38524043E+00 0.65097107E+03</pdfrwt>
<pdfrwt beam="2">0</pdfrwt>
<totfact> 0.15555029E+00</totfact>
</mgrwt>
</event>
<event>
 6    1  0.1175152E-003  0.6151056E+03  0.7818608E-02  0.9874553E-01
          1   -1    0    0  502    0  0.00000000000E+00  0.00000000000E+00  0.94593180855E+02  0.94593180855E+02  0.00000000000E+00 0.  1.
         13   -1    0    0    0    0 -0.00000000000E+00 -0.00000000000E+00 -0.10000000000E+04  0.10000000000E+04  0.00000000000E+00 0.  1.
    9000005    2    1    2  501    0 -0.61729633673E-02  0.12168882214E-01 -0.90539427977E+03  0.10945746492E+04  0.61510556866E+03 0.  0.
         13    1    3    3    0    0 -0.57262387812E+02  0.99993757699E+02  0.54727215323E+02  0.12756488833E+03  0.00000000000E+00 0.  1.
          1    1    3    3  501    0  0.57256214849E+02 -0.99981588817E+02 -0.96012149509E+03  0.96700976085E+03  0.00000000000E+00 0.  1.
         21    1    1    2  502  501  0.61729633673E-02 -0.12168882214E-01 -0.12539379164E-01  0.18531681005E-01  0.00000000000E+00 0.  1.
<mgrwt>
<rscale>  1 0.61510557E+03</rscale>
<asrwt>0</asrwt>
<pdfrwt beam="1">  1        1 0.34397593E+00 0.61510557E+03</pdfrwt>
<pdfrwt beam="2">0</pdfrwt>
<totfact> 0.23744538E+00</totfact>
</mgrwt>
</event>
<event>
 6    1  0.1175152E-003  0.6392729E+03  0.7818608E-02  0.9827119E-01
          1   -1    0    0  502    0  0.00000000000E+00  0.00000000000E+00  0.10219821020E+03  0.10219821020E+03  0.00000000000E+00 0.  1.
         13   -1    0    0    0    0 -0.00000000000E+00 -0.00000000000E+00 -0.10000000000E+04  0.10000000000E+04  0.00000000000E+00 0.  1.
    9000005    2    1    2  501    0  0.13389744872E-02 -0.84015845377E-03 -0.89783252727E+03  0.11021674321E+04  0.63927286926E+03 0.  0.
         13    1    3    3    0    0  0.23408703604E+03 -0.20457077699E+03 -0.32079960926E+03  0.44671952335E+03  0.00000000000E+00 0.  1.
          3    1    3    3  501    0 -0.23408569707E+03  0.20456993683E+03 -0.57703291801E+03  0.65544790876E+03  0.00000000000E+00 0.  1.
         21    1    1    2  502  501 -0.13389744872E-02  0.84015845379E-03  0.30737471653E-01  0.30778090950E-01  0.00000000000E+00 0.  1.
<mgrwt>
<rscale>  1 0.63927287E+03</rscale>
<asrwt>0</asrwt>
<pdfrwt beam="1">  1        1 0.37163064E+00 0.63927287E+03</pdfrwt>
<pdfrwt beam="2">0</pdfrwt>
<totfact> 0.17898227E+00</totfact>
</mgrwt>
</event>
<event>
 6    1  0.1175152E-003  0.6406504E+03  0.7818608E-02  0.9824483E-01
          1   -1    0    0  502    0  0.00000000000E+00  0.00000000000E+00  0.13629090068E+03  0.13629090068E+03  0.00000000000E+00 0.  1.
         13   -1    0    0    0    0 -0.00000000000E+00 -0.00000000000E+00 -0.10000000000E+04  0.10000000000E+04  0.00000000000E+00 0.  1.
    9000005    2    1    2  501    0  0.14595551502E+02  0.27902586765E+02 -0.88907887720E+03  0.10958531695E+04  0.63987603080E+03 0.  0.
         13    1    3    3    0    0  0.23389583928E+03  0.23458026963E+03 -0.55149645569E+03  0.64333778622E+03  0.00000000000E+00 0.  1.
          3    1    3    3  501    0 -0.21930028777E+03 -0.20667768287E+03 -0.33758242151E+03  0.45251538330E+03  0.00000000000E+00 0.  1.
         21    1    1    2  502  501 -0.14595551502E+02 -0.27902586765E+02  0.25369777882E+02  0.40437731163E+02  0.00000000000E+00 0.  1.
<mgrwt>
<rscale>  1 0.64065039E+03</rscale>
<asrwt>0</asrwt>
<pdfrwt beam="1">  1        1 0.49560432E+00 0.64065039E+03</pdfrwt>
<pdfrwt beam="2">0</pdfrwt>
<totfact> 0.48640901E-01</totfact>
</mgrwt>
</event>
<event>
 6    1  0.1175152E-003  0.6510029E+03  0.7818608E-02  0.9804899E-01
          1   -1    0    0  502    0  0.00000000000E+00  0.00000000000E+00  0.10595123947E+03  0.10595123947E+03  0.00000000000E+00 0.  1.
         13   -1    0    0    0    0 -0.00000000000E+00 -0.00000000000E+00 -0.10000000000E+04  0.10000000000E+04  0.00000000000E+00 0.  1.
    9000005    2    1    2  501    0  0.42760718173E-04  0.23354962497E-04 -0.89404879918E+03  0.11059511773E+04  0.65100288111E+03 0.  0.
         13    1    3    3    0    0 -0.25067660737E+03  0.20316084578E+02 -0.79807142014E+03  0.83676131389E+03  0.00000000000E+00 0.  1.
          3    1    3    3  501    0  0.25067665013E+03 -0.20316061223E+02 -0.95977379036E+02  0.26918986339E+03  0.00000000000E+00 0.  1.
         21    1    1    2  502  501 -0.42760718152E-04 -0.23354962498E-04  0.38644852053E-04  0.62188084714E-04  0.00000000000E+00 0.  1.
<mgrwt>
<rscale>  1 0.65100288E+03</rscale>
<asrwt>0</asrwt>
<pdfrwt beam="1">  1        1 0.38527805E+00 0.65100288E+03</pdfrwt>
<pdfrwt beam="2">0</pdfrwt>
<totfact> 0.15548978E+00</totfact>
</mgrwt>
</event>
<event>
 6    1  0.1175152E-003  0.6544178E+03  0.7818608E-02  0.9798525E-01
          1   -1    0    0  502    0  0.00000000000E+00  0.00000000000E+00  0.10788250548E+03  0.10788250548E+03  0.00000000000E+00 0.  1.
         13   -1    0    0    0    0 -0.00000000000E+00 -0.00000000000E+00 -0.10000000000E+04  0.10000000000E+04  0.00000000000E+00 0.  1.
    9000005    2    1    2  501    0 -0.32612789226E-02  0.13659219135E+00 -0.89292801850E+03  0.11070605461E+04  0.65441774722E+03 0.  0.
         13    1    3    3    0    0  0.61343963258E+02  0.30911913699E+03 -0.59585976885E+03  0.67406719755E+03  0.00000000000E+00 0.  1.
          3    1    3    3  501    0 -0.61347224537E+02 -0.30898254480E+03 -0.29706824966E+03  0.43299334857E+03  0.00000000000E+00 0.  1.
         21    1    1    2  502  501  0.32612789226E-02 -0.13659219135E+00  0.81052397873E+00  0.82195935591E+00  0.00000000000E+00 0. -1.
<mgrwt>
<rscale>  1 0.65441776E+03</rscale>
<asrwt>0</asrwt>
<pdfrwt beam="1">  1        1 0.39230085E+00 0.65441776E+03</pdfrwt>
<pdfrwt beam="2">0</pdfrwt>
<totfact> 0.14464486E+00</totfact>
</mgrwt>
</event>
<event>
 6    1  0.1175152E-003  0.6601944E+03  0.7818608E-02  0.9787836E-01
          1   -1    0    0  502    0  0.00000000000E+00  0.00000000000E+00  0.10896429927E+03  0.10896429927E+03  0.00000000000E+00 0.  1.
         13   -1    0    0    0    0 -0.00000000000E+00 -0.00000000000E+00 -0.10000000000E+04  0.10000000000E+04  0.00000000000E+00 0.  1.
    9000005    2    1    2  501    0 -0.30527130860E-04 -0.86681183518E-04 -0.89103581021E+03  0.11089641563E+04  0.66019442966E+03 0.  0.
         13    1    3    3    0    0  0.13400096119E+03 -0.28232424086E+03 -0.26695009845E+03  0.41100558347E+03  0.00000000000E+00 0.  1.
          1    1    3    3  501    0 -0.13400099172E+03  0.28232415418E+03 -0.62408571176E+03  0.69795857287E+03  0.00000000000E+00 0.  1.
         21    1    1    2  502  501  0.30527130866E-04  0.86681183514E-04  0.10948562860E-03  0.14294277234E-03  0.00000000000E+00 0. -1.
<mgrwt>
<rscale>  1 0.66019443E+03</rscale>
<asrwt>0</asrwt>
<pdfrwt beam="1">  1        1 0.39623465E+00 0.66019443E+03</pdfrwt>
<pdfrwt beam="2">0</pdfrwt>
<totfact> 0.13878747E+00</totfact>
</mgrwt>
</event>
<event>
 6    1  0.1175152E-003  0.7079885E+03  0.7818608E-02  0.9703667E-01
          1   -1    0    0  502    0  0.00000000000E+00  0.00000000000E+00  0.12533500520E+03  0.12533500520E+03  0.00000000000E+00 0.  1.
         13   -1    0    0    0    0 -0.00000000000E+00 -0.00000000000E+00 -0.10000000000E+04  0.10000000000E+04  0.00000000000E+00 0.  1.
    9000005    2    1    2  501    0 -0.52160060872E-02 -0.41858903851E-02 -0.87468752349E+03  0.11253115048E+04  0.70798850200E+03 0.  0.
         13    1    3    3    0    0 -0.81373724809E+02 -0.24686909489E+03 -0.55390952797E+02  0.26577093663E+03  0.00000000000E+00 0.  1.
          1    1    3    3  501    0  0.81368508803E+02  0.24686490900E+03 -0.81929657070E+03  0.85954056814E+03  0.00000000000E+00 0.  1.
         21    1    1    2  502  501  0.52160060872E-02  0.41858903851E-02  0.22528698381E-01  0.23500439327E-01  0.00000000000E+00 0.  1.
<mgrwt>
<rscale>  1 0.70798850E+03</rscale>
<asrwt>0</asrwt>
<pdfrwt beam="1">  1        1 0.45576462E+00 0.70798850E+03</pdfrwt>
<pdfrwt beam="2">0</pdfrwt>
<totfact> 0.73852185E-01</totfact>
</mgrwt>
</event>
<event>
 6    1  0.1175152E-003  0.6513874E+03  0.7818608E-02  0.9804179E-01
          1   -1    0    0  502    0  0.00000000000E+00  0.00000000000E+00  0.11034971583E+03  0.11034971583E+03  0.00000000000E+00 0.  1.
         13   -1    0    0    0    0 -0.00000000000E+00 -0.00000000000E+00 -0.10000000000E+04  0.10000000000E+04  0.00000000000E+00 0.  1.
    9000005    2    1    2  501    0 -0.13176219876E+01  0.80152211302E+00 -0.89376917941E+03  0.11059515499E+04  0.65138552803E+03 0.  0.
         13    1    3    3    0    0  0.12839864741E+03 -0.16690436437E+03 -0.25435840462E+02  0.21210907921E+03  0.00000000000E+00 0.  1.
          3    1    3    3  501    0 -0.12971626940E+03  0.16770588648E+03 -0.86833333895E+03  0.89384247071E+03  0.00000000000E+00 0.  1.
         21    1    1    2  502  501  0.13176219876E+01 -0.80152211302E+00  0.41188952474E+01  0.43981659199E+01  0.00000000000E+00 0. -1.
<mgrwt>
<rscale>  1 0.65138735E+03</rscale>
<asrwt>0</asrwt>
<pdfrwt beam="1">  1        1 0.40127254E+00 0.65138735E+03</pdfrwt>
<pdfrwt beam="2">0</pdfrwt>
<totfact> 0.13201583E+00</totfact>
</mgrwt>
</event>
<event>
 6    1  0.1175152E-003  0.5917582E+03  0.7818608E-02  0.9922654E-01
          1   -1    0    0  502    0  0.00000000000E+00  0.00000000000E+00  0.87742780827E+02  0.87742780827E+02  0.00000000000E+00 0.  1.
         13   -1    0    0    0    0 -0.00000000000E+00 -0.00000000000E+00 -0.10000000000E+04  0.10000000000E+04  0.00000000000E+00 0.  1.
    9000005    2    1    2  501    0 -0.38118778551E-01  0.10299808893E-01 -0.91245343193E+03  0.10875426345E+04  0.59175815563E+03 0.  0.
         13    1    3    3    0    0 -0.97295036150E+01 -0.29206016079E+03 -0.54139602871E+03  0.61522634913E+03  0.00000000000E+00 0.  1.
          3    1    3    3  501    0  0.96913848365E+01  0.29207046060E+03 -0.37105740322E+03  0.47231628532E+03  0.00000000000E+00 0.  1.
         21    1    1    2  502  501  0.38118778551E-01 -0.10299808893E-01  0.19621275308E+00  0.20014637597E+00  0.00000000000E+00 0.  1.
<mgrwt>
<rscale>  1 0.59175816E+03</rscale>
<asrwt>0</asrwt>
<pdfrwt beam="1">  1        1 0.31906533E+00 0.59175816E+03</pdfrwt>
<pdfrwt beam="2">0</pdfrwt>
<totfact> 0.30572138E+00</totfact>
</mgrwt>
</event>
<event>
 6    1  0.1175152E-003  0.6429379E+03  0.7818608E-02  0.9820122E-01
          1   -1    0    0  502    0  0.00000000000E+00  0.00000000000E+00  0.10374476402E+03  0.10374476402E+03  0.00000000000E+00 0.  1.
         13   -1    0    0    0    0 -0.00000000000E+00 -0.00000000000E+00 -0.10000000000E+04  0.10000000000E+04  0.00000000000E+00 0.  1.
    9000005    2    1    2  501    0  0.39626767096E-01  0.13688717873E-01 -0.89665649355E+03  0.11033413222E+04  0.64293794731E+03 0.  0.
         13    1    3    3    0    0  0.18702894542E+03 -0.14933503365E+03 -0.81666833749E+03  0.85101583544E+03  0.00000000000E+00 0.  1.
          1    1    3    3  501    0 -0.18698931865E+03  0.14934872237E+03 -0.79988156058E+02  0.25232548676E+03  0.00000000000E+00 0.  1.
         21    1    1    2  502  501 -0.39626767096E-01 -0.13688717873E-01  0.40125757359E+00  0.40344181989E+00  0.00000000000E+00 0.  1.
<mgrwt>
<rscale>  1 0.64293795E+03</rscale>
<asrwt>0</asrwt>
<pdfrwt beam="1">  1        1 0.37725448E+00 0.64293795E+03</pdfrwt>
<pdfrwt beam="2">0</pdfrwt>
<totfact> 0.16895476E+00</totfact>
</mgrwt>
</event>
<event>
 6    1  0.1175152E-003  0.6503778E+03  0.7818608E-02  0.9806070E-01
          1   -1    0    0  502    0  0.00000000000E+00  0.00000000000E+00  0.10574784735E+03  0.10574784735E+03  0.00000000000E+00 0.  1.
         13   -1    0    0    0    0 -0.00000000000E+00 -0.00000000000E+00 -0.10000000000E+04  0.10000000000E+04  0.00000000000E+00 0.  1.
    9000005    2    1    2  501    0  0.37854860068E-04 -0.14251608660E-04 -0.89425213747E+03  0.11057478041E+04  0.65037782942E+03 0.  0.
         13    1    3    3    0    0  0.32246928564E+03  0.66750487140E+01 -0.37668014663E+03  0.49590213684E+03  0.00000000000E+00 0.  1.
          1    1    3    3  501    0 -0.32246924778E+03 -0.66750629656E+01 -0.51757199085E+03  0.60984566731E+03  0.00000000000E+00 0.  1.
         21    1    1    2  502  501 -0.37854860032E-04  0.14251608660E-04 -0.15176284070E-04  0.43202064483E-04  0.00000000000E+00 0. -1.
<mgrwt>
<rscale>  1 0.65037783E+03</rscale>
<asrwt>0</asrwt>
<pdfrwt beam="1">  1        1 0.38453844E+00 0.65037783E+03</pdfrwt>
<pdfrwt beam="2">0</pdfrwt>
<totfact> 0.15668351E+00</totfact>
</mgrwt>
</event>
<event>
 6    1  0.1175152E-003  0.6811698E+03  0.7818608E-02  0.9749988E-01
          1   -1    0    0  502    0  0.00000000000E+00  0.00000000000E+00  0.11602290978E+03  0.11602290978E+03  0.00000000000E+00 0.  1.
         13   -1    0    0    0    0 -0.00000000000E+00 -0.00000000000E+00 -0.10000000000E+04  0.10000000000E+04  0.00000000000E+00 0.  1.
    9000005    2    1    2  501    0 -0.18147324274E-02 -0.22862863754E-01 -0.88399587523E+03  0.11159932639E+04  0.68116977109E+03 0.  0.
         13    1    3    3    0    0 -0.32299395716E+03  0.10269162029E+02 -0.26578770099E+03  0.41841803743E+03  0.00000000000E+00 0.  1.
          3    1    3    3  501    0  0.32299214243E+03 -0.10292024893E+02 -0.61820817424E+03  0.69757522644E+03  0.00000000000E+00 0.  1.
         21    1    1    2  502  501  0.18147324274E-02  0.22862863754E-01  0.18785004827E-01  0.29645913701E-01  0.00000000000E+00 0.  1.
<mgrwt>
<rscale>  1 0.68116977E+03</rscale>
<asrwt>0</asrwt>
<pdfrwt beam="1">  1        1 0.42190238E+00 0.68116977E+03</pdfrwt>
<pdfrwt beam="2">0</pdfrwt>
<totfact> 0.10605730E+00</totfact>
</mgrwt>
</event>
<event>
 6    1  0.1175152E-003  0.6420165E+03  0.7818608E-02  0.9821876E-01
          1   -1    0    0  502    0  0.00000000000E+00  0.00000000000E+00  0.10310653947E+03  0.10310653947E+03  0.00000000000E+00 0.  1.
         13   -1    0    0    0    0 -0.00000000000E+00 -0.00000000000E+00 -0.10000000000E+04  0.10000000000E+04  0.00000000000E+00 0.  1.
    9000005    2    1    2  501    0 -0.29436158021E-01  0.76334317074E-01 -0.89692145683E+03  0.11030200686E+04  0.64201648372E+03 0.  0.
         13    1    3    3    0    0 -0.28022477832E+03  0.15475728041E+03 -0.40675136579E+03  0.51761222532E+03  0.00000000000E+00 0.  1.
          3    1    3    3  501    0  0.28019534216E+03 -0.15468094609E+03 -0.49017009104E+03  0.58540784331E+03  0.00000000000E+00 0.  1.
         21    1    1    2  502  501  0.29436158021E-01 -0.76334317074E-01  0.27996303516E-01  0.86470852735E-01  0.00000000000E+00 0. -1.
<mgrwt>
<rscale>  1 0.64201649E+03</rscale>
<asrwt>0</asrwt>
<pdfrwt beam="1">  1        1 0.37493366E+00 0.64201649E+03</pdfrwt>
<pdfrwt beam="2">0</pdfrwt>
<totfact> 0.17300733E+00</totfact>
</mgrwt>
</event>
<event>
 6    1  0.1175152E-003  0.6552166E+03  0.7818608E-02  0.9797039E-01
          1   -1    0    0  502    0  0.00000000000E+00  0.00000000000E+00  0.11092026892E+03  0.11092026892E+03  0.00000000000E+00 0.  1.
         13   -1    0    0    0    0 -0.00000000000E+00 -0.00000000000E+00 -0.10000000000E+04  0.10000000000E+04  0.00000000000E+00 0.  1.
    9000005    2    1    2  501    0 -0.25374577859E+00 -0.31452577411E-01 -0.89266775426E+03  0.11073231469E+04  0.65521658013E+03 0.  0.
         13    1    3    3    0    0  0.71063168970E+02 -0.20728054802E+03 -0.85785599063E+03  0.88539940153E+03  0.00000000000E+00 0.  1.
          3    1    3    3  501    0 -0.71316914748E+02  0.20724909544E+03 -0.34811763632E+02  0.22192374541E+03  0.00000000000E+00 0.  1.
         21    1    1    2  502  501  0.25374577859E+00  0.31452577411E-01  0.35880231822E+01  0.35971219802E+01  0.00000000000E+00 0. -1.
<mgrwt>
<rscale>  1 0.65521663E+03</rscale>
<asrwt>0</asrwt>
<pdfrwt beam="1">  1        1 0.40334728E+00 0.65521663E+03</pdfrwt>
<pdfrwt beam="2">0</pdfrwt>
<totfact> 0.12913649E+00</totfact>
</mgrwt>
</event>
<event>
 6    1  0.1175152E-003  0.6710319E+03  0.7818608E-02  0.9768095E-01
          1   -1    0    0  502    0  0.00000000000E+00  0.00000000000E+00  0.11257276972E+03  0.11257276972E+03  0.00000000000E+00 0.  1.
         13   -1    0    0    0    0 -0.00000000000E+00 -0.00000000000E+00 -0.10000000000E+04  0.10000000000E+04  0.00000000000E+00 0.  1.
    9000005    2    1    2  501    0 -0.43464073363E-03  0.21627993760E-04 -0.88742901748E+03  0.11125709303E+04  0.67103190229E+03 0.  0.
         13    1    3    3    0    0 -0.13867002814E+03  0.28901801899E+03 -0.60793389978E+03  0.68727317604E+03  0.00000000000E+00 0.  1.
          1    1    3    3  501    0  0.13866959350E+03 -0.28901799736E+03 -0.27949511770E+03  0.42529775426E+03  0.00000000000E+00 0.  1.
         21    1    1    2  502  501  0.43464073362E-03 -0.21627993719E-04  0.17871994747E-02  0.18394190114E-02  0.00000000000E+00 0.  1.
<mgrwt>
<rscale>  1 0.67103190E+03</rscale>
<asrwt>0</asrwt>
<pdfrwt beam="1">  1        1 0.40935639E+00 0.67103190E+03</pdfrwt>
<pdfrwt beam="2">0</pdfrwt>
<totfact> 0.12101987E+00</totfact>
</mgrwt>
</event>
<event>
 6    1  0.1175152E-003  0.6354813E+03  0.7818608E-02  0.9834410E-01
          1   -1    0    0  502    0  0.00000000000E+00  0.00000000000E+00  0.11085362354E+03  0.11085362354E+03  0.00000000000E+00 0.  1.
         13   -1    0    0    0    0 -0.00000000000E+00 -0.00000000000E+00 -0.10000000000E+04  0.10000000000E+04  0.00000000000E+00 0.  1.
    9000005    2    1    2  501    0  0.17338945651E+00 -0.50323665131E+00 -0.89903300236E+03  0.11009526800E+04  0.63548106264E+03 0.  0.
         13    1    3    3    0    0 -0.27140246945E+03  0.14230955428E+03 -0.59346418444E+03  0.66791544965E+03  0.00000000000E+00 0.  1.
          1    1    3    3  501    0  0.27157585891E+03 -0.14281279093E+03 -0.30556881792E+03  0.43303723036E+03  0.00000000000E+00 0.  1.
         21    1    1    2  502  501 -0.17338945651E+00  0.50323665131E+00  0.98866259062E+01  0.99009435328E+01  0.00000000000E+00 0.  1.
<mgrwt>
<rscale>  1 0.63548129E+03</rscale>
<asrwt>0</asrwt>
<pdfrwt beam="1">  1        1 0.40310494E+00 0.63548129E+03</pdfrwt>
<pdfrwt beam="2">0</pdfrwt>
<totfact> 0.12995194E+00</totfact>
</mgrwt>
</event>
<event>
 6    1  0.1175152E-003  0.6481545E+03  0.7818608E-02  0.9810248E-01
          1   -1    0    0  502    0  0.00000000000E+00  0.00000000000E+00  0.10530116827E+03  0.10530116827E+03  0.00000000000E+00 0.  1.
         13   -1    0    0    0    0 -0.00000000000E+00 -0.00000000000E+00 -0.10000000000E+04  0.10000000000E+04  0.00000000000E+00 0.  1.
    9000005    2    1    2  501    0  0.31979823922E+00  0.74559542794E+00 -0.89395153519E+03  0.11041981562E+04  0.64815396531E+03 0.  0.
         13    1    3    3    0    0  0.32244903052E+02  0.27481956773E+03 -0.73591865368E+03  0.78621993959E+03  0.00000000000E+00 0.  1.
          1    1    3    3  501    0 -0.31925104813E+02 -0.27407397230E+03 -0.15803288152E+03  0.31797821663E+03  0.00000000000E+00 0.  1.
         21    1    1    2  502  501 -0.31979823922E+00 -0.74559542794E+00 -0.74729653805E+00  0.11030120452E+01  0.00000000000E+00 0.  1.
<mgrwt>
<rscale>  1 0.64815447E+03</rscale>
<asrwt>0</asrwt>
<pdfrwt beam="1">  1        1 0.38291415E+00 0.64815447E+03</pdfrwt>
<pdfrwt beam="2">0</pdfrwt>
<totfact> 0.15936075E+00</totfact>
</mgrwt>
</event>
<event>
 6    1  0.1175152E-003  0.6407093E+03  0.7818608E-02  0.9824370E-01
          1   -1    0    0  502    0  0.00000000000E+00  0.00000000000E+00  0.10520757481E+03  0.10520757481E+03  0.00000000000E+00 0.  1.
         13   -1    0    0    0    0 -0.00000000000E+00 -0.00000000000E+00 -0.10000000000E+04  0.10000000000E+04  0.00000000000E+00 0.  1.
    9000005    2    1    2  501    0 -0.19685789498E+00 -0.24778528655E+00 -0.89736220583E+03  0.11026183813E+04  0.64070918999E+03 0.  0.
         13    1    3    3    0    0  0.15552387822E+03 -0.21905687622E+03 -0.14829729353E+03  0.30686426802E+03  0.00000000000E+00 0.  1.
          3    1    3    3  501    0 -0.15572073612E+03  0.21880909094E+03 -0.74906491230E+03  0.79575411326E+03  0.00000000000E+00 0.  1.
         21    1    1    2  502  501  0.19685789498E+00  0.24778528655E+00  0.25697806401E+01  0.25891935265E+01  0.00000000000E+00 0. -1.
<mgrwt>
<rscale>  1 0.64070927E+03</rscale>
<asrwt>0</asrwt>
<pdfrwt beam="1">  1        1 0.38257381E+00 0.64070927E+03</pdfrwt>
<pdfrwt beam="2">0</pdfrwt>
<totfact> 0.16013417E+00</totfact>
</mgrwt>
</event>
<event>
 6    1  0.1175152E-003  0.6620303E+03  0.7818608E-02  0.9784463E-01
          1   -1    0    0  502    0  0.00000000000E+00  0.00000000000E+00  0.10957137563E+03  0.10957137563E+03  0.00000000000E+00 0.  1.
         13   -1    0    0    0    0 -0.00000000000E+00 -0.00000000000E+00 -0.10000000000E+04  0.10000000000E+04  0.00000000000E+00 0.  1.
    9000005    2    1    2  501    0  0.10027064599E-03 -0.16656483089E-03 -0.89042894123E+03  0.11095710039E+04  0.66203029635E+03 0.  0.
         13    1    3    3    0    0  0.22082838922E+03 -0.21702507810E+03 -0.24899923515E+03  0.39732314445E+03  0.00000000000E+00 0.  1.
          3    1    3    3  501    0 -0.22082828895E+03  0.21702491153E+03 -0.64142970608E+03  0.71224785943E+03  0.00000000000E+00 0.  1.
         21    1    1    2  502  501 -0.10027064598E-03  0.16656483090E-03  0.31685207538E-03  0.37174357158E-03  0.00000000000E+00 0. -1.
<mgrwt>
<rscale>  1 0.66203030E+03</rscale>
<asrwt>0</asrwt>
<pdfrwt beam="1">  1        1 0.39844221E+00 0.66203030E+03</pdfrwt>
<pdfrwt beam="2">0</pdfrwt>
<totfact> 0.13563509E+00</totfact>
</mgrwt>
</event>
<event>
 6    1  0.1175152E-003  0.6452749E+03  0.7818608E-02  0.9815686E-01
          1   -1    0    0  502    0  0.00000000000E+00  0.00000000000E+00  0.10411849780E+03  0.10411849780E+03  0.00000000000E+00 0.  1.
         13   -1    0    0    0    0 -0.00000000000E+00 -0.00000000000E+00 -0.10000000000E+04  0.10000000000E+04  0.00000000000E+00 0.  1.
    9000005    2    1    2  501    0 -0.38338405700E-01 -0.47955518077E-01 -0.89584782136E+03  0.11040484695E+04  0.64527490280E+03 0.  0.
         13    1    3    3    0    0 -0.19130813617E+03 -0.22065756499E+03 -0.21321412015E+03  0.36159206986E+03  0.00000000000E+00 0.  1.
          1    1    3    3  501    0  0.19126979777E+03  0.22060960947E+03 -0.68263370121E+03  0.74245639964E+03  0.00000000000E+00 0.  1.
         21    1    1    2  502  501  0.38338405700E-01  0.47955518077E-01 -0.33680834359E-01  0.70028306197E-01  0.00000000000E+00 0. -1.
<mgrwt>
<rscale>  1 0.64527491E+03</rscale>
<asrwt>0</asrwt>
<pdfrwt beam="1">  1        1 0.37861352E+00 0.64527491E+03</pdfrwt>
<pdfrwt beam="2">0</pdfrwt>
<totfact> 0.16656886E+00</totfact>
</mgrwt>
</event>
<event>
 6    1  0.1175152E-003  0.6481841E+03  0.7818608E-02  0.9810193E-01
          1   -1    0    0  502    0  0.00000000000E+00  0.00000000000E+00  0.10503620086E+03  0.10503620086E+03  0.00000000000E+00 0.  1.
         13   -1    0    0    0    0 -0.00000000000E+00 -0.00000000000E+00 -0.10000000000E+04  0.10000000000E+04  0.00000000000E+00 0.  1.
    9000005    2    1    2  501    0 -0.86047899984E-04  0.20787948023E-03 -0.89496432485E+03  0.11050356290E+04  0.64818407776E+03 0.  0.
         13    1    3    3    0    0  0.10402581844E+03 -0.10354186749E+03 -0.94009276639E+03  0.95148131807E+03  0.00000000000E+00 0.  1.
          3    1    3    3  501    0 -0.10402590449E+03  0.10354207537E+03  0.45128441537E+02  0.15355431095E+03  0.00000000000E+00 0.  1.
         21    1    1    2  502  501  0.86047899975E-04 -0.20787948023E-03  0.52571436618E-03  0.57183364207E-03  0.00000000000E+00 0.  1.
<mgrwt>
<rscale>  1 0.64818408E+03</rscale>
<asrwt>0</asrwt>
<pdfrwt beam="1">  1        1 0.38195063E+00 0.64818408E+03</pdfrwt>
<pdfrwt beam="2">0</pdfrwt>
<totfact> 0.16092938E+00</totfact>
</mgrwt>
</event>
<event>
 6    1  0.1175152E-003  0.6522378E+03  0.7818608E-02  0.9802589E-01
          1   -1    0    0  502    0  0.00000000000E+00  0.00000000000E+00  0.10635735561E+03  0.10635735561E+03  0.00000000000E+00 0.  1.
         13   -1    0    0    0    0 -0.00000000000E+00 -0.00000000000E+00 -0.10000000000E+04  0.10000000000E+04  0.00000000000E+00 0.  1.
    9000005    2    1    2  501    0  0.90107405939E-03 -0.31827365981E-03 -0.89364638904E+03  0.11063534909E+04  0.65223782340E+03 0.  0.
         13    1    3    3    0    0  0.34431961461E+02  0.25351755963E+03 -0.10379277829E+03  0.27609718187E+03  0.00000000000E+00 0.  1.
          3    1    3    3  501    0 -0.34431060387E+02 -0.25351787790E+03 -0.78985361075E+03  0.83025630907E+03  0.00000000000E+00 0.  1.
         21    1    1    2  502  501 -0.90107405939E-03  0.31827365981E-03  0.37446490270E-02  0.38646641405E-02  0.00000000000E+00 0.  1.
<mgrwt>
<rscale>  1 0.65223782E+03</rscale>
<asrwt>0</asrwt>
<pdfrwt beam="1">  1        1 0.38675484E+00 0.65223782E+03</pdfrwt>
<pdfrwt beam="2">0</pdfrwt>
<totfact> 0.15313241E+00</totfact>
</mgrwt>
</event>
<event>
 6    1  0.1175152E-003  0.6440669E+03  0.7818608E-02  0.9817976E-01
          1   -1    0    0  502    0  0.00000000000E+00  0.00000000000E+00  0.10718513031E+03  0.10718513031E+03  0.00000000000E+00 0.  1.
         13   -1    0    0    0    0 -0.00000000000E+00 -0.00000000000E+00 -0.10000000000E+04  0.10000000000E+04  0.00000000000E+00 0.  1.
    9000005    2    1    2  501    0  0.75823553610E-01  0.37092490624E-01 -0.89629388491E+03  0.11037050912E+04  0.64406691668E+03 0.  0.
         13    1    3    3    0    0  0.23355707329E+03 -0.17912372008E+03 -0.67214425722E+03  0.73376570926E+03  0.00000000000E+00 0.  1.
          1    1    3    3  501    0 -0.23348124974E+03  0.17916081257E+03 -0.22414962769E+03  0.36993938197E+03  0.00000000000E+00 0.  1.
         21    1    1    2  502  501 -0.75823553610E-01 -0.37092490624E-01  0.34790152191E+01  0.34800390744E+01  0.00000000000E+00 0.  1.
<mgrwt>
<rscale>  1 0.64406692E+03</rscale>
<asrwt>0</asrwt>
<pdfrwt beam="1">  1        1 0.38976493E+00 0.64406692E+03</pdfrwt>
<pdfrwt beam="2">0</pdfrwt>
<totfact> 0.14872853E+00</totfact>
</mgrwt>
</event>
<event>
 6    1  0.1175152E-003  0.6525825E+03  0.7818608E-02  0.9801945E-01
          1   -1    0    0  502    0  0.00000000000E+00  0.00000000000E+00  0.10959896328E+03  0.10959896328E+03  0.00000000000E+00 0.  1.
         13   -1    0    0    0    0 -0.00000000000E+00 -0.00000000000E+00 -0.10000000000E+04  0.10000000000E+04  0.00000000000E+00 0.  1.
    9000005    2    1    2  501    0 -0.47126880221E+01  0.42998493212E+01 -0.88941709090E+03  0.11031440208E+04  0.65255135506E+03 0.  0.
         13    1    3    3    0    0  0.18314907683E+03  0.25106761300E+03 -0.61486628378E+03  0.68894054719E+03  0.00000000000E+00 0.  1.
          3    1    3    3  501    0 -0.18786176485E+03 -0.24676776368E+03 -0.27455080713E+03  0.41420347364E+03  0.00000000000E+00 0.  1.
         21    1    1    2  502  501  0.47126880221E+01 -0.42998493212E+01 -0.98394582014E+00  0.64549424440E+01  0.00000000000E+00 0.  1.
<mgrwt>
<rscale>  1 0.65258254E+03</rscale>
<asrwt>0</asrwt>
<pdfrwt beam="1">  1        1 0.39854253E+00 0.65258254E+03</pdfrwt>
<pdfrwt beam="2">0</pdfrwt>
<totfact> 0.13573635E+00</totfact>
</mgrwt>
</event>
<event>
 6    1  0.1175152E-003  0.6504624E+03  0.7818608E-02  0.9805912E-01
          1   -1    0    0  502    0  0.00000000000E+00  0.00000000000E+00  0.11573336843E+03  0.11573336843E+03  0.00000000000E+00 0.  1.
         13   -1    0    0    0    0 -0.00000000000E+00 -0.00000000000E+00 -0.10000000000E+04  0.10000000000E+04  0.00000000000E+00 0.  1.
    9000005    2    1    2  501    0 -0.61684253306E+00 -0.53056056138E+00 -0.89420627483E+03  0.11057604803E+04  0.65046192500E+03 0.  0.
         13    1    3    3    0    0 -0.10348125689E+03  0.14459132636E+03 -0.90997390448E+03  0.92718257588E+03  0.00000000000E+00 0.  1.
          3    1    3    3  501    0  0.10286441435E+03 -0.14512188693E+03  0.15767629648E+02  0.17857790443E+03  0.00000000000E+00 0.  1.
         21    1    1    2  502  501  0.61684253306E+00  0.53056056138E+00  0.99396432586E+01  0.99728881137E+01  0.00000000000E+00 0. -1.
<mgrwt>
<rscale>  1 0.65046243E+03</rscale>
<asrwt>0</asrwt>
<pdfrwt beam="1">  1        1 0.42084950E+00 0.65046243E+03</pdfrwt>
<pdfrwt beam="2">0</pdfrwt>
<totfact> 0.10786593E+00</totfact>
</mgrwt>
</event>
<event>
 6    1  0.1175152E-003  0.6029923E+03  0.7818608E-02  0.9899217E-01
          1   -1    0    0  502    0  0.00000000000E+00  0.00000000000E+00  0.91369067488E+02  0.91369067488E+02  0.00000000000E+00 0.  1.
         13   -1    0    0    0    0 -0.00000000000E+00 -0.00000000000E+00 -0.10000000000E+04  0.10000000000E+04  0.00000000000E+00 0.  1.
    9000005    2    1    2  501    0 -0.11558139631E-01  0.20445130402E-01 -0.90909974081E+03  0.10908996713E+04  0.60299233284E+03 0.  0.
         13    1    3    3    0    0 -0.11797426802E+03  0.12621285736E+03 -0.75282052380E+01  0.17292856083E+03  0.00000000000E+00 0.  1.
          1    1    3    3  501    0  0.11796270988E+03 -0.12619241223E+03 -0.90157153557E+03  0.91797111043E+03  0.00000000000E+00 0.  1.
         21    1    1    2  502  501  0.11558139631E-01 -0.20445130402E-01  0.46880829950E+00  0.46939622456E+00  0.00000000000E+00 0.  1.
<mgrwt>
<rscale>  1 0.60299233E+03</rscale>
<asrwt>0</asrwt>
<pdfrwt beam="1">  1        1 0.33225186E+00 0.60299233E+03</pdfrwt>
<pdfrwt beam="2">0</pdfrwt>
<totfact> 0.26754109E+00</totfact>
</mgrwt>
</event>
<event>
 6    1  0.1175152E-003  0.6510777E+03  0.7818608E-02  0.9804759E-01
          1   -1    0    0  502    0  0.00000000000E+00  0.00000000000E+00  0.10609089348E+03  0.10609089348E+03  0.00000000000E+00 0.  1.
         13   -1    0    0    0    0 -0.00000000000E+00 -0.00000000000E+00 -0.10000000000E+04  0.10000000000E+04  0.00000000000E+00 0.  1.
    9000005    2    1    2  501    0 -0.12189526820E-01  0.24460274102E-01 -0.89402267516E+03  0.11059740828E+04  0.65107766622E+03 0.  0.
         13    1    3    3    0    0  0.14021643654E+03 -0.20734744284E+03 -0.80053170649E+03  0.83875182517E+03  0.00000000000E+00 0.  1.
          1    1    3    3  501    0 -0.14022862607E+03  0.20737190311E+03 -0.93490968678E+02  0.26722225767E+03  0.00000000000E+00 0.  1.
         21    1    1    2  502  501  0.12189526820E-01 -0.24460274102E-01  0.11356864469E+00  0.11681064433E+00  0.00000000000E+00 0. -1.
<mgrwt>
<rscale>  1 0.65107767E+03</rscale>
<asrwt>0</asrwt>
<pdfrwt beam="1">  1        1 0.38578588E+00 0.65107767E+03</pdfrwt>
<pdfrwt beam="2">0</pdfrwt>
<totfact> 0.15468527E+00</totfact>
</mgrwt>
</event>
<event>
 6    1  0.1175152E-003  0.6473989E+03  0.7818608E-02  0.9811672E-01
          3   -1    0    0  502    0  0.00000000000E+00  0.00000000000E+00  0.10927071337E+03  0.10927071337E+03  0.00000000000E+00 0.  1.
         13   -1    0    0    0    0 -0.00000000000E+00 -0.00000000000E+00 -0.10000000000E+04  0.10000000000E+04  0.00000000000E+00 0.  1.
    9000005    2    1    2  501    0  0.55059854699E+00 -0.31417346000E+00 -0.89519392898E+03  0.11047612905E+04  0.64739859171E+03 0.  0.
         13    1    3    3    0    0  0.23736193105E+03  0.36278362433E+02 -0.76941592121E+02  0.25214443180E+03  0.00000000000E+00 0.  1.
          3    1    3    3  501    0 -0.23681133250E+03 -0.36592535893E+02 -0.81825233686E+03  0.85261685865E+03  0.00000000000E+00 0.  1.
         21    1    1    2  502  501 -0.55059854699E+00  0.31417346000E+00  0.44646423532E+01  0.45094229193E+01  0.00000000000E+00 0.  1.
<mgrwt>
<rscale>  1 0.64739890E+03</rscale>
<asrwt>0</asrwt>
<pdfrwt beam="1">  1        3 0.39734889E+00 0.64739890E+03</pdfrwt>
<pdfrwt beam="2">0</pdfrwt>
<totfact> 0.61192356E-02</totfact>
</mgrwt>
</event>
<event>
 6    1  0.1175152E-003  0.6499224E+03  0.7818608E-02  0.9806925E-01
          1   -1    0    0  502    0  0.00000000000E+00  0.00000000000E+00  0.10567255789E+03  0.10567255789E+03  0.00000000000E+00 0.  1.
         13   -1    0    0    0    0 -0.00000000000E+00 -0.00000000000E+00 -0.10000000000E+04  0.10000000000E+04  0.00000000000E+00 0.  1.
    9000005    2    1    2  501    0  0.50166404292E-02 -0.47064161672E-03 -0.89440012305E+03  0.11055997025E+04  0.64992239693E+03 0.  0.
         13    1    3    3    0    0  0.52495005686E+02 -0.22340857666E+03 -0.83858189008E+03  0.86941745101E+03  0.00000000000E+00 0.  1.
          1    1    3    3  501    0 -0.52489989046E+02  0.22340810602E+03 -0.55818232969E+02  0.23618225149E+03  0.00000000000E+00 0.  1.
         21    1    1    2  502  501 -0.50166404292E-02  0.47064161673E-03  0.72680945347E-01  0.72855391024E-01  0.00000000000E+00 0. -1.
<mgrwt>
<rscale>  1 0.64992240E+03</rscale>
<asrwt>0</asrwt>
<pdfrwt beam="1">  1        1 0.38426466E+00 0.64992240E+03</pdfrwt>
<pdfrwt beam="2">0</pdfrwt>
<totfact> 0.15713410E+00</totfact>
</mgrwt>
</event>
<event>
 6    1  0.1175152E-003  0.6661297E+03  0.7818608E-02  0.9776975E-01
          1   -1    0    0  502    0  0.00000000000E+00  0.00000000000E+00  0.11095482364E+03  0.11095482364E+03  0.00000000000E+00 0.  1.
         13   -1    0    0    0    0 -0.00000000000E+00 -0.00000000000E+00 -0.10000000000E+04  0.10000000000E+04  0.00000000000E+00 0.  1.
    9000005    2    1    2  501    0 -0.15954334632E-01 -0.42631844653E-02 -0.88906441261E+03  0.11109294712E+04  0.66612968695E+03 0.  0.
         13    1    3    3    0    0 -0.85364958483E+02  0.31347515480E+03 -0.32222481040E+03  0.45758351942E+03  0.00000000000E+00 0.  1.
          3    1    3    3  501    0  0.85349004148E+02 -0.31347941798E+03 -0.56683960221E+03  0.65334595173E+03  0.00000000000E+00 0.  1.
         21    1    1    2  502  501  0.15954334632E-01  0.42631844653E-02  0.19236247074E-01  0.25352489756E-01  0.00000000000E+00 0. -1.
<mgrwt>
<rscale>  1 0.66612969E+03</rscale>
<asrwt>0</asrwt>
<pdfrwt beam="1">  1        1 0.40347294E+00 0.66612969E+03</pdfrwt>
<pdfrwt beam="2">0</pdfrwt>
<totfact> 0.12870414E+00</totfact>
</mgrwt>
</event>
<event>
 6    1  0.1175152E-003  0.6456734E+03  0.7818608E-02  0.9814932E-01
          1   -1    0    0  502    0  0.00000000000E+00  0.00000000000E+00  0.10465530682E+03  0.10465530682E+03  0.00000000000E+00 0.  1.
         13   -1    0    0    0    0 -0.00000000000E+00 -0.00000000000E+00 -0.10000000000E+04  0.10000000000E+04  0.00000000000E+00 0.  1.
    9000005    2    1    2  501    0  0.41493512163E+00 -0.12449769021E+00 -0.89565314406E+03  0.11041235054E+04  0.64567327107E+03 0.  0.
         13    1    3    3    0    0 -0.19272009008E+03 -0.13739719846E+03 -0.82289309446E+03  0.85625467483E+03  0.00000000000E+00 0.  1.
          1    1    3    3  501    0  0.19313502520E+03  0.13727270077E+03 -0.72760049603E+02  0.24786883054E+03  0.00000000000E+00 0.  1.
         21    1    1    2  502  501 -0.41493512163E+00  0.12449769021E+00  0.30845087902E+00  0.53180144302E+00  0.00000000000E+00 0.  1.
<mgrwt>
<rscale>  1 0.64567342E+03</rscale>
<asrwt>0</asrwt>
<pdfrwt beam="1">  1        1 0.38056555E+00 0.64567342E+03</pdfrwt>
<pdfrwt beam="2">0</pdfrwt>
<totfact> 0.16328678E+00</totfact>
</mgrwt>
</event>
<event>
 6    1  0.1175152E-003  0.7068438E+03  0.7818608E-02  0.9705599E-01
          1   -1    0    0  502    0  0.00000000000E+00  0.00000000000E+00  0.12497278266E+03  0.12497278266E+03  0.00000000000E+00 0.  1.
         13   -1    0    0    0    0 -0.00000000000E+00 -0.00000000000E+00 -0.10000000000E+04  0.10000000000E+04  0.00000000000E+00 0.  1.
    9000005    2    1    2  501    0  0.16454547611E-02  0.44746220847E-02 -0.87509286402E+03  0.11249069631E+04  0.70684379809E+03 0.  0.
         13    1    3    3    0    0 -0.18359157528E+03  0.17796047093E+03 -0.49247261263E+02  0.26038642144E+03  0.00000000000E+00 0.  1.
          3    1    3    3  501    0  0.18359322074E+03 -0.17795599631E+03 -0.82584560276E+03  0.86452054164E+03  0.00000000000E+00 0.  1.
         21    1    1    2  502  501 -0.16454547611E-02 -0.44746220847E-02  0.65646685700E-01  0.65819579971E-01  0.00000000000E+00 0. -1.
<mgrwt>
<rscale>  1 0.70684380E+03</rscale>
<asrwt>0</asrwt>
<pdfrwt beam="1">  1        1 0.45444744E+00 0.70684380E+03</pdfrwt>
<pdfrwt beam="2">0</pdfrwt>
<totfact> 0.74913771E-01</totfact>
</mgrwt>
</event>
<event>
 6    1  0.1175152E-003  0.6122415E+03  0.7818608E-02  0.9880329E-01
          1   -1    0    0  502    0  0.00000000000E+00  0.00000000000E+00  0.10185607237E+03  0.10185607237E+03  0.00000000000E+00 0.  1.
         13   -1    0    0    0    0 -0.00000000000E+00 -0.00000000000E+00 -0.10000000000E+04  0.10000000000E+04  0.00000000000E+00 0.  1.
    9000005    2    1    2  501    0  0.76178124054E+00  0.21429165248E+01 -0.90611616076E+03  0.10935657827E+04  0.61223725130E+03 0.  0.
         13    1    3    3    0    0 -0.84645769212E+02 -0.98122881799E+02 -0.94686826129E+03  0.95569477890E+03  0.00000000000E+00 0.  1.
          1    1    3    3  501    0  0.85407550452E+02  0.10026579832E+03  0.40752100535E+02  0.13787100379E+03  0.00000000000E+00 0.  1.
         21    1    1    2  502  501 -0.76178124054E+00 -0.21429165248E+01  0.79722331285E+01  0.82902896780E+01  0.00000000000E+00 0.  1.
<mgrwt>
<rscale>  1 0.61224148E+03</rscale>
<asrwt>0</asrwt>
<pdfrwt beam="1">  1        1 0.37038650E+00 0.61224148E+03</pdfrwt>
<pdfrwt beam="2">0</pdfrwt>
<totfact> 0.18216016E+00</totfact>
</mgrwt>
</event>
<event>
 6    1  0.1175152E-003  0.6515493E+03  0.7818608E-02  0.9803876E-01
          1   -1    0    0  502    0  0.00000000000E+00  0.00000000000E+00  0.10646903617E+03  0.10646903617E+03  0.00000000000E+00 0.  1.
         13   -1    0    0    0    0 -0.00000000000E+00 -0.00000000000E+00 -0.10000000000E+04  0.10000000000E+04  0.00000000000E+00 0.  1.
    9000005    2    1    2  501    0 -0.12565804798E-01  0.40166975281E-01 -0.89386943060E+03  0.11061279628E+04  0.65154931462E+03 0.  0.
         13    1    3    3    0    0  0.11169530024E+03 -0.29529669844E+03 -0.58314440247E+03  0.66312395096E+03  0.00000000000E+00 0.  1.
          3    1    3    3  501    0 -0.11170786604E+03  0.29533686542E+03 -0.31072502813E+03  0.44300401185E+03  0.00000000000E+00 0.  1.
         21    1    1    2  502  501  0.12565804798E-01 -0.40166975281E-01  0.33846676495E+00  0.34107335916E+00  0.00000000000E+00 0.  1.
<mgrwt>
<rscale>  1 0.65154932E+03</rscale>
<asrwt>0</asrwt>
<pdfrwt beam="1">  1        1 0.38716095E+00 0.65154932E+03</pdfrwt>
<pdfrwt beam="2">0</pdfrwt>
<totfact> 0.15251913E+00</totfact>
</mgrwt>
</event>
<event>
 6    1  0.1175152E-003  0.6404499E+03  0.7818608E-02  0.9824866E-01
          1   -1    0    0  502    0  0.00000000000E+00  0.00000000000E+00  0.10265778423E+03  0.10265778423E+03  0.00000000000E+00 0.  1.
         13   -1    0    0    0    0 -0.00000000000E+00 -0.00000000000E+00 -0.10000000000E+04  0.10000000000E+04  0.00000000000E+00 0.  1.
    9000005    2    1    2  501    0  0.23867449726E-02 -0.15248474172E-02 -0.89745596868E+03  0.11025439961E+04  0.64044987902E+03 0.  0.
         13    1    3    3    0    0 -0.10027271431E+03  0.26963538187E+03 -0.69087649264E+03  0.74837703363E+03  0.00000000000E+00 0.  1.
          1    1    3    3  501    0  0.10027510106E+03 -0.26963690672E+03 -0.20657947604E+03  0.35416696243E+03  0.00000000000E+00 0.  1.
         21    1    1    2  502  501 -0.23867449726E-02  0.15248474172E-02  0.11375290452E+00  0.11378815843E+00  0.00000000000E+00 0. -1.
<mgrwt>
<rscale>  1 0.64044988E+03</rscale>
<asrwt>0</asrwt>
<pdfrwt beam="1">  1        1 0.37330182E+00 0.64044988E+03</pdfrwt>
<pdfrwt beam="2">0</pdfrwt>
<totfact> 0.17594179E+00</totfact>
</mgrwt>
</event>
<event>
 6    1  0.1175152E-003  0.6395929E+03  0.7818608E-02  0.9826506E-01
          1   -1    0    0  502    0  0.00000000000E+00  0.00000000000E+00  0.10227315434E+03  0.10227315434E+03  0.00000000000E+00 0.  1.
         13   -1    0    0    0    0 -0.00000000000E+00 -0.00000000000E+00 -0.10000000000E+04  0.10000000000E+04  0.00000000000E+00 0.  1.
    9000005    2    1    2  501    0  0.44709585643E-03  0.25032187045E-03 -0.89773021550E+03  0.11022697458E+04  0.63959288036E+03 0.  0.
         13    1    3    3    0    0 -0.25695840281E+03  0.16543794249E+03 -0.61119680044E+03  0.68334388302E+03  0.00000000000E+00 0.  1.
          1    1    3    3  501    0  0.25695884991E+03 -0.16543769216E+03 -0.28653341506E+03  0.41892586275E+03  0.00000000000E+00 0.  1.
         21    1    1    2  502  501 -0.44709585645E-03 -0.25032187045E-03  0.33698372635E-02  0.34085713908E-02  0.00000000000E+00 0.  1.
<mgrwt>
<rscale>  1 0.63959288E+03</rscale>
<asrwt>0</asrwt>
<pdfrwt beam="1">  1        1 0.37190316E+00 0.63959288E+03</pdfrwt>
<pdfrwt beam="2">0</pdfrwt>
<totfact> 0.17847887E+00</totfact>
</mgrwt>
</event>
<event>
 6    1  0.1175152E-003  0.6556917E+03  0.7818608E-02  0.9796157E-01
          1   -1    0    0  502    0  0.00000000000E+00  0.00000000000E+00  0.10750477331E+03  0.10750477331E+03  0.00000000000E+00 0.  1.
         13   -1    0    0    0    0 -0.00000000000E+00 -0.00000000000E+00 -0.10000000000E+04  0.10000000000E+04  0.00000000000E+00 0.  1.
    9000005    2    1    2  501    0  0.12844276331E-01 -0.48345056377E-02 -0.89251469707E+03  0.11074809522E+04  0.65569167670E+03 0.  0.
         13    1    3    3    0    0 -0.19627590517E+02 -0.11701483679E+03  0.69947709154E+02  0.13773306195E+03  0.00000000000E+00 0.  1.
          3    1    3    3  501    0  0.19640434793E+02  0.11701000229E+03 -0.96246240622E+03  0.96974789028E+03  0.00000000000E+00 0.  1.
         21    1    1    2  502  501 -0.12844276331E-01  0.48345056377E-02  0.19470377183E-01  0.23821071909E-01  0.00000000000E+00 0. -1.
<mgrwt>
<rscale>  1 0.65569168E+03</rscale>
<asrwt>0</asrwt>
<pdfrwt beam="1">  1        1 0.39092727E+00 0.65569168E+03</pdfrwt>
<pdfrwt beam="2">0</pdfrwt>
<totfact> 0.14665493E+00</totfact>
</mgrwt>
</event>
<event>
 6    1  0.1175152E-003  0.6384894E+03  0.7818608E-02  0.9828621E-01
          1   -1    0    0  502    0  0.00000000000E+00  0.00000000000E+00  0.10200695366E+03  0.10200695366E+03  0.00000000000E+00 0.  1.
         13   -1    0    0    0    0 -0.00000000000E+00 -0.00000000000E+00 -0.10000000000E+04  0.10000000000E+04  0.00000000000E+00 0.  1.
    9000005    2    1    2  501    0 -0.10351500780E-02 -0.11548176105E-02 -0.89808281168E+03  0.11019171749E+04  0.63848940772E+03 0.  0.
         13    1    3    3    0    0 -0.17933294758E+03  0.25382262526E+03 -0.57504773389E+03  0.65365597024E+03  0.00000000000E+00 0.  1.
          1    1    3    3  501    0  0.17933191243E+03 -0.25382378008E+03 -0.32303507779E+03  0.44826120469E+03  0.00000000000E+00 0.  1.
         21    1    1    2  502  501  0.10351500780E-02  0.11548176105E-02  0.89765333748E-01  0.89778729565E-01  0.00000000000E+00 0. -1.
<mgrwt>
<rscale>  1 0.63848941E+03</rscale>
<asrwt>0</asrwt>
<pdfrwt beam="1">  1        1 0.37093516E+00 0.63848941E+03</pdfrwt>
<pdfrwt beam="2">0</pdfrwt>
<totfact> 0.18027198E+00</totfact>
</mgrwt>
</event>
<event>
 6    1  0.1175152E-003  0.6512834E+03  0.7818608E-02  0.9804374E-01
          1   -1    0    0  502    0  0.00000000000E+00  0.00000000000E+00  0.10608130497E+03  0.10608130497E+03  0.00000000000E+00 0.  1.
         13   -1    0    0    0    0 -0.00000000000E+00 -0.00000000000E+00 -0.10000000000E+04  0.10000000000E+04  0.00000000000E+00 0.  1.
    9000005    2    1    2  501    0 -0.91354525626E-01 -0.47983400706E-01 -0.89385614041E+03  0.11059606354E+04  0.65128343811E+03 0.  0.
         13    1    3    3    0    0 -0.15777206184E+03  0.27197010024E+03 -0.30299913595E+03  0.43665574004E+03  0.00000000000E+00 0.  1.
          1    1    3    3  501    0  0.15768070732E+03 -0.27201808364E+03 -0.59085700446E+03  0.66930489540E+03  0.00000000000E+00 0.  1.
         21    1    1    2  502  501  0.91354525626E-01  0.47983400706E-01 -0.62554618698E-01  0.12066953392E+00  0.00000000000E+00 0. -1.
<mgrwt>
<rscale>  1 0.65128345E+03</rscale>
<asrwt>0</asrwt>
<pdfrwt beam="1">  1        1 0.38575101E+00 0.65128345E+03</pdfrwt>
<pdfrwt beam="2">0</pdfrwt>
<totfact> 0.15473436E+00</totfact>
</mgrwt>
</event>
<event>
 6    1  0.1175152E-003  0.6453965E+03  0.7818608E-02  0.9815456E-01
          1   -1    0    0  502    0  0.00000000000E+00  0.00000000000E+00  0.10455119520E+03  0.10455119520E+03  0.00000000000E+00 0.  1.
         13   -1    0    0    0    0 -0.00000000000E+00 -0.00000000000E+00 -0.10000000000E+04  0.10000000000E+04  0.00000000000E+00 0.  1.
    9000005    2    1    2  501    0  0.18417717911E+00 -0.76192131642E-01 -0.89583940014E+03  0.11041126850E+04  0.64539642902E+03 0.  0.
         13    1    3    3    0    0 -0.10521347825E+03 -0.30228998044E+03 -0.51822822235E+03  0.60910557272E+03  0.00000000000E+00 0.  1.
          1    1    3    3  501    0  0.10539765542E+03  0.30221378831E+03 -0.37761117780E+03  0.49500711228E+03  0.00000000000E+00 0.  1.
         21    1    1    2  502  501 -0.18417717911E+00  0.76192131642E-01  0.39059534325E+00  0.43851020101E+00  0.00000000000E+00 0.  1.
<mgrwt>
<rscale>  1 0.64539646E+03</rscale>
<asrwt>0</asrwt>
<pdfrwt beam="1">  1        1 0.38018697E+00 0.64539646E+03</pdfrwt>
<pdfrwt beam="2">0</pdfrwt>
<totfact> 0.16392449E+00</totfact>
</mgrwt>
</event>
<event>
 6    1  0.1175152E-003  0.6559359E+03  0.7818608E-02  0.9795704E-01
          1   -1    0    0  502    0  0.00000000000E+00  0.00000000000E+00  0.10877280531E+03  0.10877280531E+03  0.00000000000E+00 0.  1.
         13   -1    0    0    0    0 -0.00000000000E+00 -0.00000000000E+00 -0.10000000000E+04  0.10000000000E+04  0.00000000000E+00 0.  1.
    9000005    2    1    2  501    0 -0.24946647815E-01  0.86508618742E-02 -0.89243687007E+03  0.11075628418E+04  0.65593588159E+03 0.  0.
         13    1    3    3    0    0 -0.22282071131E+03  0.23481545738E+03 -0.35715451778E+03  0.48202356579E+03  0.00000000000E+00 0.  1.
          1    1    3    3  501    0  0.22279576466E+03 -0.23480680652E+03 -0.53528235230E+03  0.62553927600E+03  0.00000000000E+00 0.  1.
         21    1    1    2  502  501  0.24946647815E-01 -0.86508618742E-02  0.12096753800E+01  0.12099635109E+01  0.00000000000E+00 0.  1.
<mgrwt>
<rscale>  1 0.65593588E+03</rscale>
<asrwt>0</asrwt>
<pdfrwt beam="1">  1        1 0.39553831E+00 0.65593588E+03</pdfrwt>
<pdfrwt beam="2">0</pdfrwt>
<totfact> 0.13989220E+00</totfact>
</mgrwt>
</event>
<event>
 6    1  0.1175152E-003  0.6557775E+03  0.7818608E-02  0.9795998E-01
          1   -1    0    0  502    0  0.00000000000E+00  0.00000000000E+00  0.10829199500E+03  0.10829199500E+03  0.00000000000E+00 0.  1.
         13   -1    0    0    0    0 -0.00000000000E+00 -0.00000000000E+00 -0.10000000000E+04  0.10000000000E+04  0.00000000000E+00 0.  1.
    9000005    2    1    2  501    0 -0.44337988592E-01  0.36443545681E-01 -0.89248779392E+03  0.11075100968E+04  0.65577751486E+03 0.  0.
         13    1    3    3    0    0  0.57534205768E+02 -0.72360000078E+02  0.85043051317E+02  0.12561239995E+03  0.00000000000E+00 0.  1.
          1    1    3    3  501    0 -0.57578543757E+02  0.72396443624E+02 -0.97753084523E+03  0.98189769688E+03  0.00000000000E+00 0.  1.
         21    1    1    2  502  501  0.44337988592E-01 -0.36443545681E-01  0.77978891375E+00  0.78189816425E+00  0.00000000000E+00 0. -1.
<mgrwt>
<rscale>  1 0.65577752E+03</rscale>
<asrwt>0</asrwt>
<pdfrwt beam="1">  1        1 0.39378990E+00 0.65577752E+03</pdfrwt>
<pdfrwt beam="2">0</pdfrwt>
<totfact> 0.14242262E+00</totfact>
</mgrwt>
</event>
<event>
 6    1  0.1175152E-003  0.6379618E+03  0.7818608E-02  0.9829634E-01
          1   -1    0    0  502    0  0.00000000000E+00  0.00000000000E+00  0.10178023940E+03  0.10178023940E+03  0.00000000000E+00 0.  1.
         13   -1    0    0    0    0 -0.00000000000E+00 -0.00000000000E+00 -0.10000000000E+04  0.10000000000E+04  0.00000000000E+00 0.  1.
    9000005    2    1    2  501    0  0.35953330530E-03 -0.10356303155E-02 -0.89825116171E+03  0.11017488192E+04  0.63796184133E+03 0.  0.
         13    1    3    3    0    0 -0.25742017362E+03 -0.17089119456E+03 -0.58598261653E+03  0.66245344971E+03  0.00000000000E+00 0.  1.
          3    1    3    3  501    0  0.25742053315E+03  0.17089015893E+03 -0.31226854518E+03  0.43929536945E+03  0.00000000000E+00 0.  1.
         21    1    1    2  502  501 -0.35953330529E-03  0.10356303155E-02  0.31401115185E-01  0.31420245531E-01  0.00000000000E+00 0.  1.
<mgrwt>
<rscale>  1 0.63796184E+03</rscale>
<asrwt>0</asrwt>
<pdfrwt beam="1">  1        1 0.37011074E+00 0.63796184E+03</pdfrwt>
<pdfrwt beam="2">0</pdfrwt>
<totfact> 0.18179901E+00</totfact>
</mgrwt>
</event>
<event>
 6    1  0.1175152E-003  0.6459329E+03  0.7818608E-02  0.9814441E-01
          1   -1    0    0  502    0  0.00000000000E+00  0.00000000000E+00  0.10718560723E+03  0.10718560723E+03  0.00000000000E+00 0.  1.
         13   -1    0    0    0    0 -0.00000000000E+00 -0.00000000000E+00 -0.10000000000E+04  0.10000000000E+04  0.00000000000E+00 0.  1.
    9000005    2    1    2  501    0 -0.14727048543E-01 -0.75335576574E-01 -0.89569210534E+03  0.11043068710E+04  0.64593290052E+03 0.  0.
         13    1    3    3    0    0  0.11960931049E+03  0.12587932609E+03  0.17700549733E+02  0.17454312176E+03  0.00000000000E+00 0.  1.
          3    1    3    3  501    0 -0.11962403753E+03 -0.12595466166E+03 -0.91339265508E+03  0.92976374929E+03  0.00000000000E+00 0.  1.
         21    1    1    2  502  501  0.14727048543E-01  0.75335576574E-01  0.28777125735E+01  0.28787361794E+01  0.00000000000E+00 0.  1.
<mgrwt>
<rscale>  1 0.64593291E+03</rscale>
<asrwt>0</asrwt>
<pdfrwt beam="1">  1        1 0.38976667E+00 0.64593291E+03</pdfrwt>
<pdfrwt beam="2">0</pdfrwt>
<totfact> 0.14867380E+00</totfact>
</mgrwt>
</event>
<event>
 6    1  0.1175152E-003  0.6422796E+03  0.7818608E-02  0.9821375E-01
          1   -1    0    0  502    0  0.00000000000E+00  0.00000000000E+00  0.10314879845E+03  0.10314879845E+03  0.00000000000E+00 0.  1.
         13   -1    0    0    0    0 -0.00000000000E+00 -0.00000000000E+00 -0.10000000000E+04  0.10000000000E+04  0.00000000000E+00 0.  1.
    9000005    2    1    2  501    0 -0.50635462046E-01  0.10739321795E-02 -0.89681448747E+03  0.11030862443E+04  0.64227956122E+03 0.  0.
         13    1    3    3    0    0 -0.14430152995E+03 -0.13648982953E+03 -0.88183955793E+03  0.90393219383E+03  0.00000000000E+00 0.  1.
          3    1    3    3  501    0  0.14425089449E+03  0.13649090346E+03 -0.14974929548E+02  0.19915405043E+03  0.00000000000E+00 0.  1.
         21    1    1    2  502  501  0.50635462046E-01 -0.10739321795E-02 -0.36714078319E-01  0.62554191656E-01  0.00000000000E+00 0. -1.
<mgrwt>
<rscale>  1 0.64227956E+03</rscale>
<asrwt>0</asrwt>
<pdfrwt beam="1">  1        1 0.37508733E+00 0.64227956E+03</pdfrwt>
<pdfrwt beam="2">0</pdfrwt>
<totfact> 0.17272976E+00</totfact>
</mgrwt>
</event>
<event>
 6    1  0.1175152E-003  0.6559680E+03  0.7818608E-02  0.9795645E-01
          1   -1    0    0  502    0  0.00000000000E+00  0.00000000000E+00  0.10765236983E+03  0.10765236983E+03  0.00000000000E+00 0.  1.
         13   -1    0    0    0    0 -0.00000000000E+00 -0.00000000000E+00 -0.10000000000E+04  0.10000000000E+04  0.00000000000E+00 0.  1.
    9000005    2    1    2  501    0 -0.39475246765E-01  0.28526899850E-01 -0.89241808281E+03  0.11075667214E+04  0.65596799119E+03 0.  0.
         13    1    3    3    0    0 -0.11503893844E+03 -0.43341090319E+02  0.67206164315E+02  0.14010380434E+03  0.00000000000E+00 0.  1.
          3    1    3    3  501    0  0.11499946319E+03  0.43369617219E+02 -0.95962424712E+03  0.96746291707E+03  0.00000000000E+00 0.  1.
         21    1    1    2  502  501  0.39475246765E-01 -0.28526899850E-01  0.70452640945E-01  0.85648431032E-01  0.00000000000E+00 0. -1.
<mgrwt>
<rscale>  1 0.65596799E+03</rscale>
<asrwt>0</asrwt>
<pdfrwt beam="1">  1        1 0.39146399E+00 0.65596799E+03</pdfrwt>
<pdfrwt beam="2">0</pdfrwt>
<totfact> 0.14584537E+00</totfact>
</mgrwt>
</event>
<event>
 6    1  0.1175152E-003  0.6544332E+03  0.7818608E-02  0.9798496E-01
          1   -1    0    0  502    0  0.00000000000E+00  0.00000000000E+00  0.10732102082E+03  0.10732102082E+03  0.00000000000E+00 0.  1.
         13   -1    0    0    0    0 -0.00000000000E+00 -0.00000000000E+00 -0.10000000000E+04  0.10000000000E+04  0.00000000000E+00 0.  1.
    9000005    2    1    2  501    0 -0.42514406133E-01  0.40289922726E-01 -0.89292549534E+03  0.11070676417E+04  0.65443320490E+03 0.  0.
         13    1    3    3    0    0  0.18276175607E+03  0.26221711088E+03 -0.32788658516E+03  0.45789658816E+03  0.00000000000E+00 0.  1.
          1    1    3    3  501    0 -0.18280427048E+03 -0.26217682096E+03 -0.56503891019E+03  0.64917105356E+03  0.00000000000E+00 0.  1.
         21    1    1    2  502  501  0.42514406133E-01 -0.40289922726E-01  0.24651616209E+00  0.25337910485E+00  0.00000000000E+00 0.  1.
<mgrwt>
<rscale>  1 0.65443321E+03</rscale>
<asrwt>0</asrwt>
<pdfrwt beam="1">  1        1 0.39025908E+00 0.65443321E+03</pdfrwt>
<pdfrwt beam="2">0</pdfrwt>
<totfact> 0.14769381E+00</totfact>
</mgrwt>
</event>
<event>
 6    1  0.1175152E-003  0.6619238E+03  0.7818608E-02  0.9784659E-01
          1   -1    0    0  502    0  0.00000000000E+00  0.00000000000E+00  0.11074394317E+03  0.11074394317E+03  0.00000000000E+00 0.  1.
         13   -1    0    0    0    0 -0.00000000000E+00 -0.00000000000E+00 -0.10000000000E+04  0.10000000000E+04  0.00000000000E+00 0.  1.
    9000005    2    1    2  501    0 -0.25084607438E+00 -0.33060769909E-01 -0.89044949752E+03  0.11095239770E+04  0.66192377499E+03 0.  0.
         13    1    3    3    0    0  0.67817132423E+02 -0.60434518133E+02  0.88223588526E+02  0.12662896985E+03  0.00000000000E+00 0.  1.
          1    1    3    3  501    0 -0.68067978498E+02  0.60401457363E+02 -0.97867308604E+03  0.98289500716E+03  0.00000000000E+00 0.  1.
         21    1    1    2  502  501  0.25084607438E+00  0.33060769909E-01  0.11934406925E+01  0.12199661692E+01  0.00000000000E+00 0. -1.
<mgrwt>
<rscale>  1 0.66192382E+03</rscale>
<asrwt>0</asrwt>
<pdfrwt beam="1">  1        1 0.40270610E+00 0.66192382E+03</pdfrwt>
<pdfrwt beam="2">0</pdfrwt>
<totfact> 0.12982589E+00</totfact>
</mgrwt>
</event>
<event>
 6    1  0.1175152E-003  0.6518673E+03  0.7818608E-02  0.9803282E-01
          1   -1    0    0  502    0  0.00000000000E+00  0.00000000000E+00  0.10665340067E+03  0.10665340067E+03  0.00000000000E+00 0.  1.
         13   -1    0    0    0    0 -0.00000000000E+00 -0.00000000000E+00 -0.10000000000E+04  0.10000000000E+04  0.00000000000E+00 0.  1.
    9000005    2    1    2  501    0 -0.99540051398E-01  0.12775427822E+01 -0.89134151963E+03  0.11042738275E+04  0.65186604413E+03 0.  0.
         13    1    3    3    0    0  0.44653581081E+01  0.38146938429E+02  0.10264396927E+03  0.10959430990E+03  0.00000000000E+00 0.  1.
          3    1    3    3  501    0 -0.45648981595E+01 -0.36869395647E+02 -0.99398548890E+03  0.99467951762E+03  0.00000000000E+00 0.  1.
         21    1    1    2  502  501  0.99540051398E-01 -0.12775427822E+01 -0.20050797014E+01  0.23795731531E+01  0.00000000000E+00 0. -1.
<mgrwt>
<rscale>  1 0.65186730E+03</rscale>
<asrwt>0</asrwt>
<pdfrwt beam="1">  1        1 0.38783137E+00 0.65186730E+03</pdfrwt>
<pdfrwt beam="2">0</pdfrwt>
<totfact> 0.15147104E+00</totfact>
</mgrwt>
</event>
<event>
 6    1  0.1175152E-003  0.6556767E+03  0.7818608E-02  0.9796185E-01
          1   -1    0    0  502    0  0.00000000000E+00  0.00000000000E+00  0.10764311834E+03  0.10764311834E+03  0.00000000000E+00 0.  1.
         13   -1    0    0    0    0 -0.00000000000E+00 -0.00000000000E+00 -0.10000000000E+04  0.10000000000E+04  0.00000000000E+00 0.  1.
    9000005    2    1    2  501    0  0.10998854012E+00 -0.56662890541E-01 -0.89249596033E+03  0.11074569704E+04  0.65567666337E+03 0.  0.
         13    1    3    3    0    0  0.32052579921E+03 -0.58403449265E+02 -0.38383887683E+03  0.50346800713E+03  0.00000000000E+00 0.  1.
          1    1    3    3  501    0 -0.32041581067E+03  0.58346786374E+02 -0.50865708350E+03  0.60398896331E+03  0.00000000000E+00 0.  1.
         21    1    1    2  502  501 -0.10998854012E+00  0.56662890541E-01  0.13907866959E+00  0.18614789404E+00  0.00000000000E+00 0. -1.
<mgrwt>
<rscale>  1 0.65567668E+03</rscale>
<asrwt>0</asrwt>
<pdfrwt beam="1">  1        1 0.39143035E+00 0.65567668E+03</pdfrwt>
<pdfrwt beam="2">0</pdfrwt>
<totfact> 0.14590342E+00</totfact>
</mgrwt>
</event>
<event>
 6    1  0.1175152E-003  0.6276244E+03  0.7818608E-02  0.9849696E-01
          1   -1    0    0  502    0  0.00000000000E+00  0.00000000000E+00  0.99459369920E+02  0.99459369920E+02  0.00000000000E+00 0.  1.
         13   -1    0    0    0    0 -0.00000000000E+00 -0.00000000000E+00 -0.10000000000E+04  0.10000000000E+04  0.00000000000E+00 0.  1.
    9000005    2    1    2  501    0 -0.84030905060E-03 -0.20511073800E-01 -0.90152177464E+03  0.10984780106E+04  0.62762443329E+03 0.  0.
         13    1    3    3    0    0 -0.75033278067E+02  0.13500381538E+03 -0.92885314636E+03  0.94160723792E+03  0.00000000000E+00 0.  1.
          3    1    3    3  501    0  0.75032437758E+02 -0.13502432646E+03  0.27331371723E+02  0.15687077271E+03  0.00000000000E+00 0.  1.
         21    1    1    2  502  501  0.84030905060E-03  0.20511073800E-01  0.98114456066E+00  0.98135929159E+00  0.00000000000E+00 0. -1.
<mgrwt>
<rscale>  1 0.62762443E+03</rscale>
<asrwt>0</asrwt>
<pdfrwt beam="1">  1        1 0.36167120E+00 0.62762443E+03</pdfrwt>
<pdfrwt beam="2">0</pdfrwt>
<totfact> 0.19833774E+00</totfact>
</mgrwt>
</event>
<event>
 6    1  0.1175152E-003  0.6443712E+03  0.7818608E-02  0.9817399E-01
          1   -1    0    0  502    0  0.00000000000E+00  0.00000000000E+00  0.10524666394E+03  0.10524666394E+03  0.00000000000E+00 0.  1.
         13   -1    0    0    0    0 -0.00000000000E+00 -0.00000000000E+00 -0.10000000000E+04  0.10000000000E+04  0.00000000000E+00 0.  1.
    9000005    2    1    2  501    0 -0.14864094295E+01 -0.68944834174E+00 -0.89566460886E+03  0.11033717852E+04  0.64436908691E+03 0.  0.
         13    1    3    3    0    0 -0.20490513187E+03 -0.22559953089E+02 -0.23437578498E+02  0.20747140679E+03  0.00000000000E+00 0.  1.
          1    1    3    3  501    0  0.20341872244E+03  0.21870504747E+02 -0.87222703036E+03  0.89590037845E+03  0.00000000000E+00 0.  1.
         21    1    1    2  502  501  0.14864094295E+01  0.68944834174E+00  0.91127280364E+00  0.18748786976E+01  0.00000000000E+00 0. -1.
<mgrwt>
<rscale>  1 0.64437117E+03</rscale>
<asrwt>0</asrwt>
<pdfrwt beam="1">  1        1 0.38271595E+00 0.64437117E+03</pdfrwt>
<pdfrwt beam="2">0</pdfrwt>
<totfact> 0.15979410E+00</totfact>
</mgrwt>
</event>
<event>
 6    1  0.1175152E-003  0.6492114E+03  0.7818608E-02  0.9808260E-01
          1   -1    0    0  502    0  0.00000000000E+00  0.00000000000E+00  0.10536903031E+03  0.10536903031E+03  0.00000000000E+00 0.  1.
         13   -1    0    0    0    0 -0.00000000000E+00 -0.00000000000E+00 -0.10000000000E+04  0.10000000000E+04  0.00000000000E+00 0.  1.
    9000005    2    1    2  501    0 -0.14762587676E-03 -0.19611839832E-05 -0.89463111580E+03  0.11053688226E+04  0.64921136821E+03 0.  0.
         13    1    3    3    0    0 -0.29298196829E+03  0.84616741912E+02 -0.25794436119E+03  0.39941672501E+03  0.00000000000E+00 0.  1.
          1    1    3    3  501    0  0.29298182066E+03 -0.84616743873E+02 -0.63668675461E+03  0.70595209758E+03  0.00000000000E+00 0.  1.
         21    1    1    2  502  501  0.14762587677E-03  0.19611839821E-05  0.14611031304E-03  0.20771487503E-03  0.00000000000E+00 0.  1.
<mgrwt>
<rscale>  1 0.64921137E+03</rscale>
<asrwt>0</asrwt>
<pdfrwt beam="1">  1        1 0.38316092E+00 0.64921137E+03</pdfrwt>
<pdfrwt beam="2">0</pdfrwt>
<totfact> 0.15893016E+00</totfact>
</mgrwt>
</event>
<event>
 6    1  0.1175152E-003  0.6931389E+03  0.7818608E-02  0.9729038E-01
          1   -1    0    0  502    0  0.00000000000E+00  0.00000000000E+00  0.13526853104E+03  0.13526853104E+03  0.00000000000E+00 0.  1.
         13   -1    0    0    0    0 -0.00000000000E+00 -0.00000000000E+00 -0.10000000000E+04  0.10000000000E+04  0.00000000000E+00 0.  1.
    9000005    2    1    2  501    0  0.31118283194E+00  0.15611639358E+01 -0.87984280394E+03  0.11200735808E+04  0.69313702304E+03 0.  0.
         13    1    3    3    0    0  0.25199473811E+03  0.22493836585E+03 -0.57038916470E+03  0.66290452983E+03  0.00000000000E+00 0.  1.
          1    1    3    3  501    0 -0.25168355527E+03 -0.22337720191E+03 -0.30945363924E+03  0.45716905098E+03  0.00000000000E+00 0.  1.
         21    1    1    2  502  501 -0.31118283194E+00 -0.15611639358E+01  0.15111334986E+02  0.15194950235E+02  0.00000000000E+00 0. -1.
<mgrwt>
<rscale>  1 0.69313885E+03</rscale>
<asrwt>0</asrwt>
<pdfrwt beam="1">  1        1 0.49188660E+00 0.69313885E+03</pdfrwt>
<pdfrwt beam="2">0</pdfrwt>
<totfact> 0.50092295E-01</totfact>
</mgrwt>
</event>
<event>
 6    1  0.1175152E-003  0.6335574E+03  0.7818608E-02  0.9838131E-01
          1   -1    0    0  502    0  0.00000000000E+00  0.00000000000E+00  0.10096362634E+03  0.10096362634E+03  0.00000000000E+00 0.  1.
         13   -1    0    0    0    0 -0.00000000000E+00 -0.00000000000E+00 -0.10000000000E+04  0.10000000000E+04  0.00000000000E+00 0.  1.
    9000005    2    1    2  501    0 -0.10454413469E-01  0.32456145308E-01 -0.89965073138E+03  0.11003483231E+04  0.63355741055E+03 0.  0.
         13    1    3    3    0    0 -0.26454437385E+02 -0.70454880666E+01 -0.99794136598E+03  0.99831680648E+03  0.00000000000E+00 0.  1.
          1    1    3    3  501    0  0.26443982971E+02  0.70779442120E+01  0.98290634602E+02  0.10203151660E+03  0.00000000000E+00 0.  1.
         21    1    1    2  502  501  0.10454413469E-01 -0.32456145308E-01  0.61435772221E+00  0.61530326423E+00  0.00000000000E+00 0. -1.
<mgrwt>
<rscale>  1 0.63355741E+03</rscale>
<asrwt>0</asrwt>
<pdfrwt beam="1">  1        1 0.36714123E+00 0.63355741E+03</pdfrwt>
<pdfrwt beam="2">0</pdfrwt>
<totfact> 0.18748788E+00</totfact>
</mgrwt>
</event>
<event>
 6    1  0.1175152E-003  0.6627972E+03  0.7818608E-02  0.9783058E-01
          1   -1    0    0  502    0  0.00000000000E+00  0.00000000000E+00  0.11181991409E+03  0.11181991409E+03  0.00000000000E+00 0.  1.
         13   -1    0    0    0    0 -0.00000000000E+00 -0.00000000000E+00 -0.10000000000E+04  0.10000000000E+04  0.00000000000E+00 0.  1.
    9000005    2    1    2  501    0  0.18210133505E+01  0.10912459644E+01 -0.88952728323E+03  0.11093055856E+04  0.66279377458E+03 0.  0.
         13    1    3    3    0    0  0.14670236317E+03 -0.28087616787E+03 -0.60669238697E+03  0.68446231265E+03  0.00000000000E+00 0.  1.
          1    1    3    3  501    0 -0.14488134982E+03  0.28196741383E+03 -0.28283489626E+03  0.42484327290E+03  0.00000000000E+00 0.  1.
         21    1    1    2  502  501 -0.18210133505E+01 -0.10912459644E+01  0.13471973161E+01  0.25143285358E+01  0.00000000000E+00 0.  1.
<mgrwt>
<rscale>  1 0.66279717E+03</rscale>
<asrwt>0</asrwt>
<pdfrwt beam="1">  1        1 0.40661873E+00 0.66279717E+03</pdfrwt>
<pdfrwt beam="2">0</pdfrwt>
<totfact> 0.12468011E+00</totfact>
</mgrwt>
</event>
<event>
 6    1  0.1175152E-003  0.6226792E+03  0.7818608E-02  0.9859440E-01
          1   -1    0    0  502    0  0.00000000000E+00  0.00000000000E+00  0.98549042481E+02  0.98549042481E+02  0.00000000000E+00 0.  1.
         13   -1    0    0    0    0 -0.00000000000E+00 -0.00000000000E+00 -0.10000000000E+04  0.10000000000E+04  0.00000000000E+00 0.  1.
    9000005    2    1    2  501    0 -0.87691319250E-01 -0.88536311418E-01 -0.90306503142E+03  0.10969301654E+04  0.62267914794E+03 0.  0.
         13    1    3    3    0    0  0.25951695997E+03 -0.11957908293E+03 -0.23380243592E+03  0.36920426410E+03  0.00000000000E+00 0.  1.
          1    1    3    3  501    0 -0.25960465129E+03  0.11949054662E+03 -0.66926259550E+03  0.72772590131E+03  0.00000000000E+00 0.  1.
         21    1    1    2  502  501  0.87691319250E-01  0.88536311418E-01  0.16140738962E+01  0.16188770764E+01  0.00000000000E+00 0.  1.
<mgrwt>
<rscale>  1 0.62267916E+03</rscale>
<asrwt>0</asrwt>
<pdfrwt beam="1">  1        1 0.35836091E+00 0.62267916E+03</pdfrwt>
<pdfrwt beam="2">0</pdfrwt>
<totfact> 0.20524396E+00</totfact>
</mgrwt>
</event>
<event>
 6    1  0.1175152E-003  0.6292511E+03  0.7818608E-02  0.9846511E-01
          1   -1    0    0  502    0  0.00000000000E+00  0.00000000000E+00  0.99009067636E+02  0.99009067636E+02  0.00000000000E+00 0.  1.
         13   -1    0    0    0    0 -0.00000000000E+00 -0.00000000000E+00 -0.10000000000E+04  0.10000000000E+04  0.00000000000E+00 0.  1.
    9000005    2    1    2  501    0  0.18764546581E-03 -0.45225469084E-02 -0.90101047796E+03  0.10989890048E+04  0.62925110343E+03 0.  0.
         13    1    3    3    0    0 -0.31026754942E+03 -0.46750307512E+02 -0.41000149130E+03  0.51628748420E+03  0.00000000000E+00 0.  1.
          3    1    3    3  501    0  0.31026773707E+03  0.46745784965E+02 -0.49100898666E+03  0.58270152056E+03  0.00000000000E+00 0.  1.
         21    1    1    2  502  501 -0.18764546582E-03  0.45225469084E-02  0.19545597838E-01  0.20062877067E-01  0.00000000000E+00 0. -1.
<mgrwt>
<rscale>  1 0.62925110E+03</rscale>
<asrwt>0</asrwt>
<pdfrwt beam="1">  1        1 0.36003373E+00 0.62925110E+03</pdfrwt>
<pdfrwt beam="2">0</pdfrwt>
<totfact> 0.20157695E+00</totfact>
</mgrwt>
</event>
<event>
 6    1  0.1175152E-003  0.6598535E+03  0.7818608E-02  0.9788463E-01
          1   -1    0    0  502    0  0.00000000000E+00  0.00000000000E+00  0.10918238533E+03  0.10918238533E+03  0.00000000000E+00 0.  1.
         13   -1    0    0    0    0 -0.00000000000E+00 -0.00000000000E+00 -0.10000000000E+04  0.10000000000E+04  0.00000000000E+00 0.  1.
    9000005    2    1    2  501    0 -0.60872486392E-01 -0.31784076215E-01 -0.89114437905E+03  0.11088484832E+04  0.65985350617E+03 0.  0.
         13    1    3    3    0    0  0.55373006138E+02  0.27991664574E+03 -0.72381142943E+03  0.77802473209E+03  0.00000000000E+00 0.  1.
          3    1    3    3  501    0 -0.55433878624E+02 -0.27994842981E+03 -0.16733294963E+03  0.33082375109E+03  0.00000000000E+00 0.  1.
         21    1    1    2  502  501  0.60872486392E-01  0.31784076215E-01  0.32676437952E+00  0.33390215157E+00  0.00000000000E+00 0. -1.
<mgrwt>
<rscale>  1 0.65985351E+03</rscale>
<asrwt>0</asrwt>
<pdfrwt beam="1">  1        1 0.39702769E+00 0.65985351E+03</pdfrwt>
<pdfrwt beam="2">0</pdfrwt>
<totfact> 0.13767282E+00</totfact>
</mgrwt>
</event>
<event>
 6    1  0.1175152E-003  0.6450225E+03  0.7818608E-02  0.9816164E-01
          1   -1    0    0  502    0  0.00000000000E+00  0.00000000000E+00  0.10401352587E+03  0.10401352587E+03  0.00000000000E+00 0.  1.
         13   -1    0    0    0    0 -0.00000000000E+00 -0.00000000000E+00 -0.10000000000E+04  0.10000000000E+04  0.00000000000E+00 0.  1.
    9000005    2    1    2  501    0  0.98395372561E-06  0.26421941840E-04 -0.89598647553E+03  0.11040134994E+04  0.64502251319E+03 0.  0.
         13    1    3    3    0    0  0.19774641446E+03  0.23362446830E+03 -0.27403751767E+03  0.41082915879E+03  0.00000000000E+00 0.  1.
          1    1    3    3  501    0 -0.19774641347E+03 -0.23362444188E+03 -0.62194895786E+03  0.69318434061E+03  0.00000000000E+00 0.  1.
         21    1    1    2  502  501 -0.98395373344E-06 -0.26421941837E-04  0.14006785205E-05  0.26477331355E-04  0.00000000000E+00 0. -1.
<mgrwt>
<rscale>  1 0.64502251E+03</rscale>
<asrwt>0</asrwt>
<pdfrwt beam="1">  1        1 0.37823180E+00 0.64502251E+03</pdfrwt>
<pdfrwt beam="2">0</pdfrwt>
<totfact> 0.16722333E+00</totfact>
</mgrwt>
</event>
<event>
 6    1  0.1175152E-003  0.5878675E+03  0.7818608E-02  0.9930902E-01
          1   -1    0    0  502    0  0.00000000000E+00  0.00000000000E+00  0.86397616349E+02  0.86397616349E+02  0.00000000000E+00 0.  1.
         13   -1    0    0    0    0 -0.00000000000E+00 -0.00000000000E+00 -0.10000000000E+04  0.10000000000E+04  0.00000000000E+00 0.  1.
    9000005    2    1    2  501    0  0.39201095433E-03 -0.31066986978E-03 -0.91360283152E+03  0.10863969450E+04  0.58786749208E+03 0.  0.
         13    1    3    3    0    0  0.21919695266E+03 -0.17518337691E+03 -0.61855108525E+03  0.67922158731E+03  0.00000000000E+00 0.  1.
          1    1    3    3  501    0 -0.21919656065E+03  0.17518306624E+03 -0.29505174626E+03  0.40717535764E+03  0.00000000000E+00 0.  1.
         21    1    1    2  502  501 -0.39201095433E-03  0.31066986980E-03  0.44786500394E-03  0.67139512812E-03  0.00000000000E+00 0.  1.
<mgrwt>
<rscale>  1 0.58786749E+03</rscale>
<asrwt>0</asrwt>
<pdfrwt beam="1">  1        1 0.31417381E+00 0.58786749E+03</pdfrwt>
<pdfrwt beam="2">0</pdfrwt>
<totfact> 0.32119182E+00</totfact>
</mgrwt>
</event>
<event>
 6    1  0.1175152E-003  0.6469384E+03  0.7818608E-02  0.9812541E-01
          1   -1    0    0  502    0  0.00000000000E+00  0.00000000000E+00  0.10463879025E+03  0.10463879025E+03  0.00000000000E+00 0.  1.
         13   -1    0    0    0    0 -0.00000000000E+00 -0.00000000000E+00 -0.10000000000E+04  0.10000000000E+04  0.00000000000E+00 0.  1.
    9000005    2    1    2  501    0 -0.12744602125E-03 -0.35930778311E-03 -0.89536767564E+03  0.11046323131E+04  0.64693838396E+03 0.  0.
         13    1    3    3    0    0  0.28577303627E+02  0.93313806657E+02 -0.97426295290E+03  0.97913861643E+03  0.00000000000E+00 0.  1.
          1    1    3    3  501    0 -0.28577431073E+02 -0.93314165964E+02  0.78895277263E+02  0.12549369670E+03  0.00000000000E+00 0.  1.
         21    1    1    2  502  501  0.12744602126E-03  0.35930778312E-03  0.64658850412E-02  0.64771146306E-02  0.00000000000E+00 0. -1.
<mgrwt>
<rscale>  1 0.64693838E+03</rscale>
<asrwt>0</asrwt>
<pdfrwt beam="1">  1        1 0.38050549E+00 0.64693838E+03</pdfrwt>
<pdfrwt beam="2">0</pdfrwt>
<totfact> 0.16334845E+00</totfact>
</mgrwt>
</event>
<event>
 6    1  0.1175152E-003  0.6850658E+03  0.7818608E-02  0.9743118E-01
          1   -1    0    0  502    0  0.00000000000E+00  0.00000000000E+00  0.11783301918E+03  0.11783301918E+03  0.00000000000E+00 0.  1.
         13   -1    0    0    0    0 -0.00000000000E+00 -0.00000000000E+00 -0.10000000000E+04  0.10000000000E+04  0.00000000000E+00 0.  1.
    9000005    2    1    2  501    0 -0.43450459896E-01 -0.66278543348E-01 -0.88266774066E+03  0.11173260269E+04  0.68506576590E+03 0.  0.
         13    1    3    3    0    0  0.74347858940E+02  0.16561672814E+03  0.32401103070E+02  0.18440806992E+03  0.00000000000E+00 0.  1.
          1    1    3    3  501    0 -0.74391309400E+02 -0.16568300669E+03 -0.91506884374E+03  0.93291795695E+03  0.00000000000E+00 0.  1.
         21    1    1    2  502  501  0.43450459896E-01  0.66278543348E-01  0.50075984065E+00  0.50699231334E+00  0.00000000000E+00 0.  1.
<mgrwt>
<rscale>  1 0.68506577E+03</rscale>
<asrwt>0</asrwt>
<pdfrwt beam="1">  1        1 0.42848461E+00 0.68506577E+03</pdfrwt>
<pdfrwt beam="2">0</pdfrwt>
<totfact> 0.98946017E-01</totfact>
</mgrwt>
</event>
<event>
 6    1  0.1175152E-003  0.6364406E+03  0.7818608E-02  0.9832560E-01
          1   -1    0    0  502    0  0.00000000000E+00  0.00000000000E+00  0.10126692662E+03  0.10126692662E+03  0.00000000000E+00 0.  1.
         13   -1    0    0    0    0 -0.00000000000E+00 -0.00000000000E+00 -0.10000000000E+04  0.10000000000E+04  0.00000000000E+00 0.  1.
    9000005    2    1    2  501    0  0.17142475456E-02  0.13394661329E-02 -0.89873536297E+03  0.11012637683E+04  0.63644059794E+03 0.  0.
         13    1    3    3    0    0  0.80352930272E+02  0.27780259228E+03 -0.21959191165E+03  0.36311359290E+03  0.00000000000E+00 0.  1.
          3    1    3    3  501    0 -0.80351216024E+02 -0.27780125282E+03 -0.67914345131E+03  0.73815017540E+03  0.00000000000E+00 0.  1.
         21    1    1    2  502  501 -0.17142475456E-02 -0.13394661329E-02  0.22895847229E-02  0.31583242981E-02  0.00000000000E+00 0.  1.
<mgrwt>
<rscale>  1 0.63644060E+03</rscale>
<asrwt>0</asrwt>
<pdfrwt beam="1">  1        1 0.36824415E+00 0.63644060E+03</pdfrwt>
<pdfrwt beam="2">0</pdfrwt>
<totfact> 0.18531330E+00</totfact>
</mgrwt>
</event>
<event>
 6    1  0.1175152E-003  0.6111627E+03  0.7818608E-02  0.9882514E-01
          1   -1    0    0  502    0  0.00000000000E+00  0.00000000000E+00  0.93380083233E+02  0.93380083233E+02  0.00000000000E+00 0.  1.
         13   -1    0    0    0    0 -0.00000000000E+00 -0.00000000000E+00 -0.10000000000E+04  0.10000000000E+04  0.00000000000E+00 0.  1.
    9000005    2    1    2  501    0 -0.14447295462E-03 -0.81819050251E-04 -0.90661997126E+03  0.10933799085E+04  0.61116270501E+03 0.  0.
         13    1    3    3    0    0  0.30063781886E+03  0.54720047388E+02 -0.45615737035E+03  0.54905093410E+03  0.00000000000E+00 0.  1.
          3    1    3    3  501    0 -0.30063796333E+03 -0.54720129207E+02 -0.45046260091E+03  0.54432897439E+03  0.00000000000E+00 0.  1.
         21    1    1    2  502  501  0.14447295466E-03  0.81819050251E-04  0.54492192178E-04  0.17474607469E-03  0.00000000000E+00 0. -1.
<mgrwt>
<rscale>  1 0.61116271E+03</rscale>
<asrwt>0</asrwt>
<pdfrwt beam="1">  1        1 0.33956466E+00 0.61116271E+03</pdfrwt>
<pdfrwt beam="2">0</pdfrwt>
<totfact> 0.24833482E+00</totfact>
</mgrwt>
</event>
<event>
 6    1  0.2923232E-003  0.6902558E+03  0.7818608E-02  0.9734043E-01
          1   -1    0    0  502    0  0.00000000000E+00  0.00000000000E+00  0.11911327285E+03  0.11911327285E+03  0.00000000000E+00 0.  1.
         13   -1    0    0    0    0 -0.00000000000E+00 -0.00000000000E+00 -0.10000000000E+04  0.10000000000E+04  0.00000000000E+00 0.  1.
    9000005    2    1    2  501    0 -0.18638148958E-04  0.61632402435E-05 -0.88088672717E+03  0.11191132532E+04  0.69025578407E+03 0.  0.
         13    1    3    3    0    0 -0.27379721102E+03  0.10843038331E+03 -0.73223817488E+03  0.78923685009E+03  0.00000000000E+00 0.  1.
          3    1    3    3  501    0  0.27379719239E+03 -0.10843037715E+03 -0.14864855229E+03  0.32987640313E+03  0.00000000000E+00 0.  1.
         21    1    1    2  502  501  0.18638148948E-04 -0.61632402410E-05  0.18937752353E-07  0.19630753554E-04  0.00000000000E+00 0.  1.
<mgrwt>
<rscale>  1 0.69025578E+03</rscale>
<asrwt>0</asrwt>
<pdfrwt beam="1">  1        1 0.43314009E+00 0.69025578E+03</pdfrwt>
<pdfrwt beam="2">0</pdfrwt>
<totfact> 0.94144097E-01</totfact>
</mgrwt>
</event>
<event>
 6    1  0.1175152E-003  0.6474924E+03  0.7818608E-02  0.9811496E-01
          1   -1    0    0  502    0  0.00000000000E+00  0.00000000000E+00  0.10483133464E+03  0.10483133464E+03  0.00000000000E+00 0.  1.
         13   -1    0    0    0    0 -0.00000000000E+00 -0.00000000000E+00 -0.10000000000E+04  0.10000000000E+04  0.00000000000E+00 0.  1.
    9000005    2    1    2  501    0 -0.31753287006E-01 -0.35515836118E-02 -0.89517298970E+03  0.11047990920E+04  0.64749235615E+03 0.  0.
         13    1    3    3    0    0 -0.19697767973E+03  0.21622942396E+03 -0.21079040109E+03  0.36053843525E+03  0.00000000000E+00 0.  1.
          1    1    3    3  501    0  0.19694592645E+03 -0.21623297555E+03 -0.68438258861E+03  0.74426065680E+03  0.00000000000E+00 0.  1.
         21    1    1    2  502  501  0.31753287006E-01  0.35515836118E-02  0.43243430614E-02  0.32242594883E-01  0.00000000000E+00 0. -1.
<mgrwt>
<rscale>  1 0.64749236E+03</rscale>
<asrwt>0</asrwt>
<pdfrwt beam="1">  1        1 0.38120566E+00 0.64749236E+03</pdfrwt>
<pdfrwt beam="2">0</pdfrwt>
<totfact> 0.16217361E+00</totfact>
</mgrwt>
</event>
<event>
 6    1  0.1175152E-003  0.6509712E+03  0.7818608E-02  0.9804959E-01
          1   -1    0    0  502    0  0.00000000000E+00  0.00000000000E+00  0.11655081091E+03  0.11655081091E+03  0.00000000000E+00 0.  1.
         13   -1    0    0    0    0 -0.00000000000E+00 -0.00000000000E+00 -0.10000000000E+04  0.10000000000E+04  0.00000000000E+00 0.  1.
    9000005    2    1    2  501    0  0.16114981187E+00  0.40952661595E+00 -0.89405409189E+03  0.11059367804E+04  0.65097100491E+03 0.  0.
         13    1    3    3    0    0 -0.24678992466E+03 -0.21146807566E+03 -0.42331685631E+03  0.53368640115E+03  0.00000000000E+00 0.  1.
          3    1    3    3  501    0  0.24695107448E+03  0.21187760228E+03 -0.47073723558E+03  0.57225037920E+03  0.00000000000E+00 0.  1.
         21    1    1    2  502  501 -0.16114981187E+00 -0.40952661595E+00  0.10604902794E+02  0.10614030553E+02  0.00000000000E+00 0.  1.
<mgrwt>
<rscale>  1 0.65097115E+03</rscale>
<asrwt>0</asrwt>
<pdfrwt beam="1">  1        1 0.42382202E+00 0.65097115E+03</pdfrwt>
<pdfrwt beam="2">0</pdfrwt>
<totfact> 0.10457171E+00</totfact>
</mgrwt>
</event>
<event>
 6    1  0.1175152E-003  0.6486439E+03  0.7818608E-02  0.9809327E-01
          1   -1    0    0  502    0  0.00000000000E+00  0.00000000000E+00  0.10520682752E+03  0.10520682752E+03  0.00000000000E+00 0.  1.
         13   -1    0    0    0    0 -0.00000000000E+00 -0.00000000000E+00 -0.10000000000E+04  0.10000000000E+04  0.00000000000E+00 0.  1.
    9000005    2    1    2  501    0 -0.47659058363E-02 -0.81975903796E-02 -0.89481414144E+03  0.11051838142E+04  0.64864390493E+03 0.  0.
         13    1    3    3    0    0 -0.21368137168E+03 -0.77297059368E+02 -0.53121022912E+02  0.23335896611E+03  0.00000000000E+00 0.  1.
          1    1    3    3  501    0  0.21367660577E+03  0.77288861777E+02 -0.84169311853E+03  0.87182484811E+03  0.00000000000E+00 0.  1.
         21    1    1    2  502  501  0.47659058363E-02  0.81975903796E-02  0.20968963504E-01  0.23013295655E-01  0.00000000000E+00 0.  1.
<mgrwt>
<rscale>  1 0.64864391E+03</rscale>
<asrwt>0</asrwt>
<pdfrwt beam="1">  1        1 0.38257109E+00 0.64864391E+03</pdfrwt>
<pdfrwt beam="2">0</pdfrwt>
<totfact> 0.15990347E+00</totfact>
</mgrwt>
</event>
<event>
 6    1  0.1175152E-003  0.6251863E+03  0.7818608E-02  0.9854488E-01
          3   -1    0    0  502    0  0.00000000000E+00  0.00000000000E+00  0.13601115300E+03  0.13601115300E+03  0.00000000000E+00 0.  1.
         13   -1    0    0    0    0 -0.00000000000E+00 -0.00000000000E+00 -0.10000000000E+04  0.10000000000E+04  0.00000000000E+00 0.  1.
    9000005    2    1    2  501    0  0.81368464525E+02 -0.75748473068E+02 -0.70894719564E+03  0.94523229713E+03  0.61522297677E+03 0.  0.
         13    1    3    3    0    0  0.16903992432E+03 -0.23143436863E+03 -0.71095570814E+03  0.76654705135E+03  0.00000000000E+00 0.  1.
          3    1    3    3  501    0 -0.87671459794E+02  0.15568589556E+03  0.20085124928E+01  0.17868524579E+03  0.00000000000E+00 0.  1.
         21    1    1    2  502  501 -0.81368464525E+02  0.75748473068E+02 -0.15504165136E+03  0.19077885587E+03  0.00000000000E+00 0. -1.
<mgrwt>
<rscale>  1 0.62518635E+03</rscale>
<asrwt>0</asrwt>
<pdfrwt beam="1">  1        3 0.49458705E+00 0.62518635E+03</pdfrwt>
<pdfrwt beam="2">0</pdfrwt>
<totfact> 0.19718517E-02</totfact>
</mgrwt>
</event>
<event>
 6    1  0.1175152E-003  0.6558728E+03  0.7818608E-02  0.9795821E-01
          1   -1    0    0  502    0  0.00000000000E+00  0.00000000000E+00  0.10820755014E+03  0.10820755014E+03  0.00000000000E+00 0.  1.
         13   -1    0    0    0    0 -0.00000000000E+00 -0.00000000000E+00 -0.10000000000E+04  0.10000000000E+04  0.00000000000E+00 0.  1.
    9000005    2    1    2  501    0  0.64264937118E-02  0.12702231907E-01 -0.89245763067E+03  0.11075422170E+04  0.65587280761E+03 0.  0.
         13    1    3    3    0    0 -0.11086054891E+03  0.14442263543E+03  0.14358158130E+02  0.18263109165E+03  0.00000000000E+00 0.  1.
          3    1    3    3  501    0  0.11086697541E+03 -0.14440993320E+03 -0.90681578880E+03  0.92491112538E+03  0.00000000000E+00 0.  1.
         21    1    1    2  502  501 -0.64264937118E-02 -0.12702231907E-01  0.66518080780E+00  0.66533311475E+00  0.00000000000E+00 0. -1.
<mgrwt>
<rscale>  1 0.65587281E+03</rscale>
<asrwt>0</asrwt>
<pdfrwt beam="1">  1        1 0.39348283E+00 0.65587281E+03</pdfrwt>
<pdfrwt beam="2">0</pdfrwt>
<totfact> 0.14286822E+00</totfact>
</mgrwt>
</event>
<event>
 6    1  0.1175152E-003  0.6404778E+03  0.7818608E-02  0.9824813E-01
          1   -1    0    0  502    0  0.00000000000E+00  0.00000000000E+00  0.10255785329E+03  0.10255785329E+03  0.00000000000E+00 0.  1.
         13   -1    0    0    0    0 -0.00000000000E+00 -0.00000000000E+00 -0.10000000000E+04  0.10000000000E+04  0.00000000000E+00 0.  1.
    9000005    2    1    2  501    0 -0.17372270411E-02  0.11334013311E-03 -0.89744688996E+03  0.11025528006E+04  0.64047775754E+03 0.  0.
         13    1    3    3    0    0 -0.79737453109E+02 -0.26867698860E+03 -0.18199465616E+03  0.33416678545E+03  0.00000000000E+00 0.  1.
          3    1    3    3  501    0  0.79735715882E+02  0.26867710194E+03 -0.71545223380E+03  0.76838601519E+03  0.00000000000E+00 0.  1.
         21    1    1    2  502  501  0.17372270412E-02 -0.11334013312E-03  0.47432459087E-02  0.50526414407E-02  0.00000000000E+00 0.  1.
<mgrwt>
<rscale>  1 0.64047776E+03</rscale>
<asrwt>0</asrwt>
<pdfrwt beam="1">  1        1 0.37293843E+00 0.64047776E+03</pdfrwt>
<pdfrwt beam="2">0</pdfrwt>
<totfact> 0.17658954E+00</totfact>
</mgrwt>
</event>
<event>
 6    1  0.1175152E-003  0.5662508E+03  0.7818608E-02  0.9978010E-01
          1   -1    0    0  502    0  0.00000000000E+00  0.00000000000E+00  0.80160478978E+02  0.80160478978E+02  0.00000000000E+00 0.  1.
         13   -1    0    0    0    0 -0.00000000000E+00 -0.00000000000E+00 -0.10000000000E+04  0.10000000000E+04  0.00000000000E+00 0.  1.
    9000005    2    1    2  501    0 -0.15800613662E-03  0.35125355737E-04 -0.91983999923E+03  0.10801599741E+04  0.56625077969E+03 0.  0.
         13    1    3    3    0    0 -0.16084835670E+03 -0.17431477584E+03 -0.16500432352E+03  0.28893643195E+03  0.00000000000E+00 0.  1.
          1    1    3    3  501    0  0.16084819870E+03  0.17431481096E+03 -0.75483567572E+03  0.79122354217E+03  0.00000000000E+00 0.  1.
         21    1    1    2  502  501  0.15800613661E-03 -0.35125355714E-04  0.47820946684E-03  0.50486040050E-03  0.00000000000E+00 0. -1.
<mgrwt>
<rscale>  1 0.56625078E+03</rscale>
<asrwt>0</asrwt>
<pdfrwt beam="1">  1        1 0.29149327E+00 0.56625078E+03</pdfrwt>
<pdfrwt beam="2">0</pdfrwt>
<totfact> 0.40391538E+00</totfact>
</mgrwt>
</event>
<event>
 6    1  0.1175152E-003  0.6504164E+03  0.7818608E-02  0.9805998E-01
          1   -1    0    0  502    0  0.00000000000E+00  0.00000000000E+00  0.10603802798E+03  0.10603802798E+03  0.00000000000E+00 0.  1.
         13   -1    0    0    0    0 -0.00000000000E+00 -0.00000000000E+00 -0.10000000000E+04  0.10000000000E+04  0.00000000000E+00 0.  1.
    9000005    2    1    2  501    0 -0.39174859429E+00  0.30544297356E-01 -0.89407676630E+03  0.11056286655E+04  0.65041627249E+03 0.  0.
         13    1    3    3    0    0  0.85844306071E+01  0.30378598348E+03 -0.64387425816E+03  0.71199275033E+03  0.00000000000E+00 0.  1.
          1    1    3    3  501    0 -0.89761792014E+01 -0.30375543918E+03 -0.25020250814E+03  0.39363591516E+03  0.00000000000E+00 0.  1.
         21    1    1    2  502  501  0.39174859429E+00 -0.30544297356E-01  0.11479428686E+00  0.40936248427E+00  0.00000000000E+00 0. -1.
<mgrwt>
<rscale>  1 0.65041639E+03</rscale>
<asrwt>0</asrwt>
<pdfrwt beam="1">  1        1 0.38559364E+00 0.65041639E+03</pdfrwt>
<pdfrwt beam="2">0</pdfrwt>
<totfact> 0.15500748E+00</totfact>
</mgrwt>
</event>
<event>
 6    1  0.1175152E-003  0.6192866E+03  0.7818608E-02  0.9866181E-01
          1   -1    0    0  502    0  0.00000000000E+00  0.00000000000E+00  0.95890388355E+02  0.95890388355E+02  0.00000000000E+00 0.  1.
         13   -1    0    0    0    0 -0.00000000000E+00 -0.00000000000E+00 -0.10000000000E+04  0.10000000000E+04  0.00000000000E+00 0.  1.
    9000005    2    1    2  501    0  0.13084733871E-02 -0.23765081866E-03 -0.90412099709E+03  0.10958789255E+04  0.61928655885E+03 0.  0.
         13    1    3    3    0    0 -0.23315869456E+03 -0.15104789480E+03 -0.69404829483E+03  0.74758376047E+03  0.00000000000E+00 0.  1.
          3    1    3    3  501    0  0.23316000303E+03  0.15104765715E+03 -0.21007270227E+03  0.34829516503E+03  0.00000000000E+00 0.  1.
         21    1    1    2  502  501 -0.13084733871E-02  0.23765081868E-03  0.11385448637E-01  0.11462853972E-01  0.00000000000E+00 0.  1.
<mgrwt>
<rscale>  1 0.61928656E+03</rscale>
<asrwt>0</asrwt>
<pdfrwt beam="1">  1        1 0.34869306E+00 0.61928656E+03</pdfrwt>
<pdfrwt beam="2">0</pdfrwt>
<totfact> 0.22631395E+00</totfact>
</mgrwt>
</event>
<event>
 6    1  0.1175152E-003  0.6654708E+03  0.7818608E-02  0.9778175E-01
          1   -1    0    0  502    0  0.00000000000E+00  0.00000000000E+00  0.12586618664E+03  0.12586618664E+03  0.00000000000E+00 0.  1.
         13   -1    0    0    0    0 -0.00000000000E+00 -0.00000000000E+00 -0.10000000000E+04  0.10000000000E+04  0.00000000000E+00 0.  1.
    9000005    2    1    2  501    0  0.16615761571E+01  0.39685799016E+01 -0.88894718413E+03  0.11104406748E+04  0.66545689990E+03 0.  0.
         13    1    3    3    0    0  0.45690166696E+02  0.32139696069E+03 -0.31083274563E+03  0.44944476127E+03  0.00000000000E+00 0.  1.
          3    1    3    3  501    0 -0.44028590539E+02 -0.31742838079E+03 -0.57811443850E+03  0.66099591354E+03  0.00000000000E+00 0.  1.
         21    1    1    2  502  501 -0.16615761571E+01 -0.39685799016E+01  0.14813370767E+02  0.15425511831E+02  0.00000000000E+00 0. -1.
<mgrwt>
<rscale>  1 0.66547081E+03</rscale>
<asrwt>0</asrwt>
<pdfrwt beam="1">  1        1 0.45769619E+00 0.66547081E+03</pdfrwt>
<pdfrwt beam="2">0</pdfrwt>
<totfact> 0.72967534E-01</totfact>
</mgrwt>
</event>
<event>
 6    1  0.1175152E-003  0.6070706E+03  0.7818608E-02  0.9890844E-01
          1   -1    0    0  502    0  0.00000000000E+00  0.00000000000E+00  0.92945447150E+02  0.92945447150E+02  0.00000000000E+00 0.  1.
         13   -1    0    0    0    0 -0.00000000000E+00 -0.00000000000E+00 -0.10000000000E+04  0.10000000000E+04  0.00000000000E+00 0.  1.
    9000005    2    1    2  501    0  0.42319853292E+00 -0.12660940230E+00 -0.90780023790E+03  0.10920787447E+04  0.60707043871E+03 0.  0.
         13    1    3    3    0    0 -0.27920067945E+03  0.99830620570E+02 -0.33861962725E+03  0.45009157309E+03  0.00000000000E+00 0.  1.
          3    1    3    3  501    0  0.27962387799E+03 -0.99957229972E+02 -0.56918061066E+03  0.64198717161E+03  0.00000000000E+00 0.  1.
         21    1    1    2  502  501 -0.42319853292E+00  0.12660940230E+00  0.74568505317E+00  0.86670245041E+00  0.00000000000E+00 0.  1.
<mgrwt>
<rscale>  1 0.60707060E+03</rscale>
<asrwt>0</asrwt>
<pdfrwt beam="1">  1        1 0.33798416E+00 0.60707060E+03</pdfrwt>
<pdfrwt beam="2">0</pdfrwt>
<totfact> 0.25247281E+00</totfact>
</mgrwt>
</event>
<event>
 6    1  0.1175152E-003  0.6225356E+03  0.7818608E-02  0.9859724E-01
          1   -1    0    0  502    0  0.00000000000E+00  0.00000000000E+00  0.10241364266E+03  0.10241364266E+03  0.00000000000E+00 0.  1.
         13   -1    0    0    0    0 -0.00000000000E+00 -0.00000000000E+00 -0.10000000000E+04  0.10000000000E+04  0.00000000000E+00 0.  1.
    9000005    2    1    2  501    0 -0.23202793292E+00 -0.84637460189E+00 -0.90307411809E+03  0.10968561518E+04  0.62253496668E+03 0.  0.
         13    1    3    3    0    0  0.19479506825E+03 -0.21052011574E+03 -0.66587686002E+03  0.72502126207E+03  0.00000000000E+00 0.  1.
          1    1    3    3  501    0 -0.19502709618E+03  0.20967374114E+03 -0.23719725807E+03  0.37183488971E+03  0.00000000000E+00 0.  1.
         21    1    1    2  502  501  0.23202793292E+00  0.84637460189E+00  0.54877607449E+01  0.55574908836E+01  0.00000000000E+00 0. -1.
<mgrwt>
<rscale>  1 0.62253559E+03</rscale>
<asrwt>0</asrwt>
<pdfrwt beam="1">  1        1 0.37241403E+00 0.62253559E+03</pdfrwt>
<pdfrwt beam="2">0</pdfrwt>
<totfact> 0.17811892E+00</totfact>
</mgrwt>
</event>
<event>
 6    1  0.1175152E-003  0.6440278E+03  0.7818608E-02  0.9818051E-01
          1   -1    0    0  502    0  0.00000000000E+00  0.00000000000E+00  0.10380567632E+03  0.10380567632E+03  0.00000000000E+00 0.  1.
         13   -1    0    0    0    0 -0.00000000000E+00 -0.00000000000E+00 -0.10000000000E+04  0.10000000000E+04  0.00000000000E+00 0.  1.
    9000005    2    1    2  501    0 -0.41496663486E-01 -0.33119210456E-01 -0.89630011449E+03  0.11036873101E+04  0.64402777931E+03 0.  0.
         13    1    3    3    0    0  0.11153323855E+03  0.17433602783E+03 -0.25389732797E+02  0.20851223569E+03  0.00000000000E+00 0.  1.
          1    1    3    3  501    0 -0.11157473522E+03 -0.17436914704E+03 -0.87091038170E+03  0.89517507445E+03  0.00000000000E+00 0.  1.
         21    1    1    2  502  501  0.41496663486E-01  0.33119210456E-01  0.10579081688E+00  0.11836617810E+00  0.00000000000E+00 0. -1.
<mgrwt>
<rscale>  1 0.64402778E+03</rscale>
<asrwt>0</asrwt>
<pdfrwt beam="1">  1        1 0.37747598E+00 0.64402778E+03</pdfrwt>
<pdfrwt beam="2">0</pdfrwt>
<totfact> 0.16854176E+00</totfact>
</mgrwt>
</event>
<event>
 6    1  0.1175152E-003  0.5922512E+03  0.7818608E-02  0.9921614E-01
          1   -1    0    0  502    0  0.00000000000E+00  0.00000000000E+00  0.87690808507E+02  0.87690808507E+02  0.00000000000E+00 0.  1.
         13   -1    0    0    0    0 -0.00000000000E+00 -0.00000000000E+00 -0.10000000000E+04  0.10000000000E+04  0.00000000000E+00 0.  1.
    9000005    2    1    2  501    0  0.49882097574E-03 -0.28135605568E-03 -0.91230941006E+03  0.10876901955E+04  0.59225121507E+03 0.  0.
         13    1    3    3    0    0 -0.26923300259E+03  0.12326591839E+03 -0.45055053411E+03  0.53914439634E+03  0.00000000000E+00 0.  1.
          3    1    3    3  501    0  0.26923350141E+03 -0.12326619974E+03 -0.46175887594E+03  0.54854579918E+03  0.00000000000E+00 0.  1.
         21    1    1    2  502  501 -0.49882097572E-03  0.28135605568E-03  0.21856406462E-03  0.61298763954E-03  0.00000000000E+00 0. -1.
<mgrwt>
<rscale>  1 0.59225122E+03</rscale>
<asrwt>0</asrwt>
<pdfrwt beam="1">  1        1 0.31887634E+00 0.59225122E+03</pdfrwt>
<pdfrwt beam="2">0</pdfrwt>
<totfact> 0.30626980E+00</totfact>
</mgrwt>
</event>
<event>
 6    1  0.1175152E-003  0.6433333E+03  0.7818608E-02  0.9819370E-01
          1   -1    0    0  502    0  0.00000000000E+00  0.00000000000E+00  0.10587015552E+03  0.10587015552E+03  0.00000000000E+00 0.  1.
         13   -1    0    0    0    0 -0.00000000000E+00 -0.00000000000E+00 -0.10000000000E+04  0.10000000000E+04  0.00000000000E+00 0.  1.
    9000005    2    1    2  501    0 -0.53830224815E-01  0.29763160680E-01 -0.89653013888E+03  0.11034690731E+04  0.64333327412E+03 0.  0.
         13    1    3    3    0    0 -0.14420921463E+03 -0.22562792715E+03 -0.75397538058E+03  0.80011445032E+03  0.00000000000E+00 0.  1.
          3    1    3    3  501    0  0.14415538441E+03  0.22565769031E+03 -0.14255475830E+03  0.30335462278E+03  0.00000000000E+00 0.  1.
         21    1    1    2  502  501  0.53830224815E-01 -0.29763160680E-01  0.24002944041E+01  0.24010824153E+01  0.00000000000E+00 0.  1.
<mgrwt>
<rscale>  1 0.64333328E+03</rscale>
<asrwt>0</asrwt>
<pdfrwt beam="1">  1        1 0.38498320E+00 0.64333328E+03</pdfrwt>
<pdfrwt beam="2">0</pdfrwt>
<totfact> 0.15617945E+00</totfact>
</mgrwt>
</event>
<event>
 6    1  0.1175152E-003  0.5479617E+03  0.7818608E-02  0.1001967E+00
          1   -1    0    0  502    0  0.00000000000E+00  0.00000000000E+00  0.75078573080E+02  0.75078573080E+02  0.00000000000E+00 0.  1.
         13   -1    0    0    0    0 -0.00000000000E+00 -0.00000000000E+00 -0.10000000000E+04  0.10000000000E+04  0.00000000000E+00 0.  1.
    9000005    2    1    2  501    0 -0.86061996373E-03 -0.35932118298E-03 -0.92493446464E+03  0.10750655020E+04  0.54796174119E+03 0.  0.
         13    1    3    3    0    0  0.22608378378E+03 -0.60238409135E+02 -0.74215640049E+03  0.77816364989E+03  0.00000000000E+00 0.  1.
          1    1    3    3  501    0 -0.22608464440E+03  0.60238049814E+02 -0.18277806415E+03  0.29690185215E+03  0.00000000000E+00 0.  1.
         21    1    1    2  502  501  0.86061996374E-03  0.35932118298E-03  0.13037719566E-01  0.13071033239E-01  0.00000000000E+00 0.  1.
<mgrwt>
<rscale>  1 0.54796174E+03</rscale>
<asrwt>0</asrwt>
<pdfrwt beam="1">  1        1 0.27301357E+00 0.54796174E+03</pdfrwt>
<pdfrwt beam="2">0</pdfrwt>
<totfact> 0.48689039E+00</totfact>
</mgrwt>
</event>
<event>
 6    1  0.1175152E-003  0.6379132E+03  0.7818608E-02  0.9829727E-01
          1   -1    0    0  502    0  0.00000000000E+00  0.00000000000E+00  0.10173769940E+03  0.10173769940E+03  0.00000000000E+00 0.  1.
         13   -1    0    0    0    0 -0.00000000000E+00 -0.00000000000E+00 -0.10000000000E+04  0.10000000000E+04  0.00000000000E+00 0.  1.
    9000005    2    1    2  501    0 -0.15481806733E-02 -0.29071513956E-02 -0.89826598476E+03  0.11017327576E+04  0.63791323060E+03 0.  0.
         13    1    3    3    0    0 -0.37503993892E+02  0.20832986301E+03 -0.86119681974E+03  0.88683022259E+03  0.00000000000E+00 0.  1.
          3    1    3    3  501    0  0.37502445711E+02 -0.20833277016E+03 -0.37069165022E+02  0.21490253501E+03  0.00000000000E+00 0.  1.
         21    1    1    2  502  501  0.15481806733E-02  0.29071513956E-02  0.36841634115E-02  0.49418066207E-02  0.00000000000E+00 0. -1.
<mgrwt>
<rscale>  1 0.63791323E+03</rscale>
<asrwt>0</asrwt>
<pdfrwt beam="1">  1        1 0.36995605E+00 0.63791323E+03</pdfrwt>
<pdfrwt beam="2">0</pdfrwt>
<totfact> 0.18208525E+00</totfact>
</mgrwt>
</event>
<event>
 6    1  0.1175152E-003  0.6493072E+03  0.7818608E-02  0.9808080E-01
          1   -1    0    0  502    0  0.00000000000E+00  0.00000000000E+00  0.10911697048E+03  0.10911697048E+03  0.00000000000E+00 0.  1.
         13   -1    0    0    0    0 -0.00000000000E+00 -0.00000000000E+00 -0.10000000000E+04  0.10000000000E+04  0.00000000000E+00 0.  1.
    9000005    2    1    2  501    0 -0.76690984497E-01  0.19915081169E+00 -0.89459666528E+03  0.11053972080E+04  0.64930712943E+03 0.  0.
         13    1    3    3    0    0  0.11350782062E+03 -0.12927608367E+03 -0.91583822101E+03  0.93185620040E+03  0.00000000000E+00 0.  1.
          1    1    3    3  501    0 -0.11358451161E+03  0.12947523448E+03  0.21241555733E+02  0.17354100758E+03  0.00000000000E+00 0.  1.
         21    1    1    2  502  501  0.76690984497E-01 -0.19915081169E+00  0.37136357590E+01  0.37197625063E+01  0.00000000000E+00 0. -1.
<mgrwt>
<rscale>  1 0.64930716E+03</rscale>
<asrwt>0</asrwt>
<pdfrwt beam="1">  1        1 0.39678982E+00 0.64930716E+03</pdfrwt>
<pdfrwt beam="2">0</pdfrwt>
<totfact> 0.13828275E+00</totfact>
</mgrwt>
</event>
<event>
 6    1  0.1175152E-003  0.6395182E+03  0.7818608E-02  0.9826649E-01
          1   -1    0    0  502    0  0.00000000000E+00  0.00000000000E+00  0.10235685102E+03  0.10235685102E+03  0.00000000000E+00 0.  1.
         13   -1    0    0    0    0 -0.00000000000E+00 -0.00000000000E+00 -0.10000000000E+04  0.10000000000E+04  0.00000000000E+00 0.  1.
    9000005    2    1    2  501    0  0.25453126812E-01  0.15493843167E-01 -0.89775192243E+03  0.11022440699E+04  0.63951815804E+03 0.  0.
         13    1    3    3    0    0  0.10342228790E+03  0.22294080008E+03 -0.96283767689E+02  0.26394949118E+03  0.00000000000E+00 0.  1.
          3    1    3    3  501    0 -0.10339683478E+03 -0.22292530624E+03 -0.80146815475E+03  0.83829457870E+03  0.00000000000E+00 0.  1.
         21    1    1    2  502  501 -0.25453126812E-01 -0.15493843167E-01  0.10877345185E+00  0.11278113614E+00  0.00000000000E+00 0.  1.
<mgrwt>
<rscale>  1 0.63951816E+03</rscale>
<asrwt>0</asrwt>
<pdfrwt beam="1">  1        1 0.37220752E+00 0.63951816E+03</pdfrwt>
<pdfrwt beam="2">0</pdfrwt>
<totfact> 0.17793232E+00</totfact>
</mgrwt>
</event>
<event>
 6    1  0.1175152E-003  0.6446687E+03  0.7818608E-02  0.9816835E-01
          1   -1    0    0  502    0  0.00000000000E+00  0.00000000000E+00  0.10405002617E+03  0.10405002617E+03  0.00000000000E+00 0.  1.
         13   -1    0    0    0    0 -0.00000000000E+00 -0.00000000000E+00 -0.10000000000E+04  0.10000000000E+04  0.00000000000E+00 0.  1.
    9000005    2    1    2  501    0  0.72197875425E-01 -0.81134295471E-01 -0.89607866634E+03  0.11038816306E+04  0.64466864845E+03 0.  0.
         13    1    3    3    0    0 -0.29142176239E+03  0.12270094634E+03 -0.34122649656E+03  0.46520714503E+03  0.00000000000E+00 0.  1.
          3    1    3    3  501    0  0.29149396027E+03 -0.12278208064E+03 -0.55485216978E+03  0.63867448557E+03  0.00000000000E+00 0.  1.
         21    1    1    2  502  501 -0.72197875425E-01  0.81134295471E-01  0.12869251270E+00  0.16839557578E+00  0.00000000000E+00 0. -1.
<mgrwt>
<rscale>  1 0.64466866E+03</rscale>
<asrwt>0</asrwt>
<pdfrwt beam="1">  1        1 0.37836453E+00 0.64466866E+03</pdfrwt>
<pdfrwt beam="2">0</pdfrwt>
<totfact> 0.16700902E+00</totfact>
</mgrwt>
</event>
<event>
 6    1  0.1175152E-003  0.6712922E+03  0.7818608E-02  0.9767626E-01
          1   -1    0    0  502    0  0.00000000000E+00  0.00000000000E+00  0.11265857313E+03  0.11265857313E+03  0.00000000000E+00 0.  1.
         13   -1    0    0    0    0 -0.00000000000E+00 -0.00000000000E+00 -0.10000000000E+04  0.10000000000E+04  0.00000000000E+00 0.  1.
    9000005    2    1    2  501    0  0.10856715090E-03 -0.60934610082E-03 -0.88734114913E+03  0.11126578947E+04  0.67129224317E+03 0.  0.
         13    1    3    3    0    0 -0.17930737013E+03  0.26604505769E+03 -0.60714101755E+03  0.68669594501E+03  0.00000000000E+00 0.  1.
          3    1    3    3  501    0  0.17930747870E+03 -0.26604566703E+03 -0.28020013158E+03  0.42596194971E+03  0.00000000000E+00 0.  1.
         21    1    1    2  502  501 -0.10856715090E-03  0.60934610078E-03 -0.27774630211E-03  0.67840438171E-03  0.00000000000E+00 0. -1.
<mgrwt>
<rscale>  1 0.67129224E+03</rscale>
<asrwt>0</asrwt>
<pdfrwt beam="1">  1        1 0.40966840E+00 0.67129224E+03</pdfrwt>
<pdfrwt beam="2">0</pdfrwt>
<totfact> 0.12062467E+00</totfact>
</mgrwt>
</event>
<event>
 6    1  0.1175152E-003  0.6527359E+03  0.7818608E-02  0.9801659E-01
          1   -1    0    0  502    0  0.00000000000E+00  0.00000000000E+00  0.11098256485E+03  0.11098256485E+03  0.00000000000E+00 0.  1.
         13   -1    0    0    0    0 -0.00000000000E+00 -0.00000000000E+00 -0.10000000000E+04  0.10000000000E+04  0.00000000000E+00 0.  1.
    9000005    2    1    2  501    0  0.16099605016E+01 -0.53034155444E+01 -0.89149580257E+03  0.11049112804E+04  0.65271238189E+03 0.  0.
         13    1    3    3    0    0 -0.89954746979E+01 -0.30389990361E+02 -0.99620946657E+03  0.99671348509E+03  0.00000000000E+00 0.  1.
          3    1    3    3  501    0  0.10605435199E+02  0.25086574817E+02  0.10471366400E+03  0.10819779536E+03  0.00000000000E+00 0.  1.
         21    1    1    2  502  501 -0.16099605016E+01  0.53034155444E+01  0.24783674217E+01  0.60712844053E+01  0.00000000000E+00 0. -1.
<mgrwt>
<rscale>  1 0.65273591E+03</rscale>
<asrwt>0</asrwt>
<pdfrwt beam="1">  1        1 0.40357381E+00 0.65273591E+03</pdfrwt>
<pdfrwt beam="2">0</pdfrwt>
<totfact> 0.12889691E+00</totfact>
</mgrwt>
</event>
<event>
 6    1  0.1175152E-003  0.6326645E+03  0.7818608E-02  0.9839863E-01
          1   -1    0    0  502    0  0.00000000000E+00  0.00000000000E+00  0.11597952325E+03  0.11597952325E+03  0.00000000000E+00 0.  1.
         13   -1    0    0    0    0 -0.00000000000E+00 -0.00000000000E+00 -0.10000000000E+04  0.10000000000E+04  0.00000000000E+00 0.  1.
    9000005    2    1    2  501    0 -0.10670832661E+02  0.33532604639E+02 -0.87480098624E+03  0.10796023154E+04  0.63168512070E+03 0.  0.
         13    1    3    3    0    0  0.78054118755E+02  0.31871907552E+03 -0.53078948329E+03  0.62402866130E+03  0.00000000000E+00 0.  1.
          3    1    3    3  501    0 -0.88724951416E+02 -0.28518647088E+03 -0.34401150295E+03  0.45557365413E+03  0.00000000000E+00 0.  1.
         21    1    1    2  502  501  0.10670832661E+02 -0.33532604639E+02 -0.92194905133E+01  0.36377207821E+02  0.00000000000E+00 0.  1.
<mgrwt>
<rscale>  1 0.63266452E+03</rscale>
<asrwt>0</asrwt>
<pdfrwt beam="1">  1        1 0.42174461E+00 0.63266452E+03</pdfrwt>
<pdfrwt beam="2">0</pdfrwt>
<totfact> 0.10724930E+00</totfact>
</mgrwt>
</event>
<event>
 6    1  0.1175152E-003  0.6381800E+03  0.7818608E-02  0.9829215E-01
          1   -1    0    0  502    0  0.00000000000E+00  0.00000000000E+00  0.10688809851E+03  0.10688809851E+03  0.00000000000E+00 0.  1.
         13   -1    0    0    0    0 -0.00000000000E+00 -0.00000000000E+00 -0.10000000000E+04  0.10000000000E+04  0.00000000000E+00 0.  1.
    9000005    2    1    2  501    0 -0.16881760939E+00 -0.50061047913E-01 -0.89817989078E+03  0.11018170512E+04  0.63817996449E+03 0.  0.
         13    1    3    3    0    0 -0.18814826695E+03 -0.25681939453E+03 -0.48806566088E+03  0.58272125505E+03  0.00000000000E+00 0.  1.
          3    1    3    3  501    0  0.18797944934E+03  0.25676933348E+03 -0.41011422991E+03  0.51909579613E+03  0.00000000000E+00 0.  1.
         21    1    1    2  502  501  0.16881760939E+00  0.50061047913E-01  0.50679892972E+01  0.50710473288E+01  0.00000000000E+00 0.  1.
<mgrwt>
<rscale>  1 0.63817999E+03</rscale>
<asrwt>0</asrwt>
<pdfrwt beam="1">  1        1 0.38868481E+00 0.63817999E+03</pdfrwt>
<pdfrwt beam="2">0</pdfrwt>
<totfact> 0.15054360E+00</totfact>
</mgrwt>
</event>
<event>
 6    1  0.1175152E-003  0.6622832E+03  0.7818608E-02  0.9784000E-01
          1   -1    0    0  502    0  0.00000000000E+00  0.00000000000E+00  0.11220283747E+03  0.11220283747E+03  0.00000000000E+00 0.  1.
         13   -1    0    0    0    0 -0.00000000000E+00 -0.00000000000E+00 -0.10000000000E+04  0.10000000000E+04  0.00000000000E+00 0.  1.
    9000005    2    1    2  501    0  0.30704979877E+00 -0.94898767885E+00 -0.89023646662E+03  0.11095674890E+04  0.66228245579E+03 0.  0.
         13    1    3    3    0    0 -0.32582902542E+03  0.22525059655E+02 -0.53448247203E+03  0.62637324737E+03  0.00000000000E+00 0.  1.
          1    1    3    3  501    0  0.32613607522E+03 -0.23474047334E+02 -0.35575399459E+03  0.48319424161E+03  0.00000000000E+00 0.  1.
         21    1    1    2  502  501 -0.30704979877E+00  0.94898767885E+00  0.24393040906E+01  0.26353484855E+01  0.00000000000E+00 0.  1.
<mgrwt>
<rscale>  1 0.66228321E+03</rscale>
<asrwt>0</asrwt>
<pdfrwt beam="1">  1        1 0.40801118E+00 0.66228321E+03</pdfrwt>
<pdfrwt beam="2">0</pdfrwt>
<totfact> 0.12291497E+00</totfact>
</mgrwt>
</event>
<event>
 6    1  0.1175152E-003  0.6473968E+03  0.7818608E-02  0.9811676E-01
          1   -1    0    0  502    0  0.00000000000E+00  0.00000000000E+00  0.10478065555E+03  0.10478065555E+03  0.00000000000E+00 0.  1.
         13   -1    0    0    0    0 -0.00000000000E+00 -0.00000000000E+00 -0.10000000000E+04  0.10000000000E+04  0.00000000000E+00 0.  1.
    9000005    2    1    2  501    0 -0.21858692833E-04 -0.12274321222E-04 -0.89521934440E+03  0.11047806305E+04  0.64739676158E+03 0.  0.
         13    1    3    3    0    0  0.68454268469E+02 -0.88347245015E+02 -0.96602935663E+03  0.97247310526E+03  0.00000000000E+00 0.  1.
          1    1    3    3  501    0 -0.68454290328E+02  0.88347232741E+02  0.70810012236E+02  0.13230752522E+03  0.00000000000E+00 0.  1.
         21    1    1    2  502  501  0.21858692822E-04  0.12274321223E-04 -0.53512009478E-07  0.25069189794E-04  0.00000000000E+00 0. -1.
<mgrwt>
<rscale>  1 0.64739676E+03</rscale>
<asrwt>0</asrwt>
<pdfrwt beam="1">  1        1 0.38102137E+00 0.64739676E+03</pdfrwt>
<pdfrwt beam="2">0</pdfrwt>
<totfact> 0.16248055E+00</totfact>
</mgrwt>
</event>
<event>
 6    1  0.1175152E-003  0.6467895E+03  0.7818608E-02  0.9812822E-01
          1   -1    0    0  502    0  0.00000000000E+00  0.00000000000E+00  0.10470698471E+03  0.10470698471E+03  0.00000000000E+00 0.  1.
         13   -1    0    0    0    0 -0.00000000000E+00 -0.00000000000E+00 -0.10000000000E+04  0.10000000000E+04  0.00000000000E+00 0.  1.
    9000005    2    1    2  501    0  0.13296348064E-02  0.98604360835E-03 -0.89541583086E+03  0.11045841580E+04  0.64678949584E+03 0.  0.
         13    1    3    3    0    0 -0.30261924543E+03 -0.11379639771E+03 -0.46044341494E+03  0.56261546922E+03  0.00000000000E+00 0.  1.
          1    1    3    3  501    0  0.30262057507E+03  0.11379738375E+03 -0.43497241591E+03  0.54196868877E+03  0.00000000000E+00 0.  1.
         21    1    1    2  502  501 -0.13296348064E-02 -0.98604360835E-03  0.12281556118E+00  0.12282671647E+00  0.00000000000E+00 0. -1.
<mgrwt>
<rscale>  1 0.64678950E+03</rscale>
<asrwt>0</asrwt>
<pdfrwt beam="1">  1        1 0.38075347E+00 0.64678950E+03</pdfrwt>
<pdfrwt beam="2">0</pdfrwt>
<totfact> 0.16294177E+00</totfact>
</mgrwt>
</event>
<event>
 6    1  0.1175152E-003  0.6492087E+03  0.7818608E-02  0.9808265E-01
          1   -1    0    0  502    0  0.00000000000E+00  0.00000000000E+00  0.10536862139E+03  0.10536862139E+03  0.00000000000E+00 0.  1.
         13   -1    0    0    0    0 -0.00000000000E+00 -0.00000000000E+00 -0.10000000000E+04  0.10000000000E+04  0.00000000000E+00 0.  1.
    9000005    2    1    2  501    0  0.39530211779E-05  0.14175628752E-03 -0.89463201479E+03  0.11053679696E+04  0.64920867702E+03 0.  0.
         13    1    3    3    0    0 -0.26694667454E+03 -0.13382171843E+03 -0.66402101780E+03  0.72807464689E+03  0.00000000000E+00 0.  1.
          3    1    3    3  501    0  0.26694667849E+03  0.13382186019E+03 -0.23061099700E+03  0.37729332270E+03  0.00000000000E+00 0.  1.
         21    1    1    2  502  501 -0.39530211561E-05 -0.14175628751E-03  0.63618550233E-03  0.65179940534E-03  0.00000000000E+00 0.  1.
<mgrwt>
<rscale>  1 0.64920868E+03</rscale>
<asrwt>0</asrwt>
<pdfrwt beam="1">  1        1 0.38315943E+00 0.64920868E+03</pdfrwt>
<pdfrwt beam="2">0</pdfrwt>
<totfact> 0.15893264E+00</totfact>
</mgrwt>
</event>
<event>
 6    1  0.1175152E-003  0.6533244E+03  0.7818608E-02  0.9800561E-01
          1   -1    0    0  502    0  0.00000000000E+00  0.00000000000E+00  0.11713035867E+03  0.11713035867E+03  0.00000000000E+00 0.  1.
         13   -1    0    0    0    0 -0.00000000000E+00 -0.00000000000E+00 -0.10000000000E+04  0.10000000000E+04  0.00000000000E+00 0.  1.
    9000005    2    1    2  501    0  0.12763304921E+02 -0.41585444275E+01 -0.88827197557E+03  0.11026603670E+04  0.65318648706E+03 0.  0.
         13    1    3    3    0    0 -0.22423716546E+02  0.14543395154E+03 -0.93147583428E+03  0.94302761740E+03  0.00000000000E+00 0.  1.
          3    1    3    3  501    0  0.35187021468E+02 -0.14959249597E+03  0.43203858711E+02  0.15963274958E+03  0.00000000000E+00 0.  1.
         21    1    1    2  502  501 -0.12763304921E+02  0.41585444275E+01  0.54023342392E+01  0.14469991690E+02  0.00000000000E+00 0.  1.
<mgrwt>
<rscale>  1 0.65332441E+03</rscale>
<asrwt>0</asrwt>
<pdfrwt beam="1">  1        1 0.42592948E+00 0.65332441E+03</pdfrwt>
<pdfrwt beam="2">0</pdfrwt>
<totfact> 0.10225298E+00</totfact>
</mgrwt>
</event>
<event>
 6    1  0.1175152E-003  0.6534382E+03  0.7818608E-02  0.9800349E-01
          1   -1    0    0  502    0  0.00000000000E+00  0.00000000000E+00  0.11060240420E+03  0.11060240420E+03  0.00000000000E+00 0.  1.
         13   -1    0    0    0    0 -0.00000000000E+00 -0.00000000000E+00 -0.10000000000E+04  0.10000000000E+04  0.00000000000E+00 0.  1.
    9000005    2    1    2  501    0 -0.59173488242E+00 -0.54720920635E+01 -0.89094769325E+03  0.11048842975E+04  0.65341504796E+03 0.  0.
         13    1    3    3    0    0  0.13213417654E+03 -0.20982318879E+03 -0.81157763830E+03  0.84861267617E+03  0.00000000000E+00 0.  1.
          1    1    3    3  501    0 -0.13272591142E+03  0.20435109673E+03 -0.79370054946E+02  0.25627162137E+03  0.00000000000E+00 0.  1.
         21    1    1    2  502  501  0.59173488242E+00  0.54720920635E+01  0.15500974507E+01  0.57181066648E+01  0.00000000000E+00 0. -1.
<mgrwt>
<rscale>  1 0.65343823E+03</rscale>
<asrwt>0</asrwt>
<pdfrwt beam="1">  1        1 0.40219141E+00 0.65343823E+03</pdfrwt>
<pdfrwt beam="2">0</pdfrwt>
<totfact> 0.13072438E+00</totfact>
</mgrwt>
</event>
<event>
 6    1  0.1175152E-003  0.6535020E+03  0.7818608E-02  0.9800230E-01
          1   -1    0    0  502    0  0.00000000000E+00  0.00000000000E+00  0.10676637987E+03  0.10676637987E+03  0.00000000000E+00 0.  1.
         13   -1    0    0    0    0 -0.00000000000E+00 -0.00000000000E+00 -0.10000000000E+04  0.10000000000E+04  0.00000000000E+00 0.  1.
    9000005    2    1    2  501    0  0.43518938014E-04 -0.18142884966E-03 -0.89323371871E+03  0.11067661689E+04  0.65350200939E+03 0.  0.
         13    1    3    3    0    0  0.32086552454E+03  0.60196456324E+02 -0.42340019305E+03  0.53464569733E+03  0.00000000000E+00 0.  1.
          3    1    3    3  501    0 -0.32086548102E+03 -0.60196637753E+02 -0.46983352566E+03  0.57212047153E+03  0.00000000000E+00 0.  1.
         21    1    1    2  502  501 -0.43518938016E-04  0.18142884966E-03  0.98576014096E-04  0.21101553500E-03  0.00000000000E+00 0. -1.
<mgrwt>
<rscale>  1 0.65350201E+03</rscale>
<asrwt>0</asrwt>
<pdfrwt beam="1">  1        1 0.38824220E+00 0.65350201E+03</pdfrwt>
<pdfrwt beam="2">0</pdfrwt>
<totfact> 0.15079192E+00</totfact>
</mgrwt>
</event>
<event>
 6    1  0.1175152E-003  0.6382878E+03  0.7818608E-02  0.9829008E-01
          1   -1    0    0  502    0  0.00000000000E+00  0.00000000000E+00  0.10226681516E+03  0.10226681516E+03  0.00000000000E+00 0.  1.
         13   -1    0    0    0    0 -0.00000000000E+00 -0.00000000000E+00 -0.10000000000E+04  0.10000000000E+04  0.00000000000E+00 0.  1.
    9000005    2    1    2  501    0 -0.16816126042E+00  0.15065380649E+00 -0.89811297479E+03  0.11018249835E+04  0.63828780961E+03 0.  0.
         13    1    3    3    0    0  0.26963076322E+03  0.16699566306E+03 -0.50990462202E+03  0.60049231761E+03  0.00000000000E+00 0.  1.
          3    1    3    3  501    0 -0.26979892448E+03 -0.16684500926E+03 -0.38820835277E+03  0.50133266592E+03  0.00000000000E+00 0.  1.
         21    1    1    2  502  501  0.16816126042E+00 -0.15065380649E+00  0.37978994585E+00  0.44183162165E+00  0.00000000000E+00 0. -1.
<mgrwt>
<rscale>  1 0.63828785E+03</rscale>
<asrwt>0</asrwt>
<pdfrwt beam="1">  1        1 0.37188011E+00 0.63828785E+03</pdfrwt>
<pdfrwt beam="2">0</pdfrwt>
<totfact> 0.17856306E+00</totfact>
</mgrwt>
</event>
<event>
 6    1  0.1175152E-003  0.6601450E+03  0.7818608E-02  0.9787927E-01
          1   -1    0    0  502    0  0.00000000000E+00  0.00000000000E+00  0.10894807452E+03  0.10894807452E+03  0.00000000000E+00 0.  1.
         13   -1    0    0    0    0 -0.00000000000E+00 -0.00000000000E+00 -0.10000000000E+04  0.10000000000E+04  0.00000000000E+00 0.  1.
    9000005    2    1    2  501    0  0.20377146086E-04 -0.21543200171E-03 -0.89105206936E+03  0.11089478147E+04  0.66014503355E+03 0.  0.
         13    1    3    3    0    0  0.21391165219E+03 -0.25080359985E+03 -0.47399878041E+03  0.57735213212E+03  0.00000000000E+00 0.  1.
          3    1    3    3  501    0 -0.21391163181E+03  0.25080338442E+03 -0.41705328896E+03  0.53159568253E+03  0.00000000000E+00 0.  1.
         21    1    1    2  502  501 -0.20377146092E-04  0.21543200170E-03  0.14388610213E-03  0.25986416803E-03  0.00000000000E+00 0. -1.
<mgrwt>
<rscale>  1 0.66014503E+03</rscale>
<asrwt>0</asrwt>
<pdfrwt beam="1">  1        1 0.39617565E+00 0.66014503E+03</pdfrwt>
<pdfrwt beam="2">0</pdfrwt>
<totfact> 0.13887267E+00</totfact>
</mgrwt>
</event>
<event>
 6    1  0.1175152E-003  0.6044933E+03  0.7818608E-02  0.9896128E-01
          1   -1    0    0  502    0  0.00000000000E+00  0.00000000000E+00  0.91377841019E+02  0.91377841019E+02  0.00000000000E+00 0.  1.
         13   -1    0    0    0    0 -0.00000000000E+00 -0.00000000000E+00 -0.10000000000E+04  0.10000000000E+04  0.00000000000E+00 0.  1.
    9000005    2    1    2  501    0  0.24689476151E-01 -0.49370612104E-01 -0.90860845727E+03  0.10913209660E+04  0.60449327475E+03 0.  0.
         13    1    3    3    0    0  0.90718096867E+02 -0.25059173866E+03 -0.19685427394E+03  0.33132702538E+03  0.00000000000E+00 0.  1.
          3    1    3    3  501    0 -0.90693407391E+02  0.25054236804E+03 -0.71175418333E+03  0.75999394064E+03  0.00000000000E+00 0.  1.
         21    1    1    2  502  501 -0.24689476151E-01  0.49370612104E-01 -0.13701711157E-01  0.56874989765E-01  0.00000000000E+00 0.  1.
<mgrwt>
<rscale>  1 0.60449328E+03</rscale>
<asrwt>0</asrwt>
<pdfrwt beam="1">  1        1 0.33228376E+00 0.60449328E+03</pdfrwt>
<pdfrwt beam="2">0</pdfrwt>
<totfact> 0.26738530E+00</totfact>
</mgrwt>
</event>
<event>
 6    1  0.1175152E-003  0.6528557E+03  0.7818608E-02  0.9801435E-01
          1   -1    0    0  502    0  0.00000000000E+00  0.00000000000E+00  0.10711571330E+03  0.10711571330E+03  0.00000000000E+00 0.  1.
         13   -1    0    0    0    0 -0.00000000000E+00 -0.00000000000E+00 -0.10000000000E+04  0.10000000000E+04  0.00000000000E+00 0.  1.
    9000005    2    1    2  501    0  0.29650351866E+00 -0.10745217980E+01 -0.89274825878E+03  0.11059927640E+04  0.65285472968E+03 0.  0.
         13    1    3    3    0    0 -0.24677087636E+03 -0.45671958845E+02 -0.79984916383E+03  0.83829617566E+03  0.00000000000E+00 0.  1.
          1    1    3    3  501    0  0.24706737988E+03  0.44597437047E+02 -0.92899094950E+02  0.26769658839E+03  0.00000000000E+00 0.  1.
         21    1    1    2  502  501 -0.29650351866E+00  0.10745217980E+01 -0.13602791960E+00  0.11229492535E+01  0.00000000000E+00 0. -1.
<mgrwt>
<rscale>  1 0.65285568E+03</rscale>
<asrwt>0</asrwt>
<pdfrwt beam="1">  1        1 0.38951251E+00 0.65285568E+03</pdfrwt>
<pdfrwt beam="2">0</pdfrwt>
<totfact> 0.14886755E+00</totfact>
</mgrwt>
</event>
<event>
 6    1  0.1175152E-003  0.6503948E+03  0.7818608E-02  0.9806039E-01
          1   -1    0    0  502    0  0.00000000000E+00  0.00000000000E+00  0.10585223278E+03  0.10585223278E+03  0.00000000000E+00 0.  1.
         13   -1    0    0    0    0 -0.00000000000E+00 -0.00000000000E+00 -0.10000000000E+04  0.10000000000E+04  0.00000000000E+00 0.  1.
    9000005    2    1    2  501    0  0.14066960892E+00  0.16878724948E+00 -0.89408703015E+03  0.11056242721E+04  0.65039477653E+03 0.  0.
         13    1    3    3    0    0  0.11589861116E+03  0.86393701729E+02  0.48174095039E+02  0.15237159578E+03  0.00000000000E+00 0.  1.
          3    1    3    3  501    0 -0.11575794155E+03 -0.86224914479E+02 -0.94226112519E+03  0.95325267634E+03  0.00000000000E+00 0.  1.
         21    1    1    2  502  501 -0.14066960892E+00 -0.16878724948E+00 -0.60737068053E-01  0.22796066744E+00  0.00000000000E+00 0.  1.
<mgrwt>
<rscale>  1 0.65039481E+03</rscale>
<asrwt>0</asrwt>
<pdfrwt beam="1">  1        1 0.38491802E+00 0.65039481E+03</pdfrwt>
<pdfrwt beam="2">0</pdfrwt>
<totfact> 0.15607853E+00</totfact>
</mgrwt>
</event>
<event>
 6    1  0.1175152E-003  0.6589571E+03  0.7818608E-02  0.9790115E-01
          1   -1    0    0  502    0  0.00000000000E+00  0.00000000000E+00  0.10887213273E+03  0.10887213273E+03  0.00000000000E+00 0.  1.
         13   -1    0    0    0    0 -0.00000000000E+00 -0.00000000000E+00 -0.10000000000E+04  0.10000000000E+04  0.00000000000E+00 0.  1.
    9000005    2    1    2  501    0  0.46517778348E+00 -0.22162827336E+00 -0.89119124704E+03  0.11083529734E+04  0.65895691000E+03 0.  0.
         13    1    3    3    0    0 -0.11460332585E+03  0.14142348052E+03 -0.90708410756E+03  0.92516814760E+03  0.00000000000E+00 0.  1.
          3    1    3    3  501    0  0.11506850363E+03 -0.14164510879E+03  0.15892860521E+02  0.18318482576E+03  0.00000000000E+00 0.  1.
         21    1    1    2  502  501 -0.46517778348E+00  0.22162827336E+00  0.63379770462E-01  0.51915937543E+00  0.00000000000E+00 0.  1.
<mgrwt>
<rscale>  1 0.65895711E+03</rscale>
<asrwt>0</asrwt>
<pdfrwt beam="1">  1        1 0.39589950E+00 0.65895711E+03</pdfrwt>
<pdfrwt beam="2">0</pdfrwt>
<totfact> 0.13929697E+00</totfact>
</mgrwt>
</event>
<event>
 6    1  0.1175152E-003  0.6617932E+03  0.7818608E-02  0.9784898E-01
          1   -1    0    0  502    0  0.00000000000E+00  0.00000000000E+00  0.10949276737E+03  0.10949276737E+03  0.00000000000E+00 0.  1.
         13   -1    0    0    0    0 -0.00000000000E+00 -0.00000000000E+00 -0.10000000000E+04  0.10000000000E+04  0.00000000000E+00 0.  1.
    9000005    2    1    2  501    0  0.34439563723E-03 -0.12469609419E-03 -0.89050722008E+03  0.11094924009E+04  0.66179322949E+03 0.  0.
         13    1    3    3    0    0  0.37234785092E+02  0.85754694864E+01  0.10578170711E+03  0.11247105164E+03  0.00000000000E+00 0.  1.
          3    1    3    3  501    0 -0.37234440697E+02 -0.85755941825E+01 -0.99628892719E+03  0.99702134924E+03  0.00000000000E+00 0.  1.
         21    1    1    2  502  501 -0.34439563723E-03  0.12469609419E-03 -0.12555787650E-04  0.36649027088E-03  0.00000000000E+00 0.  1.
<mgrwt>
<rscale>  1 0.66179323E+03</rscale>
<asrwt>0</asrwt>
<pdfrwt beam="1">  1        1 0.39815636E+00 0.66179323E+03</pdfrwt>
<pdfrwt beam="2">0</pdfrwt>
<totfact> 0.13603941E+00</totfact>
</mgrwt>
</event>
<event>
 6    1  0.1175152E-003  0.6407415E+03  0.7818608E-02  0.9824309E-01
          1   -1    0    0  502    0  0.00000000000E+00  0.00000000000E+00  0.10289042893E+03  0.10289042893E+03  0.00000000000E+00 0.  1.
         13   -1    0    0    0    0 -0.00000000000E+00 -0.00000000000E+00 -0.10000000000E+04  0.10000000000E+04  0.00000000000E+00 0.  1.
    9000005    2    1    2  501    0  0.10681890511E+00 -0.77408364358E+00 -0.89619663503E+03  0.11016887351E+04  0.64074101622E+03 0.  0.
         13    1    3    3    0    0  0.49807274735E+02  0.25745552668E+03 -0.13213278185E+03  0.29363784646E+03  0.00000000000E+00 0.  1.
          1    1    3    3  501    0 -0.49700455830E+02 -0.25822961032E+03 -0.76406385318E+03  0.80805088868E+03  0.00000000000E+00 0.  1.
         21    1    1    2  502  501 -0.10681890511E+00  0.77408364358E+00 -0.91293603422E+00  0.12016937914E+01  0.00000000000E+00 0. -1.
<mgrwt>
<rscale>  1 0.64074149E+03</rscale>
<asrwt>0</asrwt>
<pdfrwt beam="1">  1        1 0.37414780E+00 0.64074149E+03</pdfrwt>
<pdfrwt beam="2">0</pdfrwt>
<totfact> 0.17443123E+00</totfact>
</mgrwt>
</event>
<event>
 6    1  0.1175152E-003  0.5224426E+03  0.7818608E-02  0.1008082E+00
          1   -1    0    0  502    0  0.00000000000E+00  0.00000000000E+00  0.68280027107E+02  0.68280027107E+02  0.00000000000E+00 0.  1.
         13   -1    0    0    0    0 -0.00000000000E+00 -0.00000000000E+00 -0.10000000000E+04  0.10000000000E+04  0.00000000000E+00 0.  1.
    9000005    2    1    2  501    0  0.13644629774E-01  0.16983293965E-02 -0.93176227543E+03  0.10682355460E+04  0.52244257457E+03 0.  0.
         13    1    3    3    0    0  0.64836393206E+01 -0.52136639585E+02 -0.98908447897E+03  0.99047886061E+03  0.00000000000E+00 0.  1.
          3    1    3    3  501    0 -0.64699946909E+01  0.52138337914E+02  0.57322203540E+02  0.77756685439E+02  0.00000000000E+00 0.  1.
         21    1    1    2  502  501 -0.13644629774E-01 -0.16983293965E-02  0.42302537709E-01  0.44481062723E-01  0.00000000000E+00 0.  1.
<mgrwt>
<rscale>  1 0.52244257E+03</rscale>
<asrwt>0</asrwt>
<pdfrwt beam="1">  1        1 0.24829153E+00 0.52244257E+03</pdfrwt>
<pdfrwt beam="2">0</pdfrwt>
<totfact> 0.62589162E+00</totfact>
</mgrwt>
</event>
<event>
 6    1  0.1175152E-003  0.6525242E+03  0.7818608E-02  0.9802054E-01
          3   -1    0    0  502    0  0.00000000000E+00  0.00000000000E+00  0.10645453216E+03  0.10645453216E+03  0.00000000000E+00 0.  1.
         13   -1    0    0    0    0 -0.00000000000E+00 -0.00000000000E+00 -0.10000000000E+04  0.10000000000E+04  0.00000000000E+00 0.  1.
    9000005    2    1    2  501    0 -0.40374970026E-02 -0.69040403685E-02 -0.89355062623E+03  0.11064450150E+04  0.65252421377E+03 0.  0.
         13    1    3    3    0    0  0.74650020869E+02 -0.18949418000E+03 -0.87897329493E+03  0.90226089523E+03  0.00000000000E+00 0.  1.
          1    1    3    3  501    0 -0.74654058366E+02  0.18948727596E+03 -0.14577331299E+02  0.20418411978E+03  0.00000000000E+00 0.  1.
         21    1    1    2  502  501  0.40374970026E-02  0.69040403684E-02  0.51583833958E-02  0.95171463535E-02  0.00000000000E+00 0. -1.
<mgrwt>
<rscale>  1 0.65252421E+03</rscale>
<asrwt>0</asrwt>
<pdfrwt beam="1">  1        3 0.38710821E+00 0.65252421E+03</pdfrwt>
<pdfrwt beam="2">0</pdfrwt>
<totfact> 0.69206637E-02</totfact>
</mgrwt>
</event>
<event>
 6    1  0.1175152E-003  0.6553199E+03  0.7818608E-02  0.9796848E-01
          1   -1    0    0  502    0  0.00000000000E+00  0.00000000000E+00  0.10778200783E+03  0.10778200783E+03  0.00000000000E+00 0.  1.
         13   -1    0    0    0    0 -0.00000000000E+00 -0.00000000000E+00 -0.10000000000E+04  0.10000000000E+04  0.00000000000E+00 0.  1.
    9000005    2    1    2  501    0 -0.28861161937E-01  0.15575166320E-01 -0.89263824851E+03  0.11073604738E+04  0.65531990290E+03 0.  0.
         13    1    3    3    0    0 -0.12042008938E+03  0.30214704305E+03 -0.51340637804E+03  0.60776635524E+03  0.00000000000E+00 0.  1.
          3    1    3    3  501    0  0.12039122821E+03 -0.30213146788E+03 -0.37923187047E+03  0.49959411856E+03  0.00000000000E+00 0.  1.
         21    1    1    2  502  501  0.28861161937E-01 -0.15575166320E-01  0.42025633741E+00  0.42153403375E+00  0.00000000000E+00 0.  1.
<mgrwt>
<rscale>  1 0.65531990E+03</rscale>
<asrwt>0</asrwt>
<pdfrwt beam="1">  1        1 0.39193540E+00 0.65531990E+03</pdfrwt>
<pdfrwt beam="2">0</pdfrwt>
<totfact> 0.14516185E+00</totfact>
</mgrwt>
</event>
<event>
 6    1  0.1175152E-003  0.6516625E+03  0.7818608E-02  0.9803665E-01
          1   -1    0    0  502    0  0.00000000000E+00  0.00000000000E+00  0.10616612763E+03  0.10616612763E+03  0.00000000000E+00 0.  1.
         13   -1    0    0    0    0 -0.00000000000E+00 -0.00000000000E+00 -0.10000000000E+04  0.10000000000E+04  0.00000000000E+00 0.  1.
    9000005    2    1    2  501    0 -0.12775354419E-03  0.81037725728E-04 -0.89383395829E+03  0.11061659536E+04  0.65166246785E+03 0.  0.
         13    1    3    3    0    0  0.89957086671E+02 -0.28961196054E+02  0.82391440051E+02  0.12537694251E+03  0.00000000000E+00 0.  1.
          3    1    3    3  501    0 -0.89957214425E+02  0.28961277091E+02 -0.97622539834E+03  0.98078901114E+03  0.00000000000E+00 0.  1.
         21    1    1    2  502  501  0.12775354418E-03 -0.81037725727E-04  0.85924022150E-04  0.17398568511E-03  0.00000000000E+00 0. -1.
<mgrwt>
<rscale>  1 0.65166247E+03</rscale>
<asrwt>0</asrwt>
<pdfrwt beam="1">  1        1 0.38605946E+00 0.65166247E+03</pdfrwt>
<pdfrwt beam="2">0</pdfrwt>
<totfact> 0.15423799E+00</totfact>
</mgrwt>
</event>
<event>
 6    1  0.1175152E-003  0.6311558E+03  0.7818608E-02  0.9842796E-01
          1   -1    0    0  502    0  0.00000000000E+00  0.00000000000E+00  0.99589799864E+02  0.99589799864E+02  0.00000000000E+00 0.  1.
         13   -1    0    0    0    0 -0.00000000000E+00 -0.00000000000E+00 -0.10000000000E+04  0.10000000000E+04  0.00000000000E+00 0.  1.
    9000005    2    1    2  501    0  0.21975097553E-04  0.36047817380E-03 -0.90041050990E+03  0.10995893241E+04  0.63115576149E+03 0.  0.
         13    1    3    3    0    0  0.19579569105E+03  0.22314398344E+03 -0.63671102877E+03  0.70251699207E+03  0.00000000000E+00 0.  1.
          1    1    3    3  501    0 -0.19579566908E+03 -0.22314362296E+03 -0.26369948113E+03  0.39707233200E+03  0.00000000000E+00 0.  1.
         21    1    1    2  502  501 -0.21975097548E-04 -0.36047817381E-03  0.30976502513E-03  0.47579595364E-03  0.00000000000E+00 0.  1.
<mgrwt>
<rscale>  1 0.63115576E+03</rscale>
<asrwt>0</asrwt>
<pdfrwt beam="1">  1        1 0.36214549E+00 0.63115576E+03</pdfrwt>
<pdfrwt beam="2">0</pdfrwt>
<totfact> 0.19726579E+00</totfact>
</mgrwt>
</event>
<event>
 6    1  0.1175152E-003  0.6403036E+03  0.7818608E-02  0.9825146E-01
          1   -1    0    0  502    0  0.00000000000E+00  0.00000000000E+00  0.10249717335E+03  0.10249717335E+03  0.00000000000E+00 0.  1.
         13   -1    0    0    0    0 -0.00000000000E+00 -0.00000000000E+00 -0.10000000000E+04  0.10000000000E+04  0.00000000000E+00 0.  1.
    9000005    2    1    2  501    0  0.96581792377E-05 -0.45137213078E-05 -0.89750282621E+03  0.11024971627E+04  0.64030357695E+03 0.  0.
         13    1    3    3    0    0  0.26192736090E+03 -0.18338653042E+03 -0.47654767855E+03  0.57387651272E+03  0.00000000000E+00 0.  1.
          1    1    3    3  501    0 -0.26192735124E+03  0.18338652591E+03 -0.42095514767E+03  0.52862064996E+03  0.00000000000E+00 0.  1.
         21    1    1    2  502  501 -0.96581792501E-05  0.45137213018E-05 -0.43931552615E-06  0.10669915864E-04  0.00000000000E+00 0. -1.
<mgrwt>
<rscale>  1 0.64030358E+03</rscale>
<asrwt>0</asrwt>
<pdfrwt beam="1">  1        1 0.37271778E+00 0.64030358E+03</pdfrwt>
<pdfrwt beam="2">0</pdfrwt>
<totfact> 0.17699015E+00</totfact>
</mgrwt>
</event>
<event>
 6    1  0.1175152E-003  0.6504138E+03  0.7818608E-02  0.9806003E-01
          1   -1    0    0  502    0  0.00000000000E+00  0.00000000000E+00  0.10651949201E+03  0.10651949201E+03  0.00000000000E+00 0.  1.
         13   -1    0    0    0    0 -0.00000000000E+00 -0.00000000000E+00 -0.10000000000E+04  0.10000000000E+04  0.00000000000E+00 0.  1.
    9000005    2    1    2  501    0 -0.40670716921E+00 -0.25070810320E+00 -0.89415654998E+03  0.11056916647E+04  0.65041363245E+03 0.  0.
         13    1    3    3    0    0 -0.19335327688E+03 -0.25766555902E+03 -0.52575846261E+03  0.61660278218E+03  0.00000000000E+00 0.  1.
          3    1    3    3  501    0  0.19294656971E+03  0.25741485092E+03 -0.36839808736E+03  0.48908888253E+03  0.00000000000E+00 0.  1.
         21    1    1    2  502  501  0.40670716921E+00  0.25070810320E+00  0.67604199018E+00  0.82782730505E+00  0.00000000000E+00 0.  1.
<mgrwt>
<rscale>  1 0.65041381E+03</rscale>
<asrwt>0</asrwt>
<pdfrwt beam="1">  1        1 0.38734442E+00 0.65041381E+03</pdfrwt>
<pdfrwt beam="2">0</pdfrwt>
<totfact> 0.15226611E+00</totfact>
</mgrwt>
</event>
<event>
 6    1  0.1175152E-003  0.5992835E+03  0.7818608E-02  0.9906894E-01
          1   -1    0    0  502    0  0.00000000000E+00  0.00000000000E+00  0.89836013359E+02  0.89836013359E+02  0.00000000000E+00 0.  1.
         13   -1    0    0    0    0 -0.00000000000E+00 -0.00000000000E+00 -0.10000000000E+04  0.10000000000E+04  0.00000000000E+00 0.  1.
    9000005    2    1    2  501    0 -0.20255394607E-01  0.14147563924E+00 -0.91007250860E+03  0.10896663258E+04  0.59928349739E+03 0.  0.
         13    1    3    3    0    0  0.55555940865E+02 -0.18218889889E+03 -0.87545538224E+03  0.89593603775E+03  0.00000000000E+00 0.  1.
          3    1    3    3  501    0 -0.55576196260E+02  0.18233037453E+03 -0.34617126356E+02  0.19373028804E+03  0.00000000000E+00 0.  1.
         21    1    1    2  502  501  0.20255394607E-01 -0.14147563924E+00 -0.91478045795E-01  0.16968756693E+00  0.00000000000E+00 0. -1.
<mgrwt>
<rscale>  1 0.59928351E+03</rscale>
<asrwt>0</asrwt>
<pdfrwt beam="1">  1        1 0.32667710E+00 0.59928351E+03</pdfrwt>
<pdfrwt beam="2">0</pdfrwt>
<totfact> 0.28302152E+00</totfact>
</mgrwt>
</event>
<event>
 6    1  0.1175152E-003  0.6604427E+03  0.7818608E-02  0.9787379E-01
          1   -1    0    0  502    0  0.00000000000E+00  0.00000000000E+00  0.11283287564E+03  0.11283287564E+03  0.00000000000E+00 0.  1.
         13   -1    0    0    0    0 -0.00000000000E+00 -0.00000000000E+00 -0.10000000000E+04  0.10000000000E+04  0.00000000000E+00 0.  1.
    9000005    2    1    2  501    0  0.17188920194E+01 -0.10116461980E+01 -0.89066033920E+03  0.11088103680E+04  0.66043971287E+03 0.  0.
         13    1    3    3    0    0 -0.26749264148E+02  0.32324757081E+03 -0.34570975015E+03  0.47404614387E+03  0.00000000000E+00 0.  1.
          3    1    3    3  501    0  0.28468156167E+02 -0.32425921701E+03 -0.54495058905E+03  0.63476422413E+03  0.00000000000E+00 0.  1.
         21    1    1    2  502  501 -0.17188920194E+01  0.10116461980E+01  0.34932148412E+01  0.40225076422E+01  0.00000000000E+00 0.  1.
<mgrwt>
<rscale>  1 0.66044272E+03</rscale>
<asrwt>0</asrwt>
<pdfrwt beam="1">  1        1 0.41030223E+00 0.66044272E+03</pdfrwt>
<pdfrwt beam="2">0</pdfrwt>
<totfact> 0.12008491E+00</totfact>
</mgrwt>
</event>
<event>
 6    1  0.1175152E-003  0.6278911E+03  0.7818608E-02  0.9849173E-01
          1   -1    0    0  502    0  0.00000000000E+00  0.00000000000E+00  0.98585608247E+02  0.98585608247E+02  0.00000000000E+00 0.  1.
         13   -1    0    0    0    0 -0.00000000000E+00 -0.00000000000E+00 -0.10000000000E+04  0.10000000000E+04  0.00000000000E+00 0.  1.
    9000005    2    1    2  501    0 -0.12735503659E-02 -0.29842738812E-02 -0.90143806093E+03  0.10985617177E+04  0.62789112904E+03 0.  0.
         13    1    3    3    0    0  0.13823651075E+03  0.23915394335E+03 -0.71173669942E+03  0.76346124383E+03  0.00000000000E+00 0.  1.
          3    1    3    3  501    0 -0.13823778430E+03 -0.23915692762E+03 -0.18970136150E+03  0.33510047388E+03  0.00000000000E+00 0.  1.
         21    1    1    2  502  501  0.12735503659E-02  0.29842738812E-02  0.23669175013E-01  0.23890535091E-01  0.00000000000E+00 0. -1.
<mgrwt>
<rscale>  1 0.62789113E+03</rscale>
<asrwt>0</asrwt>
<pdfrwt beam="1">  1        1 0.35849388E+00 0.62789113E+03</pdfrwt>
<pdfrwt beam="2">0</pdfrwt>
<totfact> 0.20477640E+00</totfact>
</mgrwt>
</event>
<event>
 6    1  0.1175152E-003  0.5611951E+03  0.7818608E-02  0.9989354E-01
          1   -1    0    0  502    0  0.00000000000E+00  0.00000000000E+00  0.97721154045E+02  0.97721154045E+02  0.00000000000E+00 0.  1.
         13   -1    0    0    0    0 -0.00000000000E+00 -0.00000000000E+00 -0.10000000000E+04  0.10000000000E+04  0.00000000000E+00 0.  1.
    9000005    2    1    2  501    0 -0.11610100967E+00  0.42640695271E+00 -0.92126225402E+03  0.10787326026E+04  0.56119487883E+03 0.  0.
         13    1    3    3    0    0  0.11299878086E+03  0.77453131077E+02  0.10102626513E+02  0.13736729979E+03  0.00000000000E+00 0.  1.
          1    1    3    3  501    0 -0.11311488187E+03 -0.77026724125E+02 -0.93136488053E+03  0.94136530286E+03  0.00000000000E+00 0.  1.
         21    1    1    2  502  501  0.11610100967E+00 -0.42640695271E+00  0.18983408067E+02  0.18988551397E+02  0.00000000000E+00 0.  1.
<mgrwt>
<rscale>  1 0.56119505E+03</rscale>
<asrwt>0</asrwt>
<pdfrwt beam="1">  1        1 0.35535040E+00 0.56119505E+03</pdfrwt>
<pdfrwt beam="2">0</pdfrwt>
<totfact> 0.21408047E+00</totfact>
</mgrwt>
</event>
<event>
 6    1  0.1175152E-003  0.6019444E+03  0.7818608E-02  0.9901380E-01
          1   -1    0    0  502    0  0.00000000000E+00  0.00000000000E+00  0.90821916863E+02  0.90821916863E+02  0.00000000000E+00 0.  1.
         13   -1    0    0    0    0 -0.00000000000E+00 -0.00000000000E+00 -0.10000000000E+04  0.10000000000E+04  0.00000000000E+00 0.  1.
    9000005    2    1    2  501    0  0.23906071835E-02  0.71446645349E-02 -0.90941567602E+03  0.10905842046E+04  0.60194437899E+03 0.  0.
         13    1    3    3    0    0  0.12515167176E+02 -0.13367359398E+03  0.33323579551E+02  0.13833192000E+03  0.00000000000E+00 0.  1.
          3    1    3    3  501    0 -0.12512776569E+02  0.13368073864E+03 -0.94273925557E+03  0.95225228456E+03  0.00000000000E+00 0.  1.
         21    1    1    2  502  501 -0.23906071835E-02 -0.71446645349E-02  0.23759288143E+00  0.23771230203E+00  0.00000000000E+00 0.  1.
<mgrwt>
<rscale>  1 0.60194438E+03</rscale>
<asrwt>0</asrwt>
<pdfrwt beam="1">  1        1 0.33026221E+00 0.60194438E+03</pdfrwt>
<pdfrwt beam="2">0</pdfrwt>
<totfact> 0.27295557E+00</totfact>
</mgrwt>
</event>
<event>
 6    1  0.1175152E-003  0.6435341E+03  0.7818608E-02  0.9818988E-01
          1   -1    0    0  502    0  0.00000000000E+00  0.00000000000E+00  0.10740850003E+03  0.10740850003E+03  0.00000000000E+00 0.  1.
         13   -1    0    0    0    0 -0.00000000000E+00 -0.00000000000E+00 -0.10000000000E+04  0.10000000000E+04  0.00000000000E+00 0.  1.
    9000005    2    1    2  501    0  0.69263083090E+00  0.31937952059E+01 -0.89569086345E+03  0.11029044886E+04  0.64352584095E+03 0.  0.
         13    1    3    3    0    0  0.43039982546E+02  0.30853351129E+03 -0.59846105055E+03  0.67468585038E+03  0.00000000000E+00 0.  1.
          3    1    3    3  501    0 -0.42347351715E+02 -0.30533971608E+03 -0.29722981290E+03  0.42821863819E+03  0.00000000000E+00 0.  1.
         21    1    1    2  502  501 -0.69263083090E+00 -0.31937952059E+01  0.30993634804E+01  0.45040114641E+01  0.00000000000E+00 0. -1.
<mgrwt>
<rscale>  1 0.64353414E+03</rscale>
<asrwt>0</asrwt>
<pdfrwt beam="1">  1        1 0.39057719E+00 0.64353414E+03</pdfrwt>
<pdfrwt beam="2">0</pdfrwt>
<totfact> 0.14751521E+00</totfact>
</mgrwt>
</event>
<event>
 6    1  0.1175152E-003  0.6321780E+03  0.7818608E-02  0.9840808E-01
          1   -1    0    0  502    0  0.00000000000E+00  0.00000000000E+00  0.10014788056E+03  0.10014788056E+03  0.00000000000E+00 0.  1.
         13   -1    0    0    0    0 -0.00000000000E+00 -0.00000000000E+00 -0.10000000000E+04  0.10000000000E+04  0.00000000000E+00 0.  1.
    9000005    2    1    2  501    0 -0.52209308366E-02 -0.32416674695E-01 -0.90008649863E+03  0.10999112126E+04  0.63217795721E+03 0.  0.
         13    1    3    3    0    0 -0.16184280806E+03 -0.86022787021E+02 -0.89812559957E+03  0.91663657303E+03  0.00000000000E+00 0.  1.
          1    1    3    3  501    0  0.16183758713E+03  0.85990370347E+02 -0.19608990625E+01  0.18327463961E+03  0.00000000000E+00 0.  1.
         21    1    1    2  502  501  0.52209308366E-02  0.32416674695E-01  0.23437919291E+00  0.23666792133E+00  0.00000000000E+00 0.  1.
<mgrwt>
<rscale>  1 0.63217796E+03</rscale>
<asrwt>0</asrwt>
<pdfrwt beam="1">  1        1 0.36417488E+00 0.63217796E+03</pdfrwt>
<pdfrwt beam="2">0</pdfrwt>
<totfact> 0.19323454E+00</totfact>
</mgrwt>
</event>
<event>
 6    1  0.1175152E-003  0.6538578E+03  0.7818608E-02  0.9799567E-01
          1   -1    0    0  502    0  0.00000000000E+00  0.00000000000E+00  0.10694211027E+03  0.10694211027E+03  0.00000000000E+00 0.  1.
         13   -1    0    0    0    0 -0.00000000000E+00 -0.00000000000E+00 -0.10000000000E+04  0.10000000000E+04  0.00000000000E+00 0.  1.
    9000005    2    1    2  501    0 -0.27636828014E-01  0.28979783372E-02 -0.89311388661E+03  0.11068795975E+04  0.65385780426E+03 0.  0.
         13    1    3    3    0    0  0.20860414349E+03 -0.15877450903E+03 -0.77719616048E+03  0.82021881548E+03  0.00000000000E+00 0.  1.
          3    1    3    3  501    0 -0.20863178032E+03  0.15877740701E+03 -0.11591772613E+03  0.28666078205E+03  0.00000000000E+00 0.  1.
         21    1    1    2  502  501  0.27636828014E-01 -0.28979783372E-02  0.55996881901E-01  0.62512745291E-01  0.00000000000E+00 0.  1.
<mgrwt>
<rscale>  1 0.65385780E+03</rscale>
<asrwt>0</asrwt>
<pdfrwt beam="1">  1        1 0.38888122E+00 0.65385780E+03</pdfrwt>
<pdfrwt beam="2">0</pdfrwt>
<totfact> 0.14980202E+00</totfact>
</mgrwt>
</event>
<event>
 6    1  0.1175152E-003  0.6420499E+03  0.7818608E-02  0.9821812E-01
          3   -1    0    0  502    0  0.00000000000E+00  0.00000000000E+00  0.10320637082E+03  0.10320637082E+03  0.00000000000E+00 0.  1.
         13   -1    0    0    0    0 -0.00000000000E+00 -0.00000000000E+00 -0.10000000000E+04  0.10000000000E+04  0.00000000000E+00 0.  1.
    9000005    2    1    2  501    0 -0.13281560879E-02 -0.31366410546E-02 -0.89694295493E+03  0.11030570062E+04  0.64204991596E+03 0.  0.
         13    1    3    3    0    0  0.11343004207E+03 -0.37685162701E+02  0.63402937842E+02  0.13530143554E+03  0.00000000000E+00 0.  1.
          3    1    3    3  501    0 -0.11343137023E+03  0.37682026060E+02 -0.96034589277E+03  0.96775557069E+03  0.00000000000E+00 0.  1.
         21    1    1    2  502  501  0.13281560879E-02  0.31366410546E-02  0.14932574418E+00  0.14936458881E+00  0.00000000000E+00 0. -1.
<mgrwt>
<rscale>  1 0.64204992E+03</rscale>
<asrwt>0</asrwt>
<pdfrwt beam="1">  1        3 0.37529669E+00 0.64204992E+03</pdfrwt>
<pdfrwt beam="2">0</pdfrwt>
<totfact> 0.80031301E-02</totfact>
</mgrwt>
</event>
<event>
 6    1  0.1175152E-003  0.6432533E+03  0.7818608E-02  0.9819522E-01
          1   -1    0    0  502    0  0.00000000000E+00  0.00000000000E+00  0.10365973072E+03  0.10365973072E+03  0.00000000000E+00 0.  1.
         13   -1    0    0    0    0 -0.00000000000E+00 -0.00000000000E+00 -0.10000000000E+04  0.10000000000E+04  0.00000000000E+00 0.  1.
    9000005    2    1    2  501    0 -0.24301678887E-01 -0.16288147608E-02 -0.89655552963E+03  0.11034430968E+04  0.64325333238E+03 0.  0.
         13    1    3    3    0    0  0.17581138295E+03 -0.24718422449E+02 -0.90830184725E+03  0.92549062043E+03  0.00000000000E+00 0.  1.
          1    1    3    3  501    0 -0.17583568463E+03  0.24716793635E+02  0.11746317616E+02  0.17795247639E+03  0.00000000000E+00 0.  1.
         21    1    1    2  502  501  0.24301678887E-01  0.16288147608E-02  0.21526035785E+00  0.21663389923E+00  0.00000000000E+00 0.  1.
<mgrwt>
<rscale>  1 0.64325333E+03</rscale>
<asrwt>0</asrwt>
<pdfrwt beam="1">  1        1 0.37694527E+00 0.64325333E+03</pdfrwt>
<pdfrwt beam="2">0</pdfrwt>
<totfact> 0.16947579E+00</totfact>
</mgrwt>
</event>
<event>
 6    1  0.1175152E-003  0.6502322E+03  0.7818608E-02  0.9806344E-01
          1   -1    0    0  502    0  0.00000000000E+00  0.00000000000E+00  0.10578232726E+03  0.10578232726E+03  0.00000000000E+00 0.  1.
         13   -1    0    0    0    0 -0.00000000000E+00 -0.00000000000E+00 -0.10000000000E+04  0.10000000000E+04  0.00000000000E+00 0.  1.
    9000005    2    1    2  501    0  0.26509090316E-02  0.55632386608E-03 -0.89429951140E+03  0.11057004438E+04  0.65023215491E+03 0.  0.
         13    1    3    3    0    0 -0.27516804906E+03  0.16931452608E+03 -0.38548520998E+03  0.50297486128E+03  0.00000000000E+00 0.  1.
          1    1    3    3  501    0  0.27517069997E+03 -0.16931396976E+03 -0.50881430142E+03  0.60272558251E+03  0.00000000000E+00 0.  1.
         21    1    1    2  502  501 -0.26509090316E-02 -0.55632386606E-03  0.81838661263E-01  0.81883473865E-01  0.00000000000E+00 0.  1.
<mgrwt>
<rscale>  1 0.65023215E+03</rscale>
<asrwt>0</asrwt>
<pdfrwt beam="1">  1        1 0.38466382E+00 0.65023215E+03</pdfrwt>
<pdfrwt beam="2">0</pdfrwt>
<totfact> 0.15648780E+00</totfact>
</mgrwt>
</event>
<event>
 6    1  0.1175152E-003  0.6645417E+03  0.7818608E-02  0.9779869E-01
          1   -1    0    0  502    0  0.00000000000E+00  0.00000000000E+00  0.11218904010E+03  0.11218904010E+03  0.00000000000E+00 0.  1.
         13   -1    0    0    0    0 -0.00000000000E+00 -0.00000000000E+00 -0.10000000000E+04  0.10000000000E+04  0.00000000000E+00 0.  1.
    9000005    2    1    2  501    0  0.33582009040E-01 -0.17448781756E+00 -0.88959118179E+03  0.11103999723E+04  0.66454164363E+03 0.  0.
         13    1    3    3    0    0 -0.31681030170E+03  0.33310175618E+02 -0.28704695750E+03  0.42880565630E+03  0.00000000000E+00 0.  1.
          3    1    3    3  501    0  0.31684388371E+03 -0.33484663436E+02 -0.60254422429E+03  0.68159431597E+03  0.00000000000E+00 0.  1.
         21    1    1    2  502  501 -0.33582009040E-01  0.17448781756E+00  0.17802218889E+01  0.17890678364E+01  0.00000000000E+00 0. -1.
<mgrwt>
<rscale>  1 0.66454167E+03</rscale>
<asrwt>0</asrwt>
<pdfrwt beam="1">  1        1 0.40796101E+00 0.66454167E+03</pdfrwt>
<pdfrwt beam="2">0</pdfrwt>
<totfact> 0.12292588E+00</totfact>
</mgrwt>
</event>
<event>
 6    1  0.1175152E-003  0.6493920E+03  0.7818608E-02  0.9807921E-01
          1   -1    0    0  502    0  0.00000000000E+00  0.00000000000E+00  0.12582561667E+03  0.12582561667E+03  0.00000000000E+00 0.  1.
         13   -1    0    0    0    0 -0.00000000000E+00 -0.00000000000E+00 -0.10000000000E+04  0.10000000000E+04  0.00000000000E+00 0.  1.
    9000005    2    1    2  501    0  0.14590617948E+00 -0.14223854367E+02 -0.89179434237E+03  0.11031804786E+04  0.64923622815E+03 0.  0.
         13    1    3    3    0    0 -0.29216045830E+03 -0.14244996177E+03 -0.38048544963E+03  0.50041872705E+03  0.00000000000E+00 0.  1.
          1    1    3    3  501    0  0.29230636448E+03  0.12822610740E+03 -0.51130889274E+03  0.60276175155E+03  0.00000000000E+00 0.  1.
         21    1    1    2  502  501 -0.14590617948E+00  0.14223854367E+02  0.17619959041E+02  0.22645138071E+02  0.00000000000E+00 0.  1.
<mgrwt>
<rscale>  1 0.64939204E+03</rscale>
<asrwt>0</asrwt>
<pdfrwt beam="1">  1        1 0.45754866E+00 0.64939204E+03</pdfrwt>
<pdfrwt beam="2">0</pdfrwt>
<totfact> 0.73328902E-01</totfact>
</mgrwt>
</event>
<event>
 6    1  0.1175152E-003  0.6538704E+03  0.7818608E-02  0.9799544E-01
          1   -1    0    0  502    0  0.00000000000E+00  0.00000000000E+00  0.10688767909E+03  0.10688767909E+03  0.00000000000E+00 0.  1.
         13   -1    0    0    0    0 -0.00000000000E+00 -0.00000000000E+00 -0.10000000000E+04  0.10000000000E+04  0.00000000000E+00 0.  1.
    9000005    2    1    2  501    0  0.42497997864E-03  0.26279001185E-03 -0.89311331449E+03  0.11068865669E+04  0.65387038438E+03 0.  0.
         13    1    3    3    0    0  0.20526314431E+02 -0.32212843892E+03 -0.35861956654E+03  0.48248943434E+03  0.00000000000E+00 0.  1.
          3    1    3    3  501    0 -0.20525889451E+02  0.32212870171E+03 -0.53449374795E+03  0.62439713261E+03  0.00000000000E+00 0.  1.
         21    1    1    2  502  501 -0.42497997864E-03 -0.26279001190E-03  0.99357970005E-03  0.11121453111E-02  0.00000000000E+00 0. -1.
<mgrwt>
<rscale>  1 0.65387038E+03</rscale>
<asrwt>0</asrwt>
<pdfrwt beam="1">  1        1 0.38868329E+00 0.65387038E+03</pdfrwt>
<pdfrwt beam="2">0</pdfrwt>
<totfact> 0.15010456E+00</totfact>
</mgrwt>
</event>
<event>
 6    1  0.1175152E-003  0.6466595E+03  0.7818608E-02  0.9813068E-01
          1   -1    0    0  502    0  0.00000000000E+00  0.00000000000E+00  0.10476988012E+03  0.10476988012E+03  0.00000000000E+00 0.  1.
         13   -1    0    0    0    0 -0.00000000000E+00 -0.00000000000E+00 -0.10000000000E+04  0.10000000000E+04  0.00000000000E+00 0.  1.
    9000005    2    1    2  501    0  0.18638516699E+00  0.89059709960E-01 -0.89540498992E+03  0.11044992317E+04  0.64665942665E+03 0.  0.
         13    1    3    3    0    0  0.51795205915E+02  0.20231246370E+03 -0.86945866290E+03  0.89418758816E+03  0.00000000000E+00 0.  1.
          3    1    3    3  501    0 -0.51608820748E+02 -0.20222340399E+03 -0.25946327016E+02  0.21031164349E+03  0.00000000000E+00 0.  1.
         21    1    1    2  502  501 -0.18638516699E+00 -0.89059709960E-01  0.17487003630E+00  0.27064846574E+00  0.00000000000E+00 0.  1.
<mgrwt>
<rscale>  1 0.64665946E+03</rscale>
<asrwt>0</asrwt>
<pdfrwt beam="1">  1        1 0.38098219E+00 0.64665946E+03</pdfrwt>
<pdfrwt beam="2">0</pdfrwt>
<totfact> 0.16256733E+00</totfact>
</mgrwt>
</event>
<event>
 6    1  0.1175152E-003  0.6505162E+03  0.7818608E-02  0.9805811E-01
          1   -1    0    0  502    0  0.00000000000E+00  0.00000000000E+00  0.10579282325E+03  0.10579282325E+03  0.00000000000E+00 0.  1.
         13   -1    0    0    0    0 -0.00000000000E+00 -0.00000000000E+00 -0.10000000000E+04  0.10000000000E+04  0.00000000000E+00 0.  1.
    9000005    2    1    2  501    0  0.64581294623E-05  0.66288905600E-05 -0.89420717674E+03  0.11057928140E+04  0.65051615857E+03 0.  0.
         13    1    3    3    0    0 -0.26576184892E+03 -0.18734513577E+03 -0.46083522127E+03  0.56400058635E+03  0.00000000000E+00 0.  1.
          3    1    3    3  501    0  0.26576185538E+03  0.18734514240E+03 -0.43337195546E+03  0.54179222765E+03  0.00000000000E+00 0.  1.
         21    1    1    2  502  501 -0.64581294900E-05 -0.66288905523E-05 -0.12071414728E-07  0.92547162130E-05  0.00000000000E+00 0. -1.
<mgrwt>
<rscale>  1 0.65051616E+03</rscale>
<asrwt>0</asrwt>
<pdfrwt beam="1">  1        1 0.38470199E+00 0.65051616E+03</pdfrwt>
<pdfrwt beam="2">0</pdfrwt>
<totfact> 0.15641880E+00</totfact>
</mgrwt>
</event>
<event>
 6    1  0.1175152E-003  0.6471856E+03  0.7818608E-02  0.9812075E-01
          1   -1    0    0  502    0  0.00000000000E+00  0.00000000000E+00  0.10853574386E+03  0.10853574386E+03  0.00000000000E+00 0.  1.
         13   -1    0    0    0    0 -0.00000000000E+00 -0.00000000000E+00 -0.10000000000E+04  0.10000000000E+04  0.00000000000E+00 0.  1.
    9000005    2    1    2  501    0 -0.19186742917E+00 -0.21258612988E-01 -0.89528500504E+03  0.11047101214E+04  0.64718557988E+03 0.  0.
         13    1    3    3    0    0 -0.26785055977E+03  0.14434414506E+02 -0.75694481949E+03  0.80306770228E+03  0.00000000000E+00 0.  1.
          3    1    3    3  501    0  0.26765869235E+03 -0.14455673119E+02 -0.13834018555E+03  0.30164241912E+03  0.00000000000E+00 0.  1.
         21    1    1    2  502  501  0.19186742917E+00  0.21258612988E-01  0.38207489037E+01  0.38256224623E+01  0.00000000000E+00 0. -1.
<mgrwt>
<rscale>  1 0.64718561E+03</rscale>
<asrwt>0</asrwt>
<pdfrwt beam="1">  1        1 0.39467626E+00 0.64718561E+03</pdfrwt>
<pdfrwt beam="2">0</pdfrwt>
<totfact> 0.14136467E+00</totfact>
</mgrwt>
</event>
<event>
 6    1  0.1175152E-003  0.6912161E+03  0.7818608E-02  0.9732373E-01
          1   -1    0    0  502    0  0.00000000000E+00  0.00000000000E+00  0.12591683886E+03  0.12591683886E+03  0.00000000000E+00 0.  1.
         13   -1    0    0    0    0 -0.00000000000E+00 -0.00000000000E+00 -0.10000000000E+04  0.10000000000E+04  0.00000000000E+00 0.  1.
    9000005    2    1    2  501    0 -0.10501130846E+00  0.48479513588E-02 -0.88055458313E+03  0.11194445631E+04  0.69121613475E+03 0.  0.
         13    1    3    3    0    0  0.20926048576E+03 -0.74087707765E+01  0.49955764902E+01  0.20945117944E+03  0.00000000000E+00 0.  1.
          1    1    3    3  501    0 -0.20936549707E+03  0.74136187278E+01 -0.88555015962E+03  0.90999338366E+03  0.00000000000E+00 0.  1.
         21    1    1    2  502  501  0.10501130846E+00 -0.48479513588E-02  0.64714219943E+01  0.64722757594E+01  0.00000000000E+00 0.  1.
<mgrwt>
<rscale>  1 0.69121614E+03</rscale>
<asrwt>0</asrwt>
<pdfrwt beam="1">  1        1 0.45788038E+00 0.69121614E+03</pdfrwt>
<pdfrwt beam="2">0</pdfrwt>
<totfact> 0.72442961E-01</totfact>
</mgrwt>
</event>
<event>
 6    1  0.1175152E-003  0.5650205E+03  0.7818608E-02  0.9980759E-01
          1   -1    0    0  502    0  0.00000000000E+00  0.00000000000E+00  0.79813376820E+02  0.79813376820E+02  0.00000000000E+00 0.  1.
         13   -1    0    0    0    0 -0.00000000000E+00 -0.00000000000E+00 -0.10000000000E+04  0.10000000000E+04  0.00000000000E+00 0.  1.
    9000005    2    1    2  501    0  0.50175692954E-03  0.17324372566E-02 -0.92018729612E+03  0.10798114517E+04  0.56502045216E+03 0.  0.
         13    1    3    3    0    0  0.14687118923E+03 -0.12575597830E+03 -0.66451910623E+02  0.20445431942E+03  0.00000000000E+00 0.  1.
          1    1    3    3  501    0 -0.14687068747E+03  0.12575771074E+03 -0.85373538550E+03  0.87535713232E+03  0.00000000000E+00 0.  1.
         21    1    1    2  502  501 -0.50175692952E-03 -0.17324372566E-02  0.67293955997E-03  0.19250835088E-02  0.00000000000E+00 0.  1.
<mgrwt>
<rscale>  1 0.56502045E+03</rscale>
<asrwt>0</asrwt>
<pdfrwt beam="1">  1        1 0.29023107E+00 0.56502045E+03</pdfrwt>
<pdfrwt beam="2">0</pdfrwt>
<totfact> 0.40909867E+00</totfact>
</mgrwt>
</event>
<event>
 6    1  0.1175152E-003  0.6500417E+03  0.7818608E-02  0.9806701E-01
          1   -1    0    0  502    0  0.00000000000E+00  0.00000000000E+00  0.10600487907E+03  0.10600487907E+03  0.00000000000E+00 0.  1.
         13   -1    0    0    0    0 -0.00000000000E+00 -0.00000000000E+00 -0.10000000000E+04  0.10000000000E+04  0.00000000000E+00 0.  1.
    9000005    2    1    2  501    0  0.35961576927E-01 -0.37869867545E+00 -0.89424896162E+03  0.11055475597E+04  0.65004158072E+03 0.  0.
         13    1    3    3    0    0 -0.10372406118E+03  0.29251940786E+03 -0.28377362690E+03  0.42053983898E+03  0.00000000000E+00 0.  1.
          1    1    3    3  501    0  0.10376002276E+03 -0.29289810653E+03 -0.61047533472E+03  0.68500772071E+03  0.00000000000E+00 0.  1.
         21    1    1    2  502  501 -0.35961576927E-01  0.37869867545E+00  0.25384069485E+00  0.45731938529E+00  0.00000000000E+00 0. -1.
<mgrwt>
<rscale>  1 0.65004169E+03</rscale>
<asrwt>0</asrwt>
<pdfrwt beam="1">  1        1 0.38547310E+00 0.65004169E+03</pdfrwt>
<pdfrwt beam="2">0</pdfrwt>
<totfact> 0.15520870E+00</totfact>
</mgrwt>
</event>
<event>
 6    1  0.1175152E-003  0.6284941E+03  0.7818608E-02  0.9847992E-01
          1   -1    0    0  502    0  0.00000000000E+00  0.00000000000E+00  0.98959308311E+02  0.98959308311E+02  0.00000000000E+00 0.  1.
         13   -1    0    0    0    0 -0.00000000000E+00 -0.00000000000E+00 -0.10000000000E+04  0.10000000000E+04  0.00000000000E+00 0.  1.
    9000005    2    1    2  501    0  0.37702935124E-02 -0.97421053779E-02 -0.90124863651E+03  0.10987511013E+04  0.62849413493E+03 0.  0.
         13    1    3    3    0    0  0.15818046875E+03  0.21528873722E+03 -0.16134636460E+03  0.31209445756E+03  0.00000000000E+00 0.  1.
          1    1    3    3  501    0 -0.15817669845E+03 -0.21529847933E+03 -0.73990227190E+03  0.78665664372E+03  0.00000000000E+00 0.  1.
         21    1    1    2  502  501 -0.37702935124E-02  0.97421053779E-02  0.20794481612E+00  0.20820703706E+00  0.00000000000E+00 0. -1.
<mgrwt>
<rscale>  1 0.62849414E+03</rscale>
<asrwt>0</asrwt>
<pdfrwt beam="1">  1        1 0.35985279E+00 0.62849414E+03</pdfrwt>
<pdfrwt beam="2">0</pdfrwt>
<totfact> 0.20197217E+00</totfact>
</mgrwt>
</event>
<event>
 6    1  0.1175152E-003  0.6358831E+03  0.7818608E-02  0.9833635E-01
          1   -1    0    0  502    0  0.00000000000E+00  0.00000000000E+00  0.10114684091E+03  0.10114684091E+03  0.00000000000E+00 0.  1.
         13   -1    0    0    0    0 -0.00000000000E+00 -0.00000000000E+00 -0.10000000000E+04  0.10000000000E+04  0.00000000000E+00 0.  1.
    9000005    2    1    2  501    0 -0.39519762111E-01 -0.17801526764E+00 -0.89867042525E+03  0.11008886880E+04  0.63588311583E+03 0.  0.
         13    1    3    3    0    0 -0.25295682929E+03  0.18501401522E+03 -0.54165296323E+03  0.62578372933E+03  0.00000000000E+00 0.  1.
          3    1    3    3  501    0  0.25291730953E+03 -0.18519203049E+03 -0.35701746202E+03  0.47510495872E+03  0.00000000000E+00 0.  1.
         21    1    1    2  502  501  0.39519762111E-01  0.17801526764E+00 -0.18273383274E+00  0.25815286312E+00  0.00000000000E+00 0. -1.
<mgrwt>
<rscale>  1 0.63588314E+03</rscale>
<asrwt>0</asrwt>
<pdfrwt beam="1">  1        1 0.36780747E+00 0.63588314E+03</pdfrwt>
<pdfrwt beam="2">0</pdfrwt>
<totfact> 0.18615159E+00</totfact>
</mgrwt>
</event>
<event>
 6    1  0.1175152E-003  0.6482310E+03  0.7818608E-02  0.9810104E-01
          1   -1    0    0  502    0  0.00000000000E+00  0.00000000000E+00  0.10505098813E+03  0.10505098813E+03  0.00000000000E+00 0.  1.
         13   -1    0    0    0    0 -0.00000000000E+00 -0.00000000000E+00 -0.10000000000E+04  0.10000000000E+04  0.00000000000E+00 0.  1.
    9000005    2    1    2  501    0  0.28745273653E-04 -0.24132500235E-03 -0.89494899979E+03  0.11050507448E+04  0.64823100541E+03 0.  0.
         13    1    3    3    0    0  0.16742496259E+03 -0.18673573114E+03 -0.79745920375E+03  0.83596802153E+03  0.00000000000E+00 0.  1.
          3    1    3    3  501    0 -0.16742493385E+03  0.18673548981E+03 -0.97489796038E+02  0.26908272327E+03  0.00000000000E+00 0.  1.
         21    1    1    2  502  501 -0.28745273662E-04  0.24132500233E-03 -0.12080812205E-04  0.24333103692E-03  0.00000000000E+00 0. -1.
<mgrwt>
<rscale>  1 0.64823101E+03</rscale>
<asrwt>0</asrwt>
<pdfrwt beam="1">  1        1 0.38200440E+00 0.64823101E+03</pdfrwt>
<pdfrwt beam="2">0</pdfrwt>
<totfact> 0.16084002E+00</totfact>
</mgrwt>
</event>
<event>
 6    1  0.1175152E-003  0.6425908E+03  0.7818608E-02  0.9820782E-01
          1   -1    0    0  502    0  0.00000000000E+00  0.00000000000E+00  0.10341889270E+03  0.10341889270E+03  0.00000000000E+00 0.  1.
         13   -1    0    0    0    0 -0.00000000000E+00 -0.00000000000E+00 -0.10000000000E+04  0.10000000000E+04  0.00000000000E+00 0.  1.
    9000005    2    1    2  501    0 -0.12072229129E+00 -0.55947528402E+00 -0.89555491022E+03  0.11022438749E+04  0.64259056551E+03 0.  0.
         13    1    3    3    0    0 -0.21214023969E+03 -0.14738151334E+03 -0.11979071257E+03  0.28473602967E+03  0.00000000000E+00 0.  1.
          1    1    3    3  501    0  0.21201951740E+03  0.14682203806E+03 -0.77576419765E+03  0.81750784520E+03  0.00000000000E+00 0.  1.
         21    1    1    2  502  501  0.12072229129E+00  0.55947528402E+00 -0.10261970801E+01  0.11750178349E+01  0.00000000000E+00 0. -1.
<mgrwt>
<rscale>  1 0.64259082E+03</rscale>
<asrwt>0</asrwt>
<pdfrwt beam="1">  1        1 0.37606949E+00 0.64259082E+03</pdfrwt>
<pdfrwt beam="2">0</pdfrwt>
<totfact> 0.17100863E+00</totfact>
</mgrwt>
</event>
<event>
 6    1  0.1175152E-003  0.6511696E+03  0.7818608E-02  0.9804587E-01
          1   -1    0    0  502    0  0.00000000000E+00  0.00000000000E+00  0.10600702225E+03  0.10600702225E+03  0.00000000000E+00 0.  1.
         13   -1    0    0    0    0 -0.00000000000E+00 -0.00000000000E+00 -0.10000000000E+04  0.10000000000E+04  0.00000000000E+00 0.  1.
    9000005    2    1    2  501    0 -0.10896514822E-02 -0.21331525085E-03 -0.89399431711E+03  0.11060052825E+04  0.65116959840E+03 0.  0.
         13    1    3    3    0    0 -0.54591896505E+02 -0.16675630862E+03  0.18827717734E+02  0.17647216377E+03  0.00000000000E+00 0.  1.
          3    1    3    3  501    0  0.54590806854E+02  0.16675609531E+03 -0.91282203485E+03  0.92953311873E+03  0.00000000000E+00 0.  1.
         21    1    1    2  502  501  0.10896514822E-02  0.21331525084E-03  0.13393609445E-02  0.17397504098E-02  0.00000000000E+00 0. -1.
<mgrwt>
<rscale>  1 0.65116960E+03</rscale>
<asrwt>0</asrwt>
<pdfrwt beam="1">  1        1 0.38548089E+00 0.65116960E+03</pdfrwt>
<pdfrwt beam="2">0</pdfrwt>
<totfact> 0.15516404E+00</totfact>
</mgrwt>
</event>
<event>
 6    1  0.1175152E-003  0.6610418E+03  0.7818608E-02  0.9786278E-01
          1   -1    0    0  502    0  0.00000000000E+00  0.00000000000E+00  0.10924410364E+03  0.10924410364E+03  0.00000000000E+00 0.  1.
         13   -1    0    0    0    0 -0.00000000000E+00 -0.00000000000E+00 -0.10000000000E+04  0.10000000000E+04  0.00000000000E+00 0.  1.
    9000005    2    1    2  501    0 -0.44497528389E-04  0.13412183858E-03 -0.89075580924E+03  0.11092439376E+04  0.66104175471E+03 0.  0.
         13    1    3    3    0    0 -0.99222047184E+01 -0.32933592639E+03 -0.40151091444E+03  0.51939543411E+03  0.00000000000E+00 0.  1.
          3    1    3    3  501    0  0.99221602209E+01  0.32933606051E+03 -0.48924489480E+03  0.58984850352E+03  0.00000000000E+00 0.  1.
         21    1    1    2  502  501  0.44497528389E-04 -0.13412183858E-03 -0.87123653910E-04  0.16600972468E-03  0.00000000000E+00 0.  1.
<mgrwt>
<rscale>  1 0.66104175E+03</rscale>
<asrwt>0</asrwt>
<pdfrwt beam="1">  1        1 0.39725212E+00 0.66104175E+03</pdfrwt>
<pdfrwt beam="2">0</pdfrwt>
<totfact> 0.13732598E+00</totfact>
</mgrwt>
</event>
<event>
 6    1  0.1175152E-003  0.6747364E+03  0.7818608E-02  0.9761439E-01
          1   -1    0    0  502    0  0.00000000000E+00  0.00000000000E+00  0.11382198935E+03  0.11382198935E+03  0.00000000000E+00 0.  1.
         13   -1    0    0    0    0 -0.00000000000E+00 -0.00000000000E+00 -0.10000000000E+04  0.10000000000E+04  0.00000000000E+00 0.  1.
    9000005    2    1    2  501    0 -0.47584045456E-03 -0.37609554221E-03 -0.88618266599E+03  0.11138172947E+04  0.67473642883E+03 0.  0.
         13    1    3    3    0    0 -0.14607873019E+03  0.27021746210E+03 -0.67337339632E+03  0.74012715334E+03  0.00000000000E+00 0.  1.
          1    1    3    3  501    0  0.14607825435E+03 -0.27021783819E+03 -0.21280926967E+03  0.37369014133E+03  0.00000000000E+00 0.  1.
         21    1    1    2  502  501  0.47584045457E-03  0.37609554216E-03  0.46553383327E-02  0.46946828420E-02  0.00000000000E+00 0.  1.
<mgrwt>
<rscale>  1 0.67473643E+03</rscale>
<asrwt>0</asrwt>
<pdfrwt beam="1">  1        1 0.41389902E+00 0.67473643E+03</pdfrwt>
<pdfrwt beam="2">0</pdfrwt>
<totfact> 0.11538628E+00</totfact>
</mgrwt>
</event>
<event>
 6    1  0.1175152E-003  0.6429858E+03  0.7818608E-02  0.9820030E-01
          1   -1    0    0  502    0  0.00000000000E+00  0.00000000000E+00  0.13578478001E+03  0.13578478001E+03  0.00000000000E+00 0.  1.
         13   -1    0    0    0    0 -0.00000000000E+00 -0.00000000000E+00 -0.10000000000E+04  0.10000000000E+04  0.00000000000E+00 0.  1.
    9000005    2    1    2  501    0 -0.26097350816E+02 -0.18587822190E+02 -0.88766870518E+03  0.10960777930E+04  0.64218705936E+03 0.  0.
         13    1    3    3    0    0 -0.17274860241E+02 -0.32278191849E+03 -0.33733187441E+03  0.46720378979E+03  0.00000000000E+00 0.  1.
          3    1    3    3  501    0 -0.88224905747E+01  0.30419409630E+03 -0.55033683077E+03  0.62887400317E+03  0.00000000000E+00 0.  1.
         21    1    1    2  502  501  0.26097350816E+02  0.18587822190E+02  0.23453485194E+02  0.39706987056E+02  0.00000000000E+00 0. -1.
<mgrwt>
<rscale>  1 0.64298585E+03</rscale>
<asrwt>0</asrwt>
<pdfrwt beam="1">  1        1 0.49376388E+00 0.64298585E+03</pdfrwt>
<pdfrwt beam="2">0</pdfrwt>
<totfact> 0.49610537E-01</totfact>
</mgrwt>
</event>
<event>
 6    1  0.1175152E-003  0.6157527E+03  0.7818608E-02  0.9873253E-01
          1   -1    0    0  502    0  0.00000000000E+00  0.00000000000E+00  0.94788798009E+02  0.94788798009E+02  0.00000000000E+00 0.  1.
         13   -1    0    0    0    0 -0.00000000000E+00 -0.00000000000E+00 -0.10000000000E+04  0.10000000000E+04  0.00000000000E+00 0.  1.
    9000005    2    1    2  501    0 -0.16421374124E-03 -0.11887562135E-03 -0.90521215257E+03  0.10947878261E+04  0.61575266376E+03 0.  0.
         13    1    3    3    0    0  0.21412764195E+03 -0.21631073981E+03 -0.53498643754E+03  0.61550911574E+03  0.00000000000E+00 0.  1.
          3    1    3    3  501    0 -0.21412780616E+03  0.21631062093E+03 -0.37022571503E+03  0.47927871032E+03  0.00000000000E+00 0.  1.
         21    1    1    2  502  501  0.16421374126E-03  0.11887562134E-03  0.95057575161E-03  0.97195258409E-03  0.00000000000E+00 0. -1.
<mgrwt>
<rscale>  1 0.61575266E+03</rscale>
<asrwt>0</asrwt>
<pdfrwt beam="1">  1        1 0.34468727E+00 0.61575266E+03</pdfrwt>
<pdfrwt beam="2">0</pdfrwt>
<totfact> 0.23573281E+00</totfact>
</mgrwt>
</event>
<event>
 6    1  0.1175152E-003  0.6433436E+03  0.7818608E-02  0.9819350E-01
          3   -1    0    0  502    0  0.00000000000E+00  0.00000000000E+00  0.10363727703E+03  0.10363727703E+03  0.00000000000E+00 0.  1.
         13   -1    0    0    0    0 -0.00000000000E+00 -0.00000000000E+00 -0.10000000000E+04  0.10000000000E+04  0.00000000000E+00 0.  1.
    9000005    2    1    2  501    0 -0.36310870515E-02  0.43806914359E-02 -0.89652720116E+03  0.11034727004E+04  0.64334359263E+03 0.  0.
         13    1    3    3    0    0  0.13846004297E+03 -0.26557451713E+03 -0.64953353793E+03  0.71525857181E+03  0.00000000000E+00 0.  1.
          3    1    3    3  501    0 -0.13846367406E+03  0.26557889782E+03 -0.24699366323E+03  0.38821412864E+03  0.00000000000E+00 0.  1.
         21    1    1    2  502  501  0.36310870515E-02 -0.43806914359E-02  0.16447819303E+00  0.16457658167E+00  0.00000000000E+00 0. -1.
<mgrwt>
<rscale>  1 0.64334359E+03</rscale>
<asrwt>0</asrwt>
<pdfrwt beam="1">  1        3 0.37686362E+00 0.64334359E+03</pdfrwt>
<pdfrwt beam="2">0</pdfrwt>
<totfact> 0.78501907E-02</totfact>
</mgrwt>
</event>
<event>
 6    1  0.1175152E-003  0.6635823E+03  0.7818608E-02  0.9781622E-01
          1   -1    0    0  502    0  0.00000000000E+00  0.00000000000E+00  0.11029545715E+03  0.11029545715E+03  0.00000000000E+00 0.  1.
         13   -1    0    0    0    0 -0.00000000000E+00 -0.00000000000E+00 -0.10000000000E+04  0.10000000000E+04  0.00000000000E+00 0.  1.
    9000005    2    1    2  501    0 -0.24824378198E+00  0.16778135128E+00 -0.88978855494E+03  0.11099842762E+04  0.66358219620E+03 0.  0.
         13    1    3    3    0    0 -0.16314242018E+03 -0.11913082574E+03 -0.46007462275E+01  0.20206130201E+03  0.00000000000E+00 0.  1.
          1    1    3    3  501    0  0.16289417640E+03  0.11929860709E+03 -0.88518780871E+03  0.90792297418E+03  0.00000000000E+00 0.  1.
         21    1    1    2  502  501  0.24824378198E+00 -0.16778135128E+00  0.84012089054E-01  0.31118095738E+00  0.00000000000E+00 0.  1.
<mgrwt>
<rscale>  1 0.66358226E+03</rscale>
<asrwt>0</asrwt>
<pdfrwt beam="1">  1        1 0.40107524E+00 0.66358226E+03</pdfrwt>
<pdfrwt beam="2">0</pdfrwt>
<totfact> 0.13197938E+00</totfact>
</mgrwt>
</event>
<event>
 6    1  0.1175152E-003  0.6372031E+03  0.7818608E-02  0.9831092E-01
          1   -1    0    0  502    0  0.00000000000E+00  0.00000000000E+00  0.10275429365E+03  0.10275429365E+03  0.00000000000E+00 0.  1.
         13   -1    0    0    0    0 -0.00000000000E+00 -0.00000000000E+00 -0.10000000000E+04  0.10000000000E+04  0.00000000000E+00 0.  1.
    9000005    2    1    2  501    0  0.24113771264E-01 -0.54109114255E-02 -0.89849292339E+03  0.11015068318E+04  0.63720308104E+03 0.  0.
         13    1    3    3    0    0 -0.20519158829E+03 -0.18165739656E+03 -0.16836395974E+03  0.32163553996E+03  0.00000000000E+00 0.  1.
          3    1    3    3  501    0  0.20521570206E+03  0.18165198565E+03 -0.73012896364E+03  0.77987129182E+03  0.00000000000E+00 0.  1.
         21    1    1    2  502  501 -0.24113771264E-01  0.54109114255E-02  0.12472170348E+01  0.12474618566E+01  0.00000000000E+00 0.  1.
<mgrwt>
<rscale>  1 0.63720308E+03</rscale>
<asrwt>0</asrwt>
<pdfrwt beam="1">  1        1 0.37365276E+00 0.63720308E+03</pdfrwt>
<pdfrwt beam="2">0</pdfrwt>
<totfact> 0.17542189E+00</totfact>
</mgrwt>
</event>
<event>
 6    1  0.1175152E-003  0.6859184E+03  0.7818608E-02  0.9741621E-01
          1   -1    0    0  502    0  0.00000000000E+00  0.00000000000E+00  0.12362641823E+03  0.12362641823E+03  0.00000000000E+00 0.  1.
         13   -1    0    0    0    0 -0.00000000000E+00 -0.00000000000E+00 -0.10000000000E+04  0.10000000000E+04  0.00000000000E+00 0.  1.
    9000005    2    1    2  501    0  0.34096127072E+01  0.58731710028E+01 -0.88014516649E+03  0.11158582494E+04  0.68588482922E+03 0.  0.
         13    1    3    3    0    0 -0.18001056689E+03  0.94161295235E+02 -0.88918344969E+03  0.91209503941E+03  0.00000000000E+00 0.  1.
          3    1    3    3  501    0  0.18342017959E+03 -0.88288124232E+02  0.90382832047E+01  0.20376320994E+03  0.00000000000E+00 0.  1.
         21    1    1    2  502  501 -0.34096127072E+01 -0.58731710028E+01  0.37715847181E+01  0.77681688786E+01  0.00000000000E+00 0. -1.
<mgrwt>
<rscale>  1 0.68591845E+03</rscale>
<asrwt>0</asrwt>
<pdfrwt beam="1">  1        1 0.44955156E+00 0.68591845E+03</pdfrwt>
<pdfrwt beam="2">0</pdfrwt>
<totfact> 0.79244606E-01</totfact>
</mgrwt>
</event>
<event>
 6    1  0.1175152E-003  0.6521115E+03  0.7818608E-02  0.9802825E-01
          1   -1    0    0  502    0  0.00000000000E+00  0.00000000000E+00  0.11066685417E+03  0.11066685417E+03  0.00000000000E+00 0.  1.
         13   -1    0    0    0    0 -0.00000000000E+00 -0.00000000000E+00 -0.10000000000E+04  0.10000000000E+04  0.00000000000E+00 0.  1.
    9000005    2    1    2  501    0  0.70220232996E+00  0.17455537236E+01 -0.89346166007E+03  0.11061298204E+04  0.65210881105E+03 0.  0.
         13    1    3    3    0    0  0.23095547648E+03 -0.22908784239E+03 -0.41933586425E+03  0.53072049017E+03  0.00000000000E+00 0.  1.
          1    1    3    3  501    0 -0.23025327415E+03  0.23083339611E+03 -0.47412579582E+03  0.57540933020E+03  0.00000000000E+00 0.  1.
         21    1    1    2  502  501 -0.70220232996E+00 -0.17455537236E+01  0.41285142422E+01  0.45370338066E+01  0.00000000000E+00 0. -1.
<mgrwt>
<rscale>  1 0.65211153E+03</rscale>
<asrwt>0</asrwt>
<pdfrwt beam="1">  1        1 0.40242577E+00 0.65211153E+03</pdfrwt>
<pdfrwt beam="2">0</pdfrwt>
<totfact> 0.13044285E+00</totfact>
</mgrwt>
</event>
<event>
 6    1  0.1175152E-003  0.6460361E+03  0.7818608E-02  0.9814246E-01
          1   -1    0    0  502    0  0.00000000000E+00  0.00000000000E+00  0.10434372709E+03  0.10434372709E+03  0.00000000000E+00 0.  1.
         13   -1    0    0    0    0 -0.00000000000E+00 -0.00000000000E+00 -0.10000000000E+04  0.10000000000E+04  0.00000000000E+00 0.  1.
    9000005    2    1    2  501    0  0.10273419818E-03  0.88663613543E-02 -0.89564898753E+03  0.11043322510E+04  0.64603607620E+03 0.  0.
         13    1    3    3    0    0 -0.24109983319E+03 -0.21292757315E+03 -0.39735814771E+03  0.51123456312E+03  0.00000000000E+00 0.  1.
          1    1    3    3  501    0  0.24109993593E+03  0.21293643952E+03 -0.49829083982E+03  0.59309768793E+03  0.00000000000E+00 0.  1.
         21    1    1    2  502  501 -0.10273419818E-03 -0.88663613543E-02 -0.72853733789E-02  0.11476043885E-01  0.00000000000E+00 0. -1.
<mgrwt>
<rscale>  1 0.64603608E+03</rscale>
<asrwt>0</asrwt>
<pdfrwt beam="1">  1        1 0.37943254E+00 0.64603608E+03</pdfrwt>
<pdfrwt beam="2">0</pdfrwt>
<totfact> 0.16516618E+00</totfact>
</mgrwt>
</event>
<event>
 6    1  0.1175152E-003  0.6494881E+03  0.7818608E-02  0.9807740E-01
          1   -1    0    0  502    0  0.00000000000E+00  0.00000000000E+00  0.10546419099E+03  0.10546419099E+03  0.00000000000E+00 0.  1.
         13   -1    0    0    0    0 -0.00000000000E+00 -0.00000000000E+00 -0.10000000000E+04  0.10000000000E+04  0.00000000000E+00 0.  1.
    9000005    2    1    2  501    0  0.11928622422E-01 -0.59056161637E-02 -0.89453027253E+03  0.11054497750E+04  0.64948810335E+03 0.  0.
         13    1    3    3    0    0 -0.16704562876E+03 -0.24432667311E+03 -0.67471551692E+03  0.73677730289E+03  0.00000000000E+00 0.  1.
          1    1    3    3  501    0  0.16705755738E+03  0.24432076749E+03 -0.21981475561E+03  0.36867247211E+03  0.00000000000E+00 0.  1.
         21    1    1    2  502  501 -0.11928622422E-01  0.59056161637E-02 -0.55364808275E-02  0.14415996501E-01  0.00000000000E+00 0.  1.
<mgrwt>
<rscale>  1 0.64948810E+03</rscale>
<asrwt>0</asrwt>
<pdfrwt beam="1">  1        1 0.38350696E+00 0.64948810E+03</pdfrwt>
<pdfrwt beam="2">0</pdfrwt>
<totfact> 0.15836340E+00</totfact>
</mgrwt>
</event>
<event>
 6    1  0.1175152E-003  0.6565351E+03  0.7818608E-02  0.9794593E-01
          3   -1    0    0  502    0  0.00000000000E+00  0.00000000000E+00  0.10777337223E+03  0.10777337223E+03  0.00000000000E+00 0.  1.
         13   -1    0    0    0    0 -0.00000000000E+00 -0.00000000000E+00 -0.10000000000E+04  0.10000000000E+04  0.00000000000E+00 0.  1.
    9000005    2    1    2  501    0 -0.38059894126E-01 -0.16618767502E-01 -0.89218008036E+03  0.11077109911E+04  0.65653510369E+03 0.  0.
         13    1    3    3    0    0 -0.30714479468E+03  0.43562630928E+02 -0.26490535883E+03  0.40793440263E+03  0.00000000000E+00 0.  1.
          3    1    3    3  501    0  0.30710673479E+03 -0.43579249695E+02 -0.62727472153E+03  0.69977658851E+03  0.00000000000E+00 0.  1.
         21    1    1    2  502  501  0.38059894126E-01  0.16618767502E-01 -0.46547408191E-01  0.62381088347E-01  0.00000000000E+00 0.  1.
<mgrwt>
<rscale>  1 0.65653511E+03</rscale>
<asrwt>0</asrwt>
<pdfrwt beam="1">  1        3 0.39190400E+00 0.65653511E+03</pdfrwt>
<pdfrwt beam="2">0</pdfrwt>
<totfact> 0.65255612E-02</totfact>
</mgrwt>
</event>
<event>
 6    1  0.1175152E-003  0.6478224E+03  0.7818608E-02  0.9810874E-01
          1   -1    0    0  502    0  0.00000000000E+00  0.00000000000E+00  0.10531284395E+03  0.10531284395E+03  0.00000000000E+00 0.  1.
         13   -1    0    0    0    0 -0.00000000000E+00 -0.00000000000E+00 -0.10000000000E+04  0.10000000000E+04  0.00000000000E+00 0.  1.
    9000005    2    1    2  501    0 -0.34479560178E+00 -0.26949443666E+00 -0.89494276175E+03  0.11048060446E+04  0.64782224258E+03 0.  0.
         13    1    3    3    0    0 -0.29595896644E+03 -0.35717560436E+01 -0.67275996288E+03  0.73499009172E+03  0.00000000000E+00 0.  1.
          1    1    3    3  501    0  0.29561417084E+03  0.33022616069E+01 -0.22218279886E+03  0.36981595293E+03  0.00000000000E+00 0.  1.
         21    1    1    2  502  501  0.34479560178E+00  0.26949443666E+00  0.25560570135E+00  0.50679930245E+00  0.00000000000E+00 0. -1.
<mgrwt>
<rscale>  1 0.64782239E+03</rscale>
<asrwt>0</asrwt>
<pdfrwt beam="1">  1        1 0.38295660E+00 0.64782239E+03</pdfrwt>
<pdfrwt beam="2">0</pdfrwt>
<totfact> 0.15930169E+00</totfact>
</mgrwt>
</event>
<event>
 6    1  0.1175152E-003  0.6511910E+03  0.7818608E-02  0.9804547E-01
          1   -1    0    0  502    0  0.00000000000E+00  0.00000000000E+00  0.10601253375E+03  0.10601253375E+03  0.00000000000E+00 0.  1.
         13   -1    0    0    0    0 -0.00000000000E+00 -0.00000000000E+00 -0.10000000000E+04  0.10000000000E+04  0.00000000000E+00 0.  1.
    9000005    2    1    2  501    0 -0.47425476595E-04 -0.72707099207E-04 -0.89398753803E+03  0.11060124211E+04  0.65119102997E+03 0.  0.
         13    1    3    3    0    0 -0.17671102680E+03  0.26953869397E+03 -0.36852384617E+03  0.48957912510E+03  0.00000000000E+00 0.  1.
          1    1    3    3  501    0  0.17671097938E+03 -0.26953876668E+03 -0.52546369186E+03  0.61643329601E+03  0.00000000000E+00 0.  1.
         21    1    1    2  502  501  0.47425476596E-04  0.72707099213E-04  0.71774695667E-04  0.11263705005E-03  0.00000000000E+00 0.  1.
<mgrwt>
<rscale>  1 0.65119103E+03</rscale>
<asrwt>0</asrwt>
<pdfrwt beam="1">  1        1 0.38550094E+00 0.65119103E+03</pdfrwt>
<pdfrwt beam="2">0</pdfrwt>
<totfact> 0.15513175E+00</totfact>
</mgrwt>
</event>
<event>
 6    1  0.1175152E-003  0.6492726E+03  0.7818608E-02  0.9808145E-01
          1   -1    0    0  502    0  0.00000000000E+00  0.00000000000E+00  0.10796974211E+03  0.10796974211E+03  0.00000000000E+00 0.  1.
         13   -1    0    0    0    0 -0.00000000000E+00 -0.00000000000E+00 -0.10000000000E+04  0.10000000000E+04  0.00000000000E+00 0.  1.
    9000005    2    1    2  501    0 -0.60402606534E+00  0.11450367024E+00 -0.89457073687E+03  0.11053559342E+04  0.64927233111E+03 0.  0.
         13    1    3    3    0    0 -0.23985186402E+03  0.21802711594E+03 -0.40981737906E+03  0.52250839624E+03  0.00000000000E+00 0.  1.
          1    1    3    3  501    0  0.23924783795E+03 -0.21791261227E+03 -0.48475335781E+03  0.58284753792E+03  0.00000000000E+00 0.  1.
         21    1    1    2  502  501  0.60402606534E+00 -0.11450367024E+00  0.25404789784E+01  0.26138079535E+01  0.00000000000E+00 0. -1.
<mgrwt>
<rscale>  1 0.64927262E+03</rscale>
<asrwt>0</asrwt>
<pdfrwt beam="1">  1        1 0.39261807E+00 0.64927262E+03</pdfrwt>
<pdfrwt beam="2">0</pdfrwt>
<totfact> 0.14431536E+00</totfact>
</mgrwt>
</event>
<event>
 6    1  0.1175152E-003  0.5624619E+03  0.7818608E-02  0.9986499E-01
          1   -1    0    0  502    0  0.00000000000E+00  0.00000000000E+00  0.79584569071E+02  0.79584569071E+02  0.00000000000E+00 0.  1.
         13   -1    0    0    0    0 -0.00000000000E+00 -0.00000000000E+00 -0.10000000000E+04  0.10000000000E+04  0.00000000000E+00 0.  1.
    9000005    2    1    2  501    0  0.68249962968E+00 -0.57502468106E+00 -0.92044143848E+03  0.10786917446E+04  0.56246123578E+03 0.  0.
         13    1    3    3    0    0  0.14888246453E+03  0.22792883134E+03 -0.32529341245E+03  0.42418550728E+03  0.00000000000E+00 0.  1.
          3    1    3    3  501    0 -0.14819996490E+03 -0.22850385602E+03 -0.59514802603E+03  0.65450623733E+03  0.00000000000E+00 0.  1.
         21    1    1    2  502  501 -0.68249962968E+00  0.57502468106E+00  0.26007552340E-01  0.89282446266E+00  0.00000000000E+00 0. -1.
<mgrwt>
<rscale>  1 0.56246194E+03</rscale>
<asrwt>0</asrwt>
<pdfrwt beam="1">  1        1 0.28939904E+00 0.56246194E+03</pdfrwt>
<pdfrwt beam="2">0</pdfrwt>
<totfact> 0.41267731E+00</totfact>
</mgrwt>
</event>
<event>
 6    1  0.1175152E-003  0.6478286E+03  0.7818608E-02  0.9810862E-01
          1   -1    0    0  502    0  0.00000000000E+00  0.00000000000E+00  0.10492291000E+03  0.10492291000E+03  0.00000000000E+00 0.  1.
         13   -1    0    0    0    0 -0.00000000000E+00 -0.00000000000E+00 -0.10000000000E+04  0.10000000000E+04  0.00000000000E+00 0.  1.
    9000005    2    1    2  501    0  0.13192056111E-02  0.56067355757E-04 -0.89507933368E+03  0.11049203066E+04  0.64782858105E+03 0.  0.
         13    1    3    3    0    0 -0.28446361119E+03 -0.19303827801E+02 -0.18536857026E+03  0.34007894774E+03  0.00000000000E+00 0.  1.
          1    1    3    3  501    0  0.28446493039E+03  0.19303883868E+02 -0.70971076342E+03  0.76484135889E+03  0.00000000000E+00 0.  1.
         21    1    1    2  502  501 -0.13192056111E-02 -0.56067355756E-04  0.22436807175E-02  0.26033728421E-02  0.00000000000E+00 0. -1.
<mgrwt>
<rscale>  1 0.64782858E+03</rscale>
<asrwt>0</asrwt>
<pdfrwt beam="1">  1        1 0.38153866E+00 0.64782858E+03</pdfrwt>
<pdfrwt beam="2">0</pdfrwt>
<totfact> 0.16161551E+00</totfact>
</mgrwt>
</event>
<event>
 6    1  0.1175152E-003  0.6511267E+03  0.7818608E-02  0.9804667E-01
          1   -1    0    0  502    0  0.00000000000E+00  0.00000000000E+00  0.10615249041E+03  0.10615249041E+03  0.00000000000E+00 0.  1.
         13   -1    0    0    0    0 -0.00000000000E+00 -0.00000000000E+00 -0.10000000000E+04  0.10000000000E+04  0.00000000000E+00 0.  1.
    9000005    2    1    2  501    0 -0.31709791292E-02 -0.33632730361E-01 -0.89400655155E+03  0.11059899002E+04  0.65112667284E+03 0.  0.
         13    1    3    3    0    0 -0.23111979275E+02  0.28800299306E+03 -0.19218495802E+03  0.34700856716E+03  0.00000000000E+00 0.  1.
          3    1    3    3  501    0  0.23108808296E+02 -0.28803662579E+03 -0.70182159353E+03  0.75898133308E+03  0.00000000000E+00 0.  1.
         21    1    1    2  502  501  0.31709791292E-02  0.33632730361E-01  0.15904196915E+00  0.16259017071E+00  0.00000000000E+00 0. -1.
<mgrwt>
<rscale>  1 0.65112667E+03</rscale>
<asrwt>0</asrwt>
<pdfrwt beam="1">  1        1 0.38600987E+00 0.65112667E+03</pdfrwt>
<pdfrwt beam="2">0</pdfrwt>
<totfact> 0.15433123E+00</totfact>
</mgrwt>
</event>
<event>
 6    1  0.1175152E-003  0.6540106E+03  0.7818608E-02  0.9799283E-01
          1   -1    0    0  502    0  0.00000000000E+00  0.00000000000E+00  0.10693508864E+03  0.10693508864E+03  0.00000000000E+00 0.  1.
         13   -1    0    0    0    0 -0.00000000000E+00 -0.00000000000E+00 -0.10000000000E+04  0.10000000000E+04  0.00000000000E+00 0.  1.
    9000005    2    1    2  501    0  0.77627982324E-03  0.56771731747E-02 -0.89306347541E+03  0.11069291815E+04  0.65401058218E+03 0.  0.
         13    1    3    3    0    0  0.67492340856E+02 -0.23981951551E+03 -0.80501893969E+03  0.84268861945E+03  0.00000000000E+00 0.  1.
          1    1    3    3  501    0 -0.67491564576E+02  0.23982519269E+03 -0.88044535722E+02  0.26424056200E+03  0.00000000000E+00 0.  1.
         21    1    1    2  502  501 -0.77627982324E-03 -0.56771731748E-02 -0.14359448423E-02  0.59071857267E-02  0.00000000000E+00 0.  1.
<mgrwt>
<rscale>  1 0.65401058E+03</rscale>
<asrwt>0</asrwt>
<pdfrwt beam="1">  1        1 0.38885569E+00 0.65401058E+03</pdfrwt>
<pdfrwt beam="2">0</pdfrwt>
<totfact> 0.14983682E+00</totfact>
</mgrwt>
</event>
<event>
 6    1  0.1175152E-003  0.5998840E+03  0.7818608E-02  0.9905647E-01
          1   -1    0    0  502    0  0.00000000000E+00  0.00000000000E+00  0.89972780666E+02  0.89972780666E+02  0.00000000000E+00 0.  1.
         13   -1    0    0    0    0 -0.00000000000E+00 -0.00000000000E+00 -0.10000000000E+04  0.10000000000E+04  0.00000000000E+00 0.  1.
    9000005    2    1    2  501    0  0.18386058750E-01  0.56736847115E-02 -0.91001857836E+03  0.10899516879E+04  0.59988404600E+03 0.  0.
         13    1    3    3    0    0 -0.57697622146E+02  0.23092851980E+03 -0.78661202186E+03  0.82183664423E+03  0.00000000000E+00 0.  1.
          1    1    3    3  501    0  0.57716008205E+02 -0.23092284612E+03 -0.12340655650E+03  0.26811504369E+03  0.00000000000E+00 0.  1.
         21    1    1    2  502  501 -0.18386058750E-01 -0.56736847115E-02 -0.86409706110E-02  0.21092752965E-01  0.00000000000E+00 0. -1.
<mgrwt>
<rscale>  1 0.59988405E+03</rscale>
<asrwt>0</asrwt>
<pdfrwt beam="1">  1        1 0.32717444E+00 0.59988405E+03</pdfrwt>
<pdfrwt beam="2">0</pdfrwt>
<totfact> 0.28159238E+00</totfact>
</mgrwt>
</event>
<event>
 6    1  0.1175152E-003  0.6472513E+03  0.7818608E-02  0.9811951E-01
          1   -1    0    0  502    0  0.00000000000E+00  0.00000000000E+00  0.10584057324E+03  0.10584057324E+03  0.00000000000E+00 0.  1.
         13   -1    0    0    0    0 -0.00000000000E+00 -0.00000000000E+00 -0.10000000000E+04  0.10000000000E+04  0.00000000000E+00 0.  1.
    9000005    2    1    2  501    0 -0.23764972567E+00  0.59490395126E-01 -0.89525144089E+03  0.11047214167E+04  0.64725126967E+03 0.  0.
         13    1    3    3    0    0  0.86896532151E+02  0.17744037092E+02 -0.97874376409E+03  0.98275389284E+03  0.00000000000E+00 0.  1.
          1    1    3    3  501    0 -0.87134181877E+02 -0.17684546697E+02  0.83492323201E+02  0.12196752386E+03  0.00000000000E+00 0.  1.
         21    1    1    2  502  501  0.23764972567E+00 -0.59490395126E-01  0.10920141328E+01  0.11191565419E+01  0.00000000000E+00 0. -1.
<mgrwt>
<rscale>  1 0.64725132E+03</rscale>
<asrwt>0</asrwt>
<pdfrwt beam="1">  1        1 0.38487562E+00 0.64725132E+03</pdfrwt>
<pdfrwt beam="2">0</pdfrwt>
<totfact> 0.15623677E+00</totfact>
</mgrwt>
</event>
<event>
 6    1  0.1175152E-003  0.6472578E+03  0.7818608E-02  0.9811938E-01
          3   -1    0    0  502    0  0.00000000000E+00  0.00000000000E+00  0.10611356268E+03  0.10611356268E+03  0.00000000000E+00 0.  1.
         13   -1    0    0    0    0 -0.00000000000E+00 -0.00000000000E+00 -0.10000000000E+04  0.10000000000E+04  0.00000000000E+00 0.  1.
    9000005    2    1    2  501    0  0.36676102231E+01 -0.57379159268E+00 -0.89154819501E+03  0.11017263108E+04  0.64724717024E+03 0.  0.
         13    1    3    3    0    0  0.31367040048E+02 -0.11186691469E+03  0.68486934551E+02  0.13486496213E+03  0.00000000000E+00 0.  1.
          3    1    3    3  501    0 -0.27699429825E+02  0.11129312310E+03 -0.96003512956E+03  0.96686134872E+03  0.00000000000E+00 0.  1.
         21    1    1    2  502  501 -0.36676102231E+01  0.57379159268E+00 -0.23382423129E+01  0.43872518339E+01  0.00000000000E+00 0. -1.
<mgrwt>
<rscale>  1 0.64725782E+03</rscale>
<asrwt>0</asrwt>
<pdfrwt beam="1">  1        3 0.38586831E+00 0.64725782E+03</pdfrwt>
<pdfrwt beam="2">0</pdfrwt>
<totfact> 0.70317342E-02</totfact>
</mgrwt>
</event>
<event>
 6    1  0.1175152E-003  0.6191506E+03  0.7818608E-02  0.9866452E-01
          1   -1    0    0  502    0  0.00000000000E+00  0.00000000000E+00  0.96445914252E+02  0.96445914252E+02  0.00000000000E+00 0.  1.
         13   -1    0    0    0    0 -0.00000000000E+00 -0.00000000000E+00 -0.10000000000E+04  0.10000000000E+04  0.00000000000E+00 0.  1.
    9000005    2    1    2  501    0  0.21250097506E-01 -0.14711646107E-01 -0.90416281768E+03  0.10958366339E+04  0.61915064939E+03 0.  0.
         13    1    3    3    0    0 -0.63550790940E+02 -0.27252514605E+03 -0.68643034499E+03  0.74127948628E+03  0.00000000000E+00 0.  1.
          1    1    3    3  501    0  0.63572041037E+02  0.27251043440E+03 -0.21773247268E+03  0.35455714761E+03  0.00000000000E+00 0.  1.
         21    1    1    2  502  501 -0.21250097506E-01  0.14711646107E-01  0.60873192692E+00  0.60928036077E+00  0.00000000000E+00 0. -1.
<mgrwt>
<rscale>  1 0.61915065E+03</rscale>
<asrwt>0</asrwt>
<pdfrwt beam="1">  1        1 0.35071316E+00 0.61915065E+03</pdfrwt>
<pdfrwt beam="2">0</pdfrwt>
<totfact> 0.22177920E+00</totfact>
</mgrwt>
</event>
<event>
 6    1  0.1175152E-003  0.6592810E+03  0.7818608E-02  0.9789518E-01
          1   -1    0    0  502    0  0.00000000000E+00  0.00000000000E+00  0.10885573581E+03  0.10885573581E+03  0.00000000000E+00 0.  1.
         13   -1    0    0    0    0 -0.00000000000E+00 -0.00000000000E+00 -0.10000000000E+04  0.10000000000E+04  0.00000000000E+00 0.  1.
    9000005    2    1    2  501    0 -0.22779579305E-01 -0.43650673869E-01 -0.89133364737E+03  0.11086600568E+04  0.65928100850E+03 0.  0.
         13    1    3    3    0    0 -0.27277769237E+03  0.18481316230E+03 -0.46226202891E+03  0.56767046583E+03  0.00000000000E+00 0.  1.
          1    1    3    3  501    0  0.27275491279E+03 -0.18485681298E+03 -0.42907161846E+03  0.54098959096E+03  0.00000000000E+00 0.  1.
         21    1    1    2  502  501  0.22779579305E-01  0.43650673869E-01  0.18938318191E+00  0.19567902328E+00  0.00000000000E+00 0.  1.
<mgrwt>
<rscale>  1 0.65928101E+03</rscale>
<asrwt>0</asrwt>
<pdfrwt beam="1">  1        1 0.39583987E+00 0.65928101E+03</pdfrwt>
<pdfrwt beam="2">0</pdfrwt>
<totfact> 0.13937366E+00</totfact>
</mgrwt>
</event>
<event>
 6    1  0.1175152E-003  0.6461000E+03  0.7818608E-02  0.9814125E-01
          1   -1    0    0  502    0  0.00000000000E+00  0.00000000000E+00  0.10436236943E+03  0.10436236943E+03  0.00000000000E+00 0.  1.
         13   -1    0    0    0    0 -0.00000000000E+00 -0.00000000000E+00 -0.10000000000E+04  0.10000000000E+04  0.00000000000E+00 0.  1.
    9000005    2    1    2  501    0 -0.13537590897E-03  0.32644210195E-02 -0.89563366856E+03  0.11043572340E+04  0.64610001710E+03 0.  0.
         13    1    3    3    0    0  0.14440833867E+03  0.21151542381E+02  0.44796569209E+02  0.15266921312E+03  0.00000000000E+00 0.  1.
          1    1    3    3  501    0 -0.14440847405E+03 -0.21148277960E+02 -0.94043023777E+03  0.95168802091E+03  0.00000000000E+00 0.  1.
         21    1    1    2  502  501  0.13537590897E-03 -0.32644210195E-02 -0.39620051132E-02  0.51353924627E-02  0.00000000000E+00 0.  1.
<mgrwt>
<rscale>  1 0.64610002E+03</rscale>
<asrwt>0</asrwt>
<pdfrwt beam="1">  1        1 0.37950033E+00 0.64610002E+03</pdfrwt>
<pdfrwt beam="2">0</pdfrwt>
<totfact> 0.16505056E+00</totfact>
</mgrwt>
</event>
<event>
 6    1  0.1175152E-003  0.6423961E+03  0.7818608E-02  0.9821153E-01
          1   -1    0    0  502    0  0.00000000000E+00  0.00000000000E+00  0.10326595993E+03  0.10326595993E+03  0.00000000000E+00 0.  1.
         13   -1    0    0    0    0 -0.00000000000E+00 -0.00000000000E+00 -0.10000000000E+04  0.10000000000E+04  0.00000000000E+00 0.  1.
    9000005    2    1    2  501    0  0.15705113677E-02 -0.21534870257E-04 -0.89683181376E+03  0.11031681736E+04  0.64239607497E+03 0.  0.
         13    1    3    3    0    0 -0.24741845806E+02 -0.77694037234E+02 -0.98193084086E+03  0.98531045797E+03  0.00000000000E+00 0.  1.
          3    1    3    3  501    0  0.24743416318E+02  0.77694015699E+02  0.85099027102E+02  0.11785771566E+03  0.00000000000E+00 0.  1.
         21    1    1    2  502  501 -0.15705113677E-02  0.21534870257E-04  0.97773686810E-01  0.97786301710E-01  0.00000000000E+00 0. -1.
<mgrwt>
<rscale>  1 0.64239607E+03</rscale>
<asrwt>0</asrwt>
<pdfrwt beam="1">  1        1 0.37551337E+00 0.64239607E+03</pdfrwt>
<pdfrwt beam="2">0</pdfrwt>
<totfact> 0.17198172E+00</totfact>
</mgrwt>
</event>
<event>
 6    1  0.1175152E-003  0.6353432E+03  0.7818608E-02  0.9834677E-01
          1   -1    0    0  502    0  0.00000000000E+00  0.00000000000E+00  0.10091602732E+03  0.10091602732E+03  0.00000000000E+00 0.  1.
         13   -1    0    0    0    0 -0.00000000000E+00 -0.00000000000E+00 -0.10000000000E+04  0.10000000000E+04  0.00000000000E+00 0.  1.
    9000005    2    1    2  501    0  0.39886381522E-03  0.50189331375E-04 -0.89908471242E+03  0.11009151854E+04  0.63534315559E+03 0.  0.
         13    1    3    3    0    0  0.10881280180E+03  0.27071310149E+03 -0.23180689999E+03  0.37263956853E+03  0.00000000000E+00 0.  1.
          3    1    3    3  501    0 -0.10881240294E+03 -0.27071305130E+03 -0.66727781242E+03  0.72827561687E+03  0.00000000000E+00 0.  1.
         21    1    1    2  502  501 -0.39886381522E-03 -0.50189331364E-04  0.73973284946E-03  0.84191210981E-03  0.00000000000E+00 0. -1.
<mgrwt>
<rscale>  1 0.63534316E+03</rscale>
<asrwt>0</asrwt>
<pdfrwt beam="1">  1        1 0.36696815E+00 0.63534316E+03</pdfrwt>
<pdfrwt beam="2">0</pdfrwt>
<totfact> 0.18775492E+00</totfact>
</mgrwt>
</event>
<event>
 6    1  0.1175152E-003  0.6541839E+03  0.7818608E-02  0.9798960E-01
          1   -1    0    0  502    0  0.00000000000E+00  0.00000000000E+00  0.10699093115E+03  0.10699093115E+03  0.00000000000E+00 0.  1.
         13   -1    0    0    0    0 -0.00000000000E+00 -0.00000000000E+00 -0.10000000000E+04  0.10000000000E+04  0.00000000000E+00 0.  1.
    9000005    2    1    2  501    0 -0.78241842124E-03 -0.28171909518E-02 -0.89300940280E+03  0.11069879883E+04  0.65418392886E+03 0.  0.
         13    1    3    3    0    0 -0.30310013164E+03  0.20718472322E+02 -0.65160223949E+03  0.71894674587E+03  0.00000000000E+00 0.  1.
          1    1    3    3  501    0  0.30309934922E+03 -0.20721289512E+02 -0.24140716331E+03  0.38804124244E+03  0.00000000000E+00 0.  1.
         21    1    1    2  502  501  0.78241842124E-03  0.28171909518E-02  0.33394063388E-03  0.29428319340E-02  0.00000000000E+00 0. -1.
<mgrwt>
<rscale>  1 0.65418393E+03</rscale>
<asrwt>0</asrwt>
<pdfrwt beam="1">  1        1 0.38905875E+00 0.65418393E+03</pdfrwt>
<pdfrwt beam="2">0</pdfrwt>
<totfact> 0.14952182E+00</totfact>
</mgrwt>
</event>
<event>
 6    1  0.1175152E-003  0.6398696E+03  0.7818608E-02  0.9825976E-01
          1   -1    0    0  502    0  0.00000000000E+00  0.00000000000E+00  0.10242567941E+03  0.10242567941E+03  0.00000000000E+00 0.  1.
         13   -1    0    0    0    0 -0.00000000000E+00 -0.00000000000E+00 -0.10000000000E+04  0.10000000000E+04  0.00000000000E+00 0.  1.
    9000005    2    1    2  501    0  0.12825133063E+00 -0.63376706461E-02 -0.89756648319E+03  0.11022970326E+04  0.63986962728E+03 0.  0.
         13    1    3    3    0    0  0.25443996425E+02  0.31770801070E+03 -0.49670504157E+03  0.59017088656E+03  0.00000000000E+00 0.  1.
          3    1    3    3  501    0 -0.25315745095E+02 -0.31771434837E+03 -0.40086144162E+03  0.51212614607E+03  0.00000000000E+00 0.  1.
         21    1    1    2  502  501 -0.12825133063E+00  0.63376706462E-02 -0.78373978512E-02  0.12864678264E+00  0.00000000000E+00 0.  1.
<mgrwt>
<rscale>  1 0.63986964E+03</rscale>
<asrwt>0</asrwt>
<pdfrwt beam="1">  1        1 0.37245780E+00 0.63986964E+03</pdfrwt>
<pdfrwt beam="2">0</pdfrwt>
<totfact> 0.17747068E+00</totfact>
</mgrwt>
</event>
<event>
 6    1  0.1175152E-003  0.6094438E+03  0.7818608E-02  0.9886005E-01
          1   -1    0    0  502    0  0.00000000000E+00  0.00000000000E+00  0.93738191784E+02  0.93738191784E+02  0.00000000000E+00 0.  1.
         13   -1    0    0    0    0 -0.00000000000E+00 -0.00000000000E+00 -0.10000000000E+04  0.10000000000E+04  0.00000000000E+00 0.  1.
    9000005    2    1    2  501    0  0.10185384875E+01  0.19631927577E+01 -0.90530376659E+03  0.10913279241E+04  0.60943977276E+03 0.  0.
         13    1    3    3    0    0  0.23912083016E+03  0.18229349754E+03 -0.35528734509E+03  0.46544472093E+03  0.00000000000E+00 0.  1.
          3    1    3    3  501    0 -0.23810229167E+03 -0.18033030478E+03 -0.55001642150E+03  0.62588320319E+03  0.00000000000E+00 0.  1.
         21    1    1    2  502  501 -0.10185384875E+01 -0.19631927577E+01 -0.95804162792E+00  0.24102676646E+01  0.00000000000E+00 0.  1.
<mgrwt>
<rscale>  1 0.60944379E+03</rscale>
<asrwt>0</asrwt>
<pdfrwt beam="1">  1        1 0.34086687E+00 0.60944379E+03</pdfrwt>
<pdfrwt beam="2">0</pdfrwt>
<totfact> 0.24519636E+00</totfact>
</mgrwt>
</event>
<event>
 6    1  0.1175152E-003  0.6291209E+03  0.7818608E-02  0.9846766E-01
          1   -1    0    0  502    0  0.00000000000E+00  0.00000000000E+00  0.98971504787E+02  0.98971504787E+02  0.00000000000E+00 0.  1.
         13   -1    0    0    0    0 -0.00000000000E+00 -0.00000000000E+00 -0.10000000000E+04  0.10000000000E+04  0.00000000000E+00 0.  1.
    9000005    2    1    2  501    0 -0.10309466551E-01 -0.18969596231E-01 -0.90104607617E+03  0.10989436620E+04  0.62912092669E+03 0.  0.
         13    1    3    3    0    0  0.61722876469E+02  0.28564239761E+03 -0.65377568467E+03  0.71611726600E+03  0.00000000000E+00 0.  1.
          3    1    3    3  501    0 -0.61733185935E+02 -0.28566136721E+03 -0.24727039150E+03  0.38282639600E+03  0.00000000000E+00 0.  1.
         21    1    1    2  502  501  0.10309466551E-01  0.18969596231E-01  0.17580958599E-01  0.27842786983E-01  0.00000000000E+00 0.  1.
<mgrwt>
<rscale>  1 0.62912093E+03</rscale>
<asrwt>0</asrwt>
<pdfrwt beam="1">  1        1 0.35989714E+00 0.62912093E+03</pdfrwt>
<pdfrwt beam="2">0</pdfrwt>
<totfact> 0.20185915E+00</totfact>
</mgrwt>
</event>
<event>
 6    1  0.1175152E-003  0.6461538E+03  0.7818608E-02  0.9814023E-01
          1   -1    0    0  502    0  0.00000000000E+00  0.00000000000E+00  0.10543450000E+03  0.10543450000E+03  0.00000000000E+00 0.  1.
         13   -1    0    0    0    0 -0.00000000000E+00 -0.00000000000E+00 -0.10000000000E+04  0.10000000000E+04  0.00000000000E+00 0.  1.
    9000005    2    1    2  501    0 -0.27802618594E-01  0.11705645419E+01 -0.89525047629E+03  0.11040779651E+04  0.64615274262E+03 0.  0.
         13    1    3    3    0    0  0.79373405040E+02  0.13775676387E+03  0.33086048614E+02  0.16239381156E+03  0.00000000000E+00 0.  1.
          1    1    3    3  501    0 -0.79401207659E+02 -0.13658619932E+03 -0.92833652490E+03  0.94168415357E+03  0.00000000000E+00 0.  1.
         21    1    1    2  502  501  0.27802618594E-01 -0.11705645419E+01  0.68497628430E+00  0.13565348659E+01  0.00000000000E+00 0. -1.
<mgrwt>
<rscale>  1 0.64615380E+03</rscale>
<asrwt>0</asrwt>
<pdfrwt beam="1">  1        1 0.38339899E+00 0.64615380E+03</pdfrwt>
<pdfrwt beam="2">0</pdfrwt>
<totfact> 0.15863517E+00</totfact>
</mgrwt>
</event>
<event>
 6    1  0.1175152E-003  0.6480828E+03  0.7818608E-02  0.9810383E-01
          1   -1    0    0  502    0  0.00000000000E+00  0.00000000000E+00  0.10796143019E+03  0.10796143019E+03  0.00000000000E+00 0.  1.
         13   -1    0    0    0    0 -0.00000000000E+00 -0.00000000000E+00 -0.10000000000E+04  0.10000000000E+04  0.00000000000E+00 0.  1.
    9000005    2    1    2  501    0  0.46157131163E+01  0.29515075779E+00 -0.89285124869E+03  0.11032654353E+04  0.64806625927E+03 0.  0.
         13    1    3    3    0    0  0.13433967663E+03  0.28794724194E+03 -0.33072877402E+03  0.45863088080E+03  0.00000000000E+00 0.  1.
          1    1    3    3  501    0 -0.12972396351E+03 -0.28765209118E+03 -0.56212247467E+03  0.64463455445E+03  0.00000000000E+00 0.  1.
         21    1    1    2  502  501 -0.46157131163E+01 -0.29515075779E+00  0.81267888442E+00  0.46959949437E+01  0.00000000000E+00 0. -1.
<mgrwt>
<rscale>  1 0.64808276E+03</rscale>
<asrwt>0</asrwt>
<pdfrwt beam="1">  1        1 0.39258785E+00 0.64808276E+03</pdfrwt>
<pdfrwt beam="2">0</pdfrwt>
<totfact> 0.14439224E+00</totfact>
</mgrwt>
</event>
<event>
 6    1  0.1175152E-003  0.6259848E+03  0.7818608E-02  0.9852916E-01
          1   -1    0    0  502    0  0.00000000000E+00  0.00000000000E+00  0.98009477778E+02  0.98009477778E+02  0.00000000000E+00 0.  1.
         13   -1    0    0    0    0 -0.00000000000E+00 -0.00000000000E+00 -0.10000000000E+04  0.10000000000E+04  0.00000000000E+00 0.  1.
    9000005    2    1    2  501    0 -0.14489742600E-02 -0.50545282424E-02 -0.90203560475E+03  0.10979640897E+04  0.62598475214E+03 0.  0.
         13    1    3    3    0    0 -0.13964035494E+03  0.11432504661E+03 -0.24843312803E+01  0.18048771956E+03  0.00000000000E+00 0.  1.
          3    1    3    3  501    0  0.13963890597E+03 -0.11433010114E+03 -0.89955127347E+03  0.91747637009E+03  0.00000000000E+00 0.  1.
         21    1    1    2  502  501  0.14489742600E-02  0.50545282424E-02  0.45082523496E-01  0.45388122972E-01  0.00000000000E+00 0.  1.
<mgrwt>
<rscale>  1 0.62598475E+03</rscale>
<asrwt>0</asrwt>
<pdfrwt beam="1">  1        1 0.35639885E+00 0.62598475E+03</pdfrwt>
<pdfrwt beam="2">0</pdfrwt>
<totfact> 0.20920999E+00</totfact>
</mgrwt>
</event>
<event>
 6    1  0.1175152E-003  0.6667594E+03  0.7818608E-02  0.9775830E-01
          1   -1    0    0  502    0  0.00000000000E+00  0.00000000000E+00  0.11114446484E+03  0.11114446484E+03  0.00000000000E+00 0.  1.
         13   -1    0    0    0    0 -0.00000000000E+00 -0.00000000000E+00 -0.10000000000E+04  0.10000000000E+04  0.00000000000E+00 0.  1.
    9000005    2    1    2  501    0  0.72363147534E-02 -0.57842242531E-03 -0.88884698082E+03  0.11111332454E+04  0.66675942716E+03 0.  0.
         13    1    3    3    0    0 -0.17176740305E+03 -0.92217446529E+01  0.31476595484E+02  0.17487097354E+03  0.00000000000E+00 0.  1.
          3    1    3    3  501    0  0.17177463936E+03  0.92211662304E+01 -0.92032357630E+03  0.93626227187E+03  0.00000000000E+00 0.  1.
         21    1    1    2  502  501 -0.72363147534E-02  0.57842242531E-03 -0.85543413618E-02  0.11219428677E-01  0.00000000000E+00 0. -1.
<mgrwt>
<rscale>  1 0.66675943E+03</rscale>
<asrwt>0</asrwt>
<pdfrwt beam="1">  1        1 0.40416254E+00 0.66675943E+03</pdfrwt>
<pdfrwt beam="2">0</pdfrwt>
<totfact> 0.12777891E+00</totfact>
</mgrwt>
</event>
<event>
 6    1  0.1175152E-003  0.6565082E+03  0.7818608E-02  0.9794643E-01
          1   -1    0    0  502    0  0.00000000000E+00  0.00000000000E+00  0.10914848097E+03  0.10914848097E+03  0.00000000000E+00 0.  1.
         13   -1    0    0    0    0 -0.00000000000E+00 -0.00000000000E+00 -0.10000000000E+04  0.10000000000E+04  0.00000000000E+00 0.  1.
    9000005    2    1    2  501    0  0.20758223656E-01 -0.25838489984E-02 -0.89224917298E+03  0.11077506705E+04  0.65650815748E+03 0.  0.
         13    1    3    3    0    0 -0.23814948588E+03  0.21469424632E+03 -0.56466524569E+03  0.64935016495E+03  0.00000000000E+00 0.  1.
          3    1    3    3  501    0  0.23817024410E+03 -0.21469683017E+03 -0.32758392729E+03  0.45840050554E+03  0.00000000000E+00 0.  1.
         21    1    1    2  502  501 -0.20758223656E-01  0.25838489984E-02  0.13976539492E+01  0.13978104813E+01  0.00000000000E+00 0.  1.
<mgrwt>
<rscale>  1 0.65650816E+03</rscale>
<asrwt>0</asrwt>
<pdfrwt beam="1">  1        1 0.39690440E+00 0.65650816E+03</pdfrwt>
<pdfrwt beam="2">0</pdfrwt>
<totfact> 0.13793322E+00</totfact>
</mgrwt>
</event>
<event>
 6    1  0.1175152E-003  0.6506217E+03  0.7818608E-02  0.9805613E-01
          1   -1    0    0  502    0  0.00000000000E+00  0.00000000000E+00  0.10672757577E+03  0.10672757577E+03  0.00000000000E+00 0.  1.
         13   -1    0    0    0    0 -0.00000000000E+00 -0.00000000000E+00 -0.10000000000E+04  0.10000000000E+04  0.00000000000E+00 0.  1.
    9000005    2    1    2  501    0  0.24724712702E-01  0.23549087690E-01 -0.89417248373E+03  0.11058268688E+04  0.65062172730E+03 0.  0.
         13    1    3    3    0    0  0.21862030804E+03 -0.21029953968E+03 -0.24737422537E+03  0.39142654848E+03  0.00000000000E+00 0.  1.
          3    1    3    3  501    0 -0.21859558333E+03  0.21032308877E+03 -0.64679825835E+03  0.71440032036E+03  0.00000000000E+00 0.  1.
         21    1    1    2  502  501 -0.24724712702E-01 -0.23549087690E-01  0.90005949198E+00  0.90070692240E+00  0.00000000000E+00 0. -1.
<mgrwt>
<rscale>  1 0.65062173E+03</rscale>
<asrwt>0</asrwt>
<pdfrwt beam="1">  1        1 0.38810109E+00 0.65062173E+03</pdfrwt>
<pdfrwt beam="2">0</pdfrwt>
<totfact> 0.15108980E+00</totfact>
</mgrwt>
</event>
<event>
 6    1  0.1175152E-003  0.6612114E+03  0.7818608E-02  0.9785966E-01
          1   -1    0    0  502    0  0.00000000000E+00  0.00000000000E+00  0.11378639920E+03  0.11378639920E+03  0.00000000000E+00 0.  1.
         13   -1    0    0    0    0 -0.00000000000E+00 -0.00000000000E+00 -0.10000000000E+04  0.10000000000E+04  0.00000000000E+00 0.  1.
    9000005    2    1    2  501    0 -0.81175565351E-01 -0.12928561241E+00 -0.89069841713E+03  0.11092989855E+04  0.66121142280E+03 0.  0.
         13    1    3    3    0    0 -0.11635015987E+03  0.25982273024E+03 -0.16341649296E+03  0.32825319652E+03  0.00000000000E+00 0.  1.
          1    1    3    3  501    0  0.11626898431E+03 -0.25995201585E+03 -0.72728192417E+03  0.78104578898E+03  0.00000000000E+00 0.  1.
         21    1    1    2  502  501  0.81175565351E-01  0.12928561241E+00  0.44848163302E+01  0.44874137047E+01  0.00000000000E+00 0. -1.
<mgrwt>
<rscale>  1 0.66121144E+03</rscale>
<asrwt>0</asrwt>
<pdfrwt beam="1">  1        1 0.41376960E+00 0.66121144E+03</pdfrwt>
<pdfrwt beam="2">0</pdfrwt>
<totfact> 0.11583954E+00</totfact>
</mgrwt>
</event>
<event>
 6    1  0.1175152E-003  0.6484935E+03  0.7818608E-02  0.9809610E-01
          1   -1    0    0  502    0  0.00000000000E+00  0.00000000000E+00  0.10514866656E+03  0.10514866656E+03  0.00000000000E+00 0.  1.
         13   -1    0    0    0    0 -0.00000000000E+00 -0.00000000000E+00 -0.10000000000E+04  0.10000000000E+04  0.00000000000E+00 0.  1.
    9000005    2    1    2  501    0  0.51785297003E-02 -0.29805632442E-01 -0.89483969695E+03  0.11051162536E+04  0.64849352333E+03 0.  0.
         13    1    3    3    0    0  0.16506191730E+03 -0.73576868292E+02  0.11361053520E+02  0.18107475149E+03  0.00000000000E+00 0.  1.
          1    1    3    3  501    0 -0.16505673877E+03  0.73547062659E+02 -0.90620075047E+03  0.92404150209E+03  0.00000000000E+00 0.  1.
         21    1    1    2  502  501 -0.51785297003E-02  0.29805632442E-01 -0.11636489138E-01  0.32412972319E-01  0.00000000000E+00 0.  1.
<mgrwt>
<rscale>  1 0.64849352E+03</rscale>
<asrwt>0</asrwt>
<pdfrwt beam="1">  1        1 0.38235959E+00 0.64849352E+03</pdfrwt>
<pdfrwt beam="2">0</pdfrwt>
<totfact> 0.16025228E+00</totfact>
</mgrwt>
</event>
<event>
 6    1  0.1175152E-003  0.6530647E+03  0.7818608E-02  0.9801045E-01
          1   -1    0    0  502    0  0.00000000000E+00  0.00000000000E+00  0.10795772041E+03  0.10795772041E+03  0.00000000000E+00 0.  1.
         13   -1    0    0    0    0 -0.00000000000E+00 -0.00000000000E+00 -0.10000000000E+04  0.10000000000E+04  0.00000000000E+00 0.  1.
    9000005    2    1    2  501    0  0.21576060464E-02 -0.25221751279E-01 -0.89337647623E+03  0.11066232837E+04  0.65306474641E+03 0.  0.
         13    1    3    3    0    0 -0.20392448483E+03  0.42879143643E+02 -0.87267113360E+03  0.89720606545E+03  0.00000000000E+00 0.  1.
          1    1    3    3  501    0  0.20392664244E+03 -0.42904365394E+02 -0.20705342634E+02  0.20941721820E+03  0.00000000000E+00 0.  1.
         21    1    1    2  502  501 -0.21576060464E-02  0.25221751279E-01  0.13341966389E+01  0.13344367588E+01  0.00000000000E+00 0. -1.
<mgrwt>
<rscale>  1 0.65306475E+03</rscale>
<asrwt>0</asrwt>
<pdfrwt beam="1">  1        1 0.39257436E+00 0.65306475E+03</pdfrwt>
<pdfrwt beam="2">0</pdfrwt>
<totfact> 0.14427738E+00</totfact>
</mgrwt>
</event>
<event>
 6    1  0.1175152E-003  0.6463585E+03  0.7818608E-02  0.9813636E-01
          1   -1    0    0  502    0  0.00000000000E+00  0.00000000000E+00  0.10444810323E+03  0.10444810323E+03  0.00000000000E+00 0.  1.
         13   -1    0    0    0    0 -0.00000000000E+00 -0.00000000000E+00 -0.10000000000E+04  0.10000000000E+04  0.00000000000E+00 0.  1.
    9000005    2    1    2  501    0 -0.40555299398E-03 -0.46124164869E-02 -0.89555328027E+03  0.11044432707E+04  0.64635846127E+03 0.  0.
         13    1    3    3    0    0 -0.19748164411E+03 -0.25392307813E+03 -0.50100074962E+03  0.59538028225E+03  0.00000000000E+00 0.  1.
          3    1    3    3  501    0  0.19748123856E+03  0.25391846571E+03 -0.39455253065E+03  0.50906298849E+03  0.00000000000E+00 0.  1.
         21    1    1    2  502  501  0.40555299399E-03  0.46124164869E-02  0.13834978359E-02  0.48324864554E-02  0.00000000000E+00 0. -1.
<mgrwt>
<rscale>  1 0.64635846E+03</rscale>
<asrwt>0</asrwt>
<pdfrwt beam="1">  1        1 0.37981209E+00 0.64635846E+03</pdfrwt>
<pdfrwt beam="2">0</pdfrwt>
<totfact> 0.16452088E+00</totfact>
</mgrwt>
</event>
<event>
 6    1  0.1175152E-003  0.6417592E+03  0.7818608E-02  0.9822366E-01
          1   -1    0    0  502    0  0.00000000000E+00  0.00000000000E+00  0.10299123445E+03  0.10299123445E+03  0.00000000000E+00 0.  1.
         13   -1    0    0    0    0 -0.00000000000E+00 -0.00000000000E+00 -0.10000000000E+04  0.10000000000E+04  0.00000000000E+00 0.  1.
    9000005    2    1    2  501    0 -0.25186236637E-02 -0.27187079523E-02 -0.89703613084E+03  0.11029636193E+04  0.64175924268E+03 0.  0.
         13    1    3    3    0    0 -0.15172926434E+03  0.10117959975E+03 -0.90227208865E+03  0.92051833388E+03  0.00000000000E+00 0.  1.
          3    1    3    3  501    0  0.15172674572E+03 -0.10118231846E+03  0.52359578113E+01  0.18244528546E+03  0.00000000000E+00 0.  1.
         21    1    1    2  502  501  0.25186236638E-02  0.27187079523E-02  0.27365284922E-01  0.27615098351E-01  0.00000000000E+00 0. -1.
<mgrwt>
<rscale>  1 0.64175924E+03</rscale>
<asrwt>0</asrwt>
<pdfrwt beam="1">  1        1 0.37451437E+00 0.64175924E+03</pdfrwt>
<pdfrwt beam="2">0</pdfrwt>
<totfact> 0.17375222E+00</totfact>
</mgrwt>
</event>
<event>
 6    1  0.1175152E-003  0.6518276E+03  0.7818608E-02  0.9803356E-01
          1   -1    0    0  502    0  0.00000000000E+00  0.00000000000E+00  0.10621988027E+03  0.10621988027E+03  0.00000000000E+00 0.  1.
         13   -1    0    0    0    0 -0.00000000000E+00 -0.00000000000E+00 -0.10000000000E+04  0.10000000000E+04  0.00000000000E+00 0.  1.
    9000005    2    1    2  501    0 -0.20399224132E-03 -0.10938472155E-03 -0.89377993503E+03  0.11062195841E+04  0.65182758155E+03 0.  0.
         13    1    3    3    0    0  0.19075669204E+03  0.26067709637E+03 -0.52045627497E+03  0.61254828242E+03  0.00000000000E+00 0.  1.
          1    1    3    3  501    0 -0.19075689604E+03 -0.26067720576E+03 -0.37332366006E+03  0.49367130172E+03  0.00000000000E+00 0.  1.
         21    1    1    2  502  501  0.20399224133E-03  0.10938472153E-03 -0.18470196413E-03  0.29612947739E-03  0.00000000000E+00 0.  1.
<mgrwt>
<rscale>  1 0.65182758E+03</rscale>
<asrwt>0</asrwt>
<pdfrwt beam="1">  1        1 0.38625492E+00 0.65182758E+03</pdfrwt>
<pdfrwt beam="2">0</pdfrwt>
<totfact> 0.15392636E+00</totfact>
</mgrwt>
</event>
<event>
 6    1  0.1175152E-003  0.6553438E+03  0.7818608E-02  0.9796803E-01
          1   -1    0    0  502    0  0.00000000000E+00  0.00000000000E+00  0.10788724620E+03  0.10788724620E+03  0.00000000000E+00 0.  1.
         13   -1    0    0    0    0 -0.00000000000E+00 -0.00000000000E+00 -0.10000000000E+04  0.10000000000E+04  0.00000000000E+00 0.  1.
    9000005    2    1    2  501    0  0.53159856634E-01  0.57099638148E+00 -0.89244928713E+03  0.11072223270E+04  0.65534359118E+03 0.  0.
         13    1    3    3    0    0 -0.21442974736E+03  0.16820136005E+03 -0.75416153631E+03  0.80189240982E+03  0.00000000000E+00 0.  1.
          1    1    3    3  501    0  0.21448290721E+03 -0.16763036367E+03 -0.13828775082E+03  0.30532991720E+03  0.00000000000E+00 0.  1.
         21    1    1    2  502  501 -0.53159856634E-01 -0.57099638148E+00  0.33653332653E+00  0.66491918147E+00  0.00000000000E+00 0.  1.
<mgrwt>
<rscale>  1 0.65534384E+03</rscale>
<asrwt>0</asrwt>
<pdfrwt beam="1">  1        1 0.39231809E+00 0.65534384E+03</pdfrwt>
<pdfrwt beam="2">0</pdfrwt>
<totfact> 0.14459443E+00</totfact>
</mgrwt>
</event>
<event>
 6    1  0.1175152E-003  0.6600877E+03  0.7818608E-02  0.9788032E-01
          1   -1    0    0  502    0  0.00000000000E+00  0.00000000000E+00  0.11666712535E+03  0.11666712535E+03  0.00000000000E+00 0.  1.
         13   -1    0    0    0    0 -0.00000000000E+00 -0.00000000000E+00 -0.10000000000E+04  0.10000000000E+04  0.00000000000E+00 0.  1.
    9000005    2    1    2  501    0  0.74638842782E+01 -0.61651998743E+01 -0.88755498225E+03  0.11061056174E+04  0.66001672027E+03 0.  0.
         13    1    3    3    0    0 -0.30695699848E+03  0.42248523689E+02 -0.26810261691E+03  0.40973961227E+03  0.00000000000E+00 0.  1.
          3    1    3    3  501    0  0.31442088276E+03 -0.48413723564E+02 -0.61945236534E+03  0.69636600511E+03  0.00000000000E+00 0.  1.
         21    1    1    2  502  501 -0.74638842782E+01  0.61651998743E+01  0.42221076025E+01  0.10561507971E+02  0.00000000000E+00 0.  1.
<mgrwt>
<rscale>  1 0.66008771E+03</rscale>
<asrwt>0</asrwt>
<pdfrwt beam="1">  1        1 0.42424499E+00 0.66008771E+03</pdfrwt>
<pdfrwt beam="2">0</pdfrwt>
<totfact> 0.10392467E+00</totfact>
</mgrwt>
</event>
<event>
 6    1  0.1175152E-003  0.6413341E+03  0.7818608E-02  0.9823177E-01
          1   -1    0    0  502    0  0.00000000000E+00  0.00000000000E+00  0.12774612825E+03  0.12774612825E+03  0.00000000000E+00 0.  1.
         13   -1    0    0    0    0 -0.00000000000E+00 -0.00000000000E+00 -0.10000000000E+04  0.10000000000E+04  0.00000000000E+00 0.  1.
    9000005    2    1    2  501    0  0.10786870963E+02 -0.19634844314E+01 -0.89583573953E+03  0.11017400454E+04  0.64124039456E+03 0.  0.
         13    1    3    3    0    0 -0.27886392207E+03 -0.19499672488E+02 -0.69423051903E+03  0.74839918346E+03  0.00000000000E+00 0.  1.
          1    1    3    3  501    0  0.28965079303E+03  0.17536188057E+02 -0.20160522050E+03  0.35334086196E+03  0.00000000000E+00 0.  1.
         21    1    1    2  502  501 -0.10786870963E+02  0.19634844314E+01  0.23581867778E+02  0.26006082830E+02  0.00000000000E+00 0. -1.
<mgrwt>
<rscale>  1 0.64133412E+03</rscale>
<asrwt>0</asrwt>
<pdfrwt beam="1">  1        1 0.46453236E+00 0.64133412E+03</pdfrwt>
<pdfrwt beam="2">0</pdfrwt>
<totfact> 0.68169697E-01</totfact>
</mgrwt>
</event>
<event>
 6    1  0.1175152E-003  0.6486797E+03  0.7818608E-02  0.9809260E-01
          1   -1    0    0  502    0  0.00000000000E+00  0.00000000000E+00  0.12635587432E+03  0.12635587432E+03  0.00000000000E+00 0.  1.
         13   -1    0    0    0    0 -0.00000000000E+00 -0.00000000000E+00 -0.10000000000E+04  0.10000000000E+04  0.00000000000E+00 0.  1.
    9000005    2    1    2  501    0 -0.41411910520E+01 -0.11776395604E+02 -0.89274942655E+03  0.11035338350E+04  0.64855959901E+03 0.  0.
         13    1    3    3    0    0 -0.58988173898E+02  0.16821292883E+02 -0.98803219302E+03  0.98993442965E+03  0.00000000000E+00 0.  1.
          1    1    3    3  501    0  0.54846982846E+02 -0.28597688487E+02  0.95282766473E+02  0.11359940537E+03  0.00000000000E+00 0.  1.
         21    1    1    2  502  501  0.41411910520E+01  0.11776395604E+02  0.19105300871E+02  0.22822039307E+02  0.00000000000E+00 0.  1.
<mgrwt>
<rscale>  1 0.64867973E+03</rscale>
<asrwt>0</asrwt>
<pdfrwt beam="1">  1        1 0.45947688E+00 0.64867973E+03</pdfrwt>
<pdfrwt beam="2">0</pdfrwt>
<totfact> 0.71846063E-01</totfact>
</mgrwt>
</event>
<event>
 6    1  0.1175152E-003  0.6240653E+03  0.7818608E-02  0.9856699E-01
          1   -1    0    0  502    0  0.00000000000E+00  0.00000000000E+00  0.97860468028E+02  0.97860468028E+02  0.00000000000E+00 0.  1.
         13   -1    0    0    0    0 -0.00000000000E+00 -0.00000000000E+00 -0.10000000000E+04  0.10000000000E+04  0.00000000000E+00 0.  1.
    9000005    2    1    2  501    0  0.40461445514E-02 -0.10007151223E-01 -0.90263555081E+03  0.10973643317E+04  0.62406533223E+03 0.  0.
         13    1    3    3    0    0  0.10730295067E+03  0.15936565798E+03 -0.88365538227E+03  0.90429982350E+03  0.00000000000E+00 0.  1.
          3    1    3    3  501    0 -0.10729890453E+03 -0.15937566513E+03 -0.18980168541E+02  0.19306450825E+03  0.00000000000E+00 0.  1.
         21    1    1    2  502  501 -0.40461445513E-02  0.10007151223E-01  0.49601884273E+00  0.49613627836E+00  0.00000000000E+00 0.  1.
<mgrwt>
<rscale>  1 0.62406533E+03</rscale>
<asrwt>0</asrwt>
<pdfrwt beam="1">  1        1 0.35585700E+00 0.62406533E+03</pdfrwt>
<pdfrwt beam="2">0</pdfrwt>
<totfact> 0.21042567E+00</totfact>
</mgrwt>
</event>
<event>
 6    1  0.1175152E-003  0.6405946E+03  0.7818608E-02  0.9824590E-01
          1   -1    0    0  502    0  0.00000000000E+00  0.00000000000E+00  0.10283369573E+03  0.10283369573E+03  0.00000000000E+00 0.  1.
         13   -1    0    0    0    0 -0.00000000000E+00 -0.00000000000E+00 -0.10000000000E+04  0.10000000000E+04  0.00000000000E+00 0.  1.
    9000005    2    1    2  501    0  0.12974284216E-02  0.89958366294E-02 -0.89740955986E+03  0.11025902704E+04  0.64059455679E+03 0.  0.
         13    1    3    3    0    0  0.17332201745E+03 -0.14791667797E+03 -0.61263047634E+02  0.23595132202E+03  0.00000000000E+00 0.  1.
          1    1    3    3  501    0 -0.17332072002E+03  0.14792567381E+03 -0.83614651222E+03  0.86663894839E+03  0.00000000000E+00 0.  1.
         21    1    1    2  502  501 -0.12974284216E-02 -0.89958366294E-02  0.24325558702E+00  0.24342532534E+00  0.00000000000E+00 0. -1.
<mgrwt>
<rscale>  1 0.64059456E+03</rscale>
<asrwt>0</asrwt>
<pdfrwt beam="1">  1        1 0.37394150E+00 0.64059456E+03</pdfrwt>
<pdfrwt beam="2">0</pdfrwt>
<totfact> 0.17480088E+00</totfact>
</mgrwt>
</event>
<event>
 6    1  0.1175152E-003  0.6530213E+03  0.7818608E-02  0.9801126E-01
          1   -1    0    0  502    0  0.00000000000E+00  0.00000000000E+00  0.10661814500E+03  0.10661814500E+03  0.00000000000E+00 0.  1.
         13   -1    0    0    0    0 -0.00000000000E+00 -0.00000000000E+00 -0.10000000000E+04  0.10000000000E+04  0.00000000000E+00 0.  1.
    9000005    2    1    2  501    0 -0.20347705912E-02 -0.10213465548E-03 -0.89339067617E+03  0.11066090916E+04  0.65302127175E+03 0.  0.
         13    1    3    3    0    0  0.21380488322E+03 -0.78148854564E+02 -0.84335003372E+03  0.87353251281E+03  0.00000000000E+00 0.  1.
          1    1    3    3  501    0 -0.21380691799E+03  0.78148752430E+02 -0.50040642450E+02  0.23307657880E+03  0.00000000000E+00 0.  1.
         21    1    1    2  502  501  0.20347705912E-02  0.10213465548E-03  0.88211719989E-02  0.90533860119E-02  0.00000000000E+00 0.  1.
<mgrwt>
<rscale>  1 0.65302127E+03</rscale>
<asrwt>0</asrwt>
<pdfrwt beam="1">  1        1 0.38770316E+00 0.65302127E+03</pdfrwt>
<pdfrwt beam="2">0</pdfrwt>
<totfact> 0.15163682E+00</totfact>
</mgrwt>
</event>
<event>
 6    1  0.1175152E-003  0.6664913E+03  0.7818608E-02  0.9776317E-01
          1   -1    0    0  502    0  0.00000000000E+00  0.00000000000E+00  0.13656647652E+03  0.13656647652E+03  0.00000000000E+00 0.  1.
         13   -1    0    0    0    0 -0.00000000000E+00 -0.00000000000E+00 -0.10000000000E+04  0.10000000000E+04  0.00000000000E+00 0.  1.
    9000005    2    1    2  501    0 -0.16415766977E+01 -0.67913313927E+00 -0.88891295975E+03  0.11110251831E+04  0.66648897330E+03 0.  0.
         13    1    3    3    0    0 -0.29353652625E+02 -0.33713445923E+02 -0.99526306791E+03  0.99626643409E+03  0.00000000000E+00 0.  1.
          3    1    3    3  501    0  0.27712075927E+02  0.33034312784E+02  0.10635010816E+03  0.11475874903E+03  0.00000000000E+00 0.  1.
         21    1    1    2  502  501  0.16415766977E+01  0.67913313927E+00  0.25479436264E+02  0.25541293394E+02  0.00000000000E+00 0.  1.
<mgrwt>
<rscale>  1 0.66649134E+03</rscale>
<asrwt>0</asrwt>
<pdfrwt beam="1">  1        1 0.49660642E+00 0.66649134E+03</pdfrwt>
<pdfrwt beam="2">0</pdfrwt>
<totfact> 0.47827869E-01</totfact>
</mgrwt>
</event>
<event>
 6    1  0.1175152E-003  0.6559458E+03  0.7818608E-02  0.9795686E-01
          1   -1    0    0  502    0  0.00000000000E+00  0.00000000000E+00  0.10756919358E+03  0.10756919358E+03  0.00000000000E+00 0.  1.
         13   -1    0    0    0    0 -0.00000000000E+00 -0.00000000000E+00 -0.10000000000E+04  0.10000000000E+04  0.00000000000E+00 0.  1.
    9000005    2    1    2  501    0  0.23060372175E-03  0.32508661786E-03 -0.89243374733E+03  0.11075662258E+04  0.65594584465E+03 0.  0.
         13    1    3    3    0    0 -0.14010829643E+03 -0.23819247172E+03 -0.14796696486E+03  0.31346484812E+03  0.00000000000E+00 0.  1.
          3    1    3    3  501    0  0.14010852704E+03  0.23819279681E+03 -0.74446678248E+03  0.79410137767E+03  0.00000000000E+00 0.  1.
         21    1    1    2  502  501 -0.23060372174E-03 -0.32508661786E-03  0.29409079462E-02  0.29677936137E-02  0.00000000000E+00 0.  1.
<mgrwt>
<rscale>  1 0.65594584E+03</rscale>
<asrwt>0</asrwt>
<pdfrwt beam="1">  1        1 0.39116153E+00 0.65594584E+03</pdfrwt>
<pdfrwt beam="2">0</pdfrwt>
<totfact> 0.14629744E+00</totfact>
</mgrwt>
</event>
<event>
 6    1  0.1175152E-003  0.6508338E+03  0.7818608E-02  0.9805216E-01
          1   -1    0    0  502    0  0.00000000000E+00  0.00000000000E+00  0.10939742912E+03  0.10939742912E+03  0.00000000000E+00 0.  1.
         13   -1    0    0    0    0 -0.00000000000E+00 -0.00000000000E+00 -0.10000000000E+04  0.10000000000E+04  0.00000000000E+00 0.  1.
    9000005    2    1    2  501    0  0.17128413284E+01  0.35071162805E+01 -0.89285830899E+03  0.11048894313E+04  0.65082214296E+03 0.  0.
         13    1    3    3    0    0 -0.10315094736E+03 -0.30604431711E+03 -0.47503693331E+03  0.57442434661E+03  0.00000000000E+00 0.  1.
          1    1    3    3  501    0  0.10486378869E+03  0.30955143339E+03 -0.41782137568E+03  0.53046508468E+03  0.00000000000E+00 0.  1.
         21    1    1    2  502  501 -0.17128413284E+01 -0.35071162805E+01  0.22557381115E+01  0.45079978315E+01  0.00000000000E+00 0. -1.
<mgrwt>
<rscale>  1 0.65083385E+03</rscale>
<asrwt>0</asrwt>
<pdfrwt beam="1">  1        1 0.39780967E+00 0.65083385E+03</pdfrwt>
<pdfrwt beam="2">0</pdfrwt>
<totfact> 0.13680543E+00</totfact>
</mgrwt>
</event>
<event>
 6    1  0.1175152E-003  0.6501645E+03  0.7818608E-02  0.9806471E-01
          1   -1    0    0  502    0  0.00000000000E+00  0.00000000000E+00  0.10567886354E+03  0.10567886354E+03  0.00000000000E+00 0.  1.
         13   -1    0    0    0    0 -0.00000000000E+00 -0.00000000000E+00 -0.10000000000E+04  0.10000000000E+04  0.00000000000E+00 0.  1.
    9000005    2    1    2  501    0  0.10681101745E-03 -0.79537775576E-04 -0.89432151448E+03  0.11056784628E+04  0.65016451129E+03 0.  0.
         13    1    3    3    0    0 -0.17016526164E+03 -0.24493487665E+03 -0.66712025379E+03  0.73075217625E+03  0.00000000000E+00 0.  1.
          3    1    3    3  501    0  0.17016536845E+03  0.24493479711E+03 -0.22720126069E+03  0.37492628651E+03  0.00000000000E+00 0.  1.
         21    1    1    2  502  501 -0.10681101745E-03  0.79537775581E-04  0.37801866079E-03  0.40079041792E-03  0.00000000000E+00 0. -1.
<mgrwt>
<rscale>  1 0.65016451E+03</rscale>
<asrwt>0</asrwt>
<pdfrwt beam="1">  1        1 0.38428759E+00 0.65016451E+03</pdfrwt>
<pdfrwt beam="2">0</pdfrwt>
<totfact> 0.15709040E+00</totfact>
</mgrwt>
</event>
<event>
 6    1  0.1175152E-003  0.6772506E+03  0.7818608E-02  0.9756947E-01
          1   -1    0    0  502    0  0.00000000000E+00  0.00000000000E+00  0.12362628821E+03  0.12362628821E+03  0.00000000000E+00 0.  1.
         13   -1    0    0    0    0 -0.00000000000E+00 -0.00000000000E+00 -0.10000000000E+04  0.10000000000E+04  0.00000000000E+00 0.  1.
    9000005    2    1    2  501    0 -0.49704916082E+00 -0.12912169005E+01 -0.88527331251E+03  0.11146197799E+04  0.67724921677E+03 0.  0.
         13    1    3    3    0    0 -0.86193079511E+02  0.83301224831E+02 -0.96356410083E+03  0.97099130657E+03  0.00000000000E+00 0.  1.
          3    1    3    3  501    0  0.85696030350E+02 -0.84592441732E+02  0.78290788328E+02  0.14362847334E+03  0.00000000000E+00 0.  1.
         21    1    1    2  502  501  0.49704916082E+00  0.12912169005E+01  0.88996007184E+01  0.90065083078E+01  0.00000000000E+00 0.  1.
<mgrwt>
<rscale>  1 0.67725063E+03</rscale>
<asrwt>0</asrwt>
<pdfrwt beam="1">  1        1 0.44955109E+00 0.67725063E+03</pdfrwt>
<pdfrwt beam="2">0</pdfrwt>
<totfact> 0.79382568E-01</totfact>
</mgrwt>
</event>
<event>
 6    1  0.1175152E-003  0.6530379E+03  0.7818608E-02  0.9801095E-01
          3   -1    0    0  502    0  0.00000000000E+00  0.00000000000E+00  0.10668979252E+03  0.10668979252E+03  0.00000000000E+00 0.  1.
         13   -1    0    0    0    0 -0.00000000000E+00 -0.00000000000E+00 -0.10000000000E+04  0.10000000000E+04  0.00000000000E+00 0.  1.
    9000005    2    1    2  501    0 -0.10344946062E+00 -0.18398995851E+00 -0.89315091112E+03  0.11064253508E+04  0.65303787203E+03 0.  0.
         13    1    3    3    0    0  0.13843697887E+03  0.28813622533E+03 -0.33456097380E+03  0.46272921526E+03  0.00000000000E+00 0.  1.
          3    1    3    3  501    0 -0.13854042833E+03 -0.28832021529E+03 -0.55858993733E+03  0.64369613554E+03  0.00000000000E+00 0.  1.
         21    1    1    2  502  501  0.10344946062E+00  0.18398995851E+00 -0.15929635273E+00  0.26444172085E+00  0.00000000000E+00 0.  1.
<mgrwt>
<rscale>  1 0.65303791E+03</rscale>
<asrwt>0</asrwt>
<pdfrwt beam="1">  1        3 0.38796370E+00 0.65303791E+03</pdfrwt>
<pdfrwt beam="2">0</pdfrwt>
<totfact> 0.68486458E-02</totfact>
</mgrwt>
</event>
<event>
 6    1  0.1175152E-003  0.6036713E+03  0.7818608E-02  0.9897818E-01
          1   -1    0    0  502    0  0.00000000000E+00  0.00000000000E+00  0.91501567644E+02  0.91501567644E+02  0.00000000000E+00 0.  1.
         13   -1    0    0    0    0 -0.00000000000E+00 -0.00000000000E+00 -0.10000000000E+04  0.10000000000E+04  0.00000000000E+00 0.  1.
    9000005    2    1    2  501    0  0.58422542885E-01 -0.70189713173E-01 -0.90888948652E+03  0.10910999918E+04  0.60367133864E+03 0.  0.
         13    1    3    3    0    0  0.15424100631E+03  0.13221673162E+03 -0.85792431094E+03  0.88164940620E+03  0.00000000000E+00 0.  1.
          1    1    3    3  501    0 -0.15418258377E+03 -0.13228692133E+03 -0.50965175575E+02  0.20945058562E+03  0.00000000000E+00 0.  1.
         21    1    1    2  502  501 -0.58422542885E-01  0.70189713173E-01  0.39105416090E+00  0.40157582860E+00  0.00000000000E+00 0.  1.
<mgrwt>
<rscale>  1 0.60367135E+03</rscale>
<asrwt>0</asrwt>
<pdfrwt beam="1">  1        1 0.33273367E+00 0.60367135E+03</pdfrwt>
<pdfrwt beam="2">0</pdfrwt>
<totfact> 0.26622579E+00</totfact>
</mgrwt>
</event>
<event>
 6    1  0.1175152E-003  0.6623984E+03  0.7818608E-02  0.9783789E-01
          1   -1    0    0  502    0  0.00000000000E+00  0.00000000000E+00  0.10969310296E+03  0.10969310296E+03  0.00000000000E+00 0.  1.
         13   -1    0    0    0    0 -0.00000000000E+00 -0.00000000000E+00 -0.10000000000E+04  0.10000000000E+04  0.00000000000E+00 0.  1.
    9000005    2    1    2  501    0 -0.57005623859E-04 -0.24051191929E-04 -0.89030706761E+03  0.11096929215E+04  0.66239844914E+03 0.  0.
         13    1    3    3    0    0  0.24619794842E+03  0.22067429169E+03 -0.47791056696E+03  0.58112742392E+03  0.00000000000E+00 0.  1.
          3    1    3    3  501    0 -0.24619800542E+03 -0.22067431574E+03 -0.41239650065E+03  0.52856549760E+03  0.00000000000E+00 0.  1.
         21    1    1    2  502  501  0.57005623879E-04  0.24051191922E-04  0.17057207642E-03  0.18144678074E-03  0.00000000000E+00 0.  1.
<mgrwt>
<rscale>  1 0.66239845E+03</rscale>
<asrwt>0</asrwt>
<pdfrwt beam="1">  1        1 0.39888485E+00 0.66239845E+03</pdfrwt>
<pdfrwt beam="2">0</pdfrwt>
<totfact> 0.13501119E+00</totfact>
</mgrwt>
</event>
<event>
 6    1  0.1175152E-003  0.6466855E+03  0.7818608E-02  0.9813019E-01
          1   -1    0    0  502    0  0.00000000000E+00  0.00000000000E+00  0.10455174561E+03  0.10455174561E+03  0.00000000000E+00 0.  1.
         13   -1    0    0    0    0 -0.00000000000E+00 -0.00000000000E+00 -0.10000000000E+04  0.10000000000E+04  0.00000000000E+00 0.  1.
    9000005    2    1    2  501    0  0.36790622584E-05 -0.47239854871E-03 -0.89544940625E+03  0.11045505006E+04  0.64668552583E+03 0.  0.
         13    1    3    3    0    0 -0.14338310989E+02  0.30313250332E+03 -0.63834637497E+03  0.70681043863E+03  0.00000000000E+00 0.  1.
          3    1    3    3  501    0  0.14338314668E+02 -0.30313297571E+03 -0.25710303128E+03  0.39774006201E+03  0.00000000000E+00 0.  1.
         21    1    1    2  502  501 -0.36790622589E-05  0.47239854873E-03  0.11518537941E-02  0.12449662997E-02  0.00000000000E+00 0. -1.
<mgrwt>
<rscale>  1 0.64668553E+03</rscale>
<asrwt>0</asrwt>
<pdfrwt beam="1">  1        1 0.38018897E+00 0.64668553E+03</pdfrwt>
<pdfrwt beam="2">0</pdfrwt>
<totfact> 0.16388229E+00</totfact>
</mgrwt>
</event>
<event>
 6    1  0.1175152E-003  0.6435952E+03  0.7818608E-02  0.9818872E-01
          1   -1    0    0  502    0  0.00000000000E+00  0.00000000000E+00  0.10356428815E+03  0.10356428815E+03  0.00000000000E+00 0.  1.
         13   -1    0    0    0    0 -0.00000000000E+00 -0.00000000000E+00 -0.10000000000E+04  0.10000000000E+04  0.00000000000E+00 0.  1.
    9000005    2    1    2  501    0 -0.60793572715E-04  0.49740554894E-03 -0.89644628464E+03  0.11035537035E+04  0.64359524179E+03 0.  0.
         13    1    3    3    0    0  0.18019351982E+03  0.24600657447E+03 -0.27197994714E+03  0.40860987618E+03  0.00000000000E+00 0.  1.
          3    1    3    3  501    0 -0.18019358062E+03 -0.24600607707E+03 -0.62446633750E+03  0.69494382731E+03  0.00000000000E+00 0.  1.
         21    1    1    2  502  501  0.60793572718E-04 -0.49740554894E-03  0.10572786650E-01  0.10584655199E-01  0.00000000000E+00 0.  1.
<mgrwt>
<rscale>  1 0.64359524E+03</rscale>
<asrwt>0</asrwt>
<pdfrwt beam="1">  1        1 0.37659821E+00 0.64359524E+03</pdfrwt>
<pdfrwt beam="2">0</pdfrwt>
<totfact> 0.17006283E+00</totfact>
</mgrwt>
</event>
<event>
 6    1  0.1175152E-003  0.6457645E+03  0.7818608E-02  0.9814759E-01
          3   -1    0    0  502    0  0.00000000000E+00  0.00000000000E+00  0.14252737455E+03  0.14252737455E+03  0.00000000000E+00 0.  1.
         13   -1    0    0    0    0 -0.00000000000E+00 -0.00000000000E+00 -0.10000000000E+04  0.10000000000E+04  0.00000000000E+00 0.  1.
    9000005    2    1    2  501    0 -0.14986043484E+00 -0.64607595168E+00 -0.89574388785E+03  0.11042503658E+04  0.64576413488E+03 0.  0.
         13    1    3    3    0    0  0.37823736636E+02  0.94484140601E+02 -0.97152146551E+03  0.97683767629E+03  0.00000000000E+00 0.  1.
          1    1    3    3  501    0 -0.37973597071E+02 -0.95130216553E+02  0.75777577653E+02  0.12741268952E+03  0.00000000000E+00 0.  1.
         21    1    1    2  502  501  0.14986043484E+00  0.64607595168E+00  0.38271262399E+02  0.38277008737E+02  0.00000000000E+00 0. -1.
<mgrwt>
<rscale>  1 0.64576448E+03</rscale>
<asrwt>0</asrwt>
<pdfrwt beam="1">  1        3 0.51828245E+00 0.64576448E+03</pdfrwt>
<pdfrwt beam="2">0</pdfrwt>
<totfact> 0.15089603E-02</totfact>
</mgrwt>
</event>
<event>
 6    1  0.1175152E-003  0.6523202E+03  0.7818608E-02  0.9802435E-01
          1   -1    0    0  502    0  0.00000000000E+00  0.00000000000E+00  0.10727232753E+03  0.10727232753E+03  0.00000000000E+00 0.  1.
         13   -1    0    0    0    0 -0.00000000000E+00 -0.00000000000E+00 -0.10000000000E+04  0.10000000000E+04  0.00000000000E+00 0.  1.
    9000005    2    1    2  501    0 -0.40866107007E-01  0.45810435057E+00 -0.89355352054E+03  0.11063270473E+04  0.65232003651E+03 0.  0.
         13    1    3    3    0    0 -0.23076182165E+03 -0.14711684621E+02 -0.83691666819E+03  0.86827240051E+03  0.00000000000E+00 0.  1.
          3    1    3    3  501    0  0.23072095554E+03  0.15169788972E+02 -0.56636852349E+02  0.23805464681E+03  0.00000000000E+00 0.  1.
         21    1    1    2  502  501  0.40866107007E-01 -0.45810435057E+00  0.82584807490E+00  0.94528021112E+00  0.00000000000E+00 0. -1.
<mgrwt>
<rscale>  1 0.65232020E+03</rscale>
<asrwt>0</asrwt>
<pdfrwt beam="1">  1        1 0.39008201E+00 0.65232020E+03</pdfrwt>
<pdfrwt beam="2">0</pdfrwt>
<totfact> 0.14801921E+00</totfact>
</mgrwt>
</event>
<event>
 6    1  0.1175152E-003  0.6547553E+03  0.7818608E-02  0.9797897E-01
          3   -1    0    0  502    0  0.00000000000E+00  0.00000000000E+00  0.12789623368E+03  0.12789623368E+03  0.00000000000E+00 0.  1.
         13   -1    0    0    0    0 -0.00000000000E+00 -0.00000000000E+00 -0.10000000000E+04  0.10000000000E+04  0.00000000000E+00 0.  1.
    9000005    2    1    2  501    0  0.23009460478E+02 -0.39648986968E+02 -0.74008480147E+03  0.98814472378E+03  0.65314853160E+03 0.  0.
         13    1    3    3    0    0  0.22380032998E+03 -0.40228367988E+02 -0.75334663642E+03  0.78691553796E+03  0.00000000000E+00 0.  1.
          1    1    3    3  501    0 -0.20079086950E+03  0.57938101957E+00  0.13261834943E+02  0.20122918582E+03  0.00000000000E+00 0.  1.
         21    1    1    2  502  501 -0.23009460478E+02  0.39648986968E+02 -0.13201896485E+03  0.13975150990E+03  0.00000000000E+00 0.  1.
<mgrwt>
<rscale>  1 0.65475528E+03</rscale>
<asrwt>0</asrwt>
<pdfrwt beam="1">  1        3 0.46507819E+00 0.65475528E+03</pdfrwt>
<pdfrwt beam="2">0</pdfrwt>
<totfact> 0.27422411E-02</totfact>
</mgrwt>
</event>
<event>
 6    1  0.1175152E-003  0.6443948E+03  0.7818608E-02  0.9817354E-01
          1   -1    0    0  502    0  0.00000000000E+00  0.00000000000E+00  0.10697157790E+03  0.10697157790E+03  0.00000000000E+00 0.  1.
         13   -1    0    0    0    0 -0.00000000000E+00 -0.00000000000E+00 -0.10000000000E+04  0.10000000000E+04  0.00000000000E+00 0.  1.
    9000005    2    1    2  501    0  0.24883561110E+00  0.31844434960E-01 -0.89618334115E+03  0.11038067007E+04  0.64439474604E+03 0.  0.
         13    1    3    3    0    0 -0.28741702362E+03 -0.14033132848E+02 -0.20010048832E+03  0.35049348026E+03  0.00000000000E+00 0.  1.
          3    1    3    3  501    0  0.28766585923E+03  0.14064977283E+02 -0.69608285282E+03  0.75331322048E+03  0.00000000000E+00 0.  1.
         21    1    1    2  502  501 -0.24883561110E+00 -0.31844434960E-01  0.31549190421E+01  0.31648771526E+01  0.00000000000E+00 0.  1.
<mgrwt>
<rscale>  1 0.64439479E+03</rscale>
<asrwt>0</asrwt>
<pdfrwt beam="1">  1        1 0.38898838E+00 0.64439479E+03</pdfrwt>
<pdfrwt beam="2">0</pdfrwt>
<totfact> 0.14990255E+00</totfact>
</mgrwt>
</event>
<event>
 6    1  0.1175152E-003  0.6470508E+03  0.7818608E-02  0.9812329E-01
          1   -1    0    0  502    0  0.00000000000E+00  0.00000000000E+00  0.10468855561E+03  0.10468855561E+03  0.00000000000E+00 0.  1.
         13   -1    0    0    0    0 -0.00000000000E+00 -0.00000000000E+00 -0.10000000000E+04  0.10000000000E+04  0.00000000000E+00 0.  1.
    9000005    2    1    2  501    0  0.73950379756E-02 -0.19111760347E-02 -0.89533048646E+03  0.11046680388E+04  0.64705084492E+03 0.  0.
         13    1    3    3    0    0  0.22834488920E+03 -0.22279705129E+03 -0.35587670797E+03  0.47794157150E+03  0.00000000000E+00 0.  1.
          1    1    3    3  501    0 -0.22833749416E+03  0.22279514012E+03 -0.53945377848E+03  0.62672646730E+03  0.00000000000E+00 0.  1.
         21    1    1    2  502  501 -0.73950379755E-02  0.19111760347E-02  0.19042067831E-01  0.20516810858E-01  0.00000000000E+00 0.  1.
<mgrwt>
<rscale>  1 0.64705084E+03</rscale>
<asrwt>0</asrwt>
<pdfrwt beam="1">  1        1 0.38068646E+00 0.64705084E+03</pdfrwt>
<pdfrwt beam="2">0</pdfrwt>
<totfact> 0.16304494E+00</totfact>
</mgrwt>
</event>
<event>
 6    1  0.1175152E-003  0.6473773E+03  0.7818608E-02  0.9811713E-01
          1   -1    0    0  502    0  0.00000000000E+00  0.00000000000E+00  0.10477451821E+03  0.10477451821E+03  0.00000000000E+00 0.  1.
         13   -1    0    0    0    0 -0.00000000000E+00 -0.00000000000E+00 -0.10000000000E+04  0.10000000000E+04  0.00000000000E+00 0.  1.
    9000005    2    1    2  501    0  0.15296265559E-04 -0.17286845511E-03 -0.89522559401E+03  0.11047743115E+04  0.64737733608E+03 0.  0.
         13    1    3    3    0    0  0.20988139091E+03 -0.24622996447E+03 -0.43097909570E+03  0.53890850298E+03  0.00000000000E+00 0.  1.
          3    1    3    3  501    0 -0.20988137562E+03  0.24622979160E+03 -0.46424649832E+03  0.56586580856E+03  0.00000000000E+00 0.  1.
         21    1    1    2  502  501 -0.15296265574E-04  0.17286845511E-03  0.11222428979E-03  0.20666826009E-03  0.00000000000E+00 0. -1.
<mgrwt>
<rscale>  1 0.64737734E+03</rscale>
<asrwt>0</asrwt>
<pdfrwt beam="1">  1        1 0.38099905E+00 0.64737734E+03</pdfrwt>
<pdfrwt beam="2">0</pdfrwt>
<totfact> 0.16251799E+00</totfact>
</mgrwt>
</event>
<event>
 6    1  0.1175152E-003  0.6551211E+03  0.7818608E-02  0.9797217E-01
          1   -1    0    0  502    0  0.00000000000E+00  0.00000000000E+00  0.10783824244E+03  0.10783824244E+03  0.00000000000E+00 0.  1.
         13   -1    0    0    0    0 -0.00000000000E+00 -0.00000000000E+00 -0.10000000000E+04  0.10000000000E+04  0.00000000000E+00 0.  1.
    9000005    2    1    2  501    0  0.33979401675E+00  0.39903975040E+00 -0.89256017487E+03  0.11071798892E+04  0.65512087931E+03 0.  0.
         13    1    3    3    0    0 -0.40822395728E+02  0.32305489813E+03 -0.50929912467E+03  0.60449692604E+03  0.00000000000E+00 0.  1.
          1    1    3    3  501    0  0.41162189745E+02 -0.32265585838E+03 -0.38326105019E+03  0.50268296312E+03  0.00000000000E+00 0.  1.
         21    1    1    2  502  501 -0.33979401675E+00 -0.39903975040E+00  0.39841730456E+00  0.65835328266E+00  0.00000000000E+00 0. -1.
<mgrwt>
<rscale>  1 0.65512109E+03</rscale>
<asrwt>0</asrwt>
<pdfrwt beam="1">  1        1 0.39213989E+00 0.65512109E+03</pdfrwt>
<pdfrwt beam="2">0</pdfrwt>
<totfact> 0.14486409E+00</totfact>
</mgrwt>
</event>
<event>
 6    1  0.1175152E-003  0.6322467E+03  0.7818608E-02  0.9840674E-01
          1   -1    0    0  502    0  0.00000000000E+00  0.00000000000E+00  0.10012617182E+03  0.10012617182E+03  0.00000000000E+00 0.  1.
         13   -1    0    0    0    0 -0.00000000000E+00 -0.00000000000E+00 -0.10000000000E+04  0.10000000000E+04  0.00000000000E+00 0.  1.
    9000005    2    1    2  501    0  0.83594215317E-02  0.92011492649E-03 -0.90006592739E+03  0.10999338886E+04  0.63224669678E+03 0.  0.
         13    1    3    3    0    0  0.21322359617E+03  0.22660985480E+03 -0.35286752746E+03  0.47045915890E+03  0.00000000000E+00 0.  1.
          1    1    3    3  501    0 -0.21321523675E+03 -0.22660893468E+03 -0.54719839993E+03  0.62947472971E+03  0.00000000000E+00 0.  1.
         21    1    1    2  502  501 -0.83594215317E-02 -0.92011492650E-03  0.19209920647E+00  0.19228320693E+00  0.00000000000E+00 0. -1.
<mgrwt>
<rscale>  1 0.63224670E+03</rscale>
<asrwt>0</asrwt>
<pdfrwt beam="1">  1        1 0.36409594E+00 0.63224670E+03</pdfrwt>
<pdfrwt beam="2">0</pdfrwt>
<totfact> 0.19338605E+00</totfact>
</mgrwt>
</event>
<event>
 6    1  0.1175152E-003  0.6017577E+03  0.7818608E-02  0.9901766E-01
          1   -1    0    0  502    0  0.00000000000E+00  0.00000000000E+00  0.90528193347E+02  0.90528193347E+02  0.00000000000E+00 0.  1.
         13   -1    0    0    0    0 -0.00000000000E+00 -0.00000000000E+00 -0.10000000000E+04  0.10000000000E+04  0.00000000000E+00 0.  1.
    9000005    2    1    2  501    0 -0.22543758973E-04  0.23478983977E-03 -0.90947179821E+03  0.10905279573E+04  0.60175765385E+03 0.  0.
         13    1    3    3    0    0 -0.26192108455E+03  0.14258211870E+03 -0.38234185565E+03  0.48488927570E+03  0.00000000000E+00 0.  1.
          3    1    3    3  501    0  0.26192106201E+03 -0.14258188391E+03 -0.52712994256E+03  0.60563868163E+03  0.00000000000E+00 0.  1.
         21    1    1    2  502  501  0.22543758937E-04 -0.23478983976E-03 -0.84438982969E-05  0.23602073922E-03  0.00000000000E+00 0. -1.
<mgrwt>
<rscale>  1 0.60175765E+03</rscale>
<asrwt>0</asrwt>
<pdfrwt beam="1">  1        1 0.32919412E+00 0.60175765E+03</pdfrwt>
<pdfrwt beam="2">0</pdfrwt>
<totfact> 0.27588800E+00</totfact>
</mgrwt>
</event>
<event>
 6    1  0.1175152E-003  0.6122307E+03  0.7818608E-02  0.9880351E-01
          1   -1    0    0  502    0  0.00000000000E+00  0.00000000000E+00  0.94005206457E+02  0.94005206457E+02  0.00000000000E+00 0.  1.
         13   -1    0    0    0    0 -0.00000000000E+00 -0.00000000000E+00 -0.10000000000E+04  0.10000000000E+04  0.00000000000E+00 0.  1.
    9000005    2    1    2  501    0 -0.19912030235E+00  0.25368795240E-01 -0.90625611007E+03  0.10936756935E+04  0.61223063072E+03 0.  0.
         13    1    3    3    0    0  0.23895545513E+03 -0.12167854748E+03 -0.18954927133E+03  0.32838134039E+03  0.00000000000E+00 0.  1.
          3    1    3    3  501    0 -0.23915457543E+03  0.12170391628E+03 -0.71670683874E+03  0.76529435310E+03  0.00000000000E+00 0.  1.
         21    1    1    2  502  501  0.19912030235E+00 -0.25368795240E-01  0.26131652565E+00  0.32951296964E+00  0.00000000000E+00 0.  1.
<mgrwt>
<rscale>  1 0.61223066E+03</rscale>
<asrwt>0</asrwt>
<pdfrwt beam="1">  1        1 0.34183784E+00 0.61223066E+03</pdfrwt>
<pdfrwt beam="2">0</pdfrwt>
<totfact> 0.24270580E+00</totfact>
</mgrwt>
</event>
<event>
 6    1  0.1175152E-003  0.6685283E+03  0.7818608E-02  0.9772620E-01
          1   -1    0    0  502    0  0.00000000000E+00  0.00000000000E+00  0.11466945156E+03  0.11466945156E+03  0.00000000000E+00 0.  1.
         13   -1    0    0    0    0 -0.00000000000E+00 -0.00000000000E+00 -0.10000000000E+04  0.10000000000E+04  0.00000000000E+00 0.  1.
    9000005    2    1    2  501    0  0.43362668272E+01  0.26264213035E+01 -0.88558854963E+03  0.11095932459E+04  0.66850908065E+03 0.  0.
         13    1    3    3    0    0  0.41930961449E+02  0.10269560177E+03  0.80848094824E+02  0.13726254619E+03  0.00000000000E+00 0.  1.
          3    1    3    3  501    0 -0.37594694621E+02 -0.10006918046E+03 -0.96643664445E+03  0.97233069975E+03  0.00000000000E+00 0.  1.
         21    1    1    2  502  501 -0.43362668272E+01 -0.26264213035E+01  0.25800119220E+00  0.50762056179E+01  0.00000000000E+00 0.  1.
<mgrwt>
<rscale>  1 0.66852830E+03</rscale>
<asrwt>0</asrwt>
<pdfrwt beam="1">  1        1 0.41698070E+00 0.66852830E+03</pdfrwt>
<pdfrwt beam="2">0</pdfrwt>
<totfact> 0.11189175E+00</totfact>
</mgrwt>
</event>
<event>
 6    1  0.1175152E-003  0.6774683E+03  0.7818608E-02  0.9756560E-01
          1   -1    0    0  502    0  0.00000000000E+00  0.00000000000E+00  0.11474104242E+03  0.11474104242E+03  0.00000000000E+00 0.  1.
         13   -1    0    0    0    0 -0.00000000000E+00 -0.00000000000E+00 -0.10000000000E+04  0.10000000000E+04  0.00000000000E+00 0.  1.
    9000005    2    1    2  501    0  0.49244824894E-03 -0.37127367952E-03 -0.88525794910E+03  0.11147398603E+04  0.67746831638E+03 0.  0.
         13    1    3    3    0    0 -0.59444271878E+02 -0.17603296573E+03  0.23412781275E+02  0.18726821623E+03  0.00000000000E+00 0.  1.
          1    1    3    3  501    0  0.59444764326E+02  0.17603259446E+03 -0.90867073038E+03  0.92747164407E+03  0.00000000000E+00 0.  1.
         21    1    1    2  502  501 -0.49244824894E-03  0.37127367951E-03 -0.10084829379E-02  0.11821113564E-02  0.00000000000E+00 0. -1.
<mgrwt>
<rscale>  1 0.67746832E+03</rscale>
<asrwt>0</asrwt>
<pdfrwt beam="1">  1        1 0.41724103E+00 0.67746832E+03</pdfrwt>
<pdfrwt beam="2">0</pdfrwt>
<totfact> 0.11139983E+00</totfact>
</mgrwt>
</event>
<event>
 6    1  0.1175152E-003  0.6475337E+03  0.7818608E-02  0.9811418E-01
          1   -1    0    0  502    0  0.00000000000E+00  0.00000000000E+00  0.10482525611E+03  0.10482525611E+03  0.00000000000E+00 0.  1.
         13   -1    0    0    0    0 -0.00000000000E+00 -0.00000000000E+00 -0.10000000000E+04  0.10000000000E+04  0.00000000000E+00 0.  1.
    9000005    2    1    2  501    0  0.12918843311E-03 -0.61847656926E-03 -0.89517455113E+03  0.11048245955E+04  0.64753371333E+03 0.  0.
         13    1    3    3    0    0 -0.27123333723E+03  0.17620494436E+03 -0.42291312223E+03  0.53242014857E+03  0.00000000000E+00 0.  1.
          3    1    3    3  501    0  0.27123346642E+03 -0.17620556283E+03 -0.47226142890E+03  0.57240444697E+03  0.00000000000E+00 0.  1.
         21    1    1    2  502  501 -0.12918843313E-03  0.61847656926E-03 -0.19275961057E-03  0.66057489011E-03  0.00000000000E+00 0.  1.
<mgrwt>
<rscale>  1 0.64753371E+03</rscale>
<asrwt>0</asrwt>
<pdfrwt beam="1">  1        1 0.38118355E+00 0.64753371E+03</pdfrwt>
<pdfrwt beam="2">0</pdfrwt>
<totfact> 0.16220882E+00</totfact>
</mgrwt>
</event>
<event>
 6    1  0.2193438E-003  0.6579050E+03  0.7818608E-02  0.9792058E-01
          1   -1    0    0  502    0  0.00000000000E+00  0.00000000000E+00  0.10820975072E+03  0.10820975072E+03  0.00000000000E+00 0.  1.
         13   -1    0    0    0    0 -0.00000000000E+00 -0.00000000000E+00 -0.10000000000E+04  0.10000000000E+04  0.00000000000E+00 0.  1.
    9000005    2    1    2  501    0 -0.63996786537E-05  0.74655075366E-05 -0.89179024891E+03  0.11082097409E+04  0.65790499446E+03 0.  0.
         13    1    3    3    0    0 -0.18181772501E+03 -0.14431214837E+03 -0.83850652050E+03  0.87004417486E+03  0.00000000000E+00 0.  1.
          1    1    3    3  501    0  0.18181771861E+03  0.14431215584E+03 -0.53283728414E+02  0.23816556602E+03  0.00000000000E+00 0.  1.
         21    1    1    2  502  501  0.63996786521E-05 -0.74655075266E-05 -0.36421432887E-06  0.98398344274E-05  0.00000000000E+00 0.  1.
<mgrwt>
<rscale>  1 0.65790499E+03</rscale>
<asrwt>0</asrwt>
<pdfrwt beam="1">  1        1 0.39349083E+00 0.65790499E+03</pdfrwt>
<pdfrwt beam="2">0</pdfrwt>
<totfact> 0.14280249E+00</totfact>
</mgrwt>
</event>
<event>
 6    1  0.1175152E-003  0.6393965E+03  0.7818608E-02  0.9826882E-01
          1   -1    0    0  502    0  0.00000000000E+00  0.00000000000E+00  0.10220702043E+03  0.10220702043E+03  0.00000000000E+00 0.  1.
         13   -1    0    0    0    0 -0.00000000000E+00 -0.00000000000E+00 -0.10000000000E+04  0.10000000000E+04  0.00000000000E+00 0.  1.
    9000005    2    1    2  501    0 -0.47925765662E-04  0.84983031854E-04 -0.89779299624E+03  0.11022069214E+04  0.63939646041E+03 0.  0.
         13    1    3    3    0    0 -0.13349492803E+01 -0.28217303400E+03 -0.18984332286E+03  0.34009394355E+03  0.00000000000E+00 0.  1.
          3    1    3    3  501    0  0.13349013545E+01  0.28217311898E+03 -0.70794967338E+03  0.76211297790E+03  0.00000000000E+00 0.  1.
         21    1    1    2  502  501  0.47925765662E-04 -0.84983031873E-04  0.16664553045E-04  0.98978290796E-04  0.00000000000E+00 0. -1.
<mgrwt>
<rscale>  1 0.63939646E+03</rscale>
<asrwt>0</asrwt>
<pdfrwt beam="1">  1        1 0.37166268E+00 0.63939646E+03</pdfrwt>
<pdfrwt beam="2">0</pdfrwt>
<totfact> 0.17892021E+00</totfact>
</mgrwt>
</event>
<event>
 6    1  0.1175152E-003  0.6316827E+03  0.7818608E-02  0.9841771E-01
          1   -1    0    0  502    0  0.00000000000E+00  0.00000000000E+00  0.99899296689E+02  0.99899296689E+02  0.00000000000E+00 0.  1.
         13   -1    0    0    0    0 -0.00000000000E+00 -0.00000000000E+00 -0.10000000000E+04  0.10000000000E+04  0.00000000000E+00 0.  1.
    9000005    2    1    2  501    0 -0.29526245846E-02 -0.90618633954E-02 -0.90024408010E+03  0.10997556035E+04  0.63168266046E+03 0.  0.
         13    1    3    3    0    0  0.29966853418E+03 -0.87470859316E+02 -0.53367633318E+03  0.61827405752E+03  0.00000000000E+00 0.  1.
          1    1    3    3  501    0 -0.29967148680E+03  0.87461797453E+02 -0.36656774692E+03  0.48148154596E+03  0.00000000000E+00 0.  1.
         21    1    1    2  502  501  0.29526245845E-02  0.90618633954E-02  0.14337678979E+00  0.14369321212E+00  0.00000000000E+00 0. -1.
<mgrwt>
<rscale>  1 0.63168266E+03</rscale>
<asrwt>0</asrwt>
<pdfrwt beam="1">  1        1 0.36327094E+00 0.63168266E+03</pdfrwt>
<pdfrwt beam="2">0</pdfrwt>
<totfact> 0.19502171E+00</totfact>
</mgrwt>
</event>
<event>
 6    1  0.1175152E-003  0.7174942E+03  0.7818608E-02  0.9687774E-01
          1   -1    0    0  502    0  0.00000000000E+00  0.00000000000E+00  0.12880241222E+03  0.12880241222E+03  0.00000000000E+00 0.  1.
         13   -1    0    0    0    0 -0.00000000000E+00 -0.00000000000E+00 -0.10000000000E+04  0.10000000000E+04  0.00000000000E+00 0.  1.
    9000005    2    1    2  501    0 -0.54003851952E-02 -0.31089685233E-02 -0.87130039629E+03  0.11286994150E+04  0.71749424311E+03 0.  0.
         13    1    3    3    0    0 -0.20797298443E+03  0.24729346275E+03 -0.68083966385E+03  0.75362422124E+03  0.00000000000E+00 0.  1.
          1    1    3    3  501    0  0.20796758404E+03 -0.24729657172E+03 -0.19046073244E+03  0.37507519380E+03  0.00000000000E+00 0.  1.
         21    1    1    2  502  501  0.54003851952E-02  0.31089685233E-02  0.10280851305E+00  0.10299718541E+00  0.00000000000E+00 0.  1.
<mgrwt>
<rscale>  1 0.71749424E+03</rscale>
<asrwt>0</asrwt>
<pdfrwt beam="1">  1        1 0.46837340E+00 0.71749424E+03</pdfrwt>
<pdfrwt beam="2">0</pdfrwt>
<totfact> 0.64389405E-01</totfact>
</mgrwt>
</event>
<event>
 6    1  0.1175152E-003  0.6635884E+03  0.7818608E-02  0.9781610E-01
          1   -1    0    0  502    0  0.00000000000E+00  0.00000000000E+00  0.11008765382E+03  0.11008765382E+03  0.00000000000E+00 0.  1.
         13   -1    0    0    0    0 -0.00000000000E+00 -0.00000000000E+00 -0.10000000000E+04  0.10000000000E+04  0.00000000000E+00 0.  1.
    9000005    2    1    2  501    0  0.18020048866E-03  0.31561914341E-03 -0.88991244121E+03  0.11100872782E+04  0.66358843580E+03 0.  0.
         13    1    3    3    0    0 -0.40154728972E+02  0.26144635698E+03 -0.10988020998E+03  0.28642671031E+03  0.00000000000E+00 0.  1.
          3    1    3    3  501    0  0.40154909173E+02 -0.26144604136E+03 -0.78003223123E+03  0.82366056785E+03  0.00000000000E+00 0.  1.
         21    1    1    2  502  501 -0.18020048866E-03 -0.31561914340E-03  0.95036363093E-04  0.37565884803E-03  0.00000000000E+00 0. -1.
<mgrwt>
<rscale>  1 0.66358844E+03</rscale>
<asrwt>0</asrwt>
<pdfrwt beam="1">  1        1 0.40031959E+00 0.66358844E+03</pdfrwt>
<pdfrwt beam="2">0</pdfrwt>
<totfact> 0.13300765E+00</totfact>
</mgrwt>
</event>
<event>
 6    1  0.1175152E-003  0.6519201E+03  0.7818608E-02  0.9803183E-01
          1   -1    0    0  502    0  0.00000000000E+00  0.00000000000E+00  0.10653158459E+03  0.10653158459E+03  0.00000000000E+00 0.  1.
         13   -1    0    0    0    0 -0.00000000000E+00 -0.00000000000E+00 -0.10000000000E+04  0.10000000000E+04  0.00000000000E+00 0.  1.
    9000005    2    1    2  501    0  0.98022626275E-03  0.70133555706E-02 -0.89374998188E+03  0.11062499291E+04  0.65192014500E+03 0.  0.
         13    1    3    3    0    0 -0.29214053728E+03  0.10597028825E+03 -0.61378352408E+03  0.68797239040E+03  0.00000000000E+00 0.  1.
          1    1    3    3  501    0  0.29214151751E+03 -0.10596327490E+03 -0.27996645779E+03  0.41827753869E+03  0.00000000000E+00 0.  1.
         21    1    1    2  502  501 -0.98022626278E-03 -0.70133555706E-02  0.28156647049E+00  0.28165550821E+00  0.00000000000E+00 0.  1.
<mgrwt>
<rscale>  1 0.65192015E+03</rscale>
<asrwt>0</asrwt>
<pdfrwt beam="1">  1        1 0.38738840E+00 0.65192015E+03</pdfrwt>
<pdfrwt beam="2">0</pdfrwt>
<totfact> 0.15215537E+00</totfact>
</mgrwt>
</event>
<event>
 6    1  0.1175152E-003  0.6541632E+03  0.7818608E-02  0.9798998E-01
          1   -1    0    0  502    0  0.00000000000E+00  0.00000000000E+00  0.10731892461E+03  0.10731892461E+03  0.00000000000E+00 0.  1.
         13   -1    0    0    0    0 -0.00000000000E+00 -0.00000000000E+00 -0.10000000000E+04  0.10000000000E+04  0.00000000000E+00 0.  1.
    9000005    2    1    2  501    0  0.48306018826E-02 -0.59928136214E-02 -0.89301758456E+03  0.11069823274E+04  0.65416318057E+03 0.  0.
         13    1    3    3    0    0  0.42864420214E+01  0.32220511672E+03 -0.54141878919E+03  0.63005461359E+03  0.00000000000E+00 0.  1.
          3    1    3    3  501    0 -0.42816114196E+01 -0.32221110953E+03 -0.35159879538E+03  0.47692771382E+03  0.00000000000E+00 0.  1.
         21    1    1    2  502  501 -0.48306018826E-02  0.59928136214E-02  0.33650917521E+00  0.33659719775E+00  0.00000000000E+00 0.  1.
<mgrwt>
<rscale>  1 0.65416318E+03</rscale>
<asrwt>0</asrwt>
<pdfrwt beam="1">  1        1 0.39025146E+00 0.65416318E+03</pdfrwt>
<pdfrwt beam="2">0</pdfrwt>
<totfact> 0.14771271E+00</totfact>
</mgrwt>
</event>
<event>
 6    1  0.1175152E-003  0.5707615E+03  0.7818608E-02  0.9967995E-01
          1   -1    0    0  502    0  0.00000000000E+00  0.00000000000E+00  0.81462212713E+02  0.81462212713E+02  0.00000000000E+00 0.  1.
         13   -1    0    0    0    0 -0.00000000000E+00 -0.00000000000E+00 -0.10000000000E+04  0.10000000000E+04  0.00000000000E+00 0.  1.
    9000005    2    1    2  501    0 -0.22490281727E-02  0.87774150982E-02 -0.91855671097E+03  0.10814412316E+04  0.57076151417E+03 0.  0.
         13    1    3    3    0    0  0.16839227259E+03 -0.19390800874E+03 -0.69504183161E+03  0.74097194347E+03  0.00000000000E+00 0.  1.
          3    1    3    3  501    0 -0.16839452162E+03  0.19391678616E+03 -0.22351487936E+03  0.34046928813E+03  0.00000000000E+00 0.  1.
         21    1    1    2  502  501  0.22490281727E-02 -0.87774150982E-02  0.18923684808E-01  0.20981110320E-01  0.00000000000E+00 0. -1.
<mgrwt>
<rscale>  1 0.57076151E+03</rscale>
<asrwt>0</asrwt>
<pdfrwt beam="1">  1        1 0.29622685E+00 0.57076151E+03</pdfrwt>
<pdfrwt beam="2">0</pdfrwt>
<totfact> 0.38506137E+00</totfact>
</mgrwt>
</event>
<event>
 6    1  0.1175152E-003  0.6564820E+03  0.7818608E-02  0.9794692E-01
          1   -1    0    0  502    0  0.00000000000E+00  0.00000000000E+00  0.12676076087E+03  0.12676076087E+03  0.00000000000E+00 0.  1.
         13   -1    0    0    0    0 -0.00000000000E+00 -0.00000000000E+00 -0.10000000000E+04  0.10000000000E+04  0.00000000000E+00 0.  1.
    9000005    2    1    2  501    0  0.84521647558E+01 -0.13076824604E+02 -0.88866005974E+03  0.11048462876E+04  0.65629732210E+03 0.  0.
         13    1    3    3    0    0  0.19373259354E+03 -0.16816763720E+03 -0.92302120452E+02  0.27263960358E+03  0.00000000000E+00 0.  1.
          1    1    3    3  501    0 -0.18528042879E+03  0.15509081259E+03 -0.79635793929E+03  0.83220668401E+03  0.00000000000E+00 0.  1.
         21    1    1    2  502  501 -0.84521647558E+01  0.13076824604E+02  0.15420820607E+02  0.21914473276E+02  0.00000000000E+00 0. -1.
<mgrwt>
<rscale>  1 0.65648200E+03</rscale>
<asrwt>0</asrwt>
<pdfrwt beam="1">  1        1 0.46094919E+00 0.65648200E+03</pdfrwt>
<pdfrwt beam="2">0</pdfrwt>
<totfact> 0.70607560E-01</totfact>
</mgrwt>
</event>
<event>
 6    1  0.1175152E-003  0.6080403E+03  0.7818608E-02  0.9888864E-01
          1   -1    0    0  502    0  0.00000000000E+00  0.00000000000E+00  0.92483661588E+02  0.92483661588E+02  0.00000000000E+00 0.  1.
         13   -1    0    0    0    0 -0.00000000000E+00 -0.00000000000E+00 -0.10000000000E+04  0.10000000000E+04  0.00000000000E+00 0.  1.
    9000005    2    1    2  501    0 -0.27216476837E-02  0.96215577636E-03 -0.90757172107E+03  0.10924282037E+04  0.60804025478E+03 0.  0.
         13    1    3    3    0    0  0.21940183384E+03 -0.20797943702E+03 -0.39598827184E+03  0.49819606818E+03  0.00000000000E+00 0.  1.
          1    1    3    3  501    0 -0.21940455549E+03  0.20798039917E+03 -0.51158344923E+03  0.59423213556E+03  0.00000000000E+00 0.  1.
         21    1    1    2  502  501  0.27216476837E-02 -0.96215577637E-03  0.55382662130E-01  0.55457843218E-01  0.00000000000E+00 0. -1.
<mgrwt>
<rscale>  1 0.60804025E+03</rscale>
<asrwt>0</asrwt>
<pdfrwt beam="1">  1        1 0.33630493E+00 0.60804025E+03</pdfrwt>
<pdfrwt beam="2">0</pdfrwt>
<totfact> 0.25670103E+00</totfact>
</mgrwt>
</event>
<event>
 6    1  0.1175152E-003  0.6552442E+03  0.7818608E-02  0.9796988E-01
          1   -1    0    0  502    0  0.00000000000E+00  0.00000000000E+00  0.10733881041E+03  0.10733881041E+03  0.00000000000E+00 0.  1.
         13   -1    0    0    0    0 -0.00000000000E+00 -0.00000000000E+00 -0.10000000000E+04  0.10000000000E+04  0.00000000000E+00 0.  1.
    9000005    2    1    2  501    0 -0.26397851614E-03 -0.66268255779E-04 -0.89266374896E+03  0.11073362366E+04  0.65524420805E+03 0.  0.
         13    1    3    3    0    0  0.97366298116E+02  0.16666708105E+03 -0.89370242189E+03  0.91430964711E+03  0.00000000000E+00 0.  1.
          3    1    3    3  501    0 -0.97366562095E+02 -0.16666714732E+03  0.10386729234E+01  0.19302658949E+03  0.00000000000E+00 0.  1.
         21    1    1    2  502  501  0.26397851615E-03  0.66268255789E-04  0.25593715466E-02  0.25738024112E-02  0.00000000000E+00 0.  1.
<mgrwt>
<rscale>  1 0.65524421E+03</rscale>
<asrwt>0</asrwt>
<pdfrwt beam="1">  1        1 0.39032377E+00 0.65524421E+03</pdfrwt>
<pdfrwt beam="2">0</pdfrwt>
<totfact> 0.14757406E+00</totfact>
</mgrwt>
</event>
<event>
 6    1  0.1175152E-003  0.6646422E+03  0.7818608E-02  0.9779685E-01
          1   -1    0    0  502    0  0.00000000000E+00  0.00000000000E+00  0.11095200790E+03  0.11095200790E+03  0.00000000000E+00 0.  1.
         13   -1    0    0    0    0 -0.00000000000E+00 -0.00000000000E+00 -0.10000000000E+04  0.10000000000E+04  0.00000000000E+00 0.  1.
    9000005    2    1    2  501    0  0.10690773798E+00 -0.31496363147E-01 -0.88955596805E+03  0.11104319494E+04  0.66464222070E+03 0.  0.
         13    1    3    3    0    0  0.61786107015E+02 -0.32098766568E+03 -0.34452062606E+03  0.47491585183E+03  0.00000000000E+00 0.  1.
          1    1    3    3  501    0 -0.61679199277E+02  0.32095616932E+03 -0.54503534199E+03  0.63551609756E+03  0.00000000000E+00 0.  1.
         21    1    1    2  502  501 -0.10690773798E+00  0.31496363147E-01  0.50797594925E+00  0.52005850666E+00  0.00000000000E+00 0. -1.
<mgrwt>
<rscale>  1 0.66464223E+03</rscale>
<asrwt>0</asrwt>
<pdfrwt beam="1">  1        1 0.40346270E+00 0.66464223E+03</pdfrwt>
<pdfrwt beam="2">0</pdfrwt>
<totfact> 0.12875365E+00</totfact>
</mgrwt>
</event>
<event>
 6    1  0.1175152E-003  0.6544852E+03  0.7818608E-02  0.9798399E-01
          1   -1    0    0  502    0  0.00000000000E+00  0.00000000000E+00  0.11051855855E+03  0.11051855855E+03  0.00000000000E+00 0.  1.
         13   -1    0    0    0    0 -0.00000000000E+00 -0.00000000000E+00 -0.10000000000E+04  0.10000000000E+04  0.00000000000E+00 0.  1.
    9000005    2    1    2  501    0  0.18902411129E+01  0.83169573971E+00 -0.89256481996E+03  0.11068075004E+04  0.65448194816E+03 0.  0.
         13    1    3    3    0    0 -0.30031421747E+03 -0.68655855809E+02 -0.62679605048E+03  0.69840929594E+03  0.00000000000E+00 0.  1.
          1    1    3    3  501    0  0.30220445859E+03  0.69487551548E+02 -0.26576876948E+03  0.40839820450E+03  0.00000000000E+00 0.  1.
         21    1    1    2  502  501 -0.18902411129E+01 -0.83169573971E+00  0.30833785105E+01  0.37110581115E+01  0.00000000000E+00 0.  1.
<mgrwt>
<rscale>  1 0.65448521E+03</rscale>
<asrwt>0</asrwt>
<pdfrwt beam="1">  1        1 0.40188651E+00 0.65448521E+03</pdfrwt>
<pdfrwt beam="2">0</pdfrwt>
<totfact> 0.13110851E+00</totfact>
</mgrwt>
</event>
<event>
 6    1  0.1175152E-003  0.6573008E+03  0.7818608E-02  0.9793175E-01
          1   -1    0    0  502    0  0.00000000000E+00  0.00000000000E+00  0.10801111399E+03  0.10801111399E+03  0.00000000000E+00 0.  1.
         13   -1    0    0    0    0 -0.00000000000E+00 -0.00000000000E+00 -0.10000000000E+04  0.10000000000E+04  0.00000000000E+00 0.  1.
    9000005    2    1    2  501    0  0.21099575694E-04  0.39473893054E-04 -0.89198888044E+03  0.11080110689E+04  0.65730081845E+03 0.  0.
         13    1    3    3    0    0  0.40766359270E+01 -0.23829703698E+03 -0.82745794049E+03  0.86109740452E+03  0.00000000000E+00 0.  1.
          3    1    3    3  501    0 -0.40766148274E+01  0.23829707646E+03 -0.64530939946E+02  0.24691366436E+03  0.00000000000E+00 0.  1.
         21    1    1    2  502  501 -0.21099575694E-04 -0.39473893052E-04 -0.55771513002E-05  0.45105265145E-04  0.00000000000E+00 0. -1.
<mgrwt>
<rscale>  1 0.65730082E+03</rscale>
<asrwt>0</asrwt>
<pdfrwt beam="1">  1        1 0.39276852E+00 0.65730082E+03</pdfrwt>
<pdfrwt beam="2">0</pdfrwt>
<totfact> 0.14387763E+00</totfact>
</mgrwt>
</event>
<event>
 6    1  0.1175152E-003  0.6298173E+03  0.7818608E-02  0.9845405E-01
          1   -1    0    0  502    0  0.00000000000E+00  0.00000000000E+00  0.99553166879E+02  0.99553166879E+02  0.00000000000E+00 0.  1.
         13   -1    0    0    0    0 -0.00000000000E+00 -0.00000000000E+00 -0.10000000000E+04  0.10000000000E+04  0.00000000000E+00 0.  1.
    9000005    2    1    2  501    0  0.60670497345E-01 -0.47510481373E-01 -0.90082831859E+03  0.10991639763E+04  0.62981726021E+03 0.  0.
         13    1    3    3    0    0  0.11835749078E+02  0.30663065915E+03 -0.32708693565E+03  0.44849560707E+03  0.00000000000E+00 0.  1.
          1    1    3    3  501    0 -0.11775078580E+02 -0.30667816963E+03 -0.57374138294E+03  0.65066836922E+03  0.00000000000E+00 0.  1.
         21    1    1    2  502  501 -0.60670497345E-01  0.47510481373E-01  0.38148546635E+00  0.38919059100E+00  0.00000000000E+00 0. -1.
<mgrwt>
<rscale>  1 0.62981726E+03</rscale>
<asrwt>0</asrwt>
<pdfrwt beam="1">  1        1 0.36201228E+00 0.62981726E+03</pdfrwt>
<pdfrwt beam="2">0</pdfrwt>
<totfact> 0.19757866E+00</totfact>
</mgrwt>
</event>
<event>
 6    1  0.1175152E-003  0.6565159E+03  0.7818608E-02  0.9794629E-01
          1   -1    0    0  502    0  0.00000000000E+00  0.00000000000E+00  0.10775352449E+03  0.10775352449E+03  0.00000000000E+00 0.  1.
         13   -1    0    0    0    0 -0.00000000000E+00 -0.00000000000E+00 -0.10000000000E+04  0.10000000000E+04  0.00000000000E+00 0.  1.
    9000005    2    1    2  501    0 -0.36983520209E-03 -0.14403970198E-04 -0.89224657343E+03  0.11077531416E+04  0.65651586043E+03 0.  0.
         13    1    3    3    0    0  0.22262064955E+03 -0.11505927423E+03 -0.80387739016E+03  0.84203173848E+03  0.00000000000E+00 0.  1.
          3    1    3    3  501    0 -0.22262101939E+03  0.11505925983E+03 -0.88369183275E+02  0.26572140316E+03  0.00000000000E+00 0.  1.
         21    1    1    2  502  501  0.36983520210E-03  0.14403970206E-04  0.97920468867E-04  0.38284979991E-03  0.00000000000E+00 0.  1.
<mgrwt>
<rscale>  1 0.65651586E+03</rscale>
<asrwt>0</asrwt>
<pdfrwt beam="1">  1        1 0.39183182E+00 0.65651586E+03</pdfrwt>
<pdfrwt beam="2">0</pdfrwt>
<totfact> 0.14528332E+00</totfact>
</mgrwt>
</event>
<event>
 6    1  0.1175152E-003  0.6558454E+03  0.7818608E-02  0.9795872E-01
          1   -1    0    0  502    0  0.00000000000E+00  0.00000000000E+00  0.10753534968E+03  0.10753534968E+03  0.00000000000E+00 0.  1.
         13   -1    0    0    0    0 -0.00000000000E+00 -0.00000000000E+00 -0.10000000000E+04  0.10000000000E+04  0.00000000000E+00 0.  1.
    9000005    2    1    2  501    0 -0.28871870229E-03  0.29125063509E-03 -0.89246667149E+03  0.11075332873E+04  0.65584542600E+03 0.  0.
         13    1    3    3    0    0  0.80837696609E+02 -0.31478894115E+03 -0.51996577921E+03  0.61318123114E+03  0.00000000000E+00 0.  1.
          3    1    3    3  501    0 -0.80837985327E+02  0.31478923240E+03 -0.37250089228E+03  0.49435205619E+03  0.00000000000E+00 0.  1.
         21    1    1    2  502  501  0.28871870229E-03 -0.29125063508E-03  0.20211724139E-02  0.20623586856E-02  0.00000000000E+00 0.  1.
<mgrwt>
<rscale>  1 0.65584543E+03</rscale>
<asrwt>0</asrwt>
<pdfrwt beam="1">  1        1 0.39103846E+00 0.65584543E+03</pdfrwt>
<pdfrwt beam="2">0</pdfrwt>
<totfact> 0.14648425E+00</totfact>
</mgrwt>
</event>
<event>
 6    1  0.1175152E-003  0.6471378E+03  0.7818608E-02  0.9812165E-01
          1   -1    0    0  502    0  0.00000000000E+00  0.00000000000E+00  0.10469757132E+03  0.10469757132E+03  0.00000000000E+00 0.  1.
         13   -1    0    0    0    0 -0.00000000000E+00 -0.00000000000E+00 -0.10000000000E+04  0.10000000000E+04  0.00000000000E+00 0.  1.
    9000005    2    1    2  501    0  0.17412118379E-02  0.80923628737E-03 -0.89530136875E+03  0.11046953781E+04  0.64713780414E+03 0.  0.
         13    1    3    3    0    0 -0.22846781931E+03 -0.10748590012E+03 -0.79307110654E+03  0.83229354390E+03  0.00000000000E+00 0.  1.
          3    1    3    3  501    0  0.22846956053E+03  0.10748670935E+03 -0.10223026221E+03  0.27240183422E+03  0.00000000000E+00 0.  1.
         21    1    1    2  502  501 -0.17412118379E-02 -0.80923628737E-03 -0.10599286097E-02  0.21932010147E-02  0.00000000000E+00 0. -1.
<mgrwt>
<rscale>  1 0.64713780E+03</rscale>
<asrwt>0</asrwt>
<pdfrwt beam="1">  1        1 0.38071924E+00 0.64713780E+03</pdfrwt>
<pdfrwt beam="2">0</pdfrwt>
<totfact> 0.16298802E+00</totfact>
</mgrwt>
</event>
<event>
 6    1  0.2079688E-003  0.5853232E+03  0.7818608E-02  0.9936332E-01
          1   -1    0    0  502    0  0.00000000000E+00  0.00000000000E+00  0.85650934799E+02  0.85650934799E+02  0.00000000000E+00 0.  1.
         13   -1    0    0    0    0 -0.00000000000E+00 -0.00000000000E+00 -0.10000000000E+04  0.10000000000E+04  0.00000000000E+00 0.  1.
    9000005    2    1    2  501    0  0.22275061764E-03 -0.35051791478E-03 -0.91434867777E+03  0.10856503668E+04  0.58532317096E+03 0.  0.
         13    1    3    3    0    0 -0.26302246737E+03 -0.12399591659E+03 -0.39579839211E+03  0.49113355910E+03  0.00000000000E+00 0.  1.
          3    1    3    3  501    0  0.26302269012E+03  0.12399556607E+03 -0.51855028566E+03  0.59451680774E+03  0.00000000000E+00 0.  1.
         21    1    1    2  502  501 -0.22275061764E-03  0.35051791477E-03 -0.38742735686E-03  0.56796179720E-03  0.00000000000E+00 0.  1.
<mgrwt>
<rscale>  1 0.58532317E+03</rscale>
<asrwt>0</asrwt>
<pdfrwt beam="1">  1        1 0.31145860E+00 0.58532317E+03</pdfrwt>
<pdfrwt beam="2">0</pdfrwt>
<totfact> 0.33013189E+00</totfact>
</mgrwt>
</event>
<event>
 6    1  0.1175152E-003  0.6477504E+03  0.7818608E-02  0.9811010E-01
          1   -1    0    0  502    0  0.00000000000E+00  0.00000000000E+00  0.10490777928E+03  0.10490777928E+03  0.00000000000E+00 0.  1.
         13   -1    0    0    0    0 -0.00000000000E+00 -0.00000000000E+00 -0.10000000000E+04  0.10000000000E+04  0.00000000000E+00 0.  1.
    9000005    2    1    2  501    0  0.25526384723E-02 -0.10872191803E-01 -0.89510207665E+03  0.11048928843E+04  0.64775038253E+03 0.  0.
         13    1    3    3    0    0  0.25446291677E+03 -0.18026999645E+03 -0.29837416502E+03  0.43159679098E+03  0.00000000000E+00 0.  1.
          1    1    3    3  501    0 -0.25446036413E+03  0.18025912426E+03 -0.59672791163E+03  0.67329609334E+03  0.00000000000E+00 0.  1.
         21    1    1    2  502  501 -0.25526384723E-02  0.10872191803E-01  0.98559331812E-02  0.14894963466E-01  0.00000000000E+00 0. -1.
<mgrwt>
<rscale>  1 0.64775038E+03</rscale>
<asrwt>0</asrwt>
<pdfrwt beam="1">  1        1 0.38148364E+00 0.64775038E+03</pdfrwt>
<pdfrwt beam="2">0</pdfrwt>
<totfact> 0.16170827E+00</totfact>
</mgrwt>
</event>
<event>
 6    1  0.1175152E-003  0.6487929E+03  0.7818608E-02  0.9809047E-01
          1   -1    0    0  502    0  0.00000000000E+00  0.00000000000E+00  0.10523306280E+03  0.10523306280E+03  0.00000000000E+00 0.  1.
         13   -1    0    0    0    0 -0.00000000000E+00 -0.00000000000E+00 -0.10000000000E+04  0.10000000000E+04  0.00000000000E+00 0.  1.
    9000005    2    1    2  501    0 -0.10513928032E-04  0.27421896220E-06 -0.89476693710E+03  0.11052330523E+04  0.64879290080E+03 0.  0.
         13    1    3    3    0    0  0.32189860832E+03  0.35386892557E+02 -0.47979999022E+03  0.57886006670E+03  0.00000000000E+00 0.  1.
          1    1    3    3  501    0 -0.32189861883E+03 -0.35386892282E+02 -0.41496694689E+03  0.52637298559E+03  0.00000000000E+00 0.  1.
         21    1    1    2  502  501  0.10513928027E-04 -0.27421896434E-06 -0.90799283142E-07  0.10517895374E-04  0.00000000000E+00 0. -1.
<mgrwt>
<rscale>  1 0.64879290E+03</rscale>
<asrwt>0</asrwt>
<pdfrwt beam="1">  1        1 0.38266649E+00 0.64879290E+03</pdfrwt>
<pdfrwt beam="2">0</pdfrwt>
<totfact> 0.15974397E+00</totfact>
</mgrwt>
</event>
<event>
 6    1  0.1175152E-003  0.6581321E+03  0.7818608E-02  0.9791638E-01
          1   -1    0    0  502    0  0.00000000000E+00  0.00000000000E+00  0.10880089811E+03  0.10880089811E+03  0.00000000000E+00 0.  1.
         13   -1    0    0    0    0 -0.00000000000E+00 -0.00000000000E+00 -0.10000000000E+04  0.10000000000E+04  0.00000000000E+00 0.  1.
    9000005    2    1    2  501    0 -0.53304233531E-02  0.91444566418E-02 -0.89171547711E+03  0.11082844144E+04  0.65813209239E+03 0.  0.
         13    1    3    3    0    0 -0.93187491412E+02 -0.31480459368E+03 -0.40833964088E+03  0.52395334055E+03  0.00000000000E+00 0.  1.
          3    1    3    3  501    0  0.93182160989E+02  0.31481373814E+03 -0.48337583623E+03  0.58433107388E+03  0.00000000000E+00 0.  1.
         21    1    1    2  502  501  0.53304233531E-02 -0.91444566418E-02  0.51637521540E+00  0.51648368569E+00  0.00000000000E+00 0. -1.
<mgrwt>
<rscale>  1 0.65813209E+03</rscale>
<asrwt>0</asrwt>
<pdfrwt beam="1">  1        1 0.39564046E+00 0.65813209E+03</pdfrwt>
<pdfrwt beam="2">0</pdfrwt>
<totfact> 0.13968857E+00</totfact>
</mgrwt>
</event>
<event>
 6    1  0.1175152E-003  0.6448978E+03  0.7818608E-02  0.9816400E-01
          1   -1    0    0  502    0  0.00000000000E+00  0.00000000000E+00  0.10566908817E+03  0.10566908817E+03  0.00000000000E+00 0.  1.
         13   -1    0    0    0    0 -0.00000000000E+00 -0.00000000000E+00 -0.10000000000E+04  0.10000000000E+04  0.00000000000E+00 0.  1.
    9000005    2    1    2  501    0  0.27577566739E+00 -0.26858094586E+01 -0.89474947538E+03  0.11029369059E+04  0.64489216541E+03 0.  0.
         13    1    3    3    0    0 -0.19297402633E+03 -0.19668670587E+03 -0.73721676374E+03  0.78702807564E+03  0.00000000000E+00 0.  1.
          1    1    3    3  501    0  0.19324980200E+03  0.19400089641E+03 -0.15753271164E+03  0.31590883023E+03  0.00000000000E+00 0.  1.
         21    1    1    2  502  501 -0.27577566739E+00  0.26858094586E+01  0.41856354675E+00  0.27321822979E+01  0.00000000000E+00 0. -1.
<mgrwt>
<rscale>  1 0.64489782E+03</rscale>
<asrwt>0</asrwt>
<pdfrwt beam="1">  1        1 0.38425204E+00 0.64489782E+03</pdfrwt>
<pdfrwt beam="2">0</pdfrwt>
<totfact> 0.15730053E+00</totfact>
</mgrwt>
</event>
<event>
 6    1  0.1175152E-003  0.6689989E+03  0.7818608E-02  0.9771768E-01
          1   -1    0    0  502    0  0.00000000000E+00  0.00000000000E+00  0.11195468656E+03  0.11195468656E+03  0.00000000000E+00 0.  1.
         13   -1    0    0    0    0 -0.00000000000E+00 -0.00000000000E+00 -0.10000000000E+04  0.10000000000E+04  0.00000000000E+00 0.  1.
    9000005    2    1    2  501    0  0.81826943084E-01 -0.21349673394E-01 -0.88807782788E+03  0.11118640850E+04  0.66899888486E+03 0.  0.
         13    1    3    3    0    0 -0.17505949691E+03  0.16543085598E+03 -0.82970800287E+03  0.86396097458E+03  0.00000000000E+00 0.  1.
          3    1    3    3  501    0  0.17514132385E+03 -0.16545220566E+03 -0.58369825013E+02  0.24790311041E+03  0.00000000000E+00 0.  1.
         21    1    1    2  502  501 -0.81826943084E-01  0.21349673394E-01  0.32514446988E-01  0.90601580734E-01  0.00000000000E+00 0. -1.
<mgrwt>
<rscale>  1 0.66899889E+03</rscale>
<asrwt>0</asrwt>
<pdfrwt beam="1">  1        1 0.40710881E+00 0.66899889E+03</pdfrwt>
<pdfrwt beam="2">0</pdfrwt>
<totfact> 0.12390664E+00</totfact>
</mgrwt>
</event>
<event>
 6    1  0.1175152E-003  0.6464469E+03  0.7818608E-02  0.9813469E-01
          1   -1    0    0  502    0  0.00000000000E+00  0.00000000000E+00  0.10448213163E+03  0.10448213163E+03  0.00000000000E+00 0.  1.
         13   -1    0    0    0    0 -0.00000000000E+00 -0.00000000000E+00 -0.10000000000E+04  0.10000000000E+04  0.00000000000E+00 0.  1.
    9000005    2    1    2  501    0 -0.17145830856E-03  0.33247737572E-02 -0.89552624732E+03  0.11044731155E+04  0.64644690676E+03 0.  0.
         13    1    3    3    0    0 -0.11374798367E+03 -0.10644702618E+03 -0.93162152494E+03  0.94455716551E+03  0.00000000000E+00 0.  1.
          1    1    3    3  501    0  0.11374781221E+03  0.10645035096E+03  0.36095277629E+02  0.15991595001E+03  0.00000000000E+00 0.  1.
         21    1    1    2  502  501  0.17145830855E-03 -0.33247737572E-02  0.83789467559E-02  0.90161115358E-02  0.00000000000E+00 0. -1.
<mgrwt>
<rscale>  1 0.64644691E+03</rscale>
<asrwt>0</asrwt>
<pdfrwt beam="1">  1        1 0.37993583E+00 0.64644691E+03</pdfrwt>
<pdfrwt beam="2">0</pdfrwt>
<totfact> 0.16431153E+00</totfact>
</mgrwt>
</event>
<event>
 6    1  0.1175152E-003  0.6522151E+03  0.7818608E-02  0.9802632E-01
          1   -1    0    0  502    0  0.00000000000E+00  0.00000000000E+00  0.10635738711E+03  0.10635738711E+03  0.00000000000E+00 0.  1.
         13   -1    0    0    0    0 -0.00000000000E+00 -0.00000000000E+00 -0.10000000000E+04  0.10000000000E+04  0.00000000000E+00 0.  1.
    9000005    2    1    2  501    0  0.93715160199E-02 -0.24916767797E-01 -0.89363256758E+03  0.11063289340E+04  0.65221510539E+03 0.  0.
         13    1    3    3    0    0 -0.26945707200E+03 -0.17636152051E+03 -0.53393463781E+03  0.62353564214E+03  0.00000000000E+00 0.  1.
          3    1    3    3  501    0  0.26946644351E+03  0.17633660374E+03 -0.35969792976E+03  0.48279329187E+03  0.00000000000E+00 0.  1.
         21    1    1    2  502  501 -0.93715160199E-02  0.24916767797E-01 -0.10045310624E-01  0.28453099928E-01  0.00000000000E+00 0. -1.
<mgrwt>
<rscale>  1 0.65221511E+03</rscale>
<asrwt>0</asrwt>
<pdfrwt beam="1">  1        1 0.38675495E+00 0.65221511E+03</pdfrwt>
<pdfrwt beam="2">0</pdfrwt>
<totfact> 0.15313288E+00</totfact>
</mgrwt>
</event>
<event>
 6    1  0.1175152E-003  0.6529266E+03  0.7818608E-02  0.9801303E-01
          1   -1    0    0  502    0  0.00000000000E+00  0.00000000000E+00  0.10657941163E+03  0.10657941163E+03  0.00000000000E+00 0.  1.
         13   -1    0    0    0    0 -0.00000000000E+00 -0.00000000000E+00 -0.10000000000E+04  0.10000000000E+04  0.00000000000E+00 0.  1.
    9000005    2    1    2  501    0 -0.64085667788E-04  0.12638208871E-02 -0.89342131633E+03  0.11065779517E+04  0.65292657688E+03 0.  0.
         13    1    3    3    0    0  0.18779710150E+03 -0.13886603096E+03 -0.83328213128E+03  0.86539623075E+03  0.00000000000E+00 0.  1.
          3    1    3    3  501    0 -0.18779716558E+03  0.13886729478E+03 -0.60139185058E+02  0.24118172099E+03  0.00000000000E+00 0.  1.
         21    1    1    2  502  501  0.64085667786E-04 -0.12638208871E-02  0.72795832778E-03  0.14598881925E-02  0.00000000000E+00 0.  1.
<mgrwt>
<rscale>  1 0.65292658E+03</rscale>
<asrwt>0</asrwt>
<pdfrwt beam="1">  1        1 0.38756231E+00 0.65292658E+03</pdfrwt>
<pdfrwt beam="2">0</pdfrwt>
<totfact> 0.15185746E+00</totfact>
</mgrwt>
</event>
<event>
 6    1  0.1175152E-003  0.6650017E+03  0.7818608E-02  0.9779030E-01
          1   -1    0    0  502    0  0.00000000000E+00  0.00000000000E+00  0.11110597192E+03  0.11110597192E+03  0.00000000000E+00 0.  1.
         13   -1    0    0    0    0 -0.00000000000E+00 -0.00000000000E+00 -0.10000000000E+04  0.10000000000E+04  0.00000000000E+00 0.  1.
    9000005    2    1    2  501    0 -0.25018276956E+00  0.44616513795E+00 -0.88930758025E+03  0.11104481877E+04  0.66500146129E+03 0.  0.
         13    1    3    3    0    0  0.32492906814E+03 -0.53730047392E+02 -0.51885042069E+03  0.61454989738E+03  0.00000000000E+00 0.  1.
          3    1    3    3  501    0 -0.32517925091E+03  0.54176212530E+02 -0.37045715956E+03  0.49589829027E+03  0.00000000000E+00 0.  1.
         21    1    1    2  502  501  0.25018276956E+00 -0.44616513795E+00  0.41355216654E+00  0.65778426779E+00  0.00000000000E+00 0.  1.
<mgrwt>
<rscale>  1 0.66500166E+03</rscale>
<asrwt>0</asrwt>
<pdfrwt beam="1">  1        1 0.40402257E+00 0.66500166E+03</pdfrwt>
<pdfrwt beam="2">0</pdfrwt>
<totfact> 0.12800538E+00</totfact>
</mgrwt>
</event>
<event>
 6    1  0.1175152E-003  0.6528115E+03  0.7818608E-02  0.9801518E-01
          1   -1    0    0  502    0  0.00000000000E+00  0.00000000000E+00  0.11306083459E+03  0.11306083459E+03  0.00000000000E+00 0.  1.
         13   -1    0    0    0    0 -0.00000000000E+00 -0.00000000000E+00 -0.10000000000E+04  0.10000000000E+04  0.00000000000E+00 0.  1.
    9000005    2    1    2  501    0 -0.11912143365E+01  0.21556724783E+01 -0.89320094453E+03  0.11063321056E+04  0.65280681274E+03 0.  0.
         13    1    3    3    0    0  0.15030686860E+03  0.12680403346E+03 -0.88859230974E+03  0.91009214401E+03  0.00000000000E+00 0.  1.
          1    1    3    3  501    0 -0.15149808294E+03 -0.12464836098E+03 -0.46086347902E+01  0.19623996164E+03  0.00000000000E+00 0.  1.
         21    1    1    2  502  501  0.11912143365E+01 -0.21556724783E+01  0.62617791194E+01  0.67287289416E+01  0.00000000000E+00 0. -1.
<mgrwt>
<rscale>  1 0.65281146E+03</rscale>
<asrwt>0</asrwt>
<pdfrwt beam="1">  1        1 0.41113117E+00 0.65281146E+03</pdfrwt>
<pdfrwt beam="2">0</pdfrwt>
<totfact> 0.11923627E+00</totfact>
</mgrwt>
</event>
