<event>
 6    1  0.1969531E-004  0.3000000E+03  0.7818608E-02  0.1093470E+00
          1   -1    0    0  502    0  0.00000000000E+00  0.00000000000E+00  0.38816831658E+02  0.38816831658E+02  0.00000000000E+00 0.  1.
         13   -1    0    0    0    0 -0.00000000000E+00 -0.00000000000E+00 -0.10000000000E+04  0.10000000000E+04  0.00000000000E+00 0.  1.
    9000005    2    1    2  501    0 -0.12455182877E+02 -0.14821141523E+02 -0.95653439299E+03  0.10189068108E+04  0.35048287604E+03 0.  0.
         13    1    3    3    0    0 -0.80289759971E+02  0.87384307901E+02 -0.10460671701E+03  0.15819300890E+03  0.00000000000E+00 0.  1.
          3    1    3    3  501    0  0.67834577094E+02 -0.10220544942E+03 -0.85192767598E+03  0.86071380194E+03  0.00000000000E+00 0.  1.
         21    1    1    2  502  501  0.12455182877E+02  0.14821141523E+02 -0.46487753508E+01  0.19910020814E+02  0.00000000000E+00 0. -1.
<mgrwt>
<rscale>  1 0.30000000E+03</rscale>
<asrwt>0</asrwt>
<pdfrwt beam="1">  1        1 0.14115241E+00 0.30000000E+03</pdfrwt>
<pdfrwt beam="2">0</pdfrwt>
<totfact> 0.19953192E+01</totfact>
</mgrwt>
</event>
<event>
 6    1  0.1969531E-004  0.3000000E+03  0.7818608E-02  0.1093470E+00
          1   -1    0    0  502    0  0.00000000000E+00  0.00000000000E+00  0.30070814863E+02  0.30070814863E+02  0.00000000000E+00 0.  1.
         13   -1    0    0    0    0 -0.00000000000E+00 -0.00000000000E+00 -0.10000000000E+04  0.10000000000E+04  0.00000000000E+00 0.  1.
    9000005    2    1    2  501    0  0.15703858402E+01 -0.11588168037E+02 -0.96574809691E+03  0.10176517469E+04  0.32063833137E+03 0.  0.
         13    1    3    3    0    0 -0.15670190270E+03  0.24195699487E+02 -0.48371569174E+03  0.50904006583E+03  0.00000000000E+00 0.  1.
          1    1    3    3  501    0  0.15827228854E+03 -0.35783867524E+02 -0.48203240517E+03  0.50861168108E+03  0.00000000000E+00 0.  1.
         21    1    1    2  502  501 -0.15703858402E+01  0.11588168037E+02 -0.41810882258E+01  0.12419067956E+02  0.00000000000E+00 0.  1.
<mgrwt>
<rscale>  1 0.30000000E+03</rscale>
<asrwt>0</asrwt>
<pdfrwt beam="1">  1        1 0.10934865E+00 0.30000000E+03</pdfrwt>
<pdfrwt beam="2">0</pdfrwt>
<totfact> 0.29976922E+01</totfact>
</mgrwt>
</event>
<event>
 6    1  0.1969531E-004  0.3000000E+03  0.7818608E-02  0.1093470E+00
          1   -1    0    0  502    0  0.00000000000E+00  0.00000000000E+00  0.18986514610E+02  0.18986514610E+02  0.00000000000E+00 0.  1.
         13   -1    0    0    0    0 -0.00000000000E+00 -0.00000000000E+00 -0.10000000000E+04  0.10000000000E+04  0.00000000000E+00 0.  1.
    9000005    2    1    2  501    0 -0.26607465587E+02  0.28095864575E+02 -0.91118043959E+03  0.93914924814E+03  0.22417444539E+03 0.  0.
         13    1    3    3    0    0  0.61161022984E+02  0.95219955849E+02 -0.37511582265E+03  0.39181550649E+03  0.00000000000E+00 0.  1.
          1    1    3    3  501    0 -0.87768488571E+02 -0.67124091275E+02 -0.53606461695E+03  0.54733374166E+03  0.00000000000E+00 0.  1.
         21    1    1    2  502  501  0.26607465587E+02 -0.28095864575E+02 -0.69833045798E+02  0.79837266465E+02  0.00000000000E+00 0. -1.
<mgrwt>
<rscale>  1 0.30000000E+03</rscale>
<asrwt>0</asrwt>
<pdfrwt beam="1">  1        1 0.69042017E-01 0.30000000E+03</pdfrwt>
<pdfrwt beam="2">0</pdfrwt>
<totfact> 0.57447660E+01</totfact>
</mgrwt>
</event>
<event>
 6    1  0.2065179E-004  0.3000000E+03  0.7818608E-02  0.1093470E+00
          1   -1    0    0  502    0  0.00000000000E+00  0.00000000000E+00  0.61270875214E+02  0.61270875214E+02  0.00000000000E+00 0.  1.
         13   -1    0    0    0    0 -0.00000000000E+00 -0.00000000000E+00 -0.10000000000E+04  0.10000000000E+04  0.00000000000E+00 0.  1.
    9000005    2    1    2  501    0  0.98727954515E+01  0.17041866999E+02 -0.90997587801E+03  0.10264190959E+04  0.47443878905E+03 0.  0.
         13    1    3    3    0    0 -0.20357957044E+01 -0.22822217035E+03 -0.47272867468E+03  0.52493990453E+03  0.00000000000E+00 0.  1.
          3    1    3    3  501    0  0.11908591156E+02  0.24526403735E+03 -0.43724720333E+03  0.50147919138E+03  0.00000000000E+00 0.  1.
         21    1    1    2  502  501 -0.98727954515E+01 -0.17041866999E+02 -0.28753246774E+02  0.34851779307E+02  0.00000000000E+00 0. -1.
<mgrwt>
<rscale>  1 0.30000000E+03</rscale>
<asrwt>0</asrwt>
<pdfrwt beam="1">  1        1 0.22280365E+00 0.30000000E+03</pdfrwt>
<pdfrwt beam="2">0</pdfrwt>
<totfact> 0.79976298E+00</totfact>
</mgrwt>
</event>
<event>
 6    1  0.1969531E-004  0.3000000E+03  0.7818608E-02  0.1093470E+00
          1   -1    0    0  502    0  0.00000000000E+00  0.00000000000E+00  0.46572933664E+02  0.46572933664E+02  0.00000000000E+00 0.  1.
         13   -1    0    0    0    0 -0.00000000000E+00 -0.00000000000E+00 -0.10000000000E+04  0.10000000000E+04  0.00000000000E+00 0.  1.
    9000005    2    1    2  501    0  0.61619680869E+02  0.13518227706E+02 -0.90064687011E+03  0.96432041598E+03  0.33877625729E+03 0.  0.
         13    1    3    3    0    0  0.73850640973E+02  0.17076600243E+03 -0.52050981995E+03  0.55276162803E+03  0.00000000000E+00 0.  1.
          3    1    3    3  501    0 -0.12230960103E+02 -0.15724777472E+03 -0.38013705015E+03  0.41155878795E+03  0.00000000000E+00 0.  1.
         21    1    1    2  502  501 -0.61619680869E+02 -0.13518227706E+02 -0.52780196230E+02  0.82252517680E+02  0.00000000000E+00 0.  1.
<mgrwt>
<rscale>  1 0.30000000E+03</rscale>
<asrwt>0</asrwt>
<pdfrwt beam="1">  1        1 0.16935648E+00 0.30000000E+03</pdfrwt>
<pdfrwt beam="2">0</pdfrwt>
<totfact> 0.14391084E+01</totfact>
</mgrwt>
</event>
<event>
 6    1  0.1969531E-004  0.3000000E+03  0.7818608E-02  0.1093470E+00
          1   -1    0    0  502    0  0.00000000000E+00  0.00000000000E+00  0.33051495811E+02  0.33051495811E+02  0.00000000000E+00 0.  1.
         13   -1    0    0    0    0 -0.00000000000E+00 -0.00000000000E+00 -0.10000000000E+04  0.10000000000E+04  0.00000000000E+00 0.  1.
    9000005    2    1    2  501    0 -0.97171267076E+01  0.33421617048E+01 -0.97318293496E+03  0.10210323143E+04  0.30873349255E+03 0.  0.
         13    1    3    3    0    0  0.88123116661E+02  0.80828129049E+02 -0.79228356651E+03  0.80125658805E+03  0.00000000000E+00 0.  1.
          1    1    3    3  501    0 -0.97840243369E+02 -0.77485967344E+02 -0.18089936845E+03  0.21977572628E+03  0.00000000000E+00 0.  1.
         21    1    1    2  502  501  0.97171267076E+01 -0.33421617048E+01  0.62344307707E+01  0.12019181476E+02  0.00000000000E+00 0.  1.
<mgrwt>
<rscale>  1 0.30000000E+03</rscale>
<asrwt>0</asrwt>
<pdfrwt beam="1">  1        1 0.12018751E+00 0.30000000E+03</pdfrwt>
<pdfrwt beam="2">0</pdfrwt>
<totfact> 0.25932662E+01</totfact>
</mgrwt>
</event>
<event>
 6    1  0.1969531E-004  0.3000000E+03  0.7818608E-02  0.1093470E+00
          1   -1    0    0  502    0  0.00000000000E+00  0.00000000000E+00  0.35132539771E+02  0.35132539771E+02  0.00000000000E+00 0.  1.
         13   -1    0    0    0    0 -0.00000000000E+00 -0.00000000000E+00 -0.10000000000E+04  0.10000000000E+04  0.00000000000E+00 0.  1.
    9000005    2    1    2  501    0  0.59388152428E+01 -0.33233610521E+02 -0.93127007736E+03  0.98750348844E+03  0.32674063155E+03 0.  0.
         13    1    3    3    0    0  0.79148050765E+02 -0.40379843197E+02 -0.47644071923E+02  0.10082114493E+03  0.00000000000E+00 0.  1.
          3    1    3    3  501    0 -0.73209235522E+02  0.71462326759E+01 -0.88362600543E+03  0.88668234351E+03  0.00000000000E+00 0.  1.
         21    1    1    2  502  501 -0.59388152428E+01  0.33233610521E+02 -0.33597382874E+02  0.47629051331E+02  0.00000000000E+00 0. -1.
<mgrwt>
<rscale>  1 0.30000000E+03</rscale>
<asrwt>0</asrwt>
<pdfrwt beam="1">  1        1 0.12775496E+00 0.30000000E+03</pdfrwt>
<pdfrwt beam="2">0</pdfrwt>
<totfact> 0.23535683E+01</totfact>
</mgrwt>
</event>
<event>
 6    1  0.1969531E-004  0.3000000E+03  0.7818608E-02  0.1093470E+00
          1   -1    0    0  502    0  0.00000000000E+00  0.00000000000E+00  0.32543816023E+02  0.32543816023E+02  0.00000000000E+00 0.  1.
         13   -1    0    0    0    0 -0.00000000000E+00 -0.00000000000E+00 -0.10000000000E+04  0.10000000000E+04  0.00000000000E+00 0.  1.
    9000005    2    1    2  501    0 -0.18231395874E+02 -0.28902014408E+01 -0.95543283104E+03  0.10105143341E+04  0.32855226014E+03 0.  0.
         13    1    3    3    0    0  0.15083920910E+03 -0.39548533472E+02 -0.43858169393E+03  0.46547873824E+03  0.00000000000E+00 0.  1.
          1    1    3    3  501    0 -0.16907060498E+03  0.36658332031E+02 -0.51685113711E+03  0.54503559581E+03  0.00000000000E+00 0.  1.
         21    1    1    2  502  501  0.18231395874E+02  0.28902014408E+01 -0.12023352938E+02  0.22029481968E+02  0.00000000000E+00 0. -1.
<mgrwt>
<rscale>  1 0.30000000E+03</rscale>
<asrwt>0</asrwt>
<pdfrwt beam="1">  1        1 0.11834140E+00 0.30000000E+03</pdfrwt>
<pdfrwt beam="2">0</pdfrwt>
<totfact> 0.26565637E+01</totfact>
</mgrwt>
</event>
<event>
 6    1  0.1969531E-004  0.3000000E+03  0.7818608E-02  0.1093470E+00
          1   -1    0    0  502    0  0.00000000000E+00  0.00000000000E+00  0.37096448559E+02  0.37096448559E+02  0.00000000000E+00 0.  1.
         13   -1    0    0    0    0 -0.00000000000E+00 -0.00000000000E+00 -0.10000000000E+04  0.10000000000E+04  0.00000000000E+00 0.  1.
    9000005    2    1    2  501    0 -0.14569642654E+02  0.15131706588E+02 -0.96282192996E+03  0.10160905043E+04  0.32399475479E+03 0.  0.
         13    1    3    3    0    0 -0.15500249807E+03  0.62627393706E+02 -0.62888842617E+03  0.65072929657E+03  0.00000000000E+00 0.  1.
          3    1    3    3  501    0  0.14043285541E+03 -0.47495687117E+02 -0.33393350379E+03  0.36536120775E+03  0.00000000000E+00 0.  1.
         21    1    1    2  502  501  0.14569642654E+02 -0.15131706588E+02 -0.81621484004E-01  0.21005944240E+02  0.00000000000E+00 0.  1.
<mgrwt>
<rscale>  1 0.30000000E+03</rscale>
<asrwt>0</asrwt>
<pdfrwt beam="1">  1        1 0.13489646E+00 0.30000000E+03</pdfrwt>
<pdfrwt beam="2">0</pdfrwt>
<totfact> 0.21529903E+01</totfact>
</mgrwt>
</event>
<event>
 6    1  0.1969531E-004  0.3000000E+03  0.7818608E-02  0.1093470E+00
          1   -1    0    0  502    0  0.00000000000E+00  0.00000000000E+00  0.30481525341E+02  0.30481525341E+02  0.00000000000E+00 0.  1.
         13   -1    0    0    0    0 -0.00000000000E+00 -0.00000000000E+00 -0.10000000000E+04  0.10000000000E+04  0.00000000000E+00 0.  1.
    9000005    2    1    2  501    0 -0.23761114539E+02 -0.43533169754E+01 -0.93788440358E+03  0.99067880702E+03  0.31817259823E+03 0.  0.
         13    1    3    3    0    0 -0.36517187536E+01  0.15671757129E+03 -0.45752498151E+03  0.48363502862E+03  0.00000000000E+00 0.  1.
          1    1    3    3  501    0 -0.20109395786E+02 -0.16107088826E+03 -0.48035942207E+03  0.50704377840E+03  0.00000000000E+00 0.  1.
         21    1    1    2  502  501  0.23761114539E+02  0.43533169754E+01 -0.31634071075E+02  0.39802718320E+02  0.00000000000E+00 0.  1.
<mgrwt>
<rscale>  1 0.30000000E+03</rscale>
<asrwt>0</asrwt>
<pdfrwt beam="1">  1        1 0.11084214E+00 0.30000000E+03</pdfrwt>
<pdfrwt beam="2">0</pdfrwt>
<totfact> 0.29369058E+01</totfact>
</mgrwt>
</event>
<event>
 6    1  0.1969531E-004  0.3000000E+03  0.7818608E-02  0.1093470E+00
          1   -1    0    0  502    0  0.00000000000E+00  0.00000000000E+00  0.37120780008E+02  0.37120780008E+02  0.00000000000E+00 0.  1.
         13   -1    0    0    0    0 -0.00000000000E+00 -0.00000000000E+00 -0.10000000000E+04  0.10000000000E+04  0.00000000000E+00 0.  1.
    9000005    2    1    2  501    0  0.51150797744E+01  0.11649545348E+02 -0.97744533121E+03  0.10177804712E+04  0.28340048723E+03 0.  0.
         13    1    3    3    0    0 -0.12733176634E+03  0.17309479748E+02 -0.28319061163E+03  0.31098218490E+03  0.00000000000E+00 0.  1.
          3    1    3    3  501    0  0.13244684611E+03 -0.56599343996E+01 -0.69425471958E+03  0.70679828633E+03  0.00000000000E+00 0.  1.
         21    1    1    2  502  501 -0.51150797744E+01 -0.11649545348E+02  0.14566111214E+02  0.19340308783E+02  0.00000000000E+00 0.  1.
<mgrwt>
<rscale>  1 0.30000000E+03</rscale>
<asrwt>0</asrwt>
<pdfrwt beam="1">  1        1 0.13498494E+00 0.30000000E+03</pdfrwt>
<pdfrwt beam="2">0</pdfrwt>
<totfact> 0.21506492E+01</totfact>
</mgrwt>
</event>
<event>
 6    1  0.1969531E-004  0.3000000E+03  0.7818608E-02  0.1093470E+00
          1   -1    0    0  502    0  0.00000000000E+00  0.00000000000E+00  0.35015542458E+02  0.35015542458E+02  0.00000000000E+00 0.  1.
         13   -1    0    0    0    0 -0.00000000000E+00 -0.00000000000E+00 -0.10000000000E+04  0.10000000000E+04  0.00000000000E+00 0.  1.
    9000005    2    1    2  501    0  0.11000464587E+02 -0.19002096007E+02 -0.95734789563E+03  0.10117688878E+04  0.32661781831E+03 0.  0.
         13    1    3    3    0    0 -0.76357414460E+02 -0.11200225608E+03 -0.78884732958E+03  0.80040931373E+03  0.00000000000E+00 0.  1.
          3    1    3    3  501    0  0.87357879047E+02  0.93000160076E+02 -0.16850056605E+03  0.21135957410E+03  0.00000000000E+00 0.  1.
         21    1    1    2  502  501 -0.11000464587E+02  0.19002096007E+02 -0.76365619145E+01  0.23246654634E+02  0.00000000000E+00 0.  1.
<mgrwt>
<rscale>  1 0.30000000E+03</rscale>
<asrwt>0</asrwt>
<pdfrwt beam="1">  1        1 0.12732951E+00 0.30000000E+03</pdfrwt>
<pdfrwt beam="2">0</pdfrwt>
<totfact> 0.23662701E+01</totfact>
</mgrwt>
</event>
<event>
 6    1  0.1969531E-004  0.3000000E+03  0.7818608E-02  0.1093470E+00
          1   -1    0    0  502    0  0.00000000000E+00  0.00000000000E+00  0.44211510630E+02  0.44211510630E+02  0.00000000000E+00 0.  1.
         13   -1    0    0    0    0 -0.00000000000E+00 -0.00000000000E+00 -0.10000000000E+04  0.10000000000E+04  0.00000000000E+00 0.  1.
    9000005    2    1    2  501    0  0.19147604183E+02 -0.64194434097E+01 -0.96445446941E+03  0.10222356327E+04  0.33820914425E+03 0.  0.
         13    1    3    3    0    0 -0.31935963103E+02 -0.94277909529E+02 -0.69198980240E+02  0.12123006570E+03  0.00000000000E+00 0.  1.
          3    1    3    3  501    0  0.51083567286E+02  0.87858466120E+02 -0.89525548917E+03  0.90100556702E+03  0.00000000000E+00 0.  1.
         21    1    1    2  502  501 -0.19147604183E+02  0.64194434097E+01  0.86659800385E+01  0.21975877904E+02  0.00000000000E+00 0.  1.
<mgrwt>
<rscale>  1 0.30000000E+03</rscale>
<asrwt>0</asrwt>
<pdfrwt beam="1">  1        1 0.16076947E+00 0.30000000E+03</pdfrwt>
<pdfrwt beam="2">0</pdfrwt>
<totfact> 0.15862910E+01</totfact>
</mgrwt>
</event>
<event>
 6    1  0.1969531E-004  0.3000000E+03  0.7818608E-02  0.1093470E+00
          1   -1    0    0  502    0  0.00000000000E+00  0.00000000000E+00  0.43041911706E+02  0.43041911706E+02  0.00000000000E+00 0.  1.
         13   -1    0    0    0    0 -0.00000000000E+00 -0.00000000000E+00 -0.10000000000E+04  0.10000000000E+04  0.00000000000E+00 0.  1.
    9000005    2    1    2  501    0 -0.32376450989E+02  0.51691732661E+02 -0.85589482403E+03  0.92499932114E+03  0.34546711059E+03 0.  0.
         13    1    3    3    0    0  0.37884663034E+02 -0.67806187134E+02 -0.74069620904E+03  0.74475754498E+03  0.00000000000E+00 0.  1.
          3    1    3    3  501    0 -0.70261114023E+02  0.11949791979E+03 -0.11519861498E+03  0.18024177616E+03  0.00000000000E+00 0.  1.
         21    1    1    2  502  501  0.32376450989E+02 -0.51691732661E+02 -0.10106326427E+03  0.11804259057E+03  0.00000000000E+00 0.  1.
<mgrwt>
<rscale>  1 0.30000000E+03</rscale>
<asrwt>0</asrwt>
<pdfrwt beam="1">  1        1 0.15651637E+00 0.30000000E+03</pdfrwt>
<pdfrwt beam="2">0</pdfrwt>
<totfact> 0.16655921E+01</totfact>
</mgrwt>
</event>
<event>
 6    1  0.1969531E-004  0.3000000E+03  0.7818608E-02  0.1093470E+00
          1   -1    0    0  502    0  0.00000000000E+00  0.00000000000E+00  0.28396474393E+02  0.28396474393E+02  0.00000000000E+00 0.  1.
         13   -1    0    0    0    0 -0.00000000000E+00 -0.00000000000E+00 -0.10000000000E+04  0.10000000000E+04  0.00000000000E+00 0.  1.
    9000005    2    1    2  501    0 -0.11203660298E+02 -0.34327017031E+01 -0.94853353098E+03  0.10025211947E+04  0.32433868265E+03 0.  0.
         13    1    3    3    0    0  0.71383461023E+02 -0.13806084082E+03 -0.60117720051E+03  0.62094317026E+03  0.00000000000E+00 0.  1.
          1    1    3    3  501    0 -0.82587121321E+02  0.13462813912E+03 -0.34735633047E+03  0.38157802448E+03  0.00000000000E+00 0.  1.
         21    1    1    2  502  501  0.11203660298E+02  0.34327017031E+01 -0.23069994628E+02  0.25875279655E+02  0.00000000000E+00 0. -1.
<mgrwt>
<rscale>  1 0.30000000E+03</rscale>
<asrwt>0</asrwt>
<pdfrwt beam="1">  1        1 0.10326012E+00 0.30000000E+03</pdfrwt>
<pdfrwt beam="2">0</pdfrwt>
<totfact> 0.32650844E+01</totfact>
</mgrwt>
</event>
<event>
 6    1  0.1969531E-004  0.3000000E+03  0.7818608E-02  0.1093470E+00
          1   -1    0    0  502    0  0.00000000000E+00  0.00000000000E+00  0.15031307009E+02  0.15031307009E+02  0.00000000000E+00 0.  1.
         13   -1    0    0    0    0 -0.00000000000E+00 -0.00000000000E+00 -0.10000000000E+04  0.10000000000E+04  0.00000000000E+00 0.  1.
    9000005    2    1    2  501    0 -0.74001978978E+00  0.12807920761E+02 -0.98403101350E+03  0.10021678041E+04  0.18936388683E+03 0.  0.
         13    1    3    3    0    0 -0.41596127845E+02  0.54167784712E+02 -0.88274385971E+03  0.88538189986E+03  0.00000000000E+00 0.  1.
          1    1    3    3  501    0  0.40856108055E+02 -0.41359863951E+02 -0.10128715379E+03  0.11678590427E+03  0.00000000000E+00 0.  1.
         21    1    1    2  502  501  0.74001978978E+00 -0.12807920761E+02 -0.93767948834E+00  0.12863502880E+02  0.00000000000E+00 0.  1.
<mgrwt>
<rscale>  1 0.30000000E+03</rscale>
<asrwt>0</asrwt>
<pdfrwt beam="1">  1        1 0.54659413E-01 0.30000000E+03</pdfrwt>
<pdfrwt beam="2">0</pdfrwt>
<totfact> 0.78466252E+01</totfact>
</mgrwt>
</event>
<event>
 6    1  0.1969531E-004  0.3000000E+03  0.7818608E-02  0.1093470E+00
          1   -1    0    0  502    0  0.00000000000E+00  0.00000000000E+00  0.31581936715E+02  0.31581936715E+02  0.00000000000E+00 0.  1.
         13   -1    0    0    0    0 -0.00000000000E+00 -0.00000000000E+00 -0.10000000000E+04  0.10000000000E+04  0.00000000000E+00 0.  1.
    9000005    2    1    2  501    0  0.44962291400E+01 -0.12687640089E+02 -0.96277146871E+03  0.10169848028E+04  0.32733468489E+03 0.  0.
         13    1    3    3    0    0  0.13007037749E+01 -0.37913241876E+02 -0.98346795699E+03  0.98419933356E+03  0.00000000000E+00 0.  1.
          1    1    3    3  501    0  0.31955253651E+01  0.25225601788E+02  0.20696488284E+02  0.32785469269E+02  0.00000000000E+00 0.  1.
         21    1    1    2  502  501 -0.44962291400E+01  0.12687640089E+02 -0.56465945771E+01  0.14597133891E+02  0.00000000000E+00 0.  1.
<mgrwt>
<rscale>  1 0.30000000E+03</rscale>
<asrwt>0</asrwt>
<pdfrwt beam="1">  1        1 0.11484365E+00 0.30000000E+03</pdfrwt>
<pdfrwt beam="2">0</pdfrwt>
<totfact> 0.27824135E+01</totfact>
</mgrwt>
</event>
<event>
 6    1  0.1969531E-004  0.3000000E+03  0.7818608E-02  0.1093470E+00
          1   -1    0    0  502    0  0.00000000000E+00  0.00000000000E+00  0.32341805963E+02  0.32341805963E+02  0.00000000000E+00 0.  1.
         13   -1    0    0    0    0 -0.00000000000E+00 -0.00000000000E+00 -0.10000000000E+04  0.10000000000E+04  0.00000000000E+00 0.  1.
    9000005    2    1    2  501    0 -0.32410982836E+02 -0.35071893019E+00 -0.86349253588E+03  0.92324973865E+03  0.32514631411E+03 0.  0.
         13    1    3    3    0    0 -0.66326544183E+02  0.72765766669E+02 -0.59110095336E+02  0.11483932529E+03  0.00000000000E+00 0.  1.
          3    1    3    3  501    0  0.33915561347E+02 -0.73116485599E+02 -0.80438244054E+03  0.80841041336E+03  0.00000000000E+00 0.  1.
         21    1    1    2  502  501  0.32410982836E+02  0.35071893019E+00 -0.10416565816E+03  0.10909206732E+03  0.00000000000E+00 0.  1.
<mgrwt>
<rscale>  1 0.30000000E+03</rscale>
<asrwt>0</asrwt>
<pdfrwt beam="1">  1        1 0.11760682E+00 0.30000000E+03</pdfrwt>
<pdfrwt beam="2">0</pdfrwt>
<totfact> 0.26823333E+01</totfact>
</mgrwt>
</event>
<event>
 6    1  0.1969531E-004  0.3000000E+03  0.7818608E-02  0.1093470E+00
          1   -1    0    0  502    0  0.00000000000E+00  0.00000000000E+00  0.37093465537E+02  0.37093465537E+02  0.00000000000E+00 0.  1.
         13   -1    0    0    0    0 -0.00000000000E+00 -0.00000000000E+00 -0.10000000000E+04  0.10000000000E+04  0.00000000000E+00 0.  1.
    9000005    2    1    2  501    0  0.75900063945E+01 -0.31470814249E+02 -0.94020649881E+03  0.99755472548E+03  0.33178178006E+03 0.  0.
         13    1    3    3    0    0  0.14563827073E+02 -0.91560689228E+02 -0.93189237866E+03  0.93649285650E+03  0.00000000000E+00 0.  1.
          3    1    3    3  501    0 -0.69738206787E+01  0.60089874979E+02 -0.83141201523E+01  0.61061868984E+02  0.00000000000E+00 0.  1.
         21    1    1    2  502  501 -0.75900063945E+01  0.31470814249E+02 -0.22700035655E+02  0.39538740057E+02  0.00000000000E+00 0. -1.
<mgrwt>
<rscale>  1 0.30000000E+03</rscale>
<asrwt>0</asrwt>
<pdfrwt beam="1">  1        1 0.13488561E+00 0.30000000E+03</pdfrwt>
<pdfrwt beam="2">0</pdfrwt>
<totfact> 0.21532776E+01</totfact>
</mgrwt>
</event>
<event>
 6    1  0.1969531E-004  0.3000000E+03  0.7818608E-02  0.1093470E+00
          1   -1    0    0  502    0  0.00000000000E+00  0.00000000000E+00  0.39779183677E+02  0.39779183677E+02  0.00000000000E+00 0.  1.
         13   -1    0    0    0    0 -0.00000000000E+00 -0.00000000000E+00 -0.10000000000E+04  0.10000000000E+04  0.00000000000E+00 0.  1.
    9000005    2    1    2  501    0  0.39880124106E+02  0.35203041011E+02 -0.90386166667E+03  0.96228058921E+03  0.32586552671E+03 0.  0.
         13    1    3    3    0    0  0.10698141580E+03  0.23932137459E+02 -0.80241289409E+02  0.13585446277E+03  0.00000000000E+00 0.  1.
          3    1    3    3  501    0 -0.67101291693E+02  0.11270903553E+02 -0.82362037726E+03  0.82642612643E+03  0.00000000000E+00 0.  1.
         21    1    1    2  502  501 -0.39880124106E+02 -0.35203041011E+02 -0.56359149654E+02  0.77498594470E+02  0.00000000000E+00 0.  1.
<mgrwt>
<rscale>  1 0.30000000E+03</rscale>
<asrwt>0</asrwt>
<pdfrwt beam="1">  1        1 0.14465188E+00 0.30000000E+03</pdfrwt>
<pdfrwt beam="2">0</pdfrwt>
<totfact> 0.19135227E+01</totfact>
</mgrwt>
</event>
<event>
 6    1  0.1969531E-004  0.3000000E+03  0.7818608E-02  0.1093470E+00
          1   -1    0    0  502    0  0.00000000000E+00  0.00000000000E+00  0.30345543818E+02  0.30345543818E+02  0.00000000000E+00 0.  1.
         13   -1    0    0    0    0 -0.00000000000E+00 -0.00000000000E+00 -0.10000000000E+04  0.10000000000E+04  0.00000000000E+00 0.  1.
    9000005    2    1    2  501    0 -0.96059553756E+01 -0.18108247395E+02 -0.92903242186E+03  0.98484463531E+03  0.32618634526E+03 0.  0.
         13    1    3    3    0    0  0.15442112183E+03 -0.12352135287E+02 -0.34492279874E+03  0.37811399763E+03  0.00000000000E+00 0.  1.
          3    1    3    3  501    0 -0.16402707720E+03 -0.57561121077E+01 -0.58410962312E+03  0.60673063768E+03  0.00000000000E+00 0.  1.
         21    1    1    2  502  501  0.96059553756E+01  0.18108247395E+02 -0.40622034322E+02  0.45500908506E+02  0.00000000000E+00 0.  1.
<mgrwt>
<rscale>  1 0.30000000E+03</rscale>
<asrwt>0</asrwt>
<pdfrwt beam="1">  1        1 0.11034766E+00 0.30000000E+03</pdfrwt>
<pdfrwt beam="2">0</pdfrwt>
<totfact> 0.29568362E+01</totfact>
</mgrwt>
</event>
<event>
 6    1  0.1969531E-004  0.3000000E+03  0.7818608E-02  0.1093470E+00
          1   -1    0    0  502    0  0.00000000000E+00  0.00000000000E+00  0.31660876474E+02  0.31660876474E+02  0.00000000000E+00 0.  1.
         13   -1    0    0    0    0 -0.00000000000E+00 -0.00000000000E+00 -0.10000000000E+04  0.10000000000E+04  0.00000000000E+00 0.  1.
    9000005    2    1    2  501    0 -0.51599364035E+01 -0.16021820399E+02 -0.96433142487E+03  0.10143581217E+04  0.31417189323E+03 0.  0.
         13    1    3    3    0    0  0.24124399914E+02 -0.13171344494E+03 -0.19950007913E+03  0.24027213701E+03  0.00000000000E+00 0.  1.
          1    1    3    3  501    0 -0.29284336317E+02  0.11569162455E+03 -0.76483134574E+03  0.77408598474E+03  0.00000000000E+00 0.  1.
         21    1    1    2  502  501  0.51599364035E+01  0.16021820399E+02 -0.40076986591E+01  0.17302754727E+02  0.00000000000E+00 0.  1.
<mgrwt>
<rscale>  1 0.30000000E+03</rscale>
<asrwt>0</asrwt>
<pdfrwt beam="1">  1        1 0.11513070E+00 0.30000000E+03</pdfrwt>
<pdfrwt beam="2">0</pdfrwt>
<totfact> 0.27717769E+01</totfact>
</mgrwt>
</event>
<event>
 6    1  0.1969531E-004  0.3000000E+03  0.7818608E-02  0.1093470E+00
          1   -1    0    0  502    0  0.00000000000E+00  0.00000000000E+00  0.29276574832E+02  0.29276574832E+02  0.00000000000E+00 0.  1.
         13   -1    0    0    0    0 -0.00000000000E+00 -0.00000000000E+00 -0.10000000000E+04  0.10000000000E+04  0.00000000000E+00 0.  1.
    9000005    2    1    2  501    0  0.13126506077E+02  0.18191553920E+01 -0.95696563023E+03  0.10101744438E+04  0.32325465966E+03 0.  0.
         13    1    3    3    0    0 -0.51602139703E+01 -0.14748013189E+03 -0.27791804834E+03  0.31466721899E+03  0.00000000000E+00 0.  1.
          1    1    3    3  501    0  0.18286720048E+02  0.14929928728E+03 -0.67904758188E+03  0.69550722482E+03  0.00000000000E+00 0.  1.
         21    1    1    2  502  501 -0.13126506077E+02 -0.18191553920E+01 -0.13757794943E+02  0.19102131028E+02  0.00000000000E+00 0.  1.
<mgrwt>
<rscale>  1 0.30000000E+03</rscale>
<asrwt>0</asrwt>
<pdfrwt beam="1">  1        1 0.10646050E+00 0.30000000E+03</pdfrwt>
<pdfrwt beam="2">0</pdfrwt>
<totfact> 0.31204385E+01</totfact>
</mgrwt>
</event>
<event>
 6    1  0.1969531E-004  0.3000000E+03  0.7818608E-02  0.1093470E+00
          1   -1    0    0  502    0  0.00000000000E+00  0.00000000000E+00  0.41475403582E+02  0.41475403582E+02  0.00000000000E+00 0.  1.
         13   -1    0    0    0    0 -0.00000000000E+00 -0.00000000000E+00 -0.10000000000E+04  0.10000000000E+04  0.00000000000E+00 0.  1.
    9000005    2    1    2  501    0  0.44422529504E+02  0.28578228150E+02 -0.94546540356E+03  0.98706383524E+03  0.27856796164E+03 0.  0.
         13    1    3    3    0    0  0.15261279792E+03 -0.36110809094E+02 -0.49071884630E+03  0.51516952815E+03  0.00000000000E+00 0.  1.
          3    1    3    3  501    0 -0.10819026842E+03  0.64689037245E+02 -0.45474655726E+03  0.47189430709E+03  0.00000000000E+00 0.  1.
         21    1    1    2  502  501 -0.44422529504E+02 -0.28578228150E+02 -0.13059192859E+02  0.54411568346E+02  0.00000000000E+00 0.  1.
<mgrwt>
<rscale>  1 0.30000000E+03</rscale>
<asrwt>0</asrwt>
<pdfrwt beam="1">  1        1 0.15081997E+00 0.30000000E+03</pdfrwt>
<pdfrwt beam="2">0</pdfrwt>
<totfact> 0.17793503E+01</totfact>
</mgrwt>
</event>
<event>
 6    1  0.1969531E-004  0.3000000E+03  0.7818608E-02  0.1093470E+00
          1   -1    0    0  502    0  0.00000000000E+00  0.00000000000E+00  0.33137311819E+02  0.33137311819E+02  0.00000000000E+00 0.  1.
         13   -1    0    0    0    0 -0.00000000000E+00 -0.00000000000E+00 -0.10000000000E+04  0.10000000000E+04  0.00000000000E+00 0.  1.
    9000005    2    1    2  501    0 -0.19092806982E+02  0.24417639074E+02 -0.92689826058E+03  0.98256150881E+03  0.32453963819E+03 0.  0.
         13    1    3    3    0    0  0.12483080943E+03 -0.20788364410E+02 -0.17668025135E+03  0.21732647858E+03  0.00000000000E+00 0.  1.
          1    1    3    3  501    0 -0.14392361641E+03  0.45206003484E+02 -0.75021800923E+03  0.76523503023E+03  0.00000000000E+00 0.  1.
         21    1    1    2  502  501  0.19092806982E+02 -0.24417639074E+02 -0.39964427603E+02  0.50575803009E+02  0.00000000000E+00 0.  1.
<mgrwt>
<rscale>  1 0.30000000E+03</rscale>
<asrwt>0</asrwt>
<pdfrwt beam="1">  1        1 0.12049957E+00 0.30000000E+03</pdfrwt>
<pdfrwt beam="2">0</pdfrwt>
<totfact> 0.25827676E+01</totfact>
</mgrwt>
</event>
<event>
 6    1  0.1969531E-004  0.3000000E+03  0.7818608E-02  0.1093470E+00
          1   -1    0    0  502    0  0.00000000000E+00  0.00000000000E+00  0.35182831122E+02  0.35182831122E+02  0.00000000000E+00 0.  1.
         13   -1    0    0    0    0 -0.00000000000E+00 -0.00000000000E+00 -0.10000000000E+04  0.10000000000E+04  0.00000000000E+00 0.  1.
    9000005    2    1    2  501    0 -0.31055915572E+02 -0.24593652531E+02 -0.91985647148E+03  0.97525969747E+03  0.32159948964E+03 0.  0.
         13    1    3    3    0    0  0.28681444322E+02  0.10956033008E+03 -0.71087752663E+03  0.71984230845E+03  0.00000000000E+00 0.  1.
          1    1    3    3  501    0 -0.59737359894E+02 -0.13415398261E+03 -0.20897894486E+03  0.25541738902E+03  0.00000000000E+00 0.  1.
         21    1    1    2  502  501  0.31055915572E+02  0.24593652531E+02 -0.44960697395E+02  0.59923133655E+02  0.00000000000E+00 0.  1.
<mgrwt>
<rscale>  1 0.30000000E+03</rscale>
<asrwt>0</asrwt>
<pdfrwt beam="1">  1        1 0.12793784E+00 0.30000000E+03</pdfrwt>
<pdfrwt beam="2">0</pdfrwt>
<totfact> 0.23481353E+01</totfact>
</mgrwt>
</event>
<event>
 6    1  0.1969531E-004  0.3000000E+03  0.7818608E-02  0.1093470E+00
          1   -1    0    0  502    0  0.00000000000E+00  0.00000000000E+00  0.33524438310E+02  0.33524438310E+02  0.00000000000E+00 0.  1.
         13   -1    0    0    0    0 -0.00000000000E+00 -0.00000000000E+00 -0.10000000000E+04  0.10000000000E+04  0.00000000000E+00 0.  1.
    9000005    2    1    2  501    0 -0.92872684956E+01 -0.81640967288E+01 -0.97087508462E+03  0.10203995904E+04  0.31378971979E+03 0.  0.
         13    1    3    3    0    0  0.28731076182E+02 -0.11078362386E+03 -0.84868573150E+03  0.85636788643E+03  0.00000000000E+00 0.  1.
          1    1    3    3  501    0 -0.38018344677E+02  0.10261952713E+03 -0.12218935312E+03  0.16403170394E+03  0.00000000000E+00 0.  1.
         21    1    1    2  502  501  0.92872684956E+01  0.81640967288E+01  0.43995229332E+01  0.13124847944E+02  0.00000000000E+00 0.  1.
<mgrwt>
<rscale>  1 0.30000000E+03</rscale>
<asrwt>0</asrwt>
<pdfrwt beam="1">  1        1 0.12190731E+00 0.30000000E+03</pdfrwt>
<pdfrwt beam="2">0</pdfrwt>
<totfact> 0.25361030E+01</totfact>
</mgrwt>
</event>
<event>
 6    1  0.1969531E-004  0.3000000E+03  0.7818608E-02  0.1093470E+00
          1   -1    0    0  502    0  0.00000000000E+00  0.00000000000E+00  0.54087719358E+02  0.54087719358E+02  0.00000000000E+00 0.  1.
         13   -1    0    0    0    0 -0.00000000000E+00 -0.00000000000E+00 -0.10000000000E+04  0.10000000000E+04  0.00000000000E+00 0.  1.
    9000005    2    1    2  501    0 -0.25747872188E+02 -0.36679914678E+02 -0.95407232697E+03  0.10085360408E+04  0.32385578803E+03 0.  0.
         13    1    3    3    0    0  0.13452206195E+03  0.49892067376E+01 -0.23672679261E+03  0.27232453373E+03  0.00000000000E+00 0.  1.
          1    1    3    3  501    0 -0.16026993414E+03 -0.41669121416E+02 -0.71734553437E+03  0.73621150707E+03  0.00000000000E+00 0.  1.
         21    1    1    2  502  501  0.25747872188E+02  0.36679914678E+02  0.81600463316E+01  0.45551678555E+02  0.00000000000E+00 0.  1.
<mgrwt>
<rscale>  1 0.30000000E+03</rscale>
<asrwt>0</asrwt>
<pdfrwt beam="1">  1        1 0.19668303E+00 0.30000000E+03</pdfrwt>
<pdfrwt beam="2">0</pdfrwt>
<totfact> 0.10622515E+01</totfact>
</mgrwt>
</event>
<event>
 6    1  0.1969531E-004  0.3000000E+03  0.7818608E-02  0.1093470E+00
          1   -1    0    0  502    0  0.00000000000E+00  0.00000000000E+00  0.27888029468E+02  0.27888029468E+02  0.00000000000E+00 0.  1.
         13   -1    0    0    0    0 -0.00000000000E+00 -0.00000000000E+00 -0.10000000000E+04  0.10000000000E+04  0.00000000000E+00 0.  1.
    9000005    2    1    2  501    0  0.24604961840E+01 -0.12414227010E+02 -0.96289385368E+03  0.10122310581E+04  0.31190859956E+03 0.  0.
         13    1    3    3    0    0 -0.61833455898E+02  0.65779374080E+02 -0.87051669976E+03  0.87518548141E+03  0.00000000000E+00 0.  1.
          1    1    3    3  501    0  0.64293952082E+02 -0.78193601090E+02 -0.92377153926E+02  0.13704557670E+03  0.00000000000E+00 0.  1.
         21    1    1    2  502  501 -0.24604961840E+01  0.12414227010E+02 -0.92181168483E+01  0.15656971353E+02  0.00000000000E+00 0. -1.
<mgrwt>
<rscale>  1 0.30000000E+03</rscale>
<asrwt>0</asrwt>
<pdfrwt beam="1">  1        1 0.10141123E+00 0.30000000E+03</pdfrwt>
<pdfrwt beam="2">0</pdfrwt>
<totfact> 0.33531297E+01</totfact>
</mgrwt>
</event>
<event>
 6    1  0.1969531E-004  0.3000000E+03  0.7818608E-02  0.1093470E+00
          1   -1    0    0  502    0  0.00000000000E+00  0.00000000000E+00  0.38437870778E+02  0.38437870778E+02  0.00000000000E+00 0.  1.
         13   -1    0    0    0    0 -0.00000000000E+00 -0.00000000000E+00 -0.10000000000E+04  0.10000000000E+04  0.00000000000E+00 0.  1.
    9000005    2    1    2  501    0 -0.21339976456E+02  0.49953646387E+02 -0.89961150413E+03  0.95604465909E+03  0.31901374646E+03 0.  0.
         13    1    3    3    0    0  0.29253566662E+02 -0.59352417361E+02 -0.21301388457E+02  0.69514241413E+02  0.00000000000E+00 0.  1.
          3    1    3    3  501    0 -0.50593543118E+02  0.10930606375E+03 -0.87831011567E+03  0.88653041768E+03  0.00000000000E+00 0.  1.
         21    1    1    2  502  501  0.21339976456E+02 -0.49953646387E+02 -0.61950625091E+02  0.82393211684E+02  0.00000000000E+00 0. -1.
<mgrwt>
<rscale>  1 0.30000000E+03</rscale>
<asrwt>0</asrwt>
<pdfrwt beam="1">  1        1 0.13977437E+00 0.30000000E+03</pdfrwt>
<pdfrwt beam="2">0</pdfrwt>
<totfact> 0.20287446E+01</totfact>
</mgrwt>
</event>
<event>
 6    1  0.1969531E-004  0.3000000E+03  0.7818608E-02  0.1093470E+00
          1   -1    0    0  502    0  0.00000000000E+00  0.00000000000E+00  0.28319946112E+02  0.28319946112E+02  0.00000000000E+00 0.  1.
         13   -1    0    0    0    0 -0.00000000000E+00 -0.00000000000E+00 -0.10000000000E+04  0.10000000000E+04  0.00000000000E+00 0.  1.
    9000005    2    1    2  501    0 -0.43843326555E+01 -0.15201518758E+02 -0.95770276036E+03  0.10072089708E+04  0.31148840277E+03 0.  0.
         13    1    3    3    0    0  0.39464497558E+02 -0.55982635207E+01 -0.96134718143E+03  0.96217316028E+03  0.00000000000E+00 0.  1.
          1    1    3    3  501    0 -0.43848830214E+02 -0.96032552370E+01  0.36444210639E+01  0.45035810498E+02  0.00000000000E+00 0.  1.
         21    1    1    2  502  501  0.43843326555E+01  0.15201518758E+02 -0.13977293525E+02  0.21110975336E+02  0.00000000000E+00 0.  1.
<mgrwt>
<rscale>  1 0.30000000E+03</rscale>
<asrwt>0</asrwt>
<pdfrwt beam="1">  1        1 0.10298184E+00 0.30000000E+03</pdfrwt>
<pdfrwt beam="2">0</pdfrwt>
<totfact> 0.32781190E+01</totfact>
</mgrwt>
</event>
<event>
 6    1  0.1969531E-004  0.3000000E+03  0.7818608E-02  0.1093470E+00
          1   -1    0    0  502    0  0.00000000000E+00  0.00000000000E+00  0.29976657296E+02  0.29976657296E+02  0.00000000000E+00 0.  1.
         13   -1    0    0    0    0 -0.00000000000E+00 -0.00000000000E+00 -0.10000000000E+04  0.10000000000E+04  0.00000000000E+00 0.  1.
    9000005    2    1    2  501    0 -0.98101715907E+00 -0.12225859816E+02 -0.95296239628E+03  0.10089645195E+04  0.33124256791E+03 0.  0.
         13    1    3    3    0    0  0.45706492909E+02 -0.88775020102E+02 -0.89855378211E+03  0.90408461276E+03  0.00000000000E+00 0.  1.
          1    1    3    3  501    0 -0.46687510068E+02  0.76549160287E+02 -0.54408614175E+02  0.10487990672E+03  0.00000000000E+00 0.  1.
         21    1    1    2  502  501  0.98101715907E+00  0.12225859816E+02 -0.17060946423E+02  0.21012137820E+02  0.00000000000E+00 0. -1.
<mgrwt>
<rscale>  1 0.30000000E+03</rscale>
<asrwt>0</asrwt>
<pdfrwt beam="1">  1        1 0.10900626E+00 0.30000000E+03</pdfrwt>
<pdfrwt beam="2">0</pdfrwt>
<totfact> 0.30118795E+01</totfact>
</mgrwt>
</event>
<event>
 6    1  0.1969531E-004  0.3000000E+03  0.7818608E-02  0.1093470E+00
          1   -1    0    0  502    0  0.00000000000E+00  0.00000000000E+00  0.30842460857E+02  0.30842460857E+02  0.00000000000E+00 0.  1.
         13   -1    0    0    0    0 -0.00000000000E+00 -0.00000000000E+00 -0.10000000000E+04  0.10000000000E+04  0.00000000000E+00 0.  1.
    9000005    2    1    2  501    0  0.17293035169E+02  0.89878169631E+01 -0.94882409629E+03  0.10026772551E+04  0.32359648052E+03 0.  0.
         13    1    3    3    0    0  0.47444001011E+02  0.10572146098E+03 -0.11688476306E+03  0.16459042615E+03  0.00000000000E+00 0.  1.
          3    1    3    3  501    0 -0.30150965842E+02 -0.96733644018E+02 -0.83193933324E+03  0.83808682892E+03  0.00000000000E+00 0.  1.
         21    1    1    2  502  501 -0.17293035169E+02 -0.89878169631E+01 -0.20333442850E+02  0.28165205791E+02  0.00000000000E+00 0.  1.
<mgrwt>
<rscale>  1 0.30000000E+03</rscale>
<asrwt>0</asrwt>
<pdfrwt beam="1">  1        1 0.11215464E+00 0.30000000E+03</pdfrwt>
<pdfrwt beam="2">0</pdfrwt>
<totfact> 0.28849169E+01</totfact>
</mgrwt>
</event>
<event>
 6    1  0.1969531E-004  0.3000000E+03  0.7818608E-02  0.1093470E+00
          1   -1    0    0  502    0  0.00000000000E+00  0.00000000000E+00  0.68864528692E+02  0.68864528692E+02  0.00000000000E+00 0.  1.
         13   -1    0    0    0    0 -0.00000000000E+00 -0.00000000000E+00 -0.10000000000E+04  0.10000000000E+04  0.00000000000E+00 0.  1.
    9000005    2    1    2  501    0 -0.42693240415E+01 -0.13530468044E+02 -0.96814085414E+03  0.10292324829E+04  0.34902935370E+03 0.  0.
         13    1    3    3    0    0  0.27194650740E+02 -0.16140692432E+03 -0.27697896013E+03  0.32172828381E+03  0.00000000000E+00 0.  1.
          1    1    3    3  501    0 -0.31463974782E+02  0.14787645627E+03 -0.69116189401E+03  0.70750419911E+03  0.00000000000E+00 0.  1.
         21    1    1    2  502  501  0.42693240415E+01  0.13530468044E+02  0.37005382835E+02  0.39632045772E+02  0.00000000000E+00 0. -1.
<mgrwt>
<rscale>  1 0.30000000E+03</rscale>
<asrwt>0</asrwt>
<pdfrwt beam="1">  1        1 0.25041700E+00 0.30000000E+03</pdfrwt>
<pdfrwt beam="2">0</pdfrwt>
<totfact> 0.59394623E+00</totfact>
</mgrwt>
</event>
<event>
 6    1  0.1969531E-004  0.3000000E+03  0.7818608E-02  0.1093470E+00
          1   -1    0    0  502    0  0.00000000000E+00  0.00000000000E+00  0.31805931690E+02  0.31805931690E+02  0.00000000000E+00 0.  1.
         13   -1    0    0    0    0 -0.00000000000E+00 -0.00000000000E+00 -0.10000000000E+04  0.10000000000E+04  0.00000000000E+00 0.  1.
    9000005    2    1    2  501    0  0.26107884004E+02 -0.21760085932E+01 -0.89797674997E+03  0.95686042873E+03  0.32944389499E+03 0.  0.
         13    1    3    3    0    0 -0.48838306535E+02  0.14615440387E+03 -0.55091515527E+03  0.57206100921E+03  0.00000000000E+00 0.  1.
          1    1    3    3  501    0  0.74946190538E+02 -0.14833041246E+03 -0.34706159471E+03  0.38479941951E+03  0.00000000000E+00 0.  1.
         21    1    1    2  502  501 -0.26107884004E+02  0.21760085932E+01 -0.70217318335E+02  0.74945502965E+02  0.00000000000E+00 0. -1.
<mgrwt>
<rscale>  1 0.30000000E+03</rscale>
<asrwt>0</asrwt>
<pdfrwt beam="1">  1        1 0.11565818E+00 0.30000000E+03</pdfrwt>
<pdfrwt beam="2">0</pdfrwt>
<totfact> 0.27523798E+01</totfact>
</mgrwt>
</event>
<event>
 6    1  0.1969531E-004  0.3000000E+03  0.7818608E-02  0.1093470E+00
          1   -1    0    0  502    0  0.00000000000E+00  0.00000000000E+00  0.58880878791E+02  0.58880878791E+02  0.00000000000E+00 0.  1.
         13   -1    0    0    0    0 -0.00000000000E+00 -0.00000000000E+00 -0.10000000000E+04  0.10000000000E+04  0.00000000000E+00 0.  1.
    9000005    2    1    2  501    0 -0.11624115471E+02 -0.35409929125E+01 -0.97229328904E+03  0.10254221366E+04  0.32555899550E+03 0.  0.
         13    1    3    3    0    0  0.12993128552E+03 -0.36205235526E+02 -0.21125770578E+03  0.25064472124E+03  0.00000000000E+00 0.  1.
          1    1    3    3  501    0 -0.14155540100E+03  0.32664242613E+02 -0.76103558326E+03  0.77477741532E+03  0.00000000000E+00 0.  1.
         21    1    1    2  502  501  0.11624115471E+02  0.35409929125E+01  0.31174167833E+02  0.33458742226E+02  0.00000000000E+00 0. -1.
<mgrwt>
<rscale>  1 0.30000000E+03</rscale>
<asrwt>0</asrwt>
<pdfrwt beam="1">  1        1 0.21411274E+00 0.30000000E+03</pdfrwt>
<pdfrwt beam="2">0</pdfrwt>
<totfact> 0.87848909E+00</totfact>
</mgrwt>
</event>
<event>
 6    1  0.1969531E-004  0.3000000E+03  0.7818608E-02  0.1093470E+00
          1   -1    0    0  502    0  0.00000000000E+00  0.00000000000E+00  0.42235225181E+02  0.42235225181E+02  0.00000000000E+00 0.  1.
         13   -1    0    0    0    0 -0.00000000000E+00 -0.00000000000E+00 -0.10000000000E+04  0.10000000000E+04  0.00000000000E+00 0.  1.
    9000005    2    1    2  501    0  0.14156839408E+02  0.21647736944E+02 -0.96137090374E+03  0.10161192381E+04  0.32801715017E+03 0.  0.
         13    1    3    3    0    0 -0.97484060824E+02  0.10841191317E+03 -0.23836420041E+03  0.27941685180E+03  0.00000000000E+00 0.  1.
          3    1    3    3  501    0  0.11164090023E+03 -0.86764176229E+02 -0.72300670333E+03  0.73670238627E+03  0.00000000000E+00 0.  1.
         21    1    1    2  502  501 -0.14156839408E+02 -0.21647736944E+02  0.36061289214E+01  0.26115987108E+02  0.00000000000E+00 0. -1.
<mgrwt>
<rscale>  1 0.30000000E+03</rscale>
<asrwt>0</asrwt>
<pdfrwt beam="1">  1        1 0.15358296E+00 0.30000000E+03</pdfrwt>
<pdfrwt beam="2">0</pdfrwt>
<totfact> 0.17230357E+01</totfact>
</mgrwt>
</event>
<event>
 6    1  0.1969531E-004  0.3000000E+03  0.7818608E-02  0.1093470E+00
          3   -1    0    0  502    0  0.00000000000E+00  0.00000000000E+00  0.30596452762E+02  0.30596452762E+02  0.00000000000E+00 0.  1.
         13   -1    0    0    0    0 -0.00000000000E+00 -0.00000000000E+00 -0.10000000000E+04  0.10000000000E+04  0.00000000000E+00 0.  1.
    9000005    2    1    2  501    0  0.85510713850E+01 -0.63273754972E+01 -0.96424999172E+03  0.10187763158E+04  0.32865480168E+03 0.  0.
         13    1    3    3    0    0 -0.88756045510E+02 -0.10725665524E+03 -0.74945797399E+03  0.76227874199E+03  0.00000000000E+00 0.  1.
          3    1    3    3  501    0  0.97307116895E+02  0.10092927975E+03 -0.21479201773E+03  0.25649757384E+03  0.00000000000E+00 0.  1.
         21    1    1    2  502  501 -0.85510713850E+01  0.63273754972E+01 -0.51535555176E+01  0.11820136928E+02  0.00000000000E+00 0.  1.
<mgrwt>
<rscale>  1 0.30000000E+03</rscale>
<asrwt>0</asrwt>
<pdfrwt beam="1">  1        3 0.11126006E+00 0.30000000E+03</pdfrwt>
<pdfrwt beam="2">0</pdfrwt>
<totfact> 0.29155484E+00</totfact>
</mgrwt>
</event>
<event>
 6    1  0.1969531E-004  0.3000000E+03  0.7818608E-02  0.1093470E+00
          3   -1    0    0  502    0  0.00000000000E+00  0.00000000000E+00  0.25502393502E+02  0.25502393502E+02  0.00000000000E+00 0.  1.
         13   -1    0    0    0    0 -0.00000000000E+00 -0.00000000000E+00 -0.10000000000E+04  0.10000000000E+04  0.00000000000E+00 0.  1.
    9000005    2    1    2  501    0  0.61813365090E+01  0.68202152142E+01 -0.95034615907E+03  0.99965637506E+03  0.30995212836E+03 0.  0.
         13    1    3    3    0    0  0.10383097838E+03 -0.68201580088E+02 -0.17510036793E+03  0.21469156119E+03  0.00000000000E+00 0.  1.
          1    1    3    3  501    0 -0.97649641868E+02  0.75021795302E+02 -0.77524579114E+03  0.78496481387E+03  0.00000000000E+00 0.  1.
         21    1    1    2  502  501 -0.61813365090E+01 -0.68202152142E+01 -0.24151447424E+02  0.25846018441E+02  0.00000000000E+00 0.  1.
<mgrwt>
<rscale>  1 0.30000000E+03</rscale>
<asrwt>0</asrwt>
<pdfrwt beam="1">  1        3 0.92736172E-01 0.30000000E+03</pdfrwt>
<pdfrwt beam="2">0</pdfrwt>
<totfact> 0.47433741E+00</totfact>
</mgrwt>
</event>
<event>
 6    1  0.1969531E-004  0.3000000E+03  0.7818608E-02  0.1093470E+00
          1   -1    0    0  502    0  0.00000000000E+00  0.00000000000E+00  0.28819842083E+02  0.28819842083E+02  0.00000000000E+00 0.  1.
         13   -1    0    0    0    0 -0.00000000000E+00 -0.00000000000E+00 -0.10000000000E+04  0.10000000000E+04  0.00000000000E+00 0.  1.
    9000005    2    1    2  501    0 -0.36085860620E+01  0.16180351607E+02 -0.94656851170E+03  0.99914563104E+03  0.31941386791E+03 0.  0.
         13    1    3    3    0    0 -0.67798808504E+02  0.60039579526E+01 -0.92944763299E+03  0.93193649377E+03  0.00000000000E+00 0.  1.
          1    1    3    3  501    0  0.64190222442E+02  0.10176393654E+02 -0.17120878708E+02  0.67209137271E+02  0.00000000000E+00 0.  1.
         21    1    1    2  502  501  0.36085860620E+01 -0.16180351607E+02 -0.24611646217E+02  0.29674211043E+02  0.00000000000E+00 0.  1.
<mgrwt>
<rscale>  1 0.30000000E+03</rscale>
<asrwt>0</asrwt>
<pdfrwt beam="1">  1        1 0.10479965E+00 0.30000000E+03</pdfrwt>
<pdfrwt beam="2">0</pdfrwt>
<totfact> 0.31943182E+01</totfact>
</mgrwt>
</event>
<event>
 6    1  0.1969531E-004  0.3000000E+03  0.7818608E-02  0.1093470E+00
          1   -1    0    0  502    0  0.00000000000E+00  0.00000000000E+00  0.65045139208E+02  0.65045139208E+02  0.00000000000E+00 0.  1.
         13   -1    0    0    0    0 -0.00000000000E+00 -0.00000000000E+00 -0.10000000000E+04  0.10000000000E+04  0.00000000000E+00 0.  1.
    9000005    2    1    2  501    0  0.22864105086E+02  0.48268568295E+01 -0.96871467203E+03  0.10239867576E+04  0.33105089941E+03 0.  0.
         13    1    3    3    0    0 -0.11741303348E+03 -0.38521773035E+02 -0.75284379817E+03  0.76291777530E+03  0.00000000000E+00 0.  1.
          3    1    3    3  501    0  0.14027713857E+03  0.43348629864E+02 -0.21587087387E+03  0.26106898226E+03  0.00000000000E+00 0.  1.
         21    1    1    2  502  501 -0.22864105086E+02 -0.48268568295E+01  0.33759811242E+02  0.41058381646E+02  0.00000000000E+00 0.  1.
<mgrwt>
<rscale>  1 0.30000000E+03</rscale>
<asrwt>0</asrwt>
<pdfrwt beam="1">  1        1 0.23652828E+00 0.30000000E+03</pdfrwt>
<pdfrwt beam="2">0</pdfrwt>
<totfact> 0.68975686E+00</totfact>
</mgrwt>
</event>
<event>
 6    1  0.1969531E-004  0.3000000E+03  0.7818608E-02  0.1093470E+00
          1   -1    0    0  502    0  0.00000000000E+00  0.00000000000E+00  0.29237133379E+02  0.29237133379E+02  0.00000000000E+00 0.  1.
         13   -1    0    0    0    0 -0.00000000000E+00 -0.00000000000E+00 -0.10000000000E+04  0.10000000000E+04  0.00000000000E+00 0.  1.
    9000005    2    1    2  501    0 -0.68680277247E+00 -0.12081649779E+02 -0.95972979347E+03  0.10128613384E+04  0.32351255973E+03 0.  0.
         13    1    3    3    0    0  0.13949757218E+03 -0.84885243212E+02 -0.55029300882E+03  0.57400999357E+03  0.00000000000E+00 0.  1.
          1    1    3    3  501    0 -0.14018437495E+03  0.72803593433E+02 -0.40943678465E+03  0.43885134478E+03  0.00000000000E+00 0.  1.
         21    1    1    2  502  501  0.68680277247E+00  0.12081649779E+02 -0.11033073151E+02  0.16375795022E+02  0.00000000000E+00 0.  1.
<mgrwt>
<rscale>  1 0.30000000E+03</rscale>
<asrwt>0</asrwt>
<pdfrwt beam="1">  1        1 0.10631707E+00 0.30000000E+03</pdfrwt>
<pdfrwt beam="2">0</pdfrwt>
<totfact> 0.31267207E+01</totfact>
</mgrwt>
</event>
<event>
 6    1  0.1969531E-004  0.3000000E+03  0.7818608E-02  0.1093470E+00
          1   -1    0    0  502    0  0.00000000000E+00  0.00000000000E+00  0.51058783434E+02  0.51058783434E+02  0.00000000000E+00 0.  1.
         13   -1    0    0    0    0 -0.00000000000E+00 -0.00000000000E+00 -0.10000000000E+04  0.10000000000E+04  0.00000000000E+00 0.  1.
    9000005    2    1    2  501    0 -0.49596144382E+02 -0.13681402953E+01 -0.94140526091E+03  0.10008747225E+04  0.33622120026E+03 0.  0.
         13    1    3    3    0    0  0.13118315755E+03  0.46089011479E+02 -0.26681858988E+03  0.30087435535E+03  0.00000000000E+00 0.  1.
          1    1    3    3  501    0 -0.18077930193E+03 -0.47457151775E+02 -0.67458667103E+03  0.70000036713E+03  0.00000000000E+00 0.  1.
         21    1    1    2  502  501  0.49596144382E+02  0.13681402953E+01 -0.75359556556E+01  0.50184060946E+02  0.00000000000E+00 0. -1.
<mgrwt>
<rscale>  1 0.30000000E+03</rscale>
<asrwt>0</asrwt>
<pdfrwt beam="1">  1        1 0.18566869E+00 0.30000000E+03</pdfrwt>
<pdfrwt beam="2">0</pdfrwt>
<totfact> 0.11995229E+01</totfact>
</mgrwt>
</event>
<event>
 6    1  0.1969531E-004  0.3000000E+03  0.7818608E-02  0.1093470E+00
          1   -1    0    0  502    0  0.00000000000E+00  0.00000000000E+00  0.24476320213E+02  0.24476320213E+02  0.00000000000E+00 0.  1.
         13   -1    0    0    0    0 -0.00000000000E+00 -0.00000000000E+00 -0.10000000000E+04  0.10000000000E+04  0.00000000000E+00 0.  1.
    9000005    2    1    2  501    0  0.80793091819E+01 -0.73063018263E+01 -0.96737243462E+03  0.10108711711E+04  0.29314235470E+03 0.  0.
         13    1    3    3    0    0  0.43469229174E+02  0.11269707067E+03 -0.20215160044E+03  0.23548985792E+03  0.00000000000E+00 0.  1.
          3    1    3    3  501    0 -0.35389919992E+02 -0.12000337250E+03 -0.76522083417E+03  0.77538131323E+03  0.00000000000E+00 0.  1.
         21    1    1    2  502  501 -0.80793091819E+01  0.73063018263E+01 -0.81512451718E+01  0.13605149065E+02  0.00000000000E+00 0. -1.
<mgrwt>
<rscale>  1 0.30000000E+03</rscale>
<asrwt>0</asrwt>
<pdfrwt beam="1">  1        1 0.89004988E-01 0.30000000E+03</pdfrwt>
<pdfrwt beam="2">0</pdfrwt>
<totfact> 0.40463675E+01</totfact>
</mgrwt>
</event>
<event>
 6    1  0.1969531E-004  0.3000000E+03  0.7818608E-02  0.1093470E+00
          1   -1    0    0  502    0  0.00000000000E+00  0.00000000000E+00  0.34786107126E+02  0.34786107126E+02  0.00000000000E+00 0.  1.
         13   -1    0    0    0    0 -0.00000000000E+00 -0.00000000000E+00 -0.10000000000E+04  0.10000000000E+04  0.00000000000E+00 0.  1.
    9000005    2    1    2  501    0 -0.14079888017E+02 -0.16537947759E+02 -0.95720513315E+03  0.10116368697E+04  0.32664314194E+03 0.  0.
         13    1    3    3    0    0 -0.82283845151E+02 -0.93415417034E+02 -0.86391668251E+03  0.87283967923E+03  0.00000000000E+00 0.  1.
          3    1    3    3  501    0  0.68203957134E+02  0.76877469276E+02 -0.93288450641E+02  0.13879719044E+03  0.00000000000E+00 0.  1.
         21    1    1    2  502  501  0.14079888017E+02  0.16537947759E+02 -0.80087597219E+01  0.23149237459E+02  0.00000000000E+00 0.  1.
<mgrwt>
<rscale>  1 0.30000000E+03</rscale>
<asrwt>0</asrwt>
<pdfrwt beam="1">  1        1 0.12649520E+00 0.30000000E+03</pdfrwt>
<pdfrwt beam="2">0</pdfrwt>
<totfact> 0.23914350E+01</totfact>
</mgrwt>
</event>
<event>
 6    1  0.1969531E-004  0.3000000E+03  0.7818608E-02  0.1093470E+00
          1   -1    0    0  502    0  0.00000000000E+00  0.00000000000E+00  0.24868300164E+02  0.24868300164E+02  0.00000000000E+00 0.  1.
         13   -1    0    0    0    0 -0.00000000000E+00 -0.00000000000E+00 -0.10000000000E+04  0.10000000000E+04  0.00000000000E+00 0.  1.
    9000005    2    1    2  501    0  0.15877639629E+02 -0.81973945933E+00 -0.95348444619E+03  0.99800987498E+03  0.29434393151E+03 0.  0.
         13    1    3    3    0    0 -0.24188866348E+02  0.13034468466E+02 -0.95518644501E+03  0.95558157336E+03  0.00000000000E+00 0.  1.
          1    1    3    3  501    0  0.40066505977E+02 -0.13854207925E+02  0.17019988140E+01  0.42428301620E+02  0.00000000000E+00 0.  1.
         21    1    1    2  502  501 -0.15877639629E+02  0.81973945933E+00 -0.21647253643E+02  0.26858425182E+02  0.00000000000E+00 0.  1.
<mgrwt>
<rscale>  1 0.30000000E+03</rscale>
<asrwt>0</asrwt>
<pdfrwt beam="1">  1        1 0.90430373E-01 0.30000000E+03</pdfrwt>
<pdfrwt beam="2">0</pdfrwt>
<totfact> 0.39563197E+01</totfact>
</mgrwt>
</event>
<event>
 6    1  0.1969531E-004  0.3000000E+03  0.7818608E-02  0.1093470E+00
          1   -1    0    0  502    0  0.00000000000E+00  0.00000000000E+00  0.37121593840E+02  0.37121593840E+02  0.00000000000E+00 0.  1.
         13   -1    0    0    0    0 -0.00000000000E+00 -0.00000000000E+00 -0.10000000000E+04  0.10000000000E+04  0.00000000000E+00 0.  1.
    9000005    2    1    2  501    0  0.12785999316E+02  0.25886820052E+01 -0.96858190316E+03  0.10228838647E+04  0.32858836634E+03 0.  0.
         13    1    3    3    0    0 -0.78378463604E+02 -0.11938872390E+03 -0.24619195046E+03  0.28461786210E+03  0.00000000000E+00 0.  1.
          3    1    3    3  501    0  0.91164462920E+02  0.12197740591E+03 -0.72238995269E+03  0.73826600260E+03  0.00000000000E+00 0.  1.
         21    1    1    2  502  501 -0.12785999316E+02 -0.25886820052E+01  0.57034969964E+01  0.14237729139E+02  0.00000000000E+00 0.  1.
<mgrwt>
<rscale>  1 0.30000000E+03</rscale>
<asrwt>0</asrwt>
<pdfrwt beam="1">  1        1 0.13498790E+00 0.30000000E+03</pdfrwt>
<pdfrwt beam="2">0</pdfrwt>
<totfact> 0.21505709E+01</totfact>
</mgrwt>
</event>
<event>
 6    1  0.1969531E-004  0.3000000E+03  0.7818608E-02  0.1093470E+00
          1   -1    0    0  502    0  0.00000000000E+00  0.00000000000E+00  0.50763540822E+02  0.50763540822E+02  0.00000000000E+00 0.  1.
         13   -1    0    0    0    0 -0.00000000000E+00 -0.00000000000E+00 -0.10000000000E+04  0.10000000000E+04  0.00000000000E+00 0.  1.
    9000005    2    1    2  501    0  0.79092357567E+02 -0.27584656133E+02 -0.87570963131E+03  0.93930633515E+03  0.32926056339E+03 0.  0.
         13    1    3    3    0    0  0.54859879472E+02 -0.17832247720E+03 -0.50694251298E+03  0.54018443490E+03  0.00000000000E+00 0.  1.
          3    1    3    3  501    0  0.24232478096E+02  0.15073782106E+03 -0.36876711833E+03  0.39912190025E+03  0.00000000000E+00 0.  1.
         21    1    1    2  502  501 -0.79092357567E+02  0.27584656133E+02 -0.73526827869E+02  0.11145720567E+03  0.00000000000E+00 0.  1.
<mgrwt>
<rscale>  1 0.30000000E+03</rscale>
<asrwt>0</asrwt>
<pdfrwt beam="1">  1        1 0.18459508E+00 0.30000000E+03</pdfrwt>
<pdfrwt beam="2">0</pdfrwt>
<totfact> 0.12138701E+01</totfact>
</mgrwt>
</event>
<event>
 6    1  0.1969531E-004  0.3000000E+03  0.7818608E-02  0.1093470E+00
          1   -1    0    0  502    0  0.00000000000E+00  0.00000000000E+00  0.29653571428E+02  0.29653571428E+02  0.00000000000E+00 0.  1.
         13   -1    0    0    0    0 -0.00000000000E+00 -0.00000000000E+00 -0.10000000000E+04  0.10000000000E+04  0.00000000000E+00 0.  1.
    9000005    2    1    2  501    0 -0.80714748501E+01 -0.69173199326E+01 -0.97245946651E+03  0.10188155388E+04  0.30363578533E+03 0.  0.
         13    1    3    3    0    0  0.39229582604E+02  0.90265680407E+01  0.45687027701E+01  0.40513110555E+02  0.00000000000E+00 0.  1.
          1    1    3    3  501    0 -0.47301057454E+02 -0.15943887973E+02 -0.97702816928E+03  0.97830242827E+03  0.00000000000E+00 0.  1.
         21    1    1    2  502  501  0.80714748501E+01  0.69173199326E+01  0.21130379363E+01  0.10838032599E+02  0.00000000000E+00 0. -1.
<mgrwt>
<rscale>  1 0.30000000E+03</rscale>
<asrwt>0</asrwt>
<pdfrwt beam="1">  1        1 0.10783140E+00 0.30000000E+03</pdfrwt>
<pdfrwt beam="2">0</pdfrwt>
<totfact> 0.30612958E+01</totfact>
</mgrwt>
</event>
<event>
 6    1  0.1969531E-004  0.3000000E+03  0.7818608E-02  0.1093470E+00
          1   -1    0    0  502    0  0.00000000000E+00  0.00000000000E+00  0.47036378289E+02  0.47036378289E+02  0.00000000000E+00 0.  1.
         13   -1    0    0    0    0 -0.00000000000E+00 -0.00000000000E+00 -0.10000000000E+04  0.10000000000E+04  0.00000000000E+00 0.  1.
    9000005    2    1    2  501    0  0.29712629369E+02 -0.23406517795E+02 -0.95139708683E+03  0.10091792858E+04  0.33444836471E+03 0.  0.
         13    1    3    3    0    0 -0.12851887336E+03  0.68635338443E+02 -0.53165345881E+03  0.55125612084E+03  0.00000000000E+00 0.  1.
          1    1    3    3  501    0  0.15823150273E+03 -0.92041856238E+02 -0.41974362802E+03  0.45792316498E+03  0.00000000000E+00 0.  1.
         21    1    1    2  502  501 -0.29712629369E+02  0.23406517795E+02 -0.15665348797E+01  0.37857092478E+02  0.00000000000E+00 0.  1.
<mgrwt>
<rscale>  1 0.30000000E+03</rscale>
<asrwt>0</asrwt>
<pdfrwt beam="1">  1        1 0.17104174E+00 0.30000000E+03</pdfrwt>
<pdfrwt beam="2">0</pdfrwt>
<totfact> 0.14120795E+01</totfact>
</mgrwt>
</event>
<event>
 6    1  0.1969531E-004  0.3000000E+03  0.7818608E-02  0.1093470E+00
          1   -1    0    0  502    0  0.00000000000E+00  0.00000000000E+00  0.29417880767E+02  0.29417880767E+02  0.00000000000E+00 0.  1.
         13   -1    0    0    0    0 -0.00000000000E+00 -0.00000000000E+00 -0.10000000000E+04  0.10000000000E+04  0.00000000000E+00 0.  1.
    9000005    2    1    2  501    0  0.12112315846E+02 -0.19440854210E+02 -0.94518129333E+03  0.99521470892E+03  0.31074102496E+03 0.  0.
         13    1    3    3    0    0  0.24953212858E+02  0.12037175944E+03 -0.71577204384E+03  0.72625177593E+03  0.00000000000E+00 0.  1.
          3    1    3    3  501    0 -0.12840897012E+02 -0.13981261365E+03 -0.22940924949E+03  0.26896293299E+03  0.00000000000E+00 0.  1.
         21    1    1    2  502  501 -0.12112315846E+02  0.19440854210E+02 -0.25400825904E+02  0.34203171844E+02  0.00000000000E+00 0.  1.
<mgrwt>
<rscale>  1 0.30000000E+03</rscale>
<asrwt>0</asrwt>
<pdfrwt beam="1">  1        1 0.10697434E+00 0.30000000E+03</pdfrwt>
<pdfrwt beam="2">0</pdfrwt>
<totfact> 0.30980800E+01</totfact>
</mgrwt>
</event>
<event>
 6    1  0.1969531E-004  0.3000000E+03  0.7818608E-02  0.1093470E+00
          1   -1    0    0  502    0  0.00000000000E+00  0.00000000000E+00  0.49575084294E+02  0.49575084294E+02  0.00000000000E+00 0.  1.
         13   -1    0    0    0    0 -0.00000000000E+00 -0.00000000000E+00 -0.10000000000E+04  0.10000000000E+04  0.00000000000E+00 0.  1.
    9000005    2    1    2  501    0  0.80624992822E+02  0.27350807364E+02 -0.86282309950E+03  0.92741725878E+03  0.32922729949E+03 0.  0.
         13    1    3    3    0    0  0.49385156728E+02 -0.14215522427E+03 -0.55040612552E+03  0.57060836351E+03  0.00000000000E+00 0.  1.
          3    1    3    3  501    0  0.31239836094E+02  0.16950603163E+03 -0.31241697397E+03  0.35680889527E+03  0.00000000000E+00 0.  1.
         21    1    1    2  502  501 -0.80624992822E+02 -0.27350807364E+02 -0.87601816209E+02  0.12215782551E+03  0.00000000000E+00 0.  1.
<mgrwt>
<rscale>  1 0.30000000E+03</rscale>
<asrwt>0</asrwt>
<pdfrwt beam="1">  1        1 0.18027341E+00 0.30000000E+03</pdfrwt>
<pdfrwt beam="2">0</pdfrwt>
<totfact> 0.12735615E+01</totfact>
</mgrwt>
</event>
<event>
 6    1  0.1969531E-004  0.3000000E+03  0.7818608E-02  0.1093470E+00
          1   -1    0    0  502    0  0.00000000000E+00  0.00000000000E+00  0.35227130738E+02  0.35227130738E+02  0.00000000000E+00 0.  1.
         13   -1    0    0    0    0 -0.00000000000E+00 -0.00000000000E+00 -0.10000000000E+04  0.10000000000E+04  0.00000000000E+00 0.  1.
    9000005    2    1    2  501    0 -0.25698195512E+02  0.16512707764E+02 -0.93644685409E+03  0.99356863934E+03  0.33062495939E+03 0.  0.
         13    1    3    3    0    0 -0.62344805313E+02 -0.12061324500E+03 -0.18870048643E+03  0.23247000494E+03  0.00000000000E+00 0.  1.
          1    1    3    3  501    0  0.36646609802E+02  0.13712595276E+03 -0.74774636767E+03  0.76109863440E+03  0.00000000000E+00 0.  1.
         21    1    1    2  502  501  0.25698195512E+02 -0.16512707764E+02 -0.28326015170E+02  0.41658491399E+02  0.00000000000E+00 0.  1.
<mgrwt>
<rscale>  1 0.30000000E+03</rscale>
<asrwt>0</asrwt>
<pdfrwt beam="1">  1        1 0.12809893E+00 0.30000000E+03</pdfrwt>
<pdfrwt beam="2">0</pdfrwt>
<totfact> 0.23433630E+01</totfact>
</mgrwt>
</event>
<event>
 6    1  0.1969531E-004  0.3000000E+03  0.7818608E-02  0.1093470E+00
          1   -1    0    0  502    0  0.00000000000E+00  0.00000000000E+00  0.10059832660E+03  0.10059832660E+03  0.00000000000E+00 0.  1.
         13   -1    0    0    0    0 -0.00000000000E+00 -0.00000000000E+00 -0.10000000000E+04  0.10000000000E+04  0.00000000000E+00 0.  1.
    9000005    2    1    2  501    0 -0.90840471596E+02  0.38228788829E+01 -0.94180052172E+03  0.10002775011E+04  0.32450000138E+03 0.  0.
         13    1    3    3    0    0  0.60447164863E+02 -0.12062941569E+03 -0.48096329440E+03  0.49953078607E+03  0.00000000000E+00 0.  1.
          3    1    3    3  501    0 -0.15128763646E+03  0.12445229458E+03 -0.46083722732E+03  0.50074671507E+03  0.00000000000E+00 0.  1.
         21    1    1    2  502  501  0.90840471596E+02 -0.38228788829E+01  0.42398848323E+02  0.10032082546E+03  0.00000000000E+00 0.  1.
<mgrwt>
<rscale>  1 0.30000000E+03</rscale>
<asrwt>0</asrwt>
<pdfrwt beam="1">  1        1 0.36581287E+00 0.30000000E+03</pdfrwt>
<pdfrwt beam="2">0</pdfrwt>
<totfact> 0.16256829E+00</totfact>
</mgrwt>
</event>
<event>
 6    1  0.1969531E-004  0.3000000E+03  0.7818608E-02  0.1093470E+00
          1   -1    0    0  502    0  0.00000000000E+00  0.00000000000E+00  0.38846377474E+02  0.38846377474E+02  0.00000000000E+00 0.  1.
         13   -1    0    0    0    0 -0.00000000000E+00 -0.00000000000E+00 -0.10000000000E+04  0.10000000000E+04  0.00000000000E+00 0.  1.
    9000005    2    1    2  501    0  0.33966156538E+00  0.11464035042E+02 -0.96422126987E+03  0.10269741439E+04  0.35330114000E+03 0.  0.
         13    1    3    3    0    0  0.62676227872E+02  0.27532239702E+02 -0.83802519547E+01  0.68967835881E+02  0.00000000000E+00 0.  1.
          1    1    3    3  501    0 -0.62336566306E+02 -0.16068204660E+02 -0.95584101792E+03  0.95800630803E+03  0.00000000000E+00 0.  1.
         21    1    1    2  502  501 -0.33966156538E+00 -0.11464035042E+02  0.30676473472E+01  0.11872233559E+02  0.00000000000E+00 0. -1.
<mgrwt>
<rscale>  1 0.30000000E+03</rscale>
<asrwt>0</asrwt>
<pdfrwt beam="1">  1        1 0.14125985E+00 0.30000000E+03</pdfrwt>
<pdfrwt beam="2">0</pdfrwt>
<totfact> 0.19927427E+01</totfact>
</mgrwt>
</event>
<event>
 6    1  0.1969531E-004  0.3000000E+03  0.7818608E-02  0.1093470E+00
          1   -1    0    0  502    0  0.00000000000E+00  0.00000000000E+00  0.35237722338E+02  0.35237722338E+02  0.00000000000E+00 0.  1.
         13   -1    0    0    0    0 -0.00000000000E+00 -0.00000000000E+00 -0.10000000000E+04  0.10000000000E+04  0.00000000000E+00 0.  1.
    9000005    2    1    2  501    0  0.10510624821E+02 -0.90897966613E+01 -0.96897078930E+03  0.10207184521E+04  0.32057552985E+03 0.  0.
         13    1    3    3    0    0 -0.12850738097E+03 -0.90929899855E+02 -0.53739258933E+03  0.55997606084E+03  0.00000000000E+00 0.  1.
          3    1    3    3  501    0  0.13901800579E+03  0.81840103194E+02 -0.43157819997E+03  0.46074239128E+03  0.00000000000E+00 0.  1.
         21    1    1    2  502  501 -0.10510624821E+02  0.90897966613E+01  0.42085116405E+01  0.14519270219E+02  0.00000000000E+00 0.  1.
<mgrwt>
<rscale>  1 0.30000000E+03</rscale>
<asrwt>0</asrwt>
<pdfrwt beam="1">  1        1 0.12813744E+00 0.30000000E+03</pdfrwt>
<pdfrwt beam="2">0</pdfrwt>
<totfact> 0.23422238E+01</totfact>
</mgrwt>
</event>
<event>
 6    1  0.1969531E-004  0.3000000E+03  0.7818608E-02  0.1093470E+00
          1   -1    0    0  502    0  0.00000000000E+00  0.00000000000E+00  0.36153319255E+02  0.36153319255E+02  0.00000000000E+00 0.  1.
         13   -1    0    0    0    0 -0.00000000000E+00 -0.00000000000E+00 -0.10000000000E+04  0.10000000000E+04  0.00000000000E+00 0.  1.
    9000005    2    1    2  501    0  0.10670437989E+02 -0.10763216646E+02 -0.96225914142E+03  0.10209143770E+04  0.34072540977E+03 0.  0.
         13    1    3    3    0    0  0.11008203573E+03  0.12283474320E+03 -0.35875128318E+03  0.39485302571E+03  0.00000000000E+00 0.  1.
          3    1    3    3  501    0 -0.99411597739E+02 -0.13359795985E+03 -0.60350785824E+03  0.62606135131E+03  0.00000000000E+00 0.  1.
         21    1    1    2  502  501 -0.10670437989E+02  0.10763216646E+02 -0.15875393203E+01  0.15238942238E+02  0.00000000000E+00 0.  1.
<mgrwt>
<rscale>  1 0.30000000E+03</rscale>
<asrwt>0</asrwt>
<pdfrwt beam="1">  1        1 0.13146689E+00 0.30000000E+03</pdfrwt>
<pdfrwt beam="2">0</pdfrwt>
<totfact> 0.22463995E+01</totfact>
</mgrwt>
</event>
<event>
 6    1  0.1969531E-004  0.3000000E+03  0.7818608E-02  0.1093470E+00
          1   -1    0    0  502    0  0.00000000000E+00  0.00000000000E+00  0.72594511221E+02  0.72594511221E+02  0.00000000000E+00 0.  1.
         13   -1    0    0    0    0 -0.00000000000E+00 -0.00000000000E+00 -0.10000000000E+04  0.10000000000E+04  0.00000000000E+00 0.  1.
    9000005    2    1    2  501    0  0.55509236716E+01 -0.11691768632E+02 -0.97296444678E+03  0.10252328299E+04  0.32291644508E+03 0.  0.
         13    1    3    3    0    0  0.12435641873E+03  0.33416698915E+02 -0.80167063287E+03  0.81194642573E+03  0.00000000000E+00 0.  1.
          1    1    3    3  501    0 -0.11880549506E+03 -0.45108467547E+02 -0.17129381391E+03  0.21328640412E+03  0.00000000000E+00 0.  1.
         21    1    1    2  502  501 -0.55509236716E+01  0.11691768632E+02  0.45558958004E+02  0.47361681366E+02  0.00000000000E+00 0.  1.
<mgrwt>
<rscale>  1 0.30000000E+03</rscale>
<asrwt>0</asrwt>
<pdfrwt beam="1">  1        1 0.26398060E+00 0.30000000E+03</pdfrwt>
<pdfrwt beam="2">0</pdfrwt>
<totfact> 0.51321257E+00</totfact>
</mgrwt>
</event>
<event>
 6    1  0.1969531E-004  0.3000000E+03  0.7818608E-02  0.1093470E+00
          1   -1    0    0  502    0  0.00000000000E+00  0.00000000000E+00  0.37410024234E+02  0.37410024234E+02  0.00000000000E+00 0.  1.
         13   -1    0    0    0    0 -0.00000000000E+00 -0.00000000000E+00 -0.10000000000E+04  0.10000000000E+04  0.00000000000E+00 0.  1.
    9000005    2    1    2  501    0  0.19240388124E+02  0.33105526832E+02 -0.93884787144E+03  0.99235610143E+03  0.31916945014E+03 0.  0.
         13    1    3    3    0    0  0.12464525588E+03  0.27955376762E+02 -0.15238466518E+03  0.19884423322E+03  0.00000000000E+00 0.  1.
          3    1    3    3  501    0 -0.10540486775E+03  0.51501500698E+01 -0.78646320627E+03  0.79351186822E+03  0.00000000000E+00 0.  1.
         21    1    1    2  502  501 -0.19240388124E+02 -0.33105526832E+02 -0.23742104323E+02  0.45053922800E+02  0.00000000000E+00 0.  1.
<mgrwt>
<rscale>  1 0.30000000E+03</rscale>
<asrwt>0</asrwt>
<pdfrwt beam="1">  1        1 0.13603674E+00 0.30000000E+03</pdfrwt>
<pdfrwt beam="2">0</pdfrwt>
<totfact> 0.21230764E+01</totfact>
</mgrwt>
</event>
<event>
 6    1  0.1969531E-004  0.3000000E+03  0.7818608E-02  0.1093470E+00
          1   -1    0    0  502    0  0.00000000000E+00  0.00000000000E+00  0.38084449015E+02  0.38084449015E+02  0.00000000000E+00 0.  1.
         13   -1    0    0    0    0 -0.00000000000E+00 -0.00000000000E+00 -0.10000000000E+04  0.10000000000E+04  0.00000000000E+00 0.  1.
    9000005    2    1    2  501    0  0.51432870564E+01 -0.37046981390E+02 -0.93115796790E+03  0.98965965011E+03  0.33312479590E+03 0.  0.
         13    1    3    3    0    0  0.12505584211E+03 -0.99158185951E+02 -0.26019935016E+03  0.30524582112E+03  0.00000000000E+00 0.  1.
          3    1    3    3  501    0 -0.11991255506E+03  0.62111204561E+02 -0.67095861774E+03  0.68441382899E+03  0.00000000000E+00 0.  1.
         21    1    1    2  502  501 -0.51432870564E+01  0.37046981390E+02 -0.30757583088E+02  0.48424798908E+02  0.00000000000E+00 0.  1.
<mgrwt>
<rscale>  1 0.30000000E+03</rscale>
<asrwt>0</asrwt>
<pdfrwt beam="1">  1        1 0.13848920E+00 0.30000000E+03</pdfrwt>
<pdfrwt beam="2">0</pdfrwt>
<totfact> 0.20605631E+01</totfact>
</mgrwt>
</event>
<event>
 6    1  0.1969531E-004  0.3000000E+03  0.7818608E-02  0.1093470E+00
          1   -1    0    0  502    0  0.00000000000E+00  0.00000000000E+00  0.27746139899E+02  0.27746139899E+02  0.00000000000E+00 0.  1.
         13   -1    0    0    0    0 -0.00000000000E+00 -0.00000000000E+00 -0.10000000000E+04  0.10000000000E+04  0.00000000000E+00 0.  1.
    9000005    2    1    2  501    0 -0.64788308516E+01  0.66598003276E+01 -0.95285765085E+03  0.10062393707E+04  0.32325476037E+03 0.  0.
         13    1    3    3    0    0  0.75298126362E+02 -0.58869633895E+02 -0.73272663249E+02  0.12043390224E+03  0.00000000000E+00 0.  1.
          1    1    3    3  501    0 -0.81776957214E+02  0.65529434222E+02 -0.87958498760E+03  0.88580546843E+03  0.00000000000E+00 0.  1.
         21    1    1    2  502  501  0.64788308516E+01 -0.66598003276E+01 -0.19396209251E+02  0.21506769235E+02  0.00000000000E+00 0. -1.
<mgrwt>
<rscale>  1 0.30000000E+03</rscale>
<asrwt>0</asrwt>
<pdfrwt beam="1">  1        1 0.10089527E+00 0.30000000E+03</pdfrwt>
<pdfrwt beam="2">0</pdfrwt>
<totfact> 0.33783205E+01</totfact>
</mgrwt>
</event>
<event>
 6    1  0.1969531E-004  0.3000000E+03  0.7818608E-02  0.1093470E+00
          1   -1    0    0  502    0  0.00000000000E+00  0.00000000000E+00  0.26644283950E+02  0.26644283950E+02  0.00000000000E+00 0.  1.
         13   -1    0    0    0    0 -0.00000000000E+00 -0.00000000000E+00 -0.10000000000E+04  0.10000000000E+04  0.00000000000E+00 0.  1.
    9000005    2    1    2  501    0 -0.13743844152E+02  0.95087688700E+00 -0.96410710684E+03  0.10100510868E+04  0.30085027354E+03 0.  0.
         13    1    3    3    0    0 -0.14981711738E+03  0.19421411964E+02 -0.64849849832E+03  0.66586234481E+03  0.00000000000E+00 0.  1.
          1    1    3    3  501    0  0.13607327323E+03 -0.18470535077E+02 -0.31560860852E+03  0.34418874201E+03  0.00000000000E+00 0.  1.
         21    1    1    2  502  501  0.13743844152E+02 -0.95087688700E+00 -0.92486092075E+01  0.16593197136E+02  0.00000000000E+00 0.  1.
<mgrwt>
<rscale>  1 0.30000000E+03</rscale>
<asrwt>0</asrwt>
<pdfrwt beam="1">  1        1 0.96888510E-01 0.30000000E+03</pdfrwt>
<pdfrwt beam="2">0</pdfrwt>
<totfact> 0.35837920E+01</totfact>
</mgrwt>
</event>
<event>
 6    1  0.1969531E-004  0.3000000E+03  0.7818608E-02  0.1093470E+00
          1   -1    0    0  502    0  0.00000000000E+00  0.00000000000E+00  0.45194374761E+02  0.45194374761E+02  0.00000000000E+00 0.  1.
         13   -1    0    0    0    0 -0.00000000000E+00 -0.00000000000E+00 -0.10000000000E+04  0.10000000000E+04  0.00000000000E+00 0.  1.
    9000005    2    1    2  501    0  0.18214995718E+02  0.71688088422E+02 -0.87575227587E+03  0.93693357790E+03  0.32470219065E+03 0.  0.
         13    1    3    3    0    0  0.24768679335E+02  0.15720049292E+03 -0.81847484284E+03  0.83380246511E+03  0.00000000000E+00 0.  1.
          3    1    3    3  501    0 -0.65536836176E+01 -0.85512404497E+02 -0.57277433024E+02  0.10313111279E+03  0.00000000000E+00 0.  1.
         21    1    1    2  502  501 -0.18214995718E+02 -0.71688088422E+02 -0.79053349371E+02  0.10826079686E+03  0.00000000000E+00 0.  1.
<mgrwt>
<rscale>  1 0.30000000E+03</rscale>
<asrwt>0</asrwt>
<pdfrwt beam="1">  1        1 0.16434353E+00 0.30000000E+03</pdfrwt>
<pdfrwt beam="2">0</pdfrwt>
<totfact> 0.15230322E+01</totfact>
</mgrwt>
</event>
<event>
 6    1  0.1969531E-004  0.3000000E+03  0.7818608E-02  0.1093470E+00
          1   -1    0    0  502    0  0.00000000000E+00  0.00000000000E+00  0.32757333028E+02  0.32757333028E+02  0.00000000000E+00 0.  1.
         13   -1    0    0    0    0 -0.00000000000E+00 -0.00000000000E+00 -0.10000000000E+04  0.10000000000E+04  0.00000000000E+00 0.  1.
    9000005    2    1    2  501    0  0.62195774516E+01  0.11195666924E+02 -0.96686224499E+03  0.10199444168E+04  0.32449959392E+03 0.  0.
         13    1    3    3    0    0 -0.25999826810E+02  0.11791013387E+02  0.18523790082E+02  0.34031599872E+02  0.00000000000E+00 0.  1.
          1    1    3    3  501    0  0.32219404261E+02 -0.59534646236E+00 -0.98538603508E+03  0.98591281692E+03  0.00000000000E+00 0.  1.
         21    1    1    2  502  501 -0.62195774516E+01 -0.11195666924E+02 -0.38042197928E+00  0.12812916235E+02  0.00000000000E+00 0.  1.
<mgrwt>
<rscale>  1 0.30000000E+03</rscale>
<asrwt>0</asrwt>
<pdfrwt beam="1">  1        1 0.11911783E+00 0.30000000E+03</pdfrwt>
<pdfrwt beam="2">0</pdfrwt>
<totfact> 0.26296910E+01</totfact>
</mgrwt>
</event>
<event>
 6    1  0.1969531E-004  0.3000000E+03  0.7818608E-02  0.1093470E+00
          1   -1    0    0  502    0  0.00000000000E+00  0.00000000000E+00  0.40578831911E+02  0.40578831911E+02  0.00000000000E+00 0.  1.
         13   -1    0    0    0    0 -0.00000000000E+00 -0.00000000000E+00 -0.10000000000E+04  0.10000000000E+04  0.00000000000E+00 0.  1.
    9000005    2    1    2  501    0 -0.16151060898E+02 -0.83694669591E+01 -0.96705528960E+03  0.10208510708E+04  0.32651197675E+03 0.  0.
         13    1    3    3    0    0  0.72789895844E+02 -0.11457484651E+03 -0.20210627560E+03  0.24345987560E+03  0.00000000000E+00 0.  1.
          3    1    3    3  501    0 -0.88940956742E+02  0.10620537955E+03 -0.76494901400E+03  0.77739119525E+03  0.00000000000E+00 0.  1.
         21    1    1    2  502  501  0.16151060898E+02  0.83694669591E+01  0.76341215118E+01  0.19727761063E+02  0.00000000000E+00 0. -1.
<mgrwt>
<rscale>  1 0.30000000E+03</rscale>
<asrwt>0</asrwt>
<pdfrwt beam="1">  1        1 0.14755970E+00 0.30000000E+03</pdfrwt>
<pdfrwt beam="2">0</pdfrwt>
<totfact> 0.18487489E+01</totfact>
</mgrwt>
</event>
<event>
 6    1  0.1969531E-004  0.3000000E+03  0.7818608E-02  0.1093470E+00
          1   -1    0    0  502    0  0.00000000000E+00  0.00000000000E+00  0.31270843991E+02  0.31270843991E+02  0.00000000000E+00 0.  1.
         13   -1    0    0    0    0 -0.00000000000E+00 -0.00000000000E+00 -0.10000000000E+04  0.10000000000E+04  0.00000000000E+00 0.  1.
    9000005    2    1    2  501    0  0.18054477585E+02  0.93981077204E+01 -0.95002997729E+03  0.10036312370E+04  0.32296193824E+03 0.  0.
         13    1    3    3    0    0 -0.22053568156E+02 -0.14840792831E+03 -0.58499093761E+03  0.60392521900E+03  0.00000000000E+00 0.  1.
          1    1    3    3  501    0  0.40108045741E+02  0.15780603603E+03 -0.36503903968E+03  0.39970601800E+03  0.00000000000E+00 0.  1.
         21    1    1    2  502  501 -0.18054477585E+02 -0.93981077204E+01 -0.18699178723E+02  0.27639606989E+02  0.00000000000E+00 0.  1.
<mgrwt>
<rscale>  1 0.30000000E+03</rscale>
<asrwt>0</asrwt>
<pdfrwt beam="1">  1        1 0.11371240E+00 0.30000000E+03</pdfrwt>
<pdfrwt beam="2">0</pdfrwt>
<totfact> 0.28248951E+01</totfact>
</mgrwt>
</event>
<event>
 6    1  0.1969531E-004  0.3000000E+03  0.7818608E-02  0.1093470E+00
          1   -1    0    0  502    0  0.00000000000E+00  0.00000000000E+00  0.42529612732E+02  0.42529612732E+02  0.00000000000E+00 0.  1.
         13   -1    0    0    0    0 -0.00000000000E+00 -0.00000000000E+00 -0.10000000000E+04  0.10000000000E+04  0.00000000000E+00 0.  1.
    9000005    2    1    2  501    0 -0.53268554493E+01  0.16970883531E+02 -0.96287776705E+03  0.10239385925E+04  0.34785091731E+03 0.  0.
         13    1    3    3    0    0  0.47455268758E+02 -0.38597717830E+02 -0.32512690537E+01  0.61256486228E+02  0.00000000000E+00 0.  1.
          1    1    3    3  501    0 -0.52782124207E+02  0.55568601361E+02 -0.95962649800E+03  0.96268210628E+03  0.00000000000E+00 0.  1.
         21    1    1    2  502  501  0.53268554493E+01 -0.16970883531E+02  0.54073797837E+01  0.18591020223E+02  0.00000000000E+00 0.  1.
<mgrwt>
<rscale>  1 0.30000000E+03</rscale>
<asrwt>0</asrwt>
<pdfrwt beam="1">  1        1 0.15465346E+00 0.30000000E+03</pdfrwt>
<pdfrwt beam="2">0</pdfrwt>
<totfact> 0.17018007E+01</totfact>
</mgrwt>
</event>
<event>
 6    1  0.1969531E-004  0.3000000E+03  0.7818608E-02  0.1093470E+00
          3   -1    0    0  502    0  0.00000000000E+00  0.00000000000E+00  0.29960764226E+02  0.29960764226E+02  0.00000000000E+00 0.  1.
         13   -1    0    0    0    0 -0.00000000000E+00 -0.00000000000E+00 -0.10000000000E+04  0.10000000000E+04  0.00000000000E+00 0.  1.
    9000005    2    1    2  501    0  0.21515102006E+01  0.11295805109E+02 -0.95724071751E+03  0.10127553500E+04  0.33050171477E+03 0.  0.
         13    1    3    3    0    0 -0.78755824669E+02  0.12688044671E+03 -0.73122138604E+03  0.74631484180E+03  0.00000000000E+00 0.  1.
          1    1    3    3  501    0  0.80907334870E+02 -0.11558464161E+03 -0.22601933147E+03  0.26644050820E+03  0.00000000000E+00 0.  1.
         21    1    1    2  502  501 -0.21515102006E+01 -0.11295805109E+02 -0.12798518261E+02  0.17205414232E+02  0.00000000000E+00 0.  1.
<mgrwt>
<rscale>  1 0.30000000E+03</rscale>
<asrwt>0</asrwt>
<pdfrwt beam="1">  1        3 0.10894846E+00 0.30000000E+03</pdfrwt>
<pdfrwt beam="2">0</pdfrwt>
<totfact> 0.30979274E+00</totfact>
</mgrwt>
</event>
<event>
 6    1  0.1969531E-004  0.3000000E+03  0.7818608E-02  0.1093470E+00
          1   -1    0    0  502    0  0.00000000000E+00  0.00000000000E+00  0.28283466953E+02  0.28283466953E+02  0.00000000000E+00 0.  1.
         13   -1    0    0    0    0 -0.00000000000E+00 -0.00000000000E+00 -0.10000000000E+04  0.10000000000E+04  0.00000000000E+00 0.  1.
    9000005    2    1    2  501    0  0.90288306973E+01  0.20531120597E+01 -0.95449449220E+03  0.10087301106E+04  0.32617627961E+03 0.  0.
         13    1    3    3    0    0  0.57541977481E+02  0.14780920880E+03 -0.63075836615E+03  0.65039584704E+03  0.00000000000E+00 0.  1.
          1    1    3    3  501    0 -0.48513146784E+02 -0.14575609674E+03 -0.32373612605E+03  0.35833426358E+03  0.00000000000E+00 0.  1.
         21    1    1    2  502  501 -0.90288306973E+01 -0.20531120597E+01 -0.17222040843E+02  0.19553356328E+02  0.00000000000E+00 0.  1.
<mgrwt>
<rscale>  1 0.30000000E+03</rscale>
<asrwt>0</asrwt>
<pdfrwt beam="1">  1        1 0.10284919E+00 0.30000000E+03</pdfrwt>
<pdfrwt beam="2">0</pdfrwt>
<totfact> 0.32843591E+01</totfact>
</mgrwt>
</event>
<event>
 6    1  0.1969531E-004  0.3000000E+03  0.7818608E-02  0.1093470E+00
          1   -1    0    0  502    0  0.00000000000E+00  0.00000000000E+00  0.29107862941E+02  0.29107862941E+02  0.00000000000E+00 0.  1.
         13   -1    0    0    0    0 -0.00000000000E+00 -0.00000000000E+00 -0.10000000000E+04  0.10000000000E+04  0.00000000000E+00 0.  1.
    9000005    2    1    2  501    0  0.10145695211E+02  0.13503699164E+02 -0.90408113367E+03  0.96019490918E+03  0.32299579305E+03 0.  0.
         13    1    3    3    0    0 -0.12842750628E+03 -0.81133576064E+02 -0.50262175134E+03  0.52507609587E+03  0.00000000000E+00 0.  1.
          3    1    3    3  501    0  0.13857320149E+03  0.94637275228E+02 -0.40145938232E+03  0.43511881330E+03  0.00000000000E+00 0.  1.
         21    1    1    2  502  501 -0.10145695211E+02 -0.13503699164E+02 -0.66811003392E+02  0.68912953765E+02  0.00000000000E+00 0. -1.
<mgrwt>
<rscale>  1 0.30000000E+03</rscale>
<asrwt>0</asrwt>
<pdfrwt beam="1">  1        1 0.10584700E+00 0.30000000E+03</pdfrwt>
<pdfrwt beam="2">0</pdfrwt>
<totfact> 0.31474388E+01</totfact>
</mgrwt>
</event>
<event>
 6    1  0.1969531E-004  0.3000000E+03  0.7818608E-02  0.1093470E+00
          1   -1    0    0  502    0  0.00000000000E+00  0.00000000000E+00  0.28313593544E+02  0.28313593544E+02  0.00000000000E+00 0.  1.
         13   -1    0    0    0    0 -0.00000000000E+00 -0.00000000000E+00 -0.10000000000E+04  0.10000000000E+04  0.00000000000E+00 0.  1.
    9000005    2    1    2  501    0 -0.26745783892E+02  0.27796052577E+02 -0.87652601449E+03  0.92563225301E+03  0.29497331445E+03 0.  0.
         13    1    3    3    0    0 -0.12785253575E+03 -0.76620824409E+02 -0.51014401501E+03  0.53147336498E+03  0.00000000000E+00 0.  1.
          3    1    3    3  501    0  0.10110675186E+03  0.10441687699E+03 -0.36638199948E+03  0.39415888803E+03  0.00000000000E+00 0.  1.
         21    1    1    2  502  501  0.26745783892E+02 -0.27796052577E+02 -0.95160391965E+02  0.10268134053E+03  0.00000000000E+00 0.  1.
<mgrwt>
<rscale>  1 0.30000000E+03</rscale>
<asrwt>0</asrwt>
<pdfrwt beam="1">  1        1 0.10295874E+00 0.30000000E+03</pdfrwt>
<pdfrwt beam="2">0</pdfrwt>
<totfact> 0.32792045E+01</totfact>
</mgrwt>
</event>
<event>
 6    1  0.1969531E-004  0.3000000E+03  0.7818608E-02  0.1093470E+00
          1   -1    0    0  502    0  0.00000000000E+00  0.00000000000E+00  0.33394004795E+02  0.33394004795E+02  0.00000000000E+00 0.  1.
         13   -1    0    0    0    0 -0.00000000000E+00 -0.00000000000E+00 -0.10000000000E+04  0.10000000000E+04  0.00000000000E+00 0.  1.
    9000005    2    1    2  501    0 -0.74595778068E+01  0.12346498688E+02 -0.96141157164E+03  0.10180622284E+04  0.33456002378E+03 0.  0.
         13    1    3    3    0    0  0.44647873753E+02 -0.74272269478E+02 -0.89021213784E+03  0.89442017699E+03  0.00000000000E+00 0.  1.
          1    1    3    3  501    0 -0.52107451560E+02  0.86618768166E+02 -0.71199433790E+02  0.12364205142E+03  0.00000000000E+00 0.  1.
         21    1    1    2  502  501  0.74595778068E+01 -0.12346498688E+02 -0.51944235698E+01  0.15331776386E+02  0.00000000000E+00 0.  1.
<mgrwt>
<rscale>  1 0.30000000E+03</rscale>
<asrwt>0</asrwt>
<pdfrwt beam="1">  1        1 0.12143300E+00 0.30000000E+03</pdfrwt>
<pdfrwt beam="2">0</pdfrwt>
<totfact> 0.25516999E+01</totfact>
</mgrwt>
</event>
<event>
 6    1  0.1969531E-004  0.3000000E+03  0.7818608E-02  0.1093470E+00
          1   -1    0    0  502    0  0.00000000000E+00  0.00000000000E+00  0.34961125737E+02  0.34961125737E+02  0.00000000000E+00 0.  1.
         13   -1    0    0    0    0 -0.00000000000E+00 -0.00000000000E+00 -0.10000000000E+04  0.10000000000E+04  0.00000000000E+00 0.  1.
    9000005    2    1    2  501    0  0.26950388489E+01 -0.99225281947E+01 -0.97116807025E+03  0.10229908775E+04  0.32130545422E+03 0.  0.
         13    1    3    3    0    0  0.50500089265E+02  0.25593397396E+02 -0.96088980409E+03  0.96255623036E+03  0.00000000000E+00 0.  1.
          1    1    3    3  501    0 -0.47805050416E+02 -0.35515925591E+02 -0.10278266163E+02  0.60434647109E+02  0.00000000000E+00 0.  1.
         21    1    1    2  502  501 -0.26950388489E+01  0.99225281947E+01  0.61291959865E+01  0.11970248269E+02  0.00000000000E+00 0.  1.
<mgrwt>
<rscale>  1 0.30000000E+03</rscale>
<asrwt>0</asrwt>
<pdfrwt beam="1">  1        1 0.12713163E+00 0.30000000E+03</pdfrwt>
<pdfrwt beam="2">0</pdfrwt>
<totfact> 0.23722079E+01</totfact>
</mgrwt>
</event>
<event>
 6    1  0.1969531E-004  0.3000000E+03  0.7818608E-02  0.1093470E+00
          1   -1    0    0  502    0  0.00000000000E+00  0.00000000000E+00  0.41976577692E+02  0.41976577692E+02  0.00000000000E+00 0.  1.
         13   -1    0    0    0    0 -0.00000000000E+00 -0.00000000000E+00 -0.10000000000E+04  0.10000000000E+04  0.00000000000E+00 0.  1.
    9000005    2    1    2  501    0 -0.12960164994E+02  0.56924182985E+01 -0.96703933209E+03  0.10251939637E+04  0.34008414243E+03 0.  0.
         13    1    3    3    0    0  0.13689185861E+03 -0.85422932560E+02 -0.53853676293E+03  0.56219062905E+03  0.00000000000E+00 0.  1.
          1    1    3    3  501    0 -0.14985202360E+03  0.91115350859E+02 -0.42850256916E+03  0.46300333467E+03  0.00000000000E+00 0.  1.
         21    1    1    2  502  501  0.12960164994E+02 -0.56924182985E+01  0.90159097799E+01  0.16782613977E+02  0.00000000000E+00 0.  1.
<mgrwt>
<rscale>  1 0.30000000E+03</rscale>
<asrwt>0</asrwt>
<pdfrwt beam="1">  1        1 0.15264242E+00 0.30000000E+03</pdfrwt>
<pdfrwt beam="2">0</pdfrwt>
<totfact> 0.17419580E+01</totfact>
</mgrwt>
</event>
<event>
 6    1  0.1969531E-004  0.3000000E+03  0.7818608E-02  0.1093470E+00
          1   -1    0    0  502    0  0.00000000000E+00  0.00000000000E+00  0.28361377106E+02  0.28361377106E+02  0.00000000000E+00 0.  1.
         13   -1    0    0    0    0 -0.00000000000E+00 -0.00000000000E+00 -0.10000000000E+04  0.10000000000E+04  0.00000000000E+00 0.  1.
    9000005    2    1    2  501    0 -0.25085014488E+02 -0.32021402085E+02 -0.94781205973E+03  0.98121974735E+03  0.25057905717E+03 0.  0.
         13    1    3    3    0    0 -0.98491524243E+02  0.10251739885E+01 -0.15057790045E+03  0.17993147428E+03  0.00000000000E+00 0.  1.
          1    1    3    3  501    0  0.73406509756E+02 -0.33046576074E+02 -0.79723415927E+03  0.80128827308E+03  0.00000000000E+00 0.  1.
         21    1    1    2  502  501  0.25085014488E+02  0.32021402085E+02 -0.23826563168E+02  0.47141629753E+02  0.00000000000E+00 0. -1.
<mgrwt>
<rscale>  1 0.30000000E+03</rscale>
<asrwt>0</asrwt>
<pdfrwt beam="1">  1        1 0.10313250E+00 0.30000000E+03</pdfrwt>
<pdfrwt beam="2">0</pdfrwt>
<totfact> 0.32710529E+01</totfact>
</mgrwt>
</event>
<event>
 6    1  0.1969531E-004  0.3000000E+03  0.7818608E-02  0.1093470E+00
          1   -1    0    0  502    0  0.00000000000E+00  0.00000000000E+00  0.31397520700E+02  0.31397520700E+02  0.00000000000E+00 0.  1.
         13   -1    0    0    0    0 -0.00000000000E+00 -0.00000000000E+00 -0.10000000000E+04  0.10000000000E+04  0.00000000000E+00 0.  1.
    9000005    2    1    2  501    0 -0.14217836281E+01  0.11754259289E+02 -0.96181851877E+03  0.10177517814E+04  0.33254118760E+03 0.  0.
         13    1    3    3    0    0  0.96085167656E+02 -0.12499054100E+03 -0.57121486212E+03  0.59257186356E+03  0.00000000000E+00 0.  1.
          1    1    3    3  501    0 -0.97506951284E+02  0.13674480029E+03 -0.39060365665E+03  0.42517991785E+03  0.00000000000E+00 0.  1.
         21    1    1    2  502  501  0.14217836281E+01 -0.11754259289E+02 -0.67839605334E+01  0.13645739285E+02  0.00000000000E+00 0. -1.
<mgrwt>
<rscale>  1 0.30000000E+03</rscale>
<asrwt>0</asrwt>
<pdfrwt beam="1">  1        1 0.11417304E+00 0.30000000E+03</pdfrwt>
<pdfrwt beam="2">0</pdfrwt>
<totfact> 0.28074868E+01</totfact>
</mgrwt>
</event>
<event>
 6    1  0.1969531E-004  0.3000000E+03  0.7818608E-02  0.1093470E+00
          1   -1    0    0  502    0  0.00000000000E+00  0.00000000000E+00  0.45968790540E+02  0.45968790540E+02  0.00000000000E+00 0.  1.
         13   -1    0    0    0    0 -0.00000000000E+00 -0.00000000000E+00 -0.10000000000E+04  0.10000000000E+04  0.00000000000E+00 0.  1.
    9000005    2    1    2  501    0 -0.10226920299E+02  0.12352295832E+02 -0.96834559418E+03  0.10244729602E+04  0.33405761084E+03 0.  0.
         13    1    3    3    0    0 -0.68908629770E+02  0.10814431326E+03 -0.85616518991E+03  0.86571497859E+03  0.00000000000E+00 0.  1.
          1    1    3    3  501    0  0.58681709471E+02 -0.95792017432E+02 -0.11218040427E+03  0.15875798163E+03  0.00000000000E+00 0.  1.
         21    1    1    2  502  501  0.10226920299E+02 -0.12352295832E+02  0.14314384717E+02  0.21495830316E+02  0.00000000000E+00 0.  1.
<mgrwt>
<rscale>  1 0.30000000E+03</rscale>
<asrwt>0</asrwt>
<pdfrwt beam="1">  1        1 0.16715959E+00 0.30000000E+03</pdfrwt>
<pdfrwt beam="2">0</pdfrwt>
<totfact> 0.14752232E+01</totfact>
</mgrwt>
</event>
<event>
 6    1  0.1969531E-004  0.3000000E+03  0.7818608E-02  0.1093470E+00
          1   -1    0    0  502    0  0.00000000000E+00  0.00000000000E+00  0.28097544718E+02  0.28097544718E+02  0.00000000000E+00 0.  1.
         13   -1    0    0    0    0 -0.00000000000E+00 -0.00000000000E+00 -0.10000000000E+04  0.10000000000E+04  0.00000000000E+00 0.  1.
    9000005    2    1    2  501    0 -0.99445658843E+01  0.62657909286E+00 -0.95935040074E+03  0.10120712830E+04  0.32223563342E+03 0.  0.
         13    1    3    3    0    0 -0.10633582450E+03  0.52749752804E+02 -0.13210466528E+03  0.17759923024E+03  0.00000000000E+00 0.  1.
          3    1    3    3  501    0  0.96391258614E+02 -0.52123173711E+02 -0.82724573546E+03  0.83447205274E+03  0.00000000000E+00 0.  1.
         21    1    1    2  502  501  0.99445658843E+01 -0.62657909286E+00 -0.12552054541E+02  0.16026261734E+02  0.00000000000E+00 0. -1.
<mgrwt>
<rscale>  1 0.30000000E+03</rscale>
<asrwt>0</asrwt>
<pdfrwt beam="1">  1        1 0.10217311E+00 0.30000000E+03</pdfrwt>
<pdfrwt beam="2">0</pdfrwt>
<totfact> 0.33164333E+01</totfact>
</mgrwt>
</event>
<event>
 6    1  0.1969531E-004  0.3000000E+03  0.7818608E-02  0.1093470E+00
          1   -1    0    0  502    0  0.00000000000E+00  0.00000000000E+00  0.32222528108E+02  0.32222528108E+02  0.00000000000E+00 0.  1.
         13   -1    0    0    0    0 -0.00000000000E+00 -0.00000000000E+00 -0.10000000000E+04  0.10000000000E+04  0.00000000000E+00 0.  1.
    9000005    2    1    2  501    0  0.14375788835E+02  0.14619731503E+02 -0.93876184123E+03  0.99669357264E+03  0.33422130893E+03 0.  0.
         13    1    3    3    0    0 -0.38681997035E+02  0.77936477387E+02 -0.90214923292E+03  0.90633527453E+03  0.00000000000E+00 0.  1.
          1    1    3    3  501    0  0.53057785870E+02 -0.63316745884E+02 -0.36612608318E+02  0.90358298117E+02  0.00000000000E+00 0.  1.
         21    1    1    2  502  501 -0.14375788835E+02 -0.14619731503E+02 -0.29015630658E+02  0.35528955464E+02  0.00000000000E+00 0.  1.
<mgrwt>
<rscale>  1 0.30000000E+03</rscale>
<asrwt>0</asrwt>
<pdfrwt beam="1">  1        1 0.11717308E+00 0.30000000E+03</pdfrwt>
<pdfrwt beam="2">0</pdfrwt>
<totfact> 0.26977099E+01</totfact>
</mgrwt>
</event>
<event>
 6    1  0.1969531E-004  0.3000000E+03  0.7818608E-02  0.1093470E+00
          1   -1    0    0  502    0  0.00000000000E+00  0.00000000000E+00  0.45536973115E+02  0.45536973115E+02  0.00000000000E+00 0.  1.
         13   -1    0    0    0    0 -0.00000000000E+00 -0.00000000000E+00 -0.10000000000E+04  0.10000000000E+04  0.00000000000E+00 0.  1.
    9000005    2    1    2  501    0  0.13924930309E+02 -0.70259027267E+01 -0.97247978916E+03  0.10217069350E+04  0.31292947087E+03 0.  0.
         13    1    3    3    0    0 -0.54361008133E+02 -0.13683353993E+03 -0.66406350240E+03  0.68019032048E+03  0.00000000000E+00 0.  1.
          1    1    3    3  501    0  0.68285938442E+02  0.12980763720E+03 -0.30841628676E+03  0.34151661453E+03  0.00000000000E+00 0.  1.
         21    1    1    2  502  501 -0.13924930309E+02  0.70259027267E+01  0.18016762272E+02  0.23830038103E+02  0.00000000000E+00 0.  1.
<mgrwt>
<rscale>  1 0.30000000E+03</rscale>
<asrwt>0</asrwt>
<pdfrwt beam="1">  1        1 0.16558934E+00 0.30000000E+03</pdfrwt>
<pdfrwt beam="2">0</pdfrwt>
<totfact> 0.15016669E+01</totfact>
</mgrwt>
</event>
<event>
 6    1  0.1969531E-004  0.3000000E+03  0.7818608E-02  0.1093470E+00
          1   -1    0    0  502    0  0.00000000000E+00  0.00000000000E+00  0.67508704551E+02  0.67508704551E+02  0.00000000000E+00 0.  1.
         13   -1    0    0    0    0 -0.00000000000E+00 -0.00000000000E+00 -0.10000000000E+04  0.10000000000E+04  0.00000000000E+00 0.  1.
    9000005    2    1    2  501    0 -0.50266968492E+02  0.15353134489E+03 -0.64586044456E+03  0.73848608121E+03  0.31957367901E+03 0.  0.
         13    1    3    3    0    0 -0.38505089662E+02  0.46761241255E+02 -0.62639935349E+03  0.62932138504E+03  0.00000000000E+00 0.  1.
          1    1    3    3  501    0 -0.11761878830E+02  0.10677010364E+03 -0.19461091062E+02  0.10916469617E+03  0.00000000000E+00 0.  1.
         21    1    1    2  502  501  0.50266968492E+02 -0.15353134489E+03 -0.28663085089E+03  0.32902262334E+03  0.00000000000E+00 0.  1.
<mgrwt>
<rscale>  1 0.30000000E+03</rscale>
<asrwt>0</asrwt>
<pdfrwt beam="1">  1        1 0.24548672E+00 0.30000000E+03</pdfrwt>
<pdfrwt beam="2">0</pdfrwt>
<totfact> 0.62622526E+00</totfact>
</mgrwt>
</event>
<event>
 6    1  0.1969531E-004  0.3000000E+03  0.7818608E-02  0.1093470E+00
          1   -1    0    0  502    0  0.00000000000E+00  0.00000000000E+00  0.34917183394E+02  0.34917183394E+02  0.00000000000E+00 0.  1.
         13   -1    0    0    0    0 -0.00000000000E+00 -0.00000000000E+00 -0.10000000000E+04  0.10000000000E+04  0.00000000000E+00 0.  1.
    9000005    2    1    2  501    0  0.77085125985E+01 -0.13631736540E+02 -0.97709600270E+03  0.10151798571E+04  0.27500599711E+03 0.  0.
         13    1    3    3    0    0  0.99302443575E+02 -0.42779255877E+02 -0.16408639920E+03  0.19650798059E+03  0.00000000000E+00 0.  1.
          3    1    3    3  501    0 -0.91593930976E+02  0.29147519337E+02 -0.81300960350E+03  0.81867187655E+03  0.00000000000E+00 0.  1.
         21    1    1    2  502  501 -0.77085125985E+01  0.13631736540E+02  0.12013186091E+02  0.19737326253E+02  0.00000000000E+00 0.  1.
<mgrwt>
<rscale>  1 0.30000000E+03</rscale>
<asrwt>0</asrwt>
<pdfrwt beam="1">  1        1 0.12697184E+00 0.30000000E+03</pdfrwt>
<pdfrwt beam="2">0</pdfrwt>
<totfact> 0.23770166E+01</totfact>
</mgrwt>
</event>
<event>
 6    1  0.1969531E-004  0.3000000E+03  0.7818608E-02  0.1093470E+00
          1   -1    0    0  502    0  0.00000000000E+00  0.00000000000E+00  0.39759353416E+02  0.39759353416E+02  0.00000000000E+00 0.  1.
         13   -1    0    0    0    0 -0.00000000000E+00 -0.00000000000E+00 -0.10000000000E+04  0.10000000000E+04  0.00000000000E+00 0.  1.
    9000005    2    1    2  501    0  0.40470229000E+02 -0.68478784603E+02 -0.81286361231E+03  0.87228644932E+03  0.30628289875E+03 0.  0.
         13    1    3    3    0    0  0.95245526165E+02 -0.48935924160E+01 -0.55617058008E+02  0.11040341771E+03  0.00000000000E+00 0.  1.
          3    1    3    3  501    0 -0.54775297164E+02 -0.63585192187E+02 -0.75724655430E+03  0.76188303160E+03  0.00000000000E+00 0.  1.
         21    1    1    2  502  501 -0.40470229000E+02  0.68478784603E+02 -0.14737703427E+03  0.16747290410E+03  0.00000000000E+00 0.  1.
<mgrwt>
<rscale>  1 0.30000000E+03</rscale>
<asrwt>0</asrwt>
<pdfrwt beam="1">  1        1 0.14457977E+00 0.30000000E+03</pdfrwt>
<pdfrwt beam="2">0</pdfrwt>
<totfact> 0.19151650E+01</totfact>
</mgrwt>
</event>
<event>
 6    1  0.1969531E-004  0.3000000E+03  0.7818608E-02  0.1093470E+00
          1   -1    0    0  502    0  0.00000000000E+00  0.00000000000E+00  0.34816703497E+02  0.34816703497E+02  0.00000000000E+00 0.  1.
         13   -1    0    0    0    0 -0.00000000000E+00 -0.00000000000E+00 -0.10000000000E+04  0.10000000000E+04  0.00000000000E+00 0.  1.
    9000005    2    1    2  501    0  0.58294730627E+01 -0.96051789177E+01 -0.96553173628E+03  0.10235755457E+04  0.33960141606E+03 0.  0.
         13    1    3    3    0    0 -0.14829928653E+03 -0.76033386956E+02 -0.57114124479E+03  0.59495888582E+03  0.00000000000E+00 0.  1.
          3    1    3    3  501    0  0.15412875959E+03  0.66428208038E+02 -0.39439049149E+03  0.42861665989E+03  0.00000000000E+00 0.  1.
         21    1    1    2  502  501 -0.58294730627E+01  0.96051789177E+01  0.34843977344E+00  0.11241157792E+02  0.00000000000E+00 0.  1.
<mgrwt>
<rscale>  1 0.30000000E+03</rscale>
<asrwt>0</asrwt>
<pdfrwt beam="1">  1        1 0.12660646E+00 0.30000000E+03</pdfrwt>
<pdfrwt beam="2">0</pdfrwt>
<totfact> 0.23880594E+01</totfact>
</mgrwt>
</event>
<event>
 6    1  0.1969531E-004  0.3000000E+03  0.7818608E-02  0.1093470E+00
          1   -1    0    0  502    0  0.00000000000E+00  0.00000000000E+00  0.23601744621E+02  0.23601744621E+02  0.00000000000E+00 0.  1.
         13   -1    0    0    0    0 -0.00000000000E+00 -0.00000000000E+00 -0.10000000000E+04  0.10000000000E+04  0.00000000000E+00 0.  1.
    9000005    2    1    2  501    0 -0.14342510181E+02 -0.17740226878E+02 -0.93919650977E+03  0.97996239169E+03  0.27877550450E+03 0.  0.
         13    1    3    3    0    0 -0.12043966668E+02 -0.13547469451E+03 -0.29176203337E+03  0.32190609516E+03  0.00000000000E+00 0.  1.
          3    1    3    3  501    0 -0.22985435138E+01  0.11773446763E+03 -0.64743447639E+03  0.65805629652E+03  0.00000000000E+00 0.  1.
         21    1    1    2  502  501  0.14342510181E+02  0.17740226878E+02 -0.37201745611E+02  0.43639352934E+02  0.00000000000E+00 0.  1.
<mgrwt>
<rscale>  1 0.30000000E+03</rscale>
<asrwt>0</asrwt>
<pdfrwt beam="1">  1        1 0.85824707E-01 0.30000000E+03</pdfrwt>
<pdfrwt beam="2">0</pdfrwt>
<totfact> 0.42589516E+01</totfact>
</mgrwt>
</event>
<event>
 6    1  0.1969531E-004  0.3000000E+03  0.7818608E-02  0.1093470E+00
          1   -1    0    0  502    0  0.00000000000E+00  0.00000000000E+00  0.35161634023E+02  0.35161634023E+02  0.00000000000E+00 0.  1.
         13   -1    0    0    0    0 -0.00000000000E+00 -0.00000000000E+00 -0.10000000000E+04  0.10000000000E+04  0.00000000000E+00 0.  1.
    9000005    2    1    2  501    0 -0.13349016247E+02  0.10658716314E+01 -0.96904060571E+03  0.10211262809E+04  0.32168284662E+03 0.  0.
         13    1    3    3    0    0  0.86765828235E+02  0.12772951321E+03 -0.57299816097E+03  0.59343915440E+03  0.00000000000E+00 0.  1.
          3    1    3    3  501    0 -0.10011484448E+03 -0.12666364158E+03 -0.39604244474E+03  0.42768712655E+03  0.00000000000E+00 0.  1.
         21    1    1    2  502  501  0.13349016247E+02 -0.10658716314E+01  0.42022397351E+01  0.14035353073E+02  0.00000000000E+00 0.  1.
<mgrwt>
<rscale>  1 0.30000000E+03</rscale>
<asrwt>0</asrwt>
<pdfrwt beam="1">  1        1 0.12786076E+00 0.30000000E+03</pdfrwt>
<pdfrwt beam="2">0</pdfrwt>
<totfact> 0.23504232E+01</totfact>
</mgrwt>
</event>
<event>
 6    1  0.1969531E-004  0.3000000E+03  0.7818608E-02  0.1093470E+00
          1   -1    0    0  502    0  0.00000000000E+00  0.00000000000E+00  0.28681621534E+02  0.28681621534E+02  0.00000000000E+00 0.  1.
         13   -1    0    0    0    0 -0.00000000000E+00 -0.00000000000E+00 -0.10000000000E+04  0.10000000000E+04  0.00000000000E+00 0.  1.
    9000005    2    1    2  501    0  0.15177715905E+01  0.10009319451E+02 -0.95597661763E+03  0.10103006604E+04  0.32667053869E+03 0.  0.
         13    1    3    3    0    0 -0.53719634312E+02 -0.93565325240E+02 -0.83424577800E+03  0.84119337094E+03  0.00000000000E+00 0.  1.
          1    1    3    3  501    0  0.55237405903E+02  0.10357464469E+03 -0.12173083963E+03  0.16910728947E+03  0.00000000000E+00 0.  1.
         21    1    1    2  502  501 -0.15177715905E+01 -0.10009319451E+02 -0.15341760833E+02  0.18380961127E+02  0.00000000000E+00 0.  1.
<mgrwt>
<rscale>  1 0.30000000E+03</rscale>
<asrwt>0</asrwt>
<pdfrwt beam="1">  1        1 0.10429703E+00 0.30000000E+03</pdfrwt>
<pdfrwt beam="2">0</pdfrwt>
<totfact> 0.32171750E+01</totfact>
</mgrwt>
</event>
<event>
 6    1  0.1969531E-004  0.3000000E+03  0.7818608E-02  0.1093470E+00
          1   -1    0    0  502    0  0.00000000000E+00  0.00000000000E+00  0.35683999986E+02  0.35683999986E+02  0.00000000000E+00 0.  1.
         13   -1    0    0    0    0 -0.00000000000E+00 -0.00000000000E+00 -0.10000000000E+04  0.10000000000E+04  0.00000000000E+00 0.  1.
    9000005    2    1    2  501    0 -0.56184480398E+01  0.12684856004E+02 -0.96484812718E+03  0.10218003517E+04  0.33608269473E+03 0.  0.
         13    1    3    3    0    0 -0.81775870349E+02 -0.30714736962E+02 -0.91850238190E+03  0.92264690624E+03  0.00000000000E+00 0.  1.
          3    1    3    3  501    0  0.76157422309E+02  0.43399592966E+02 -0.46345745277E+02  0.99153445465E+02  0.00000000000E+00 0.  1.
         21    1    1    2  502  501  0.56184480398E+01 -0.12684856004E+02  0.53212716468E+00  0.13883648279E+02  0.00000000000E+00 0.  1.
<mgrwt>
<rscale>  1 0.30000000E+03</rscale>
<asrwt>0</asrwt>
<pdfrwt beam="1">  1        1 0.12976027E+00 0.30000000E+03</pdfrwt>
<pdfrwt beam="2">0</pdfrwt>
<totfact> 0.22948679E+01</totfact>
</mgrwt>
</event>
<event>
 6    1  0.1969531E-004  0.3000000E+03  0.7818608E-02  0.1093470E+00
          1   -1    0    0  502    0  0.00000000000E+00  0.00000000000E+00  0.32583926071E+02  0.32583926071E+02  0.00000000000E+00 0.  1.
         13   -1    0    0    0    0 -0.00000000000E+00 -0.00000000000E+00 -0.10000000000E+04  0.10000000000E+04  0.00000000000E+00 0.  1.
    9000005    2    1    2  501    0 -0.10277513144E+02 -0.13954674195E+01 -0.96838258109E+03  0.10221671731E+04  0.32703720255E+03 0.  0.
         13    1    3    3    0    0 -0.10879939439E+03  0.12308661612E+03 -0.57358948258E+03  0.59665108548E+03  0.00000000000E+00 0.  1.
          3    1    3    3  501    0  0.98521881247E+02 -0.12448208354E+03 -0.39479309852E+03  0.42551608765E+03  0.00000000000E+00 0.  1.
         21    1    1    2  502  501  0.10277513144E+02  0.13954674195E+01  0.96650716517E+00  0.10416752942E+02  0.00000000000E+00 0.  1.
<mgrwt>
<rscale>  1 0.30000000E+03</rscale>
<asrwt>0</asrwt>
<pdfrwt beam="1">  1        1 0.11848725E+00 0.30000000E+03</pdfrwt>
<pdfrwt beam="2">0</pdfrwt>
<totfact> 0.26514872E+01</totfact>
</mgrwt>
</event>
<event>
 6    1  0.1969531E-004  0.3000000E+03  0.7818608E-02  0.1093470E+00
          3   -1    0    0  502    0  0.00000000000E+00  0.00000000000E+00  0.31332993698E+02  0.31332993698E+02  0.00000000000E+00 0.  1.
         13   -1    0    0    0    0 -0.00000000000E+00 -0.00000000000E+00 -0.10000000000E+04  0.10000000000E+04  0.00000000000E+00 0.  1.
    9000005    2    1    2  501    0 -0.66756417496E+01 -0.10182277974E+02 -0.96193618434E+03  0.10174208788E+04  0.33117333655E+03 0.  0.
         13    1    3    3    0    0 -0.13100964125E+03  0.97291516622E+02 -0.55678620825E+03  0.58020690017E+03  0.00000000000E+00 0.  1.
          1    1    3    3  501    0  0.12433399950E+03 -0.10747379460E+03 -0.40514997609E+03  0.43721397860E+03  0.00000000000E+00 0.  1.
         21    1    1    2  502  501  0.66756417496E+01  0.10182277974E+02 -0.67308219638E+01  0.13912114930E+02  0.00000000000E+00 0.  1.
<mgrwt>
<rscale>  1 0.30000000E+03</rscale>
<asrwt>0</asrwt>
<pdfrwt beam="1">  1        3 0.11393840E+00 0.30000000E+03</pdfrwt>
<pdfrwt beam="2">0</pdfrwt>
<totfact> 0.27170852E+00</totfact>
</mgrwt>
</event>
<event>
 6    1  0.1969531E-004  0.3000000E+03  0.7818608E-02  0.1093470E+00
          1   -1    0    0  502    0  0.00000000000E+00  0.00000000000E+00  0.48870695317E+02  0.48870695317E+02  0.00000000000E+00 0.  1.
         13   -1    0    0    0    0 -0.00000000000E+00 -0.00000000000E+00 -0.10000000000E+04  0.10000000000E+04  0.00000000000E+00 0.  1.
    9000005    2    1    2  501    0 -0.17872790976E+02 -0.63933359073E+02 -0.90341784871E+03  0.96711927887E+03  0.33874618689E+03 0.  0.
         13    1    3    3    0    0  0.15081378008E+03 -0.19650973994E+02 -0.58075684041E+03  0.60034112363E+03  0.00000000000E+00 0.  1.
          3    1    3    3  501    0 -0.16868657106E+03 -0.44282385079E+02 -0.32266100830E+03  0.36677815524E+03  0.00000000000E+00 0.  1.
         21    1    1    2  502  501  0.17872790976E+02  0.63933359073E+02 -0.47711455971E+02  0.81751416444E+02  0.00000000000E+00 0. -1.
<mgrwt>
<rscale>  1 0.30000000E+03</rscale>
<asrwt>0</asrwt>
<pdfrwt beam="1">  1        1 0.17771199E+00 0.30000000E+03</pdfrwt>
<pdfrwt beam="2">0</pdfrwt>
<totfact> 0.13104543E+01</totfact>
</mgrwt>
</event>
<event>
 6    1  0.1969531E-004  0.3000000E+03  0.7818608E-02  0.1093470E+00
          1   -1    0    0  502    0  0.00000000000E+00  0.00000000000E+00  0.35201649186E+02  0.35201649186E+02  0.00000000000E+00 0.  1.
         13   -1    0    0    0    0 -0.00000000000E+00 -0.00000000000E+00 -0.10000000000E+04  0.10000000000E+04  0.00000000000E+00 0.  1.
    9000005    2    1    2  501    0  0.11002553470E+00  0.42174651291E+02 -0.89363208867E+03  0.95247710516E+03  0.32688776764E+03 0.  0.
         13    1    3    3    0    0 -0.14984463733E+03 -0.38666672726E+02 -0.34772761900E+03  0.38060875440E+03  0.00000000000E+00 0.  1.
          1    1    3    3  501    0  0.14995466286E+03  0.80841324018E+02 -0.54590446968E+03  0.57186835076E+03  0.00000000000E+00 0.  1.
         21    1    1    2  502  501 -0.11002553470E+00 -0.42174651291E+02 -0.71166262141E+02  0.82724544026E+02  0.00000000000E+00 0. -1.
<mgrwt>
<rscale>  1 0.30000000E+03</rscale>
<asrwt>0</asrwt>
<pdfrwt beam="1">  1        1 0.12800627E+00 0.30000000E+03</pdfrwt>
<pdfrwt beam="2">0</pdfrwt>
<totfact> 0.23461065E+01</totfact>
</mgrwt>
</event>
<event>
 6    1  0.1969531E-004  0.3000000E+03  0.7818608E-02  0.1093470E+00
          3   -1    0    0  502    0  0.00000000000E+00  0.00000000000E+00  0.27843469542E+02  0.27843469542E+02  0.00000000000E+00 0.  1.
         13   -1    0    0    0    0 -0.00000000000E+00 -0.00000000000E+00 -0.10000000000E+04  0.10000000000E+04  0.00000000000E+00 0.  1.
    9000005    2    1    2  501    0  0.95036679802E+01 -0.69848801338E-01 -0.95791161477E+03  0.10107191533E+04  0.32228592980E+03 0.  0.
         13    1    3    3    0    0  0.13052686886E+03  0.65225563457E+02 -0.73076032263E+03  0.74518607525E+03  0.00000000000E+00 0.  1.
          3    1    3    3  501    0 -0.12102320088E+03 -0.65295412258E+02 -0.22715129214E+03  0.26553307804E+03  0.00000000000E+00 0.  1.
         21    1    1    2  502  501 -0.95036679802E+01  0.69848801338E-01 -0.14244915692E+02  0.17124316249E+02  0.00000000000E+00 0.  1.
<mgrwt>
<rscale>  1 0.30000000E+03</rscale>
<asrwt>0</asrwt>
<pdfrwt beam="1">  1        3 0.10124919E+00 0.30000000E+03</pdfrwt>
<pdfrwt beam="2">0</pdfrwt>
<totfact> 0.37907775E+00</totfact>
</mgrwt>
</event>
<event>
 6    1  0.1969531E-004  0.3000000E+03  0.7818608E-02  0.1093470E+00
          1   -1    0    0  502    0  0.00000000000E+00  0.00000000000E+00  0.29393123871E+02  0.29393123871E+02  0.00000000000E+00 0.  1.
         13   -1    0    0    0    0 -0.00000000000E+00 -0.00000000000E+00 -0.10000000000E+04  0.10000000000E+04  0.00000000000E+00 0.  1.
    9000005    2    1    2  501    0  0.47178296965E+01  0.29687062348E+02 -0.94804705898E+03  0.99180955116E+03  0.28980921336E+03 0.  0.
         13    1    3    3    0    0 -0.29180455830E+02  0.15444717536E+03 -0.60880307615E+03  0.62876594573E+03  0.00000000000E+00 0.  1.
          1    1    3    3  501    0  0.33898285527E+02 -0.12476011301E+03 -0.33924398282E+03  0.36304360543E+03  0.00000000000E+00 0.  1.
         21    1    1    2  502  501 -0.47178296965E+01 -0.29687062348E+02 -0.22559817154E+02  0.37583572714E+02  0.00000000000E+00 0. -1.
<mgrwt>
<rscale>  1 0.30000000E+03</rscale>
<asrwt>0</asrwt>
<pdfrwt beam="1">  1        1 0.10688431E+00 0.30000000E+03</pdfrwt>
<pdfrwt beam="2">0</pdfrwt>
<totfact> 0.31019806E+01</totfact>
</mgrwt>
</event>
<event>
 6    1  0.1969531E-004  0.3000000E+03  0.7818608E-02  0.1093470E+00
          1   -1    0    0  502    0  0.00000000000E+00  0.00000000000E+00  0.28856518213E+02  0.28856518213E+02  0.00000000000E+00 0.  1.
         13   -1    0    0    0    0 -0.00000000000E+00 -0.00000000000E+00 -0.10000000000E+04  0.10000000000E+04  0.00000000000E+00 0.  1.
    9000005    2    1    2  501    0 -0.10884405887E+02  0.18654391342E+01 -0.92507827486E+03  0.98148613249E+03  0.32775488325E+03 0.  0.
         13    1    3    3    0    0  0.17918029634E+02  0.34029569226E+02 -0.93612926705E+03  0.93691892499E+03  0.00000000000E+00 0.  1.
          3    1    3    3  501    0 -0.28802435521E+02 -0.32164130092E+02  0.11050992187E+02  0.44567207505E+02  0.00000000000E+00 0.  1.
         21    1    1    2  502  501  0.10884405887E+02 -0.18654391342E+01 -0.46065206922E+02  0.47370385722E+02  0.00000000000E+00 0. -1.
<mgrwt>
<rscale>  1 0.30000000E+03</rscale>
<asrwt>0</asrwt>
<pdfrwt beam="1">  1        1 0.10493301E+00 0.30000000E+03</pdfrwt>
<pdfrwt beam="2">0</pdfrwt>
<totfact> 0.31882928E+01</totfact>
</mgrwt>
</event>
<event>
 6    1  0.1969531E-004  0.3000000E+03  0.7818608E-02  0.1093470E+00
          1   -1    0    0  502    0  0.00000000000E+00  0.00000000000E+00  0.31822570522E+02  0.31822570522E+02  0.00000000000E+00 0.  1.
         13   -1    0    0    0    0 -0.00000000000E+00 -0.00000000000E+00 -0.10000000000E+04  0.10000000000E+04  0.00000000000E+00 0.  1.
    9000005    2    1    2  501    0  0.18468750077E+02  0.74576195585E+01 -0.95188517743E+03  0.10060903282E+04  0.32517018104E+03 0.  0.
         13    1    3    3    0    0  0.50878235348E+02  0.14702869056E+03 -0.69248776526E+03  0.70975019247E+03  0.00000000000E+00 0.  1.
          3    1    3    3  501    0 -0.32409485272E+02 -0.13957107100E+03 -0.25939741217E+03  0.29634013572E+03  0.00000000000E+00 0.  1.
         21    1    1    2  502  501 -0.18468750077E+02 -0.74576195585E+01 -0.16292252047E+02  0.25732242336E+02  0.00000000000E+00 0.  1.
<mgrwt>
<rscale>  1 0.30000000E+03</rscale>
<asrwt>0</asrwt>
<pdfrwt beam="1">  1        1 0.11571868E+00 0.30000000E+03</pdfrwt>
<pdfrwt beam="2">0</pdfrwt>
<totfact> 0.27501669E+01</totfact>
</mgrwt>
</event>
<event>
 6    1  0.1969531E-004  0.3000000E+03  0.7818608E-02  0.1093470E+00
          1   -1    0    0  502    0  0.00000000000E+00  0.00000000000E+00  0.44557605979E+02  0.44557605979E+02  0.00000000000E+00 0.  1.
         13   -1    0    0    0    0 -0.00000000000E+00 -0.00000000000E+00 -0.10000000000E+04  0.10000000000E+04  0.00000000000E+00 0.  1.
    9000005    2    1    2  501    0  0.87110446664E+02 -0.19437782089E+01 -0.74137144002E+03  0.81343343688E+03  0.32318777201E+03 0.  0.
         13    1    3    3    0    0  0.20380663973E+03  0.44348921664E+02 -0.48621499186E+03  0.52906426033E+03  0.00000000000E+00 0.  1.
          3    1    3    3  501    0 -0.11669619306E+03 -0.46292699873E+02 -0.25515644816E+03  0.28436917656E+03  0.00000000000E+00 0.  1.
         21    1    1    2  502  501 -0.87110446664E+02  0.19437782089E+01 -0.21407095400E+03  0.23112416910E+03  0.00000000000E+00 0.  1.
<mgrwt>
<rscale>  1 0.30000000E+03</rscale>
<asrwt>0</asrwt>
<pdfrwt beam="1">  1        1 0.16202800E+00 0.30000000E+03</pdfrwt>
<pdfrwt beam="2">0</pdfrwt>
<totfact> 0.15636760E+01</totfact>
</mgrwt>
</event>
<event>
 6    1  0.1969531E-004  0.3000000E+03  0.7818608E-02  0.1093470E+00
          1   -1    0    0  502    0  0.00000000000E+00  0.00000000000E+00  0.29521467345E+02  0.29521467345E+02  0.00000000000E+00 0.  1.
         13   -1    0    0    0    0 -0.00000000000E+00 -0.00000000000E+00 -0.10000000000E+04  0.10000000000E+04  0.00000000000E+00 0.  1.
    9000005    2    1    2  501    0  0.71069590220E+00 -0.12036932456E+02 -0.96713191674E+03  0.10170077681E+04  0.31434895116E+03 0.  0.
         13    1    3    3    0    0 -0.85776232926E+02 -0.30405929350E+02 -0.68166166545E+02  0.11370448072E+03  0.00000000000E+00 0.  1.
          1    1    3    3  501    0  0.86486928828E+02  0.18368996893E+02 -0.89896575019E+03  0.90330328734E+03  0.00000000000E+00 0.  1.
         21    1    1    2  502  501 -0.71069590220E+00  0.12036932456E+02 -0.33466159186E+01  0.12513699282E+02  0.00000000000E+00 0. -1.
<mgrwt>
<rscale>  1 0.30000000E+03</rscale>
<asrwt>0</asrwt>
<pdfrwt beam="1">  1        1 0.10735102E+00 0.30000000E+03</pdfrwt>
<pdfrwt beam="2">0</pdfrwt>
<totfact> 0.30818356E+01</totfact>
</mgrwt>
</event>
<event>
 6    1  0.1969531E-004  0.3000000E+03  0.7818608E-02  0.1093470E+00
          3   -1    0    0  502    0  0.00000000000E+00  0.00000000000E+00  0.30199725151E+02  0.30199725151E+02  0.00000000000E+00 0.  1.
         13   -1    0    0    0    0 -0.00000000000E+00 -0.00000000000E+00 -0.10000000000E+04  0.10000000000E+04  0.00000000000E+00 0.  1.
    9000005    2    1    2  501    0 -0.10479302469E+02 -0.19143090108E+01 -0.94999074865E+03  0.10077075557E+04  0.33597412832E+03 0.  0.
         13    1    3    3    0    0  0.51625091347E+02  0.15380814330E+03 -0.37077921616E+03  0.40472128946E+03  0.00000000000E+00 0.  1.
          1    1    3    3  501    0 -0.62104393816E+02 -0.15572245231E+03 -0.57921153249E+03  0.60298626622E+03  0.00000000000E+00 0.  1.
         21    1    1    2  502  501  0.10479302469E+02  0.19143090108E+01 -0.19809526199E+02  0.22492169470E+02  0.00000000000E+00 0.  1.
<mgrwt>
<rscale>  1 0.30000000E+03</rscale>
<asrwt>0</asrwt>
<pdfrwt beam="1">  1        3 0.10981741E+00 0.30000000E+03</pdfrwt>
<pdfrwt beam="2">0</pdfrwt>
<totfact> 0.30280961E+00</totfact>
</mgrwt>
</event>
<event>
 6    1  0.1969531E-004  0.3000000E+03  0.7818608E-02  0.1093470E+00
          1   -1    0    0  502    0  0.00000000000E+00  0.00000000000E+00  0.28781046742E+02  0.28781046742E+02  0.00000000000E+00 0.  1.
         13   -1    0    0    0    0 -0.00000000000E+00 -0.00000000000E+00 -0.10000000000E+04  0.10000000000E+04  0.00000000000E+00 0.  1.
    9000005    2    1    2  501    0 -0.36916606061E+01  0.91937710984E+01 -0.96324303112E+03  0.10160621978E+04  0.32318276403E+03 0.  0.
         13    1    3    3    0    0  0.15494787342E+03  0.35927698706E+02 -0.55241775927E+03  0.57486087340E+03  0.00000000000E+00 0.  1.
          1    1    3    3  501    0 -0.15863953402E+03 -0.26733927608E+02 -0.41082527185E+03  0.44120132438E+03  0.00000000000E+00 0.  1.
         21    1    1    2  502  501  0.36916606061E+01 -0.91937710984E+01 -0.79759221377E+01  0.12718848965E+02  0.00000000000E+00 0.  1.
<mgrwt>
<rscale>  1 0.30000000E+03</rscale>
<asrwt>0</asrwt>
<pdfrwt beam="1">  1        1 0.10465857E+00 0.30000000E+03</pdfrwt>
<pdfrwt beam="2">0</pdfrwt>
<totfact> 0.32007098E+01</totfact>
</mgrwt>
</event>
<event>
 6    1  0.1969531E-004  0.3000000E+03  0.7818608E-02  0.1093470E+00
          1   -1    0    0  502    0  0.00000000000E+00  0.00000000000E+00  0.39820711666E+02  0.39820711666E+02  0.00000000000E+00 0.  1.
         13   -1    0    0    0    0 -0.00000000000E+00 -0.00000000000E+00 -0.10000000000E+04  0.10000000000E+04  0.00000000000E+00 0.  1.
    9000005    2    1    2  501    0 -0.66064233300E+01  0.11807246731E+02 -0.96807366563E+03  0.10241561945E+04  0.33398537809E+03 0.  0.
         13    1    3    3    0    0  0.16283420173E+03  0.50582747496E+01 -0.42179900192E+03  0.45216696188E+03  0.00000000000E+00 0.  1.
          3    1    3    3  501    0 -0.16944062506E+03  0.67489719816E+01 -0.54627466371E+03  0.57198923264E+03  0.00000000000E+00 0.  1.
         21    1    1    2  502  501  0.66064233300E+01 -0.11807246731E+02  0.78943772951E+01  0.15664517147E+02  0.00000000000E+00 0. -1.
<mgrwt>
<rscale>  1 0.30000000E+03</rscale>
<asrwt>0</asrwt>
<pdfrwt beam="1">  1        1 0.14480289E+00 0.30000000E+03</pdfrwt>
<pdfrwt beam="2">0</pdfrwt>
<totfact> 0.19100893E+01</totfact>
</mgrwt>
</event>
<event>
 6    1  0.1969531E-004  0.3000000E+03  0.7818608E-02  0.1093470E+00
          1   -1    0    0  502    0  0.00000000000E+00  0.00000000000E+00  0.36364027571E+02  0.36364027571E+02  0.00000000000E+00 0.  1.
         13   -1    0    0    0    0 -0.00000000000E+00 -0.00000000000E+00 -0.10000000000E+04  0.10000000000E+04  0.00000000000E+00 0.  1.
    9000005    2    1    2  501    0 -0.11754003476E+01  0.39729805566E+02 -0.92590692241E+03  0.98156147077E+03  0.32338746563E+03 0.  0.
         13    1    3    3    0    0  0.25827495530E+02 -0.46849675447E+02 -0.87679385796E+03  0.87842439685E+03  0.00000000000E+00 0.  1.
          1    1    3    3  501    0 -0.27002895877E+02  0.86579481013E+02 -0.49113064442E+02  0.10313707392E+03  0.00000000000E+00 0.  1.
         21    1    1    2  502  501  0.11754003476E+01 -0.39729805566E+02 -0.37729050023E+02  0.54802556800E+02  0.00000000000E+00 0. -1.
<mgrwt>
<rscale>  1 0.30000000E+03</rscale>
<asrwt>0</asrwt>
<pdfrwt beam="1">  1        1 0.13223311E+00 0.30000000E+03</pdfrwt>
<pdfrwt beam="2">0</pdfrwt>
<totfact> 0.22250740E+01</totfact>
</mgrwt>
</event>
<event>
 6    1  0.1969531E-004  0.3000000E+03  0.7818608E-02  0.1093470E+00
          1   -1    0    0  502    0  0.00000000000E+00  0.00000000000E+00  0.85302249291E+02  0.85302249291E+02  0.00000000000E+00 0.  1.
         13   -1    0    0    0    0 -0.00000000000E+00 -0.00000000000E+00 -0.10000000000E+04  0.10000000000E+04  0.00000000000E+00 0.  1.
    9000005    2    1    2  501    0 -0.58705659809E+01 -0.12293387044E+02 -0.97296514291E+03  0.10254634667E+04  0.32361792482E+03 0.  0.
         13    1    3    3    0    0 -0.10909586523E+03 -0.98374738408E+02 -0.24880037567E+03  0.28893100197E+03  0.00000000000E+00 0.  1.
          1    1    3    3  501    0  0.10322529925E+03  0.86081351364E+02 -0.72416476724E+03  0.73653246471E+03  0.00000000000E+00 0.  1.
         21    1    1    2  502  501  0.58705659809E+01  0.12293387044E+02  0.58267392204E+02  0.59838782609E+02  0.00000000000E+00 0.  1.
<mgrwt>
<rscale>  1 0.30000000E+03</rscale>
<asrwt>0</asrwt>
<pdfrwt beam="1">  1        1 0.31019065E+00 0.30000000E+03</pdfrwt>
<pdfrwt beam="2">0</pdfrwt>
<totfact> 0.31062797E+00</totfact>
</mgrwt>
</event>
<event>
 6    1  0.1969531E-004  0.3000000E+03  0.7818608E-02  0.1093470E+00
          1   -1    0    0  502    0  0.00000000000E+00  0.00000000000E+00  0.29371451085E+02  0.29371451085E+02  0.00000000000E+00 0.  1.
         13   -1    0    0    0    0 -0.00000000000E+00 -0.00000000000E+00 -0.10000000000E+04  0.10000000000E+04  0.00000000000E+00 0.  1.
    9000005    2    1    2  501    0 -0.10216978655E+02  0.51512868607E+01 -0.95802022998E+03  0.10123452326E+04  0.32696970277E+03 0.  0.
         13    1    3    3    0    0 -0.64496747513E+02 -0.49792615898E+02 -0.92461178412E+03  0.92819506914E+03  0.00000000000E+00 0.  1.
          1    1    3    3  501    0  0.54279768858E+02  0.54943902759E+02 -0.33408445857E+02  0.84150163471E+02  0.00000000000E+00 0.  1.
         21    1    1    2  502  501  0.10216978655E+02 -0.51512868607E+01 -0.12608318938E+02  0.17026218476E+02  0.00000000000E+00 0.  1.
<mgrwt>
<rscale>  1 0.30000000E+03</rscale>
<asrwt>0</asrwt>
<pdfrwt beam="1">  1        1 0.10680550E+00 0.30000000E+03</pdfrwt>
<pdfrwt beam="2">0</pdfrwt>
<totfact> 0.31054010E+01</totfact>
</mgrwt>
</event>
<event>
 6    1  0.1969531E-004  0.3000000E+03  0.7818608E-02  0.1093470E+00
          1   -1    0    0  502    0  0.00000000000E+00  0.00000000000E+00  0.37720504514E+02  0.37720504514E+02  0.00000000000E+00 0.  1.
         13   -1    0    0    0    0 -0.00000000000E+00 -0.00000000000E+00 -0.10000000000E+04  0.10000000000E+04  0.00000000000E+00 0.  1.
    9000005    2    1    2  501    0 -0.18874908508E+02  0.28397721999E+01 -0.96525599704E+03  0.10184024808E+04  0.32412982997E+03 0.  0.
         13    1    3    3    0    0 -0.97473377268E+02  0.13423905740E+03 -0.40651164640E+03  0.43905911045E+03  0.00000000000E+00 0.  1.
          3    1    3    3  501    0  0.78598468761E+02 -0.13139928520E+03 -0.55874435063E+03  0.57934337038E+03  0.00000000000E+00 0.  1.
         21    1    1    2  502  501  0.18874908508E+02 -0.28397721999E+01  0.29765015525E+01  0.19318023678E+02  0.00000000000E+00 0.  1.
<mgrwt>
<rscale>  1 0.30000000E+03</rscale>
<asrwt>0</asrwt>
<pdfrwt beam="1">  1        1 0.13716576E+00 0.30000000E+03</pdfrwt>
<pdfrwt beam="2">0</pdfrwt>
<totfact> 0.20939989E+01</totfact>
</mgrwt>
</event>
<event>
 6    1  0.1969531E-004  0.3000000E+03  0.7818608E-02  0.1093470E+00
          1   -1    0    0  502    0  0.00000000000E+00  0.00000000000E+00  0.29641846807E+02  0.29641846807E+02  0.00000000000E+00 0.  1.
         13   -1    0    0    0    0 -0.00000000000E+00 -0.00000000000E+00 -0.10000000000E+04  0.10000000000E+04  0.00000000000E+00 0.  1.
    9000005    2    1    2  501    0 -0.36544663071E+01  0.95939830899E+01 -0.95869036760E+03  0.10141003908E+04  0.33046479686E+03 0.  0.
         13    1    3    3    0    0  0.88843944612E+02  0.27023761002E+01 -0.52616146407E+02  0.10329089114E+03  0.00000000000E+00 0.  1.
          3    1    3    3  501    0 -0.92498410919E+02  0.68916069897E+01 -0.90607422120E+03  0.91080949962E+03  0.00000000000E+00 0.  1.
         21    1    1    2  502  501  0.36544663071E+01 -0.95939830899E+01 -0.11667785588E+02  0.15541456047E+02  0.00000000000E+00 0.  1.
<mgrwt>
<rscale>  1 0.30000000E+03</rscale>
<asrwt>0</asrwt>
<pdfrwt beam="1">  1        1 0.10778876E+00 0.30000000E+03</pdfrwt>
<pdfrwt beam="2">0</pdfrwt>
<totfact> 0.30631108E+01</totfact>
</mgrwt>
</event>
<event>
 6    1  0.1969531E-004  0.3000000E+03  0.7818608E-02  0.1093470E+00
          1   -1    0    0  502    0  0.00000000000E+00  0.00000000000E+00  0.35908952575E+02  0.35908952575E+02  0.00000000000E+00 0.  1.
         13   -1    0    0    0    0 -0.00000000000E+00 -0.00000000000E+00 -0.10000000000E+04  0.10000000000E+04  0.00000000000E+00 0.  1.
    9000005    2    1    2  501    0  0.36672103869E+02 -0.26520951953E+02 -0.88619589211E+03  0.94582088835E+03  0.32739240912E+03 0.  0.
         13    1    3    3    0    0  0.43800998235E+02 -0.16496378768E+03 -0.31745585257E+03  0.36043001682E+03  0.00000000000E+00 0.  1.
          3    1    3    3  501    0 -0.71288943653E+01  0.13844283572E+03 -0.56874003954E+03  0.58539087153E+03  0.00000000000E+00 0.  1.
         21    1    1    2  502  501 -0.36672103869E+02  0.26520951953E+02 -0.77895155311E+02  0.90088064224E+02  0.00000000000E+00 0. -1.
<mgrwt>
<rscale>  1 0.30000000E+03</rscale>
<asrwt>0</asrwt>
<pdfrwt beam="1">  1        1 0.13057828E+00 0.30000000E+03</pdfrwt>
<pdfrwt beam="2">0</pdfrwt>
<totfact> 0.22714678E+01</totfact>
</mgrwt>
</event>
<event>
 6    1  0.1969531E-004  0.3000000E+03  0.7818608E-02  0.1093470E+00
          1   -1    0    0  502    0  0.00000000000E+00  0.00000000000E+00  0.30782770485E+02  0.30782770485E+02  0.00000000000E+00 0.  1.
         13   -1    0    0    0    0 -0.00000000000E+00 -0.00000000000E+00 -0.10000000000E+04  0.10000000000E+04  0.00000000000E+00 0.  1.
    9000005    2    1    2  501    0  0.11404254893E+02  0.74996923317E+01 -0.96383953651E+03  0.10161123241E+04  0.32142075332E+03 0.  0.
         13    1    3    3    0    0 -0.36935366147E+02  0.14660781481E+03 -0.67700285116E+03  0.69367927252E+03  0.00000000000E+00 0.  1.
          1    1    3    3  501    0  0.48339621040E+02 -0.13910812248E+03 -0.28683668534E+03  0.32243305159E+03  0.00000000000E+00 0.  1.
         21    1    1    2  502  501 -0.11404254893E+02 -0.74996923317E+01 -0.53776930087E+01  0.14670446375E+02  0.00000000000E+00 0.  1.
<mgrwt>
<rscale>  1 0.30000000E+03</rscale>
<asrwt>0</asrwt>
<pdfrwt beam="1">  1        1 0.11193758E+00 0.30000000E+03</pdfrwt>
<pdfrwt beam="2">0</pdfrwt>
<totfact> 0.28934245E+01</totfact>
</mgrwt>
</event>
<event>
 6    1  0.1969531E-004  0.3000000E+03  0.7818608E-02  0.1093470E+00
          1   -1    0    0  502    0  0.00000000000E+00  0.00000000000E+00  0.30306108073E+02  0.30306108073E+02  0.00000000000E+00 0.  1.
         13   -1    0    0    0    0 -0.00000000000E+00 -0.00000000000E+00 -0.10000000000E+04  0.10000000000E+04  0.00000000000E+00 0.  1.
    9000005    2    1    2  501    0 -0.17423892526E+02  0.32515339276E+02 -0.84900339109E+03  0.90410374553E+03  0.30860328139E+03 0.  0.
         13    1    3    3    0    0 -0.12583708360E+03 -0.34507091563E+02 -0.68010888859E+03  0.69251267954E+03  0.00000000000E+00 0.  1.
          1    1    3    3  501    0  0.10841319107E+03  0.67022430838E+02 -0.16889450249E+03  0.21159106599E+03  0.00000000000E+00 0.  1.
         21    1    1    2  502  501  0.17423892526E+02 -0.32515339276E+02 -0.12069050084E+03  0.12620236254E+03  0.00000000000E+00 0.  1.
<mgrwt>
<rscale>  1 0.30000000E+03</rscale>
<asrwt>0</asrwt>
<pdfrwt beam="1">  1        1 0.11020426E+00 0.30000000E+03</pdfrwt>
<pdfrwt beam="2">0</pdfrwt>
<totfact> 0.29626521E+01</totfact>
</mgrwt>
</event>
<event>
 6    1  0.1969531E-004  0.3000000E+03  0.7818608E-02  0.1093470E+00
          1   -1    0    0  502    0  0.00000000000E+00  0.00000000000E+00  0.44478364795E+02  0.44478364795E+02  0.00000000000E+00 0.  1.
         13   -1    0    0    0    0 -0.00000000000E+00 -0.00000000000E+00 -0.10000000000E+04  0.10000000000E+04  0.00000000000E+00 0.  1.
    9000005    2    1    2  501    0  0.30388363482E+02 -0.46789835817E+02 -0.91734748904E+03  0.97687653933E+03  0.33113232411E+03 0.  0.
         13    1    3    3    0    0  0.82244658749E+02 -0.16325947204E+03 -0.34433066829E+03  0.38984798092E+03  0.00000000000E+00 0.  1.
          3    1    3    3  501    0 -0.51856295267E+02  0.11646963623E+03 -0.57301682075E+03  0.58702855840E+03  0.00000000000E+00 0.  1.
         21    1    1    2  502  501 -0.30388363482E+02  0.46789835817E+02 -0.38174146165E+02  0.67601825466E+02  0.00000000000E+00 0.  1.
<mgrwt>
<rscale>  1 0.30000000E+03</rscale>
<asrwt>0</asrwt>
<pdfrwt beam="1">  1        1 0.16173985E+00 0.30000000E+03</pdfrwt>
<pdfrwt beam="2">0</pdfrwt>
<totfact> 0.15688208E+01</totfact>
</mgrwt>
</event>
<event>
 6    1  0.1969531E-004  0.3000000E+03  0.7818608E-02  0.1093470E+00
          1   -1    0    0  502    0  0.00000000000E+00  0.00000000000E+00  0.31515939332E+02  0.31515939332E+02  0.00000000000E+00 0.  1.
         13   -1    0    0    0    0 -0.00000000000E+00 -0.00000000000E+00 -0.10000000000E+04  0.10000000000E+04  0.00000000000E+00 0.  1.
    9000005    2    1    2  501    0  0.70454554191E+01  0.10375512454E+02 -0.96738093806E+03  0.10189259997E+04  0.31972961047E+03 0.  0.
         13    1    3    3    0    0  0.94358501744E+01 -0.10398047385E+03 -0.84495668999E+03  0.85138286462E+03  0.00000000000E+00 0.  1.
          3    1    3    3  501    0 -0.23903947553E+01  0.11435598631E+03 -0.12242424807E+03  0.16754313506E+03  0.00000000000E+00 0.  1.
         21    1    1    2  502  501 -0.70454554191E+01 -0.10375512454E+02 -0.11031226063E+01  0.12589939644E+02  0.00000000000E+00 0.  1.
<mgrwt>
<rscale>  1 0.30000000E+03</rscale>
<asrwt>0</asrwt>
<pdfrwt beam="1">  1        1 0.11460366E+00 0.30000000E+03</pdfrwt>
<pdfrwt beam="2">0</pdfrwt>
<totfact> 0.27913501E+01</totfact>
</mgrwt>
</event>
<event>
 6    1  0.1969531E-004  0.3000000E+03  0.7818608E-02  0.1093470E+00
          3   -1    0    0  502    0  0.00000000000E+00  0.00000000000E+00  0.26534454393E+02  0.26534454393E+02  0.00000000000E+00 0.  1.
         13   -1    0    0    0    0 -0.00000000000E+00 -0.00000000000E+00 -0.10000000000E+04  0.10000000000E+04  0.00000000000E+00 0.  1.
    9000005    2    1    2  501    0  0.10922959343E+01  0.13077046281E+02 -0.96815076146E+03  0.10123764468E+04  0.29566530193E+03 0.  0.
         13    1    3    3    0    0  0.11477957385E+03  0.66529962050E+02 -0.74116743800E+03  0.75294738035E+03  0.00000000000E+00 0.  1.
          3    1    3    3  501    0 -0.11368727792E+03 -0.53452915769E+02 -0.22698332347E+03  0.25942906641E+03  0.00000000000E+00 0.  1.
         21    1    1    2  502  501 -0.10922959343E+01 -0.13077046281E+02 -0.53147841441E+01  0.14158007641E+02  0.00000000000E+00 0. -1.
<mgrwt>
<rscale>  1 0.30000000E+03</rscale>
<asrwt>0</asrwt>
<pdfrwt beam="1">  1        3 0.96489129E-01 0.30000000E+03</pdfrwt>
<pdfrwt beam="2">0</pdfrwt>
<totfact> 0.42955712E+00</totfact>
</mgrwt>
</event>
<event>
 6    1  0.1969531E-004  0.3000000E+03  0.7818608E-02  0.1093470E+00
          3   -1    0    0  502    0  0.00000000000E+00  0.00000000000E+00  0.35474517680E+02  0.35474517680E+02  0.00000000000E+00 0.  1.
         13   -1    0    0    0    0 -0.00000000000E+00 -0.00000000000E+00 -0.10000000000E+04  0.10000000000E+04  0.00000000000E+00 0.  1.
    9000005    2    1    2  501    0  0.37363108427E+01 -0.20280683229E+02 -0.88694779367E+03  0.95520270502E+03  0.35399230621E+03 0.  0.
         13    1    3    3    0    0  0.16836252359E+02  0.15790608556E+03 -0.56622188160E+03  0.58806888240E+03  0.00000000000E+00 0.  1.
          3    1    3    3  501    0 -0.13099941516E+02 -0.17818676879E+03 -0.32072591207E+03  0.36713382262E+03  0.00000000000E+00 0.  1.
         21    1    1    2  502  501 -0.37363108427E+01  0.20280683229E+02 -0.77577688650E+02  0.80271812657E+02  0.00000000000E+00 0.  1.
<mgrwt>
<rscale>  1 0.30000000E+03</rscale>
<asrwt>0</asrwt>
<pdfrwt beam="1">  1        3 0.12899852E+00 0.30000000E+03</pdfrwt>
<pdfrwt beam="2">0</pdfrwt>
<totfact> 0.18177885E+00</totfact>
</mgrwt>
</event>
<event>
 6    1  0.1969531E-004  0.3000000E+03  0.7818608E-02  0.1093470E+00
          1   -1    0    0  502    0  0.00000000000E+00  0.00000000000E+00  0.52202477171E+02  0.52202477171E+02  0.00000000000E+00 0.  1.
         13   -1    0    0    0    0 -0.00000000000E+00 -0.00000000000E+00 -0.10000000000E+04  0.10000000000E+04  0.00000000000E+00 0.  1.
    9000005    2    1    2  501    0 -0.26531370507E+02 -0.34139403705E+02 -0.95927572609E+03  0.10074681318E+04  0.30481585491E+03 0.  0.
         13    1    3    3    0    0 -0.30345118315E+02  0.13514419989E+03 -0.42447848453E+03  0.44650505573E+03  0.00000000000E+00 0.  1.
          1    1    3    3  501    0  0.38137478073E+01 -0.16928360359E+03 -0.53479724156E+03  0.56096307606E+03  0.00000000000E+00 0.  1.
         21    1    1    2  502  501  0.26531370507E+02  0.34139403705E+02  0.11478203262E+02  0.44734345378E+02  0.00000000000E+00 0.  1.
<mgrwt>
<rscale>  1 0.30000000E+03</rscale>
<asrwt>0</asrwt>
<pdfrwt beam="1">  1        1 0.18982759E+00 0.30000000E+03</pdfrwt>
<pdfrwt beam="2">0</pdfrwt>
<totfact> 0.11455797E+01</totfact>
</mgrwt>
</event>
<event>
 6    1  0.1969531E-004  0.3000000E+03  0.7818608E-02  0.1093470E+00
          1   -1    0    0  502    0  0.00000000000E+00  0.00000000000E+00  0.46099364030E+02  0.46099364030E+02  0.00000000000E+00 0.  1.
         13   -1    0    0    0    0 -0.00000000000E+00 -0.00000000000E+00 -0.10000000000E+04  0.10000000000E+04  0.00000000000E+00 0.  1.
    9000005    2    1    2  501    0 -0.25109914120E+02 -0.31471986659E+01 -0.95954112403E+03  0.10201720087E+04  0.34553052843E+03 0.  0.
         13    1    3    3    0    0  0.14250022977E+03 -0.39138269980E+02 -0.25176912425E+03  0.29193460156E+03  0.00000000000E+00 0.  1.
          3    1    3    3  501    0 -0.16761014389E+03  0.35991071314E+02 -0.70777199978E+03  0.72823740718E+03  0.00000000000E+00 0.  1.
         21    1    1    2  502  501  0.25109914120E+02  0.31471986659E+01  0.56404880607E+01  0.25927355286E+02  0.00000000000E+00 0. -1.
<mgrwt>
<rscale>  1 0.30000000E+03</rscale>
<asrwt>0</asrwt>
<pdfrwt beam="1">  1        1 0.16763440E+00 0.30000000E+03</pdfrwt>
<pdfrwt beam="2">0</pdfrwt>
<totfact> 0.14673316E+01</totfact>
</mgrwt>
</event>
<event>
 6    1  0.1969531E-004  0.3000000E+03  0.7818608E-02  0.1093470E+00
          1   -1    0    0  502    0  0.00000000000E+00  0.00000000000E+00  0.38150578854E+02  0.38150578854E+02  0.00000000000E+00 0.  1.
         13   -1    0    0    0    0 -0.00000000000E+00 -0.00000000000E+00 -0.10000000000E+04  0.10000000000E+04  0.00000000000E+00 0.  1.
    9000005    2    1    2  501    0  0.15041261937E+02 -0.42688317749E+02 -0.90021200520E+03  0.96168030308E+03  0.33525933095E+03 0.  0.
         13    1    3    3    0    0 -0.74685946050E+02 -0.70487135562E+02 -0.84802829312E+03  0.85422386571E+03  0.00000000000E+00 0.  1.
          3    1    3    3  501    0  0.89727207987E+02  0.27798817813E+02 -0.52183712080E+02  0.10745643737E+03  0.00000000000E+00 0.  1.
         21    1    1    2  502  501 -0.15041261937E+02  0.42688317749E+02 -0.61637415945E+02  0.76470275776E+02  0.00000000000E+00 0. -1.
<mgrwt>
<rscale>  1 0.30000000E+03</rscale>
<asrwt>0</asrwt>
<pdfrwt beam="1">  1        1 0.13872967E+00 0.30000000E+03</pdfrwt>
<pdfrwt beam="2">0</pdfrwt>
<totfact> 0.20545613E+01</totfact>
</mgrwt>
</event>
<event>
 6    1  0.1969531E-004  0.3000000E+03  0.7818608E-02  0.1093470E+00
          1   -1    0    0  502    0  0.00000000000E+00  0.00000000000E+00  0.69256441331E+02  0.69256441331E+02  0.00000000000E+00 0.  1.
         13   -1    0    0    0    0 -0.00000000000E+00 -0.00000000000E+00 -0.10000000000E+04  0.10000000000E+04  0.00000000000E+00 0.  1.
    9000005    2    1    2  501    0  0.37562334949E+02 -0.26249407396E+02 -0.95902521186E+03  0.10154065360E+04  0.33048618126E+03 0.  0.
         13    1    3    3    0    0  0.10369665535E+03  0.10031854942E+03 -0.74003366606E+03  0.75396726360E+03  0.00000000000E+00 0.  1.
          3    1    3    3  501    0 -0.66134320399E+02 -0.12656795681E+03 -0.21899154580E+03  0.26143927241E+03  0.00000000000E+00 0.  1.
         21    1    1    2  502  501 -0.37562334949E+02  0.26249407396E+02  0.28281653190E+02  0.53849905317E+02  0.00000000000E+00 0.  1.
<mgrwt>
<rscale>  1 0.30000000E+03</rscale>
<asrwt>0</asrwt>
<pdfrwt beam="1">  1        1 0.25184214E+00 0.30000000E+03</pdfrwt>
<pdfrwt beam="2">0</pdfrwt>
<totfact> 0.58494138E+00</totfact>
</mgrwt>
</event>
<event>
 6    1  0.1969531E-004  0.3000000E+03  0.7818608E-02  0.1093470E+00
          1   -1    0    0  502    0  0.00000000000E+00  0.00000000000E+00  0.49394944506E+02  0.49394944506E+02  0.00000000000E+00 0.  1.
         13   -1    0    0    0    0 -0.00000000000E+00 -0.00000000000E+00 -0.10000000000E+04  0.10000000000E+04  0.00000000000E+00 0.  1.
    9000005    2    1    2  501    0 -0.12678368295E+02 -0.10789085436E+02 -0.96935318369E+03  0.10243222961E+04  0.33062580993E+03 0.  0.
         13    1    3    3    0    0 -0.97450689273E+02 -0.85127515780E+02 -0.85129601412E+03  0.86107388443E+03  0.00000000000E+00 0.  1.
          3    1    3    3  501    0  0.84772320978E+02  0.74338430344E+02 -0.11805716956E+03  0.16324841168E+03  0.00000000000E+00 0.  1.
         21    1    1    2  502  501  0.12678368295E+02  0.10789085436E+02  0.18748128192E+02  0.25072648402E+02  0.00000000000E+00 0. -1.
<mgrwt>
<rscale>  1 0.30000000E+03</rscale>
<asrwt>0</asrwt>
<pdfrwt beam="1">  1        1 0.17961836E+00 0.30000000E+03</pdfrwt>
<pdfrwt beam="2">0</pdfrwt>
<totfact> 0.12828873E+01</totfact>
</mgrwt>
</event>
<event>
 6    1  0.1969531E-004  0.3000000E+03  0.7818608E-02  0.1093470E+00
          1   -1    0    0  502    0  0.00000000000E+00  0.00000000000E+00  0.28742829715E+02  0.28742829715E+02  0.00000000000E+00 0.  1.
         13   -1    0    0    0    0 -0.00000000000E+00 -0.00000000000E+00 -0.10000000000E+04  0.10000000000E+04  0.00000000000E+00 0.  1.
    9000005    2    1    2  501    0 -0.56506505937E+01 -0.10790522406E+02 -0.91900281032E+03  0.97508760293E+03  0.32570124775E+03 0.  0.
         13    1    3    3    0    0  0.10354663930E+03 -0.21652283255E+02 -0.82152830768E+03  0.82831122665E+03  0.00000000000E+00 0.  1.
          1    1    3    3  501    0 -0.10919728989E+03  0.10861760849E+02 -0.97474502640E+02  0.14677637628E+03  0.00000000000E+00 0.  1.
         21    1    1    2  502  501  0.56506505937E+01  0.10790522406E+02 -0.52254359962E+02  0.53655226782E+02  0.00000000000E+00 0.  1.
<mgrwt>
<rscale>  1 0.30000000E+03</rscale>
<asrwt>0</asrwt>
<pdfrwt beam="1">  1        1 0.10451960E+00 0.30000000E+03</pdfrwt>
<pdfrwt beam="2">0</pdfrwt>
<totfact> 0.32070242E+01</totfact>
</mgrwt>
</event>
<event>
 6    1  0.1969531E-004  0.3000000E+03  0.7818608E-02  0.1093470E+00
          1   -1    0    0  502    0  0.00000000000E+00  0.00000000000E+00  0.41640340963E+02  0.41640340963E+02  0.00000000000E+00 0.  1.
         13   -1    0    0    0    0 -0.00000000000E+00 -0.00000000000E+00 -0.10000000000E+04  0.10000000000E+04  0.00000000000E+00 0.  1.
    9000005    2    1    2  501    0 -0.79465955397E+02 -0.23399907196E+01 -0.79675930520E+03  0.86154317834E+03  0.31797947119E+03 0.  0.
         13    1    3    3    0    0 -0.98744903541E+02 -0.69032847736E+02 -0.78114958005E+03  0.79038646019E+03  0.00000000000E+00 0.  1.
          1    1    3    3  501    0  0.19278948144E+02  0.66692857016E+02 -0.15609725149E+02  0.71156718149E+02  0.00000000000E+00 0.  1.
         21    1    1    2  502  501  0.79465955397E+02  0.23399907196E+01 -0.16160035384E+03  0.18009716262E+03  0.00000000000E+00 0.  1.
<mgrwt>
<rscale>  1 0.30000000E+03</rscale>
<asrwt>0</asrwt>
<pdfrwt beam="1">  1        1 0.15141974E+00 0.30000000E+03</pdfrwt>
<pdfrwt beam="2">0</pdfrwt>
<totfact> 0.17669368E+01</totfact>
</mgrwt>
</event>
<event>
 6    1  0.1969531E-004  0.3000000E+03  0.7818608E-02  0.1093470E+00
          1   -1    0    0  502    0  0.00000000000E+00  0.00000000000E+00  0.34419575670E+02  0.34419575670E+02  0.00000000000E+00 0.  1.
         13   -1    0    0    0    0 -0.00000000000E+00 -0.00000000000E+00 -0.10000000000E+04  0.10000000000E+04  0.00000000000E+00 0.  1.
    9000005    2    1    2  501    0  0.15709129839E+02  0.26970885970E+01 -0.96424424691E+03  0.10184246884E+04  0.32736497566E+03 0.  0.
         13    1    3    3    0    0  0.14590213297E+03 -0.86637450731E+02 -0.51590391832E+03  0.54309330065E+03  0.00000000000E+00 0.  1.
          1    1    3    3  501    0 -0.13019300313E+03  0.89334539328E+02 -0.44834032859E+03  0.47533138780E+03  0.00000000000E+00 0.  1.
         21    1    1    2  502  501 -0.15709129839E+02 -0.26970885970E+01 -0.13361774206E+01  0.15994887224E+02  0.00000000000E+00 0. -1.
<mgrwt>
<rscale>  1 0.30000000E+03</rscale>
<asrwt>0</asrwt>
<pdfrwt beam="1">  1        1 0.12516236E+00 0.30000000E+03</pdfrwt>
<pdfrwt beam="2">0</pdfrwt>
<totfact> 0.24323498E+01</totfact>
</mgrwt>
</event>
<event>
 6    1  0.1969531E-004  0.3000000E+03  0.7818608E-02  0.1093470E+00
          1   -1    0    0  502    0  0.00000000000E+00  0.00000000000E+00  0.64756417172E+02  0.64756417172E+02  0.00000000000E+00 0.  1.
         13   -1    0    0    0    0 -0.00000000000E+00 -0.00000000000E+00 -0.10000000000E+04  0.10000000000E+04  0.00000000000E+00 0.  1.
    9000005    2    1    2  501    0  0.68636331928E+02 -0.10501119780E+03 -0.84100783010E+03  0.90785302392E+03  0.31806390084E+03 0.  0.
         13    1    3    3    0    0  0.77361517041E+01 -0.21551316247E+03 -0.54036022863E+03  0.58180318659E+03  0.00000000000E+00 0.  1.
          1    1    3    3  501    0  0.60900180224E+02  0.11050196468E+03 -0.30064760148E+03  0.32604983733E+03  0.00000000000E+00 0.  1.
         21    1    1    2  502  501 -0.68636331928E+02  0.10501119780E+03 -0.94235752724E+02  0.15690339325E+03  0.00000000000E+00 0.  1.
<mgrwt>
<rscale>  1 0.30000000E+03</rscale>
<asrwt>0</asrwt>
<pdfrwt beam="1">  1        1 0.23547838E+00 0.30000000E+03</pdfrwt>
<pdfrwt beam="2">0</pdfrwt>
<totfact> 0.69761416E+00</totfact>
</mgrwt>
</event>
<event>
 6    1  0.1969531E-004  0.3000000E+03  0.7818608E-02  0.1093470E+00
          1   -1    0    0  502    0  0.00000000000E+00  0.00000000000E+00  0.37696960379E+02  0.37696960379E+02  0.00000000000E+00 0.  1.
         13   -1    0    0    0    0 -0.00000000000E+00 -0.00000000000E+00 -0.10000000000E+04  0.10000000000E+04  0.00000000000E+00 0.  1.
    9000005    2    1    2  501    0 -0.13074361076E+02 -0.60185202007E+02 -0.79343341895E+03  0.85794672743E+03  0.32053517646E+03 0.  0.
         13    1    3    3    0    0  0.29814868485E+01 -0.34265290999E+02  0.22721715121E+02  0.41222272731E+02  0.00000000000E+00 0.  1.
          3    1    3    3  501    0 -0.16055847925E+02 -0.25919911008E+02 -0.81615513407E+03  0.81672445470E+03  0.00000000000E+00 0.  1.
         21    1    1    2  502  501  0.13074361076E+02  0.60185202007E+02 -0.16886962068E+03  0.17975023295E+03  0.00000000000E+00 0.  1.
<mgrwt>
<rscale>  1 0.30000000E+03</rscale>
<asrwt>0</asrwt>
<pdfrwt beam="1">  1        1 0.13708014E+00 0.30000000E+03</pdfrwt>
<pdfrwt beam="2">0</pdfrwt>
<totfact> 0.20961858E+01</totfact>
</mgrwt>
</event>
<event>
 6    1  0.1969531E-004  0.3000000E+03  0.7818608E-02  0.1093470E+00
          1   -1    0    0  502    0  0.00000000000E+00  0.00000000000E+00  0.28224845638E+02  0.28224845638E+02  0.00000000000E+00 0.  1.
         13   -1    0    0    0    0 -0.00000000000E+00 -0.00000000000E+00 -0.10000000000E+04  0.10000000000E+04  0.00000000000E+00 0.  1.
    9000005    2    1    2  501    0 -0.84569120891E+01  0.17821323903E+02 -0.95300872728E+03  0.10009980623E+04  0.30558528667E+03 0.  0.
         13    1    3    3    0    0  0.60364411533E+02  0.10831636095E+03 -0.17358514315E+03  0.21332627160E+03  0.00000000000E+00 0.  1.
          3    1    3    3  501    0 -0.68821323622E+02 -0.90495037048E+02 -0.77942358412E+03  0.78767179066E+03  0.00000000000E+00 0.  1.
         21    1    1    2  502  501  0.84569120891E+01 -0.17821323903E+02 -0.18766427086E+02  0.27226783382E+02  0.00000000000E+00 0. -1.
<mgrwt>
<rscale>  1 0.30000000E+03</rscale>
<asrwt>0</asrwt>
<pdfrwt beam="1">  1        1 0.10263602E+00 0.30000000E+03</pdfrwt>
<pdfrwt beam="2">0</pdfrwt>
<totfact> 0.32944230E+01</totfact>
</mgrwt>
</event>
<event>
 6    1  0.1969531E-004  0.3000000E+03  0.7818608E-02  0.1093470E+00
          1   -1    0    0  502    0  0.00000000000E+00  0.00000000000E+00  0.35249345101E+02  0.35249345101E+02  0.00000000000E+00 0.  1.
         13   -1    0    0    0    0 -0.00000000000E+00 -0.00000000000E+00 -0.10000000000E+04  0.10000000000E+04  0.00000000000E+00 0.  1.
    9000005    2    1    2  501    0 -0.36735787925E+02 -0.92067381738E+01 -0.93770722629E+03  0.98871302409E+03  0.31116606439E+03 0.  0.
         13    1    3    3    0    0 -0.90821109944E+02 -0.99031337372E+02 -0.18451332230E+03  0.22825609718E+03  0.00000000000E+00 0.  1.
          3    1    3    3  501    0  0.54085322019E+02  0.89824599198E+02 -0.75319390399E+03  0.76045692691E+03  0.00000000000E+00 0.  1.
         21    1    1    2  502  501  0.36735787925E+02  0.92067381738E+01 -0.27043428607E+02  0.46536321009E+02  0.00000000000E+00 0.  1.
<mgrwt>
<rscale>  1 0.30000000E+03</rscale>
<asrwt>0</asrwt>
<pdfrwt beam="1">  1        1 0.12817971E+00 0.30000000E+03</pdfrwt>
<pdfrwt beam="2">0</pdfrwt>
<totfact> 0.23409745E+01</totfact>
</mgrwt>
</event>
<event>
 6    1  0.1969531E-004  0.3000000E+03  0.7818608E-02  0.1093470E+00
          1   -1    0    0  502    0  0.00000000000E+00  0.00000000000E+00  0.33585446647E+02  0.33585446647E+02  0.00000000000E+00 0.  1.
         13   -1    0    0    0    0 -0.00000000000E+00 -0.00000000000E+00 -0.10000000000E+04  0.10000000000E+04  0.00000000000E+00 0.  1.
    9000005    2    1    2  501    0 -0.97999532561E+01  0.16002867553E+02 -0.95729616660E+03  0.10127221815E+04  0.32990625268E+03 0.  0.
         13    1    3    3    0    0 -0.15098620477E+02  0.12907421285E+03 -0.83895629827E+03  0.84896159582E+03  0.00000000000E+00 0.  1.
          1    1    3    3  501    0  0.52986672205E+01 -0.11307134530E+03 -0.11833986832E+03  0.16376058572E+03  0.00000000000E+00 0.  1.
         21    1    1    2  502  501  0.97999532561E+01 -0.16002867553E+02 -0.91183867580E+01  0.20863265104E+02  0.00000000000E+00 0.  1.
<mgrwt>
<rscale>  1 0.30000000E+03</rscale>
<asrwt>0</asrwt>
<pdfrwt beam="1">  1        1 0.12212915E+00 0.30000000E+03</pdfrwt>
<pdfrwt beam="2">0</pdfrwt>
<totfact> 0.25288509E+01</totfact>
</mgrwt>
</event>
<event>
 6    1  0.1969531E-004  0.3000000E+03  0.7818608E-02  0.1093470E+00
          1   -1    0    0  502    0  0.00000000000E+00  0.00000000000E+00  0.33239436361E+02  0.33239436361E+02  0.00000000000E+00 0.  1.
         13   -1    0    0    0    0 -0.00000000000E+00 -0.00000000000E+00 -0.10000000000E+04  0.10000000000E+04  0.00000000000E+00 0.  1.
    9000005    2    1    2  501    0 -0.22003761343E+01  0.15829239039E+02 -0.96263784392E+03  0.10167347921E+04  0.32683728749E+03 0.  0.
         13    1    3    3    0    0  0.79052790876E+02 -0.39804245900E+02 -0.88994701099E+03  0.89433741066E+03  0.00000000000E+00 0.  1.
          3    1    3    3  501    0 -0.81253167010E+02  0.55633484939E+02 -0.72690832929E+02  0.12239738146E+03  0.00000000000E+00 0.  1.
         21    1    1    2  502  501  0.22003761343E+01 -0.15829239039E+02 -0.41227197196E+01  0.16504644242E+02  0.00000000000E+00 0. -1.
<mgrwt>
<rscale>  1 0.30000000E+03</rscale>
<asrwt>0</asrwt>
<pdfrwt beam="1">  1        1 0.12087093E+00 0.30000000E+03</pdfrwt>
<pdfrwt beam="2">0</pdfrwt>
<totfact> 0.25703475E+01</totfact>
</mgrwt>
</event>
<event>
 6    1  0.1969531E-004  0.3000000E+03  0.7818608E-02  0.1093470E+00
          1   -1    0    0  502    0  0.00000000000E+00  0.00000000000E+00  0.51425916699E+02  0.51425916699E+02  0.00000000000E+00 0.  1.
         13   -1    0    0    0    0 -0.00000000000E+00 -0.00000000000E+00 -0.10000000000E+04  0.10000000000E+04  0.00000000000E+00 0.  1.
    9000005    2    1    2  501    0  0.30977100977E+02 -0.18086097141E+02 -0.95999706800E+03  0.10137805681E+04  0.32383635050E+03 0.  0.
         13    1    3    3    0    0 -0.26666848645E+02 -0.14242347943E+03 -0.74396153011E+03  0.75794084636E+03  0.00000000000E+00 0.  1.
          3    1    3    3  501    0  0.57643949621E+02  0.12433738229E+03 -0.21603553790E+03  0.25583972170E+03  0.00000000000E+00 0.  1.
         21    1    1    2  502  501 -0.30977100977E+02  0.18086097141E+02  0.11422984703E+02  0.37645348640E+02  0.00000000000E+00 0.  1.
<mgrwt>
<rscale>  1 0.30000000E+03</rscale>
<asrwt>0</asrwt>
<pdfrwt beam="1">  1        1 0.18700373E+00 0.30000000E+03</pdfrwt>
<pdfrwt beam="2">0</pdfrwt>
<totfact> 0.11819255E+01</totfact>
</mgrwt>
</event>
<event>
 6    1  0.1969531E-004  0.3000000E+03  0.7818608E-02  0.1093470E+00
          1   -1    0    0  502    0  0.00000000000E+00  0.00000000000E+00  0.39675341677E+02  0.39675341677E+02  0.00000000000E+00 0.  1.
         13   -1    0    0    0    0 -0.00000000000E+00 -0.00000000000E+00 -0.10000000000E+04  0.10000000000E+04  0.00000000000E+00 0.  1.
    9000005    2    1    2  501    0 -0.33472113069E+02 -0.27460014009E+02 -0.81908684356E+03  0.89195074982E+03  0.35042609503E+03 0.  0.
         13    1    3    3    0    0 -0.12742840728E+02  0.92607092191E+02 -0.74179073613E+03  0.74765764206E+03  0.00000000000E+00 0.  1.
          1    1    3    3  501    0 -0.20729272340E+02 -0.12006710620E+03 -0.77296107431E+02  0.14429310776E+03  0.00000000000E+00 0.  1.
         21    1    1    2  502  501  0.33472113069E+02  0.27460014009E+02 -0.14123781476E+03  0.14772459186E+03  0.00000000000E+00 0. -1.
<mgrwt>
<rscale>  1 0.30000000E+03</rscale>
<asrwt>0</asrwt>
<pdfrwt beam="1">  1        1 0.14427427E+00 0.30000000E+03</pdfrwt>
<pdfrwt beam="2">0</pdfrwt>
<totfact> 0.19221424E+01</totfact>
</mgrwt>
</event>
<event>
 6    1  0.1969531E-004  0.3000000E+03  0.7818608E-02  0.1093470E+00
          1   -1    0    0  502    0  0.00000000000E+00  0.00000000000E+00  0.24865190352E+02  0.24865190352E+02  0.00000000000E+00 0.  1.
         13   -1    0    0    0    0 -0.00000000000E+00 -0.00000000000E+00 -0.10000000000E+04  0.10000000000E+04  0.00000000000E+00 0.  1.
    9000005    2    1    2  501    0  0.18849331514E+02 -0.14493951218E+01 -0.95117207140E+03  0.99434288918E+03  0.28919210535E+03 0.  0.
         13    1    3    3    0    0 -0.10237193135E+03 -0.92638449071E+02 -0.44364767334E+03  0.46463442902E+03  0.00000000000E+00 0.  1.
          3    1    3    3  501    0  0.12122126286E+03  0.91189053949E+02 -0.50752439806E+03  0.52970846015E+03  0.00000000000E+00 0.  1.
         21    1    1    2  502  501 -0.18849331514E+02  0.14493951218E+01 -0.23962738247E+02  0.30522301175E+02  0.00000000000E+00 0.  1.
<mgrwt>
<rscale>  1 0.30000000E+03</rscale>
<asrwt>0</asrwt>
<pdfrwt beam="1">  1        1 0.90419065E-01 0.30000000E+03</pdfrwt>
<pdfrwt beam="2">0</pdfrwt>
<totfact> 0.39570221E+01</totfact>
</mgrwt>
</event>
<event>
 6    1  0.1969531E-004  0.3000000E+03  0.7818608E-02  0.1093470E+00
          1   -1    0    0  502    0  0.00000000000E+00  0.00000000000E+00  0.31284993029E+02  0.31284993029E+02  0.00000000000E+00 0.  1.
         13   -1    0    0    0    0 -0.00000000000E+00 -0.00000000000E+00 -0.10000000000E+04  0.10000000000E+04  0.00000000000E+00 0.  1.
    9000005    2    1    2  501    0 -0.17795257520E+02 -0.10774087647E+02 -0.92858505210E+03  0.98608360552E+03  0.33114638143E+03 0.  0.
         13    1    3    3    0    0  0.74622490852E+02  0.13137992364E+03 -0.56587863923E+03  0.58570285539E+03  0.00000000000E+00 0.  1.
          3    1    3    3  501    0 -0.92417748371E+02 -0.14215401128E+03 -0.36270641287E+03  0.40038075013E+03  0.00000000000E+00 0.  1.
         21    1    1    2  502  501  0.17795257520E+02  0.10774087647E+02 -0.40129954874E+02  0.45201387512E+02  0.00000000000E+00 0.  1.
<mgrwt>
<rscale>  1 0.30000000E+03</rscale>
<asrwt>0</asrwt>
<pdfrwt beam="1">  1        1 0.11376385E+00 0.30000000E+03</pdfrwt>
<pdfrwt beam="2">0</pdfrwt>
<totfact> 0.28229432E+01</totfact>
</mgrwt>
</event>
<event>
 6    1  0.1969531E-004  0.3000000E+03  0.7818608E-02  0.1093470E+00
          1   -1    0    0  502    0  0.00000000000E+00  0.00000000000E+00  0.25687824168E+02  0.25687824168E+02  0.00000000000E+00 0.  1.
         13   -1    0    0    0    0 -0.00000000000E+00 -0.00000000000E+00 -0.10000000000E+04  0.10000000000E+04  0.00000000000E+00 0.  1.
    9000005    2    1    2  501    0  0.10513416140E+02  0.45574458801E+01 -0.96777348052E+03  0.10124947666E+04  0.29736987161E+03 0.  0.
         13    1    3    3    0    0 -0.98782292634E+02  0.10466897363E+03 -0.38057458477E+03  0.40687903602E+03  0.00000000000E+00 0.  1.
          3    1    3    3  501    0  0.10929570877E+03 -0.10011152775E+03 -0.58719889575E+03  0.60561573057E+03  0.00000000000E+00 0.  1.
         21    1    1    2  502  501 -0.10513416140E+02 -0.45574458801E+01 -0.65386953100E+01  0.13193057578E+02  0.00000000000E+00 0.  1.
<mgrwt>
<rscale>  1 0.30000000E+03</rscale>
<asrwt>0</asrwt>
<pdfrwt beam="1">  1        1 0.93410467E-01 0.30000000E+03</pdfrwt>
<pdfrwt beam="2">0</pdfrwt>
<totfact> 0.37775505E+01</totfact>
</mgrwt>
</event>
<event>
 6    1  0.1969531E-004  0.3000000E+03  0.7818608E-02  0.1093470E+00
          1   -1    0    0  502    0  0.00000000000E+00  0.00000000000E+00  0.36876640368E+02  0.36876640368E+02  0.00000000000E+00 0.  1.
         13   -1    0    0    0    0 -0.00000000000E+00 -0.00000000000E+00 -0.10000000000E+04  0.10000000000E+04  0.00000000000E+00 0.  1.
    9000005    2    1    2  501    0 -0.32407214102E+02 -0.52358352042E+01 -0.94393220581E+03  0.99885109788E+03  0.32498902302E+03 0.  0.
         13    1    3    3    0    0 -0.17212526476E+02  0.13952370823E+03 -0.70652963337E+03  0.72037994077E+03  0.00000000000E+00 0.  1.
          1    1    3    3  501    0 -0.15194687625E+02 -0.14475954343E+03 -0.23740257244E+03  0.27847115712E+03  0.00000000000E+00 0.  1.
         21    1    1    2  502  501  0.32407214102E+02  0.52358352042E+01 -0.19191153823E+02  0.38025542484E+02  0.00000000000E+00 0. -1.
<mgrwt>
<rscale>  1 0.30000000E+03</rscale>
<asrwt>0</asrwt>
<pdfrwt beam="1">  1        1 0.13409716E+00 0.30000000E+03</pdfrwt>
<pdfrwt beam="2">0</pdfrwt>
<totfact> 0.21742947E+01</totfact>
</mgrwt>
</event>
<event>
 6    1  0.1969531E-004  0.3000000E+03  0.7818608E-02  0.1093470E+00
          1   -1    0    0  502    0  0.00000000000E+00  0.00000000000E+00  0.38706224103E+02  0.38706224103E+02  0.00000000000E+00 0.  1.
         13   -1    0    0    0    0 -0.00000000000E+00 -0.00000000000E+00 -0.10000000000E+04  0.10000000000E+04  0.00000000000E+00 0.  1.
    9000005    2    1    2  501    0  0.23524250944E+02 -0.78141486086E+01 -0.95609789258E+03  0.10133793904E+04  0.33496291948E+03 0.  0.
         13    1    3    3    0    0 -0.54778530869E+02 -0.11001232839E+03 -0.13626204581E+03  0.18349589905E+03  0.00000000000E+00 0.  1.
          1    1    3    3  501    0  0.78302781813E+02  0.10219817978E+03 -0.81983584678E+03  0.82988349137E+03  0.00000000000E+00 0.  1.
         21    1    1    2  502  501 -0.23524250944E+02  0.78141486086E+01 -0.51958833120E+01  0.25326833682E+02  0.00000000000E+00 0. -1.
<mgrwt>
<rscale>  1 0.30000000E+03</rscale>
<asrwt>0</asrwt>
<pdfrwt beam="1">  1        1 0.14075020E+00 0.30000000E+03</pdfrwt>
<pdfrwt beam="2">0</pdfrwt>
<totfact> 0.20050022E+01</totfact>
</mgrwt>
</event>
<event>
 6    1  0.1969531E-004  0.3000000E+03  0.7818608E-02  0.1093470E+00
          1   -1    0    0  502    0  0.00000000000E+00  0.00000000000E+00  0.71019624380E+02  0.71019624380E+02  0.00000000000E+00 0.  1.
         13   -1    0    0    0    0 -0.00000000000E+00 -0.00000000000E+00 -0.10000000000E+04  0.10000000000E+04  0.00000000000E+00 0.  1.
    9000005    2    1    2  501    0  0.42872979306E+02  0.66222569475E+01 -0.97155408930E+03  0.10102374910E+04  0.27346022222E+03 0.  0.
         13    1    3    3    0    0 -0.41057218043E+02 -0.89883209767E+02 -0.15563682336E+03  0.18435701055E+03  0.00000000000E+00 0.  1.
          3    1    3    3  501    0  0.83930197349E+02  0.96505466715E+02 -0.81591726594E+03  0.82588048045E+03  0.00000000000E+00 0.  1.
         21    1    1    2  502  501 -0.42872979306E+02 -0.66222569475E+01  0.42573713682E+02  0.60782133382E+02  0.00000000000E+00 0.  1.
<mgrwt>
<rscale>  1 0.30000000E+03</rscale>
<asrwt>0</asrwt>
<pdfrwt beam="1">  1        1 0.25825372E+00 0.30000000E+03</pdfrwt>
<pdfrwt beam="2">0</pdfrwt>
<totfact> 0.54602513E+00</totfact>
</mgrwt>
</event>
<event>
 6    1  0.1969531E-004  0.3000000E+03  0.7818608E-02  0.1093470E+00
          1   -1    0    0  502    0  0.00000000000E+00  0.00000000000E+00  0.58251910108E+02  0.58251910108E+02  0.00000000000E+00 0.  1.
         13   -1    0    0    0    0 -0.00000000000E+00 -0.00000000000E+00 -0.10000000000E+04  0.10000000000E+04  0.00000000000E+00 0.  1.
    9000005    2    1    2  501    0 -0.80420810643E+02  0.32101104733E+02 -0.89627772565E+03  0.96044832258E+03  0.33413953842E+03 0.  0.
         13    1    3    3    0    0 -0.16612629875E+03  0.62589554986E+01 -0.83637676404E+03  0.85273865462E+03  0.00000000000E+00 0.  1.
          1    1    3    3  501    0  0.85705488112E+02  0.25842149234E+02 -0.59900961612E+02  0.10770966796E+03  0.00000000000E+00 0.  1.
         21    1    1    2  502  501  0.80420810643E+02 -0.32101104733E+02 -0.45470364243E+02  0.97803587531E+02  0.00000000000E+00 0.  1.
<mgrwt>
<rscale>  1 0.30000000E+03</rscale>
<asrwt>0</asrwt>
<pdfrwt beam="1">  1        1 0.21182557E+00 0.30000000E+03</pdfrwt>
<pdfrwt beam="2">0</pdfrwt>
<totfact> 0.90052467E+00</totfact>
</mgrwt>
</event>
<event>
 6    1  0.1969531E-004  0.3000000E+03  0.7818608E-02  0.1093470E+00
          1   -1    0    0  502    0  0.00000000000E+00  0.00000000000E+00  0.38842805695E+02  0.38842805695E+02  0.00000000000E+00 0.  1.
         13   -1    0    0    0    0 -0.00000000000E+00 -0.00000000000E+00 -0.10000000000E+04  0.10000000000E+04  0.00000000000E+00 0.  1.
    9000005    2    1    2  501    0 -0.93763746573E+01 -0.44471969446E+02 -0.88742598301E+03  0.95222892697E+03  0.34227091839E+03 0.  0.
         13    1    3    3    0    0  0.99649486219E+02 -0.12528912760E+03 -0.22557441101E+03  0.27660658073E+03  0.00000000000E+00 0.  1.
          3    1    3    3  501    0 -0.10902586088E+03  0.80817158153E+02 -0.66185157200E+03  0.67562234625E+03  0.00000000000E+00 0.  1.
         21    1    1    2  502  501  0.93763746573E+01  0.44471969446E+02 -0.73731211295E+02  0.86613878721E+02  0.00000000000E+00 0.  1.
<mgrwt>
<rscale>  1 0.30000000E+03</rscale>
<asrwt>0</asrwt>
<pdfrwt beam="1">  1        1 0.14124686E+00 0.30000000E+03</pdfrwt>
<pdfrwt beam="2">0</pdfrwt>
<totfact> 0.19930539E+01</totfact>
</mgrwt>
</event>
<event>
 6    1  0.1969531E-004  0.3000000E+03  0.7818608E-02  0.1093470E+00
          1   -1    0    0  502    0  0.00000000000E+00  0.00000000000E+00  0.43112885969E+02  0.43112885969E+02  0.00000000000E+00 0.  1.
         13   -1    0    0    0    0 -0.00000000000E+00 -0.00000000000E+00 -0.10000000000E+04  0.10000000000E+04  0.00000000000E+00 0.  1.
    9000005    2    1    2  501    0 -0.11103193223E+02 -0.30393128205E+02 -0.95379595263E+03  0.10106078337E+04  0.33249729506E+03 0.  0.
         13    1    3    3    0    0 -0.15061020230E+03  0.26604802171E+02 -0.69048908997E+03  0.70722445653E+03  0.00000000000E+00 0.  1.
          3    1    3    3  501    0  0.13950700907E+03 -0.56997930377E+02 -0.26330686265E+03  0.30338337721E+03  0.00000000000E+00 0.  1.
         21    1    1    2  502  501  0.11103193223E+02  0.30393128205E+02 -0.30911614048E+01  0.32505052233E+02  0.00000000000E+00 0.  1.
<mgrwt>
<rscale>  1 0.30000000E+03</rscale>
<asrwt>0</asrwt>
<pdfrwt beam="1">  1        1 0.15677446E+00 0.30000000E+03</pdfrwt>
<pdfrwt beam="2">0</pdfrwt>
<totfact> 0.16606486E+01</totfact>
</mgrwt>
</event>
<event>
 6    1  0.1969531E-004  0.3000000E+03  0.7818608E-02  0.1093470E+00
          1   -1    0    0  502    0  0.00000000000E+00  0.00000000000E+00  0.87097575790E+02  0.87097575790E+02  0.00000000000E+00 0.  1.
         13   -1    0    0    0    0 -0.00000000000E+00 -0.00000000000E+00 -0.10000000000E+04  0.10000000000E+04  0.00000000000E+00 0.  1.
    9000005    2    1    2  501    0 -0.21482259429E+02  0.14488874751E+02 -0.96845852110E+03  0.10257959048E+04  0.33715562620E+03 0.  0.
         13    1    3    3    0    0 -0.94662167708E+02  0.24342524687E+02 -0.94245625550E+03  0.94751109653E+03  0.00000000000E+00 0.  1.
          1    1    3    3  501    0  0.73179908280E+02 -0.98536499368E+01 -0.26002265601E+02  0.78284808292E+02  0.00000000000E+00 0.  1.
         21    1    1    2  502  501  0.21482259429E+02 -0.14488874751E+02  0.55556096895E+02  0.61301670972E+02  0.00000000000E+00 0. -1.
<mgrwt>
<rscale>  1 0.30000000E+03</rscale>
<asrwt>0</asrwt>
<pdfrwt beam="1">  1        1 0.31671913E+00 0.30000000E+03</pdfrwt>
<pdfrwt beam="2">0</pdfrwt>
<totfact> 0.28887909E+00</totfact>
</mgrwt>
</event>
<event>
 6    1  0.1969531E-004  0.3000000E+03  0.7818608E-02  0.1093470E+00
          1   -1    0    0  502    0  0.00000000000E+00  0.00000000000E+00  0.70398988686E+02  0.70398988686E+02  0.00000000000E+00 0.  1.
         13   -1    0    0    0    0 -0.00000000000E+00 -0.00000000000E+00 -0.10000000000E+04  0.10000000000E+04  0.00000000000E+00 0.  1.
    9000005    2    1    2  501    0  0.14560607376E+03  0.63933117545E+02 -0.74769752508E+03  0.82878472889E+03  0.32022486722E+03 0.  0.
         13    1    3    3    0    0  0.73433125280E+02 -0.99379269227E+02 -0.54424104215E+03  0.55809226387E+03  0.00000000000E+00 0.  1.
          3    1    3    3  501    0  0.72172948482E+02  0.16331238677E+03 -0.20345648294E+03  0.27069246501E+03  0.00000000000E+00 0.  1.
         21    1    1    2  502  501 -0.14560607376E+03 -0.63933117545E+02 -0.18190348623E+03  0.24161425980E+03  0.00000000000E+00 0. -1.
<mgrwt>
<rscale>  1 0.30000000E+03</rscale>
<asrwt>0</asrwt>
<pdfrwt beam="1">  1        1 0.25599686E+00 0.30000000E+03</pdfrwt>
<pdfrwt beam="2">0</pdfrwt>
<totfact> 0.55944167E+00</totfact>
</mgrwt>
</event>
<event>
 6    1  0.1969531E-004  0.3000000E+03  0.7818608E-02  0.1093470E+00
          1   -1    0    0  502    0  0.00000000000E+00  0.00000000000E+00  0.32355053407E+02  0.32355053407E+02  0.00000000000E+00 0.  1.
         13   -1    0    0    0    0 -0.00000000000E+00 -0.00000000000E+00 -0.10000000000E+04  0.10000000000E+04  0.00000000000E+00 0.  1.
    9000005    2    1    2  501    0  0.15568181744E+02 -0.16561091136E+02 -0.93905298715E+03  0.99582919726E+03  0.33066393728E+03 0.  0.
         13    1    3    3    0    0  0.12042177723E+03 -0.10384916136E+03 -0.27289962886E+03  0.31584847661E+03  0.00000000000E+00 0.  1.
          1    1    3    3  501    0 -0.10485359548E+03  0.87288070227E+02 -0.66615335830E+03  0.67998072065E+03  0.00000000000E+00 0.  1.
         21    1    1    2  502  501 -0.15568181744E+02  0.16561091136E+02 -0.28591959440E+02  0.36525856144E+02  0.00000000000E+00 0.  1.
<mgrwt>
<rscale>  1 0.30000000E+03</rscale>
<asrwt>0</asrwt>
<pdfrwt beam="1">  1        1 0.11765499E+00 0.30000000E+03</pdfrwt>
<pdfrwt beam="2">0</pdfrwt>
<totfact> 0.26806329E+01</totfact>
</mgrwt>
</event>
<event>
 6    1  0.1969531E-004  0.3000000E+03  0.7818608E-02  0.1093470E+00
          1   -1    0    0  502    0  0.00000000000E+00  0.00000000000E+00  0.33549509463E+02  0.33549509463E+02  0.00000000000E+00 0.  1.
         13   -1    0    0    0    0 -0.00000000000E+00 -0.00000000000E+00 -0.10000000000E+04  0.10000000000E+04  0.00000000000E+00 0.  1.
    9000005    2    1    2  501    0 -0.45672324585E+01 -0.11351629730E+02 -0.97018697000E+03  0.10207557458E+04  0.31706437316E+03 0.  0.
         13    1    3    3    0    0 -0.53993334259E+02 -0.14840097570E+03 -0.35477912505E+03  0.38833794213E+03  0.00000000000E+00 0.  1.
          1    1    3    3  501    0  0.49426101801E+02  0.13704934597E+03 -0.61540784495E+03  0.63241780367E+03  0.00000000000E+00 0.  1.
         21    1    1    2  502  501  0.45672324585E+01  0.11351629730E+02  0.37364794597E+01  0.12793763661E+02  0.00000000000E+00 0. -1.
<mgrwt>
<rscale>  1 0.30000000E+03</rscale>
<asrwt>0</asrwt>
<pdfrwt beam="1">  1        1 0.12199847E+00 0.30000000E+03</pdfrwt>
<pdfrwt beam="2">0</pdfrwt>
<totfact> 0.25331195E+01</totfact>
</mgrwt>
</event>
<event>
 6    1  0.1969531E-004  0.3000000E+03  0.7818608E-02  0.1093470E+00
          1   -1    0    0  502    0  0.00000000000E+00  0.00000000000E+00  0.45538538587E+02  0.45538538587E+02  0.00000000000E+00 0.  1.
         13   -1    0    0    0    0 -0.00000000000E+00 -0.00000000000E+00 -0.10000000000E+04  0.10000000000E+04  0.00000000000E+00 0.  1.
    9000005    2    1    2  501    0 -0.76336047483E+02  0.27753659543E+01 -0.88145386254E+03  0.93987395467E+03  0.31712338935E+03 0.  0.
         13    1    3    3    0    0 -0.61961489964E+02  0.63487481655E+02 -0.87231882715E+03  0.87681812410E+03  0.00000000000E+00 0.  1.
          3    1    3    3  501    0 -0.14374557519E+02 -0.60712115701E+02 -0.91350353982E+01  0.63055830567E+02  0.00000000000E+00 0.  1.
         21    1    1    2  502  501  0.76336047483E+02 -0.27753659543E+01 -0.73007598870E+02  0.10566458392E+03  0.00000000000E+00 0.  1.
<mgrwt>
<rscale>  1 0.30000000E+03</rscale>
<asrwt>0</asrwt>
<pdfrwt beam="1">  1        1 0.16559503E+00 0.30000000E+03</pdfrwt>
<pdfrwt beam="2">0</pdfrwt>
<totfact> 0.15015701E+01</totfact>
</mgrwt>
</event>
<event>
 6    1  0.1969531E-004  0.3000000E+03  0.7818608E-02  0.1093470E+00
          1   -1    0    0  502    0  0.00000000000E+00  0.00000000000E+00  0.40261657114E+02  0.40261657114E+02  0.00000000000E+00 0.  1.
         13   -1    0    0    0    0 -0.00000000000E+00 -0.00000000000E+00 -0.10000000000E+04  0.10000000000E+04  0.00000000000E+00 0.  1.
    9000005    2    1    2  501    0  0.61938476902E+01 -0.20313024021E+02 -0.96202743565E+03  0.10189022882E+04  0.33498373585E+03 0.  0.
         13    1    3    3    0    0  0.53327162281E+02 -0.25068146557E+01  0.21307065150E+01  0.53428552918E+02  0.00000000000E+00 0.  1.
          1    1    3    3  501    0 -0.47133314590E+02 -0.17806209365E+02 -0.96415814217E+03  0.96547373530E+03  0.00000000000E+00 0.  1.
         21    1    1    2  502  501 -0.61938476902E+01  0.20313024021E+02  0.22890927686E+01  0.21359368900E+02  0.00000000000E+00 0.  1.
<mgrwt>
<rscale>  1 0.30000000E+03</rscale>
<asrwt>0</asrwt>
<pdfrwt beam="1">  1        1 0.14640633E+00 0.30000000E+03</pdfrwt>
<pdfrwt beam="2">0</pdfrwt>
<totfact> 0.18741064E+01</totfact>
</mgrwt>
</event>
<event>
 6    1  0.1969531E-004  0.3000000E+03  0.7818608E-02  0.1093470E+00
          1   -1    0    0  502    0  0.00000000000E+00  0.00000000000E+00  0.69831950158E+02  0.69831950158E+02  0.00000000000E+00 0.  1.
         13   -1    0    0    0    0 -0.00000000000E+00 -0.00000000000E+00 -0.10000000000E+04  0.10000000000E+04  0.00000000000E+00 0.  1.
    9000005    2    1    2  501    0 -0.16835576536E+03  0.86586998989E+01 -0.61456329017E+03  0.71202613530E+03  0.31760752969E+03 0.  0.
         13    1    3    3    0    0 -0.13421483138E+03  0.11681654871E+03 -0.14669240606E+03  0.23060439937E+03  0.00000000000E+00 0.  1.
          3    1    3    3  501    0 -0.34140933986E+02 -0.10815784881E+03 -0.46787088410E+03  0.48142173593E+03  0.00000000000E+00 0.  1.
         21    1    1    2  502  501  0.16835576536E+03 -0.86586998989E+01 -0.31560475968E+03  0.35780581486E+03  0.00000000000E+00 0.  1.
<mgrwt>
<rscale>  1 0.30000000E+03</rscale>
<asrwt>0</asrwt>
<pdfrwt beam="1">  1        1 0.25393490E+00 0.30000000E+03</pdfrwt>
<pdfrwt beam="2">0</pdfrwt>
<totfact> 0.57196174E+00</totfact>
</mgrwt>
</event>
<event>
 6    1  0.1969531E-004  0.3000000E+03  0.7818608E-02  0.1093470E+00
          1   -1    0    0  502    0  0.00000000000E+00  0.00000000000E+00  0.32398115257E+02  0.32398115257E+02  0.00000000000E+00 0.  1.
         13   -1    0    0    0    0 -0.00000000000E+00 -0.00000000000E+00 -0.10000000000E+04  0.10000000000E+04  0.00000000000E+00 0.  1.
    9000005    2    1    2  501    0 -0.15746883119E+02 -0.12865775202E+02 -0.95286638030E+03  0.10072858157E+04  0.32597067850E+03 0.  0.
         13    1    3    3    0    0 -0.90435448073E+02 -0.13678642235E+03 -0.66735043690E+03  0.68720135422E+03  0.00000000000E+00 0.  1.
          3    1    3    3  501    0  0.74688564954E+02  0.12392064715E+03 -0.28551594339E+03  0.32008446144E+03  0.00000000000E+00 0.  1.
         21    1    1    2  502  501  0.15746883119E+02  0.12865775202E+02 -0.14735504444E+02  0.25112299591E+02  0.00000000000E+00 0. -1.
<mgrwt>
<rscale>  1 0.30000000E+03</rscale>
<asrwt>0</asrwt>
<pdfrwt beam="1">  1        1 0.11781158E+00 0.30000000E+03</pdfrwt>
<pdfrwt beam="2">0</pdfrwt>
<totfact> 0.26751159E+01</totfact>
</mgrwt>
</event>
<event>
 6    1  0.1969531E-004  0.3000000E+03  0.7818608E-02  0.1093470E+00
          1   -1    0    0  502    0  0.00000000000E+00  0.00000000000E+00  0.31835446568E+02  0.31835446568E+02  0.00000000000E+00 0.  1.
         13   -1    0    0    0    0 -0.00000000000E+00 -0.00000000000E+00 -0.10000000000E+04  0.10000000000E+04  0.00000000000E+00 0.  1.
    9000005    2    1    2  501    0  0.86853132108E+01  0.83618816357E+01 -0.96685842571E+03  0.10197085467E+04  0.32379769791E+03 0.  0.
         13    1    3    3    0    0 -0.12161533839E+03  0.70829813648E+02 -0.72034819651E+03  0.73396776309E+03  0.00000000000E+00 0.  1.
          3    1    3    3  501    0  0.13030065160E+03 -0.62467932012E+02 -0.24651022920E+03  0.28574078364E+03  0.00000000000E+00 0.  1.
         21    1    1    2  502  501 -0.86853132108E+01 -0.83618816357E+01 -0.13061277197E+01  0.12126899838E+02  0.00000000000E+00 0.  1.
<mgrwt>
<rscale>  1 0.30000000E+03</rscale>
<asrwt>0</asrwt>
<pdfrwt beam="1">  1        1 0.11576550E+00 0.30000000E+03</pdfrwt>
<pdfrwt beam="2">0</pdfrwt>
<totfact> 0.27484562E+01</totfact>
</mgrwt>
</event>
<event>
 6    1  0.1969531E-004  0.3000000E+03  0.7818608E-02  0.1093470E+00
          1   -1    0    0  502    0  0.00000000000E+00  0.00000000000E+00  0.62806484432E+02  0.62806484432E+02  0.00000000000E+00 0.  1.
         13   -1    0    0    0    0 -0.00000000000E+00 -0.00000000000E+00 -0.10000000000E+04  0.10000000000E+04  0.00000000000E+00 0.  1.
    9000005    2    1    2  501    0  0.29141096729E+00  0.13101419480E+02 -0.97364755330E+03  0.10240685317E+04  0.31710419033E+03 0.  0.
         13    1    3    3    0    0  0.14421867362E+03 -0.45898156584E+02 -0.61105865992E+03  0.62952232086E+03  0.00000000000E+00 0.  1.
          1    1    3    3  501    0 -0.14392726266E+03  0.58999576063E+02 -0.36258889338E+03  0.39454621087E+03  0.00000000000E+00 0.  1.
         21    1    1    2  502  501 -0.29141096729E+00 -0.13101419480E+02  0.36454037728E+02  0.38737952701E+02  0.00000000000E+00 0.  1.
<mgrwt>
<rscale>  1 0.30000000E+03</rscale>
<asrwt>0</asrwt>
<pdfrwt beam="1">  1        1 0.22838770E+00 0.30000000E+03</pdfrwt>
<pdfrwt beam="2">0</pdfrwt>
<totfact> 0.75301781E+00</totfact>
</mgrwt>
</event>
<event>
 6    1  0.1969531E-004  0.3000000E+03  0.7818608E-02  0.1093470E+00
          3   -1    0    0  502    0  0.00000000000E+00  0.00000000000E+00  0.37459590046E+02  0.37459590046E+02  0.00000000000E+00 0.  1.
         13   -1    0    0    0    0 -0.00000000000E+00 -0.00000000000E+00 -0.10000000000E+04  0.10000000000E+04  0.00000000000E+00 0.  1.
    9000005    2    1    2  501    0 -0.10032706583E+02  0.22862328880E+02 -0.95420781443E+03  0.10111390006E+04  0.33356586161E+03 0.  0.
         13    1    3    3    0    0 -0.86926313387E+02 -0.29398222676E+02 -0.54679750798E+02  0.10681907415E+03  0.00000000000E+00 0.  1.
          1    1    3    3  501    0  0.76893606805E+02  0.52260551556E+02 -0.89952806363E+03  0.90431992640E+03  0.00000000000E+00 0.  1.
         21    1    1    2  502  501  0.10032706583E+02 -0.22862328880E+02 -0.83325955233E+01  0.26320589495E+02  0.00000000000E+00 0.  1.
<mgrwt>
<rscale>  1 0.30000000E+03</rscale>
<asrwt>0</asrwt>
<pdfrwt beam="1">  1        3 0.13621698E+00 0.30000000E+03</pdfrwt>
<pdfrwt beam="2">0</pdfrwt>
<totfact> 0.14918629E+00</totfact>
</mgrwt>
</event>
<event>
 6    1  0.1969531E-004  0.3000000E+03  0.7818608E-02  0.1093470E+00
          1   -1    0    0  502    0  0.00000000000E+00  0.00000000000E+00  0.28064949353E+02  0.28064949353E+02  0.00000000000E+00 0.  1.
         13   -1    0    0    0    0 -0.00000000000E+00 -0.00000000000E+00 -0.10000000000E+04  0.10000000000E+04  0.00000000000E+00 0.  1.
    9000005    2    1    2  501    0  0.72411440259E+01 -0.26093798874E+01 -0.94754809791E+03  0.10024921808E+04  0.32723681270E+03 0.  0.
         13    1    3    3    0    0 -0.10024465348E+03 -0.12570504350E+03 -0.53910747945E+03  0.56257232683E+03  0.00000000000E+00 0.  1.
          3    1    3    3  501    0  0.10748579751E+03  0.12309566361E+03 -0.40844061846E+03  0.43991985392E+03  0.00000000000E+00 0.  1.
         21    1    1    2  502  501 -0.72411440259E+01  0.26093798874E+01 -0.24386952732E+02  0.25572768598E+02  0.00000000000E+00 0. -1.
<mgrwt>
<rscale>  1 0.30000000E+03</rscale>
<asrwt>0</asrwt>
<pdfrwt beam="1">  1        1 0.10205458E+00 0.30000000E+03</pdfrwt>
<pdfrwt beam="2">0</pdfrwt>
<totfact> 0.33221036E+01</totfact>
</mgrwt>
</event>
<event>
 6    1  0.1969531E-004  0.3000000E+03  0.7818608E-02  0.1093470E+00
          1   -1    0    0  502    0  0.00000000000E+00  0.00000000000E+00  0.96661470520E+02  0.96661470520E+02  0.00000000000E+00 0.  1.
         13   -1    0    0    0    0 -0.00000000000E+00 -0.00000000000E+00 -0.10000000000E+04  0.10000000000E+04  0.00000000000E+00 0.  1.
    9000005    2    1    2  501    0  0.76384597827E+02  0.33911514114E+02 -0.94581097694E+03  0.10029144366E+04  0.32294638175E+03 0.  0.
         13    1    3    3    0    0  0.12604586841E+03  0.15208586762E+03 -0.46296765069E+03  0.50334552512E+03  0.00000000000E+00 0.  1.
          1    1    3    3  501    0 -0.49661270585E+02 -0.11817435350E+03 -0.48284332624E+03  0.49956891148E+03  0.00000000000E+00 0.  1.
         21    1    1    2  502  501 -0.76384597827E+02 -0.33911514114E+02  0.42472447457E+02  0.93747033914E+02  0.00000000000E+00 0.  1.
<mgrwt>
<rscale>  1 0.30000000E+03</rscale>
<asrwt>0</asrwt>
<pdfrwt beam="1">  1        1 0.35149700E+00 0.30000000E+03</pdfrwt>
<pdfrwt beam="2">0</pdfrwt>
<totfact> 0.19344845E+00</totfact>
</mgrwt>
</event>
<event>
 6    1  0.1974646E-004  0.3000000E+03  0.7818608E-02  0.1093470E+00
          1   -1    0    0  502    0  0.00000000000E+00  0.00000000000E+00  0.46802568817E+02  0.46802568817E+02  0.00000000000E+00 0.  1.
         13   -1    0    0    0    0 -0.00000000000E+00 -0.00000000000E+00 -0.10000000000E+04  0.10000000000E+04  0.00000000000E+00 0.  1.
    9000005    2    1    2  501    0  0.10633020885E+02  0.17943518603E+01 -0.94830670578E+03  0.10349619596E+04  0.41442052163E+03 0.  0.
         13    1    3    3    0    0 -0.19216026422E+02 -0.16927247361E+03 -0.18226829521E+03  0.24948779015E+03  0.00000000000E+00 0.  1.
          3    1    3    3  501    0  0.29849047307E+02  0.17106682547E+03 -0.76603841057E+03  0.78547416945E+03  0.00000000000E+00 0.  1.
         21    1    1    2  502  501 -0.10633020885E+02 -0.17943518603E+01 -0.48907254032E+01  0.11840609220E+02  0.00000000000E+00 0. -1.
<mgrwt>
<rscale>  1 0.30000000E+03</rscale>
<asrwt>0</asrwt>
<pdfrwt beam="1">  1        1 0.17019152E+00 0.30000000E+03</pdfrwt>
<pdfrwt beam="2">0</pdfrwt>
<totfact> 0.14256437E+01</totfact>
</mgrwt>
</event>
<event>
 6    1  0.1969531E-004  0.3000000E+03  0.7818608E-02  0.1093470E+00
          1   -1    0    0  502    0  0.00000000000E+00  0.00000000000E+00  0.33788788232E+02  0.33788788232E+02  0.00000000000E+00 0.  1.
         13   -1    0    0    0    0 -0.00000000000E+00 -0.00000000000E+00 -0.10000000000E+04  0.10000000000E+04  0.00000000000E+00 0.  1.
    9000005    2    1    2  501    0 -0.30382454442E+02 -0.13286988462E+02 -0.89719905644E+03  0.95722303098E+03  0.33197913574E+03 0.  0.
         13    1    3    3    0    0 -0.10258834850E+03  0.63215842089E+02 -0.11041770825E+03  0.16344014878E+03  0.00000000000E+00 0.  1.
          3    1    3    3  501    0  0.72205894055E+02 -0.76502830551E+02 -0.78678134818E+03  0.79378288219E+03  0.00000000000E+00 0.  1.
         21    1    1    2  502  501  0.30382454442E+02  0.13286988462E+02 -0.69012155333E+02  0.76565757255E+02  0.00000000000E+00 0.  1.
<mgrwt>
<rscale>  1 0.30000000E+03</rscale>
<asrwt>0</asrwt>
<pdfrwt beam="1">  1        1 0.12286858E+00 0.30000000E+03</pdfrwt>
<pdfrwt beam="2">0</pdfrwt>
<totfact> 0.25048751E+01</totfact>
</mgrwt>
</event>
<event>
 6    1  0.1969531E-004  0.3000000E+03  0.7818608E-02  0.1093470E+00
          1   -1    0    0  502    0  0.00000000000E+00  0.00000000000E+00  0.31250802008E+02  0.31250802008E+02  0.00000000000E+00 0.  1.
         13   -1    0    0    0    0 -0.00000000000E+00 -0.00000000000E+00 -0.10000000000E+04  0.10000000000E+04  0.00000000000E+00 0.  1.
    9000005    2    1    2  501    0  0.14054618365E+02 -0.15824521046E+02 -0.93808654945E+03  0.99399297358E+03  0.32797516598E+03 0.  0.
         13    1    3    3    0    0  0.33781836036E+02 -0.87224736234E+02 -0.90996406414E+03  0.91475896556E+03  0.00000000000E+00 0.  1.
          1    1    3    3  501    0 -0.19727217672E+02  0.71400215188E+02 -0.28122485311E+02  0.79234008014E+02  0.00000000000E+00 0.  1.
         21    1    1    2  502  501 -0.14054618365E+02  0.15824521046E+02 -0.30662648546E+02  0.37257828433E+02  0.00000000000E+00 0. -1.
<mgrwt>
<rscale>  1 0.30000000E+03</rscale>
<asrwt>0</asrwt>
<pdfrwt beam="1">  1        1 0.11363952E+00 0.30000000E+03</pdfrwt>
<pdfrwt beam="2">0</pdfrwt>
<totfact> 0.28276634E+01</totfact>
</mgrwt>
</event>
<event>
 6    1  0.1969531E-004  0.3000000E+03  0.7818608E-02  0.1093470E+00
          1   -1    0    0  502    0  0.00000000000E+00  0.00000000000E+00  0.44702714360E+02  0.44702714360E+02  0.00000000000E+00 0.  1.
         13   -1    0    0    0    0 -0.00000000000E+00 -0.00000000000E+00 -0.10000000000E+04  0.10000000000E+04  0.00000000000E+00 0.  1.
    9000005    2    1    2  501    0 -0.12346175757E+02  0.67666187080E+02 -0.87197438744E+03  0.93665713928E+03  0.33504644944E+03 0.  0.
         13    1    3    3    0    0  0.12622057441E+03 -0.69666194712E+02 -0.31276443770E+03  0.34439309746E+03  0.00000000000E+00 0.  1.
          3    1    3    3  501    0 -0.13856675017E+03  0.13733238179E+03 -0.55920994974E+03  0.59226404182E+03  0.00000000000E+00 0.  1.
         21    1    1    2  502  501  0.12346175757E+02 -0.67666187080E+02 -0.83322898201E+02  0.10804557508E+03  0.00000000000E+00 0.  1.
<mgrwt>
<rscale>  1 0.30000000E+03</rscale>
<asrwt>0</asrwt>
<pdfrwt beam="1">  1        1 0.16255567E+00 0.30000000E+03</pdfrwt>
<pdfrwt beam="2">0</pdfrwt>
<totfact> 0.15543053E+01</totfact>
</mgrwt>
</event>
<event>
 6    1  0.1969531E-004  0.3000000E+03  0.7818608E-02  0.1093470E+00
          1   -1    0    0  502    0  0.00000000000E+00  0.00000000000E+00  0.47475896614E+02  0.47475896614E+02  0.00000000000E+00 0.  1.
         13   -1    0    0    0    0 -0.00000000000E+00 -0.00000000000E+00 -0.10000000000E+04  0.10000000000E+04  0.00000000000E+00 0.  1.
    9000005    2    1    2  501    0  0.13613003603E+02 -0.11974391669E+02 -0.97148250241E+03  0.10212438396E+04  0.31437561526E+03 0.  0.
         13    1    3    3    0    0 -0.13475806415E+03  0.59677892740E+02 -0.39192110987E+03  0.41871630383E+03  0.00000000000E+00 0.  1.
          3    1    3    3  501    0  0.14837106775E+03 -0.71652284409E+02 -0.57956139254E+03  0.60252753574E+03  0.00000000000E+00 0.  1.
         21    1    1    2  502  501 -0.13613003603E+02  0.11974391669E+02  0.18958399021E+02  0.26232057036E+02  0.00000000000E+00 0.  1.
<mgrwt>
<rscale>  1 0.30000000E+03</rscale>
<asrwt>0</asrwt>
<pdfrwt beam="1">  1        1 0.17263999E+00 0.30000000E+03</pdfrwt>
<pdfrwt beam="2">0</pdfrwt>
<totfact> 0.13869705E+01</totfact>
</mgrwt>
</event>
<event>
 6    1  0.1969531E-004  0.3000000E+03  0.7818608E-02  0.1093470E+00
          1   -1    0    0  502    0  0.00000000000E+00  0.00000000000E+00  0.29645017488E+02  0.29645017488E+02  0.00000000000E+00 0.  1.
         13   -1    0    0    0    0 -0.00000000000E+00 -0.00000000000E+00 -0.10000000000E+04  0.10000000000E+04  0.00000000000E+00 0.  1.
    9000005    2    1    2  501    0  0.13559735465E+02 -0.15914762248E+02 -0.95891829376E+03  0.10058134432E+04  0.30281882759E+03 0.  0.
         13    1    3    3    0    0 -0.12576472628E+02  0.11577720498E+03 -0.73923069004E+03  0.74834787495E+03  0.00000000000E+00 0.  1.
          3    1    3    3  501    0  0.26136208092E+02 -0.13169196722E+03 -0.21968760372E+03  0.25746556825E+03  0.00000000000E+00 0.  1.
         21    1    1    2  502  501 -0.13559735465E+02  0.15914762248E+02 -0.11436688754E+02  0.23831574286E+02  0.00000000000E+00 0. -1.
<mgrwt>
<rscale>  1 0.30000000E+03</rscale>
<asrwt>0</asrwt>
<pdfrwt beam="1">  1        1 0.10780029E+00 0.30000000E+03</pdfrwt>
<pdfrwt beam="2">0</pdfrwt>
<totfact> 0.30626198E+01</totfact>
</mgrwt>
</event>
<event>
 6    1  0.1969531E-004  0.3000000E+03  0.7818608E-02  0.1093470E+00
          1   -1    0    0  502    0  0.00000000000E+00  0.00000000000E+00  0.36829595237E+02  0.36829595237E+02  0.00000000000E+00 0.  1.
         13   -1    0    0    0    0 -0.00000000000E+00 -0.00000000000E+00 -0.10000000000E+04  0.10000000000E+04  0.00000000000E+00 0.  1.
    9000005    2    1    2  501    0 -0.32562220874E+01  0.12355428099E+02 -0.95301012613E+03  0.10205050478E+04  0.36474510631E+03 0.  0.
         13    1    3    3    0    0  0.17771843175E+03  0.18541023774E+02 -0.38754988353E+03  0.42675815489E+03  0.00000000000E+00 0.  1.
          1    1    3    3  501    0 -0.18097465383E+03 -0.61855956752E+01 -0.56546024260E+03  0.59374689294E+03  0.00000000000E+00 0.  1.
         21    1    1    2  502  501  0.32562220874E+01 -0.12355428099E+02 -0.10160278635E+02  0.16324547398E+02  0.00000000000E+00 0.  1.
<mgrwt>
<rscale>  1 0.30000000E+03</rscale>
<asrwt>0</asrwt>
<pdfrwt beam="1">  1        1 0.13392608E+00 0.30000000E+03</pdfrwt>
<pdfrwt beam="2">0</pdfrwt>
<totfact> 0.21788907E+01</totfact>
</mgrwt>
</event>
<event>
 6    1  0.1969531E-004  0.3000000E+03  0.7818608E-02  0.1093470E+00
          1   -1    0    0  502    0  0.00000000000E+00  0.00000000000E+00  0.32210111534E+02  0.32210111534E+02  0.00000000000E+00 0.  1.
         13   -1    0    0    0    0 -0.00000000000E+00 -0.00000000000E+00 -0.10000000000E+04  0.10000000000E+04  0.00000000000E+00 0.  1.
    9000005    2    1    2  501    0 -0.28425920150E+02  0.33249670806E+02 -0.84251612406E+03  0.89951840270E+03  0.31206788356E+03 0.  0.
         13    1    3    3    0    0  0.14040247862E+03 -0.97670493834E+01 -0.39053263720E+03  0.41511925030E+03  0.00000000000E+00 0.  1.
          1    1    3    3  501    0 -0.16882839877E+03  0.43016720190E+02 -0.45198348686E+03  0.48439915240E+03  0.00000000000E+00 0.  1.
         21    1    1    2  502  501  0.28425920150E+02 -0.33249670806E+02 -0.12527376441E+03  0.13269170883E+03  0.00000000000E+00 0.  1.
<mgrwt>
<rscale>  1 0.30000000E+03</rscale>
<asrwt>0</asrwt>
<pdfrwt beam="1">  1        1 0.11712793E+00 0.30000000E+03</pdfrwt>
<pdfrwt beam="2">0</pdfrwt>
<totfact> 0.26993175E+01</totfact>
</mgrwt>
</event>
<event>
 6    1  0.1969531E-004  0.3000000E+03  0.7818608E-02  0.1093470E+00
          1   -1    0    0  502    0  0.00000000000E+00  0.00000000000E+00  0.43389833729E+02  0.43389833729E+02  0.00000000000E+00 0.  1.
         13   -1    0    0    0    0 -0.00000000000E+00 -0.00000000000E+00 -0.10000000000E+04  0.10000000000E+04  0.00000000000E+00 0.  1.
    9000005    2    1    2  501    0  0.99413000056E+01  0.39824864899E+01 -0.92009195821E+03  0.10053337020E+04  0.40498388994E+03 0.  0.
         13    1    3    3    0    0  0.95575240003E+02 -0.82322742365E+01 -0.91356431976E+03  0.91858704714E+03  0.00000000000E+00 0.  1.
          3    1    3    3  501    0 -0.85633939997E+02  0.12214760726E+02 -0.65276384442E+01  0.86746654822E+02  0.00000000000E+00 0.  1.
         21    1    1    2  502  501 -0.99413000056E+01 -0.39824864899E+01 -0.36518208066E+02  0.38056131763E+02  0.00000000000E+00 0. -1.
<mgrwt>
<rscale>  1 0.30000000E+03</rscale>
<asrwt>0</asrwt>
<pdfrwt beam="1">  1        1 0.15778155E+00 0.30000000E+03</pdfrwt>
<pdfrwt beam="2">0</pdfrwt>
<totfact> 0.16415244E+01</totfact>
</mgrwt>
</event>
<event>
 6    1  0.1969531E-004  0.3000000E+03  0.7818608E-02  0.1093470E+00
          1   -1    0    0  502    0  0.00000000000E+00  0.00000000000E+00  0.38186441267E+02  0.38186441267E+02  0.00000000000E+00 0.  1.
         13   -1    0    0    0    0 -0.00000000000E+00 -0.00000000000E+00 -0.10000000000E+04  0.10000000000E+04  0.00000000000E+00 0.  1.
    9000005    2    1    2  501    0 -0.68785286276E+01 -0.91849462838E+01 -0.97232191847E+03  0.10226267813E+04  0.31658165342E+03 0.  0.
         13    1    3    3    0    0 -0.12892750686E+03  0.51111250166E+02 -0.23524275466E+03  0.27308206740E+03  0.00000000000E+00 0.  1.
          3    1    3    3  501    0  0.12204897823E+03 -0.60296196449E+02 -0.73707916381E+03  0.74954471388E+03  0.00000000000E+00 0.  1.
         21    1    1    2  502  501  0.68785286276E+01  0.91849462838E+01  0.10508359735E+02  0.15559659978E+02  0.00000000000E+00 0.  1.
<mgrwt>
<rscale>  1 0.30000000E+03</rscale>
<asrwt>0</asrwt>
<pdfrwt beam="1">  1        1 0.13886008E+00 0.30000000E+03</pdfrwt>
<pdfrwt beam="2">0</pdfrwt>
<totfact> 0.20513158E+01</totfact>
</mgrwt>
</event>
<event>
 6    1  0.1969531E-004  0.3000000E+03  0.7818608E-02  0.1093470E+00
          1   -1    0    0  502    0  0.00000000000E+00  0.00000000000E+00  0.36191447501E+02  0.36191447501E+02  0.00000000000E+00 0.  1.
         13   -1    0    0    0    0 -0.00000000000E+00 -0.00000000000E+00 -0.10000000000E+04  0.10000000000E+04  0.00000000000E+00 0.  1.
    9000005    2    1    2  501    0  0.17942148542E+02  0.35436683875E+02 -0.87485381998E+03  0.93877161535E+03  0.33814976002E+03 0.  0.
         13    1    3    3    0    0  0.13824628902E+03 -0.26930226816E+02 -0.71713141629E+03  0.73083154132E+03  0.00000000000E+00 0.  1.
          1    1    3    3  501    0 -0.12030414048E+03  0.62366910691E+02 -0.15772240369E+03  0.20794007404E+03  0.00000000000E+00 0.  1.
         21    1    1    2  502  501 -0.17942148542E+02 -0.35436683875E+02 -0.88954732519E+02  0.97419832149E+02  0.00000000000E+00 0. -1.
<mgrwt>
<rscale>  1 0.30000000E+03</rscale>
<asrwt>0</asrwt>
<pdfrwt beam="1">  1        1 0.13160554E+00 0.30000000E+03</pdfrwt>
<pdfrwt beam="2">0</pdfrwt>
<totfact> 0.22425208E+01</totfact>
</mgrwt>
</event>
<event>
 6    1  0.1969531E-004  0.3000000E+03  0.7818608E-02  0.1093470E+00
          1   -1    0    0  502    0  0.00000000000E+00  0.00000000000E+00  0.35291925405E+02  0.35291925405E+02  0.00000000000E+00 0.  1.
         13   -1    0    0    0    0 -0.00000000000E+00 -0.00000000000E+00 -0.10000000000E+04  0.10000000000E+04  0.00000000000E+00 0.  1.
    9000005    2    1    2  501    0 -0.48148563882E+02 -0.59612791778E+01 -0.80970695577E+03  0.87287527635E+03  0.32238497606E+03 0.  0.
         13    1    3    3    0    0 -0.13500234203E+03  0.11262194225E+03 -0.37937755093E+03  0.41813473950E+03  0.00000000000E+00 0.  1.
          3    1    3    3  501    0  0.86853778149E+02 -0.11858322142E+03 -0.43032940484E+03  0.45474053685E+03  0.00000000000E+00 0.  1.
         21    1    1    2  502  501  0.48148563882E+02  0.59612791778E+01 -0.15500111882E+03  0.16241664905E+03  0.00000000000E+00 0.  1.
<mgrwt>
<rscale>  1 0.30000000E+03</rscale>
<asrwt>0</asrwt>
<pdfrwt beam="1">  1        1 0.12833454E+00 0.30000000E+03</pdfrwt>
<pdfrwt beam="2">0</pdfrwt>
<totfact> 0.23364052E+01</totfact>
</mgrwt>
</event>
<event>
 6    1  0.1969531E-004  0.3000000E+03  0.7818608E-02  0.1093470E+00
          1   -1    0    0  502    0  0.00000000000E+00  0.00000000000E+00  0.29257450957E+02  0.29257450957E+02  0.00000000000E+00 0.  1.
         13   -1    0    0    0    0 -0.00000000000E+00 -0.00000000000E+00 -0.10000000000E+04  0.10000000000E+04  0.00000000000E+00 0.  1.
    9000005    2    1    2  501    0 -0.54794877202E+01  0.12292058350E+02 -0.95456259857E+03  0.10082120172E+04  0.32422306763E+03 0.  0.
         13    1    3    3    0    0 -0.38174066776E+02  0.14724632294E+03 -0.27178563379E+03  0.31145813479E+03  0.00000000000E+00 0.  1.
          3    1    3    3  501    0  0.32694579056E+02 -0.13495426459E+03 -0.68277696478E+03  0.69675388242E+03  0.00000000000E+00 0.  1.
         21    1    1    2  502  501  0.54794877202E+01 -0.12292058350E+02 -0.16179950476E+02  0.21045433746E+02  0.00000000000E+00 0.  1.
<mgrwt>
<rscale>  1 0.30000000E+03</rscale>
<asrwt>0</asrwt>
<pdfrwt beam="1">  1        1 0.10639096E+00 0.30000000E+03</pdfrwt>
<pdfrwt beam="2">0</pdfrwt>
<totfact> 0.31234823E+01</totfact>
</mgrwt>
</event>
<event>
 6    1  0.1969531E-004  0.3000000E+03  0.7818608E-02  0.1093470E+00
          1   -1    0    0  502    0  0.00000000000E+00  0.00000000000E+00  0.32156511850E+02  0.32156511850E+02  0.00000000000E+00 0.  1.
         13   -1    0    0    0    0 -0.00000000000E+00 -0.00000000000E+00 -0.10000000000E+04  0.10000000000E+04  0.00000000000E+00 0.  1.
    9000005    2    1    2  501    0  0.10676215941E+02  0.23569630844E+01 -0.95429767082E+03  0.10147488690E+04  0.34483573739E+03 0.  0.
         13    1    3    3    0    0 -0.12795529116E+03  0.85430144117E+02 -0.26197108813E+03  0.30380868499E+03  0.00000000000E+00 0.  1.
          3    1    3    3  501    0  0.13863150710E+03 -0.83073181032E+02 -0.69232658269E+03  0.71094018403E+03  0.00000000000E+00 0.  1.
         21    1    1    2  502  501 -0.10676215941E+02 -0.23569630844E+01 -0.13545817325E+02  0.17407642827E+02  0.00000000000E+00 0. -1.
<mgrwt>
<rscale>  1 0.30000000E+03</rscale>
<asrwt>0</asrwt>
<pdfrwt beam="1">  1        1 0.11693302E+00 0.30000000E+03</pdfrwt>
<pdfrwt beam="2">0</pdfrwt>
<totfact> 0.27062725E+01</totfact>
</mgrwt>
</event>
<event>
 6    1  0.1969531E-004  0.3000000E+03  0.7818608E-02  0.1093470E+00
          1   -1    0    0  502    0  0.00000000000E+00  0.00000000000E+00  0.31386716137E+02  0.31386716137E+02  0.00000000000E+00 0.  1.
         13   -1    0    0    0    0 -0.00000000000E+00 -0.00000000000E+00 -0.10000000000E+04  0.10000000000E+04  0.00000000000E+00 0.  1.
    9000005    2    1    2  501    0 -0.16967355214E+02  0.18764902935E+02 -0.87432354809E+03  0.93376209323E+03  0.32684853876E+03 0.  0.
         13    1    3    3    0    0 -0.51866615708E+02  0.14309326444E+03 -0.22449142961E+03  0.27122357959E+03  0.00000000000E+00 0.  1.
          3    1    3    3  501    0  0.34899260494E+02 -0.12432836151E+03 -0.64983211848E+03  0.66253851364E+03  0.00000000000E+00 0.  1.
         21    1    1    2  502  501  0.16967355214E+02 -0.18764902935E+02 -0.94289735774E+02  0.97624622906E+02  0.00000000000E+00 0. -1.
<mgrwt>
<rscale>  1 0.30000000E+03</rscale>
<asrwt>0</asrwt>
<pdfrwt beam="1">  1        1 0.11413375E+00 0.30000000E+03</pdfrwt>
<pdfrwt beam="2">0</pdfrwt>
<totfact> 0.28089657E+01</totfact>
</mgrwt>
</event>
<event>
 6    1  0.1969531E-004  0.3000000E+03  0.7818608E-02  0.1093470E+00
          1   -1    0    0  502    0  0.00000000000E+00  0.00000000000E+00  0.29636540699E+02  0.29636540699E+02  0.00000000000E+00 0.  1.
         13   -1    0    0    0    0 -0.00000000000E+00 -0.00000000000E+00 -0.10000000000E+04  0.10000000000E+04  0.00000000000E+00 0.  1.
    9000005    2    1    2  501    0 -0.10062216811E+02  0.65130354591E+01 -0.95606592491E+03  0.10109794421E+04  0.32844133686E+03 0.  0.
         13    1    3    3    0    0 -0.66545907177E+02 -0.25626788000E+02 -0.94173447298E+03  0.94443046733E+03  0.00000000000E+00 0.  1.
          1    1    3    3  501    0  0.56483690366E+02  0.32139823459E+02 -0.14331451925E+02  0.66548974775E+02  0.00000000000E+00 0.  1.
         21    1    1    2  502  501  0.10062216811E+02 -0.65130354591E+01 -0.14297534395E+02  0.18657098591E+02  0.00000000000E+00 0.  1.
<mgrwt>
<rscale>  1 0.30000000E+03</rscale>
<asrwt>0</asrwt>
<pdfrwt beam="1">  1        1 0.10776947E+00 0.30000000E+03</pdfrwt>
<pdfrwt beam="2">0</pdfrwt>
<totfact> 0.30639327E+01</totfact>
</mgrwt>
</event>
<event>
 6    1  0.1969531E-004  0.3000000E+03  0.7818608E-02  0.1093470E+00
          1   -1    0    0  502    0  0.00000000000E+00  0.00000000000E+00  0.31747111714E+02  0.31747111714E+02  0.00000000000E+00 0.  1.
         13   -1    0    0    0    0 -0.00000000000E+00 -0.00000000000E+00 -0.10000000000E+04  0.10000000000E+04  0.00000000000E+00 0.  1.
    9000005    2    1    2  501    0  0.52326070236E+01  0.39451564477E+02 -0.88040392125E+03  0.93530413827E+03  0.31320753569E+03 0.  0.
         13    1    3    3    0    0  0.90574270324E+01  0.17342736570E+03 -0.39007346163E+03  0.42698523818E+03  0.00000000000E+00 0.  1.
          1    1    3    3  501    0 -0.38248200088E+01 -0.13397580122E+03 -0.49033045962E+03  0.50831890010E+03  0.00000000000E+00 0.  1.
         21    1    1    2  502  501 -0.52326070236E+01 -0.39451564477E+02 -0.87848967039E+02  0.96442973439E+02  0.00000000000E+00 0. -1.
<mgrwt>
<rscale>  1 0.30000000E+03</rscale>
<asrwt>0</asrwt>
<pdfrwt beam="1">  1        1 0.11544429E+00 0.30000000E+03</pdfrwt>
<pdfrwt beam="2">0</pdfrwt>
<totfact> 0.27602224E+01</totfact>
</mgrwt>
</event>
<event>
 6    1  0.1969531E-004  0.3000000E+03  0.7818608E-02  0.1093470E+00
          1   -1    0    0  502    0  0.00000000000E+00  0.00000000000E+00  0.62279797383E+02  0.62279797383E+02  0.00000000000E+00 0.  1.
         13   -1    0    0    0    0 -0.00000000000E+00 -0.00000000000E+00 -0.10000000000E+04  0.10000000000E+04  0.00000000000E+00 0.  1.
    9000005    2    1    2  501    0  0.44010882913E+01  0.23431923510E+02 -0.96856450149E+03  0.10232952442E+04  0.32931373878E+03 0.  0.
         13    1    3    3    0    0 -0.20470521897E+02  0.14662836875E+03 -0.79692470776E+03  0.81056024491E+03  0.00000000000E+00 0.  1.
          3    1    3    3  501    0  0.24871610189E+02 -0.12319644524E+03 -0.17163979373E+03  0.21273499925E+03  0.00000000000E+00 0.  1.
         21    1    1    2  502  501 -0.44010882913E+01 -0.23431923510E+02  0.30844298871E+02  0.38984553227E+02  0.00000000000E+00 0.  1.
<mgrwt>
<rscale>  1 0.30000000E+03</rscale>
<asrwt>0</asrwt>
<pdfrwt beam="1">  1        1 0.22647247E+00 0.30000000E+03</pdfrwt>
<pdfrwt beam="2">0</pdfrwt>
<totfact> 0.76873148E+00</totfact>
</mgrwt>
</event>
<event>
 6    1  0.1969531E-004  0.3000000E+03  0.7818608E-02  0.1093470E+00
          1   -1    0    0  502    0  0.00000000000E+00  0.00000000000E+00  0.31604810347E+02  0.31604810347E+02  0.00000000000E+00 0.  1.
         13   -1    0    0    0    0 -0.00000000000E+00 -0.00000000000E+00 -0.10000000000E+04  0.10000000000E+04  0.00000000000E+00 0.  1.
    9000005    2    1    2  501    0  0.17630457747E+02 -0.37438711209E+02 -0.90845651365E+03  0.95876845254E+03  0.30369593060E+03 0.  0.
         13    1    3    3    0    0  0.10060070401E+03 -0.12109780719E+03 -0.71603793197E+03  0.73314084634E+03  0.00000000000E+00 0.  1.
          1    1    3    3  501    0 -0.82970246258E+02  0.83659095982E+02 -0.19241858168E+03  0.22562760620E+03  0.00000000000E+00 0.  1.
         21    1    1    2  502  501 -0.17630457747E+02  0.37438711209E+02 -0.59938676007E+02  0.72836357808E+02  0.00000000000E+00 0. -1.
<mgrwt>
<rscale>  1 0.30000000E+03</rscale>
<asrwt>0</asrwt>
<pdfrwt beam="1">  1        1 0.11492683E+00 0.30000000E+03</pdfrwt>
<pdfrwt beam="2">0</pdfrwt>
<totfact> 0.27793255E+01</totfact>
</mgrwt>
</event>
<event>
 6    1  0.1969531E-004  0.3000000E+03  0.7818608E-02  0.1093470E+00
          1   -1    0    0  502    0  0.00000000000E+00  0.00000000000E+00  0.43606273310E+02  0.43606273310E+02  0.00000000000E+00 0.  1.
         13   -1    0    0    0    0 -0.00000000000E+00 -0.00000000000E+00 -0.10000000000E+04  0.10000000000E+04  0.00000000000E+00 0.  1.
    9000005    2    1    2  501    0 -0.22331121037E+02 -0.23814522832E+02 -0.95578554417E+03  0.10109538561E+04  0.32777413295E+03 0.  0.
         13    1    3    3    0    0 -0.16204064393E+02 -0.17496510319E+03 -0.45225775364E+03  0.48519319324E+03  0.00000000000E+00 0.  1.
          3    1    3    3  501    0 -0.61270566436E+01  0.15115058036E+03 -0.50352779053E+03  0.52576066285E+03  0.00000000000E+00 0.  1.
         21    1    1    2  502  501  0.22331121037E+02  0.23814522832E+02 -0.60818252192E+00  0.32652417222E+02  0.00000000000E+00 0.  1.
<mgrwt>
<rscale>  1 0.30000000E+03</rscale>
<asrwt>0</asrwt>
<pdfrwt beam="1">  1        1 0.15856860E+00 0.30000000E+03</pdfrwt>
<pdfrwt beam="2">0</pdfrwt>
<totfact> 0.16267595E+01</totfact>
</mgrwt>
</event>
<event>
 6    1  0.1969531E-004  0.3000000E+03  0.7818608E-02  0.1093470E+00
          1   -1    0    0  502    0  0.00000000000E+00  0.00000000000E+00  0.31707945059E+02  0.31707945059E+02  0.00000000000E+00 0.  1.
         13   -1    0    0    0    0 -0.00000000000E+00 -0.00000000000E+00 -0.10000000000E+04  0.10000000000E+04  0.00000000000E+00 0.  1.
    9000005    2    1    2  501    0 -0.10683140214E+02 -0.13737038002E+02 -0.96037118355E+03  0.10125879058E+04  0.32049745875E+03 0.  0.
         13    1    3    3    0    0  0.66276599165E+01  0.14319564203E+03 -0.28515855463E+03  0.31916190100E+03  0.00000000000E+00 0.  1.
          3    1    3    3  501    0 -0.17310800131E+02 -0.15693268003E+03 -0.67521262893E+03  0.69342600480E+03  0.00000000000E+00 0.  1.
         21    1    1    2  502  501  0.10683140214E+02  0.13737038002E+02 -0.79208713869E+01  0.19120039263E+02  0.00000000000E+00 0. -1.
<mgrwt>
<rscale>  1 0.30000000E+03</rscale>
<asrwt>0</asrwt>
<pdfrwt beam="1">  1        1 0.11530186E+00 0.30000000E+03</pdfrwt>
<pdfrwt beam="2">0</pdfrwt>
<totfact> 0.27654619E+01</totfact>
</mgrwt>
</event>
<event>
 6    1  0.1969531E-004  0.3000000E+03  0.7818608E-02  0.1093470E+00
          3   -1    0    0  502    0  0.00000000000E+00  0.00000000000E+00  0.37071502834E+02  0.37071502834E+02  0.00000000000E+00 0.  1.
         13   -1    0    0    0    0 -0.00000000000E+00 -0.00000000000E+00 -0.10000000000E+04  0.10000000000E+04  0.00000000000E+00 0.  1.
    9000005    2    1    2  501    0 -0.39186284178E+01  0.12711751677E+02 -0.97295361779E+03  0.10204147528E+04  0.30729559225E+03 0.  0.
         13    1    3    3    0    0 -0.14108582622E+03  0.25570810921E+02 -0.28771311486E+03  0.32146214892E+03  0.00000000000E+00 0.  1.
          3    1    3    3  501    0  0.13716719780E+03 -0.12859059244E+02 -0.68524050293E+03  0.69895260384E+03  0.00000000000E+00 0.  1.
         21    1    1    2  502  501  0.39186284178E+01 -0.12711751677E+02  0.10025120621E+02  0.16656750068E+02  0.00000000000E+00 0.  1.
<mgrwt>
<rscale>  1 0.30000000E+03</rscale>
<asrwt>0</asrwt>
<pdfrwt beam="1">  1        3 0.13480575E+00 0.30000000E+03</pdfrwt>
<pdfrwt beam="2">0</pdfrwt>
<totfact> 0.15517657E+00</totfact>
</mgrwt>
</event>
<event>
 6    1  0.1969531E-004  0.3000000E+03  0.7818608E-02  0.1093470E+00
          1   -1    0    0  502    0  0.00000000000E+00  0.00000000000E+00  0.68074889657E+02  0.68074889657E+02  0.00000000000E+00 0.  1.
         13   -1    0    0    0    0 -0.00000000000E+00 -0.00000000000E+00 -0.10000000000E+04  0.10000000000E+04  0.00000000000E+00 0.  1.
    9000005    2    1    2  501    0  0.31087128974E+00 -0.97876036075E+02 -0.89517970556E+03  0.96352805876E+03  0.34272408682E+03 0.  0.
         13    1    3    3    0    0  0.15063973527E+03 -0.69719519953E+02 -0.67718825636E+03  0.69723530881E+03  0.00000000000E+00 0.  1.
          1    1    3    3  501    0 -0.15032886398E+03 -0.28156516122E+02 -0.21799144920E+03  0.26629274995E+03  0.00000000000E+00 0.  1.
         21    1    1    2  502  501 -0.31087128974E+00  0.97876036075E+02 -0.36745404781E+02  0.10454683090E+03  0.00000000000E+00 0.  1.
<mgrwt>
<rscale>  1 0.30000000E+03</rscale>
<asrwt>0</asrwt>
<pdfrwt beam="1">  1        1 0.24754558E+00 0.30000000E+03</pdfrwt>
<pdfrwt beam="2">0</pdfrwt>
<totfact> 0.61252409E+00</totfact>
</mgrwt>
</event>
<event>
 6    1  0.1969531E-004  0.3000000E+03  0.7818608E-02  0.1093470E+00
          1   -1    0    0  502    0  0.00000000000E+00  0.00000000000E+00  0.42733960456E+02  0.42733960456E+02  0.00000000000E+00 0.  1.
         13   -1    0    0    0    0 -0.00000000000E+00 -0.00000000000E+00 -0.10000000000E+04  0.10000000000E+04  0.00000000000E+00 0.  1.
    9000005    2    1    2  501    0 -0.57772298458E+02 -0.25543124056E+02 -0.89786878936E+03  0.95602685010E+03  0.32222489905E+03 0.  0.
         13    1    3    3    0    0 -0.17409288932E+03  0.26594063713E+02 -0.33027650115E+03  0.37429686821E+03  0.00000000000E+00 0.  1.
          1    1    3    3  501    0  0.11632059087E+03 -0.52137187768E+02 -0.56759228820E+03  0.58172998190E+03  0.00000000000E+00 0.  1.
         21    1    1    2  502  501  0.57772298458E+02  0.25543124056E+02 -0.59397250187E+02  0.86707110351E+02  0.00000000000E+00 0.  1.
<mgrwt>
<rscale>  1 0.30000000E+03</rscale>
<asrwt>0</asrwt>
<pdfrwt beam="1">  1        1 0.15539655E+00 0.30000000E+03</pdfrwt>
<pdfrwt beam="2">0</pdfrwt>
<totfact> 0.16872458E+01</totfact>
</mgrwt>
</event>
<event>
 6    1  0.1969531E-004  0.3000000E+03  0.7818608E-02  0.1093470E+00
          1   -1    0    0  502    0  0.00000000000E+00  0.00000000000E+00  0.55480172646E+02  0.55480172646E+02  0.00000000000E+00 0.  1.
         13   -1    0    0    0    0 -0.00000000000E+00 -0.00000000000E+00 -0.10000000000E+04  0.10000000000E+04  0.00000000000E+00 0.  1.
    9000005    2    1    2  501    0  0.19474321383E+01  0.29549440085E+02 -0.93843721305E+03  0.10252483997E+04  0.41181660513E+03 0.  0.
         13    1    3    3    0    0 -0.17644404940E+03 -0.82044716799E+02 -0.35200871531E+03  0.40221135461E+03  0.00000000000E+00 0.  1.
          3    1    3    3  501    0  0.17839148154E+03  0.11159415688E+03 -0.58642849774E+03  0.62303704505E+03  0.00000000000E+00 0.  1.
         21    1    1    2  502  501 -0.19474321383E+01 -0.29549440085E+02 -0.60826143033E+01  0.30231772988E+02  0.00000000000E+00 0.  1.
<mgrwt>
<rscale>  1 0.30000000E+03</rscale>
<asrwt>0</asrwt>
<pdfrwt beam="1">  1        1 0.20174651E+00 0.30000000E+03</pdfrwt>
<pdfrwt beam="2">0</pdfrwt>
<totfact> 0.10049553E+01</totfact>
</mgrwt>
</event>
<event>
 6    1  0.1969531E-004  0.3000000E+03  0.7818608E-02  0.1093470E+00
          1   -1    0    0  502    0  0.00000000000E+00  0.00000000000E+00  0.33657854978E+02  0.33657854978E+02  0.00000000000E+00 0.  1.
         13   -1    0    0    0    0 -0.00000000000E+00 -0.00000000000E+00 -0.10000000000E+04  0.10000000000E+04  0.00000000000E+00 0.  1.
    9000005    2    1    2  501    0 -0.66816713140E+01  0.77532377466E+01 -0.96879118495E+03  0.10231338242E+04  0.32884906079E+03 0.  0.
         13    1    3    3    0    0 -0.71936819825E+02  0.33713944153E+02 -0.94595435682E+03  0.94928456285E+03  0.00000000000E+00 0.  1.
          3    1    3    3  501    0  0.65255148511E+02 -0.25960706406E+02 -0.22836828124E+02  0.73849261357E+02  0.00000000000E+00 0.  1.
         21    1    1    2  502  501  0.66816713140E+01 -0.77532377466E+01  0.24490399240E+01  0.10524030770E+02  0.00000000000E+00 0.  1.
<mgrwt>
<rscale>  1 0.30000000E+03</rscale>
<asrwt>0</asrwt>
<pdfrwt beam="1">  1        1 0.12239246E+00 0.30000000E+03</pdfrwt>
<pdfrwt beam="2">0</pdfrwt>
<totfact> 0.25202790E+01</totfact>
</mgrwt>
</event>
<event>
 6    1  0.1969531E-004  0.3000000E+03  0.7818608E-02  0.1093470E+00
          1   -1    0    0  502    0  0.00000000000E+00  0.00000000000E+00  0.78807225343E+02  0.78807225343E+02  0.00000000000E+00 0.  1.
         13   -1    0    0    0    0 -0.00000000000E+00 -0.00000000000E+00 -0.10000000000E+04  0.10000000000E+04  0.00000000000E+00 0.  1.
    9000005    2    1    2  501    0 -0.64664896372E+01  0.12006721675E+02 -0.96849671924E+03  0.10295767467E+04  0.34907936826E+03 0.  0.
         13    1    3    3    0    0 -0.13540501249E+03  0.12015870362E+03 -0.49611818739E+03  0.52811541099E+03  0.00000000000E+00 0.  1.
          3    1    3    3  501    0  0.12893852286E+03 -0.10815198195E+03 -0.47237853185E+03  0.50146133572E+03  0.00000000000E+00 0.  1.
         21    1    1    2  502  501  0.64664896372E+01 -0.12006721675E+02  0.47303944579E+02  0.49230478632E+02  0.00000000000E+00 0.  1.
<mgrwt>
<rscale>  1 0.30000000E+03</rscale>
<asrwt>0</asrwt>
<pdfrwt beam="1">  1        1 0.28657233E+00 0.30000000E+03</pdfrwt>
<pdfrwt beam="2">0</pdfrwt>
<totfact> 0.40217552E+00</totfact>
</mgrwt>
</event>
<event>
 6    1  0.1969531E-004  0.3000000E+03  0.7818608E-02  0.1093470E+00
          1   -1    0    0  502    0  0.00000000000E+00  0.00000000000E+00  0.31047417802E+02  0.31047417802E+02  0.00000000000E+00 0.  1.
         13   -1    0    0    0    0 -0.00000000000E+00 -0.00000000000E+00 -0.10000000000E+04  0.10000000000E+04  0.00000000000E+00 0.  1.
    9000005    2    1    2  501    0 -0.73366986326E+01  0.71981356715E+01 -0.96476551546E+03  0.10199491372E+04  0.33078407217E+03 0.  0.
         13    1    3    3    0    0 -0.10141578802E+03 -0.74462448466E+02 -0.15029356912E+03  0.19600503873E+03  0.00000000000E+00 0.  1.
          3    1    3    3  501    0  0.94079089382E+02  0.81660584137E+02 -0.81447194634E+03  0.82394409849E+03  0.00000000000E+00 0.  1.
         21    1    1    2  502  501  0.73366986326E+01 -0.71981356715E+01 -0.41870667429E+01  0.11098280582E+02  0.00000000000E+00 0. -1.
<mgrwt>
<rscale>  1 0.30000000E+03</rscale>
<asrwt>0</asrwt>
<pdfrwt beam="1">  1        1 0.11289994E+00 0.30000000E+03</pdfrwt>
<pdfrwt beam="2">0</pdfrwt>
<totfact> 0.28559748E+01</totfact>
</mgrwt>
</event>
<event>
 6    1  0.1969531E-004  0.3000000E+03  0.7818608E-02  0.1093470E+00
          1   -1    0    0  502    0  0.00000000000E+00  0.00000000000E+00  0.30279966690E+02  0.30279966690E+02  0.00000000000E+00 0.  1.
         13   -1    0    0    0    0 -0.00000000000E+00 -0.00000000000E+00 -0.10000000000E+04  0.10000000000E+04  0.00000000000E+00 0.  1.
    9000005    2    1    2  501    0  0.16652822907E+02 -0.27543136319E+00 -0.95285803745E+03  0.10065793490E+04  0.32401566935E+03 0.  0.
         13    1    3    3    0    0  0.16589747068E+03  0.33755694413E+02 -0.55680423146E+03  0.58197282570E+03  0.00000000000E+00 0.  1.
          3    1    3    3  501    0 -0.14924464778E+03 -0.34031125777E+02 -0.39605380599E+03  0.42460652333E+03  0.00000000000E+00 0.  1.
         21    1    1    2  502  501 -0.16652822907E+02  0.27543136319E+00 -0.16861995857E+02  0.23700617661E+02  0.00000000000E+00 0.  1.
<mgrwt>
<rscale>  1 0.30000000E+03</rscale>
<asrwt>0</asrwt>
<pdfrwt beam="1">  1        1 0.11010920E+00 0.30000000E+03</pdfrwt>
<pdfrwt beam="2">0</pdfrwt>
<totfact> 0.29665163E+01</totfact>
</mgrwt>
</event>
<event>
 6    1  0.1969531E-004  0.3000000E+03  0.7818608E-02  0.1093470E+00
          3   -1    0    0  502    0  0.00000000000E+00  0.00000000000E+00  0.20573461488E+02  0.20573461488E+02  0.00000000000E+00 0.  1.
         13   -1    0    0    0    0 -0.00000000000E+00 -0.00000000000E+00 -0.10000000000E+04  0.10000000000E+04  0.00000000000E+00 0.  1.
    9000005    2    1    2  501    0 -0.79689426851E+01 -0.25584161143E+02 -0.92319811666E+03  0.95828631375E+03  0.25553833993E+03 0.  0.
         13    1    3    3    0    0 -0.10666051498E+03 -0.88816010355E+02 -0.54085879800E+03  0.55838426601E+03  0.00000000000E+00 0.  1.
          1    1    3    3  501    0  0.98691572299E+02  0.63231849212E+02 -0.38233931866E+03  0.39990204775E+03  0.00000000000E+00 0.  1.
         21    1    1    2  502  501  0.79689426851E+01  0.25584161143E+02 -0.56228421851E+02  0.62287147733E+02  0.00000000000E+00 0. -1.
<mgrwt>
<rscale>  1 0.30000000E+03</rscale>
<asrwt>0</asrwt>
<pdfrwt beam="1">  1        3 0.74812745E-01 0.30000000E+03</pdfrwt>
<pdfrwt beam="2">0</pdfrwt>
<totfact> 0.77493295E+00</totfact>
</mgrwt>
</event>
<event>
 6    1  0.1969531E-004  0.3000000E+03  0.7818608E-02  0.1093470E+00
          1   -1    0    0  502    0  0.00000000000E+00  0.00000000000E+00  0.54064299057E+02  0.54064299057E+02  0.00000000000E+00 0.  1.
         13   -1    0    0    0    0 -0.00000000000E+00 -0.00000000000E+00 -0.10000000000E+04  0.10000000000E+04  0.00000000000E+00 0.  1.
    9000005    2    1    2  501    0 -0.10955559742E+03 -0.45218428860E+02 -0.74037540603E+03  0.81678351585E+03  0.32393276258E+03 0.  0.
         13    1    3    3    0    0 -0.11279950412E+03  0.43384406639E+02 -0.71417863197E+03  0.72433214290E+03  0.00000000000E+00 0.  1.
          3    1    3    3  501    0  0.32439067016E+01 -0.88602835499E+02 -0.26196774053E+02  0.92451372948E+02  0.00000000000E+00 0.  1.
         21    1    1    2  502  501  0.10955559742E+03  0.45218428860E+02 -0.20556029492E+03  0.23728078321E+03  0.00000000000E+00 0.  1.
<mgrwt>
<rscale>  1 0.30000000E+03</rscale>
<asrwt>0</asrwt>
<pdfrwt beam="1">  1        1 0.19659787E+00 0.30000000E+03</pdfrwt>
<pdfrwt beam="2">0</pdfrwt>
<totfact> 0.10632445E+01</totfact>
</mgrwt>
</event>
<event>
 6    1  0.1969531E-004  0.3000000E+03  0.7818608E-02  0.1093470E+00
          1   -1    0    0  502    0  0.00000000000E+00  0.00000000000E+00  0.32364145129E+02  0.32364145129E+02  0.00000000000E+00 0.  1.
         13   -1    0    0    0    0 -0.00000000000E+00 -0.00000000000E+00 -0.10000000000E+04  0.10000000000E+04  0.00000000000E+00 0.  1.
    9000005    2    1    2  501    0 -0.90824786333E+01  0.21782706758E+02 -0.88323868080E+03  0.94472933057E+03  0.33443379471E+03 0.  0.
         13    1    3    3    0    0  0.27802841224E+02 -0.14861428449E+03 -0.29930824658E+03  0.33532764576E+03  0.00000000000E+00 0.  1.
          1    1    3    3  501    0 -0.36885319857E+02  0.17039699125E+03 -0.58393043422E+03  0.60940168481E+03  0.00000000000E+00 0.  1.
         21    1    1    2  502  501  0.90824786333E+01 -0.21782706758E+02 -0.84397174068E+02  0.87634814557E+02  0.00000000000E+00 0.  1.
<mgrwt>
<rscale>  1 0.30000000E+03</rscale>
<asrwt>0</asrwt>
<pdfrwt beam="1">  1        1 0.11768805E+00 0.30000000E+03</pdfrwt>
<pdfrwt beam="2">0</pdfrwt>
<totfact> 0.26794668E+01</totfact>
</mgrwt>
</event>
<event>
 6    1  0.1969531E-004  0.3000000E+03  0.7818608E-02  0.1093470E+00
          1   -1    0    0  502    0  0.00000000000E+00  0.00000000000E+00  0.32277063146E+02  0.32277063146E+02  0.00000000000E+00 0.  1.
         13   -1    0    0    0    0 -0.00000000000E+00 -0.00000000000E+00 -0.10000000000E+04  0.10000000000E+04  0.00000000000E+00 0.  1.
    9000005    2    1    2  501    0 -0.54187114258E+00  0.11988911295E+02 -0.96822209559E+03  0.10202655363E+04  0.32147116589E+03 0.  0.
         13    1    3    3    0    0  0.12335491762E+03 -0.69552470085E+02 -0.69598162641E+03  0.71024249809E+03  0.00000000000E+00 0.  1.
          3    1    3    3  501    0 -0.12389678876E+03  0.81541381380E+02 -0.27224046919E+03  0.31002303818E+03  0.00000000000E+00 0.  1.
         21    1    1    2  502  501  0.54187114258E+00 -0.11988911295E+02  0.49915873594E+00  0.12011526873E+02  0.00000000000E+00 0.  1.
<mgrwt>
<rscale>  1 0.30000000E+03</rscale>
<asrwt>0</asrwt>
<pdfrwt beam="1">  1        1 0.11737139E+00 0.30000000E+03</pdfrwt>
<pdfrwt beam="2">0</pdfrwt>
<totfact> 0.26906646E+01</totfact>
</mgrwt>
</event>
<event>
 6    1  0.1969531E-004  0.3000000E+03  0.7818608E-02  0.1093470E+00
          1   -1    0    0  502    0  0.00000000000E+00  0.00000000000E+00  0.33566349610E+02  0.33566349610E+02  0.00000000000E+00 0.  1.
         13   -1    0    0    0    0 -0.00000000000E+00 -0.00000000000E+00 -0.10000000000E+04  0.10000000000E+04  0.00000000000E+00 0.  1.
    9000005    2    1    2  501    0  0.14387572294E+02  0.48292231310E+01 -0.96231587589E+03  0.10178412201E+04  0.33123795166E+03 0.  0.
         13    1    3    3    0    0  0.68095891970E+02  0.14386465634E+03 -0.68239391717E+03  0.70071074491E+03  0.00000000000E+00 0.  1.
          1    1    3    3  501    0 -0.53708319676E+02 -0.13903543321E+03 -0.27992195873E+03  0.31713047515E+03  0.00000000000E+00 0.  1.
         21    1    1    2  502  501 -0.14387572294E+02 -0.48292231310E+01 -0.41177744968E+01  0.15725129550E+02  0.00000000000E+00 0.  1.
<mgrwt>
<rscale>  1 0.30000000E+03</rscale>
<asrwt>0</asrwt>
<pdfrwt beam="1">  1        1 0.12205971E+00 0.30000000E+03</pdfrwt>
<pdfrwt beam="2">0</pdfrwt>
<totfact> 0.25311180E+01</totfact>
</mgrwt>
</event>
<event>
 6    1  0.1969531E-004  0.3000000E+03  0.7818608E-02  0.1093470E+00
          1   -1    0    0  502    0  0.00000000000E+00  0.00000000000E+00  0.32569371763E+02  0.32569371763E+02  0.00000000000E+00 0.  1.
         13   -1    0    0    0    0 -0.00000000000E+00 -0.00000000000E+00 -0.10000000000E+04  0.10000000000E+04  0.00000000000E+00 0.  1.
    9000005    2    1    2  501    0 -0.54862443814E+01 -0.15102904827E+02 -0.95783109508E+03  0.10138517958E+04  0.33195912491E+03 0.  0.
         13    1    3    3    0    0  0.13877830361E+03  0.51632702965E+02 -0.65841046901E+03  0.67485531729E+03  0.00000000000E+00 0.  1.
          1    1    3    3  501    0 -0.14426454799E+03 -0.66735607792E+02 -0.29942062607E+03  0.33899647855E+03  0.00000000000E+00 0.  1.
         21    1    1    2  502  501  0.54862443814E+01  0.15102904827E+02 -0.95995331538E+01  0.18717575922E+02  0.00000000000E+00 0.  1.
<mgrwt>
<rscale>  1 0.30000000E+03</rscale>
<asrwt>0</asrwt>
<pdfrwt beam="1">  1        1 0.11843433E+00 0.30000000E+03</pdfrwt>
<pdfrwt beam="2">0</pdfrwt>
<totfact> 0.26533277E+01</totfact>
</mgrwt>
</event>
<event>
 6    1  0.1969531E-004  0.3000000E+03  0.7818608E-02  0.1093470E+00
          1   -1    0    0  502    0  0.00000000000E+00  0.00000000000E+00  0.42020609289E+02  0.42020609289E+02  0.00000000000E+00 0.  1.
         13   -1    0    0    0    0 -0.00000000000E+00 -0.00000000000E+00 -0.10000000000E+04  0.10000000000E+04  0.00000000000E+00 0.  1.
    9000005    2    1    2  501    0 -0.73763113033E+02 -0.33249904972E+02 -0.80912918889E+03  0.87260120188E+03  0.31653792850E+03 0.  0.
         13    1    3    3    0    0 -0.15863720950E+03  0.76583441893E+02 -0.56436628073E+03  0.59121915280E+03  0.00000000000E+00 0.  1.
          1    1    3    3  501    0  0.84874096465E+02 -0.10983334687E+03 -0.24476290817E+03  0.28138204909E+03  0.00000000000E+00 0.  1.
         21    1    1    2  502  501  0.73763113033E+02  0.33249904972E+02 -0.14885020182E+03  0.16941940741E+03  0.00000000000E+00 0. -1.
<mgrwt>
<rscale>  1 0.30000000E+03</rscale>
<asrwt>0</asrwt>
<pdfrwt beam="1">  1        1 0.15280254E+00 0.30000000E+03</pdfrwt>
<pdfrwt beam="2">0</pdfrwt>
<totfact> 0.17387189E+01</totfact>
</mgrwt>
</event>
<event>
 6    1  0.1969531E-004  0.3000000E+03  0.7818608E-02  0.1093470E+00
          1   -1    0    0  502    0  0.00000000000E+00  0.00000000000E+00  0.55703163486E+02  0.55703163486E+02  0.00000000000E+00 0.  1.
         13   -1    0    0    0    0 -0.00000000000E+00 -0.00000000000E+00 -0.10000000000E+04  0.10000000000E+04  0.00000000000E+00 0.  1.
    9000005    2    1    2  501    0  0.14469024232E+03 -0.56476158256E+02 -0.72295150747E+03  0.78529869354E+03  0.26440562259E+03 0.  0.
         13    1    3    3    0    0 -0.29352889913E+02 -0.13456798078E+02 -0.49137403333E+03  0.49243387190E+03  0.00000000000E+00 0.  1.
          1    1    3    3  501    0  0.17404313224E+03 -0.43019360178E+02 -0.23157747413E+03  0.29286482164E+03  0.00000000000E+00 0.  1.
         21    1    1    2  502  501 -0.14469024232E+03  0.56476158256E+02 -0.22134532905E+03  0.27040446995E+03  0.00000000000E+00 0.  1.
<mgrwt>
<rscale>  1 0.30000000E+03</rscale>
<asrwt>0</asrwt>
<pdfrwt beam="1">  1        1 0.20255739E+00 0.30000000E+03</pdfrwt>
<pdfrwt beam="2">0</pdfrwt>
<totfact> 0.99608724E+00</totfact>
</mgrwt>
</event>
<event>
 6    1  0.1969531E-004  0.3000000E+03  0.7818608E-02  0.1093470E+00
          1   -1    0    0  502    0  0.00000000000E+00  0.00000000000E+00  0.40022898434E+02  0.40022898434E+02  0.00000000000E+00 0.  1.
         13   -1    0    0    0    0 -0.00000000000E+00 -0.00000000000E+00 -0.10000000000E+04  0.10000000000E+04  0.00000000000E+00 0.  1.
    9000005    2    1    2  501    0 -0.38761312532E+02 -0.25871747613E+02 -0.93119038307E+03  0.98524642688E+03  0.31847010141E+03 0.  0.
         13    1    3    3    0    0 -0.14552942266E+03  0.37848317114E+02 -0.24187225671E+03  0.28480431270E+03  0.00000000000E+00 0.  1.
          3    1    3    3  501    0  0.10676811013E+03 -0.63720064727E+02 -0.68931812636E+03  0.70044211418E+03  0.00000000000E+00 0.  1.
         21    1    1    2  502  501  0.38761312532E+02  0.25871747613E+02 -0.28786718500E+02  0.54776471552E+02  0.00000000000E+00 0.  1.
<mgrwt>
<rscale>  1 0.30000000E+03</rscale>
<asrwt>0</asrwt>
<pdfrwt beam="1">  1        1 0.14553812E+00 0.30000000E+03</pdfrwt>
<pdfrwt beam="2">0</pdfrwt>
<totfact> 0.18934832E+01</totfact>
</mgrwt>
</event>
<event>
 6    1  0.1969531E-004  0.3000000E+03  0.7818608E-02  0.1093470E+00
          1   -1    0    0  502    0  0.00000000000E+00  0.00000000000E+00  0.37814424804E+02  0.37814424804E+02  0.00000000000E+00 0.  1.
         13   -1    0    0    0    0 -0.00000000000E+00 -0.00000000000E+00 -0.10000000000E+04  0.10000000000E+04  0.00000000000E+00 0.  1.
    9000005    2    1    2  501    0 -0.10314856761E+02  0.25082385032E+01 -0.96571405893E+03  0.10266279272E+04  0.34820765331E+03 0.  0.
         13    1    3    3    0    0  0.62872233929E+02  0.15350246755E+03 -0.62781831548E+03  0.64936258176E+03  0.00000000000E+00 0.  1.
          1    1    3    3  501    0 -0.73187090690E+02 -0.15099422905E+03 -0.33789574346E+03  0.37726534547E+03  0.00000000000E+00 0.  1.
         21    1    1    2  502  501  0.10314856761E+02 -0.25082385032E+01  0.35284837368E+01  0.11186497569E+02  0.00000000000E+00 0. -1.
<mgrwt>
<rscale>  1 0.30000000E+03</rscale>
<asrwt>0</asrwt>
<pdfrwt beam="1">  1        1 0.13750729E+00 0.30000000E+03</pdfrwt>
<pdfrwt beam="2">0</pdfrwt>
<totfact> 0.20853043E+01</totfact>
</mgrwt>
</event>
<event>
 6    1  0.1969531E-004  0.3000000E+03  0.7818608E-02  0.1093470E+00
          1   -1    0    0  502    0  0.00000000000E+00  0.00000000000E+00  0.76858987772E+02  0.76858987772E+02  0.00000000000E+00 0.  1.
         13   -1    0    0    0    0 -0.00000000000E+00 -0.00000000000E+00 -0.10000000000E+04  0.10000000000E+04  0.00000000000E+00 0.  1.
    9000005    2    1    2  501    0 -0.51568319259E+02  0.26916855139E+02 -0.94971330695E+03  0.10129066970E+04  0.34733384932E+03 0.  0.
         13    1    3    3    0    0  0.75425700423E+02  0.20858787205E+02 -0.29000871407E+02  0.83457628952E+02  0.00000000000E+00 0.  1.
          1    1    3    3  501    0 -0.12699401968E+03  0.60580679346E+01 -0.92071243554E+03  0.92944906810E+03  0.00000000000E+00 0.  1.
         21    1    1    2  502  501  0.51568319259E+02 -0.26916855139E+02  0.26572294724E+02  0.63952290722E+02  0.00000000000E+00 0.  1.
<mgrwt>
<rscale>  1 0.30000000E+03</rscale>
<asrwt>0</asrwt>
<pdfrwt beam="1">  1        1 0.27948782E+00 0.30000000E+03</pdfrwt>
<pdfrwt beam="2">0</pdfrwt>
<totfact> 0.43418714E+00</totfact>
</mgrwt>
</event>
<event>
 6    1  0.1969531E-004  0.3000000E+03  0.7818608E-02  0.1093470E+00
          1   -1    0    0  502    0  0.00000000000E+00  0.00000000000E+00  0.68488868127E+02  0.68488868127E+02  0.00000000000E+00 0.  1.
         13   -1    0    0    0    0 -0.00000000000E+00 -0.00000000000E+00 -0.10000000000E+04  0.10000000000E+04  0.00000000000E+00 0.  1.
    9000005    2    1    2  501    0  0.21523761553E+02 -0.37903759497E+02 -0.95400184869E+03  0.10194399167E+04  0.35670470857E+03 0.  0.
         13    1    3    3    0    0 -0.28777408899E+02  0.13719926934E+02 -0.94642851202E+03  0.94696531300E+03  0.00000000000E+00 0.  1.
          1    1    3    3  501    0  0.50301170452E+02 -0.51623686432E+02 -0.75733366678E+01  0.72474603675E+02  0.00000000000E+00 0.  1.
         21    1    1    2  502  501 -0.21523761553E+02  0.37903759497E+02  0.22490716818E+02  0.49048951450E+02  0.00000000000E+00 0.  1.
<mgrwt>
<rscale>  1 0.30000000E+03</rscale>
<asrwt>0</asrwt>
<pdfrwt beam="1">  1        1 0.24905095E+00 0.30000000E+03</pdfrwt>
<pdfrwt beam="2">0</pdfrwt>
<totfact> 0.60270999E+00</totfact>
</mgrwt>
</event>
<event>
 6    1  0.1969531E-004  0.3000000E+03  0.7818608E-02  0.1093470E+00
          1   -1    0    0  502    0  0.00000000000E+00  0.00000000000E+00  0.30216921311E+02  0.30216921311E+02  0.00000000000E+00 0.  1.
         13   -1    0    0    0    0 -0.00000000000E+00 -0.00000000000E+00 -0.10000000000E+04  0.10000000000E+04  0.00000000000E+00 0.  1.
    9000005    2    1    2  501    0  0.77046865638E+01  0.89140370629E+01 -0.95869300720E+03  0.10140363176E+04  0.33020985607E+03 0.  0.
         13    1    3    3    0    0  0.49966252271E+02 -0.14856176061E+03 -0.59805152435E+03  0.61824982722E+03  0.00000000000E+00 0.  1.
          1    1    3    3  501    0 -0.42261565708E+02  0.15747579768E+03 -0.36064148285E+03  0.39578649034E+03  0.00000000000E+00 0.  1.
         21    1    1    2  502  501 -0.77046865638E+01 -0.89140370629E+01 -0.11090071493E+02  0.16180603744E+02  0.00000000000E+00 0.  1.
<mgrwt>
<rscale>  1 0.30000000E+03</rscale>
<asrwt>0</asrwt>
<pdfrwt beam="1">  1        1 0.10987995E+00 0.30000000E+03</pdfrwt>
<pdfrwt beam="2">0</pdfrwt>
<totfact> 0.29758650E+01</totfact>
</mgrwt>
</event>
<event>
 6    1  0.1969531E-004  0.3000000E+03  0.7818608E-02  0.1093470E+00
          1   -1    0    0  502    0  0.00000000000E+00  0.00000000000E+00  0.36732451341E+02  0.36732451341E+02  0.00000000000E+00 0.  1.
         13   -1    0    0    0    0 -0.00000000000E+00 -0.00000000000E+00 -0.10000000000E+04  0.10000000000E+04  0.00000000000E+00 0.  1.
    9000005    2    1    2  501    0  0.18524064861E+02 -0.25777925702E+02 -0.94261176372E+03  0.99886024670E+03  0.32893344755E+03 0.  0.
         13    1    3    3    0    0  0.13235555717E+03 -0.12063946488E+03 -0.44594573488E+03  0.48056162192E+03  0.00000000000E+00 0.  1.
          1    1    3    3  501    0 -0.11383149231E+03  0.94861539175E+02 -0.49666602884E+03  0.51829862479E+03  0.00000000000E+00 0.  1.
         21    1    1    2  502  501 -0.18524064861E+02  0.25777925702E+02 -0.20655784942E+02  0.37872204637E+02  0.00000000000E+00 0. -1.
<mgrwt>
<rscale>  1 0.30000000E+03</rscale>
<asrwt>0</asrwt>
<pdfrwt beam="1">  1        1 0.13357283E+00 0.30000000E+03</pdfrwt>
<pdfrwt beam="2">0</pdfrwt>
<totfact> 0.21884219E+01</totfact>
</mgrwt>
</event>
<event>
 6    1  0.1969531E-004  0.3000000E+03  0.7818608E-02  0.1093470E+00
          1   -1    0    0  502    0  0.00000000000E+00  0.00000000000E+00  0.44256738467E+02  0.44256738467E+02  0.00000000000E+00 0.  1.
         13   -1    0    0    0    0 -0.00000000000E+00 -0.00000000000E+00 -0.10000000000E+04  0.10000000000E+04  0.00000000000E+00 0.  1.
    9000005    2    1    2  501    0 -0.60389891620E+02 -0.36878041852E+02 -0.88351473339E+03  0.94314348880E+03  0.32235760789E+03 0.  0.
         13    1    3    3    0    0  0.10072544504E+03 -0.86072268867E+02 -0.20545076502E+03  0.24446690491E+03  0.00000000000E+00 0.  1.
          3    1    3    3  501    0 -0.16111533666E+03  0.49194227016E+02 -0.67806396837E+03  0.69867658389E+03  0.00000000000E+00 0.  1.
         21    1    1    2  502  501  0.60389891620E+02  0.36878041852E+02 -0.72228528140E+02  0.10111324967E+03  0.00000000000E+00 0.  1.
<mgrwt>
<rscale>  1 0.30000000E+03</rscale>
<asrwt>0</asrwt>
<pdfrwt beam="1">  1        1 0.16093393E+00 0.30000000E+03</pdfrwt>
<pdfrwt beam="2">0</pdfrwt>
<totfact> 0.15833142E+01</totfact>
</mgrwt>
</event>
<event>
 6    1  0.1969531E-004  0.3000000E+03  0.7818608E-02  0.1093470E+00
          1   -1    0    0  502    0  0.00000000000E+00  0.00000000000E+00  0.29153507937E+02  0.29153507937E+02  0.00000000000E+00 0.  1.
         13   -1    0    0    0    0 -0.00000000000E+00 -0.00000000000E+00 -0.10000000000E+04  0.10000000000E+04  0.00000000000E+00 0.  1.
    9000005    2    1    2  501    0 -0.56487499545E+01 -0.11422181525E+02 -0.94927910117E+03  0.10041030198E+04  0.32700105170E+03 0.  0.
         13    1    3    3    0    0  0.25564354454E+02  0.44198734934E+02  0.16027134472E+01  0.51084567913E+02  0.00000000000E+00 0.  1.
          3    1    3    3  501    0 -0.31213104409E+02 -0.55620916460E+02 -0.95088181462E+03  0.95301845187E+03  0.00000000000E+00 0.  1.
         21    1    1    2  502  501  0.56487499545E+01  0.11422181525E+02 -0.21567390891E+02  0.25050488153E+02  0.00000000000E+00 0.  1.
<mgrwt>
<rscale>  1 0.30000000E+03</rscale>
<asrwt>0</asrwt>
<pdfrwt beam="1">  1        1 0.10601298E+00 0.30000000E+03</pdfrwt>
<pdfrwt beam="2">0</pdfrwt>
<totfact> 0.31401008E+01</totfact>
</mgrwt>
</event>
<event>
 6    1  0.1969531E-004  0.3000000E+03  0.7818608E-02  0.1093470E+00
          1   -1    0    0  502    0  0.00000000000E+00  0.00000000000E+00  0.31624247369E+02  0.31624247369E+02  0.00000000000E+00 0.  1.
         13   -1    0    0    0    0 -0.00000000000E+00 -0.00000000000E+00 -0.10000000000E+04  0.10000000000E+04  0.00000000000E+00 0.  1.
    9000005    2    1    2  501    0 -0.96713957268E+01  0.91879852044E+01 -0.96803547726E+03  0.10182799319E+04  0.31563171507E+03 0.  0.
         13    1    3    3    0    0  0.14427980875E+03  0.50453431087E+02 -0.55159359719E+03  0.57237899016E+03  0.00000000000E+00 0.  1.
          3    1    3    3  501    0 -0.15395120448E+03 -0.41265445883E+02 -0.41644188007E+03  0.44590094176E+03  0.00000000000E+00 0.  1.
         21    1    1    2  502  501  0.96713957268E+01 -0.91879852044E+01 -0.34027537280E+00  0.13344315447E+02  0.00000000000E+00 0.  1.
<mgrwt>
<rscale>  1 0.30000000E+03</rscale>
<asrwt>0</asrwt>
<pdfrwt beam="1">  1        1 0.11499751E+00 0.30000000E+03</pdfrwt>
<pdfrwt beam="2">0</pdfrwt>
<totfact> 0.27767053E+01</totfact>
</mgrwt>
</event>
<event>
 6    1  0.1969531E-004  0.3000000E+03  0.7818608E-02  0.1093470E+00
          3   -1    0    0  502    0  0.00000000000E+00  0.00000000000E+00  0.36149747556E+02  0.36149747556E+02  0.00000000000E+00 0.  1.
         13   -1    0    0    0    0 -0.00000000000E+00 -0.00000000000E+00 -0.10000000000E+04  0.10000000000E+04  0.00000000000E+00 0.  1.
    9000005    2    1    2  501    0 -0.56448637060E+02  0.72670211946E+02 -0.78287345399E+03  0.83312263137E+03  0.26969439297E+03 0.  0.
         13    1    3    3    0    0 -0.14935368760E+02  0.14138771019E+03 -0.71192286386E+03  0.72598051896E+03  0.00000000000E+00 0.  1.
          1    1    3    3  501    0 -0.41513268300E+02 -0.68717498243E+02 -0.70950590134E+02  0.10714211240E+03  0.00000000000E+00 0.  1.
         21    1    1    2  502  501  0.56448637060E+02 -0.72670211946E+02 -0.18097679845E+03  0.20302711619E+03  0.00000000000E+00 0.  1.
<mgrwt>
<rscale>  1 0.30000000E+03</rscale>
<asrwt>0</asrwt>
<pdfrwt beam="1">  1        3 0.13145390E+00 0.30000000E+03</pdfrwt>
<pdfrwt beam="2">0</pdfrwt>
<totfact> 0.17011343E+00</totfact>
</mgrwt>
</event>
<event>
 6    1  0.1969531E-004  0.3000000E+03  0.7818608E-02  0.1093470E+00
          1   -1    0    0  502    0  0.00000000000E+00  0.00000000000E+00  0.33686115154E+02  0.33686115154E+02  0.00000000000E+00 0.  1.
         13   -1    0    0    0    0 -0.00000000000E+00 -0.00000000000E+00 -0.10000000000E+04  0.10000000000E+04  0.00000000000E+00 0.  1.
    9000005    2    1    2  501    0  0.14865375897E+02 -0.94754641730E+01 -0.95973277241E+03  0.10148692381E+04  0.32948719572E+03 0.  0.
         13    1    3    3    0    0 -0.84169983597E+02  0.10075449611E+03 -0.72845590341E+03  0.74019190609E+03  0.00000000000E+00 0.  1.
          1    1    3    3  501    0  0.99035359494E+02 -0.11022996029E+03 -0.23127686900E+03  0.27467733199E+03  0.00000000000E+00 0.  1.
         21    1    1    2  502  501 -0.14865375897E+02  0.94754641730E+01 -0.65811124316E+01  0.18816877071E+02  0.00000000000E+00 0. -1.
<mgrwt>
<rscale>  1 0.30000000E+03</rscale>
<asrwt>0</asrwt>
<pdfrwt beam="1">  1        1 0.12249522E+00 0.30000000E+03</pdfrwt>
<pdfrwt beam="2">0</pdfrwt>
<totfact> 0.25169438E+01</totfact>
</mgrwt>
</event>
<event>
 6    1  0.1969531E-004  0.3000000E+03  0.7818608E-02  0.1093470E+00
          1   -1    0    0  502    0  0.00000000000E+00  0.00000000000E+00  0.28717839008E+02  0.28717839008E+02  0.00000000000E+00 0.  1.
         13   -1    0    0    0    0 -0.00000000000E+00 -0.00000000000E+00 -0.10000000000E+04  0.10000000000E+04  0.00000000000E+00 0.  1.
    9000005    2    1    2  501    0 -0.12576114398E+02  0.62686830730E+01 -0.96240849288E+03  0.10120986625E+04  0.31291554851E+03 0.  0.
         13    1    3    3    0    0  0.96989144450E+02 -0.86688936403E+02 -0.70859299186E+03  0.72043451746E+03  0.00000000000E+00 0.  1.
          1    1    3    3  501    0 -0.10956525885E+03  0.92957619476E+02 -0.25381550102E+03  0.29166414508E+03  0.00000000000E+00 0.  1.
         21    1    1    2  502  501  0.12576114398E+02 -0.62686830730E+01 -0.88736681096E+01  0.16619176470E+02  0.00000000000E+00 0. -1.
<mgrwt>
<rscale>  1 0.30000000E+03</rscale>
<asrwt>0</asrwt>
<pdfrwt beam="1">  1        1 0.10442873E+00 0.30000000E+03</pdfrwt>
<pdfrwt beam="2">0</pdfrwt>
<totfact> 0.32111630E+01</totfact>
</mgrwt>
</event>
<event>
 6    1  0.1969531E-004  0.3000000E+03  0.7818608E-02  0.1093470E+00
          1   -1    0    0  502    0  0.00000000000E+00  0.00000000000E+00  0.34829139440E+02  0.34829139440E+02  0.00000000000E+00 0.  1.
         13   -1    0    0    0    0 -0.00000000000E+00 -0.00000000000E+00 -0.10000000000E+04  0.10000000000E+04  0.00000000000E+00 0.  1.
    9000005    2    1    2  501    0 -0.31339791333E+01 -0.39585802962E+02 -0.88031144188E+03  0.94113827243E+03  0.33047867634E+03 0.  0.
         13    1    3    3    0    0 -0.29798465651E+01  0.11736595275E+03 -0.66161298660E+03  0.67194894924E+03  0.00000000000E+00 0.  1.
          3    1    3    3  501    0 -0.15413256820E+00 -0.15695175571E+03 -0.21869845528E+03  0.26918932319E+03  0.00000000000E+00 0.  1.
         21    1    1    2  502  501  0.31339791333E+01  0.39585802962E+02 -0.84859418683E+02  0.93690867007E+02  0.00000000000E+00 0.  1.
<mgrwt>
<rscale>  1 0.30000000E+03</rscale>
<asrwt>0</asrwt>
<pdfrwt beam="1">  1        1 0.12665168E+00 0.30000000E+03</pdfrwt>
<pdfrwt beam="2">0</pdfrwt>
<totfact> 0.23866892E+01</totfact>
</mgrwt>
</event>
<event>
 6    1  0.1969531E-004  0.3000000E+03  0.7818608E-02  0.1093470E+00
          1   -1    0    0  502    0  0.00000000000E+00  0.00000000000E+00  0.27830627480E+02  0.27830627480E+02  0.00000000000E+00 0.  1.
         13   -1    0    0    0    0 -0.00000000000E+00 -0.00000000000E+00 -0.10000000000E+04  0.10000000000E+04  0.00000000000E+00 0.  1.
    9000005    2    1    2  501    0  0.50441221176E+01  0.17523406507E+02 -0.94182675370E+03  0.99243023963E+03  0.31232616539E+03 0.  0.
         13    1    3    3    0    0 -0.91892901129E+02  0.13322609557E+03 -0.47678165140E+03  0.50350197709E+03  0.00000000000E+00 0.  1.
          1    1    3    3  501    0  0.96937023246E+02 -0.11570268907E+03 -0.46504510230E+03  0.48892826254E+03  0.00000000000E+00 0.  1.
         21    1    1    2  502  501 -0.50441221176E+01 -0.17523406507E+02 -0.30342618817E+02  0.35400387854E+02  0.00000000000E+00 0. -1.
<mgrwt>
<rscale>  1 0.30000000E+03</rscale>
<asrwt>0</asrwt>
<pdfrwt beam="1">  1        1 0.10120250E+00 0.30000000E+03</pdfrwt>
<pdfrwt beam="2">0</pdfrwt>
<totfact> 0.33632874E+01</totfact>
</mgrwt>
</event>
<event>
 6    1  0.1969531E-004  0.3000000E+03  0.7818608E-02  0.1093470E+00
          1   -1    0    0  502    0  0.00000000000E+00  0.00000000000E+00  0.55323913702E+02  0.55323913702E+02  0.00000000000E+00 0.  1.
         13   -1    0    0    0    0 -0.00000000000E+00 -0.00000000000E+00 -0.10000000000E+04  0.10000000000E+04  0.00000000000E+00 0.  1.
    9000005    2    1    2  501    0 -0.28513680111E+02  0.14963042810E+01 -0.96517415564E+03  0.10201750912E+04  0.32921238892E+03 0.  0.
         13    1    3    3    0    0 -0.17343252013E+03 -0.22021401976E+02 -0.40583432885E+03  0.44188831582E+03  0.00000000000E+00 0.  1.
          1    1    3    3  501    0  0.14491884001E+03  0.23517706257E+02 -0.55933982679E+03  0.57828677534E+03  0.00000000000E+00 0.  1.
         21    1    1    2  502  501  0.28513680111E+02 -0.14963042810E+01  0.20498069339E+02  0.35148822549E+02  0.00000000000E+00 0.  1.
<mgrwt>
<rscale>  1 0.30000000E+03</rscale>
<asrwt>0</asrwt>
<pdfrwt beam="1">  1        1 0.20117829E+00 0.30000000E+03</pdfrwt>
<pdfrwt beam="2">0</pdfrwt>
<totfact> 0.10112196E+01</totfact>
</mgrwt>
</event>
<event>
 6    1  0.1969531E-004  0.3000000E+03  0.7818608E-02  0.1093470E+00
          1   -1    0    0  502    0  0.00000000000E+00  0.00000000000E+00  0.27444892206E+02  0.27444892206E+02  0.00000000000E+00 0.  1.
         13   -1    0    0    0    0 -0.00000000000E+00 -0.00000000000E+00 -0.10000000000E+04  0.10000000000E+04  0.00000000000E+00 0.  1.
    9000005    2    1    2  501    0  0.86727881177E+01  0.77194711089E+01 -0.95548119730E+03  0.10067972311E+04  0.31711439379E+03 0.  0.
         13    1    3    3    0    0  0.29362122230E+02 -0.36790380858E+02  0.28998535126E+01  0.47160104918E+02  0.00000000000E+00 0.  1.
          1    1    3    3  501    0 -0.20689334112E+02  0.44509851967E+02 -0.95838105081E+03  0.95963712622E+03  0.00000000000E+00 0.  1.
         21    1    1    2  502  501 -0.86727881177E+01 -0.77194711089E+01 -0.17073910496E+02  0.20647661068E+02  0.00000000000E+00 0. -1.
<mgrwt>
<rscale>  1 0.30000000E+03</rscale>
<asrwt>0</asrwt>
<pdfrwt beam="1">  1        1 0.99799818E-01 0.30000000E+03</pdfrwt>
<pdfrwt beam="2">0</pdfrwt>
<totfact> 0.34327344E+01</totfact>
</mgrwt>
</event>
<event>
 6    1  0.1969531E-004  0.3000000E+03  0.7818608E-02  0.1093470E+00
          1   -1    0    0  502    0  0.00000000000E+00  0.00000000000E+00  0.38852246824E+02  0.38852246824E+02  0.00000000000E+00 0.  1.
         13   -1    0    0    0    0 -0.00000000000E+00 -0.00000000000E+00 -0.10000000000E+04  0.10000000000E+04  0.00000000000E+00 0.  1.
    9000005    2    1    2  501    0 -0.85625033736E+01  0.12456950134E+02 -0.94400710217E+03  0.10159984947E+04  0.37533323881E+03 0.  0.
         13    1    3    3    0    0 -0.36228696565E+02  0.82360794943E+02 -0.93608874649E+03  0.94040308395E+03  0.00000000000E+00 0.  1.
          3    1    3    3  501    0  0.27666193192E+02 -0.69903844808E+02 -0.79183556770E+01  0.75595410716E+02  0.00000000000E+00 0.  1.
         21    1    1    2  502  501  0.85625033736E+01 -0.12456950134E+02 -0.17140651010E+02  0.22853752158E+02  0.00000000000E+00 0.  1.
<mgrwt>
<rscale>  1 0.30000000E+03</rscale>
<asrwt>0</asrwt>
<pdfrwt beam="1">  1        1 0.14128120E+00 0.30000000E+03</pdfrwt>
<pdfrwt beam="2">0</pdfrwt>
<totfact> 0.19922313E+01</totfact>
</mgrwt>
</event>
<event>
 6    1  0.1969531E-004  0.3000000E+03  0.7818608E-02  0.1093470E+00
          1   -1    0    0  502    0  0.00000000000E+00  0.00000000000E+00  0.29361549047E+02  0.29361549047E+02  0.00000000000E+00 0.  1.
         13   -1    0    0    0    0 -0.00000000000E+00 -0.00000000000E+00 -0.10000000000E+04  0.10000000000E+04  0.00000000000E+00 0.  1.
    9000005    2    1    2  501    0 -0.96251965808E+01  0.78449039916E+01 -0.95545183359E+03  0.10097447125E+04  0.32640770710E+03 0.  0.
         13    1    3    3    0    0  0.13247344812E+03  0.14547131361E+02 -0.73771261435E+03  0.74965374331E+03  0.00000000000E+00 0.  1.
          3    1    3    3  501    0 -0.14209864470E+03 -0.67022273690E+01 -0.21773921924E+03  0.26009096922E+03  0.00000000000E+00 0.  1.
         21    1    1    2  502  501  0.96251965808E+01 -0.78449039916E+01 -0.15186617366E+02  0.19616836516E+02  0.00000000000E+00 0.  1.
<mgrwt>
<rscale>  1 0.30000000E+03</rscale>
<asrwt>0</asrwt>
<pdfrwt beam="1">  1        1 0.10676949E+00 0.30000000E+03</pdfrwt>
<pdfrwt beam="2">0</pdfrwt>
<totfact> 0.31069655E+01</totfact>
</mgrwt>
</event>
<event>
 6    1  0.1969531E-004  0.3000000E+03  0.7818608E-02  0.1093470E+00
          1   -1    0    0  502    0  0.00000000000E+00  0.00000000000E+00  0.28483966040E+02  0.28483966040E+02  0.00000000000E+00 0.  1.
         13   -1    0    0    0    0 -0.00000000000E+00 -0.00000000000E+00 -0.10000000000E+04  0.10000000000E+04  0.00000000000E+00 0.  1.
    9000005    2    1    2  501    0 -0.87530202042E+01 -0.29655557803E+01 -0.96155457968E+03  0.10148957191E+04  0.32456232228E+03 0.  0.
         13    1    3    3    0    0 -0.14704494255E+03  0.36478516969E+02 -0.28025203247E+03  0.31858138526E+03  0.00000000000E+00 0.  1.
          3    1    3    3  501    0  0.13829192235E+03 -0.39444072750E+02 -0.68130254721E+03  0.69631433383E+03  0.00000000000E+00 0.  1.
         21    1    1    2  502  501  0.87530202042E+01  0.29655557803E+01 -0.99614542794E+01  0.13588246949E+02  0.00000000000E+00 0. -1.
<mgrwt>
<rscale>  1 0.30000000E+03</rscale>
<asrwt>0</asrwt>
<pdfrwt beam="1">  1        1 0.10357828E+00 0.30000000E+03</pdfrwt>
<pdfrwt beam="2">0</pdfrwt>
<totfact> 0.32502746E+01</totfact>
</mgrwt>
</event>
<event>
 6    1  0.1969531E-004  0.3000000E+03  0.7818608E-02  0.1093470E+00
          3   -1    0    0  502    0  0.00000000000E+00  0.00000000000E+00  0.29770155429E+02  0.29770155429E+02  0.00000000000E+00 0.  1.
         13   -1    0    0    0    0 -0.00000000000E+00 -0.00000000000E+00 -0.10000000000E+04  0.10000000000E+04  0.00000000000E+00 0.  1.
    9000005    2    1    2  501    0 -0.11788033381E+02  0.54169975007E+02 -0.87879876131E+03  0.92284500914E+03  0.27619251273E+03 0.  0.
         13    1    3    3    0    0  0.29171621327E+02 -0.33980287709E+02 -0.66253089958E+01  0.45271825266E+02  0.00000000000E+00 0.  1.
          1    1    3    3  501    0 -0.40959654707E+02  0.88150262715E+02 -0.87217345231E+03  0.87757318387E+03  0.00000000000E+00 0.  1.
         21    1    1    2  502  501  0.11788033381E+02 -0.54169975007E+02 -0.91431083260E+02  0.10692514629E+03  0.00000000000E+00 0.  1.
<mgrwt>
<rscale>  1 0.30000000E+03</rscale>
<asrwt>0</asrwt>
<pdfrwt beam="1">  1        3 0.10825534E+00 0.30000000E+03</pdfrwt>
<pdfrwt beam="2">0</pdfrwt>
<totfact> 0.31547613E+00</totfact>
</mgrwt>
</event>
<event>
 6    1  0.1969531E-004  0.3000000E+03  0.7818608E-02  0.1093470E+00
          1   -1    0    0  502    0  0.00000000000E+00  0.00000000000E+00  0.29239702557E+02  0.29239702557E+02  0.00000000000E+00 0.  1.
         13   -1    0    0    0    0 -0.00000000000E+00 -0.00000000000E+00 -0.10000000000E+04  0.10000000000E+04  0.00000000000E+00 0.  1.
    9000005    2    1    2  501    0  0.14459650042E+02  0.41652957922E+01 -0.92360614223E+03  0.97974277818E+03  0.32652897922E+03 0.  0.
         13    1    3    3    0    0  0.63467605399E+02  0.26871028321E+02 -0.92315940345E+03  0.92572861751E+03  0.00000000000E+00 0.  1.
          1    1    3    3  501    0 -0.49007955357E+02 -0.22705732528E+02 -0.44673877915E+00  0.54014160675E+02  0.00000000000E+00 0.  1.
         21    1    1    2  502  501 -0.14459650042E+02 -0.41652957922E+01 -0.47154155214E+02  0.49496924373E+02  0.00000000000E+00 0.  1.
<mgrwt>
<rscale>  1 0.30000000E+03</rscale>
<asrwt>0</asrwt>
<pdfrwt beam="1">  1        1 0.10632642E+00 0.30000000E+03</pdfrwt>
<pdfrwt beam="2">0</pdfrwt>
<totfact> 0.31263109E+01</totfact>
</mgrwt>
</event>
<event>
 6    1  0.1969531E-004  0.3000000E+03  0.7818608E-02  0.1093470E+00
          1   -1    0    0  502    0  0.00000000000E+00  0.00000000000E+00  0.35673377885E+02  0.35673377885E+02  0.00000000000E+00 0.  1.
         13   -1    0    0    0    0 -0.00000000000E+00 -0.00000000000E+00 -0.10000000000E+04  0.10000000000E+04  0.00000000000E+00 0.  1.
    9000005    2    1    2  501    0 -0.11111397494E+02 -0.11369614119E+02 -0.96821654973E+03  0.10193068628E+04  0.31826162522E+03 0.  0.
         13    1    3    3    0    0  0.54939799144E+02  0.79225858550E+02 -0.83586372693E+02  0.12760015632E+03  0.00000000000E+00 0.  1.
          3    1    3    3  501    0 -0.66051196638E+02 -0.90595472669E+02 -0.88463017703E+03  0.89170670647E+03  0.00000000000E+00 0.  1.
         21    1    1    2  502  501  0.11111397494E+02  0.11369614119E+02  0.38899276125E+01  0.16366515094E+02  0.00000000000E+00 0.  1.
<mgrwt>
<rscale>  1 0.30000000E+03</rscale>
<asrwt>0</asrwt>
<pdfrwt beam="1">  1        1 0.12972165E+00 0.30000000E+03</pdfrwt>
<pdfrwt beam="2">0</pdfrwt>
<totfact> 0.22959806E+01</totfact>
</mgrwt>
</event>
<event>
 6    1  0.1969531E-004  0.3000000E+03  0.7818608E-02  0.1093470E+00
          1   -1    0    0  502    0  0.00000000000E+00  0.00000000000E+00  0.30182846281E+02  0.30182846281E+02  0.00000000000E+00 0.  1.
         13   -1    0    0    0    0 -0.00000000000E+00 -0.00000000000E+00 -0.10000000000E+04  0.10000000000E+04  0.00000000000E+00 0.  1.
    9000005    2    1    2  501    0 -0.99341433674E+01 -0.33462032649E+01 -0.96771647459E+03  0.10194918625E+04  0.32059101405E+03 0.  0.
         13    1    3    3    0    0 -0.67646444976E+02 -0.13162290511E+03 -0.27155100980E+03  0.30925811484E+03  0.00000000000E+00 0.  1.
          3    1    3    3  501    0  0.57712301608E+02  0.12827670185E+03 -0.69616546479E+03  0.71023374770E+03  0.00000000000E+00 0.  1.
         21    1    1    2  502  501  0.99341433674E+01  0.33462032649E+01 -0.21006791240E+01  0.10690983749E+02  0.00000000000E+00 0.  1.
<mgrwt>
<rscale>  1 0.30000000E+03</rscale>
<asrwt>0</asrwt>
<pdfrwt beam="1">  1        1 0.10975604E+00 0.30000000E+03</pdfrwt>
<pdfrwt beam="2">0</pdfrwt>
<totfact> 0.29809353E+01</totfact>
</mgrwt>
</event>
<event>
 6    1  0.1969531E-004  0.3000000E+03  0.7818608E-02  0.1093470E+00
          1   -1    0    0  502    0  0.00000000000E+00  0.00000000000E+00  0.36180794906E+02  0.36180794906E+02  0.00000000000E+00 0.  1.
         13   -1    0    0    0    0 -0.00000000000E+00 -0.00000000000E+00 -0.10000000000E+04  0.10000000000E+04  0.00000000000E+00 0.  1.
    9000005    2    1    2  501    0 -0.93640747983E+01  0.51381045880E+01 -0.96803515283E+03  0.10246977539E+04  0.33585613543E+03 0.  0.
         13    1    3    3    0    0  0.37493258561E+02  0.10730778692E+03 -0.86430038993E+03  0.87174300662E+03  0.00000000000E+00 0.  1.
          1    1    3    3  501    0 -0.46857333360E+02 -0.10216968233E+03 -0.10373476290E+03  0.15295474727E+03  0.00000000000E+00 0.  1.
         21    1    1    2  502  501  0.93640747983E+01 -0.51381045880E+01  0.42159477356E+01  0.11483041013E+02  0.00000000000E+00 0.  1.
<mgrwt>
<rscale>  1 0.30000000E+03</rscale>
<asrwt>0</asrwt>
<pdfrwt beam="1">  1        1 0.13156680E+00 0.30000000E+03</pdfrwt>
<pdfrwt beam="2">0</pdfrwt>
<totfact> 0.22436036E+01</totfact>
</mgrwt>
</event>
<event>
 6    1  0.1969531E-004  0.3000000E+03  0.7818608E-02  0.1093470E+00
          1   -1    0    0  502    0  0.00000000000E+00  0.00000000000E+00  0.37247157934E+02  0.37247157934E+02  0.00000000000E+00 0.  1.
         13   -1    0    0    0    0 -0.00000000000E+00 -0.00000000000E+00 -0.10000000000E+04  0.10000000000E+04  0.00000000000E+00 0.  1.
    9000005    2    1    2  501    0  0.15542518745E+02 -0.25129493761E+02 -0.93187749695E+03  0.99451136168E+03  0.34609842218E+03 0.  0.
         13    1    3    3    0    0  0.11361615488E+03  0.11599329297E+03 -0.31829210479E+03  0.35731350190E+03  0.00000000000E+00 0.  1.
          3    1    3    3  501    0 -0.98073636133E+02 -0.14112278674E+03 -0.61358539216E+03  0.63719785978E+03  0.00000000000E+00 0.  1.
         21    1    1    2  502  501 -0.15542518745E+02  0.25129493761E+02 -0.30875345112E+02  0.42735796254E+02  0.00000000000E+00 0.  1.
<mgrwt>
<rscale>  1 0.30000000E+03</rscale>
<asrwt>0</asrwt>
<pdfrwt beam="1">  1        1 0.13544450E+00 0.30000000E+03</pdfrwt>
<pdfrwt beam="2">0</pdfrwt>
<totfact> 0.21385435E+01</totfact>
</mgrwt>
</event>
<event>
 6    1  0.1969531E-004  0.3000000E+03  0.7818608E-02  0.1093470E+00
          1   -1    0    0  502    0  0.00000000000E+00  0.00000000000E+00  0.36675580057E+02  0.36675580057E+02  0.00000000000E+00 0.  1.
         13   -1    0    0    0    0 -0.00000000000E+00 -0.00000000000E+00 -0.10000000000E+04  0.10000000000E+04  0.00000000000E+00 0.  1.
    9000005    2    1    2  501    0 -0.60750951322E+01 -0.48268955573E+02 -0.85032826117E+03  0.91365147367E+03  0.33065701982E+03 0.  0.
         13    1    3    3    0    0 -0.60807057960E+01 -0.13921927143E+03 -0.79515732865E+03  0.80727576319E+03  0.00000000000E+00 0.  1.
          1    1    3    3  501    0  0.56106638280E-02  0.90950315862E+02 -0.55170932513E+02  0.10637571049E+03  0.00000000000E+00 0.  1.
         21    1    1    2  502  501  0.60750951322E+01  0.48268955573E+02 -0.11299615878E+03  0.12302410638E+03  0.00000000000E+00 0. -1.
<mgrwt>
<rscale>  1 0.30000000E+03</rscale>
<asrwt>0</asrwt>
<pdfrwt beam="1">  1        1 0.13336603E+00 0.30000000E+03</pdfrwt>
<pdfrwt beam="2">0</pdfrwt>
<totfact> 0.21940274E+01</totfact>
</mgrwt>
</event>
<event>
 6    1  0.1969531E-004  0.3000000E+03  0.7818608E-02  0.1093470E+00
          1   -1    0    0  502    0  0.00000000000E+00  0.00000000000E+00  0.30631543527E+02  0.30631543527E+02  0.00000000000E+00 0.  1.
         13   -1    0    0    0    0 -0.00000000000E+00 -0.00000000000E+00 -0.10000000000E+04  0.10000000000E+04  0.00000000000E+00 0.  1.
    9000005    2    1    2  501    0  0.27521763676E+02  0.76103353508E+00 -0.92550688004E+03  0.97884482192E+03  0.31751562756E+03 0.  0.
         13    1    3    3    0    0  0.69029240022E+02  0.31937232286E+02 -0.92377845680E+03  0.92690434244E+03  0.00000000000E+00 0.  1.
          3    1    3    3  501    0 -0.41507476347E+02 -0.31176198751E+02 -0.17284232377E+01  0.51940479475E+02  0.00000000000E+00 0.  1.
         21    1    1    2  502  501 -0.27521763676E+02 -0.76103353508E+00 -0.43861576432E+02  0.51786721609E+02  0.00000000000E+00 0.  1.
<mgrwt>
<rscale>  1 0.30000000E+03</rscale>
<asrwt>0</asrwt>
<pdfrwt beam="1">  1        1 0.11138767E+00 0.30000000E+03</pdfrwt>
<pdfrwt beam="2">0</pdfrwt>
<totfact> 0.29151379E+01</totfact>
</mgrwt>
</event>
<event>
 6    1  0.1969531E-004  0.3000000E+03  0.7818608E-02  0.1093470E+00
          1   -1    0    0  502    0  0.00000000000E+00  0.00000000000E+00  0.33099832943E+02  0.33099832943E+02  0.00000000000E+00 0.  1.
         13   -1    0    0    0    0 -0.00000000000E+00 -0.00000000000E+00 -0.10000000000E+04  0.10000000000E+04  0.00000000000E+00 0.  1.
    9000005    2    1    2  501    0 -0.15570644854E+02 -0.11888921174E+02 -0.95376018752E+03  0.10095106301E+04  0.33025660567E+03 0.  0.
         13    1    3    3    0    0 -0.11910329512E+03  0.10952407863E+03 -0.59991662959E+03  0.62135423163E+03  0.00000000000E+00 0.  1.
          3    1    3    3  501    0  0.10353265027E+03 -0.12141299980E+03 -0.35384355793E+03  0.38815639848E+03  0.00000000000E+00 0.  1.
         21    1    1    2  502  501  0.15570644854E+02  0.11888921174E+02 -0.13139979537E+02  0.23589202828E+02  0.00000000000E+00 0.  1.
<mgrwt>
<rscale>  1 0.30000000E+03</rscale>
<asrwt>0</asrwt>
<pdfrwt beam="1">  1        1 0.12036328E+00 0.30000000E+03</pdfrwt>
<pdfrwt beam="2">0</pdfrwt>
<totfact> 0.25873457E+01</totfact>
</mgrwt>
</event>
<event>
 6    1  0.1969531E-004  0.3000000E+03  0.7818608E-02  0.1093470E+00
          1   -1    0    0  502    0  0.00000000000E+00  0.00000000000E+00  0.37408002149E+02  0.37408002149E+02  0.00000000000E+00 0.  1.
         13   -1    0    0    0    0 -0.00000000000E+00 -0.00000000000E+00 -0.10000000000E+04  0.10000000000E+04  0.00000000000E+00 0.  1.
    9000005    2    1    2  501    0 -0.74093777090E+01 -0.10075140899E+02 -0.96654147760E+03  0.10242929066E+04  0.33884675469E+03 0.  0.
         13    1    3    3    0    0 -0.14164443767E+03  0.93194100975E+02 -0.49937085716E+03  0.52737040129E+03  0.00000000000E+00 0.  1.
          3    1    3    3  501    0  0.13423505996E+03 -0.10326924187E+03 -0.46717062044E+03  0.49692250527E+03  0.00000000000E+00 0.  1.
         21    1    1    2  502  501  0.74093777090E+01  0.10075140899E+02  0.39494797457E+01  0.13115095593E+02  0.00000000000E+00 0. -1.
<mgrwt>
<rscale>  1 0.30000000E+03</rscale>
<asrwt>0</asrwt>
<pdfrwt beam="1">  1        1 0.13602939E+00 0.30000000E+03</pdfrwt>
<pdfrwt beam="2">0</pdfrwt>
<totfact> 0.21232675E+01</totfact>
</mgrwt>
</event>
<event>
 6    1  0.1969531E-004  0.3000000E+03  0.7818608E-02  0.1093470E+00
          1   -1    0    0  502    0  0.00000000000E+00  0.00000000000E+00  0.30841473008E+02  0.30841473008E+02  0.00000000000E+00 0.  1.
         13   -1    0    0    0    0 -0.00000000000E+00 -0.00000000000E+00 -0.10000000000E+04  0.10000000000E+04  0.00000000000E+00 0.  1.
    9000005    2    1    2  501    0 -0.11843702136E+02 -0.85587766805E+00 -0.96002715432E+03  0.10158618945E+04  0.33193711115E+03 0.  0.
         13    1    3    3    0    0  0.61136293670E+02 -0.15042651582E+03 -0.40228339005E+03  0.43381759874E+03  0.00000000000E+00 0.  1.
          1    1    3    3  501    0 -0.72979995807E+02  0.14957063816E+03 -0.55774376427E+03  0.58204429571E+03  0.00000000000E+00 0.  1.
         21    1    1    2  502  501  0.11843702136E+02  0.85587766805E+00 -0.91313726719E+01  0.14979578557E+02  0.00000000000E+00 0.  1.
<mgrwt>
<rscale>  1 0.30000000E+03</rscale>
<asrwt>0</asrwt>
<pdfrwt beam="1">  1        1 0.11215105E+00 0.30000000E+03</pdfrwt>
<pdfrwt beam="2">0</pdfrwt>
<totfact> 0.28850574E+01</totfact>
</mgrwt>
</event>
<event>
 6    1  0.1969531E-004  0.3000000E+03  0.7818608E-02  0.1093470E+00
          1   -1    0    0  502    0  0.00000000000E+00  0.00000000000E+00  0.44310820830E+02  0.44310820830E+02  0.00000000000E+00 0.  1.
         13   -1    0    0    0    0 -0.00000000000E+00 -0.00000000000E+00 -0.10000000000E+04  0.10000000000E+04  0.00000000000E+00 0.  1.
    9000005    2    1    2  501    0 -0.24852987037E+02  0.43701150133E+02 -0.92295864817E+03  0.98432124551E+03  0.33839058297E+03 0.  0.
         13    1    3    3    0    0  0.93156513185E+02 -0.49515441999E+02 -0.74003110099E+03  0.74751317405E+03  0.00000000000E+00 0.  1.
          3    1    3    3  501    0 -0.11800950022E+03  0.93216592132E+02 -0.18292754718E+03  0.23680807146E+03  0.00000000000E+00 0.  1.
         21    1    1    2  502  501  0.24852987037E+02 -0.43701150133E+02 -0.32730530999E+02  0.59989575320E+02  0.00000000000E+00 0.  1.
<mgrwt>
<rscale>  1 0.30000000E+03</rscale>
<asrwt>0</asrwt>
<pdfrwt beam="1">  1        1 0.16113060E+00 0.30000000E+03</pdfrwt>
<pdfrwt beam="2">0</pdfrwt>
<totfact> 0.15797632E+01</totfact>
</mgrwt>
</event>
<event>
 6    1  0.1969531E-004  0.3000000E+03  0.7818608E-02  0.1093470E+00
          1   -1    0    0  502    0  0.00000000000E+00  0.00000000000E+00  0.63636485831E+02  0.63636485831E+02  0.00000000000E+00 0.  1.
         13   -1    0    0    0    0 -0.00000000000E+00 -0.00000000000E+00 -0.10000000000E+04  0.10000000000E+04  0.00000000000E+00 0.  1.
    9000005    2    1    2  501    0 -0.59701954211E+01 -0.25778786549E+02 -0.94474375489E+03  0.10358800901E+04  0.42403609469E+03 0.  0.
         13    1    3    3    0    0 -0.17517452111E+03 -0.72171607020E+02 -0.75087531526E+03  0.77440854384E+03  0.00000000000E+00 0.  1.
          3    1    3    3  501    0  0.16920432569E+03  0.46392820471E+02 -0.19386843963E+03  0.26147154627E+03  0.00000000000E+00 0.  1.
         21    1    1    2  502  501  0.59701954211E+01  0.25778786549E+02  0.83802407190E+01  0.27756395728E+02  0.00000000000E+00 0. -1.
<mgrwt>
<rscale>  1 0.30000000E+03</rscale>
<asrwt>0</asrwt>
<pdfrwt beam="1">  1        1 0.23140589E+00 0.30000000E+03</pdfrwt>
<pdfrwt beam="2">0</pdfrwt>
<totfact> 0.72891241E+00</totfact>
</mgrwt>
</event>
<event>
 6    1  0.1969531E-004  0.3000000E+03  0.7818608E-02  0.1093470E+00
          1   -1    0    0  502    0  0.00000000000E+00  0.00000000000E+00  0.54608925347E+02  0.54608925347E+02  0.00000000000E+00 0.  1.
         13   -1    0    0    0    0 -0.00000000000E+00 -0.00000000000E+00 -0.10000000000E+04  0.10000000000E+04  0.00000000000E+00 0.  1.
    9000005    2    1    2  501    0 -0.48842080113E+02 -0.42927138482E+02 -0.89708955538E+03  0.97360692061E+03  0.37270964231E+03 0.  0.
         13    1    3    3    0    0 -0.10387128980E+03 -0.10327892914E+03 -0.87746746341E+03  0.88960942632E+03  0.00000000000E+00 0.  1.
          3    1    3    3  501    0  0.55029209683E+02  0.60351790656E+02 -0.19622091971E+02  0.83997494290E+02  0.00000000000E+00 0.  1.
         21    1    1    2  502  501  0.48842080113E+02  0.42927138482E+02 -0.48301519273E+02  0.81002004741E+02  0.00000000000E+00 0.  1.
<mgrwt>
<rscale>  1 0.30000000E+03</rscale>
<asrwt>0</asrwt>
<pdfrwt beam="1">  1        1 0.19857833E+00 0.30000000E+03</pdfrwt>
<pdfrwt beam="2">0</pdfrwt>
<totfact> 0.10404131E+01</totfact>
</mgrwt>
</event>
<event>
 6    1  0.1969531E-004  0.3000000E+03  0.7818608E-02  0.1093470E+00
          1   -1    0    0  502    0  0.00000000000E+00  0.00000000000E+00  0.27435644471E+02  0.27435644471E+02  0.00000000000E+00 0.  1.
         13   -1    0    0    0    0 -0.00000000000E+00 -0.00000000000E+00 -0.10000000000E+04  0.10000000000E+04  0.00000000000E+00 0.  1.
    9000005    2    1    2  501    0 -0.62084009528E+01 -0.37529400018E+01 -0.95076315345E+03  0.10044591083E+04  0.32393656407E+03 0.  0.
         13    1    3    3    0    0  0.32771226767E+02  0.15554070686E+03 -0.50876687247E+03  0.53302025788E+03  0.00000000000E+00 0.  1.
          3    1    3    3  501    0 -0.38979627720E+02 -0.15929364686E+03 -0.44199628098E+03  0.47143885045E+03  0.00000000000E+00 0.  1.
         21    1    1    2  502  501  0.62084009528E+01  0.37529400018E+01 -0.21801202077E+02  0.22976536141E+02  0.00000000000E+00 0. -1.
<mgrwt>
<rscale>  1 0.30000000E+03</rscale>
<asrwt>0</asrwt>
<pdfrwt beam="1">  1        1 0.99766190E-01 0.30000000E+03</pdfrwt>
<pdfrwt beam="2">0</pdfrwt>
<totfact> 0.34344252E+01</totfact>
</mgrwt>
</event>
<event>
 6    1  0.1969531E-004  0.3000000E+03  0.7818608E-02  0.1093470E+00
          1   -1    0    0  502    0  0.00000000000E+00  0.00000000000E+00  0.33275470024E+02  0.33275470024E+02  0.00000000000E+00 0.  1.
         13   -1    0    0    0    0 -0.00000000000E+00 -0.00000000000E+00 -0.10000000000E+04  0.10000000000E+04  0.00000000000E+00 0.  1.
    9000005    2    1    2  501    0  0.32822875261E+01 -0.13395979530E+02 -0.96799912308E+03  0.10194244677E+04  0.31939586298E+03 0.  0.
         13    1    3    3    0    0  0.90498813251E+02 -0.58202667160E+02 -0.88337465840E+03  0.88990357498E+03  0.00000000000E+00 0.  1.
          1    1    3    3  501    0 -0.87216525725E+02  0.44806687630E+02 -0.84624464683E+02  0.12952089267E+03  0.00000000000E+00 0.  1.
         21    1    1    2  502  501 -0.32822875261E+01  0.13395979530E+02  0.12745931091E+01  0.13851002367E+02  0.00000000000E+00 0.  1.
<mgrwt>
<rscale>  1 0.30000000E+03</rscale>
<asrwt>0</asrwt>
<pdfrwt beam="1">  1        1 0.12100196E+00 0.30000000E+03</pdfrwt>
<pdfrwt beam="2">0</pdfrwt>
<totfact> 0.25659842E+01</totfact>
</mgrwt>
</event>
<event>
 6    1  0.1969531E-004  0.3000000E+03  0.7818608E-02  0.1093470E+00
          1   -1    0    0  502    0  0.00000000000E+00  0.00000000000E+00  0.39046635603E+02  0.39046635603E+02  0.00000000000E+00 0.  1.
         13   -1    0    0    0    0 -0.00000000000E+00 -0.00000000000E+00 -0.10000000000E+04  0.10000000000E+04  0.00000000000E+00 0.  1.
    9000005    2    1    2  501    0  0.96924472542E+01 -0.69689996627E+01 -0.97049700226E+03  0.10237629347E+04  0.32570478128E+03 0.  0.
         13    1    3    3    0    0 -0.13275288995E+02 -0.13641414584E+03 -0.20204243079E+03  0.24414380255E+03  0.00000000000E+00 0.  1.
          1    1    3    3  501    0  0.22967736249E+02  0.12944514618E+03 -0.76845457147E+03  0.77961913213E+03  0.00000000000E+00 0.  1.
         21    1    1    2  502  501 -0.96924472542E+01  0.69689996627E+01  0.95436378631E+01  0.15283700917E+02  0.00000000000E+00 0. -1.
<mgrwt>
<rscale>  1 0.30000000E+03</rscale>
<asrwt>0</asrwt>
<pdfrwt beam="1">  1        1 0.14198807E+00 0.30000000E+03</pdfrwt>
<pdfrwt beam="2">0</pdfrwt>
<totfact> 0.19753904E+01</totfact>
</mgrwt>
</event>
<event>
 6    1  0.1969531E-004  0.3000000E+03  0.7818608E-02  0.1093470E+00
          3   -1    0    0  502    0  0.00000000000E+00  0.00000000000E+00  0.28078219715E+02  0.28078219715E+02  0.00000000000E+00 0.  1.
         13   -1    0    0    0    0 -0.00000000000E+00 -0.00000000000E+00 -0.10000000000E+04  0.10000000000E+04  0.00000000000E+00 0.  1.
    9000005    2    1    2  501    0 -0.33356653346E+01 -0.21243277075E+02 -0.91976924411E+03  0.97166642561E+03  0.31256643577E+03 0.  0.
         13    1    3    3    0    0  0.46206694993E+02 -0.13460249453E+02 -0.92025645976E+03  0.92151407407E+03  0.00000000000E+00 0.  1.
          3    1    3    3  501    0 -0.49542360328E+02 -0.77830276223E+01  0.48721565628E+00  0.50152351539E+02  0.00000000000E+00 0.  1.
         21    1    1    2  502  501  0.33356653346E+01  0.21243277075E+02 -0.52152536178E+02  0.56411794103E+02  0.00000000000E+00 0.  1.
<mgrwt>
<rscale>  1 0.30000000E+03</rscale>
<asrwt>0</asrwt>
<pdfrwt beam="1">  1        3 0.10210283E+00 0.30000000E+03</pdfrwt>
<pdfrwt beam="2">0</pdfrwt>
<totfact> 0.37068674E+00</totfact>
</mgrwt>
</event>
<event>
 6    1  0.1969531E-004  0.3000000E+03  0.7818608E-02  0.1093470E+00
          1   -1    0    0  502    0  0.00000000000E+00  0.00000000000E+00  0.30598429319E+02  0.30598429319E+02  0.00000000000E+00 0.  1.
         13   -1    0    0    0    0 -0.00000000000E+00 -0.00000000000E+00 -0.10000000000E+04  0.10000000000E+04  0.00000000000E+00 0.  1.
    9000005    2    1    2  501    0  0.12837201341E+02  0.30436211807E+01 -0.95506414132E+03  0.10111146091E+04  0.33170948344E+03 0.  0.
         13    1    3    3    0    0  0.66322146466E+02 -0.15301588369E+03 -0.49896243016E+03  0.52609504320E+03  0.00000000000E+00 0.  1.
          1    1    3    3  501    0 -0.53484945125E+02  0.15605950487E+03 -0.45610171116E+03  0.48501956594E+03  0.00000000000E+00 0.  1.
         21    1    1    2  502  501 -0.12837201341E+02 -0.30436211807E+01 -0.14337429357E+02  0.19483820178E+02  0.00000000000E+00 0.  1.
<mgrwt>
<rscale>  1 0.30000000E+03</rscale>
<asrwt>0</asrwt>
<pdfrwt beam="1">  1        1 0.11126725E+00 0.30000000E+03</pdfrwt>
<pdfrwt beam="2">0</pdfrwt>
<totfact> 0.29199232E+01</totfact>
</mgrwt>
</event>
<event>
 6    1  0.1969531E-004  0.3000000E+03  0.7818608E-02  0.1093470E+00
          1   -1    0    0  502    0  0.00000000000E+00  0.00000000000E+00  0.49148198707E+02  0.49148198707E+02  0.00000000000E+00 0.  1.
         13   -1    0    0    0    0 -0.00000000000E+00 -0.00000000000E+00 -0.10000000000E+04  0.10000000000E+04  0.00000000000E+00 0.  1.
    9000005    2    1    2  501    0 -0.28887885974E+01  0.11467417970E+02 -0.97385921574E+03  0.10232795324E+04  0.31394168671E+03 0.  0.
         13    1    3    3    0    0 -0.13867653984E+03 -0.30190012780E+02 -0.70567697373E+03  0.71980734285E+03  0.00000000000E+00 0.  1.
          1    1    3    3  501    0  0.13578775124E+03  0.41657430751E+02 -0.26818224202E+03  0.30347218959E+03  0.00000000000E+00 0.  1.
         21    1    1    2  502  501  0.28887885974E+01 -0.11467417970E+02  0.23007414451E+02  0.25868666262E+02  0.00000000000E+00 0.  1.
<mgrwt>
<rscale>  1 0.30000000E+03</rscale>
<asrwt>0</asrwt>
<pdfrwt beam="1">  1        1 0.17872110E+00 0.30000000E+03</pdfrwt>
<pdfrwt beam="2">0</pdfrwt>
<totfact> 0.12957826E+01</totfact>
</mgrwt>
</event>
<event>
 6    1  0.1969531E-004  0.3000000E+03  0.7818608E-02  0.1093470E+00
          1   -1    0    0  502    0  0.00000000000E+00  0.00000000000E+00  0.44209244354E+02  0.44209244354E+02  0.00000000000E+00 0.  1.
         13   -1    0    0    0    0 -0.00000000000E+00 -0.00000000000E+00 -0.10000000000E+04  0.10000000000E+04  0.00000000000E+00 0.  1.
    9000005    2    1    2  501    0  0.12529574668E+02 -0.18392978695E+02 -0.96631126576E+03  0.10195927247E+04  0.32452514543E+03 0.  0.
         13    1    3    3    0    0 -0.73686444593E+02 -0.71785345583E+02 -0.87796857974E+02  0.13524465323E+03  0.00000000000E+00 0.  1.
          1    1    3    3  501    0  0.86216019261E+02  0.53392366888E+02 -0.87851440779E+03  0.88434807147E+03  0.00000000000E+00 0.  1.
         21    1    1    2  502  501 -0.12529574668E+02  0.18392978695E+02  0.10520510119E+02  0.24616519653E+02  0.00000000000E+00 0.  1.
<mgrwt>
<rscale>  1 0.30000000E+03</rscale>
<asrwt>0</asrwt>
<pdfrwt beam="1">  1        1 0.16076123E+00 0.30000000E+03</pdfrwt>
<pdfrwt beam="2">0</pdfrwt>
<totfact> 0.15864403E+01</totfact>
</mgrwt>
</event>
<event>
 6    1  0.1969531E-004  0.3000000E+03  0.7818608E-02  0.1093470E+00
          1   -1    0    0  502    0  0.00000000000E+00  0.00000000000E+00  0.46069914063E+02  0.46069914063E+02  0.00000000000E+00 0.  1.
         13   -1    0    0    0    0 -0.00000000000E+00 -0.00000000000E+00 -0.10000000000E+04  0.10000000000E+04  0.00000000000E+00 0.  1.
    9000005    2    1    2  501    0  0.22289881674E+01  0.18510753620E+02 -0.96887507976E+03  0.10221749517E+04  0.32523083376E+03 0.  0.
         13    1    3    3    0    0 -0.19036037686E+02  0.16919938252E+03 -0.58368596338E+03  0.60801324461E+03  0.00000000000E+00 0.  1.
          3    1    3    3  501    0  0.21265025853E+02 -0.15068862890E+03 -0.38518911638E+03  0.41416170705E+03  0.00000000000E+00 0.  1.
         21    1    1    2  502  501 -0.22289881674E+01 -0.18510753620E+02  0.14944993825E+02  0.23894962404E+02  0.00000000000E+00 0.  1.
<mgrwt>
<rscale>  1 0.30000000E+03</rscale>
<asrwt>0</asrwt>
<pdfrwt beam="1">  1        1 0.16752731E+00 0.30000000E+03</pdfrwt>
<pdfrwt beam="2">0</pdfrwt>
<totfact> 0.14691073E+01</totfact>
</mgrwt>
</event>
<event>
 6    1  0.1969531E-004  0.3000000E+03  0.7818608E-02  0.1093470E+00
          1   -1    0    0  502    0  0.00000000000E+00  0.00000000000E+00  0.30235239577E+02  0.30235239577E+02  0.00000000000E+00 0.  1.
         13   -1    0    0    0    0 -0.00000000000E+00 -0.00000000000E+00 -0.10000000000E+04  0.10000000000E+04  0.00000000000E+00 0.  1.
    9000005    2    1    2  501    0 -0.15974967795E+02  0.94596680133E+01 -0.92422901156E+03  0.98106015097E+03  0.32853473043E+03 0.  0.
         13    1    3    3    0    0 -0.16173536655E+03  0.16531617804E+02 -0.65444147494E+03  0.67433320199E+03  0.00000000000E+00 0.  1.
          3    1    3    3  501    0  0.14576039875E+03 -0.70719497907E+01 -0.26978753661E+03  0.30672694898E+03  0.00000000000E+00 0.  1.
         21    1    1    2  502  501  0.15974967795E+02 -0.94596680133E+01 -0.45535748866E+02  0.49175088610E+02  0.00000000000E+00 0.  1.
<mgrwt>
<rscale>  1 0.30000000E+03</rscale>
<asrwt>0</asrwt>
<pdfrwt beam="1">  1        1 0.10994656E+00 0.30000000E+03</pdfrwt>
<pdfrwt beam="2">0</pdfrwt>
<totfact> 0.29731444E+01</totfact>
</mgrwt>
</event>
<event>
 6    1  0.1969531E-004  0.3000000E+03  0.7818608E-02  0.1093470E+00
          3   -1    0    0  502    0  0.00000000000E+00  0.00000000000E+00  0.37761916382E+02  0.37761916382E+02  0.00000000000E+00 0.  1.
         13   -1    0    0    0    0 -0.00000000000E+00 -0.00000000000E+00 -0.10000000000E+04  0.10000000000E+04  0.00000000000E+00 0.  1.
    9000005    2    1    2  501    0  0.67743505415E+01 -0.72928498909E+01 -0.96941219113E+03  0.10254922259E+04  0.33432803005E+03 0.  0.
         13    1    3    3    0    0  0.23444567436E+02  0.15173541383E+03 -0.65502011799E+03  0.67277383906E+03  0.00000000000E+00 0.  1.
          3    1    3    3  501    0 -0.16670216895E+02 -0.15902826372E+03 -0.31439207314E+03  0.35271838688E+03  0.00000000000E+00 0.  1.
         21    1    1    2  502  501 -0.67743505415E+01  0.72928498909E+01  0.71741075128E+01  0.12269690436E+02  0.00000000000E+00 0.  1.
<mgrwt>
<rscale>  1 0.30000000E+03</rscale>
<asrwt>0</asrwt>
<pdfrwt beam="1">  1        3 0.13731635E+00 0.30000000E+03</pdfrwt>
<pdfrwt beam="2">0</pdfrwt>
<totfact> 0.14463163E+00</totfact>
</mgrwt>
</event>
<event>
 6    1  0.1969531E-004  0.3000000E+03  0.7818608E-02  0.1093470E+00
          3   -1    0    0  502    0  0.00000000000E+00  0.00000000000E+00  0.40392971448E+02  0.40392971448E+02  0.00000000000E+00 0.  1.
         13   -1    0    0    0    0 -0.00000000000E+00 -0.00000000000E+00 -0.10000000000E+04  0.10000000000E+04  0.00000000000E+00 0.  1.
    9000005    2    1    2  501    0  0.12778221650E+02  0.43851706987E+02 -0.91825150278E+03  0.97877694540E+03  0.33575620818E+03 0.  0.
         13    1    3    3    0    0  0.16731022701E+03  0.68157680628E+02 -0.54142243483E+03  0.57076828435E+03  0.00000000000E+00 0.  1.
          3    1    3    3  501    0 -0.15453200536E+03 -0.24305973641E+02 -0.37682906795E+03  0.40800866105E+03  0.00000000000E+00 0.  1.
         21    1    1    2  502  501 -0.12778221650E+02 -0.43851706987E+02 -0.41355525770E+02  0.61616026048E+02  0.00000000000E+00 0. -1.
<mgrwt>
<rscale>  1 0.30000000E+03</rscale>
<asrwt>0</asrwt>
<pdfrwt beam="1">  1        3 0.14688384E+00 0.30000000E+03</pdfrwt>
<pdfrwt beam="2">0</pdfrwt>
<totfact> 0.10907895E+00</totfact>
</mgrwt>
</event>
<event>
 6    1  0.1969531E-004  0.3000000E+03  0.7818608E-02  0.1093470E+00
          1   -1    0    0  502    0  0.00000000000E+00  0.00000000000E+00  0.31230330554E+02  0.31230330554E+02  0.00000000000E+00 0.  1.
         13   -1    0    0    0    0 -0.00000000000E+00 -0.00000000000E+00 -0.10000000000E+04  0.10000000000E+04  0.00000000000E+00 0.  1.
    9000005    2    1    2  501    0 -0.21988736958E+01 -0.11446043153E+02 -0.96657159861E+03  0.10193695353E+04  0.32360121639E+03 0.  0.
         13    1    3    3    0    0  0.10079160549E+03  0.11627859652E+03 -0.37191793440E+03  0.40249547783E+03  0.00000000000E+00 0.  1.
          3    1    3    3  501    0 -0.10299047918E+03 -0.12772463968E+03 -0.59465366421E+03  0.61687405744E+03  0.00000000000E+00 0.  1.
         21    1    1    2  502  501  0.21988736958E+01  0.11446043153E+02 -0.21980708377E+01  0.11860795285E+02  0.00000000000E+00 0.  1.
<mgrwt>
<rscale>  1 0.30000000E+03</rscale>
<asrwt>0</asrwt>
<pdfrwt beam="1">  1        1 0.11356508E+00 0.30000000E+03</pdfrwt>
<pdfrwt beam="2">0</pdfrwt>
<totfact> 0.28304949E+01</totfact>
</mgrwt>
</event>
<event>
 6    1  0.1969531E-004  0.3000000E+03  0.7818608E-02  0.1093470E+00
          1   -1    0    0  502    0  0.00000000000E+00  0.00000000000E+00  0.28477115892E+02  0.28477115892E+02  0.00000000000E+00 0.  1.
         13   -1    0    0    0    0 -0.00000000000E+00 -0.00000000000E+00 -0.10000000000E+04  0.10000000000E+04  0.00000000000E+00 0.  1.
    9000005    2    1    2  501    0 -0.10668946550E+02 -0.29118093346E+01 -0.93917352885E+03  0.99428960590E+03  0.32625541842E+03 0.  0.
         13    1    3    3    0    0 -0.51726307539E+02 -0.28308397468E+02 -0.53380204772E+01  0.59207015813E+02  0.00000000000E+00 0.  1.
          1    1    3    3  501    0  0.41057360990E+02  0.25396588133E+02 -0.93383550837E+03  0.93508259008E+03  0.00000000000E+00 0.  1.
         21    1    1    2  502  501  0.10668946550E+02  0.29118093346E+01 -0.32349355258E+02  0.34187509995E+02  0.00000000000E+00 0. -1.
<mgrwt>
<rscale>  1 0.30000000E+03</rscale>
<asrwt>0</asrwt>
<pdfrwt beam="1">  1        1 0.10355337E+00 0.30000000E+03</pdfrwt>
<pdfrwt beam="2">0</pdfrwt>
<totfact> 0.32514306E+01</totfact>
</mgrwt>
</event>
<event>
 6    1  0.1969531E-004  0.3000000E+03  0.7818608E-02  0.1093470E+00
          1   -1    0    0  502    0  0.00000000000E+00  0.00000000000E+00  0.28333737871E+02  0.28333737871E+02  0.00000000000E+00 0.  1.
         13   -1    0    0    0    0 -0.00000000000E+00 -0.00000000000E+00 -0.10000000000E+04  0.10000000000E+04  0.00000000000E+00 0.  1.
    9000005    2    1    2  501    0 -0.28382331684E+01  0.89889649493E+01 -0.96182918562E+03  0.10147093064E+04  0.32315744947E+03 0.  0.
         13    1    3    3    0    0 -0.52801677994E+02 -0.72352001203E+02 -0.89187425719E+03  0.89636070859E+03  0.00000000000E+00 0.  1.
          3    1    3    3  501    0  0.49963444825E+02  0.81340966152E+02 -0.69954928435E+02  0.11834859782E+03  0.00000000000E+00 0.  1.
         21    1    1    2  502  501  0.28382331684E+01 -0.89889649493E+01 -0.98370765068E+01  0.13624431459E+02  0.00000000000E+00 0. -1.
<mgrwt>
<rscale>  1 0.30000000E+03</rscale>
<asrwt>0</asrwt>
<pdfrwt beam="1">  1        1 0.10303199E+00 0.30000000E+03</pdfrwt>
<pdfrwt beam="2">0</pdfrwt>
<totfact> 0.32757644E+01</totfact>
</mgrwt>
</event>
<event>
 6    1  0.1969531E-004  0.3000000E+03  0.7818608E-02  0.1093470E+00
          1   -1    0    0  502    0  0.00000000000E+00  0.00000000000E+00  0.31463716109E+02  0.31463716109E+02  0.00000000000E+00 0.  1.
         13   -1    0    0    0    0 -0.00000000000E+00 -0.00000000000E+00 -0.10000000000E+04  0.10000000000E+04  0.00000000000E+00 0.  1.
    9000005    2    1    2  501    0  0.12941219686E+02 -0.74090140081E+01 -0.96127377883E+03  0.10148771964E+04  0.32512471038E+03 0.  0.
         13    1    3    3    0    0  0.51385497287E+02 -0.15759314936E+03 -0.58196307123E+03  0.60510915242E+03  0.00000000000E+00 0.  1.
          3    1    3    3  501    0 -0.38444277601E+02  0.15018413535E+03 -0.37931070760E+03  0.40976804401E+03  0.00000000000E+00 0.  1.
         21    1    1    2  502  501 -0.12941219686E+02  0.74090140081E+01 -0.72625050610E+01  0.16586519686E+02  0.00000000000E+00 0. -1.
<mgrwt>
<rscale>  1 0.30000000E+03</rscale>
<asrwt>0</asrwt>
<pdfrwt beam="1">  1        1 0.11441375E+00 0.30000000E+03</pdfrwt>
<pdfrwt beam="2">0</pdfrwt>
<totfact> 0.27984503E+01</totfact>
</mgrwt>
</event>
<event>
 6    1  0.1969531E-004  0.3000000E+03  0.7818608E-02  0.1093470E+00
          1   -1    0    0  502    0  0.00000000000E+00  0.00000000000E+00  0.40756115972E+02  0.40756115972E+02  0.00000000000E+00 0.  1.
         13   -1    0    0    0    0 -0.00000000000E+00 -0.00000000000E+00 -0.10000000000E+04  0.10000000000E+04  0.00000000000E+00 0.  1.
    9000005    2    1    2  501    0  0.79544984598E+01  0.11357281844E+02 -0.96903641031E+03  0.10237809733E+04  0.33000553774E+03 0.  0.
         13    1    3    3    0    0  0.25471793671E+02 -0.40312864051E+02  0.52447453025E+01  0.47973395065E+02  0.00000000000E+00 0.  1.
          3    1    3    3  501    0 -0.17517295211E+02  0.51670145895E+02 -0.97428115562E+03  0.97580757826E+03  0.00000000000E+00 0.  1.
         21    1    1    2  502  501 -0.79544984598E+01 -0.11357281844E+02  0.97925262865E+01  0.16975142642E+02  0.00000000000E+00 0. -1.
<mgrwt>
<rscale>  1 0.30000000E+03</rscale>
<asrwt>0</asrwt>
<pdfrwt beam="1">  1        1 0.14820437E+00 0.30000000E+03</pdfrwt>
<pdfrwt beam="2">0</pdfrwt>
<totfact> 0.18347626E+01</totfact>
</mgrwt>
</event>
<event>
 6    1  0.1969531E-004  0.3000000E+03  0.7818608E-02  0.1093470E+00
          3   -1    0    0  502    0  0.00000000000E+00  0.00000000000E+00  0.39675823260E+02  0.39675823260E+02  0.00000000000E+00 0.  1.
         13   -1    0    0    0    0 -0.00000000000E+00 -0.00000000000E+00 -0.10000000000E+04  0.10000000000E+04  0.00000000000E+00 0.  1.
    9000005    2    1    2  501    0 -0.42630201560E+01 -0.10481921800E+02 -0.96345005361E+03  0.10279363543E+04  0.35817467616E+03 0.  0.
         13    1    3    3    0    0  0.69368052949E+02  0.59717665856E+02 -0.41689894404E+02  0.10057919109E+03  0.00000000000E+00 0.  1.
          3    1    3    3  501    0 -0.73631073105E+02 -0.70199587655E+02 -0.92176015921E+03  0.92735716320E+03  0.00000000000E+00 0.  1.
         21    1    1    2  502  501  0.42630201560E+01  0.10481921800E+02  0.31258768728E+01  0.11739468969E+02  0.00000000000E+00 0.  1.
<mgrwt>
<rscale>  1 0.30000000E+03</rscale>
<asrwt>0</asrwt>
<pdfrwt beam="1">  1        3 0.14427603E+00 0.30000000E+03</pdfrwt>
<pdfrwt beam="2">0</pdfrwt>
<totfact> 0.11806039E+00</totfact>
</mgrwt>
</event>
<event>
 6    1  0.1969531E-004  0.3000000E+03  0.7818608E-02  0.1093470E+00
          1   -1    0    0  502    0  0.00000000000E+00  0.00000000000E+00  0.39756252103E+02  0.39756252103E+02  0.00000000000E+00 0.  1.
         13   -1    0    0    0    0 -0.00000000000E+00 -0.00000000000E+00 -0.10000000000E+04  0.10000000000E+04  0.00000000000E+00 0.  1.
    9000005    2    1    2  501    0  0.23109998486E+02  0.19463374409E+02 -0.95972746169E+03  0.10095376895E+04  0.31173169691E+03 0.  0.
         13    1    3    3    0    0  0.38728162321E+02 -0.11810236662E+03 -0.73611548885E+03  0.74653469610E+03  0.00000000000E+00 0.  1.
          1    1    3    3  501    0 -0.15618163835E+02  0.13756574103E+03 -0.22361197284E+03  0.26300299342E+03  0.00000000000E+00 0.  1.
         21    1    1    2  502  501 -0.23109998486E+02 -0.19463374409E+02 -0.51628620638E+00  0.30218562587E+02  0.00000000000E+00 0. -1.
<mgrwt>
<rscale>  1 0.30000000E+03</rscale>
<asrwt>0</asrwt>
<pdfrwt beam="1">  1        1 0.14456849E+00 0.30000000E+03</pdfrwt>
<pdfrwt beam="2">0</pdfrwt>
<totfact> 0.19154220E+01</totfact>
</mgrwt>
</event>
<event>
 6    1  0.1969531E-004  0.3000000E+03  0.7818608E-02  0.1093470E+00
          1   -1    0    0  502    0  0.00000000000E+00  0.00000000000E+00  0.35158454150E+02  0.35158454150E+02  0.00000000000E+00 0.  1.
         13   -1    0    0    0    0 -0.00000000000E+00 -0.00000000000E+00 -0.10000000000E+04  0.10000000000E+04  0.00000000000E+00 0.  1.
    9000005    2    1    2  501    0 -0.56332785982E+01 -0.13505560818E+02 -0.97014650460E+03  0.10195932176E+04  0.31332404158E+03 0.  0.
         13    1    3    3    0    0  0.54526035472E+02  0.75206699543E+02 -0.86317938184E+03  0.86816345318E+03  0.00000000000E+00 0.  1.
          3    1    3    3  501    0 -0.60159314070E+02 -0.88712260361E+02 -0.10696712276E+03  0.15142976444E+03  0.00000000000E+00 0.  1.
         21    1    1    2  502  501  0.56332785982E+01  0.13505560818E+02  0.53049587502E+01  0.15565236526E+02  0.00000000000E+00 0. -1.
<mgrwt>
<rscale>  1 0.30000000E+03</rscale>
<asrwt>0</asrwt>
<pdfrwt beam="1">  1        1 0.12784919E+00 0.30000000E+03</pdfrwt>
<pdfrwt beam="2">0</pdfrwt>
<totfact> 0.23507667E+01</totfact>
</mgrwt>
</event>
<event>
 6    1  0.1969531E-004  0.3000000E+03  0.7818608E-02  0.1093470E+00
          1   -1    0    0  502    0  0.00000000000E+00  0.00000000000E+00  0.33800117663E+02  0.33800117663E+02  0.00000000000E+00 0.  1.
         13   -1    0    0    0    0 -0.00000000000E+00 -0.00000000000E+00 -0.10000000000E+04  0.10000000000E+04  0.00000000000E+00 0.  1.
    9000005    2    1    2  501    0 -0.22608951867E+02 -0.25527254879E+02 -0.92830798666E+03  0.98282364069E+03  0.32097318449E+03 0.  0.
         13    1    3    3    0    0 -0.56800073633E+02 -0.16710987488E+03 -0.53891725214E+03  0.56708355936E+03  0.00000000000E+00 0.  1.
          3    1    3    3  501    0  0.34191121766E+02  0.14158262000E+03 -0.38939073452E+03  0.41574008133E+03  0.00000000000E+00 0.  1.
         21    1    1    2  502  501  0.22608951867E+02  0.25527254879E+02 -0.37891895678E+02  0.50976476969E+02  0.00000000000E+00 0.  1.
<mgrwt>
<rscale>  1 0.30000000E+03</rscale>
<asrwt>0</asrwt>
<pdfrwt beam="1">  1        1 0.12290978E+00 0.30000000E+03</pdfrwt>
<pdfrwt beam="2">0</pdfrwt>
<totfact> 0.25035480E+01</totfact>
</mgrwt>
</event>
<event>
 6    1  0.1969531E-004  0.3000000E+03  0.7818608E-02  0.1093470E+00
          1   -1    0    0  502    0  0.00000000000E+00  0.00000000000E+00  0.70635793209E+02  0.70635793209E+02  0.00000000000E+00 0.  1.
         13   -1    0    0    0    0 -0.00000000000E+00 -0.00000000000E+00 -0.10000000000E+04  0.10000000000E+04  0.00000000000E+00 0.  1.
    9000005    2    1    2  501    0  0.10059791227E+03 -0.12522354502E+03 -0.73365164629E+03  0.81744755786E+03  0.32276136009E+03 0.  0.
         13    1    3    3    0    0 -0.96952366819E+02 -0.13033330616E+03 -0.35175218831E+03  0.38744823410E+03  0.00000000000E+00 0.  1.
          1    1    3    3  501    0  0.19755027909E+03  0.51097611395E+01 -0.38189945798E+03  0.42999932376E+03  0.00000000000E+00 0.  1.
         21    1    1    2  502  501 -0.10059791227E+03  0.12522354502E+03 -0.19571256050E+03  0.25318823535E+03  0.00000000000E+00 0.  1.
<mgrwt>
<rscale>  1 0.30000000E+03</rscale>
<asrwt>0</asrwt>
<pdfrwt beam="1">  1        1 0.25685797E+00 0.30000000E+03</pdfrwt>
<pdfrwt beam="2">0</pdfrwt>
<totfact> 0.55428820E+00</totfact>
</mgrwt>
</event>
<event>
 6    1  0.1969531E-004  0.3000000E+03  0.7818608E-02  0.1093470E+00
          1   -1    0    0  502    0  0.00000000000E+00  0.00000000000E+00  0.45407110058E+02  0.45407110058E+02  0.00000000000E+00 0.  1.
         13   -1    0    0    0    0 -0.00000000000E+00 -0.00000000000E+00 -0.10000000000E+04  0.10000000000E+04  0.00000000000E+00 0.  1.
    9000005    2    1    2  501    0  0.19199821486E+01  0.60319639532E+02 -0.92059648630E+03  0.97614022977E+03  0.31891960168E+03 0.  0.
         13    1    3    3    0    0 -0.13480825609E+03  0.27392063486E+02 -0.70797161995E+03  0.72121245532E+03  0.00000000000E+00 0.  1.
          3    1    3    3  501    0  0.13672823823E+03  0.32927576046E+02 -0.21262486635E+03  0.25492777445E+03  0.00000000000E+00 0.  1.
         21    1    1    2  502  501 -0.19199821486E+01 -0.60319639532E+02 -0.33996403642E+02  0.69266880292E+02  0.00000000000E+00 0. -1.
<mgrwt>
<rscale>  1 0.30000000E+03</rscale>
<asrwt>0</asrwt>
<pdfrwt beam="1">  1        1 0.16511711E+00 0.30000000E+03</pdfrwt>
<pdfrwt beam="2">0</pdfrwt>
<totfact> 0.15097249E+01</totfact>
</mgrwt>
</event>
<event>
 6    1  0.1969531E-004  0.3000000E+03  0.7818608E-02  0.1093470E+00
          1   -1    0    0  502    0  0.00000000000E+00  0.00000000000E+00  0.33337075525E+02  0.33337075525E+02  0.00000000000E+00 0.  1.
         13   -1    0    0    0    0 -0.00000000000E+00 -0.00000000000E+00 -0.10000000000E+04  0.10000000000E+04  0.00000000000E+00 0.  1.
    9000005    2    1    2  501    0  0.12255698958E+01 -0.18956814678E+02 -0.95531262045E+03  0.10112080845E+04  0.33099656258E+03 0.  0.
         13    1    3    3    0    0 -0.11984418284E+03  0.94475309940E+02 -0.59948933034E+03  0.61860784795E+03  0.00000000000E+00 0.  1.
          3    1    3    3  501    0  0.12106975274E+03 -0.11343212462E+03 -0.35582329010E+03  0.39260023651E+03  0.00000000000E+00 0.  1.
         21    1    1    2  502  501 -0.12255698958E+01  0.18956814678E+02 -0.11350304030E+02  0.22128991072E+02  0.00000000000E+00 0.  1.
<mgrwt>
<rscale>  1 0.30000000E+03</rscale>
<asrwt>0</asrwt>
<pdfrwt beam="1">  1        1 0.12122598E+00 0.30000000E+03</pdfrwt>
<pdfrwt beam="2">0</pdfrwt>
<totfact> 0.25585471E+01</totfact>
</mgrwt>
</event>
<event>
 6    1  0.1969531E-004  0.3000000E+03  0.7818608E-02  0.1093470E+00
          1   -1    0    0  502    0  0.00000000000E+00  0.00000000000E+00  0.32095495387E+02  0.32095495387E+02  0.00000000000E+00 0.  1.
         13   -1    0    0    0    0 -0.00000000000E+00 -0.00000000000E+00 -0.10000000000E+04  0.10000000000E+04  0.00000000000E+00 0.  1.
    9000005    2    1    2  501    0  0.41093975043E+01  0.11615880982E+02 -0.96332053394E+03  0.10189490652E+04  0.33184172518E+03 0.  0.
         13    1    3    3    0    0  0.64246666561E+02  0.15830008617E+03 -0.56411809171E+03  0.58941986126E+03  0.00000000000E+00 0.  1.
          3    1    3    3  501    0 -0.60137269056E+02 -0.14668420519E+03 -0.39920244223E+03  0.42952920397E+03  0.00000000000E+00 0.  1.
         21    1    1    2  502  501 -0.41093975043E+01 -0.11615880982E+02 -0.45839706685E+01  0.13146430159E+02  0.00000000000E+00 0. -1.
<mgrwt>
<rscale>  1 0.30000000E+03</rscale>
<asrwt>0</asrwt>
<pdfrwt beam="1">  1        1 0.11671114E+00 0.30000000E+03</pdfrwt>
<pdfrwt beam="2">0</pdfrwt>
<totfact> 0.27142199E+01</totfact>
</mgrwt>
</event>
<event>
 6    1  0.1969531E-004  0.3000000E+03  0.7818608E-02  0.1093470E+00
          1   -1    0    0  502    0  0.00000000000E+00  0.00000000000E+00  0.31769515460E+02  0.31769515460E+02  0.00000000000E+00 0.  1.
         13   -1    0    0    0    0 -0.00000000000E+00 -0.00000000000E+00 -0.10000000000E+04  0.10000000000E+04  0.00000000000E+00 0.  1.
    9000005    2    1    2  501    0 -0.18533094841E+02  0.12808923961E+02 -0.95756963576E+03  0.10068456748E+04  0.31030801047E+03 0.  0.
         13    1    3    3    0    0  0.71769016311E+02  0.13493497756E+03 -0.37859070021E+03  0.40827583587E+03  0.00000000000E+00 0.  1.
          1    1    3    3  501    0 -0.90302111152E+02 -0.12212605360E+03 -0.57897893554E+03  0.59856983891E+03  0.00000000000E+00 0.  1.
         21    1    1    2  502  501  0.18533094841E+02 -0.12808923961E+02 -0.10660848783E+02  0.24923840679E+02  0.00000000000E+00 0.  1.
<mgrwt>
<rscale>  1 0.30000000E+03</rscale>
<asrwt>0</asrwt>
<pdfrwt beam="1">  1        1 0.11552575E+00 0.30000000E+03</pdfrwt>
<pdfrwt beam="2">0</pdfrwt>
<totfact> 0.27572316E+01</totfact>
</mgrwt>
</event>
<event>
 6    1  0.1969531E-004  0.3000000E+03  0.7818608E-02  0.1093470E+00
          1   -1    0    0  502    0  0.00000000000E+00  0.00000000000E+00  0.34829434238E+02  0.34829434238E+02  0.00000000000E+00 0.  1.
         13   -1    0    0    0    0 -0.00000000000E+00 -0.00000000000E+00 -0.10000000000E+04  0.10000000000E+04  0.00000000000E+00 0.  1.
    9000005    2    1    2  501    0  0.22059078157E+02  0.21309382560E+02 -0.92142646119E+03  0.98140435213E+03  0.33643288524E+03 0.  0.
         13    1    3    3    0    0  0.14061254311E+03 -0.89577658418E+02 -0.35542915297E+03  0.39258875041E+03  0.00000000000E+00 0.  1.
          3    1    3    3  501    0 -0.11855346495E+03  0.11088704098E+03 -0.56599730823E+03  0.58881560172E+03  0.00000000000E+00 0.  1.
         21    1    1    2  502  501 -0.22059078157E+02 -0.21309382560E+02 -0.43744104568E+02  0.53425082112E+02  0.00000000000E+00 0. -1.
<mgrwt>
<rscale>  1 0.30000000E+03</rscale>
<asrwt>0</asrwt>
<pdfrwt beam="1">  1        1 0.12665276E+00 0.30000000E+03</pdfrwt>
<pdfrwt beam="2">0</pdfrwt>
<totfact> 0.23866567E+01</totfact>
</mgrwt>
</event>
<event>
 6    1  0.1969531E-004  0.3000000E+03  0.7818608E-02  0.1093470E+00
          3   -1    0    0  502    0  0.00000000000E+00  0.00000000000E+00  0.29940311956E+02  0.29940311956E+02  0.00000000000E+00 0.  1.
         13   -1    0    0    0    0 -0.00000000000E+00 -0.00000000000E+00 -0.10000000000E+04  0.10000000000E+04  0.00000000000E+00 0.  1.
    9000005    2    1    2  501    0 -0.14346129789E+02 -0.13008707489E+02 -0.95382659042E+03  0.10046707380E+04  0.31496521911E+03 0.  0.
         13    1    3    3    0    0  0.76484744869E+02  0.14760533439E+02 -0.43139226694E+02  0.89043710754E+02  0.00000000000E+00 0.  1.
          3    1    3    3  501    0 -0.90830874659E+02 -0.27769240927E+02 -0.91068736373E+03  0.91562702723E+03  0.00000000000E+00 0.  1.
         21    1    1    2  502  501  0.14346129789E+02  0.13008707489E+02 -0.16233097621E+02  0.25269573974E+02  0.00000000000E+00 0. -1.
<mgrwt>
<rscale>  1 0.30000000E+03</rscale>
<asrwt>0</asrwt>
<pdfrwt beam="1">  1        3 0.10887409E+00 0.30000000E+03</pdfrwt>
<pdfrwt beam="2">0</pdfrwt>
<totfact> 0.31039770E+00</totfact>
</mgrwt>
</event>
<event>
 6    1  0.1969531E-004  0.3000000E+03  0.7818608E-02  0.1093470E+00
          1   -1    0    0  502    0  0.00000000000E+00  0.00000000000E+00  0.41685291937E+02  0.41685291937E+02  0.00000000000E+00 0.  1.
         13   -1    0    0    0    0 -0.00000000000E+00 -0.00000000000E+00 -0.10000000000E+04  0.10000000000E+04  0.00000000000E+00 0.  1.
    9000005    2    1    2  501    0  0.35687325396E+01  0.10856083544E+02 -0.96975978609E+03  0.10255118503E+04  0.33333154980E+03 0.  0.
         13    1    3    3    0    0  0.16051565605E+03 -0.28418993213E+02 -0.37007465459E+03  0.40438615825E+03  0.00000000000E+00 0.  1.
          3    1    3    3  501    0 -0.15694692351E+03  0.39275076757E+02 -0.59968513149E+03  0.62112569210E+03  0.00000000000E+00 0.  1.
         21    1    1    2  502  501 -0.35687325396E+01 -0.10856083544E+02  0.11445078023E+02  0.16173441588E+02  0.00000000000E+00 0.  1.
<mgrwt>
<rscale>  1 0.30000000E+03</rscale>
<asrwt>0</asrwt>
<pdfrwt beam="1">  1        1 0.15158320E+00 0.30000000E+03</pdfrwt>
<pdfrwt beam="2">0</pdfrwt>
<totfact> 0.17635721E+01</totfact>
</mgrwt>
</event>
<event>
 6    1  0.1969531E-004  0.3000000E+03  0.7818608E-02  0.1093470E+00
          1   -1    0    0  502    0  0.00000000000E+00  0.00000000000E+00  0.28936150555E+02  0.28936150555E+02  0.00000000000E+00 0.  1.
         13   -1    0    0    0    0 -0.00000000000E+00 -0.00000000000E+00 -0.10000000000E+04  0.10000000000E+04  0.00000000000E+00 0.  1.
    9000005    2    1    2  501    0  0.17953646341E+02 -0.10238387783E+02 -0.93288658632E+03  0.98552346323E+03  0.31709928356E+03 0.  0.
         13    1    3    3    0    0  0.15040748964E+02 -0.16002776674E+03 -0.58649304634E+03  0.60811939918E+03  0.00000000000E+00 0.  1.
          1    1    3    3  501    0  0.29128973763E+01  0.14978937895E+03 -0.34639353998E+03  0.37740406405E+03  0.00000000000E+00 0.  1.
         21    1    1    2  502  501 -0.17953646341E+02  0.10238387783E+02 -0.38177263121E+02  0.43412687324E+02  0.00000000000E+00 0. -1.
<mgrwt>
<rscale>  1 0.30000000E+03</rscale>
<asrwt>0</asrwt>
<pdfrwt beam="1">  1        1 0.10522259E+00 0.30000000E+03</pdfrwt>
<pdfrwt beam="2">0</pdfrwt>
<totfact> 0.31752667E+01</totfact>
</mgrwt>
</event>
<event>
 6    1  0.1969531E-004  0.3000000E+03  0.7818608E-02  0.1093470E+00
          1   -1    0    0  502    0  0.00000000000E+00  0.00000000000E+00  0.44405445669E+02  0.44405445669E+02  0.00000000000E+00 0.  1.
         13   -1    0    0    0    0 -0.00000000000E+00 -0.00000000000E+00 -0.10000000000E+04  0.10000000000E+04  0.00000000000E+00 0.  1.
    9000005    2    1    2  501    0  0.53646481108E+01  0.11856293263E+02 -0.97221138282E+03  0.10232992824E+04  0.31902522991E+03 0.  0.
         13    1    3    3    0    0 -0.74441169626E+02 -0.94421411001E+02 -0.15923681756E+03  0.19953259046E+03  0.00000000000E+00 0.  1.
          1    1    3    3  501    0  0.79805817737E+02  0.10627770426E+03 -0.81297456526E+03  0.82376669193E+03  0.00000000000E+00 0.  1.
         21    1    1    2  502  501 -0.53646481108E+01 -0.11856293263E+02  0.16616828489E+02  0.21106163278E+02  0.00000000000E+00 0.  1.
<mgrwt>
<rscale>  1 0.30000000E+03</rscale>
<asrwt>0</asrwt>
<pdfrwt beam="1">  1        1 0.16147469E+00 0.30000000E+03</pdfrwt>
<pdfrwt beam="2">0</pdfrwt>
<totfact> 0.15735724E+01</totfact>
</mgrwt>
</event>
<event>
 6    1  0.1969531E-004  0.3000000E+03  0.7818608E-02  0.1093470E+00
          1   -1    0    0  502    0  0.00000000000E+00  0.00000000000E+00  0.42839014626E+02  0.42839014626E+02  0.00000000000E+00 0.  1.
         13   -1    0    0    0    0 -0.00000000000E+00 -0.00000000000E+00 -0.10000000000E+04  0.10000000000E+04  0.00000000000E+00 0.  1.
    9000005    2    1    2  501    0 -0.14049576193E+02 -0.16955804438E+02 -0.96503691885E+03  0.10194526891E+04  0.32787595307E+03 0.  0.
         13    1    3    3    0    0 -0.12139075668E+02  0.15159886008E+03 -0.57031012969E+03  0.59023996439E+03  0.00000000000E+00 0.  1.
          3    1    3    3  501    0 -0.19105005255E+01 -0.16855466452E+03 -0.39472678916E+03  0.42921272467E+03  0.00000000000E+00 0.  1.
         21    1    1    2  502  501  0.14049576193E+02  0.16955804438E+02  0.78759334730E+01  0.23386325565E+02  0.00000000000E+00 0.  1.
<mgrwt>
<rscale>  1 0.30000000E+03</rscale>
<asrwt>0</asrwt>
<pdfrwt beam="1">  1        1 0.15577856E+00 0.30000000E+03</pdfrwt>
<pdfrwt beam="2">0</pdfrwt>
<totfact> 0.16798213E+01</totfact>
</mgrwt>
</event>
<event>
 6    1  0.1969531E-004  0.3000000E+03  0.7818608E-02  0.1093470E+00
          1   -1    0    0  502    0  0.00000000000E+00  0.00000000000E+00  0.42842226626E+02  0.42842226626E+02  0.00000000000E+00 0.  1.
         13   -1    0    0    0    0 -0.00000000000E+00 -0.00000000000E+00 -0.10000000000E+04  0.10000000000E+04  0.00000000000E+00 0.  1.
    9000005    2    1    2  501    0  0.46039105987E+01 -0.21425480194E+02 -0.96686365566E+03  0.10188745120E+04  0.32062391571E+03 0.  0.
         13    1    3    3    0    0  0.42437778560E+02  0.13491725503E+03 -0.28333647364E+03  0.31667520909E+03  0.00000000000E+00 0.  1.
          3    1    3    3  501    0 -0.37833867961E+02 -0.15634273523E+03 -0.68352718202E+03  0.70219930289E+03  0.00000000000E+00 0.  1.
         21    1    1    2  502  501 -0.46039105987E+01  0.21425480194E+02  0.97058822884E+01  0.23967714646E+02  0.00000000000E+00 0.  1.
<mgrwt>
<rscale>  1 0.30000000E+03</rscale>
<asrwt>0</asrwt>
<pdfrwt beam="1">  1        1 0.15579024E+00 0.30000000E+03</pdfrwt>
<pdfrwt beam="2">0</pdfrwt>
<totfact> 0.16795949E+01</totfact>
</mgrwt>
</event>
<event>
 6    1  0.1969531E-004  0.3000000E+03  0.7818608E-02  0.1093470E+00
          1   -1    0    0  502    0  0.00000000000E+00  0.00000000000E+00  0.28582334542E+02  0.28582334542E+02  0.00000000000E+00 0.  1.
         13   -1    0    0    0    0 -0.00000000000E+00 -0.00000000000E+00 -0.10000000000E+04  0.10000000000E+04  0.00000000000E+00 0.  1.
    9000005    2    1    2  501    0  0.17049591200E+01  0.14260511471E+02 -0.94015649069E+03  0.99417986195E+03  0.32294442530E+03 0.  0.
         13    1    3    3    0    0  0.13961768602E+03  0.55307224872E+02 -0.68480125535E+03  0.70107399517E+03  0.00000000000E+00 0.  1.
          1    1    3    3  501    0 -0.13791272690E+03 -0.41046713402E+02 -0.25535523534E+03  0.29310586678E+03  0.00000000000E+00 0.  1.
         21    1    1    2  502  501 -0.17049591200E+01 -0.14260511471E+02 -0.31261174766E+02  0.34402472597E+02  0.00000000000E+00 0. -1.
<mgrwt>
<rscale>  1 0.30000000E+03</rscale>
<asrwt>0</asrwt>
<pdfrwt beam="1">  1        1 0.10393598E+00 0.30000000E+03</pdfrwt>
<pdfrwt beam="2">0</pdfrwt>
<totfact> 0.32337402E+01</totfact>
</mgrwt>
</event>
<event>
 6    1  0.1969531E-004  0.3000000E+03  0.7818608E-02  0.1093470E+00
          1   -1    0    0  502    0  0.00000000000E+00  0.00000000000E+00  0.40527697552E+02  0.40527697552E+02  0.00000000000E+00 0.  1.
         13   -1    0    0    0    0 -0.00000000000E+00 -0.00000000000E+00 -0.10000000000E+04  0.10000000000E+04  0.00000000000E+00 0.  1.
    9000005    2    1    2  501    0 -0.41352308035E+01 -0.48391108324E+02 -0.92575632030E+03  0.98140437770E+03  0.32213504697E+03 0.  0.
         13    1    3    3    0    0 -0.53412485230E+01 -0.12216350530E+03 -0.11683061556E+03  0.16912079616E+03  0.00000000000E+00 0.  1.
          3    1    3    3  501    0  0.12060177195E+01  0.73772396977E+02 -0.80892570474E+03  0.81228358153E+03  0.00000000000E+00 0.  1.
         21    1    1    2  502  501  0.41352308035E+01  0.48391108324E+02 -0.33715982147E+02  0.59123319856E+02  0.00000000000E+00 0.  1.
<mgrwt>
<rscale>  1 0.30000000E+03</rscale>
<asrwt>0</asrwt>
<pdfrwt beam="1">  1        1 0.14737376E+00 0.30000000E+03</pdfrwt>
<pdfrwt beam="2">0</pdfrwt>
<totfact> 0.18528078E+01</totfact>
</mgrwt>
</event>
<event>
 6    1  0.2558653E-004  0.3000000E+03  0.7818608E-02  0.1093470E+00
          1   -1    0    0  502    0  0.00000000000E+00  0.00000000000E+00  0.59325542762E+02  0.59325542762E+02  0.00000000000E+00 0.  1.
         13   -1    0    0    0    0 -0.00000000000E+00 -0.00000000000E+00 -0.10000000000E+04  0.10000000000E+04  0.00000000000E+00 0.  1.
    9000005    2    1    2  501    0  0.84436027339E+01  0.10908261965E+02 -0.93338911019E+03  0.10437255143E+04  0.46685911535E+03 0.  0.
         13    1    3    3    0    0  0.15142063002E+03 -0.66057537451E+02 -0.96693778736E+02  0.19141967584E+03  0.00000000000E+00 0.  1.
          3    1    3    3  501    0 -0.14297702729E+03  0.76965799416E+02 -0.83669533145E+03  0.85230583847E+03  0.00000000000E+00 0.  1.
         21    1    1    2  502  501 -0.84436027339E+01 -0.10908261965E+02 -0.72853470463E+01  0.15600028455E+02  0.00000000000E+00 0.  1.
<mgrwt>
<rscale>  1 0.30000000E+03</rscale>
<asrwt>0</asrwt>
<pdfrwt beam="1">  1        1 0.21572970E+00 0.30000000E+03</pdfrwt>
<pdfrwt beam="2">0</pdfrwt>
<totfact> 0.86325289E+00</totfact>
</mgrwt>
</event>
<event>
 6    1  0.1969531E-004  0.3000000E+03  0.7818608E-02  0.1093470E+00
          1   -1    0    0  502    0  0.00000000000E+00  0.00000000000E+00  0.28423666173E+02  0.28423666173E+02  0.00000000000E+00 0.  1.
         13   -1    0    0    0    0 -0.00000000000E+00 -0.00000000000E+00 -0.10000000000E+04  0.10000000000E+04  0.00000000000E+00 0.  1.
    9000005    2    1    2  501    0 -0.41137035928E+01  0.74069356135E+01 -0.95045190673E+03  0.10056634669E+04  0.32852457492E+03 0.  0.
         13    1    3    3    0    0 -0.13133093495E+03  0.86587219264E+02 -0.66407788059E+03  0.68245482818E+03  0.00000000000E+00 0.  1.
          1    1    3    3  501    0  0.12721723136E+03 -0.79180283650E+02 -0.28637402614E+03  0.32320863868E+03  0.00000000000E+00 0.  1.
         21    1    1    2  502  501  0.41137035928E+01 -0.74069356135E+01 -0.21124427099E+02  0.22760199311E+02  0.00000000000E+00 0. -1.
<mgrwt>
<rscale>  1 0.30000000E+03</rscale>
<asrwt>0</asrwt>
<pdfrwt beam="1">  1        1 0.10335900E+00 0.30000000E+03</pdfrwt>
<pdfrwt beam="2">0</pdfrwt>
<totfact> 0.32604711E+01</totfact>
</mgrwt>
</event>
<event>
 6    1  0.1969531E-004  0.3000000E+03  0.7818608E-02  0.1093470E+00
          1   -1    0    0  502    0  0.00000000000E+00  0.00000000000E+00  0.30789297208E+02  0.30789297208E+02  0.00000000000E+00 0.  1.
         13   -1    0    0    0    0 -0.00000000000E+00 -0.00000000000E+00 -0.10000000000E+04  0.10000000000E+04  0.00000000000E+00 0.  1.
    9000005    2    1    2  501    0 -0.16075970430E+02 -0.61802790200E+01 -0.88236785990E+03  0.94225505504E+03  0.33011348942E+03 0.  0.
         13    1    3    3    0    0 -0.87240416268E+02 -0.14495829936E+03 -0.54341235032E+03  0.56914038801E+03  0.00000000000E+00 0.  1.
          1    1    3    3  501    0  0.71164445838E+02  0.13877802034E+03 -0.33895550958E+03  0.37311466703E+03  0.00000000000E+00 0.  1.
         21    1    1    2  502  501  0.16075970430E+02  0.61802790200E+01 -0.86842842894E+02  0.88534242166E+02  0.00000000000E+00 0.  1.
<mgrwt>
<rscale>  1 0.30000000E+03</rscale>
<asrwt>0</asrwt>
<pdfrwt beam="1">  1        1 0.11196132E+00 0.30000000E+03</pdfrwt>
<pdfrwt beam="2">0</pdfrwt>
<totfact> 0.28924926E+01</totfact>
</mgrwt>
</event>
<event>
 6    1  0.1969531E-004  0.3000000E+03  0.7818608E-02  0.1093470E+00
          1   -1    0    0  502    0  0.00000000000E+00  0.00000000000E+00  0.32813554589E+02  0.32813554589E+02  0.00000000000E+00 0.  1.
         13   -1    0    0    0    0 -0.00000000000E+00 -0.00000000000E+00 -0.10000000000E+04  0.10000000000E+04  0.00000000000E+00 0.  1.
    9000005    2    1    2  501    0  0.10585323461E+02  0.94442562143E+01 -0.96439083842E+03  0.10183547003E+04  0.32679559879E+03 0.  0.
         13    1    3    3    0    0  0.14806342885E+03  0.42674354231E+02 -0.71714518070E+03  0.73351284220E+03  0.00000000000E+00 0.  1.
          3    1    3    3  501    0 -0.13747810539E+03 -0.33230098017E+02 -0.24724565772E+03  0.28484185812E+03  0.00000000000E+00 0.  1.
         21    1    1    2  502  501 -0.10585323461E+02 -0.94442562143E+01 -0.27956069875E+01  0.14458854264E+02  0.00000000000E+00 0. -1.
<mgrwt>
<rscale>  1 0.30000000E+03</rscale>
<asrwt>0</asrwt>
<pdfrwt beam="1">  1        1 0.11932227E+00 0.30000000E+03</pdfrwt>
<pdfrwt beam="2">0</pdfrwt>
<totfact> 0.26226764E+01</totfact>
</mgrwt>
</event>
<event>
 6    1  0.1969531E-004  0.3000000E+03  0.7818608E-02  0.1093470E+00
          1   -1    0    0  502    0  0.00000000000E+00  0.00000000000E+00  0.36189490250E+02  0.36189490250E+02  0.00000000000E+00 0.  1.
         13   -1    0    0    0    0 -0.00000000000E+00 -0.00000000000E+00 -0.10000000000E+04  0.10000000000E+04  0.00000000000E+00 0.  1.
    9000005    2    1    2  501    0  0.10896994597E+02  0.34511214090E+00 -0.96175370455E+03  0.10250947148E+04  0.35458443649E+03 0.  0.
         13    1    3    3    0    0  0.12151030734E+03 -0.11401375603E+03 -0.28723470704E+03  0.33206575897E+03  0.00000000000E+00 0.  1.
          3    1    3    3  501    0 -0.11061331274E+03  0.11435886817E+03 -0.67451899751E+03  0.69302895588E+03  0.00000000000E+00 0.  1.
         21    1    1    2  502  501 -0.10896994597E+02 -0.34511214090E+00 -0.20568052046E+01  0.11094775405E+02  0.00000000000E+00 0.  1.
<mgrwt>
<rscale>  1 0.30000000E+03</rscale>
<asrwt>0</asrwt>
<pdfrwt beam="1">  1        1 0.13159842E+00 0.30000000E+03</pdfrwt>
<pdfrwt beam="2">0</pdfrwt>
<totfact> 0.22427197E+01</totfact>
</mgrwt>
</event>
<event>
 6    1  0.1969531E-004  0.3000000E+03  0.7818608E-02  0.1093470E+00
          1   -1    0    0  502    0  0.00000000000E+00  0.00000000000E+00  0.30768008020E+02  0.30768008020E+02  0.00000000000E+00 0.  1.
         13   -1    0    0    0    0 -0.00000000000E+00 -0.00000000000E+00 -0.10000000000E+04  0.10000000000E+04  0.00000000000E+00 0.  1.
    9000005    2    1    2  501    0 -0.94558094242E+01 -0.44737553685E+01 -0.96104682524E+03  0.10174855469E+04  0.33400061529E+03 0.  0.
         13    1    3    3    0    0 -0.90382501294E+02 -0.10243839126E+01 -0.92400843052E+03  0.92841888476E+03  0.00000000000E+00 0.  1.
          1    1    3    3  501    0  0.80926691870E+02 -0.34493714559E+01 -0.37038394717E+02  0.89066662134E+02  0.00000000000E+00 0.  1.
         21    1    1    2  502  501  0.94558094242E+01  0.44737553685E+01 -0.81851667410E+01  0.13282461125E+02  0.00000000000E+00 0. -1.
<mgrwt>
<rscale>  1 0.30000000E+03</rscale>
<asrwt>0</asrwt>
<pdfrwt beam="1">  1        1 0.11188390E+00 0.30000000E+03</pdfrwt>
<pdfrwt beam="2">0</pdfrwt>
<totfact> 0.28955341E+01</totfact>
</mgrwt>
</event>
<event>
 6    1  0.1969531E-004  0.3000000E+03  0.7818608E-02  0.1093470E+00
          1   -1    0    0  502    0  0.00000000000E+00  0.00000000000E+00  0.41906945469E+02  0.41906945469E+02  0.00000000000E+00 0.  1.
         13   -1    0    0    0    0 -0.00000000000E+00 -0.00000000000E+00 -0.10000000000E+04  0.10000000000E+04  0.00000000000E+00 0.  1.
    9000005    2    1    2  501    0  0.15101155808E+02  0.88628601533E+01 -0.96884255752E+03  0.10213607290E+04  0.32282385642E+03 0.  0.
         13    1    3    3    0    0 -0.90496701324E+02  0.28176182395E+02 -0.74387184648E+02  0.12048652806E+03  0.00000000000E+00 0.  1.
          1    1    3    3  501    0  0.10559785713E+03 -0.19313322242E+02 -0.89445537287E+03  0.90087420093E+03  0.00000000000E+00 0.  1.
         21    1    1    2  502  501 -0.15101155808E+02 -0.88628601533E+01  0.10749502990E+02  0.20546216473E+02  0.00000000000E+00 0. -1.
<mgrwt>
<rscale>  1 0.30000000E+03</rscale>
<asrwt>0</asrwt>
<pdfrwt beam="1">  1        1 0.15238921E+00 0.30000000E+03</pdfrwt>
<pdfrwt beam="2">0</pdfrwt>
<totfact> 0.17470953E+01</totfact>
</mgrwt>
</event>
<event>
 6    1  0.1969531E-004  0.3000000E+03  0.7818608E-02  0.1093470E+00
          1   -1    0    0  502    0  0.00000000000E+00  0.00000000000E+00  0.28289369513E+02  0.28289369513E+02  0.00000000000E+00 0.  1.
         13   -1    0    0    0    0 -0.00000000000E+00 -0.00000000000E+00 -0.10000000000E+04  0.10000000000E+04  0.00000000000E+00 0.  1.
    9000005    2    1    2  501    0 -0.66918694627E+01 -0.75135565625E+01 -0.95640883666E+03  0.10099759989E+04  0.32439546984E+03 0.  0.
         13    1    3    3    0    0 -0.15660159886E+03 -0.40023536689E+02 -0.61137610897E+03  0.63238176039E+03  0.00000000000E+00 0.  1.
          1    1    3    3  501    0  0.14990972939E+03  0.32509980126E+02 -0.34503272769E+03  0.37759423850E+03  0.00000000000E+00 0.  1.
         21    1    1    2  502  501  0.66918694627E+01  0.75135565625E+01 -0.15301793829E+02  0.18313370621E+02  0.00000000000E+00 0. -1.
<mgrwt>
<rscale>  1 0.30000000E+03</rscale>
<asrwt>0</asrwt>
<pdfrwt beam="1">  1        1 0.10287065E+00 0.30000000E+03</pdfrwt>
<pdfrwt beam="2">0</pdfrwt>
<totfact> 0.32833482E+01</totfact>
</mgrwt>
</event>
<event>
 6    1  0.1969531E-004  0.3000000E+03  0.7818608E-02  0.1093470E+00
          1   -1    0    0  502    0  0.00000000000E+00  0.00000000000E+00  0.29231355039E+02  0.29231355039E+02  0.00000000000E+00 0.  1.
         13   -1    0    0    0    0 -0.00000000000E+00 -0.00000000000E+00 -0.10000000000E+04  0.10000000000E+04  0.00000000000E+00 0.  1.
    9000005    2    1    2  501    0  0.72698334656E+01 -0.22119578387E+02 -0.91622351494E+03  0.96992454737E+03  0.31740505989E+03 0.  0.
         13    1    3    3    0    0 -0.26583437396E+02 -0.14696041578E+03 -0.71703068138E+03  0.73241862414E+03  0.00000000000E+00 0.  1.
          3    1    3    3  501    0  0.33853270862E+02  0.12484083739E+03 -0.19919283356E+03  0.23750592323E+03  0.00000000000E+00 0.  1.
         21    1    1    2  502  501 -0.72698334656E+01  0.22119578387E+02 -0.54545130024E+02  0.59306807670E+02  0.00000000000E+00 0. -1.
<mgrwt>
<rscale>  1 0.30000000E+03</rscale>
<asrwt>0</asrwt>
<pdfrwt beam="1">  1        1 0.10629606E+00 0.30000000E+03</pdfrwt>
<pdfrwt beam="2">0</pdfrwt>
<totfact> 0.31276426E+01</totfact>
</mgrwt>
</event>
<event>
 6    1  0.1969531E-004  0.3000000E+03  0.7818608E-02  0.1093470E+00
          1   -1    0    0  502    0  0.00000000000E+00  0.00000000000E+00  0.23786169948E+02  0.23786169948E+02  0.00000000000E+00 0.  1.
         13   -1    0    0    0    0 -0.00000000000E+00 -0.00000000000E+00 -0.10000000000E+04  0.10000000000E+04  0.00000000000E+00 0.  1.
    9000005    2    1    2  501    0 -0.30020595676E+02 -0.41265931614E+01 -0.93153474429E+03  0.96980019362E+03  0.26802457123E+03 0.  0.
         13    1    3    3    0    0 -0.18987331256E+02  0.13045150653E+03 -0.53091632847E+03  0.54703771547E+03  0.00000000000E+00 0.  1.
          1    1    3    3  501    0 -0.11033264420E+02 -0.13457809969E+03 -0.40061841582E+03  0.42276247815E+03  0.00000000000E+00 0.  1.
         21    1    1    2  502  501  0.30020595676E+02  0.41265931614E+01 -0.44679085761E+02  0.53985976329E+02  0.00000000000E+00 0.  1.
<mgrwt>
<rscale>  1 0.30000000E+03</rscale>
<asrwt>0</asrwt>
<pdfrwt beam="1">  1        1 0.86495346E-01 0.30000000E+03</pdfrwt>
<pdfrwt beam="2">0</pdfrwt>
<totfact> 0.42127033E+01</totfact>
</mgrwt>
</event>
<event>
 6    1  0.1969531E-004  0.3000000E+03  0.7818608E-02  0.1093470E+00
          1   -1    0    0  502    0  0.00000000000E+00  0.00000000000E+00  0.51141373927E+02  0.51141373927E+02  0.00000000000E+00 0.  1.
         13   -1    0    0    0    0 -0.00000000000E+00 -0.00000000000E+00 -0.10000000000E+04  0.10000000000E+04  0.00000000000E+00 0.  1.
    9000005    2    1    2  501    0  0.16647039620E+02  0.97941283065E+01 -0.94600971966E+03  0.10316179228E+04  0.41100863739E+03 0.  0.
         13    1    3    3    0    0  0.25938654263E+02 -0.19180970514E+03 -0.32107926069E+03  0.37490754649E+03  0.00000000000E+00 0.  1.
          1    1    3    3  501    0 -0.92916146430E+01  0.20160383344E+03 -0.62493045897E+03  0.65671037628E+03  0.00000000000E+00 0.  1.
         21    1    1    2  502  501 -0.16647039620E+02 -0.97941283065E+01 -0.28489064124E+01  0.19523451158E+02  0.00000000000E+00 0.  1.
<mgrwt>
<rscale>  1 0.30000000E+03</rscale>
<asrwt>0</asrwt>
<pdfrwt beam="1">  1        1 0.18596902E+00 0.30000000E+03</pdfrwt>
<pdfrwt beam="2">0</pdfrwt>
<totfact> 0.11955410E+01</totfact>
</mgrwt>
</event>
<event>
 6    1  0.1969531E-004  0.3000000E+03  0.7818608E-02  0.1093470E+00
          1   -1    0    0  502    0  0.00000000000E+00  0.00000000000E+00  0.35304113531E+02  0.35304113531E+02  0.00000000000E+00 0.  1.
         13   -1    0    0    0    0 -0.00000000000E+00 -0.00000000000E+00 -0.10000000000E+04  0.10000000000E+04  0.00000000000E+00 0.  1.
    9000005    2    1    2  501    0  0.30102354034E+02 -0.16649909995E+02 -0.94654388738E+03  0.99640853162E+03  0.30935620234E+03 0.  0.
         13    1    3    3    0    0 -0.25622624922E+02 -0.29485579227E+02  0.82326190424E+01  0.39921101018E+02  0.00000000000E+00 0.  1.
          1    1    3    3  501    0  0.55724978955E+02  0.12835669231E+02 -0.95477650642E+03  0.95648743060E+03  0.00000000000E+00 0.  1.
         21    1    1    2  502  501 -0.30102354034E+02  0.16649909995E+02 -0.18151999090E+02  0.38895581911E+02  0.00000000000E+00 0.  1.
<mgrwt>
<rscale>  1 0.30000000E+03</rscale>
<asrwt>0</asrwt>
<pdfrwt beam="1">  1        1 0.12837887E+00 0.30000000E+03</pdfrwt>
<pdfrwt beam="2">0</pdfrwt>
<totfact> 0.23350994E+01</totfact>
</mgrwt>
</event>
<event>
 6    1  0.1969531E-004  0.3000000E+03  0.7818608E-02  0.1093470E+00
          1   -1    0    0  502    0  0.00000000000E+00  0.00000000000E+00  0.20342597692E+02  0.20342597692E+02  0.00000000000E+00 0.  1.
         13   -1    0    0    0    0 -0.00000000000E+00 -0.00000000000E+00 -0.10000000000E+04  0.10000000000E+04  0.00000000000E+00 0.  1.
    9000005    2    1    2  501    0 -0.10629751717E+02  0.58549555753E+00 -0.97318195209E+03  0.10078820246E+04  0.26197276420E+03 0.  0.
         13    1    3    3    0    0 -0.58634151613E+02  0.88035982445E+02 -0.80813895954E+03  0.81503182506E+03  0.00000000000E+00 0.  1.
          1    1    3    3  501    0  0.48004399897E+02 -0.87450486887E+02 -0.16504299255E+03  0.19285019953E+03  0.00000000000E+00 0.  1.
         21    1    1    2  502  501  0.10629751717E+02 -0.58549555753E+00 -0.64754502184E+01  0.12460573106E+02  0.00000000000E+00 0.  1.
<mgrwt>
<rscale>  1 0.30000000E+03</rscale>
<asrwt>0</asrwt>
<pdfrwt beam="1">  1        1 0.73973239E-01 0.30000000E+03</pdfrwt>
<pdfrwt beam="2">0</pdfrwt>
<totfact> 0.52301813E+01</totfact>
</mgrwt>
</event>
<event>
 6    1  0.1969531E-004  0.3000000E+03  0.7818608E-02  0.1093470E+00
          1   -1    0    0  502    0  0.00000000000E+00  0.00000000000E+00  0.34135919431E+02  0.34135919431E+02  0.00000000000E+00 0.  1.
         13   -1    0    0    0    0 -0.00000000000E+00 -0.00000000000E+00 -0.10000000000E+04  0.10000000000E+04  0.00000000000E+00 0.  1.
    9000005    2    1    2  501    0 -0.99533429171E+01 -0.11703846639E+02 -0.96415078302E+03  0.10186767975E+04  0.32845035602E+03 0.  0.
         13    1    3    3    0    0  0.13870278728E+03  0.70890464372E+02 -0.52967167457E+03  0.55210144355E+03  0.00000000000E+00 0.  1.
          1    1    3    3  501    0 -0.14865613020E+03 -0.82594311011E+02 -0.43447910846E+03  0.46657535398E+03  0.00000000000E+00 0.  1.
         21    1    1    2  502  501  0.99533429171E+01  0.11703846639E+02 -0.17132975472E+01  0.15459121898E+02  0.00000000000E+00 0.  1.
<mgrwt>
<rscale>  1 0.30000000E+03</rscale>
<asrwt>0</asrwt>
<pdfrwt beam="1">  1        1 0.12413088E+00 0.30000000E+03</pdfrwt>
<pdfrwt beam="2">0</pdfrwt>
<totfact> 0.24646250E+01</totfact>
</mgrwt>
</event>
<event>
 6    1  0.1969531E-004  0.3000000E+03  0.7818608E-02  0.1093470E+00
          1   -1    0    0  502    0  0.00000000000E+00  0.00000000000E+00  0.28721107267E+02  0.28721107267E+02  0.00000000000E+00 0.  1.
         13   -1    0    0    0    0 -0.00000000000E+00 -0.00000000000E+00 -0.10000000000E+04  0.10000000000E+04  0.00000000000E+00 0.  1.
    9000005    2    1    2  501    0 -0.93251213976E+01 -0.38062111371E+01 -0.94108970155E+03  0.99689607944E+03  0.32871039183E+03 0.  0.
         13    1    3    3    0    0 -0.22376458709E+02  0.56664092400E+02 -0.76408771934E+01  0.61399578794E+02  0.00000000000E+00 0.  1.
          3    1    3    3  501    0  0.13051337312E+02 -0.60470303537E+02 -0.93344882436E+03  0.93549650064E+03  0.00000000000E+00 0.  1.
         21    1    1    2  502  501  0.93251213976E+01  0.38062111371E+01 -0.30189191179E+02  0.31825027829E+02  0.00000000000E+00 0.  1.
<mgrwt>
<rscale>  1 0.30000000E+03</rscale>
<asrwt>0</asrwt>
<pdfrwt beam="1">  1        1 0.10444061E+00 0.30000000E+03</pdfrwt>
<pdfrwt beam="2">0</pdfrwt>
<totfact> 0.32106213E+01</totfact>
</mgrwt>
</event>
<event>
 6    1  0.1969531E-004  0.3000000E+03  0.7818608E-02  0.1093470E+00
          1   -1    0    0  502    0  0.00000000000E+00  0.00000000000E+00  0.27203833029E+02  0.27203833029E+02  0.00000000000E+00 0.  1.
         13   -1    0    0    0    0 -0.00000000000E+00 -0.00000000000E+00 -0.10000000000E+04  0.10000000000E+04  0.00000000000E+00 0.  1.
    9000005    2    1    2  501    0  0.12477648517E+02 -0.16619892174E+01 -0.96711874113E+03  0.10133948836E+04  0.30247657215E+03 0.  0.
         13    1    3    3    0    0  0.36748894854E+02 -0.13310239856E+03 -0.71320673450E+03  0.72645066998E+03  0.00000000000E+00 0.  1.
          1    1    3    3  501    0 -0.24271246336E+02  0.13144040935E+03 -0.25391200663E+03  0.28694421360E+03  0.00000000000E+00 0.  1.
         21    1    1    2  502  501 -0.12477648517E+02  0.16619892174E+01 -0.56774258386E+01  0.13808949447E+02  0.00000000000E+00 0. -1.
<mgrwt>
<rscale>  1 0.30000000E+03</rscale>
<asrwt>0</asrwt>
<pdfrwt beam="1">  1        1 0.98923238E-01 0.30000000E+03</pdfrwt>
<pdfrwt beam="2">0</pdfrwt>
<totfact> 0.34772116E+01</totfact>
</mgrwt>
</event>
<event>
 6    1  0.1969531E-004  0.3000000E+03  0.7818608E-02  0.1093470E+00
          1   -1    0    0  502    0  0.00000000000E+00  0.00000000000E+00  0.79632025650E+02  0.79632025650E+02  0.00000000000E+00 0.  1.
         13   -1    0    0    0    0 -0.00000000000E+00 -0.00000000000E+00 -0.10000000000E+04  0.10000000000E+04  0.00000000000E+00 0.  1.
    9000005    2    1    2  501    0  0.92057038372E+01  0.57825250337E+02 -0.95057915675E+03  0.10137440897E+04  0.34734398170E+03 0.  0.
         13    1    3    3    0    0 -0.25674155313E+02 -0.33076003061E+02 -0.90547166188E+03  0.90643925042E+03  0.00000000000E+00 0.  1.
          3    1    3    3  501    0  0.34879859150E+02  0.90901253398E+02 -0.45107494872E+02  0.10730483930E+03  0.00000000000E+00 0.  1.
         21    1    1    2  502  501 -0.92057038372E+01 -0.57825250337E+02  0.30211182401E+02  0.65887935934E+02  0.00000000000E+00 0.  1.
<mgrwt>
<rscale>  1 0.30000000E+03</rscale>
<asrwt>0</asrwt>
<pdfrwt beam="1">  1        1 0.28957161E+00 0.30000000E+03</pdfrwt>
<pdfrwt beam="2">0</pdfrwt>
<totfact> 0.38927025E+00</totfact>
</mgrwt>
</event>
<event>
 6    1  0.1969531E-004  0.3000000E+03  0.7818608E-02  0.1093470E+00
          1   -1    0    0  502    0  0.00000000000E+00  0.00000000000E+00  0.35139056908E+02  0.35139056908E+02  0.00000000000E+00 0.  1.
         13   -1    0    0    0    0 -0.00000000000E+00 -0.00000000000E+00 -0.10000000000E+04  0.10000000000E+04  0.00000000000E+00 0.  1.
    9000005    2    1    2  501    0 -0.14535787668E+02 -0.96295163242E+01 -0.96484026835E+03  0.10177029698E+04  0.32326239267E+03 0.  0.
         13    1    3    3    0    0  0.50459096144E+02 -0.29532666598E+02 -0.94511927042E+03  0.94692593908E+03  0.00000000000E+00 0.  1.
          3    1    3    3  501    0 -0.64994883811E+02  0.19903150274E+02 -0.19720997930E+02  0.70777030679E+02  0.00000000000E+00 0.  1.
         21    1    1    2  502  501  0.14535787668E+02  0.96295163242E+01 -0.20674745041E-01  0.17436087153E+02  0.00000000000E+00 0. -1.
<mgrwt>
<rscale>  1 0.30000000E+03</rscale>
<asrwt>0</asrwt>
<pdfrwt beam="1">  1        1 0.12777866E+00 0.30000000E+03</pdfrwt>
<pdfrwt beam="2">0</pdfrwt>
<totfact> 0.23528633E+01</totfact>
</mgrwt>
</event>
<event>
 6    1  0.1969531E-004  0.3000000E+03  0.7818608E-02  0.1093470E+00
          1   -1    0    0  502    0  0.00000000000E+00  0.00000000000E+00  0.36987561310E+02  0.36987561310E+02  0.00000000000E+00 0.  1.
         13   -1    0    0    0    0 -0.00000000000E+00 -0.00000000000E+00 -0.10000000000E+04  0.10000000000E+04  0.00000000000E+00 0.  1.
    9000005    2    1    2  501    0  0.17100721040E+01 -0.19801169994E+02 -0.96244196925E+03  0.10171045003E+04  0.32834739176E+03 0.  0.
         13    1    3    3    0    0  0.11335884209E+03 -0.12949326694E+03 -0.48125799793E+03  0.51110467991E+03  0.00000000000E+00 0.  1.
          3    1    3    3  501    0 -0.11164876998E+03  0.10969209695E+03 -0.48118397132E+03  0.50599982039E+03  0.00000000000E+00 0.  1.
         21    1    1    2  502  501 -0.17100721040E+01  0.19801169994E+02 -0.57046944025E+00  0.19883061010E+02  0.00000000000E+00 0. -1.
<mgrwt>
<rscale>  1 0.30000000E+03</rscale>
<asrwt>0</asrwt>
<pdfrwt beam="1">  1        1 0.13450051E+00 0.30000000E+03</pdfrwt>
<pdfrwt beam="2">0</pdfrwt>
<totfact> 0.21635091E+01</totfact>
</mgrwt>
</event>
<event>
 6    1  0.1969531E-004  0.3000000E+03  0.7818608E-02  0.1093470E+00
          1   -1    0    0  502    0  0.00000000000E+00  0.00000000000E+00  0.31337214480E+02  0.31337214480E+02  0.00000000000E+00 0.  1.
         13   -1    0    0    0    0 -0.00000000000E+00 -0.00000000000E+00 -0.10000000000E+04  0.10000000000E+04  0.00000000000E+00 0.  1.
    9000005    2    1    2  501    0  0.10036644381E+02  0.85142875491E+01 -0.93653239246E+03  0.99661561485E+03  0.34055327675E+03 0.  0.
         13    1    3    3    0    0 -0.25336558846E+01  0.60421833958E+02 -0.94107384908E+03  0.94301495579E+03  0.00000000000E+00 0.  1.
          1    1    3    3  501    0  0.12570300266E+02 -0.51907546409E+02  0.45414566166E+01  0.53600659055E+02  0.00000000000E+00 0.  1.
         21    1    1    2  502  501 -0.10036644381E+02 -0.85142875491E+01 -0.32130393057E+02  0.34721599630E+02  0.00000000000E+00 0.  1.
<mgrwt>
<rscale>  1 0.30000000E+03</rscale>
<asrwt>0</asrwt>
<pdfrwt beam="1">  1        1 0.11395375E+00 0.30000000E+03</pdfrwt>
<pdfrwt beam="2">0</pdfrwt>
<totfact> 0.28157553E+01</totfact>
</mgrwt>
</event>
<event>
 6    1  0.1969531E-004  0.3000000E+03  0.7818608E-02  0.1093470E+00
          1   -1    0    0  502    0  0.00000000000E+00  0.00000000000E+00  0.43908359652E+02  0.43908359652E+02  0.00000000000E+00 0.  1.
         13   -1    0    0    0    0 -0.00000000000E+00 -0.00000000000E+00 -0.10000000000E+04  0.10000000000E+04  0.00000000000E+00 0.  1.
    9000005    2    1    2  501    0 -0.27009751994E+02  0.31158645012E+02 -0.92833694822E+03  0.99420211460E+03  0.35345150641E+03 0.  0.
         13    1    3    3    0    0  0.14834601297E+03  0.30220601628E+02 -0.63189233567E+03  0.64977515203E+03  0.00000000000E+00 0.  1.
          1    1    3    3  501    0 -0.17535576496E+03  0.93804338365E+00 -0.29644461256E+03  0.34442696257E+03  0.00000000000E+00 0.  1.
         21    1    1    2  502  501  0.27009751994E+02 -0.31158645012E+02 -0.27754692124E+02  0.49706245047E+02  0.00000000000E+00 0.  1.
<mgrwt>
<rscale>  1 0.30000000E+03</rscale>
<asrwt>0</asrwt>
<pdfrwt beam="1">  1        1 0.15966710E+00 0.30000000E+03</pdfrwt>
<pdfrwt beam="2">0</pdfrwt>
<totfact> 0.16064120E+01</totfact>
</mgrwt>
</event>
<event>
 6    1  0.1969531E-004  0.3000000E+03  0.7818608E-02  0.1093470E+00
          3   -1    0    0  502    0  0.00000000000E+00  0.00000000000E+00  0.44955731637E+02  0.44955731637E+02  0.00000000000E+00 0.  1.
         13   -1    0    0    0    0 -0.00000000000E+00 -0.00000000000E+00 -0.10000000000E+04  0.10000000000E+04  0.00000000000E+00 0.  1.
    9000005    2    1    2  501    0 -0.12440893397E+02 -0.18069798859E+02 -0.95289905958E+03  0.10229126969E+04  0.37128489639E+03 0.  0.
         13    1    3    3    0    0  0.14800710948E+03  0.90436504224E+02 -0.53254135599E+03  0.56007603198E+03  0.00000000000E+00 0.  1.
          3    1    3    3  501    0 -0.16044800288E+03 -0.10850630308E+03 -0.42035770359E+03  0.46283666493E+03  0.00000000000E+00 0.  1.
         21    1    1    2  502  501  0.12440893397E+02  0.18069798859E+02 -0.21452087809E+01  0.22043034729E+02  0.00000000000E+00 0. -1.
<mgrwt>
<rscale>  1 0.30000000E+03</rscale>
<asrwt>0</asrwt>
<pdfrwt beam="1">  1        3 0.16347573E+00 0.30000000E+03</pdfrwt>
<pdfrwt beam="2">0</pdfrwt>
<totfact> 0.62578833E-01</totfact>
</mgrwt>
</event>
<event>
 6    1  0.1969531E-004  0.3000000E+03  0.7818608E-02  0.1093470E+00
          1   -1    0    0  502    0  0.00000000000E+00  0.00000000000E+00  0.21583072171E+02  0.21583072171E+02  0.00000000000E+00 0.  1.
         13   -1    0    0    0    0 -0.00000000000E+00 -0.00000000000E+00 -0.10000000000E+04  0.10000000000E+04  0.00000000000E+00 0.  1.
    9000005    2    1    2  501    0  0.43584970073E+02 -0.12258996478E+02 -0.92049610687E+03  0.94806603938E+03  0.22240998098E+03 0.  0.
         13    1    3    3    0    0 -0.73038196333E+02  0.53287672536E+02 -0.44597927289E+03  0.45505127844E+03  0.00000000000E+00 0.  1.
          3    1    3    3  501    0  0.11662316641E+03 -0.65546669013E+02 -0.47451683399E+03  0.49301476093E+03  0.00000000000E+00 0.  1.
         21    1    1    2  502  501 -0.43584970073E+02  0.12258996478E+02 -0.57920820954E+02  0.73517032795E+02  0.00000000000E+00 0.  1.
<mgrwt>
<rscale>  1 0.30000000E+03</rscale>
<asrwt>0</asrwt>
<pdfrwt beam="1">  1        1 0.78484064E-01 0.30000000E+03</pdfrwt>
<pdfrwt beam="2">0</pdfrwt>
<totfact> 0.48222564E+01</totfact>
</mgrwt>
</event>
<event>
 6    1  0.1969531E-004  0.3000000E+03  0.7818608E-02  0.1093470E+00
          3   -1    0    0  502    0  0.00000000000E+00  0.00000000000E+00  0.28391058477E+02  0.28391058477E+02  0.00000000000E+00 0.  1.
         13   -1    0    0    0    0 -0.00000000000E+00 -0.00000000000E+00 -0.10000000000E+04  0.10000000000E+04  0.00000000000E+00 0.  1.
    9000005    2    1    2  501    0 -0.10737105590E+02 -0.10316524550E+01 -0.94174344383E+03  0.99663735482E+03  0.32601986640E+03 0.  0.
         13    1    3    3    0    0  0.34995345066E+02 -0.96021059129E+02 -0.83584300218E+02  0.13202671402E+03  0.00000000000E+00 0.  1.
          1    1    3    3  501    0 -0.45732450656E+02  0.94989406674E+02 -0.85815914361E+03  0.86461064080E+03  0.00000000000E+00 0.  1.
         21    1    1    2  502  501  0.10737105590E+02  0.10316524550E+01 -0.29865497697E+02  0.31753703657E+02  0.00000000000E+00 0.  1.
<mgrwt>
<rscale>  1 0.30000000E+03</rscale>
<asrwt>0</asrwt>
<pdfrwt beam="1">  1        3 0.10324043E+00 0.30000000E+03</pdfrwt>
<pdfrwt beam="2">0</pdfrwt>
<totfact> 0.35979543E+00</totfact>
</mgrwt>
</event>
<event>
 6    1  0.1969531E-004  0.3000000E+03  0.7818608E-02  0.1093470E+00
          1   -1    0    0  502    0  0.00000000000E+00  0.00000000000E+00  0.27927204309E+02  0.27927204309E+02  0.00000000000E+00 0.  1.
         13   -1    0    0    0    0 -0.00000000000E+00 -0.00000000000E+00 -0.10000000000E+04  0.10000000000E+04  0.00000000000E+00 0.  1.
    9000005    2    1    2  501    0  0.16106293683E+01 -0.15623044692E+02 -0.95321625654E+03  0.10033865702E+04  0.31291644880E+03 0.  0.
         13    1    3    3    0    0  0.53691809258E+02  0.68466656481E+02 -0.86938627608E+03  0.87372935768E+03  0.00000000000E+00 0.  1.
          1    1    3    3  501    0 -0.52081179889E+02 -0.84089701173E+02 -0.83829980458E+02  0.12965721255E+03  0.00000000000E+00 0.  1.
         21    1    1    2  502  501 -0.16106293683E+01  0.15623044692E+02 -0.18856539151E+02  0.24540634082E+02  0.00000000000E+00 0. -1.
<mgrwt>
<rscale>  1 0.30000000E+03</rscale>
<asrwt>0</asrwt>
<pdfrwt beam="1">  1        1 0.10155368E+00 0.30000000E+03</pdfrwt>
<pdfrwt beam="2">0</pdfrwt>
<totfact> 0.33462232E+01</totfact>
</mgrwt>
</event>
<event>
 6    1  0.1969531E-004  0.3000000E+03  0.7818608E-02  0.1093470E+00
          1   -1    0    0  502    0  0.00000000000E+00  0.00000000000E+00  0.31792646446E+02  0.31792646446E+02  0.00000000000E+00 0.  1.
         13   -1    0    0    0    0 -0.00000000000E+00 -0.00000000000E+00 -0.10000000000E+04  0.10000000000E+04  0.00000000000E+00 0.  1.
    9000005    2    1    2  501    0 -0.93019544500E+01 -0.42368362646E+01 -0.96632192050E+03  0.10213988023E+04  0.33071586321E+03 0.  0.
         13    1    3    3    0    0 -0.38057064080E+02 -0.16222905509E+03 -0.56755691956E+03  0.59151285986E+03  0.00000000000E+00 0.  1.
          1    1    3    3  501    0  0.28755109630E+02  0.15799221882E+03 -0.39876500095E+03  0.42988594245E+03  0.00000000000E+00 0.  1.
         21    1    1    2  502  501  0.93019544500E+01  0.42368362646E+01 -0.18854330495E+01  0.10393844135E+02  0.00000000000E+00 0.  1.
<mgrwt>
<rscale>  1 0.30000000E+03</rscale>
<asrwt>0</asrwt>
<pdfrwt beam="1">  1        1 0.11560987E+00 0.30000000E+03</pdfrwt>
<pdfrwt beam="2">0</pdfrwt>
<totfact> 0.27541484E+01</totfact>
</mgrwt>
</event>
<event>
 6    1  0.1969531E-004  0.3000000E+03  0.7818608E-02  0.1093470E+00
          1   -1    0    0  502    0  0.00000000000E+00  0.00000000000E+00  0.29296469712E+02  0.29296469712E+02  0.00000000000E+00 0.  1.
         13   -1    0    0    0    0 -0.00000000000E+00 -0.00000000000E+00 -0.10000000000E+04  0.10000000000E+04  0.00000000000E+00 0.  1.
    9000005    2    1    2  501    0 -0.17412161279E+02  0.28405555955E+00 -0.93154779962E+03  0.98644282002E+03  0.32401368820E+03 0.  0.
         13    1    3    3    0    0  0.81437036457E+02 -0.62216693946E+02 -0.81470560594E+03  0.82112613663E+03  0.00000000000E+00 0.  1.
          1    1    3    3  501    0 -0.98849197735E+02  0.62500749505E+02 -0.11684219368E+03  0.16531668339E+03  0.00000000000E+00 0.  1.
         21    1    1    2  502  501  0.17412161279E+02 -0.28405555955E+00 -0.39155730669E+02  0.42853649695E+02  0.00000000000E+00 0. -1.
<mgrwt>
<rscale>  1 0.30000000E+03</rscale>
<asrwt>0</asrwt>
<pdfrwt beam="1">  1        1 0.10653284E+00 0.30000000E+03</pdfrwt>
<pdfrwt beam="2">0</pdfrwt>
<totfact> 0.31172766E+01</totfact>
</mgrwt>
</event>
<event>
 6    1  0.1969531E-004  0.3000000E+03  0.7818608E-02  0.1093470E+00
          3   -1    0    0  502    0  0.00000000000E+00  0.00000000000E+00  0.41987981293E+02  0.41987981293E+02  0.00000000000E+00 0.  1.
         13   -1    0    0    0    0 -0.00000000000E+00 -0.00000000000E+00 -0.10000000000E+04  0.10000000000E+04  0.00000000000E+00 0.  1.
    9000005    2    1    2  501    0  0.16612764880E+02  0.19211170296E+02 -0.93582009993E+03  0.10082606292E+04  0.37441311931E+03 0.  0.
         13    1    3    3    0    0  0.15945789740E+03  0.12074763116E+03 -0.49744875815E+03  0.53615490156E+03  0.00000000000E+00 0.  1.
          1    1    3    3  501    0 -0.14284513252E+03 -0.10153646086E+03 -0.43837134178E+03  0.47210572763E+03  0.00000000000E+00 0.  1.
         21    1    1    2  502  501 -0.16612764880E+02 -0.19211170296E+02 -0.22191918773E+02  0.33727352104E+02  0.00000000000E+00 0.  1.
<mgrwt>
<rscale>  1 0.30000000E+03</rscale>
<asrwt>0</asrwt>
<pdfrwt beam="1">  1        3 0.15268389E+00 0.30000000E+03</pdfrwt>
<pdfrwt beam="2">0</pdfrwt>
<totfact> 0.90793887E-01</totfact>
</mgrwt>
</event>
<event>
 6    1  0.1969531E-004  0.3000000E+03  0.7818608E-02  0.1093470E+00
          1   -1    0    0  502    0  0.00000000000E+00  0.00000000000E+00  0.44753329226E+02  0.44753329226E+02  0.00000000000E+00 0.  1.
         13   -1    0    0    0    0 -0.00000000000E+00 -0.00000000000E+00 -0.10000000000E+04  0.10000000000E+04  0.00000000000E+00 0.  1.
    9000005    2    1    2  501    0  0.33413485231E+02  0.48978333835E+02 -0.91953974402E+03  0.97554117134E+03  0.32033091948E+03 0.  0.
         13    1    3    3    0    0 -0.14614921883E+02 -0.10627077375E+03 -0.12575291041E+03  0.16529025310E+03  0.00000000000E+00 0.  1.
          3    1    3    3  501    0  0.48028407115E+02  0.15524910758E+03 -0.79378683361E+03  0.81025091824E+03  0.00000000000E+00 0.  1.
         21    1    1    2  502  501 -0.33413485231E+02 -0.48978333835E+02 -0.35706926758E+02  0.69212157885E+02  0.00000000000E+00 0.  1.
<mgrwt>
<rscale>  1 0.30000000E+03</rscale>
<asrwt>0</asrwt>
<pdfrwt beam="1">  1        1 0.16273972E+00 0.30000000E+03</pdfrwt>
<pdfrwt beam="2">0</pdfrwt>
<totfact> 0.15510519E+01</totfact>
</mgrwt>
</event>
<event>
 6    1  0.1969531E-004  0.3000000E+03  0.7818608E-02  0.1093470E+00
          1   -1    0    0  502    0  0.00000000000E+00  0.00000000000E+00  0.38401717692E+02  0.38401717692E+02  0.00000000000E+00 0.  1.
         13   -1    0    0    0    0 -0.00000000000E+00 -0.00000000000E+00 -0.10000000000E+04  0.10000000000E+04  0.00000000000E+00 0.  1.
    9000005    2    1    2  501    0  0.37081686603E+01  0.11953376927E+02 -0.97171742360E+03  0.10223072853E+04  0.31736540525E+03 0.  0.
         13    1    3    3    0    0 -0.10939476389E+02 -0.79933606695E+02 -0.90309695085E+03  0.90669352940E+03  0.00000000000E+00 0.  1.
          1    1    3    3  501    0  0.14647645049E+02  0.91886983622E+02 -0.68620472742E+02  0.11561375586E+03  0.00000000000E+00 0.  1.
         21    1    1    2  502  501 -0.37081686603E+01 -0.11953376927E+02  0.10119141288E+02  0.16094432428E+02  0.00000000000E+00 0.  1.
<mgrwt>
<rscale>  1 0.30000000E+03</rscale>
<asrwt>0</asrwt>
<pdfrwt beam="1">  1        1 0.13964290E+00 0.30000000E+03</pdfrwt>
<pdfrwt beam="2">0</pdfrwt>
<totfact> 0.20319705E+01</totfact>
</mgrwt>
</event>
<event>
 6    1  0.1969531E-004  0.3000000E+03  0.7818608E-02  0.1093470E+00
          1   -1    0    0  502    0  0.00000000000E+00  0.00000000000E+00  0.62100270358E+02  0.62100270358E+02  0.00000000000E+00 0.  1.
         13   -1    0    0    0    0 -0.00000000000E+00 -0.00000000000E+00 -0.10000000000E+04  0.10000000000E+04  0.00000000000E+00 0.  1.
    9000005    2    1    2  501    0  0.98992386428E+01  0.29728870065E+02 -0.96790353276E+03  0.10187179140E+04  0.31617580384E+03 0.  0.
         13    1    3    3    0    0  0.14370163443E+03  0.23607997916E+01 -0.73334984544E+03  0.74730029368E+03  0.00000000000E+00 0.  1.
          3    1    3    3  501    0 -0.13380239579E+03  0.27368070274E+02 -0.23455368732E+03  0.27141762033E+03  0.00000000000E+00 0.  1.
         21    1    1    2  502  501 -0.98992386428E+01 -0.29728870065E+02  0.30003803123E+02  0.43382356355E+02  0.00000000000E+00 0. -1.
<mgrwt>
<rscale>  1 0.30000000E+03</rscale>
<asrwt>0</asrwt>
<pdfrwt beam="1">  1        1 0.22581964E+00 0.30000000E+03</pdfrwt>
<pdfrwt beam="2">0</pdfrwt>
<totfact> 0.77416306E+00</totfact>
</mgrwt>
</event>
<event>
 6    1  0.1969531E-004  0.3000000E+03  0.7818608E-02  0.1093470E+00
          1   -1    0    0  502    0  0.00000000000E+00  0.00000000000E+00  0.36201486187E+02  0.36201486187E+02  0.00000000000E+00 0.  1.
         13   -1    0    0    0    0 -0.00000000000E+00 -0.00000000000E+00 -0.10000000000E+04  0.10000000000E+04  0.00000000000E+00 0.  1.
    9000005    2    1    2  501    0 -0.36886094331E+01 -0.22375022506E+02 -0.95518295588E+03  0.10119429761E+04  0.33337645428E+03 0.  0.
         13    1    3    3    0    0 -0.94796154336E+02 -0.14871142610E+03 -0.56243066412E+03  0.58943163392E+03  0.00000000000E+00 0.  1.
          3    1    3    3  501    0  0.91107544903E+02  0.12633640359E+03 -0.39275229176E+03  0.42251134221E+03  0.00000000000E+00 0.  1.
         21    1    1    2  502  501  0.36886094331E+01  0.22375022506E+02 -0.86155579369E+01  0.24258510058E+02  0.00000000000E+00 0.  1.
<mgrwt>
<rscale>  1 0.30000000E+03</rscale>
<asrwt>0</asrwt>
<pdfrwt beam="1">  1        1 0.13164205E+00 0.30000000E+03</pdfrwt>
<pdfrwt beam="2">0</pdfrwt>
<totfact> 0.22415010E+01</totfact>
</mgrwt>
</event>
<event>
 6    1  0.1969531E-004  0.3000000E+03  0.7818608E-02  0.1093470E+00
          3   -1    0    0  502    0  0.00000000000E+00  0.00000000000E+00  0.29545762541E+02  0.29545762541E+02  0.00000000000E+00 0.  1.
         13   -1    0    0    0    0 -0.00000000000E+00 -0.00000000000E+00 -0.10000000000E+04  0.10000000000E+04  0.00000000000E+00 0.  1.
    9000005    2    1    2  501    0  0.43692578773E+01 -0.13143851156E+02 -0.96050111345E+03  0.10124895052E+04  0.31996993284E+03 0.  0.
         13    1    3    3    0    0  0.38628277100E+02 -0.16105149844E+03 -0.56780703875E+03  0.59146814132E+03  0.00000000000E+00 0.  1.
          3    1    3    3  501    0 -0.34259019223E+02  0.14790764728E+03 -0.39269407470E+03  0.42102136386E+03  0.00000000000E+00 0.  1.
         21    1    1    2  502  501 -0.43692578773E+01  0.13143851156E+02 -0.99531240100E+01  0.17056257361E+02  0.00000000000E+00 0. -1.
<mgrwt>
<rscale>  1 0.30000000E+03</rscale>
<asrwt>0</asrwt>
<pdfrwt beam="1">  1        3 0.10743936E+00 0.30000000E+03</pdfrwt>
<pdfrwt beam="2">0</pdfrwt>
<totfact> 0.32229875E+00</totfact>
</mgrwt>
</event>
<event>
 6    1  0.1969531E-004  0.3000000E+03  0.7818608E-02  0.1093470E+00
          1   -1    0    0  502    0  0.00000000000E+00  0.00000000000E+00  0.34029483358E+02  0.34029483358E+02  0.00000000000E+00 0.  1.
         13   -1    0    0    0    0 -0.00000000000E+00 -0.00000000000E+00 -0.10000000000E+04  0.10000000000E+04  0.00000000000E+00 0.  1.
    9000005    2    1    2  501    0  0.16294025439E+02  0.12347118674E+02 -0.96429743924E+03  0.10135173944E+04  0.31133584898E+03 0.  0.
         13    1    3    3    0    0  0.12170870089E+03  0.57596286250E+02 -0.20281477429E+03  0.24344233965E+03  0.00000000000E+00 0.  1.
          3    1    3    3  501    0 -0.10541467545E+03 -0.45249167576E+02 -0.76148266495E+03  0.77007505477E+03  0.00000000000E+00 0.  1.
         21    1    1    2  502  501 -0.16294025439E+02 -0.12347118674E+02 -0.16730773993E+01  0.20512088937E+02  0.00000000000E+00 0. -1.
<mgrwt>
<rscale>  1 0.30000000E+03</rscale>
<asrwt>0</asrwt>
<pdfrwt beam="1">  1        1 0.12374384E+00 0.30000000E+03</pdfrwt>
<pdfrwt beam="2">0</pdfrwt>
<totfact> 0.24768766E+01</totfact>
</mgrwt>
</event>
<event>
 6    1  0.1969531E-004  0.3000000E+03  0.7818608E-02  0.1093470E+00
          1   -1    0    0  502    0  0.00000000000E+00  0.00000000000E+00  0.41018331944E+02  0.41018331944E+02  0.00000000000E+00 0.  1.
         13   -1    0    0    0    0 -0.00000000000E+00 -0.00000000000E+00 -0.10000000000E+04  0.10000000000E+04  0.00000000000E+00 0.  1.
    9000005    2    1    2  501    0 -0.89001482905E+01  0.10842356183E+02 -0.96983044539E+03  0.10232851625E+04  0.32610529242E+03 0.  0.
         13    1    3    3    0    0 -0.14454124128E+03 -0.73262448036E+02 -0.40145156446E+03  0.43292368303E+03  0.00000000000E+00 0.  1.
          3    1    3    3  501    0  0.13564109299E+03  0.84104804219E+02 -0.56837888093E+03  0.59036147951E+03  0.00000000000E+00 0.  1.
         21    1    1    2  502  501  0.89001482905E+01 -0.10842356183E+02  0.10848777338E+02  0.17733169399E+02  0.00000000000E+00 0.  1.
<mgrwt>
<rscale>  1 0.30000000E+03</rscale>
<asrwt>0</asrwt>
<pdfrwt beam="1">  1        1 0.14915789E+00 0.30000000E+03</pdfrwt>
<pdfrwt beam="2">0</pdfrwt>
<totfact> 0.18143171E+01</totfact>
</mgrwt>
</event>
<event>
 6    1  0.1969531E-004  0.3000000E+03  0.7818608E-02  0.1093470E+00
          1   -1    0    0  502    0  0.00000000000E+00  0.00000000000E+00  0.34502367261E+02  0.34502367261E+02  0.00000000000E+00 0.  1.
         13   -1    0    0    0    0 -0.00000000000E+00 -0.00000000000E+00 -0.10000000000E+04  0.10000000000E+04  0.00000000000E+00 0.  1.
    9000005    2    1    2  501    0  0.25258158439E+01 -0.42695624368E+02 -0.86110580130E+03  0.92168858017E+03  0.32584864846E+03 0.  0.
         13    1    3    3    0    0  0.98193095722E+02 -0.14737469250E+03 -0.58614274471E+03  0.61231078809E+03  0.00000000000E+00 0.  1.
          3    1    3    3  501    0 -0.95667279878E+02  0.10467906813E+03 -0.27496305659E+03  0.30937779208E+03  0.00000000000E+00 0.  1.
         21    1    1    2  502  501 -0.25258158439E+01  0.42695624368E+02 -0.10439183144E+03  0.11281378709E+03  0.00000000000E+00 0.  1.
<mgrwt>
<rscale>  1 0.30000000E+03</rscale>
<asrwt>0</asrwt>
<pdfrwt beam="1">  1        1 0.12546342E+00 0.30000000E+03</pdfrwt>
<pdfrwt beam="2">0</pdfrwt>
<totfact> 0.24230307E+01</totfact>
</mgrwt>
</event>
<event>
 6    1  0.1969531E-004  0.3000000E+03  0.7818608E-02  0.1093470E+00
          1   -1    0    0  502    0  0.00000000000E+00  0.00000000000E+00  0.29045902196E+02  0.29045902196E+02  0.00000000000E+00 0.  1.
         13   -1    0    0    0    0 -0.00000000000E+00 -0.00000000000E+00 -0.10000000000E+04  0.10000000000E+04  0.00000000000E+00 0.  1.
    9000005    2    1    2  501    0  0.36973340915E+01 -0.11625531876E+02 -0.95876811167E+03  0.10118028883E+04  0.32304793686E+03 0.  0.
         13    1    3    3    0    0 -0.42960847985E+02  0.41351249144E+02 -0.10059108901E+02  0.60471033870E+02  0.00000000000E+00 0.  1.
          3    1    3    3  501    0  0.46658182077E+02 -0.52976781020E+02 -0.94870900277E+03  0.95133185441E+03  0.00000000000E+00 0.  1.
         21    1    1    2  502  501 -0.36973340915E+01  0.11625531876E+02 -0.12185986133E+02  0.17243013914E+02  0.00000000000E+00 0. -1.
<mgrwt>
<rscale>  1 0.30000000E+03</rscale>
<asrwt>0</asrwt>
<pdfrwt beam="1">  1        1 0.10562169E+00 0.30000000E+03</pdfrwt>
<pdfrwt beam="2">0</pdfrwt>
<totfact> 0.31574395E+01</totfact>
</mgrwt>
</event>
<event>
 6    1  0.1969531E-004  0.3000000E+03  0.7818608E-02  0.1093470E+00
          1   -1    0    0  502    0  0.00000000000E+00  0.00000000000E+00  0.42041076129E+02  0.42041076129E+02  0.00000000000E+00 0.  1.
         13   -1    0    0    0    0 -0.00000000000E+00 -0.00000000000E+00 -0.10000000000E+04  0.10000000000E+04  0.00000000000E+00 0.  1.
    9000005    2    1    2  501    0  0.25539441253E+01  0.22647672059E+02 -0.96440701354E+03  0.10183552673E+04  0.32626235297E+03 0.  0.
         13    1    3    3    0    0  0.30578704080E+02  0.10761611185E+03 -0.90284675137E+03  0.90975191186E+03  0.00000000000E+00 0.  1.
          3    1    3    3  501    0 -0.28024759955E+02 -0.84968439793E+02 -0.61560262168E+02  0.10860335542E+03  0.00000000000E+00 0.  1.
         21    1    1    2  502  501 -0.25539441253E+01 -0.22647672059E+02  0.64480896655E+01  0.23685808845E+02  0.00000000000E+00 0. -1.
<mgrwt>
<rscale>  1 0.30000000E+03</rscale>
<asrwt>0</asrwt>
<pdfrwt beam="1">  1        1 0.15287696E+00 0.30000000E+03</pdfrwt>
<pdfrwt beam="2">0</pdfrwt>
<totfact> 0.17372158E+01</totfact>
</mgrwt>
</event>
<event>
 6    1  0.1969531E-004  0.3000000E+03  0.7818608E-02  0.1093470E+00
          1   -1    0    0  502    0  0.00000000000E+00  0.00000000000E+00  0.45307609131E+02  0.45307609131E+02  0.00000000000E+00 0.  1.
         13   -1    0    0    0    0 -0.00000000000E+00 -0.00000000000E+00 -0.10000000000E+04  0.10000000000E+04  0.00000000000E+00 0.  1.
    9000005    2    1    2  501    0  0.26798396666E+02  0.45827142588E+02 -0.92575599890E+03  0.98484608548E+03  0.33178209948E+03 0.  0.
         13    1    3    3    0    0  0.10388458572E+03  0.39967982444E+02 -0.89459612280E+03  0.90149413182E+03  0.00000000000E+00 0.  1.
          1    1    3    3  501    0 -0.77086189058E+02  0.58591601433E+01 -0.31159876095E+02  0.83351953662E+02  0.00000000000E+00 0.  1.
         21    1    1    2  502  501 -0.26798396666E+02 -0.45827142588E+02 -0.28936391973E+02  0.60461523649E+02  0.00000000000E+00 0. -1.
<mgrwt>
<rscale>  1 0.30000000E+03</rscale>
<asrwt>0</asrwt>
<pdfrwt beam="1">  1        1 0.16475529E+00 0.30000000E+03</pdfrwt>
<pdfrwt beam="2">0</pdfrwt>
<totfact> 0.15159324E+01</totfact>
</mgrwt>
</event>
<event>
 6    1  0.1969531E-004  0.3000000E+03  0.7818608E-02  0.1093470E+00
          1   -1    0    0  502    0  0.00000000000E+00  0.00000000000E+00  0.33718907849E+02  0.33718907849E+02  0.00000000000E+00 0.  1.
         13   -1    0    0    0    0 -0.00000000000E+00 -0.00000000000E+00 -0.10000000000E+04  0.10000000000E+04  0.00000000000E+00 0.  1.
    9000005    2    1    2  501    0  0.86194239567E+01  0.89810384631E+01 -0.95514941926E+03  0.10170195766E+04  0.34908946225E+03 0.  0.
         13    1    3    3    0    0  0.96972292086E+02 -0.98399360201E+02 -0.16718843634E+03  0.21688253219E+03  0.00000000000E+00 0.  1.
          3    1    3    3  501    0 -0.88352868129E+02  0.10738039866E+03 -0.78796098291E+03  0.80013704446E+03  0.00000000000E+00 0.  1.
         21    1    1    2  502  501 -0.86194239567E+01 -0.89810384631E+01 -0.11131672893E+02  0.16699331203E+02  0.00000000000E+00 0.  1.
<mgrwt>
<rscale>  1 0.30000000E+03</rscale>
<asrwt>0</asrwt>
<pdfrwt beam="1">  1        1 0.12261447E+00 0.30000000E+03</pdfrwt>
<pdfrwt beam="2">0</pdfrwt>
<totfact> 0.25130809E+01</totfact>
</mgrwt>
</event>
<event>
 6    1  0.1969531E-004  0.3000000E+03  0.7818608E-02  0.1093470E+00
          1   -1    0    0  502    0  0.00000000000E+00  0.00000000000E+00  0.36817030159E+02  0.36817030159E+02  0.00000000000E+00 0.  1.
         13   -1    0    0    0    0 -0.00000000000E+00 -0.00000000000E+00 -0.10000000000E+04  0.10000000000E+04  0.00000000000E+00 0.  1.
    9000005    2    1    2  501    0  0.45144134770E+02 -0.12008173242E+02 -0.89707122726E+03  0.95586672666E+03  0.32674489015E+03 0.  0.
         13    1    3    3    0    0  0.18481721160E+03 -0.31131180366E+02 -0.46378651945E+03  0.50022443734E+03  0.00000000000E+00 0.  1.
          1    1    3    3  501    0 -0.13967307683E+03  0.19123007124E+02 -0.43328470781E+03  0.45564228932E+03  0.00000000000E+00 0.  1.
         21    1    1    2  502  501 -0.45144134770E+02  0.12008173242E+02 -0.66111742583E+02  0.80950303496E+02  0.00000000000E+00 0.  1.
<mgrwt>
<rscale>  1 0.30000000E+03</rscale>
<asrwt>0</asrwt>
<pdfrwt beam="1">  1        1 0.13388039E+00 0.30000000E+03</pdfrwt>
<pdfrwt beam="2">0</pdfrwt>
<totfact> 0.21801204E+01</totfact>
</mgrwt>
</event>
<event>
 6    1  0.1969531E-004  0.3000000E+03  0.7818608E-02  0.1093470E+00
          1   -1    0    0  502    0  0.00000000000E+00  0.00000000000E+00  0.41451991238E+02  0.41451991238E+02  0.00000000000E+00 0.  1.
         13   -1    0    0    0    0 -0.00000000000E+00 -0.00000000000E+00 -0.10000000000E+04  0.10000000000E+04  0.00000000000E+00 0.  1.
    9000005    2    1    2  501    0 -0.12655212089E+02 -0.53981668695E+02 -0.91698672228E+03  0.97215902275E+03  0.31804770354E+03 0.  0.
         13    1    3    3    0    0 -0.27776150837E+02 -0.77954791382E+02 -0.93494822436E+03  0.93860356184E+03  0.00000000000E+00 0.  1.
          1    1    3    3  501    0  0.15120938748E+02  0.23973122687E+02  0.17961502082E+02  0.33555460912E+02  0.00000000000E+00 0.  1.
         21    1    1    2  502  501  0.12655212089E+02  0.53981668695E+02 -0.41561286483E+02  0.69292968490E+02  0.00000000000E+00 0. -1.
<mgrwt>
<rscale>  1 0.30000000E+03</rscale>
<asrwt>0</asrwt>
<pdfrwt beam="1">  1        1 0.15073483E+00 0.30000000E+03</pdfrwt>
<pdfrwt beam="2">0</pdfrwt>
<totfact> 0.17811210E+01</totfact>
</mgrwt>
</event>
<event>
 6    1  0.1969531E-004  0.3000000E+03  0.7818608E-02  0.1093470E+00
          1   -1    0    0  502    0  0.00000000000E+00  0.00000000000E+00  0.62513355523E+02  0.62513355523E+02  0.00000000000E+00 0.  1.
         13   -1    0    0    0    0 -0.00000000000E+00 -0.00000000000E+00 -0.10000000000E+04  0.10000000000E+04  0.00000000000E+00 0.  1.
    9000005    2    1    2  501    0 -0.22962197140E+02  0.77656292561E+01 -0.96828409620E+03  0.10233208750E+04  0.33018775693E+03 0.  0.
         13    1    3    3    0    0  0.11144008255E+03 -0.36218948057E+02 -0.13781323841E+03  0.18089553028E+03  0.00000000000E+00 0.  1.
          1    1    3    3  501    0 -0.13440227969E+03  0.43984577313E+02 -0.83047085779E+03  0.84242534474E+03  0.00000000000E+00 0.  1.
         21    1    1    2  502  501  0.22962197140E+02 -0.77656292561E+01  0.30797451718E+02  0.39192480498E+02  0.00000000000E+00 0.  1.
<mgrwt>
<rscale>  1 0.30000000E+03</rscale>
<asrwt>0</asrwt>
<pdfrwt beam="1">  1        1 0.22732177E+00 0.30000000E+03</pdfrwt>
<pdfrwt beam="2">0</pdfrwt>
<totfact> 0.76172278E+00</totfact>
</mgrwt>
</event>
<event>
 6    1  0.1969531E-004  0.3000000E+03  0.7818608E-02  0.1093470E+00
          1   -1    0    0  502    0  0.00000000000E+00  0.00000000000E+00  0.32105213743E+02  0.32105213743E+02  0.00000000000E+00 0.  1.
         13   -1    0    0    0    0 -0.00000000000E+00 -0.00000000000E+00 -0.10000000000E+04  0.10000000000E+04  0.00000000000E+00 0.  1.
    9000005    2    1    2  501    0 -0.23120014105E+02 -0.25172746676E+02 -0.87698589563E+03  0.93498349309E+03  0.32236883998E+03 0.  0.
         13    1    3    3    0    0 -0.62368247420E+01  0.70350943417E+02 -0.81885455259E+03  0.82189472046E+03  0.00000000000E+00 0.  1.
          3    1    3    3  501    0 -0.16883189363E+02 -0.95523690093E+02 -0.58131343043E+02  0.11308877263E+03  0.00000000000E+00 0.  1.
         21    1    1    2  502  501  0.23120014105E+02  0.25172746676E+02 -0.90908890627E+02  0.97121720652E+02  0.00000000000E+00 0.  1.
<mgrwt>
<rscale>  1 0.30000000E+03</rscale>
<asrwt>0</asrwt>
<pdfrwt beam="1">  1        1 0.11674648E+00 0.30000000E+03</pdfrwt>
<pdfrwt beam="2">0</pdfrwt>
<totfact> 0.27129519E+01</totfact>
</mgrwt>
</event>
<event>
 6    1  0.1969531E-004  0.3000000E+03  0.7818608E-02  0.1093470E+00
          1   -1    0    0  502    0  0.00000000000E+00  0.00000000000E+00  0.28347845143E+02  0.28347845143E+02  0.00000000000E+00 0.  1.
         13   -1    0    0    0    0 -0.00000000000E+00 -0.00000000000E+00 -0.10000000000E+04  0.10000000000E+04  0.00000000000E+00 0.  1.
    9000005    2    1    2  501    0  0.93994990051E+01 -0.38051700391E+01 -0.94003420559E+03  0.99514355903E+03  0.32641011855E+03 0.  0.
         13    1    3    3    0    0  0.25465795610E+02 -0.16297343440E+03 -0.52692998315E+03  0.55214495760E+03  0.00000000000E+00 0.  1.
          3    1    3    3  501    0 -0.16066296604E+02  0.15916826436E+03 -0.41310422244E+03  0.44299860143E+03  0.00000000000E+00 0.  1.
         21    1    1    2  502  501 -0.93994990051E+01  0.38051700391E+01 -0.31617949264E+02  0.33204286112E+02  0.00000000000E+00 0. -1.
<mgrwt>
<rscale>  1 0.30000000E+03</rscale>
<asrwt>0</asrwt>
<pdfrwt beam="1">  1        1 0.10308329E+00 0.30000000E+03</pdfrwt>
<pdfrwt beam="2">0</pdfrwt>
<totfact> 0.32733584E+01</totfact>
</mgrwt>
</event>
<event>
 6    1  0.1969531E-004  0.3000000E+03  0.7818608E-02  0.1093470E+00
          1   -1    0    0  502    0  0.00000000000E+00  0.00000000000E+00  0.30367334928E+02  0.30367334928E+02  0.00000000000E+00 0.  1.
         13   -1    0    0    0    0 -0.00000000000E+00 -0.00000000000E+00 -0.10000000000E+04  0.10000000000E+04  0.00000000000E+00 0.  1.
    9000005    2    1    2  501    0 -0.14275977635E+02 -0.10546697526E+02 -0.95259507534E+03  0.10057641679E+04  0.32219426968E+03 0.  0.
         13    1    3    3    0    0 -0.90634305711E+02 -0.36738193884E+02 -0.71915016194E+02  0.12139209948E+03  0.00000000000E+00 0.  1.
          3    1    3    3  501    0  0.76358328076E+02  0.26191496358E+02 -0.88068005915E+03  0.88437206838E+03  0.00000000000E+00 0.  1.
         21    1    1    2  502  501  0.14275977635E+02  0.10546697526E+02 -0.17037589730E+02  0.24603167072E+02  0.00000000000E+00 0.  1.
<mgrwt>
<rscale>  1 0.30000000E+03</rscale>
<asrwt>0</asrwt>
<pdfrwt beam="1">  1        1 0.11042691E+00 0.30000000E+03</pdfrwt>
<pdfrwt beam="2">0</pdfrwt>
<totfact> 0.29536295E+01</totfact>
</mgrwt>
</event>
<event>
 6    1  0.1969531E-004  0.3000000E+03  0.7818608E-02  0.1093470E+00
          1   -1    0    0  502    0  0.00000000000E+00  0.00000000000E+00  0.35112620267E+02  0.35112620267E+02  0.00000000000E+00 0.  1.
         13   -1    0    0    0    0 -0.00000000000E+00 -0.00000000000E+00 -0.10000000000E+04  0.10000000000E+04  0.00000000000E+00 0.  1.
    9000005    2    1    2  501    0  0.13650648706E+01 -0.15956433359E+02 -0.97776336028E+03  0.10145636047E+04  0.27029918238E+03 0.  0.
         13    1    3    3    0    0 -0.10203344722E+03  0.43269914146E+02 -0.74371548700E+03  0.75192807862E+03  0.00000000000E+00 0.  1.
          1    1    3    3  501    0  0.10339851209E+03 -0.59226347506E+02 -0.23404787329E+03  0.26263552603E+03  0.00000000000E+00 0.  1.
         21    1    1    2  502  501 -0.13650648706E+01  0.15956433359E+02  0.12875980552E+02  0.20549015617E+02  0.00000000000E+00 0.  1.
<mgrwt>
<rscale>  1 0.30000000E+03</rscale>
<asrwt>0</asrwt>
<pdfrwt beam="1">  1        1 0.12768252E+00 0.30000000E+03</pdfrwt>
<pdfrwt beam="2">0</pdfrwt>
<totfact> 0.23557246E+01</totfact>
</mgrwt>
</event>
<event>
 6    1  0.1969531E-004  0.3000000E+03  0.7818608E-02  0.1093470E+00
          1   -1    0    0  502    0  0.00000000000E+00  0.00000000000E+00  0.40563957980E+02  0.40563957980E+02  0.00000000000E+00 0.  1.
         13   -1    0    0    0    0 -0.00000000000E+00 -0.00000000000E+00 -0.10000000000E+04  0.10000000000E+04  0.00000000000E+00 0.  1.
    9000005    2    1    2  501    0  0.18606749348E+02 -0.19701709970E+02 -0.96422247112E+03  0.10130452661E+04  0.30951796221E+03 0.  0.
         13    1    3    3    0    0  0.35389125100E+02  0.64269719147E+02 -0.37540627289E+02  0.82415324254E+02  0.00000000000E+00 0.  1.
          1    1    3    3  501    0 -0.16782375752E+02 -0.83971429117E+02 -0.92668184383E+03  0.93062994189E+03  0.00000000000E+00 0.  1.
         21    1    1    2  502  501 -0.18606749348E+02  0.19701709970E+02  0.47864291039E+01  0.27518691840E+02  0.00000000000E+00 0. -1.
<mgrwt>
<rscale>  1 0.30000000E+03</rscale>
<asrwt>0</asrwt>
<pdfrwt beam="1">  1        1 0.14750561E+00 0.30000000E+03</pdfrwt>
<pdfrwt beam="2">0</pdfrwt>
<totfact> 0.18499284E+01</totfact>
</mgrwt>
</event>
<event>
 6    1  0.1969531E-004  0.3000000E+03  0.7818608E-02  0.1093470E+00
          1   -1    0    0  502    0  0.00000000000E+00  0.00000000000E+00  0.27880910986E+02  0.27880910986E+02  0.00000000000E+00 0.  1.
         13   -1    0    0    0    0 -0.00000000000E+00 -0.00000000000E+00 -0.10000000000E+04  0.10000000000E+04  0.00000000000E+00 0.  1.
    9000005    2    1    2  501    0  0.55545602668E+01 -0.85799333403E+01 -0.96276133228E+03  0.10140232053E+04  0.31816538082E+03 0.  0.
         13    1    3    3    0    0 -0.96043001870E+02  0.77534869911E+02 -0.76936800747E+03  0.77920667681E+03  0.00000000000E+00 0.  1.
          3    1    3    3  501    0  0.10159756214E+03 -0.86114803251E+02 -0.19339332481E+03  0.23481652849E+03  0.00000000000E+00 0.  1.
         21    1    1    2  502  501 -0.55545602668E+01  0.85799333403E+01 -0.93577567351E+01  0.13857705690E+02  0.00000000000E+00 0. -1.
<mgrwt>
<rscale>  1 0.30000000E+03</rscale>
<asrwt>0</asrwt>
<pdfrwt beam="1">  1        1 0.10138534E+00 0.30000000E+03</pdfrwt>
<pdfrwt beam="2">0</pdfrwt>
<totfact> 0.33543869E+01</totfact>
</mgrwt>
</event>
<event>
 6    1  0.1969531E-004  0.3000000E+03  0.7818608E-02  0.1093470E+00
          1   -1    0    0  502    0  0.00000000000E+00  0.00000000000E+00  0.40544467706E+02  0.40544467706E+02  0.00000000000E+00 0.  1.
         13   -1    0    0    0    0 -0.00000000000E+00 -0.00000000000E+00 -0.10000000000E+04  0.10000000000E+04  0.00000000000E+00 0.  1.
    9000005    2    1    2  501    0 -0.45627922859E+00 -0.22675389670E+02 -0.96339326053E+03  0.10175251890E+04  0.32667499808E+03 0.  0.
         13    1    3    3    0    0  0.11658880525E+03  0.10260755215E+03 -0.49122115574E+03  0.51518878396E+03  0.00000000000E+00 0.  1.
          3    1    3    3  501    0 -0.11704508448E+03 -0.12528294182E+03 -0.47217210479E+03  0.50233640506E+03  0.00000000000E+00 0.  1.
         21    1    1    2  502  501  0.45627922859E+00  0.22675389670E+02  0.39377282386E+01  0.23019278683E+02  0.00000000000E+00 0.  1.
<mgrwt>
<rscale>  1 0.30000000E+03</rscale>
<asrwt>0</asrwt>
<pdfrwt beam="1">  1        1 0.14743474E+00 0.30000000E+03</pdfrwt>
<pdfrwt beam="2">0</pdfrwt>
<totfact> 0.18514754E+01</totfact>
</mgrwt>
</event>
<event>
 6    1  0.1969531E-004  0.3000000E+03  0.7818608E-02  0.1093470E+00
          1   -1    0    0  502    0  0.00000000000E+00  0.00000000000E+00  0.30292565353E+02  0.30292565353E+02  0.00000000000E+00 0.  1.
         13   -1    0    0    0    0 -0.00000000000E+00 -0.00000000000E+00 -0.10000000000E+04  0.10000000000E+04  0.00000000000E+00 0.  1.
    9000005    2    1    2  501    0  0.25732261862E+02  0.10876300632E+02 -0.93434123663E+03  0.98522360510E+03  0.31127409524E+03 0.  0.
         13    1    3    3    0    0 -0.19319694593E+02 -0.10936267814E+03 -0.76336652344E+03  0.77140255060E+03  0.00000000000E+00 0.  1.
          1    1    3    3  501    0  0.45051956455E+02  0.12023897877E+03 -0.17097471319E+03  0.21382105450E+03  0.00000000000E+00 0.  1.
         21    1    1    2  502  501 -0.25732261862E+02 -0.10876300632E+02 -0.35366198016E+02  0.45068960251E+02  0.00000000000E+00 0.  1.
<mgrwt>
<rscale>  1 0.30000000E+03</rscale>
<asrwt>0</asrwt>
<pdfrwt beam="1">  1        1 0.11015502E+00 0.30000000E+03</pdfrwt>
<pdfrwt beam="2">0</pdfrwt>
<totfact> 0.29646531E+01</totfact>
</mgrwt>
</event>
<event>
 6    1  0.1969531E-004  0.3000000E+03  0.7818608E-02  0.1093470E+00
          1   -1    0    0  502    0  0.00000000000E+00  0.00000000000E+00  0.31904929301E+02  0.31904929301E+02  0.00000000000E+00 0.  1.
         13   -1    0    0    0    0 -0.00000000000E+00 -0.00000000000E+00 -0.10000000000E+04  0.10000000000E+04  0.00000000000E+00 0.  1.
    9000005    2    1    2  501    0  0.16326204242E+02  0.50366359555E+01 -0.94956965225E+03  0.10067036639E+04  0.33388295836E+03 0.  0.
         13    1    3    3    0    0 -0.28493522522E+02  0.16473308800E+03 -0.43274154897E+03  0.46391175811E+03  0.00000000000E+00 0.  1.
          1    1    3    3  501    0  0.44819726764E+02 -0.15969645204E+03 -0.51682810328E+03  0.54279190584E+03  0.00000000000E+00 0.  1.
         21    1    1    2  502  501 -0.16326204242E+02 -0.50366359555E+01 -0.18525418449E+02  0.25201265354E+02  0.00000000000E+00 0.  1.
<mgrwt>
<rscale>  1 0.30000000E+03</rscale>
<asrwt>0</asrwt>
<pdfrwt beam="1">  1        1 0.11601817E+00 0.30000000E+03</pdfrwt>
<pdfrwt beam="2">0</pdfrwt>
<totfact> 0.27392502E+01</totfact>
</mgrwt>
</event>
<event>
 6    1  0.1969531E-004  0.3000000E+03  0.7818608E-02  0.1093470E+00
          1   -1    0    0  502    0  0.00000000000E+00  0.00000000000E+00  0.35662646136E+02  0.35662646136E+02  0.00000000000E+00 0.  1.
         13   -1    0    0    0    0 -0.00000000000E+00 -0.00000000000E+00 -0.10000000000E+04  0.10000000000E+04  0.00000000000E+00 0.  1.
    9000005    2    1    2  501    0 -0.11111749662E+02 -0.12295569217E+01 -0.97338564303E+03  0.10212802149E+04  0.30888296256E+03 0.  0.
         13    1    3    3    0    0 -0.85356774913E+02  0.91013517854E+01 -0.59781749288E+02  0.10460626738E+03  0.00000000000E+00 0.  1.
          1    1    3    3  501    0  0.74245025250E+02 -0.10330908707E+02 -0.91360389374E+03  0.91667394754E+03  0.00000000000E+00 0.  1.
         21    1    1    2  502  501  0.11111749662E+02  0.12295569217E+01  0.90482891616E+01  0.14382431211E+02  0.00000000000E+00 0.  1.
<mgrwt>
<rscale>  1 0.30000000E+03</rscale>
<asrwt>0</asrwt>
<pdfrwt beam="1">  1        1 0.12968262E+00 0.30000000E+03</pdfrwt>
<pdfrwt beam="2">0</pdfrwt>
<totfact> 0.22971054E+01</totfact>
</mgrwt>
</event>
<event>
 6    1  0.1969531E-004  0.3000000E+03  0.7818608E-02  0.1093470E+00
          1   -1    0    0  502    0  0.00000000000E+00  0.00000000000E+00  0.27404252335E+02  0.27404252335E+02  0.00000000000E+00 0.  1.
         13   -1    0    0    0    0 -0.00000000000E+00 -0.00000000000E+00 -0.10000000000E+04  0.10000000000E+04  0.00000000000E+00 0.  1.
    9000005    2    1    2  501    0 -0.63310785447E+01  0.86072081263E+01 -0.94404853137E+03  0.99692294421E+03  0.32017738913E+03 0.  0.
         13    1    3    3    0    0 -0.16261813931E+03  0.15790796701E+02 -0.45382234646E+03  0.48233673988E+03  0.00000000000E+00 0.  1.
          1    1    3    3  501    0  0.15628706076E+03 -0.71835885745E+01 -0.49022618492E+03  0.51458620433E+03  0.00000000000E+00 0.  1.
         21    1    1    2  502  501  0.63310785447E+01 -0.86072081263E+01 -0.28547216290E+02  0.30481308128E+02  0.00000000000E+00 0. -1.
<mgrwt>
<rscale>  1 0.30000000E+03</rscale>
<asrwt>0</asrwt>
<pdfrwt beam="1">  1        1 0.99652037E-01 0.30000000E+03</pdfrwt>
<pdfrwt beam="2">0</pdfrwt>
<totfact> 0.34401738E+01</totfact>
</mgrwt>
</event>
<event>
 6    1  0.1969531E-004  0.3000000E+03  0.7818608E-02  0.1093470E+00
          1   -1    0    0  502    0  0.00000000000E+00  0.00000000000E+00  0.26215368099E+02  0.26215368099E+02  0.00000000000E+00 0.  1.
         13   -1    0    0    0    0 -0.00000000000E+00 -0.00000000000E+00 -0.10000000000E+04  0.10000000000E+04  0.00000000000E+00 0.  1.
    9000005    2    1    2  501    0  0.11199291160E+02  0.10220090193E+02 -0.95534736239E+03  0.10023447319E+04  0.30294637208E+03 0.  0.
         13    1    3    3    0    0  0.18906213957E+02 -0.71169740739E+02 -0.40868625882E+02  0.84218890426E+02  0.00000000000E+00 0.  1.
          1    1    3    3  501    0 -0.77069227972E+01  0.81389830932E+02 -0.91447873651E+03  0.91812584146E+03  0.00000000000E+00 0.  1.
         21    1    1    2  502  501 -0.11199291160E+02 -0.10220090193E+02 -0.18437269512E+02  0.23870636211E+02  0.00000000000E+00 0. -1.
<mgrwt>
<rscale>  1 0.30000000E+03</rscale>
<asrwt>0</asrwt>
<pdfrwt beam="1">  1        1 0.95328812E-01 0.30000000E+03</pdfrwt>
<pdfrwt beam="2">0</pdfrwt>
<totfact> 0.36688043E+01</totfact>
</mgrwt>
</event>
<event>
 6    1  0.1969531E-004  0.3000000E+03  0.7818608E-02  0.1093470E+00
          1   -1    0    0  502    0  0.00000000000E+00  0.00000000000E+00  0.40215941397E+02  0.40215941397E+02  0.00000000000E+00 0.  1.
         13   -1    0    0    0    0 -0.00000000000E+00 -0.00000000000E+00 -0.10000000000E+04  0.10000000000E+04  0.00000000000E+00 0.  1.
    9000005    2    1    2  501    0  0.19387435453E+01 -0.69481961075E+02 -0.84867344944E+03  0.90915462327E+03  0.31856554048E+03 0.  0.
         13    1    3    3    0    0  0.83320883338E+02 -0.95726170629E+02 -0.11735068728E+03  0.17284979939E+03  0.00000000000E+00 0.  1.
          1    1    3    3  501    0 -0.81382139793E+02  0.26244209554E+02 -0.73132276216E+03  0.73630482388E+03  0.00000000000E+00 0.  1.
         21    1    1    2  502  501 -0.19387435453E+01  0.69481961075E+02 -0.11111060916E+03  0.13106131813E+03  0.00000000000E+00 0.  1.
<mgrwt>
<rscale>  1 0.30000000E+03</rscale>
<asrwt>0</asrwt>
<pdfrwt beam="1">  1        1 0.14624010E+00 0.30000000E+03</pdfrwt>
<pdfrwt beam="2">0</pdfrwt>
<totfact> 0.18777972E+01</totfact>
</mgrwt>
</event>
<event>
 6    1  0.1969531E-004  0.3000000E+03  0.7818608E-02  0.1093470E+00
          1   -1    0    0  502    0  0.00000000000E+00  0.00000000000E+00  0.47421567736E+02  0.47421567736E+02  0.00000000000E+00 0.  1.
         13   -1    0    0    0    0 -0.00000000000E+00 -0.00000000000E+00 -0.10000000000E+04  0.10000000000E+04  0.00000000000E+00 0.  1.
    9000005    2    1    2  501    0 -0.15178338831E+02 -0.46542126933E+00 -0.96760876398E+03  0.10260554858E+04  0.34101692212E+03 0.  0.
         13    1    3    3    0    0  0.31060422285E+02 -0.16291274773E+03 -0.37911154527E+03  0.41380052799E+03  0.00000000000E+00 0.  1.
          3    1    3    3  501    0 -0.46238761116E+02  0.16244732647E+03 -0.58849721871E+03  0.61225495779E+03  0.00000000000E+00 0.  1.
         21    1    1    2  502  501  0.15178338831E+02  0.46542126933E+00  0.15030331719E+02  0.21366081957E+02  0.00000000000E+00 0. -1.
<mgrwt>
<rscale>  1 0.30000000E+03</rscale>
<asrwt>0</asrwt>
<pdfrwt beam="1">  1        1 0.17244243E+00 0.30000000E+03</pdfrwt>
<pdfrwt beam="2">0</pdfrwt>
<totfact> 0.13900471E+01</totfact>
</mgrwt>
</event>
<event>
 6    1  0.1969531E-004  0.3000000E+03  0.7818608E-02  0.1093470E+00
          1   -1    0    0  502    0  0.00000000000E+00  0.00000000000E+00  0.44914817756E+02  0.44914817756E+02  0.00000000000E+00 0.  1.
         13   -1    0    0    0    0 -0.00000000000E+00 -0.00000000000E+00 -0.10000000000E+04  0.10000000000E+04  0.00000000000E+00 0.  1.
    9000005    2    1    2  501    0  0.71155084818E+01 -0.87575482429E+01 -0.97179348347E+03  0.10247531600E+04  0.32497559810E+03 0.  0.
         13    1    3    3    0    0 -0.81774547309E+02  0.66319032503E+02 -0.84932389793E+03  0.85582496707E+03  0.00000000000E+00 0.  1.
          3    1    3    3  501    0  0.88890055791E+02 -0.75076580746E+02 -0.12246958554E+03  0.16892819296E+03  0.00000000000E+00 0.  1.
         21    1    1    2  502  501 -0.71155084818E+01  0.87575482429E+01  0.16708301230E+02  0.20161657724E+02  0.00000000000E+00 0. -1.
<mgrwt>
<rscale>  1 0.30000000E+03</rscale>
<asrwt>0</asrwt>
<pdfrwt beam="1">  1        1 0.16332695E+00 0.30000000E+03</pdfrwt>
<pdfrwt beam="2">0</pdfrwt>
<totfact> 0.15407243E+01</totfact>
</mgrwt>
</event>
<event>
 6    1  0.1969531E-004  0.3000000E+03  0.7818608E-02  0.1093470E+00
          1   -1    0    0  502    0  0.00000000000E+00  0.00000000000E+00  0.28439903308E+02  0.28439903308E+02  0.00000000000E+00 0.  1.
         13   -1    0    0    0    0 -0.00000000000E+00 -0.00000000000E+00 -0.10000000000E+04  0.10000000000E+04  0.00000000000E+00 0.  1.
    9000005    2    1    2  501    0  0.12915768646E+02  0.25787654500E+01 -0.93694180328E+03  0.99140082462E+03  0.32379342986E+03 0.  0.
         13    1    3    3    0    0  0.89354072820E+02  0.12268638244E+03 -0.27287907270E+03  0.31224843808E+03  0.00000000000E+00 0.  1.
          3    1    3    3  501    0 -0.76438304174E+02 -0.12010761699E+03 -0.66406273058E+03  0.67915238655E+03  0.00000000000E+00 0.  1.
         21    1    1    2  502  501 -0.12915768646E+02 -0.25787654500E+01 -0.34618293413E+02  0.37039078684E+02  0.00000000000E+00 0.  1.
<mgrwt>
<rscale>  1 0.30000000E+03</rscale>
<asrwt>0</asrwt>
<pdfrwt beam="1">  1        1 0.10341805E+00 0.30000000E+03</pdfrwt>
<pdfrwt beam="2">0</pdfrwt>
<totfact> 0.32577209E+01</totfact>
</mgrwt>
</event>
<event>
 6    1  0.1969531E-004  0.3000000E+03  0.7818608E-02  0.1093470E+00
          1   -1    0    0  502    0  0.00000000000E+00  0.00000000000E+00  0.35390283135E+02  0.35390283135E+02  0.00000000000E+00 0.  1.
         13   -1    0    0    0    0 -0.00000000000E+00 -0.00000000000E+00 -0.10000000000E+04  0.10000000000E+04  0.00000000000E+00 0.  1.
    9000005    2    1    2  501    0 -0.53558555046E+01  0.15010644647E+02 -0.96535773922E+03  0.10194352157E+04  0.32722865034E+03 0.  0.
         13    1    3    3    0    0  0.51769485431E+02  0.26950340773E+02 -0.95895030533E+03  0.96072477255E+03  0.00000000000E+00 0.  1.
          1    1    3    3  501    0 -0.57125340936E+02 -0.11939696126E+02 -0.64074338868E+01  0.58710443105E+02  0.00000000000E+00 0.  1.
         21    1    1    2  502  501  0.53558555046E+01 -0.15010644647E+02  0.74802235435E+00  0.15955067482E+02  0.00000000000E+00 0. -1.
<mgrwt>
<rscale>  1 0.30000000E+03</rscale>
<asrwt>0</asrwt>
<pdfrwt beam="1">  1        1 0.12869221E+00 0.30000000E+03</pdfrwt>
<pdfrwt beam="2">0</pdfrwt>
<totfact> 0.23258942E+01</totfact>
</mgrwt>
</event>
<event>
 6    1  0.1969531E-004  0.3000000E+03  0.7818608E-02  0.1093470E+00
          1   -1    0    0  502    0  0.00000000000E+00  0.00000000000E+00  0.27988355180E+02  0.27988355180E+02  0.00000000000E+00 0.  1.
         13   -1    0    0    0    0 -0.00000000000E+00 -0.00000000000E+00 -0.10000000000E+04  0.10000000000E+04  0.00000000000E+00 0.  1.
    9000005    2    1    2  501    0  0.49765016325E+02 -0.47253738548E+02 -0.80624195166E+03  0.84857524577E+03  0.25562548868E+03 0.  0.
         13    1    3    3    0    0  0.12283272874E+02 -0.13381221808E+03 -0.66694120719E+03  0.68034341501E+03  0.00000000000E+00 0.  1.
          3    1    3    3  501    0  0.37481743451E+02  0.86558479534E+02 -0.13930074447E+03  0.16823183076E+03  0.00000000000E+00 0.  1.
         21    1    1    2  502  501 -0.49765016325E+02  0.47253738548E+02 -0.16576969316E+03  0.17941310941E+03  0.00000000000E+00 0.  1.
<mgrwt>
<rscale>  1 0.30000000E+03</rscale>
<asrwt>0</asrwt>
<pdfrwt beam="1">  1        1 0.10177605E+00 0.30000000E+03</pdfrwt>
<pdfrwt beam="2">0</pdfrwt>
<totfact> 0.33354840E+01</totfact>
</mgrwt>
</event>
<event>
 6    1  0.1969531E-004  0.3000000E+03  0.7818608E-02  0.1093470E+00
          1   -1    0    0  502    0  0.00000000000E+00  0.00000000000E+00  0.26731572037E+02  0.26731572037E+02  0.00000000000E+00 0.  1.
         13   -1    0    0    0    0 -0.00000000000E+00 -0.00000000000E+00 -0.10000000000E+04  0.10000000000E+04  0.00000000000E+00 0.  1.
    9000005    2    1    2  501    0 -0.63170723467E+01  0.44112744163E+01 -0.94594709982E+03  0.99834460819E+03  0.31908725499E+03 0.  0.
         13    1    3    3    0    0  0.10411766022E+03 -0.83084186759E+01 -0.98272653582E+02  0.14341210351E+03  0.00000000000E+00 0.  1.
          1    1    3    3  501    0 -0.11043473257E+03  0.12719693092E+02 -0.84767444624E+03  0.85493250468E+03  0.00000000000E+00 0.  1.
         21    1    1    2  502  501  0.63170723467E+01 -0.44112744163E+01 -0.27321328139E+02  0.28386963844E+02  0.00000000000E+00 0.  1.
<mgrwt>
<rscale>  1 0.30000000E+03</rscale>
<asrwt>0</asrwt>
<pdfrwt beam="1">  1        1 0.97205921E-01 0.30000000E+03</pdfrwt>
<pdfrwt beam="2">0</pdfrwt>
<totfact> 0.35668500E+01</totfact>
</mgrwt>
</event>
<event>
 6    1  0.1969531E-004  0.3000000E+03  0.7818608E-02  0.1093470E+00
          1   -1    0    0  502    0  0.00000000000E+00  0.00000000000E+00  0.43766259056E+02  0.43766259056E+02  0.00000000000E+00 0.  1.
         13   -1    0    0    0    0 -0.00000000000E+00 -0.00000000000E+00 -0.10000000000E+04  0.10000000000E+04  0.00000000000E+00 0.  1.
    9000005    2    1    2  501    0  0.19783777121E+02  0.60176820411E+02 -0.90018253042E+03  0.95918265690E+03  0.32510019022E+03 0.  0.
         13    1    3    3    0    0  0.74381224341E+02 -0.78543944680E+02 -0.10714852401E+03  0.15225808346E+03  0.00000000000E+00 0.  1.
          1    1    3    3  501    0 -0.54597447220E+02  0.13872076509E+03 -0.79303400641E+03  0.80692457345E+03  0.00000000000E+00 0.  1.
         21    1    1    2  502  501 -0.19783777121E+02 -0.60176820411E+02 -0.56051210523E+02  0.84583602152E+02  0.00000000000E+00 0.  1.
<mgrwt>
<rscale>  1 0.30000000E+03</rscale>
<asrwt>0</asrwt>
<pdfrwt beam="1">  1        1 0.15915037E+00 0.30000000E+03</pdfrwt>
<pdfrwt beam="2">0</pdfrwt>
<totfact> 0.16159460E+01</totfact>
</mgrwt>
</event>
<event>
 6    1  0.1969531E-004  0.3000000E+03  0.7818608E-02  0.1093470E+00
          1   -1    0    0  502    0  0.00000000000E+00  0.00000000000E+00  0.30253420635E+02  0.30253420635E+02  0.00000000000E+00 0.  1.
         13   -1    0    0    0    0 -0.00000000000E+00 -0.00000000000E+00 -0.10000000000E+04  0.10000000000E+04  0.00000000000E+00 0.  1.
    9000005    2    1    2  501    0  0.80329404857E+01 -0.92115550293E+01 -0.90024954811E+03  0.95968984482E+03  0.33227393592E+03 0.  0.
         13    1    3    3    0    0  0.80238291472E+02  0.77567973540E+02 -0.80290837314E+03  0.81062742959E+03  0.00000000000E+00 0.  1.
          1    1    3    3  501    0 -0.72205350986E+02 -0.86779528569E+02 -0.97341174966E+02  0.14906241523E+03  0.00000000000E+00 0.  1.
         21    1    1    2  502  501 -0.80329404857E+01  0.92115550293E+01 -0.69497031256E+02  0.70563575819E+02  0.00000000000E+00 0.  1.
<mgrwt>
<rscale>  1 0.30000000E+03</rscale>
<asrwt>0</asrwt>
<pdfrwt beam="1">  1        1 0.11001267E+00 0.30000000E+03</pdfrwt>
<pdfrwt beam="2">0</pdfrwt>
<totfact> 0.29704476E+01</totfact>
</mgrwt>
</event>
<event>
 6    1  0.1969531E-004  0.3000000E+03  0.7818608E-02  0.1093470E+00
          1   -1    0    0  502    0  0.00000000000E+00  0.00000000000E+00  0.44005550579E+02  0.44005550579E+02  0.00000000000E+00 0.  1.
         13   -1    0    0    0    0 -0.00000000000E+00 -0.00000000000E+00 -0.10000000000E+04  0.10000000000E+04  0.00000000000E+00 0.  1.
    9000005    2    1    2  501    0 -0.32099397954E+02  0.17635243441E+02 -0.95315218950E+03  0.10072706680E+04  0.32365680744E+03 0.  0.
         13    1    3    3    0    0 -0.63255054376E+02  0.14356224115E+03 -0.27306546864E+03  0.31492232241E+03  0.00000000000E+00 0.  1.
          3    1    3    3  501    0  0.31155656422E+02 -0.12592699771E+03 -0.68008672087E+03  0.69234834555E+03  0.00000000000E+00 0.  1.
         21    1    1    2  502  501  0.32099397954E+02 -0.17635243441E+02 -0.28422599189E+01  0.36734882628E+02  0.00000000000E+00 0.  1.
<mgrwt>
<rscale>  1 0.30000000E+03</rscale>
<asrwt>0</asrwt>
<pdfrwt beam="1">  1        1 0.16002052E+00 0.30000000E+03</pdfrwt>
<pdfrwt beam="2">0</pdfrwt>
<totfact> 0.15999290E+01</totfact>
</mgrwt>
</event>
<event>
 6    1  0.1969531E-004  0.3000000E+03  0.7818608E-02  0.1093470E+00
          1   -1    0    0  502    0  0.00000000000E+00  0.00000000000E+00  0.29559902095E+02  0.29559902095E+02  0.00000000000E+00 0.  1.
         13   -1    0    0    0    0 -0.00000000000E+00 -0.00000000000E+00 -0.10000000000E+04  0.10000000000E+04  0.00000000000E+00 0.  1.
    9000005    2    1    2  501    0 -0.57027486848E+00  0.15188382737E+02 -0.88513433967E+03  0.94291069800E+03  0.32463328994E+03 0.  0.
         13    1    3    3    0    0  0.14251866079E+03  0.30749352070E+01 -0.66480022881E+03  0.67991202969E+03  0.00000000000E+00 0.  1.
          1    1    3    3  501    0 -0.14308893565E+03  0.12113447530E+02 -0.22033411087E+03  0.26299866830E+03  0.00000000000E+00 0.  1.
         21    1    1    2  502  501  0.57027486848E+00 -0.15188382737E+02 -0.85305758231E+02  0.86649204099E+02  0.00000000000E+00 0. -1.
<mgrwt>
<rscale>  1 0.30000000E+03</rscale>
<asrwt>0</asrwt>
<pdfrwt beam="1">  1        1 0.10749078E+00 0.30000000E+03</pdfrwt>
<pdfrwt beam="2">0</pdfrwt>
<totfact> 0.30758394E+01</totfact>
</mgrwt>
</event>
<event>
 6    1  0.1969531E-004  0.3000000E+03  0.7818608E-02  0.1093470E+00
          1   -1    0    0  502    0  0.00000000000E+00  0.00000000000E+00  0.46027792913E+02  0.46027792913E+02  0.00000000000E+00 0.  1.
         13   -1    0    0    0    0 -0.00000000000E+00 -0.00000000000E+00 -0.10000000000E+04  0.10000000000E+04  0.00000000000E+00 0.  1.
    9000005    2    1    2  501    0  0.17429081831E+02  0.18326505453E+02 -0.96458248510E+03  0.10186013149E+04  0.32632749579E+03 0.  0.
         13    1    3    3    0    0  0.58161192503E+02 -0.14173729283E+03 -0.34704388098E+03  0.37935687660E+03  0.00000000000E+00 0.  1.
          1    1    3    3  501    0 -0.40732110672E+02  0.16006379828E+03 -0.61753860411E+03  0.63924443832E+03  0.00000000000E+00 0.  1.
         21    1    1    2  502  501 -0.17429081831E+02 -0.18326505453E+02  0.10610278010E+02  0.27426477992E+02  0.00000000000E+00 0.  1.
<mgrwt>
<rscale>  1 0.30000000E+03</rscale>
<asrwt>0</asrwt>
<pdfrwt beam="1">  1        1 0.16737415E+00 0.30000000E+03</pdfrwt>
<pdfrwt beam="2">0</pdfrwt>
<totfact> 0.14716513E+01</totfact>
</mgrwt>
</event>
<event>
 6    1  0.1969531E-004  0.3000000E+03  0.7818608E-02  0.1093470E+00
          1   -1    0    0  502    0  0.00000000000E+00  0.00000000000E+00  0.30456653568E+02  0.30456653568E+02  0.00000000000E+00 0.  1.
         13   -1    0    0    0    0 -0.00000000000E+00 -0.00000000000E+00 -0.10000000000E+04  0.10000000000E+04  0.00000000000E+00 0.  1.
    9000005    2    1    2  501    0 -0.23354127894E+02 -0.28782010167E+01 -0.94234249730E+03  0.99449020359E+03  0.31693482529E+03 0.  0.
         13    1    3    3    0    0  0.67643396397E+01 -0.65713707195E+02 -0.19301652019E+02  0.68822971272E+02  0.00000000000E+00 0.  1.
          3    1    3    3  501    0 -0.30118467534E+02  0.62835506178E+02 -0.92304084528E+03  0.92566723231E+03  0.00000000000E+00 0.  1.
         21    1    1    2  502  501  0.23354127894E+02  0.28782010167E+01 -0.27200849133E+02  0.35966449982E+02  0.00000000000E+00 0.  1.
<mgrwt>
<rscale>  1 0.30000000E+03</rscale>
<asrwt>0</asrwt>
<pdfrwt beam="1">  1        1 0.11075170E+00 0.30000000E+03</pdfrwt>
<pdfrwt beam="2">0</pdfrwt>
<totfact> 0.29405369E+01</totfact>
</mgrwt>
</event>
<event>
 6    1  0.1969531E-004  0.3000000E+03  0.7818608E-02  0.1093470E+00
          1   -1    0    0  502    0  0.00000000000E+00  0.00000000000E+00  0.63484052475E+02  0.63484052475E+02  0.00000000000E+00 0.  1.
         13   -1    0    0    0    0 -0.00000000000E+00 -0.00000000000E+00 -0.10000000000E+04  0.10000000000E+04  0.00000000000E+00 0.  1.
    9000005    2    1    2  501    0 -0.98535873652E+00  0.12329755015E+02 -0.96913933227E+03  0.10285945265E+04  0.34441640612E+03 0.  0.
         13    1    3    3    0    0  0.11624969300E+03 -0.10508856886E+03 -0.65319964572E+03  0.67173460205E+03  0.00000000000E+00 0.  1.
          3    1    3    3  501    0 -0.11723505174E+03  0.11741832388E+03 -0.31593968655E+03  0.35685992445E+03  0.00000000000E+00 0.  1.
         21    1    1    2  502  501  0.98535873652E+00 -0.12329755015E+02  0.32623384744E+02  0.34889525974E+02  0.00000000000E+00 0.  1.
<mgrwt>
<rscale>  1 0.30000000E+03</rscale>
<asrwt>0</asrwt>
<pdfrwt beam="1">  1        1 0.23085159E+00 0.30000000E+03</pdfrwt>
<pdfrwt beam="2">0</pdfrwt>
<totfact> 0.73328001E+00</totfact>
</mgrwt>
</event>
<event>
 6    1  0.1969531E-004  0.3000000E+03  0.7818608E-02  0.1093470E+00
          1   -1    0    0  502    0  0.00000000000E+00  0.00000000000E+00  0.35707099979E+02  0.35707099979E+02  0.00000000000E+00 0.  1.
         13   -1    0    0    0    0 -0.00000000000E+00 -0.00000000000E+00 -0.10000000000E+04  0.10000000000E+04  0.00000000000E+00 0.  1.
    9000005    2    1    2  501    0  0.17630497717E+02 -0.54793671520E+01 -0.96176642684E+03  0.10170726968E+04  0.33030493930E+03 0.  0.
         13    1    3    3    0    0  0.74908094644E+02 -0.98328080885E+01 -0.26529317495E+02  0.80073163076E+02  0.00000000000E+00 0.  1.
          1    1    3    3  501    0 -0.57277596927E+02  0.43534409365E+01 -0.93523710934E+03  0.93699953375E+03  0.00000000000E+00 0.  1.
         21    1    1    2  502  501 -0.17630497717E+02  0.54793671520E+01 -0.25264731833E+01  0.18634403153E+02  0.00000000000E+00 0.  1.
<mgrwt>
<rscale>  1 0.30000000E+03</rscale>
<asrwt>0</asrwt>
<pdfrwt beam="1">  1        1 0.12984427E+00 0.30000000E+03</pdfrwt>
<pdfrwt beam="2">0</pdfrwt>
<totfact> 0.22924506E+01</totfact>
</mgrwt>
</event>
<event>
 6    1  0.1969531E-004  0.3000000E+03  0.7818608E-02  0.1093470E+00
          1   -1    0    0  502    0  0.00000000000E+00  0.00000000000E+00  0.33433247932E+02  0.33433247932E+02  0.00000000000E+00 0.  1.
         13   -1    0    0    0    0 -0.00000000000E+00 -0.00000000000E+00 -0.10000000000E+04  0.10000000000E+04  0.00000000000E+00 0.  1.
    9000005    2    1    2  501    0 -0.96709135000E+01 -0.52841676877E+01 -0.95906266324E+03  0.10201005683E+04  0.34739390971E+03 0.  0.
         13    1    3    3    0    0  0.21476864867E+02 -0.11544496193E+03 -0.10234130399E+03  0.15576436519E+03  0.00000000000E+00 0.  1.
          1    1    3    3  501    0 -0.31147778367E+02  0.11016079424E+03 -0.85672135924E+03  0.86433620314E+03  0.00000000000E+00 0.  1.
         21    1    1    2  502  501  0.96709135000E+01  0.52841676877E+01 -0.75040888312E+01  0.13332679598E+02  0.00000000000E+00 0. -1.
<mgrwt>
<rscale>  1 0.30000000E+03</rscale>
<asrwt>0</asrwt>
<pdfrwt beam="1">  1        1 0.12157570E+00 0.30000000E+03</pdfrwt>
<pdfrwt beam="2">0</pdfrwt>
<totfact> 0.25469940E+01</totfact>
</mgrwt>
</event>
<event>
 6    1  0.1969531E-004  0.3000000E+03  0.7818608E-02  0.1093470E+00
          1   -1    0    0  502    0  0.00000000000E+00  0.00000000000E+00  0.37222498514E+02  0.37222498514E+02  0.00000000000E+00 0.  1.
         13   -1    0    0    0    0 -0.00000000000E+00 -0.00000000000E+00 -0.10000000000E+04  0.10000000000E+04  0.00000000000E+00 0.  1.
    9000005    2    1    2  501    0  0.12433243143E+02 -0.19607579026E+02 -0.87918540784E+03  0.95046605316E+03  0.36038825475E+03 0.  0.
         13    1    3    3    0    0 -0.57656998516E+02  0.97592099289E+02 -0.76239773026E+03  0.77077807858E+03  0.00000000000E+00 0.  1.
          3    1    3    3  501    0  0.70090241659E+02 -0.11719967831E+03 -0.11678767758E+03  0.17968797458E+03  0.00000000000E+00 0.  1.
         21    1    1    2  502  501 -0.12433243143E+02  0.19607579026E+02 -0.83592093645E+02  0.86756445353E+02  0.00000000000E+00 0. -1.
<mgrwt>
<rscale>  1 0.30000000E+03</rscale>
<asrwt>0</asrwt>
<pdfrwt beam="1">  1        1 0.13535483E+00 0.30000000E+03</pdfrwt>
<pdfrwt beam="2">0</pdfrwt>
<totfact> 0.21408984E+01</totfact>
</mgrwt>
</event>
<event>
 6    1  0.1969531E-004  0.3000000E+03  0.7818608E-02  0.1093470E+00
          1   -1    0    0  502    0  0.00000000000E+00  0.00000000000E+00  0.29590104554E+02  0.29590104554E+02  0.00000000000E+00 0.  1.
         13   -1    0    0    0    0 -0.00000000000E+00 -0.00000000000E+00 -0.10000000000E+04  0.10000000000E+04  0.00000000000E+00 0.  1.
    9000005    2    1    2  501    0 -0.10983455231E+02 -0.79185794549E+01 -0.87820478780E+03  0.93639610225E+03  0.32467009534E+03 0.  0.
         13    1    3    3    0    0 -0.12041938939E+03 -0.11797245258E+03 -0.41742071148E+03  0.45017594258E+03  0.00000000000E+00 0.  1.
          1    1    3    3  501    0  0.10943593416E+03  0.11005387312E+03 -0.46078407632E+03  0.48622015967E+03  0.00000000000E+00 0.  1.
         21    1    1    2  502  501  0.10983455231E+02  0.79185794549E+01 -0.92205107647E+02  0.93194002305E+02  0.00000000000E+00 0.  1.
<mgrwt>
<rscale>  1 0.30000000E+03</rscale>
<asrwt>0</asrwt>
<pdfrwt beam="1">  1        1 0.10760061E+00 0.30000000E+03</pdfrwt>
<pdfrwt beam="2">0</pdfrwt>
<totfact> 0.30711392E+01</totfact>
</mgrwt>
</event>
<event>
 6    1  0.1969531E-004  0.3000000E+03  0.7818608E-02  0.1093470E+00
          1   -1    0    0  502    0  0.00000000000E+00  0.00000000000E+00  0.32343758177E+02  0.32343758177E+02  0.00000000000E+00 0.  1.
         13   -1    0    0    0    0 -0.00000000000E+00 -0.00000000000E+00 -0.10000000000E+04  0.10000000000E+04  0.00000000000E+00 0.  1.
    9000005    2    1    2  501    0 -0.98298102466E+01  0.12401969302E+02 -0.96239330882E+03  0.10156664540E+04  0.32423298849E+03 0.  0.
         13    1    3    3    0    0 -0.84324647397E-01 -0.11554754112E+03 -0.13204966199E+03  0.17546610670E+03  0.00000000000E+00 0.  1.
          1    1    3    3  501    0 -0.97454855992E+01  0.12794951042E+03 -0.83034364684E+03  0.84020034727E+03  0.00000000000E+00 0.  1.
         21    1    1    2  502  501  0.98298102466E+01 -0.12401969302E+02 -0.52629329979E+01  0.16677304212E+02  0.00000000000E+00 0.  1.
<mgrwt>
<rscale>  1 0.30000000E+03</rscale>
<asrwt>0</asrwt>
<pdfrwt beam="1">  1        1 0.11761391E+00 0.30000000E+03</pdfrwt>
<pdfrwt beam="2">0</pdfrwt>
<totfact> 0.26820826E+01</totfact>
</mgrwt>
</event>
<event>
 6    1  0.1969531E-004  0.3000000E+03  0.7818608E-02  0.1093470E+00
          1   -1    0    0  502    0  0.00000000000E+00  0.00000000000E+00  0.44100390153E+02  0.44100390153E+02  0.00000000000E+00 0.  1.
         13   -1    0    0    0    0 -0.00000000000E+00 -0.00000000000E+00 -0.10000000000E+04  0.10000000000E+04  0.00000000000E+00 0.  1.
    9000005    2    1    2  501    0  0.98595737143E+01 -0.71654059214E+01 -0.97054847892E+03  0.10250440631E+04  0.32954882356E+03 0.  0.
         13    1    3    3    0    0 -0.20424296772E+02 -0.14798404763E+03 -0.25839421932E+03  0.29846943366E+03  0.00000000000E+00 0.  1.
          3    1    3    3  501    0  0.30283870487E+02  0.14081864171E+03 -0.71215425960E+03  0.72657462943E+03  0.00000000000E+00 0.  1.
         21    1    1    2  502  501 -0.98595737143E+01  0.71654059214E+01  0.14648869075E+02  0.19056327060E+02  0.00000000000E+00 0.  1.
<mgrwt>
<rscale>  1 0.30000000E+03</rscale>
<asrwt>0</asrwt>
<pdfrwt beam="1">  1        1 0.16036539E+00 0.30000000E+03</pdfrwt>
<pdfrwt beam="2">0</pdfrwt>
<totfact> 0.15936321E+01</totfact>
</mgrwt>
</event>
<event>
 6    1  0.1969531E-004  0.3000000E+03  0.7818608E-02  0.1093470E+00
          1   -1    0    0  502    0  0.00000000000E+00  0.00000000000E+00  0.56069697958E+02  0.56069697958E+02  0.00000000000E+00 0.  1.
         13   -1    0    0    0    0 -0.00000000000E+00 -0.00000000000E+00 -0.10000000000E+04  0.10000000000E+04  0.00000000000E+00 0.  1.
    9000005    2    1    2  501    0 -0.38419872476E+02 -0.16749697397E+02 -0.95361225173E+03  0.10130536647E+04  0.33932987199E+03 0.  0.
         13    1    3    3    0    0  0.25399408356E+01  0.56222111294E+02 -0.92182001330E+03  0.92353641727E+03  0.00000000000E+00 0.  1.
          1    1    3    3  501    0 -0.40959813312E+02 -0.72971808691E+02 -0.31792238428E+02  0.89517247469E+02  0.00000000000E+00 0.  1.
         21    1    1    2  502  501  0.38419872476E+02  0.16749697397E+02  0.96819496897E+01  0.43016033217E+02  0.00000000000E+00 0.  1.
<mgrwt>
<rscale>  1 0.30000000E+03</rscale>
<asrwt>0</asrwt>
<pdfrwt beam="1">  1        1 0.20389024E+00 0.30000000E+03</pdfrwt>
<pdfrwt beam="2">0</pdfrwt>
<totfact> 0.98169187E+00</totfact>
</mgrwt>
</event>
<event>
 6    1  0.1969531E-004  0.3000000E+03  0.7818608E-02  0.1093470E+00
          1   -1    0    0  502    0  0.00000000000E+00  0.00000000000E+00  0.31665188049E+02  0.31665188049E+02  0.00000000000E+00 0.  1.
         13   -1    0    0    0    0 -0.00000000000E+00 -0.00000000000E+00 -0.10000000000E+04  0.10000000000E+04  0.00000000000E+00 0.  1.
    9000005    2    1    2  501    0 -0.20496193320E+01 -0.98590391821E+01 -0.96853093330E+03  0.10215934426E+04  0.32480700668E+03 0.  0.
         13    1    3    3    0    0  0.10002288013E+03 -0.10599549396E+03 -0.24889098507E+03  0.28842042878E+03  0.00000000000E+00 0.  1.
          1    1    3    3  501    0 -0.10207249946E+03  0.96136454782E+02 -0.71963994823E+03  0.73317301381E+03  0.00000000000E+00 0.  1.
         21    1    1    2  502  501  0.20496193320E+01  0.98590391821E+01  0.19612134998E+00  0.10071745459E+02  0.00000000000E+00 0. -1.
<mgrwt>
<rscale>  1 0.30000000E+03</rscale>
<asrwt>0</asrwt>
<pdfrwt beam="1">  1        1 0.11514638E+00 0.30000000E+03</pdfrwt>
<pdfrwt beam="2">0</pdfrwt>
<totfact> 0.27711976E+01</totfact>
</mgrwt>
</event>
<event>
 6    1  0.1969531E-004  0.3000000E+03  0.7818608E-02  0.1093470E+00
          1   -1    0    0  502    0  0.00000000000E+00  0.00000000000E+00  0.37157645001E+02  0.37157645001E+02  0.00000000000E+00 0.  1.
         13   -1    0    0    0    0 -0.00000000000E+00 -0.00000000000E+00 -0.10000000000E+04  0.10000000000E+04  0.00000000000E+00 0.  1.
    9000005    2    1    2  501    0 -0.19829394968E+02  0.33576698384E+02 -0.93274878390E+03  0.98790094393E+03  0.32312131092E+03 0.  0.
         13    1    3    3    0    0 -0.22550228886E+02  0.15964551111E+03 -0.28016130768E+03  0.32324226265E+03  0.00000000000E+00 0.  1.
          1    1    3    3  501    0  0.27208339172E+01 -0.12606881273E+03 -0.65258747622E+03  0.66465868128E+03  0.00000000000E+00 0.  1.
         21    1    1    2  502  501  0.19829394968E+02 -0.33576698384E+02 -0.30093571101E+02  0.49256701075E+02  0.00000000000E+00 0.  1.
<mgrwt>
<rscale>  1 0.30000000E+03</rscale>
<asrwt>0</asrwt>
<pdfrwt beam="1">  1        1 0.13511899E+00 0.30000000E+03</pdfrwt>
<pdfrwt beam="2">0</pdfrwt>
<totfact> 0.21471085E+01</totfact>
</mgrwt>
</event>
<event>
 6    1  0.1969531E-004  0.3000000E+03  0.7818608E-02  0.1093470E+00
          1   -1    0    0  502    0  0.00000000000E+00  0.00000000000E+00  0.32650968598E+02  0.32650968598E+02  0.00000000000E+00 0.  1.
         13   -1    0    0    0    0 -0.00000000000E+00 -0.00000000000E+00 -0.10000000000E+04  0.10000000000E+04  0.00000000000E+00 0.  1.
    9000005    2    1    2  501    0 -0.66743189851E+01 -0.98109937302E+01 -0.96402054807E+03  0.10203269703E+04  0.33405195279E+03 0.  0.
         13    1    3    3    0    0 -0.44481494201E+02  0.73017583008E+02 -0.44644823947E+02  0.96453776805E+02  0.00000000000E+00 0.  1.
          3    1    3    3  501    0  0.37807175216E+02 -0.82828576738E+02 -0.91937572412E+03  0.92387319353E+03  0.00000000000E+00 0.  1.
         21    1    1    2  502  501  0.66743189851E+01  0.98109937302E+01 -0.33284833353E+01  0.12323998264E+02  0.00000000000E+00 0.  1.
<mgrwt>
<rscale>  1 0.30000000E+03</rscale>
<asrwt>0</asrwt>
<pdfrwt beam="1">  1        1 0.11873105E+00 0.30000000E+03</pdfrwt>
<pdfrwt beam="2">0</pdfrwt>
<totfact> 0.26430315E+01</totfact>
</mgrwt>
</event>
<event>
 6    1  0.1969531E-004  0.3000000E+03  0.7818608E-02  0.1093470E+00
          1   -1    0    0  502    0  0.00000000000E+00  0.00000000000E+00  0.20096232435E+02  0.20096232435E+02  0.00000000000E+00 0.  1.
         13   -1    0    0    0    0 -0.00000000000E+00 -0.00000000000E+00 -0.10000000000E+04  0.10000000000E+04  0.00000000000E+00 0.  1.
    9000005    2    1    2  501    0 -0.10085087104E+02  0.41174847144E+02 -0.86000045914E+03  0.89291966073E+03  0.23644799382E+03 0.  0.
         13    1    3    3    0    0 -0.85551889543E+02  0.10908601474E+03 -0.50640407319E+03  0.52503711275E+03  0.00000000000E+00 0.  1.
          3    1    3    3  501    0  0.75466802439E+02 -0.67911167600E+02 -0.35359638595E+03  0.36788254799E+03  0.00000000000E+00 0.  1.
         21    1    1    2  502  501  0.10085087104E+02 -0.41174847144E+02 -0.11990330842E+03  0.12717657170E+03  0.00000000000E+00 0. -1.
<mgrwt>
<rscale>  1 0.30000000E+03</rscale>
<asrwt>0</asrwt>
<pdfrwt beam="1">  1        1 0.73077363E-01 0.30000000E+03</pdfrwt>
<pdfrwt beam="2">0</pdfrwt>
<totfact> 0.53178944E+01</totfact>
</mgrwt>
</event>
<event>
 6    1  0.1969531E-004  0.3000000E+03  0.7818608E-02  0.1093470E+00
          1   -1    0    0  502    0  0.00000000000E+00  0.00000000000E+00  0.71740517141E+02  0.71740517141E+02  0.00000000000E+00 0.  1.
         13   -1    0    0    0    0 -0.00000000000E+00 -0.00000000000E+00 -0.10000000000E+04  0.10000000000E+04  0.00000000000E+00 0.  1.
    9000005    2    1    2  501    0  0.29372508107E+02 -0.43686271472E+01 -0.96640506798E+03  0.10233988705E+04  0.33544696094E+03 0.  0.
         13    1    3    3    0    0  0.28998427356E+02  0.73269818678E+02 -0.93710894101E+03  0.94041615386E+03  0.00000000000E+00 0.  1.
          1    1    3    3  501    0  0.37408075036E+00 -0.77638445825E+02 -0.29296126966E+02  0.82982716644E+02  0.00000000000E+00 0.  1.
         21    1    1    2  502  501 -0.29372508107E+02  0.43686271472E+01  0.38145585118E+02  0.48341646637E+02  0.00000000000E+00 0.  1.
<mgrwt>
<rscale>  1 0.30000000E+03</rscale>
<asrwt>0</asrwt>
<pdfrwt beam="1">  1        1 0.26087516E+00 0.30000000E+03</pdfrwt>
<pdfrwt beam="2">0</pdfrwt>
<totfact> 0.53078297E+00</totfact>
</mgrwt>
</event>
<event>
 6    1  0.1969531E-004  0.3000000E+03  0.7818608E-02  0.1093470E+00
          1   -1    0    0  502    0  0.00000000000E+00  0.00000000000E+00  0.30141153534E+02  0.30141153534E+02  0.00000000000E+00 0.  1.
         13   -1    0    0    0    0 -0.00000000000E+00 -0.00000000000E+00 -0.10000000000E+04  0.10000000000E+04  0.00000000000E+00 0.  1.
    9000005    2    1    2  501    0  0.14685913799E+02  0.45019362674E+01 -0.88924787591E+03  0.94807976146E+03  0.32841666492E+03 0.  0.
         13    1    3    3    0    0  0.80588153290E+02  0.92667345303E+02 -0.12245639593E+03  0.17342795692E+03  0.00000000000E+00 0.  1.
          3    1    3    3  501    0 -0.65902239491E+02 -0.88165409035E+02 -0.76679147998E+03  0.77465180455E+03  0.00000000000E+00 0.  1.
         21    1    1    2  502  501 -0.14685913799E+02 -0.45019362674E+01 -0.80610970559E+02  0.82061392071E+02  0.00000000000E+00 0. -1.
<mgrwt>
<rscale>  1 0.30000000E+03</rscale>
<asrwt>0</asrwt>
<pdfrwt beam="1">  1        1 0.10960443E+00 0.30000000E+03</pdfrwt>
<pdfrwt beam="2">0</pdfrwt>
<totfact> 0.29871558E+01</totfact>
</mgrwt>
</event>
<event>
 6    1  0.1969531E-004  0.3000000E+03  0.7818608E-02  0.1093470E+00
          1   -1    0    0  502    0  0.00000000000E+00  0.00000000000E+00  0.28371962399E+02  0.28371962399E+02  0.00000000000E+00 0.  1.
         13   -1    0    0    0    0 -0.00000000000E+00 -0.00000000000E+00 -0.10000000000E+04  0.10000000000E+04  0.00000000000E+00 0.  1.
    9000005    2    1    2  501    0 -0.47128644194E+02  0.52231826301E+02 -0.85198307304E+03  0.88957646418E+03  0.24601190232E+03 0.  0.
         13    1    3    3    0    0  0.77334740942E+01  0.11561985581E+03 -0.74350163486E+03  0.75247753370E+03  0.00000000000E+00 0.  1.
          3    1    3    3  501    0 -0.54862118288E+02 -0.63388029514E+02 -0.10848143818E+03  0.13709893048E+03  0.00000000000E+00 0.  1.
         21    1    1    2  502  501  0.47128644194E+02 -0.52231826301E+02 -0.11964496456E+03  0.13879549822E+03  0.00000000000E+00 0. -1.
<mgrwt>
<rscale>  1 0.30000000E+03</rscale>
<asrwt>0</asrwt>
<pdfrwt beam="1">  1        1 0.10317099E+00 0.30000000E+03</pdfrwt>
<pdfrwt beam="2">0</pdfrwt>
<totfact> 0.32692511E+01</totfact>
</mgrwt>
</event>
<event>
 6    1  0.1969531E-004  0.3000000E+03  0.7818608E-02  0.1093470E+00
          1   -1    0    0  502    0  0.00000000000E+00  0.00000000000E+00  0.42447585925E+02  0.42447585925E+02  0.00000000000E+00 0.  1.
         13   -1    0    0    0    0 -0.00000000000E+00 -0.00000000000E+00 -0.10000000000E+04  0.10000000000E+04  0.00000000000E+00 0.  1.
    9000005    2    1    2  501    0 -0.11525113821E+02 -0.41069822963E+01 -0.97375403914E+03  0.10221451672E+04  0.31053843322E+03 0.  0.
         13    1    3    3    0    0 -0.12400930062E+03  0.52683996638E+02 -0.77633091285E+03  0.78793628955E+03  0.00000000000E+00 0.  1.
          3    1    3    3  501    0  0.11248418680E+03 -0.56790978934E+02 -0.19742312629E+03  0.23420887764E+03  0.00000000000E+00 0.  1.
         21    1    1    2  502  501  0.11525113821E+02  0.41069822963E+01  0.16201625062E+02  0.20302418743E+02  0.00000000000E+00 0. -1.
<mgrwt>
<rscale>  1 0.30000000E+03</rscale>
<asrwt>0</asrwt>
<pdfrwt beam="1">  1        1 0.15435518E+00 0.30000000E+03</pdfrwt>
<pdfrwt beam="2">0</pdfrwt>
<totfact> 0.17076856E+01</totfact>
</mgrwt>
</event>
<event>
 6    1  0.1969531E-004  0.3000000E+03  0.7818608E-02  0.1093470E+00
          1   -1    0    0  502    0  0.00000000000E+00  0.00000000000E+00  0.44178465523E+02  0.44178465523E+02  0.00000000000E+00 0.  1.
         13   -1    0    0    0    0 -0.00000000000E+00 -0.00000000000E+00 -0.10000000000E+04  0.10000000000E+04  0.00000000000E+00 0.  1.
    9000005    2    1    2  501    0  0.49890906813E+02  0.41999481801E+01 -0.92862082151E+03  0.98719933835E+03  0.33123882826E+03 0.  0.
         13    1    3    3    0    0  0.10132222330E+03  0.10308782826E+03 -0.81615565608E+03  0.82885665119E+03  0.00000000000E+00 0.  1.
          1    1    3    3  501    0 -0.51431316486E+02 -0.98887880079E+02 -0.11246516543E+03  0.15834268716E+03  0.00000000000E+00 0.  1.
         21    1    1    2  502  501 -0.49890906813E+02 -0.41999481801E+01 -0.27200712965E+02  0.56979127171E+02  0.00000000000E+00 0.  1.
<mgrwt>
<rscale>  1 0.30000000E+03</rscale>
<asrwt>0</asrwt>
<pdfrwt beam="1">  1        1 0.16064930E+00 0.30000000E+03</pdfrwt>
<pdfrwt beam="2">0</pdfrwt>
<totfact> 0.15884700E+01</totfact>
</mgrwt>
</event>
<event>
 6    1  0.1969531E-004  0.3000000E+03  0.7818608E-02  0.1093470E+00
          1   -1    0    0  502    0  0.00000000000E+00  0.00000000000E+00  0.36697977417E+02  0.36697977417E+02  0.00000000000E+00 0.  1.
         13   -1    0    0    0    0 -0.00000000000E+00 -0.00000000000E+00 -0.10000000000E+04  0.10000000000E+04  0.00000000000E+00 0.  1.
    9000005    2    1    2  501    0  0.54814008532E+02 -0.18328611410E+02 -0.86007015712E+03  0.91838765845E+03  0.31681966873E+03 0.  0.
         13    1    3    3    0    0  0.11551976623E+03 -0.14126907291E+03 -0.54612744499E+03  0.57580982410E+03  0.00000000000E+00 0.  1.
          3    1    3    3  501    0 -0.60705757696E+02  0.12294046150E+03 -0.31394271212E+03  0.34257783435E+03  0.00000000000E+00 0.  1.
         21    1    1    2  502  501 -0.54814008532E+02  0.18328611410E+02 -0.10323186546E+03  0.11831031897E+03  0.00000000000E+00 0.  1.
<mgrwt>
<rscale>  1 0.30000000E+03</rscale>
<asrwt>0</asrwt>
<pdfrwt beam="1">  1        1 0.13344747E+00 0.30000000E+03</pdfrwt>
<pdfrwt beam="2">0</pdfrwt>
<totfact> 0.21918176E+01</totfact>
</mgrwt>
</event>
<event>
 6    1  0.1969531E-004  0.3000000E+03  0.7818608E-02  0.1093470E+00
          1   -1    0    0  502    0  0.00000000000E+00  0.00000000000E+00  0.34907287895E+02  0.34907287895E+02  0.00000000000E+00 0.  1.
         13   -1    0    0    0    0 -0.00000000000E+00 -0.00000000000E+00 -0.10000000000E+04  0.10000000000E+04  0.00000000000E+00 0.  1.
    9000005    2    1    2  501    0 -0.14325051288E+02 -0.47863993407E+00 -0.96695205882E+03  0.10204541443E+04  0.32576823096E+03 0.  0.
         13    1    3    3    0    0 -0.15783113771E+01 -0.29977391912E+02  0.17984195390E+02  0.34993804830E+02  0.00000000000E+00 0.  1.
          3    1    3    3  501    0 -0.12746739911E+02  0.29498751978E+02 -0.98493625421E+03  0.98546033944E+03  0.00000000000E+00 0.  1.
         21    1    1    2  502  501  0.14325051288E+02  0.47863993407E+00  0.18593467138E+01  0.14453143630E+02  0.00000000000E+00 0. -1.
<mgrwt>
<rscale>  1 0.30000000E+03</rscale>
<asrwt>0</asrwt>
<pdfrwt beam="1">  1        1 0.12693586E+00 0.30000000E+03</pdfrwt>
<pdfrwt beam="2">0</pdfrwt>
<totfact> 0.23781012E+01</totfact>
</mgrwt>
</event>
<event>
 6    1  0.1969531E-004  0.3000000E+03  0.7818608E-02  0.1093470E+00
          1   -1    0    0  502    0  0.00000000000E+00  0.00000000000E+00  0.37673049464E+02  0.37673049464E+02  0.00000000000E+00 0.  1.
         13   -1    0    0    0    0 -0.00000000000E+00 -0.00000000000E+00 -0.10000000000E+04  0.10000000000E+04  0.00000000000E+00 0.  1.
    9000005    2    1    2  501    0  0.10253238616E+02 -0.89139876018E+01 -0.97010454678E+03  0.10220180477E+04  0.32129965773E+03 0.  0.
         13    1    3    3    0    0 -0.27820329826E+02 -0.12050437292E+02 -0.98164296745E+03  0.98211104227E+03  0.00000000000E+00 0.  1.
          1    1    3    3  501    0  0.38073568442E+02  0.31364496901E+01  0.11538420674E+02  0.39907005428E+02  0.00000000000E+00 0.  1.
         21    1    1    2  502  501 -0.10253238616E+02  0.89139876018E+01  0.77775962425E+01  0.15655001769E+02  0.00000000000E+00 0.  1.
<mgrwt>
<rscale>  1 0.30000000E+03</rscale>
<asrwt>0</asrwt>
<pdfrwt beam="1">  1        1 0.13699320E+00 0.30000000E+03</pdfrwt>
<pdfrwt beam="2">0</pdfrwt>
<totfact> 0.20984097E+01</totfact>
</mgrwt>
</event>
<event>
 6    1  0.1969531E-004  0.3000000E+03  0.7818608E-02  0.1093470E+00
          1   -1    0    0  502    0  0.00000000000E+00  0.00000000000E+00  0.48121018290E+02  0.48121018290E+02  0.00000000000E+00 0.  1.
         13   -1    0    0    0    0 -0.00000000000E+00 -0.00000000000E+00 -0.10000000000E+04  0.10000000000E+04  0.00000000000E+00 0.  1.
    9000005    2    1    2  501    0 -0.39720942897E+02 -0.10914090342E+02 -0.93858024982E+03  0.10048344506E+04  0.35645829641E+03 0.  0.
         13    1    3    3    0    0 -0.64870764603E+01 -0.12370792730E+03 -0.10323916574E+03  0.16125774022E+03  0.00000000000E+00 0.  1.
          3    1    3    3  501    0 -0.33233866437E+02  0.11279383696E+03 -0.83534108408E+03  0.84357671038E+03  0.00000000000E+00 0.  1.
         21    1    1    2  502  501  0.39720942897E+02  0.10914090342E+02 -0.13298731886E+02  0.43286567690E+02  0.00000000000E+00 0. -1.
<mgrwt>
<rscale>  1 0.30000000E+03</rscale>
<asrwt>0</asrwt>
<pdfrwt beam="1">  1        1 0.17498589E+00 0.30000000E+03</pdfrwt>
<pdfrwt beam="2">0</pdfrwt>
<totfact> 0.13509981E+01</totfact>
</mgrwt>
</event>
<event>
 6    1  0.1969531E-004  0.3000000E+03  0.7818608E-02  0.1093470E+00
          1   -1    0    0  502    0  0.00000000000E+00  0.00000000000E+00  0.31623237198E+02  0.31623237198E+02  0.00000000000E+00 0.  1.
         13   -1    0    0    0    0 -0.00000000000E+00 -0.00000000000E+00 -0.10000000000E+04  0.10000000000E+04  0.00000000000E+00 0.  1.
    9000005    2    1    2  501    0 -0.16293656490E+02  0.90006931809E-01 -0.95489023914E+03  0.10104719331E+04  0.33011008392E+03 0.  0.
         13    1    3    3    0    0 -0.11730134906E+03  0.87305362688E+02 -0.22403088731E+03  0.26752882334E+03  0.00000000000E+00 0.  1.
          1    1    3    3  501    0  0.10100769257E+03 -0.87215355757E+02 -0.73085935183E+03  0.74294310980E+03  0.00000000000E+00 0.  1.
         21    1    1    2  502  501  0.16293656490E+02 -0.90006931809E-01 -0.13486523658E+02  0.21151304060E+02  0.00000000000E+00 0.  1.
<mgrwt>
<rscale>  1 0.30000000E+03</rscale>
<asrwt>0</asrwt>
<pdfrwt beam="1">  1        1 0.11499383E+00 0.30000000E+03</pdfrwt>
<pdfrwt beam="2">0</pdfrwt>
<totfact> 0.27768414E+01</totfact>
</mgrwt>
</event>
<event>
 6    1  0.1969531E-004  0.3000000E+03  0.7818608E-02  0.1093470E+00
          1   -1    0    0  502    0  0.00000000000E+00  0.00000000000E+00  0.32406671979E+02  0.32406671979E+02  0.00000000000E+00 0.  1.
         13   -1    0    0    0    0 -0.00000000000E+00 -0.00000000000E+00 -0.10000000000E+04  0.10000000000E+04  0.00000000000E+00 0.  1.
    9000005    2    1    2  501    0 -0.21162941682E+02 -0.54326149755E+01 -0.95800459120E+03  0.10085460919E+04  0.31450761421E+03 0.  0.
         13    1    3    3    0    0 -0.11546873070E+03 -0.11500809784E+03 -0.61702773444E+03  0.63818736701E+03  0.00000000000E+00 0.  1.
          1    1    3    3  501    0  0.94305789019E+02  0.10957548286E+03 -0.34097685675E+03  0.37035872493E+03  0.00000000000E+00 0.  1.
         21    1    1    2  502  501  0.21162941682E+02  0.54326149755E+01 -0.95887368222E+01  0.23860580043E+02  0.00000000000E+00 0.  1.
<mgrwt>
<rscale>  1 0.30000000E+03</rscale>
<asrwt>0</asrwt>
<pdfrwt beam="1">  1        1 0.11784269E+00 0.30000000E+03</pdfrwt>
<pdfrwt beam="2">0</pdfrwt>
<totfact> 0.26740215E+01</totfact>
</mgrwt>
</event>
<event>
 6    1  0.1969531E-004  0.3000000E+03  0.7818608E-02  0.1093470E+00
          1   -1    0    0  502    0  0.00000000000E+00  0.00000000000E+00  0.32256809024E+02  0.32256809024E+02  0.00000000000E+00 0.  1.
         13   -1    0    0    0    0 -0.00000000000E+00 -0.00000000000E+00 -0.10000000000E+04  0.10000000000E+04  0.00000000000E+00 0.  1.
    9000005    2    1    2  501    0 -0.12061997459E+02 -0.62281610315E+01 -0.96389078029E+03  0.10181457197E+04  0.32764460706E+03 0.  0.
         13    1    3    3    0    0 -0.10247049401E+03  0.51810677070E+02 -0.11509358314E+03  0.16257638599E+03  0.00000000000E+00 0.  1.
          3    1    3    3  501    0  0.90408496549E+02 -0.58038838101E+02 -0.84879719715E+03  0.85556933376E+03  0.00000000000E+00 0.  1.
         21    1    1    2  502  501  0.12061997459E+02  0.62281610315E+01 -0.38524106855E+01  0.14111089279E+02  0.00000000000E+00 0. -1.
<mgrwt>
<rscale>  1 0.30000000E+03</rscale>
<asrwt>0</asrwt>
<pdfrwt beam="1">  1        1 0.11729773E+00 0.30000000E+03</pdfrwt>
<pdfrwt beam="2">0</pdfrwt>
<totfact> 0.26932782E+01</totfact>
</mgrwt>
</event>
<event>
 6    1  0.1969531E-004  0.3000000E+03  0.7818608E-02  0.1093470E+00
          1   -1    0    0  502    0  0.00000000000E+00  0.00000000000E+00  0.50768156200E+02  0.50768156200E+02  0.00000000000E+00 0.  1.
         13   -1    0    0    0    0 -0.00000000000E+00 -0.00000000000E+00 -0.10000000000E+04  0.10000000000E+04  0.00000000000E+00 0.  1.
    9000005    2    1    2  501    0 -0.36928678862E+02  0.23433971406E+02 -0.95604263044E+03  0.10065045690E+04  0.31164251610E+03 0.  0.
         13    1    3    3    0    0  0.40346739122E+02  0.97330525037E+02 -0.10491885820E+03  0.14869114724E+03  0.00000000000E+00 0.  1.
          1    1    3    3  501    0 -0.77275417984E+02 -0.73896553631E+02 -0.85112377223E+03  0.85781342174E+03  0.00000000000E+00 0.  1.
         21    1    1    2  502  501  0.36928678862E+02 -0.23433971406E+02  0.68107866361E+01  0.44263587213E+02  0.00000000000E+00 0.  1.
<mgrwt>
<rscale>  1 0.30000000E+03</rscale>
<asrwt>0</asrwt>
<pdfrwt beam="1">  1        1 0.18461187E+00 0.30000000E+03</pdfrwt>
<pdfrwt beam="2">0</pdfrwt>
<totfact> 0.12136443E+01</totfact>
</mgrwt>
</event>
<event>
 6    1  0.1969531E-004  0.3000000E+03  0.7818608E-02  0.1093470E+00
          1   -1    0    0  502    0  0.00000000000E+00  0.00000000000E+00  0.30173802186E+02  0.30173802186E+02  0.00000000000E+00 0.  1.
         13   -1    0    0    0    0 -0.00000000000E+00 -0.00000000000E+00 -0.10000000000E+04  0.10000000000E+04  0.00000000000E+00 0.  1.
    9000005    2    1    2  501    0 -0.81335638445E+01  0.13381609180E+02 -0.96030960358E+03  0.10118492861E+04  0.31843244287E+03 0.  0.
         13    1    3    3    0    0 -0.13845177923E+03  0.50299609378E+02 -0.26241801173E+03  0.30093547274E+03  0.00000000000E+00 0.  1.
          1    1    3    3  501    0  0.13031821539E+03 -0.36918000198E+02 -0.69789159185E+03  0.71091381333E+03  0.00000000000E+00 0.  1.
         21    1    1    2  502  501  0.81335638445E+01 -0.13381609180E+02 -0.95165942334E+01  0.18324516115E+02  0.00000000000E+00 0.  1.
<mgrwt>
<rscale>  1 0.30000000E+03</rscale>
<asrwt>0</asrwt>
<pdfrwt beam="1">  1        1 0.10972315E+00 0.30000000E+03</pdfrwt>
<pdfrwt beam="2">0</pdfrwt>
<totfact> 0.29822831E+01</totfact>
</mgrwt>
</event>
<event>
 6    1  0.1969531E-004  0.3000000E+03  0.7818608E-02  0.1093470E+00
          1   -1    0    0  502    0  0.00000000000E+00  0.00000000000E+00  0.35783412616E+02  0.35783412616E+02  0.00000000000E+00 0.  1.
         13   -1    0    0    0    0 -0.00000000000E+00 -0.00000000000E+00 -0.10000000000E+04  0.10000000000E+04  0.00000000000E+00 0.  1.
    9000005    2    1    2  501    0  0.12485858928E+02 -0.19539844266E+01 -0.95666605739E+03  0.10210618220E+04  0.35664770315E+03 0.  0.
         13    1    3    3    0    0 -0.15901424905E+03 -0.62000285198E+02 -0.54441649437E+03  0.57054262427E+03  0.00000000000E+00 0.  1.
          3    1    3    3  501    0  0.17150010798E+03  0.60046300772E+02 -0.41224956303E+03  0.45051919770E+03  0.00000000000E+00 0.  1.
         21    1    1    2  502  501 -0.12485858928E+02  0.19539844266E+01 -0.75505299895E+01  0.14721590656E+02  0.00000000000E+00 0. -1.
<mgrwt>
<rscale>  1 0.30000000E+03</rscale>
<asrwt>0</asrwt>
<pdfrwt beam="1">  1        1 0.13012177E+00 0.30000000E+03</pdfrwt>
<pdfrwt beam="2">0</pdfrwt>
<totfact> 0.22844883E+01</totfact>
</mgrwt>
</event>
<event>
 6    1  0.1969531E-004  0.3000000E+03  0.7818608E-02  0.1093470E+00
          1   -1    0    0  502    0  0.00000000000E+00  0.00000000000E+00  0.96132406295E+02  0.96132406295E+02  0.00000000000E+00 0.  1.
         13   -1    0    0    0    0 -0.00000000000E+00 -0.00000000000E+00 -0.10000000000E+04  0.10000000000E+04  0.00000000000E+00 0.  1.
    9000005    2    1    2  501    0 -0.12009856194E+03 -0.51736416276E+02 -0.90093956339E+03  0.96533143264E+03  0.32104883834E+03 0.  0.
         13    1    3    3    0    0 -0.12766432023E+03  0.76661303276E+01 -0.89618026285E+03  0.90526019007E+03  0.00000000000E+00 0.  1.
          1    1    3    3  501    0  0.75657582934E+01 -0.59402546604E+02 -0.47593005462E+01  0.60071242564E+02  0.00000000000E+00 0.  1.
         21    1    1    2  502  501  0.12009856194E+03  0.51736416276E+02 -0.29280303125E+01  0.13080097366E+03  0.00000000000E+00 0.  1.
<mgrwt>
<rscale>  1 0.30000000E+03</rscale>
<asrwt>0</asrwt>
<pdfrwt beam="1">  1        1 0.34957312E+00 0.30000000E+03</pdfrwt>
<pdfrwt beam="2">0</pdfrwt>
<totfact> 0.19789781E+00</totfact>
</mgrwt>
</event>
<event>
 6    1  0.1969531E-004  0.3000000E+03  0.7818608E-02  0.1093470E+00
          1   -1    0    0  502    0  0.00000000000E+00  0.00000000000E+00  0.29497053860E+02  0.29497053860E+02  0.00000000000E+00 0.  1.
         13   -1    0    0    0    0 -0.00000000000E+00 -0.00000000000E+00 -0.10000000000E+04  0.10000000000E+04  0.00000000000E+00 0.  1.
    9000005    2    1    2  501    0 -0.18859019541E+01 -0.89744775837E+01 -0.95882916146E+03  0.10146520169E+04  0.33178495539E+03 0.  0.
         13    1    3    3    0    0 -0.14761275920E+03 -0.44157550036E+02 -0.68857661078E+03  0.70560411338E+03  0.00000000000E+00 0.  1.
          3    1    3    3  501    0  0.14572685725E+03  0.35183072452E+02 -0.27025255068E+03  0.30904790350E+03  0.00000000000E+00 0.  1.
         21    1    1    2  502  501  0.18859019541E+01  0.89744775837E+01 -0.11673784678E+02  0.14845036975E+02  0.00000000000E+00 0. -1.
<mgrwt>
<rscale>  1 0.30000000E+03</rscale>
<asrwt>0</asrwt>
<pdfrwt beam="1">  1        1 0.10726224E+00 0.30000000E+03</pdfrwt>
<pdfrwt beam="2">0</pdfrwt>
<totfact> 0.30856531E+01</totfact>
</mgrwt>
</event>
<event>
 6    1  0.1969531E-004  0.3000000E+03  0.7818608E-02  0.1093470E+00
          1   -1    0    0  502    0  0.00000000000E+00  0.00000000000E+00  0.52583374163E+02  0.52583374163E+02  0.00000000000E+00 0.  1.
         13   -1    0    0    0    0 -0.00000000000E+00 -0.00000000000E+00 -0.10000000000E+04  0.10000000000E+04  0.00000000000E+00 0.  1.
    9000005    2    1    2  501    0 -0.35392659063E+02  0.21900786460E+00 -0.95936206577E+03  0.10152285644E+04  0.33024351071E+03 0.  0.
         13    1    3    3    0    0 -0.38000971678E+01  0.11558228144E+03 -0.11732562063E+03  0.16473920534E+03  0.00000000000E+00 0.  1.
          1    1    3    3  501    0 -0.31592561896E+02 -0.11536327357E+03 -0.84203644514E+03  0.85048935902E+03  0.00000000000E+00 0.  1.
         21    1    1    2  502  501  0.35392659063E+02 -0.21900786460E+00  0.11945439937E+02  0.37354809801E+02  0.00000000000E+00 0. -1.
<mgrwt>
<rscale>  1 0.30000000E+03</rscale>
<asrwt>0</asrwt>
<pdfrwt beam="1">  1        1 0.19121267E+00 0.30000000E+03</pdfrwt>
<pdfrwt beam="2">0</pdfrwt>
<totfact> 0.11281859E+01</totfact>
</mgrwt>
</event>
<event>
 6    1  0.1969531E-004  0.3000000E+03  0.7818608E-02  0.1093470E+00
          1   -1    0    0  502    0  0.00000000000E+00  0.00000000000E+00  0.31865930882E+02  0.31865930882E+02  0.00000000000E+00 0.  1.
         13   -1    0    0    0    0 -0.00000000000E+00 -0.00000000000E+00 -0.10000000000E+04  0.10000000000E+04  0.00000000000E+00 0.  1.
    9000005    2    1    2  501    0 -0.52922595460E+01  0.27586201145E+02 -0.92839010452E+03  0.98319777675E+03  0.32246034722E+03 0.  0.
         13    1    3    3    0    0  0.80450269080E+01 -0.12174698636E+03 -0.16493181789E+03  0.20515739250E+03  0.00000000000E+00 0.  1.
          1    1    3    3  501    0 -0.13337286454E+02  0.14933318750E+03 -0.76345828663E+03  0.77804038425E+03  0.00000000000E+00 0.  1.
         21    1    1    2  502  501  0.52922595460E+01 -0.27586201145E+02 -0.39743964598E+02  0.48668154133E+02  0.00000000000E+00 0.  1.
<mgrwt>
<rscale>  1 0.30000000E+03</rscale>
<asrwt>0</asrwt>
<pdfrwt beam="1">  1        1 0.11587636E+00 0.30000000E+03</pdfrwt>
<pdfrwt beam="2">0</pdfrwt>
<totfact> 0.27444119E+01</totfact>
</mgrwt>
</event>
<event>
 6    1  0.1969531E-004  0.3000000E+03  0.7818608E-02  0.1093470E+00
          1   -1    0    0  502    0  0.00000000000E+00  0.00000000000E+00  0.40351401065E+02  0.40351401065E+02  0.00000000000E+00 0.  1.
         13   -1    0    0    0    0 -0.00000000000E+00 -0.00000000000E+00 -0.10000000000E+04  0.10000000000E+04  0.00000000000E+00 0.  1.
    9000005    2    1    2  501    0  0.91559256855E+01 -0.75426829079E+01 -0.97229718172E+03  0.10230104182E+04  0.31788013953E+03 0.  0.
         13    1    3    3    0    0 -0.10484801120E+03  0.46592735621E+02 -0.80662579065E+03  0.81474484018E+03  0.00000000000E+00 0.  1.
          1    1    3    3  501    0  0.11400393688E+03 -0.54135418529E+02 -0.16567139107E+03  0.20826557801E+03  0.00000000000E+00 0.  1.
         21    1    1    2  502  501 -0.91559256855E+01  0.75426829079E+01  0.12648582785E+02  0.17340982875E+02  0.00000000000E+00 0.  1.
<mgrwt>
<rscale>  1 0.30000000E+03</rscale>
<asrwt>0</asrwt>
<pdfrwt beam="1">  1        1 0.14673268E+00 0.30000000E+03</pdfrwt>
<pdfrwt beam="2">0</pdfrwt>
<totfact> 0.18668876E+01</totfact>
</mgrwt>
</event>
<event>
 6    1  0.1969531E-004  0.3000000E+03  0.7818608E-02  0.1093470E+00
          1   -1    0    0  502    0  0.00000000000E+00  0.00000000000E+00  0.30467593836E+02  0.30467593836E+02  0.00000000000E+00 0.  1.
         13   -1    0    0    0    0 -0.00000000000E+00 -0.00000000000E+00 -0.10000000000E+04  0.10000000000E+04  0.00000000000E+00 0.  1.
    9000005    2    1    2  501    0  0.30950246541E+02  0.91669401674E+01 -0.91785818476E+03  0.96953996700E+03  0.31064795146E+03 0.  0.
         13    1    3    3    0    0 -0.23426411444E+02 -0.92474948510E+02 -0.82072518394E+02  0.12584240593E+03  0.00000000000E+00 0.  1.
          1    1    3    3  501    0  0.54376657986E+02  0.10164188868E+03 -0.83578566636E+03  0.84369756107E+03  0.00000000000E+00 0.  1.
         21    1    1    2  502  501 -0.30950246541E+02 -0.91669401674E+01 -0.51674221409E+02  0.60927626831E+02  0.00000000000E+00 0.  1.
<mgrwt>
<rscale>  1 0.30000000E+03</rscale>
<asrwt>0</asrwt>
<pdfrwt beam="1">  1        1 0.11079148E+00 0.30000000E+03</pdfrwt>
<pdfrwt beam="2">0</pdfrwt>
<totfact> 0.29389389E+01</totfact>
</mgrwt>
</event>
<event>
 6    1  0.1969531E-004  0.3000000E+03  0.7818608E-02  0.1093470E+00
          1   -1    0    0  502    0  0.00000000000E+00  0.00000000000E+00  0.41234901288E+02  0.41234901288E+02  0.00000000000E+00 0.  1.
         13   -1    0    0    0    0 -0.00000000000E+00 -0.00000000000E+00 -0.10000000000E+04  0.10000000000E+04  0.00000000000E+00 0.  1.
    9000005    2    1    2  501    0 -0.43085839365E+02  0.39225665436E+01 -0.93291962116E+03  0.99083882215E+03  0.33098455533E+03 0.  0.
         13    1    3    3    0    0 -0.65423935448E+02 -0.15619668789E+03 -0.41324553386E+03  0.44659776969E+03  0.00000000000E+00 0.  1.
          1    1    3    3  501    0  0.22338096083E+02  0.16011925443E+03 -0.51967408730E+03  0.54424105247E+03  0.00000000000E+00 0.  1.
         21    1    1    2  502  501  0.43085839365E+02 -0.39225665436E+01 -0.25845477553E+02  0.50396079134E+02  0.00000000000E+00 0.  1.
<mgrwt>
<rscale>  1 0.30000000E+03</rscale>
<asrwt>0</asrwt>
<pdfrwt beam="1">  1        1 0.14994541E+00 0.30000000E+03</pdfrwt>
<pdfrwt beam="2">0</pdfrwt>
<totfact> 0.17976441E+01</totfact>
</mgrwt>
</event>
<event>
 6    1  0.1969531E-004  0.3000000E+03  0.7818608E-02  0.1093470E+00
          1   -1    0    0  502    0  0.00000000000E+00  0.00000000000E+00  0.38765695473E+02  0.38765695473E+02  0.00000000000E+00 0.  1.
         13   -1    0    0    0    0 -0.00000000000E+00 -0.00000000000E+00 -0.10000000000E+04  0.10000000000E+04  0.00000000000E+00 0.  1.
    9000005    2    1    2  501    0  0.21086856509E+02 -0.35627586680E+01 -0.96347297509E+03  0.10172631279E+04  0.32570960819E+03 0.  0.
         13    1    3    3    0    0  0.11506263455E+03 -0.10083556127E+03 -0.26655111955E+03  0.30733811938E+03  0.00000000000E+00 0.  1.
          1    1    3    3  501    0 -0.93975778046E+02  0.97272802603E+02 -0.69692185554E+03  0.70992500851E+03  0.00000000000E+00 0.  1.
         21    1    1    2  502  501 -0.21086856509E+02  0.35627586680E+01  0.22386705638E+01  0.21502567582E+02  0.00000000000E+00 0.  1.
<mgrwt>
<rscale>  1 0.30000000E+03</rscale>
<asrwt>0</asrwt>
<pdfrwt beam="1">  1        1 0.14096646E+00 0.30000000E+03</pdfrwt>
<pdfrwt beam="2">0</pdfrwt>
<totfact> 0.19997884E+01</totfact>
</mgrwt>
</event>
<event>
 6    1  0.1969531E-004  0.3000000E+03  0.7818608E-02  0.1093470E+00
          1   -1    0    0  502    0  0.00000000000E+00  0.00000000000E+00  0.33871941683E+02  0.33871941683E+02  0.00000000000E+00 0.  1.
         13   -1    0    0    0    0 -0.00000000000E+00 -0.00000000000E+00 -0.10000000000E+04  0.10000000000E+04  0.00000000000E+00 0.  1.
    9000005    2    1    2  501    0 -0.29227303665E+02 -0.24522979004E+01 -0.93706564389E+03  0.99258183419E+03  0.32598531801E+03 0.  0.
         13    1    3    3    0    0  0.88848399444E+01 -0.14101318907E+03 -0.22149487055E+03  0.26272350019E+03  0.00000000000E+00 0.  1.
          3    1    3    3  501    0 -0.38112143610E+02  0.13856089117E+03 -0.71557077334E+03  0.72985833400E+03  0.00000000000E+00 0.  1.
         21    1    1    2  502  501  0.29227303665E+02  0.24522979004E+01 -0.29062414425E+02  0.41290107492E+02  0.00000000000E+00 0. -1.
<mgrwt>
<rscale>  1 0.30000000E+03</rscale>
<asrwt>0</asrwt>
<pdfrwt beam="1">  1        1 0.12317096E+00 0.30000000E+03</pdfrwt>
<pdfrwt beam="2">0</pdfrwt>
<totfact> 0.24951561E+01</totfact>
</mgrwt>
</event>
<event>
 6    1  0.1969531E-004  0.3000000E+03  0.7818608E-02  0.1093470E+00
          3   -1    0    0  502    0  0.00000000000E+00  0.00000000000E+00  0.34210195767E+02  0.34210195767E+02  0.00000000000E+00 0.  1.
         13   -1    0    0    0    0 -0.00000000000E+00 -0.00000000000E+00 -0.10000000000E+04  0.10000000000E+04  0.00000000000E+00 0.  1.
    9000005    2    1    2  501    0 -0.38258717309E+01 -0.30766336151E+02 -0.93235329746E+03  0.98861189843E+03  0.32727604511E+03 0.  0.
         13    1    3    3    0    0  0.13231362892E+03  0.25461569170E+02 -0.70468193165E+03  0.71744812544E+03  0.00000000000E+00 0.  1.
          3    1    3    3  501    0 -0.13613950065E+03 -0.56227905321E+02 -0.22767136581E+03  0.27116377299E+03  0.00000000000E+00 0.  1.
         21    1    1    2  502  501  0.38258717309E+01  0.30766336151E+02 -0.33436506771E+02  0.45598297334E+02  0.00000000000E+00 0. -1.
<mgrwt>
<rscale>  1 0.30000000E+03</rscale>
<asrwt>0</asrwt>
<pdfrwt beam="1">  1        3 0.12440097E+00 0.30000000E+03</pdfrwt>
<pdfrwt beam="2">0</pdfrwt>
<totfact> 0.20561463E+00</totfact>
</mgrwt>
</event>
<event>
 6    1  0.1969531E-004  0.3000000E+03  0.7818608E-02  0.1093470E+00
          3   -1    0    0  502    0  0.00000000000E+00  0.00000000000E+00  0.25639227044E+02  0.25639227044E+02  0.00000000000E+00 0.  1.
         13   -1    0    0    0    0 -0.00000000000E+00 -0.00000000000E+00 -0.10000000000E+04  0.10000000000E+04  0.00000000000E+00 0.  1.
    9000005    2    1    2  501    0 -0.64602877014E+01  0.12696014021E+02 -0.97514592868E+03  0.10113724629E+04  0.26788384130E+03 0.  0.
         13    1    3    3    0    0 -0.85377263506E+02  0.10498400286E+03 -0.36535815250E+03  0.38961198336E+03  0.00000000000E+00 0.  1.
          1    1    3    3  501    0  0.78916975804E+02 -0.92287988841E+02 -0.60978777618E+03  0.62176047955E+03  0.00000000000E+00 0.  1.
         21    1    1    2  502  501  0.64602877014E+01 -0.12696014021E+02  0.78515572617E+00  0.14266764129E+02  0.00000000000E+00 0. -1.
<mgrwt>
<rscale>  1 0.30000000E+03</rscale>
<asrwt>0</asrwt>
<pdfrwt beam="1">  1        3 0.93233749E-01 0.30000000E+03</pdfrwt>
<pdfrwt beam="2">0</pdfrwt>
<totfact> 0.46811857E+00</totfact>
</mgrwt>
</event>
<event>
 6    1  0.1969531E-004  0.3000000E+03  0.7818608E-02  0.1093470E+00
          1   -1    0    0  502    0  0.00000000000E+00  0.00000000000E+00  0.35440266740E+02  0.35440266740E+02  0.00000000000E+00 0.  1.
         13   -1    0    0    0    0 -0.00000000000E+00 -0.00000000000E+00 -0.10000000000E+04  0.10000000000E+04  0.00000000000E+00 0.  1.
    9000005    2    1    2  501    0 -0.10159249506E+02  0.29677850339E+02 -0.94770434956E+03  0.99983002789E+03  0.31706870762E+03 0.  0.
         13    1    3    3    0    0  0.42295312099E+00 -0.10553373518E+03 -0.76523215456E+03  0.77247511191E+03  0.00000000000E+00 0.  1.
          3    1    3    3  501    0 -0.10582202627E+02  0.13521158552E+03 -0.18247219500E+03  0.22735491598E+03  0.00000000000E+00 0.  1.
         21    1    1    2  502  501  0.10159249506E+02 -0.29677850339E+02 -0.16855383703E+02  0.35610238851E+02  0.00000000000E+00 0. -1.
<mgrwt>
<rscale>  1 0.30000000E+03</rscale>
<asrwt>0</asrwt>
<pdfrwt beam="1">  1        1 0.12887397E+00 0.30000000E+03</pdfrwt>
<pdfrwt beam="2">0</pdfrwt>
<totfact> 0.23205761E+01</totfact>
</mgrwt>
</event>
<event>
 6    1  0.1969531E-004  0.3000000E+03  0.7818608E-02  0.1093470E+00
          1   -1    0    0  502    0  0.00000000000E+00  0.00000000000E+00  0.67167175346E+02  0.67167175346E+02  0.00000000000E+00 0.  1.
         13   -1    0    0    0    0 -0.00000000000E+00 -0.00000000000E+00 -0.10000000000E+04  0.10000000000E+04  0.00000000000E+00 0.  1.
    9000005    2    1    2  501    0  0.77290048264E+02 -0.12684885542E+01 -0.93272323256E+03  0.98986664084E+03  0.32231657957E+03 0.  0.
         13    1    3    3    0    0 -0.81378210729E+02  0.10059483459E+03 -0.24887277964E+03  0.28049847482E+03  0.00000000000E+00 0.  1.
          3    1    3    3  501    0  0.15866825899E+03 -0.10186332314E+03 -0.68385045292E+03  0.70936816603E+03  0.00000000000E+00 0.  1.
         21    1    1    2  502  501 -0.77290048264E+02  0.12684885542E+01 -0.10959209029E+00  0.77300534502E+02  0.00000000000E+00 0.  1.
<mgrwt>
<rscale>  1 0.30000000E+03</rscale>
<asrwt>0</asrwt>
<pdfrwt beam="1">  1        1 0.24424479E+00 0.30000000E+03</pdfrwt>
<pdfrwt beam="2">0</pdfrwt>
<totfact> 0.63465251E+00</totfact>
</mgrwt>
</event>
<event>
 6    1  0.1969531E-004  0.3000000E+03  0.7818608E-02  0.1093470E+00
          1   -1    0    0  502    0  0.00000000000E+00  0.00000000000E+00  0.32648385807E+02  0.32648385807E+02  0.00000000000E+00 0.  1.
         13   -1    0    0    0    0 -0.00000000000E+00 -0.00000000000E+00 -0.10000000000E+04  0.10000000000E+04  0.00000000000E+00 0.  1.
    9000005    2    1    2  501    0  0.20042980499E+02 -0.12129454135E+02 -0.94495830045E+03  0.10002399729E+04  0.32708556851E+03 0.  0.
         13    1    3    3    0    0  0.32872946312E+01 -0.37541642475E+02  0.14441348964E+02  0.40357574080E+02  0.00000000000E+00 0.  1.
          3    1    3    3  501    0  0.16755685868E+02  0.25412188339E+02 -0.95939964941E+03  0.95988239885E+03  0.00000000000E+00 0.  1.
         21    1    1    2  502  501 -0.20042980499E+02  0.12129454135E+02 -0.22393313746E+02  0.32408412881E+02  0.00000000000E+00 0.  1.
<mgrwt>
<rscale>  1 0.30000000E+03</rscale>
<asrwt>0</asrwt>
<pdfrwt beam="1">  1        1 0.11872165E+00 0.30000000E+03</pdfrwt>
<pdfrwt beam="2">0</pdfrwt>
<totfact> 0.26433565E+01</totfact>
</mgrwt>
</event>
<event>
 6    1  0.1969531E-004  0.3000000E+03  0.7818608E-02  0.1093470E+00
          1   -1    0    0  502    0  0.00000000000E+00  0.00000000000E+00  0.29019947066E+02  0.29019947066E+02  0.00000000000E+00 0.  1.
         13   -1    0    0    0    0 -0.00000000000E+00 -0.00000000000E+00 -0.10000000000E+04  0.10000000000E+04  0.00000000000E+00 0.  1.
    9000005    2    1    2  501    0  0.44286760548E+01 -0.10569330409E+02 -0.94885017282E+03  0.10040989617E+04  0.32827846494E+03 0.  0.
         13    1    3    3    0    0 -0.28504759415E+02 -0.14111279453E+03 -0.21999108254E+03  0.26290952528E+03  0.00000000000E+00 0.  1.
          1    1    3    3  501    0  0.32933435470E+02  0.13054346412E+03 -0.72885909028E+03  0.74118943643E+03  0.00000000000E+00 0.  1.
         21    1    1    2  502  501 -0.44286760548E+01  0.10569330409E+02 -0.22129880117E+02  0.24920985351E+02  0.00000000000E+00 0.  1.
<mgrwt>
<rscale>  1 0.30000000E+03</rscale>
<asrwt>0</asrwt>
<pdfrwt beam="1">  1        1 0.10552730E+00 0.30000000E+03</pdfrwt>
<pdfrwt beam="2">0</pdfrwt>
<totfact> 0.31616424E+01</totfact>
</mgrwt>
</event>
<event>
 6    1  0.1969531E-004  0.3000000E+03  0.7818608E-02  0.1093470E+00
          1   -1    0    0  502    0  0.00000000000E+00  0.00000000000E+00  0.35774108219E+02  0.35774108219E+02  0.00000000000E+00 0.  1.
         13   -1    0    0    0    0 -0.00000000000E+00 -0.00000000000E+00 -0.10000000000E+04  0.10000000000E+04  0.00000000000E+00 0.  1.
    9000005    2    1    2  501    0 -0.55450001703E+01  0.10061057447E+02 -0.96783023831E+03  0.10237340410E+04  0.33347270455E+03 0.  0.
         13    1    3    3    0    0 -0.57423543815E+02 -0.14590650259E+03 -0.33458503091E+03  0.36950414583E+03  0.00000000000E+00 0.  1.
          3    1    3    3  501    0  0.51878543645E+02  0.15596756004E+03 -0.63324520740E+03  0.65422989520E+03  0.00000000000E+00 0.  1.
         21    1    1    2  502  501  0.55450001703E+01 -0.10061057447E+02  0.36043465299E+01  0.12040067182E+02  0.00000000000E+00 0.  1.
<mgrwt>
<rscale>  1 0.30000000E+03</rscale>
<asrwt>0</asrwt>
<pdfrwt beam="1">  1        1 0.13008794E+00 0.30000000E+03</pdfrwt>
<pdfrwt beam="2">0</pdfrwt>
<totfact> 0.22854572E+01</totfact>
</mgrwt>
</event>
<event>
 6    1  0.1969531E-004  0.3000000E+03  0.7818608E-02  0.1093470E+00
          1   -1    0    0  502    0  0.00000000000E+00  0.00000000000E+00  0.87815020907E+02  0.87815020907E+02  0.00000000000E+00 0.  1.
         13   -1    0    0    0    0 -0.00000000000E+00 -0.00000000000E+00 -0.10000000000E+04  0.10000000000E+04  0.00000000000E+00 0.  1.
    9000005    2    1    2  501    0 -0.10960644771E+03  0.92051730367E+02 -0.87824220969E+03  0.94071231516E+03  0.30519368699E+03 0.  0.
         13    1    3    3    0    0 -0.22032105636E+02  0.18296140483E+03 -0.32845670628E+03  0.37662195533E+03  0.00000000000E+00 0.  1.
          1    1    3    3  501    0 -0.87574342072E+02 -0.90909674459E+02 -0.54978550341E+03  0.56409035983E+03  0.00000000000E+00 0.  1.
         21    1    1    2  502  501  0.10960644771E+03 -0.92051730367E+02 -0.33942769405E+02  0.14710270575E+03  0.00000000000E+00 0.  1.
<mgrwt>
<rscale>  1 0.30000000E+03</rscale>
<asrwt>0</asrwt>
<pdfrwt beam="1">  1        1 0.31932802E+00 0.30000000E+03</pdfrwt>
<pdfrwt beam="2">0</pdfrwt>
<totfact> 0.28056433E+00</totfact>
</mgrwt>
</event>
<event>
 6    1  0.1969531E-004  0.3000000E+03  0.7818608E-02  0.1093470E+00
          1   -1    0    0  502    0  0.00000000000E+00  0.00000000000E+00  0.79463885760E+02  0.79463885760E+02  0.00000000000E+00 0.  1.
         13   -1    0    0    0    0 -0.00000000000E+00 -0.00000000000E+00 -0.10000000000E+04  0.10000000000E+04  0.00000000000E+00 0.  1.
    9000005    2    1    2  501    0  0.54245810783E+01  0.35370099163E+02 -0.96303634359E+03  0.10239054526E+04  0.34592326734E+03 0.  0.
         13    1    3    3    0    0 -0.17912935350E+02  0.17963595153E+03 -0.70099363762E+03  0.72386602926E+03  0.00000000000E+00 0.  1.
          1    1    3    3  501    0  0.23337516428E+02 -0.14426585237E+03 -0.26204270598E+03  0.30003942339E+03  0.00000000000E+00 0.  1.
         21    1    1    2  502  501 -0.54245810783E+01 -0.35370099163E+02  0.42500229355E+02  0.55558433112E+02  0.00000000000E+00 0.  1.
<mgrwt>
<rscale>  1 0.30000000E+03</rscale>
<asrwt>0</asrwt>
<pdfrwt beam="1">  1        1 0.28896019E+00 0.30000000E+03</pdfrwt>
<pdfrwt beam="2">0</pdfrwt>
<totfact> 0.39186931E+00</totfact>
</mgrwt>
</event>
<event>
 6    1  0.1969531E-004  0.3000000E+03  0.7818608E-02  0.1093470E+00
          1   -1    0    0  502    0  0.00000000000E+00  0.00000000000E+00  0.27527462441E+02  0.27527462441E+02  0.00000000000E+00 0.  1.
         13   -1    0    0    0    0 -0.00000000000E+00 -0.00000000000E+00 -0.10000000000E+04  0.10000000000E+04  0.00000000000E+00 0.  1.
    9000005    2    1    2  501    0  0.11407485434E+02 -0.51420812134E+01 -0.93253951398E+03  0.98567990462E+03  0.31902720499E+03 0.  0.
         13    1    3    3    0    0 -0.10627396183E+03  0.57307832770E+02 -0.15332600543E+03  0.19515943892E+03  0.00000000000E+00 0.  1.
          3    1    3    3  501    0  0.11768144726E+03 -0.62449913984E+02 -0.77921350855E+03  0.79052046570E+03  0.00000000000E+00 0.  1.
         21    1    1    2  502  501 -0.11407485434E+02  0.51420812134E+01 -0.39933023583E+02  0.41847557821E+02  0.00000000000E+00 0.  1.
<mgrwt>
<rscale>  1 0.30000000E+03</rscale>
<asrwt>0</asrwt>
<pdfrwt beam="1">  1        1 0.10010007E+00 0.30000000E+03</pdfrwt>
<pdfrwt beam="2">0</pdfrwt>
<totfact> 0.34176922E+01</totfact>
</mgrwt>
</event>
<event>
 6    1  0.1969531E-004  0.3000000E+03  0.7818608E-02  0.1093470E+00
          1   -1    0    0  502    0  0.00000000000E+00  0.00000000000E+00  0.28827513075E+02  0.28827513075E+02  0.00000000000E+00 0.  1.
         13   -1    0    0    0    0 -0.00000000000E+00 -0.00000000000E+00 -0.10000000000E+04  0.10000000000E+04  0.00000000000E+00 0.  1.
    9000005    2    1    2  501    0 -0.16502558160E+02 -0.35577693145E+01 -0.94491625550E+03  0.99761242318E+03  0.31949776968E+03 0.  0.
         13    1    3    3    0    0  0.20510046289E+02 -0.15890212442E+03 -0.48010345574E+03  0.50613227062E+03  0.00000000000E+00 0.  1.
          1    1    3    3  501    0 -0.37012604449E+02  0.15534435510E+03 -0.46481279975E+03  0.49148015256E+03  0.00000000000E+00 0.  1.
         21    1    1    2  502  501  0.16502558160E+02  0.35577693145E+01 -0.26256231428E+02  0.31215089895E+02  0.00000000000E+00 0. -1.
<mgrwt>
<rscale>  1 0.30000000E+03</rscale>
<asrwt>0</asrwt>
<pdfrwt beam="1">  1        1 0.10482754E+00 0.30000000E+03</pdfrwt>
<pdfrwt beam="2">0</pdfrwt>
<totfact> 0.31930566E+01</totfact>
</mgrwt>
</event>
<event>
 6    1  0.1969531E-004  0.3000000E+03  0.7818608E-02  0.1093470E+00
          1   -1    0    0  502    0  0.00000000000E+00  0.00000000000E+00  0.31660639533E+02  0.31660639533E+02  0.00000000000E+00 0.  1.
         13   -1    0    0    0    0 -0.00000000000E+00 -0.00000000000E+00 -0.10000000000E+04  0.10000000000E+04  0.00000000000E+00 0.  1.
    9000005    2    1    2  501    0 -0.11284061571E+02  0.28765069792E-01 -0.96017700224E+03  0.10177338680E+04  0.33721657672E+03 0.  0.
         13    1    3    3    0    0 -0.51303699449E+02 -0.81610913361E-01  0.51646161912E+01  0.51563063310E+02  0.00000000000E+00 0.  1.
          1    1    3    3  501    0  0.40019637878E+02  0.11037598315E+00 -0.96534161843E+03  0.96617080471E+03  0.00000000000E+00 0.  1.
         21    1    1    2  502  501  0.11284061571E+02 -0.28765069792E-01 -0.81623582298E+01  0.13926771516E+02  0.00000000000E+00 0.  1.
<mgrwt>
<rscale>  1 0.30000000E+03</rscale>
<asrwt>0</asrwt>
<pdfrwt beam="1">  1        1 0.11512984E+00 0.30000000E+03</pdfrwt>
<pdfrwt beam="2">0</pdfrwt>
<totfact> 0.27718088E+01</totfact>
</mgrwt>
</event>
<event>
 6    1  0.1969531E-004  0.3000000E+03  0.7818608E-02  0.1093470E+00
          1   -1    0    0  502    0  0.00000000000E+00  0.00000000000E+00  0.33141542259E+02  0.33141542259E+02  0.00000000000E+00 0.  1.
         13   -1    0    0    0    0 -0.00000000000E+00 -0.00000000000E+00 -0.10000000000E+04  0.10000000000E+04  0.00000000000E+00 0.  1.
    9000005    2    1    2  501    0 -0.14361686115E+02 -0.16511458759E+02 -0.94278502153E+03  0.10006082266E+04  0.33450611350E+03 0.  0.
         13    1    3    3    0    0 -0.58214803032E+02 -0.16358007781E+03 -0.38978281291E+03  0.42670604213E+03  0.00000000000E+00 0.  1.
          1    1    3    3  501    0  0.43853116917E+02  0.14706861905E+03 -0.55300220862E+03  0.57390218445E+03  0.00000000000E+00 0.  1.
         21    1    1    2  502  501  0.14361686115E+02  0.16511458759E+02 -0.24073436210E+02  0.32533315684E+02  0.00000000000E+00 0.  1.
<mgrwt>
<rscale>  1 0.30000000E+03</rscale>
<asrwt>0</asrwt>
<pdfrwt beam="1">  1        1 0.12051495E+00 0.30000000E+03</pdfrwt>
<pdfrwt beam="2">0</pdfrwt>
<totfact> 0.25822515E+01</totfact>
</mgrwt>
</event>
<event>
 6    1  0.1969531E-004  0.3000000E+03  0.7818608E-02  0.1093470E+00
          1   -1    0    0  502    0  0.00000000000E+00  0.00000000000E+00  0.94953806893E+02  0.94953806893E+02  0.00000000000E+00 0.  1.
         13   -1    0    0    0    0 -0.00000000000E+00 -0.00000000000E+00 -0.10000000000E+04  0.10000000000E+04  0.00000000000E+00 0.  1.
    9000005    2    1    2  501    0  0.64717612032E+02 -0.12677261538E+03 -0.87693964756E+03  0.94986885516E+03  0.33610717223E+03 0.  0.
         13    1    3    3    0    0  0.11075640715E+02  0.11368670221E+03 -0.21304255921E+03  0.24173222398E+03  0.00000000000E+00 0.  1.
          1    1    3    3  501    0  0.53641971317E+02 -0.24045931758E+03 -0.66389708835E+03  0.70813663118E+03  0.00000000000E+00 0.  1.
         21    1    1    2  502  501 -0.64717612032E+02  0.12677261538E+03 -0.28106545547E+02  0.14508495173E+03  0.00000000000E+00 0. -1.
<mgrwt>
<rscale>  1 0.30000000E+03</rscale>
<asrwt>0</asrwt>
<pdfrwt beam="1">  1        1 0.34528730E+00 0.30000000E+03</pdfrwt>
<pdfrwt beam="2">0</pdfrwt>
<totfact> 0.20812095E+00</totfact>
</mgrwt>
</event>
<event>
 6    1  0.1969531E-004  0.3000000E+03  0.7818608E-02  0.1093470E+00
          1   -1    0    0  502    0  0.00000000000E+00  0.00000000000E+00  0.34097162605E+02  0.34097162605E+02  0.00000000000E+00 0.  1.
         13   -1    0    0    0    0 -0.00000000000E+00 -0.00000000000E+00 -0.10000000000E+04  0.10000000000E+04  0.00000000000E+00 0.  1.
    9000005    2    1    2  501    0 -0.11870440641E+02 -0.24697194741E+02 -0.94631257876E+03  0.10004127890E+04  0.32336881879E+03 0.  0.
         13    1    3    3    0    0  0.10688018084E+03 -0.82716906584E+01 -0.81729818882E+03  0.82429856446E+03  0.00000000000E+00 0.  1.
          3    1    3    3  501    0 -0.11875062149E+03 -0.16425504082E+02 -0.12901438995E+03  0.17611422458E+03  0.00000000000E+00 0.  1.
         21    1    1    2  502  501  0.11870440641E+02  0.24697194741E+02 -0.19590258631E+02  0.33684373562E+02  0.00000000000E+00 0. -1.
<mgrwt>
<rscale>  1 0.30000000E+03</rscale>
<asrwt>0</asrwt>
<pdfrwt beam="1">  1        1 0.12398994E+00 0.30000000E+03</pdfrwt>
<pdfrwt beam="2">0</pdfrwt>
<totfact> 0.24690771E+01</totfact>
</mgrwt>
</event>
<event>
 6    1  0.1969531E-004  0.3000000E+03  0.7818608E-02  0.1093470E+00
          1   -1    0    0  502    0  0.00000000000E+00  0.00000000000E+00  0.53699488573E+02  0.53699488573E+02  0.00000000000E+00 0.  1.
         13   -1    0    0    0    0 -0.00000000000E+00 -0.00000000000E+00 -0.10000000000E+04  0.10000000000E+04  0.00000000000E+00 0.  1.
    9000005    2    1    2  501    0  0.69983603860E+02 -0.25194912033E+02 -0.91430220468E+03  0.97272801189E+03  0.32360280474E+03 0.  0.
         13    1    3    3    0    0 -0.13463661348E+02  0.14200022142E+03 -0.33720394491E+03  0.36613089671E+03  0.00000000000E+00 0.  1.
          3    1    3    3  501    0  0.83447265208E+02 -0.16719513345E+03 -0.57709825976E+03  0.60659711518E+03  0.00000000000E+00 0.  1.
         21    1    1    2  502  501 -0.69983603860E+02  0.25194912033E+02 -0.31998306752E+02  0.80971476685E+02  0.00000000000E+00 0.  1.
<mgrwt>
<rscale>  1 0.30000000E+03</rscale>
<asrwt>0</asrwt>
<pdfrwt beam="1">  1        1 0.19527128E+00 0.30000000E+03</pdfrwt>
<pdfrwt beam="2">0</pdfrwt>
<totfact> 0.10788481E+01</totfact>
</mgrwt>
</event>
<event>
 6    1  0.1969531E-004  0.3000000E+03  0.7818608E-02  0.1093470E+00
          1   -1    0    0  502    0  0.00000000000E+00  0.00000000000E+00  0.28239982448E+02  0.28239982448E+02  0.00000000000E+00 0.  1.
         13   -1    0    0    0    0 -0.00000000000E+00 -0.00000000000E+00 -0.10000000000E+04  0.10000000000E+04  0.00000000000E+00 0.  1.
    9000005    2    1    2  501    0  0.12037376596E+02  0.50914688966E+01 -0.93341004960E+03  0.98772404074E+03  0.32275941267E+03 0.  0.
         13    1    3    3    0    0 -0.91840947603E+02 -0.21657186489E+02 -0.69530670467E+02  0.11721052649E+03  0.00000000000E+00 0.  1.
          3    1    3    3  501    0  0.10387832420E+03  0.26748655386E+02 -0.86387937914E+03  0.87051351425E+03  0.00000000000E+00 0.  1.
         21    1    1    2  502  501 -0.12037376596E+02 -0.50914688966E+01 -0.38349967950E+02  0.40515941709E+02  0.00000000000E+00 0. -1.
<mgrwt>
<rscale>  1 0.30000000E+03</rscale>
<asrwt>0</asrwt>
<pdfrwt beam="1">  1        1 0.10269106E+00 0.30000000E+03</pdfrwt>
<pdfrwt beam="2">0</pdfrwt>
<totfact> 0.32918201E+01</totfact>
</mgrwt>
</event>
<event>
 6    1  0.1969531E-004  0.3000000E+03  0.7818608E-02  0.1093470E+00
          1   -1    0    0  502    0  0.00000000000E+00  0.00000000000E+00  0.42103631375E+02  0.42103631375E+02  0.00000000000E+00 0.  1.
         13   -1    0    0    0    0 -0.00000000000E+00 -0.00000000000E+00 -0.10000000000E+04  0.10000000000E+04  0.00000000000E+00 0.  1.
    9000005    2    1    2  501    0  0.20590353064E+01  0.14062846541E+02 -0.96981952627E+03  0.10235519477E+04  0.32696585878E+03 0.  0.
         13    1    3    3    0    0  0.75111313849E+02 -0.55963699196E+02 -0.88933316124E+03  0.89425226686E+03  0.00000000000E+00 0.  1.
          3    1    3    3  501    0 -0.73052278542E+02  0.70026545737E+02 -0.80486365026E+02  0.12929968083E+03  0.00000000000E+00 0.  1.
         21    1    1    2  502  501 -0.20590353064E+01 -0.14062846541E+02  0.11923157646E+02  0.18551683683E+02  0.00000000000E+00 0.  1.
<mgrwt>
<rscale>  1 0.30000000E+03</rscale>
<asrwt>0</asrwt>
<pdfrwt beam="1">  1        1 0.15310444E+00 0.30000000E+03</pdfrwt>
<pdfrwt beam="2">0</pdfrwt>
<totfact> 0.17326315E+01</totfact>
</mgrwt>
</event>
<event>
 6    1  0.1969531E-004  0.3000000E+03  0.7818608E-02  0.1093470E+00
          1   -1    0    0  502    0  0.00000000000E+00  0.00000000000E+00  0.34198132761E+02  0.34198132761E+02  0.00000000000E+00 0.  1.
         13   -1    0    0    0    0 -0.00000000000E+00 -0.00000000000E+00 -0.10000000000E+04  0.10000000000E+04  0.00000000000E+00 0.  1.
    9000005    2    1    2  501    0  0.89495052855E+01 -0.82939251868E+01 -0.96928191671E+03  0.10215098080E+04  0.32222037647E+03 0.  0.
         13    1    3    3    0    0 -0.21165247484E+02 -0.71444964405E+02 -0.31134372068E+02  0.80757041575E+02  0.00000000000E+00 0.  1.
          3    1    3    3  501    0  0.30114752769E+02  0.63151039218E+02 -0.93814754465E+03  0.94075276647E+03  0.00000000000E+00 0.  1.
         21    1    1    2  502  501 -0.89495052855E+01  0.82939251868E+01  0.34800494749E+01  0.12688324720E+02  0.00000000000E+00 0.  1.
<mgrwt>
<rscale>  1 0.30000000E+03</rscale>
<asrwt>0</asrwt>
<pdfrwt beam="1">  1        1 0.12435711E+00 0.30000000E+03</pdfrwt>
<pdfrwt beam="2">0</pdfrwt>
<totfact> 0.24574999E+01</totfact>
</mgrwt>
</event>
<event>
 6    1  0.1969531E-004  0.3000000E+03  0.7818608E-02  0.1093470E+00
          1   -1    0    0  502    0  0.00000000000E+00  0.00000000000E+00  0.38381823327E+02  0.38381823327E+02  0.00000000000E+00 0.  1.
         13   -1    0    0    0    0 -0.00000000000E+00 -0.00000000000E+00 -0.10000000000E+04  0.10000000000E+04  0.00000000000E+00 0.  1.
    9000005    2    1    2  501    0  0.19369592085E+02  0.12319570434E+02 -0.95920560334E+03  0.10152999382E+04  0.33201147873E+03 0.  0.
         13    1    3    3    0    0 -0.91446656406E+02 -0.19603292417E+02 -0.85429042732E+03  0.85939450444E+03  0.00000000000E+00 0.  1.
          1    1    3    3  501    0  0.11081624849E+03  0.31922862851E+02 -0.10491517602E+03  0.15590543371E+03  0.00000000000E+00 0.  1.
         21    1    1    2  502  501 -0.19369592085E+02 -0.12319570434E+02 -0.24125733291E+01  0.23081885176E+02  0.00000000000E+00 0.  1.
<mgrwt>
<rscale>  1 0.30000000E+03</rscale>
<asrwt>0</asrwt>
<pdfrwt beam="1">  1        1 0.13957056E+00 0.30000000E+03</pdfrwt>
<pdfrwt beam="2">0</pdfrwt>
<totfact> 0.20337485E+01</totfact>
</mgrwt>
</event>
<event>
 6    1  0.1969531E-004  0.3000000E+03  0.7818608E-02  0.1093470E+00
          1   -1    0    0  502    0  0.00000000000E+00  0.00000000000E+00  0.26663243985E+02  0.26663243985E+02  0.00000000000E+00 0.  1.
         13   -1    0    0    0    0 -0.00000000000E+00 -0.00000000000E+00 -0.10000000000E+04  0.10000000000E+04  0.00000000000E+00 0.  1.
    9000005    2    1    2  501    0 -0.68563323909E+01  0.11474596494E+02 -0.95195431545E+03  0.10014464951E+04  0.31064350667E+03 0.  0.
         13    1    3    3    0    0 -0.14389267132E+03  0.50225218889E+02 -0.64951252723E+03  0.66715380274E+03  0.00000000000E+00 0.  1.
          1    1    3    3  501    0  0.13703633893E+03 -0.38750622395E+02 -0.30244178822E+03  0.33429269239E+03  0.00000000000E+00 0.  1.
         21    1    1    2  502  501  0.68563323909E+01 -0.11474596494E+02 -0.21382440563E+02  0.25216748859E+02  0.00000000000E+00 0. -1.
<mgrwt>
<rscale>  1 0.30000000E+03</rscale>
<asrwt>0</asrwt>
<pdfrwt beam="1">  1        1 0.96957455E-01 0.30000000E+03</pdfrwt>
<pdfrwt beam="2">0</pdfrwt>
<totfact> 0.35801019E+01</totfact>
</mgrwt>
</event>
<event>
 6    1  0.1969531E-004  0.3000000E+03  0.7818608E-02  0.1093470E+00
          1   -1    0    0  502    0  0.00000000000E+00  0.00000000000E+00  0.69603967020E+02  0.69603967020E+02  0.00000000000E+00 0.  1.
         13   -1    0    0    0    0 -0.00000000000E+00 -0.00000000000E+00 -0.10000000000E+04  0.10000000000E+04  0.00000000000E+00 0.  1.
    9000005    2    1    2  501    0 -0.62690550189E+02  0.15487948035E+02 -0.94452990130E+03  0.10034998987E+04  0.33272410580E+03 0.  0.
         13    1    3    3    0    0 -0.16305603051E+03  0.13812879140E+02 -0.23183192324E+03  0.28376769610E+03  0.00000000000E+00 0.  1.
          3    1    3    3  501    0  0.10036548032E+03  0.16750688945E+01 -0.71269797806E+03  0.71973220258E+03  0.00000000000E+00 0.  1.
         21    1    1    2  502  501  0.62690550189E+02 -0.15487948035E+02  0.14133868322E+02  0.66104068340E+02  0.00000000000E+00 0.  1.
<mgrwt>
<rscale>  1 0.30000000E+03</rscale>
<asrwt>0</asrwt>
<pdfrwt beam="1">  1        1 0.25310587E+00 0.30000000E+03</pdfrwt>
<pdfrwt beam="2">0</pdfrwt>
<totfact> 0.57706975E+00</totfact>
</mgrwt>
</event>
<event>
 6    1  0.1969531E-004  0.3000000E+03  0.7818608E-02  0.1093470E+00
          1   -1    0    0  502    0  0.00000000000E+00  0.00000000000E+00  0.36316998157E+02  0.36316998157E+02  0.00000000000E+00 0.  1.
         13   -1    0    0    0    0 -0.00000000000E+00 -0.00000000000E+00 -0.10000000000E+04  0.10000000000E+04  0.00000000000E+00 0.  1.
    9000005    2    1    2  501    0  0.94137666235E+01 -0.75904819051E+01 -0.94683540299E+03  0.10155787242E+04  0.36709212791E+03 0.  0.
         13    1    3    3    0    0 -0.17122754579E+03  0.46216406183E+02 -0.50420797583E+03  0.53449089004E+03  0.00000000000E+00 0.  1.
          1    1    3    3  501    0  0.18064131241E+03 -0.53806888088E+02 -0.44262742715E+03  0.48108783421E+03  0.00000000000E+00 0.  1.
         21    1    1    2  502  501 -0.94137666235E+01  0.75904819051E+01 -0.16847598856E+02  0.20738273911E+02  0.00000000000E+00 0.  1.
<mgrwt>
<rscale>  1 0.30000000E+03</rscale>
<asrwt>0</asrwt>
<pdfrwt beam="1">  1        1 0.13206209E+00 0.30000000E+03</pdfrwt>
<pdfrwt beam="2">0</pdfrwt>
<totfact> 0.22298107E+01</totfact>
</mgrwt>
</event>
<event>
 6    1  0.1969531E-004  0.3000000E+03  0.7818608E-02  0.1093470E+00
          1   -1    0    0  502    0  0.00000000000E+00  0.00000000000E+00  0.39652943083E+02  0.39652943083E+02  0.00000000000E+00 0.  1.
         13   -1    0    0    0    0 -0.00000000000E+00 -0.00000000000E+00 -0.10000000000E+04  0.10000000000E+04  0.00000000000E+00 0.  1.
    9000005    2    1    2  501    0  0.33663788168E+02 -0.39297939740E+00 -0.94820883956E+03  0.10038654957E+04  0.32789102618E+03 0.  0.
         13    1    3    3    0    0 -0.48638299755E+01  0.68710170722E+02 -0.91576824955E+03  0.91835517709E+03  0.00000000000E+00 0.  1.
          1    1    3    3  501    0  0.38527618143E+02 -0.69103150119E+02 -0.32440590016E+02  0.85510318657E+02  0.00000000000E+00 0.  1.
         21    1    1    2  502  501 -0.33663788168E+02  0.39297939740E+00 -0.12138217355E+02  0.35787447341E+02  0.00000000000E+00 0.  1.
<mgrwt>
<rscale>  1 0.30000000E+03</rscale>
<asrwt>0</asrwt>
<pdfrwt beam="1">  1        1 0.14419282E+00 0.30000000E+03</pdfrwt>
<pdfrwt beam="2">0</pdfrwt>
<totfact> 0.19240080E+01</totfact>
</mgrwt>
</event>
<event>
 6    1  0.1969531E-004  0.3000000E+03  0.7818608E-02  0.1093470E+00
          1   -1    0    0  502    0  0.00000000000E+00  0.00000000000E+00  0.35235920028E+02  0.35235920028E+02  0.00000000000E+00 0.  1.
         13   -1    0    0    0    0 -0.00000000000E+00 -0.00000000000E+00 -0.10000000000E+04  0.10000000000E+04  0.00000000000E+00 0.  1.
    9000005    2    1    2  501    0 -0.25190188953E+02 -0.40772435682E+02 -0.91901347213E+03  0.96897842801E+03  0.30337517178E+03 0.  0.
         13    1    3    3    0    0 -0.11698562575E+02  0.10171352503E+03 -0.69933410231E+03  0.70678899552E+03  0.00000000000E+00 0.  1.
          1    1    3    3  501    0 -0.13491626378E+02 -0.14248596071E+03 -0.21967936982E+03  0.26218943249E+03  0.00000000000E+00 0.  1.
         21    1    1    2  502  501  0.25190188953E+02  0.40772435682E+02 -0.45750607843E+02  0.66257492022E+02  0.00000000000E+00 0. -1.
<mgrwt>
<rscale>  1 0.30000000E+03</rscale>
<asrwt>0</asrwt>
<pdfrwt beam="1">  1        1 0.12813089E+00 0.30000000E+03</pdfrwt>
<pdfrwt beam="2">0</pdfrwt>
<totfact> 0.23424176E+01</totfact>
</mgrwt>
</event>
<event>
 6    1  0.1969531E-004  0.3000000E+03  0.7818608E-02  0.1093470E+00
          1   -1    0    0  502    0  0.00000000000E+00  0.00000000000E+00  0.62615202471E+02  0.62615202471E+02  0.00000000000E+00 0.  1.
         13   -1    0    0    0    0 -0.00000000000E+00 -0.00000000000E+00 -0.10000000000E+04  0.10000000000E+04  0.00000000000E+00 0.  1.
    9000005    2    1    2  501    0  0.30236158501E+02 -0.14467042690E+02 -0.96225653672E+03  0.10208764433E+04  0.33930450844E+03 0.  0.
         13    1    3    3    0    0  0.36071196890E+02 -0.14289525517E+03 -0.80198455659E+03  0.81541364607E+03  0.00000000000E+00 0.  1.
          1    1    3    3  501    0 -0.58350383892E+01  0.12842821248E+03 -0.16027198013E+03  0.20546279724E+03  0.00000000000E+00 0.  1.
         21    1    1    2  502  501 -0.30236158501E+02  0.14467042690E+02  0.24871739195E+02  0.41738759154E+02  0.00000000000E+00 0.  1.
<mgrwt>
<rscale>  1 0.30000000E+03</rscale>
<asrwt>0</asrwt>
<pdfrwt beam="1">  1        1 0.22769213E+00 0.30000000E+03</pdfrwt>
<pdfrwt beam="2">0</pdfrwt>
<totfact> 0.75868677E+00</totfact>
</mgrwt>
</event>
<event>
 6    1  0.1969531E-004  0.3000000E+03  0.7818608E-02  0.1093470E+00
          1   -1    0    0  502    0  0.00000000000E+00  0.00000000000E+00  0.31617356016E+02  0.31617356016E+02  0.00000000000E+00 0.  1.
         13   -1    0    0    0    0 -0.00000000000E+00 -0.00000000000E+00 -0.10000000000E+04  0.10000000000E+04  0.00000000000E+00 0.  1.
    9000005    2    1    2  501    0  0.14641264483E+02  0.28338865650E+02 -0.93981263463E+03  0.98879559325E+03  0.30569834655E+03 0.  0.
         13    1    3    3    0    0 -0.81219069128E+02  0.98830637323E+01 -0.85666702776E+03  0.86056528432E+03  0.00000000000E+00 0.  1.
          1    1    3    3  501    0  0.95860333611E+02  0.18455801918E+02 -0.83145606876E+02  0.12823030893E+03  0.00000000000E+00 0.  1.
         21    1    1    2  502  501 -0.14641264483E+02 -0.28338865650E+02 -0.28570009352E+02  0.42821762766E+02  0.00000000000E+00 0. -1.
<mgrwt>
<rscale>  1 0.30000000E+03</rscale>
<asrwt>0</asrwt>
<pdfrwt beam="1">  1        1 0.11497245E+00 0.30000000E+03</pdfrwt>
<pdfrwt beam="2">0</pdfrwt>
<totfact> 0.27776339E+01</totfact>
</mgrwt>
</event>
<event>
 6    1  0.1969531E-004  0.3000000E+03  0.7818608E-02  0.1093470E+00
          1   -1    0    0  502    0  0.00000000000E+00  0.00000000000E+00  0.25460600687E+02  0.25460600687E+02  0.00000000000E+00 0.  1.
         13   -1    0    0    0    0 -0.00000000000E+00 -0.00000000000E+00 -0.10000000000E+04  0.10000000000E+04  0.00000000000E+00 0.  1.
    9000005    2    1    2  501    0 -0.27053100094E+02  0.29869936309E+02 -0.90147466957E+03  0.94201877633E+03  0.27040471846E+03 0.  0.
         13    1    3    3    0    0 -0.67952258559E+02  0.24355969510E+02 -0.89767763251E+03  0.90057529091E+03  0.00000000000E+00 0.  1.
          1    1    3    3  501    0  0.40899158466E+02  0.55139667985E+01 -0.37970370589E+01  0.41443485416E+02  0.00000000000E+00 0.  1.
         21    1    1    2  502  501  0.27053100094E+02 -0.29869936309E+02 -0.73064729747E+02  0.83441824362E+02  0.00000000000E+00 0.  1.
<mgrwt>
<rscale>  1 0.30000000E+03</rscale>
<asrwt>0</asrwt>
<pdfrwt beam="1">  1        1 0.92584198E-01 0.30000000E+03</pdfrwt>
<pdfrwt beam="2">0</pdfrwt>
<totfact> 0.38258807E+01</totfact>
</mgrwt>
</event>
<event>
 6    1  0.1969531E-004  0.3000000E+03  0.7818608E-02  0.1093470E+00
          1   -1    0    0  502    0  0.00000000000E+00  0.00000000000E+00  0.31175590605E+02  0.31175590605E+02  0.00000000000E+00 0.  1.
         13   -1    0    0    0    0 -0.00000000000E+00 -0.00000000000E+00 -0.10000000000E+04  0.10000000000E+04  0.00000000000E+00 0.  1.
    9000005    2    1    2  501    0  0.14522968048E+01 -0.10860977654E+02 -0.96690606304E+03  0.10200512904E+04  0.32477258252E+03 0.  0.
         13    1    3    3    0    0 -0.96631350287E+01 -0.16754762194E+03 -0.50846088058E+03  0.53544191924E+03  0.00000000000E+00 0.  1.
          1    1    3    3  501    0  0.11115431833E+02  0.15668664429E+03 -0.45844518247E+03  0.48460937120E+03  0.00000000000E+00 0.  1.
         21    1    1    2  502  501 -0.14522968048E+01  0.10860977654E+02 -0.19183463502E+01  0.11124300172E+02  0.00000000000E+00 0.  1.
<mgrwt>
<rscale>  1 0.30000000E+03</rscale>
<asrwt>0</asrwt>
<pdfrwt beam="1">  1        1 0.11336602E+00 0.30000000E+03</pdfrwt>
<pdfrwt beam="2">0</pdfrwt>
<totfact> 0.28380862E+01</totfact>
</mgrwt>
</event>
<event>
 6    1  0.1969531E-004  0.3000000E+03  0.7818608E-02  0.1093470E+00
          1   -1    0    0  502    0  0.00000000000E+00  0.00000000000E+00  0.62772590931E+02  0.62772590931E+02  0.00000000000E+00 0.  1.
         13   -1    0    0    0    0 -0.00000000000E+00 -0.00000000000E+00 -0.10000000000E+04  0.10000000000E+04  0.00000000000E+00 0.  1.
    9000005    2    1    2  501    0  0.34412422766E+01  0.19209188281E+02 -0.96501417851E+03  0.10288176264E+04  0.35613551987E+03 0.  0.
         13    1    3    3    0    0  0.60578343148E+02  0.17229404302E+03 -0.38324469150E+03  0.42453676693E+03  0.00000000000E+00 0.  1.
          3    1    3    3  501    0 -0.57137100872E+02 -0.15308485473E+03 -0.58176948702E+03  0.60428085943E+03  0.00000000000E+00 0.  1.
         21    1    1    2  502  501 -0.34412422766E+01 -0.19209188281E+02  0.27786769446E+02  0.33954964572E+02  0.00000000000E+00 0.  1.
<mgrwt>
<rscale>  1 0.30000000E+03</rscale>
<asrwt>0</asrwt>
<pdfrwt beam="1">  1        1 0.22826445E+00 0.30000000E+03</pdfrwt>
<pdfrwt beam="2">0</pdfrwt>
<totfact> 0.75401917E+00</totfact>
</mgrwt>
</event>
<event>
 6    1  0.1969531E-004  0.3000000E+03  0.7818608E-02  0.1093470E+00
          1   -1    0    0  502    0  0.00000000000E+00  0.00000000000E+00  0.31151795966E+02  0.31151795966E+02  0.00000000000E+00 0.  1.
         13   -1    0    0    0    0 -0.00000000000E+00 -0.00000000000E+00 -0.10000000000E+04  0.10000000000E+04  0.00000000000E+00 0.  1.
    9000005    2    1    2  501    0  0.12983232808E+02  0.14780529010E+01 -0.95749615631E+03  0.10138423199E+04  0.33302644231E+03 0.  0.
         13    1    3    3    0    0  0.12963892450E+03  0.91345647795E+02 -0.69498221266E+03  0.71284679562E+03  0.00000000000E+00 0.  1.
          1    1    3    3  501    0 -0.11665569170E+03 -0.89867594894E+02 -0.26251394365E+03  0.30099552427E+03  0.00000000000E+00 0.  1.
         21    1    1    2  502  501 -0.12983232808E+02 -0.14780529010E+01 -0.11352047722E+02  0.17309476075E+02  0.00000000000E+00 0. -1.
<mgrwt>
<rscale>  1 0.30000000E+03</rscale>
<asrwt>0</asrwt>
<pdfrwt beam="1">  1        1 0.11327950E+00 0.30000000E+03</pdfrwt>
<pdfrwt beam="2">0</pdfrwt>
<totfact> 0.28413950E+01</totfact>
</mgrwt>
</event>
<event>
 6    1  0.1969531E-004  0.3000000E+03  0.7818608E-02  0.1093470E+00
          1   -1    0    0  502    0  0.00000000000E+00  0.00000000000E+00  0.29181726981E+02  0.29181726981E+02  0.00000000000E+00 0.  1.
         13   -1    0    0    0    0 -0.00000000000E+00 -0.00000000000E+00 -0.10000000000E+04  0.10000000000E+04  0.00000000000E+00 0.  1.
    9000005    2    1    2  501    0 -0.96568283108E+01  0.79068973384E+00 -0.95113221157E+03  0.10072404294E+04  0.33134109200E+03 0.  0.
         13    1    3    3    0    0  0.16703596301E+02  0.16403070185E+03 -0.43120775104E+03  0.46165485575E+03  0.00000000000E+00 0.  1.
          3    1    3    3  501    0 -0.26360424612E+02 -0.16324001212E+03 -0.51992446052E+03  0.54558557367E+03  0.00000000000E+00 0.  1.
         21    1    1    2  502  501  0.96568283108E+01 -0.79068973384E+00 -0.19686061452E+02  0.21941297564E+02  0.00000000000E+00 0.  1.
<mgrwt>
<rscale>  1 0.30000000E+03</rscale>
<asrwt>0</asrwt>
<pdfrwt beam="1">  1        1 0.10611559E+00 0.30000000E+03</pdfrwt>
<pdfrwt beam="2">0</pdfrwt>
<totfact> 0.31355765E+01</totfact>
</mgrwt>
</event>
<event>
 6    1  0.1969531E-004  0.3000000E+03  0.7818608E-02  0.1093470E+00
          1   -1    0    0  502    0  0.00000000000E+00  0.00000000000E+00  0.32962939325E+02  0.32962939325E+02  0.00000000000E+00 0.  1.
         13   -1    0    0    0    0 -0.00000000000E+00 -0.00000000000E+00 -0.10000000000E+04  0.10000000000E+04  0.00000000000E+00 0.  1.
    9000005    2    1    2  501    0 -0.10378334974E+02 -0.12453911482E+02 -0.96072564555E+03  0.10155662813E+04  0.32881346694E+03 0.  0.
         13    1    3    3    0    0  0.48494171723E+02  0.14934883823E+03 -0.46172117782E+03  0.48769171227E+03  0.00000000000E+00 0.  1.
          3    1    3    3  501    0 -0.58872506698E+02 -0.16180274971E+03 -0.49900446773E+03  0.52787456907E+03  0.00000000000E+00 0.  1.
         21    1    1    2  502  501  0.10378334974E+02  0.12453911482E+02 -0.63114151273E+01  0.17396657982E+02  0.00000000000E+00 0.  1.
<mgrwt>
<rscale>  1 0.30000000E+03</rscale>
<asrwt>0</asrwt>
<pdfrwt beam="1">  1        1 0.11986549E+00 0.30000000E+03</pdfrwt>
<pdfrwt beam="2">0</pdfrwt>
<totfact> 0.26041600E+01</totfact>
</mgrwt>
</event>
<event>
 6    1  0.1969531E-004  0.3000000E+03  0.7818608E-02  0.1093470E+00
          1   -1    0    0  502    0  0.00000000000E+00  0.00000000000E+00  0.47820505148E+02  0.47820505148E+02  0.00000000000E+00 0.  1.
         13   -1    0    0    0    0 -0.00000000000E+00 -0.00000000000E+00 -0.10000000000E+04  0.10000000000E+04  0.00000000000E+00 0.  1.
    9000005    2    1    2  501    0 -0.14483470697E+02 -0.13018680059E+02 -0.96971408910E+03  0.10216151822E+04  0.32089392175E+03 0.  0.
         13    1    3    3    0    0  0.13900003757E+03 -0.72402588601E+02 -0.49044341622E+03  0.51487657725E+03  0.00000000000E+00 0.  1.
          3    1    3    3  501    0 -0.15348350827E+03  0.59383908542E+02 -0.47927067287E+03  0.50673860498E+03  0.00000000000E+00 0.  1.
         21    1    1    2  502  501  0.14483470697E+02  0.13018680059E+02  0.17534594245E+02  0.26205322918E+02  0.00000000000E+00 0.  1.
<mgrwt>
<rscale>  1 0.30000000E+03</rscale>
<asrwt>0</asrwt>
<pdfrwt beam="1">  1        1 0.17389311E+00 0.30000000E+03</pdfrwt>
<pdfrwt beam="2">0</pdfrwt>
<totfact> 0.13676286E+01</totfact>
</mgrwt>
</event>
<event>
 6    1  0.1969531E-004  0.3000000E+03  0.7818608E-02  0.1093470E+00
          1   -1    0    0  502    0  0.00000000000E+00  0.00000000000E+00  0.37428500797E+02  0.37428500797E+02  0.00000000000E+00 0.  1.
         13   -1    0    0    0    0 -0.00000000000E+00 -0.00000000000E+00 -0.10000000000E+04  0.10000000000E+04  0.00000000000E+00 0.  1.
    9000005    2    1    2  501    0  0.16284653271E+02  0.12460921946E+02 -0.95650132615E+03  0.10160436578E+04  0.34209569301E+03 0.  0.
         13    1    3    3    0    0  0.90240705876E+02  0.75196397352E+02 -0.10057008357E+03  0.15463578137E+03  0.00000000000E+00 0.  1.
          3    1    3    3  501    0 -0.73956052605E+02 -0.62735475407E+02 -0.85593124258E+03  0.86140787646E+03  0.00000000000E+00 0.  1.
         21    1    1    2  502  501 -0.16284653271E+02 -0.12460921946E+02 -0.60701730504E+01  0.21384842968E+02  0.00000000000E+00 0.  1.
<mgrwt>
<rscale>  1 0.30000000E+03</rscale>
<asrwt>0</asrwt>
<pdfrwt beam="1">  1        1 0.13610393E+00 0.30000000E+03</pdfrwt>
<pdfrwt beam="2">0</pdfrwt>
<totfact> 0.21213311E+01</totfact>
</mgrwt>
</event>
<event>
 6    1  0.1969531E-004  0.3000000E+03  0.7818608E-02  0.1093470E+00
          1   -1    0    0  502    0  0.00000000000E+00  0.00000000000E+00  0.10935506342E+03  0.10935506342E+03  0.00000000000E+00 0.  1.
         13   -1    0    0    0    0 -0.00000000000E+00 -0.00000000000E+00 -0.10000000000E+04  0.10000000000E+04  0.00000000000E+00 0.  1.
    9000005    2    1    2  501    0  0.37151969880E+02 -0.12935752243E+02 -0.96829554913E+03  0.10223078338E+04  0.32552946729E+03 0.  0.
         13    1    3    3    0    0 -0.76444326989E+02 -0.68709993422E+02 -0.95234690861E+02  0.14012296267E+03  0.00000000000E+00 0.  1.
          1    1    3    3  501    0  0.11359629687E+03  0.55774241179E+02 -0.87306085827E+03  0.88218487115E+03  0.00000000000E+00 0.  1.
         21    1    1    2  502  501 -0.37151969880E+02  0.12935752243E+02  0.77650612546E+02  0.87047229599E+02  0.00000000000E+00 0.  1.
<mgrwt>
<rscale>  1 0.30000000E+03</rscale>
<asrwt>0</asrwt>
<pdfrwt beam="1">  1        1 0.39765561E+00 0.30000000E+03</pdfrwt>
<pdfrwt beam="2">0</pdfrwt>
<totfact> 0.10859752E+00</totfact>
</mgrwt>
</event>
<event>
 6    1  0.1969531E-004  0.3000000E+03  0.7818608E-02  0.1093470E+00
          1   -1    0    0  502    0  0.00000000000E+00  0.00000000000E+00  0.27340705353E+02  0.27340705353E+02  0.00000000000E+00 0.  1.
         13   -1    0    0    0    0 -0.00000000000E+00 -0.00000000000E+00 -0.10000000000E+04  0.10000000000E+04  0.00000000000E+00 0.  1.
    9000005    2    1    2  501    0  0.90803097942E+01  0.65546329135E+01 -0.95365140570E+03  0.10052790853E+04  0.31782010705E+03 0.  0.
         13    1    3    3    0    0  0.35505873123E+02  0.14582469498E+03 -0.68792136658E+03  0.70410319932E+03  0.00000000000E+00 0.  1.
          3    1    3    3  501    0 -0.26425563329E+02 -0.13927006207E+03 -0.26573003912E+03  0.30117588595E+03  0.00000000000E+00 0.  1.
         21    1    1    2  502  501 -0.90803097942E+01 -0.65546329135E+01 -0.19007888947E+02  0.22061620086E+02  0.00000000000E+00 0.  1.
<mgrwt>
<rscale>  1 0.30000000E+03</rscale>
<asrwt>0</asrwt>
<pdfrwt beam="1">  1        1 0.99420956E-01 0.30000000E+03</pdfrwt>
<pdfrwt beam="2">0</pdfrwt>
<totfact> 0.34518541E+01</totfact>
</mgrwt>
</event>
<event>
 6    1  0.1969531E-004  0.3000000E+03  0.7818608E-02  0.1093470E+00
          1   -1    0    0  502    0  0.00000000000E+00  0.00000000000E+00  0.32863798318E+02  0.32863798318E+02  0.00000000000E+00 0.  1.
         13   -1    0    0    0    0 -0.00000000000E+00 -0.00000000000E+00 -0.10000000000E+04  0.10000000000E+04  0.00000000000E+00 0.  1.
    9000005    2    1    2  501    0 -0.80882654229E+01 -0.87994359581E+01 -0.96615604516E+03  0.10208716835E+04  0.32951273190E+03 0.  0.
         13    1    3    3    0    0 -0.11583960195E+02  0.82941436898E+02 -0.44844826635E+02  0.94997518728E+02  0.00000000000E+00 0.  1.
          3    1    3    3  501    0  0.34956947718E+01 -0.91740872857E+02 -0.92131121852E+03  0.92587416478E+03  0.00000000000E+00 0.  1.
         21    1    1    2  502  501  0.80882654229E+01  0.87994359581E+01 -0.98015652258E+00  0.11992114807E+02  0.00000000000E+00 0. -1.
<mgrwt>
<rscale>  1 0.30000000E+03</rscale>
<asrwt>0</asrwt>
<pdfrwt beam="1">  1        1 0.11950497E+00 0.30000000E+03</pdfrwt>
<pdfrwt beam="2">0</pdfrwt>
<totfact> 0.26164289E+01</totfact>
</mgrwt>
</event>
<event>
 6    1  0.1969531E-004  0.3000000E+03  0.7818608E-02  0.1093470E+00
          1   -1    0    0  502    0  0.00000000000E+00  0.00000000000E+00  0.31153962874E+02  0.31153962874E+02  0.00000000000E+00 0.  1.
         13   -1    0    0    0    0 -0.00000000000E+00 -0.00000000000E+00 -0.10000000000E+04  0.10000000000E+04  0.00000000000E+00 0.  1.
    9000005    2    1    2  501    0 -0.12467877297E+02 -0.89895534685E+01 -0.95228334094E+03  0.10085578805E+04  0.33182702837E+03 0.  0.
         13    1    3    3    0    0 -0.73306946084E+02  0.12832103185E+03 -0.25015838450E+03  0.29055018997E+03  0.00000000000E+00 0.  1.
          1    1    3    3  501    0  0.60839068787E+02 -0.13731058531E+03 -0.70212495644E+03  0.71800769048E+03  0.00000000000E+00 0.  1.
         21    1    1    2  502  501  0.12467877297E+02  0.89895534685E+01 -0.16562696186E+02  0.22596082421E+02  0.00000000000E+00 0. -1.
<mgrwt>
<rscale>  1 0.30000000E+03</rscale>
<asrwt>0</asrwt>
<pdfrwt beam="1">  1        1 0.11328738E+00 0.30000000E+03</pdfrwt>
<pdfrwt beam="2">0</pdfrwt>
<totfact> 0.28410935E+01</totfact>
</mgrwt>
</event>
<event>
 6    1  0.1969531E-004  0.3000000E+03  0.7818608E-02  0.1093470E+00
          1   -1    0    0  502    0  0.00000000000E+00  0.00000000000E+00  0.30420734592E+02  0.30420734592E+02  0.00000000000E+00 0.  1.
         13   -1    0    0    0    0 -0.00000000000E+00 -0.00000000000E+00 -0.10000000000E+04  0.10000000000E+04  0.00000000000E+00 0.  1.
    9000005    2    1    2  501    0 -0.48131859195E+02 -0.10438504812E+03 -0.74588774546E+03  0.77892359696E+03  0.19277065889E+03 0.  0.
         13    1    3    3    0    0  0.57874289509E+02 -0.67929766063E+02 -0.16767086932E+03  0.18994053523E+03  0.00000000000E+00 0.  1.
          3    1    3    3  501    0 -0.10600614870E+03 -0.36455282061E+02 -0.57821687614E+03  0.58898306173E+03  0.00000000000E+00 0.  1.
         21    1    1    2  502  501  0.48131859195E+02  0.10438504812E+03 -0.22369151995E+03  0.25149713764E+03  0.00000000000E+00 0.  1.
<mgrwt>
<rscale>  1 0.30000000E+03</rscale>
<asrwt>0</asrwt>
<pdfrwt beam="1">  1        1 0.11062109E+00 0.30000000E+03</pdfrwt>
<pdfrwt beam="2">0</pdfrwt>
<totfact> 0.29457921E+01</totfact>
</mgrwt>
</event>
<event>
 6    1  0.1969531E-004  0.3000000E+03  0.7818608E-02  0.1093470E+00
          3   -1    0    0  502    0  0.00000000000E+00  0.00000000000E+00  0.55880727844E+02  0.55880727844E+02  0.00000000000E+00 0.  1.
         13   -1    0    0    0    0 -0.00000000000E+00 -0.00000000000E+00 -0.10000000000E+04  0.10000000000E+04  0.00000000000E+00 0.  1.
    9000005    2    1    2  501    0  0.11630310852E+03  0.17372321579E+02 -0.68399289683E+03  0.77040929013E+03  0.33444877156E+03 0.  0.
         13    1    3    3    0    0  0.40099988187E+02  0.16600607424E+03 -0.46230370895E+03  0.49283947188E+03  0.00000000000E+00 0.  1.
          3    1    3    3  501    0  0.76203120334E+02 -0.14863375266E+03 -0.22168918788E+03  0.27756981825E+03  0.00000000000E+00 0.  1.
         21    1    1    2  502  501 -0.11630310852E+03 -0.17372321579E+02 -0.26012637533E+03  0.28547143771E+03  0.00000000000E+00 0.  1.
<mgrwt>
<rscale>  1 0.30000000E+03</rscale>
<asrwt>0</asrwt>
<pdfrwt beam="1">  1        3 0.20320308E+00 0.30000000E+03</pdfrwt>
<pdfrwt beam="2">0</pdfrwt>
<totfact> 0.94088699E-02</totfact>
</mgrwt>
</event>
<event>
 6    1  0.1969531E-004  0.3000000E+03  0.7818608E-02  0.1093470E+00
          3   -1    0    0  502    0  0.00000000000E+00  0.00000000000E+00  0.28476789962E+02  0.28476789962E+02  0.00000000000E+00 0.  1.
         13   -1    0    0    0    0 -0.00000000000E+00 -0.00000000000E+00 -0.10000000000E+04  0.10000000000E+04  0.00000000000E+00 0.  1.
    9000005    2    1    2  501    0  0.13417843842E+02 -0.18418183640E+02 -0.90237381279E+03  0.95566946092E+03  0.31385721675E+03 0.  0.
         13    1    3    3    0    0  0.50129424646E+02  0.90676269884E+02 -0.78305338924E+03  0.78987831691E+03  0.00000000000E+00 0.  1.
          1    1    3    3  501    0 -0.36711580804E+02 -0.10909445352E+03 -0.11932042355E+03  0.16579114401E+03  0.00000000000E+00 0.  1.
         21    1    1    2  502  501 -0.13417843842E+02  0.18418183640E+02 -0.69149397249E+02  0.72807329040E+02  0.00000000000E+00 0.  1.
<mgrwt>
<rscale>  1 0.30000000E+03</rscale>
<asrwt>0</asrwt>
<pdfrwt beam="1">  1        3 0.10355218E+00 0.30000000E+03</pdfrwt>
<pdfrwt beam="2">0</pdfrwt>
<totfact> 0.35686741E+00</totfact>
</mgrwt>
</event>
<event>
 6    1  0.1969531E-004  0.3000000E+03  0.7818608E-02  0.1093470E+00
          1   -1    0    0  502    0  0.00000000000E+00  0.00000000000E+00  0.33977748777E+02  0.33977748777E+02  0.00000000000E+00 0.  1.
         13   -1    0    0    0    0 -0.00000000000E+00 -0.00000000000E+00 -0.10000000000E+04  0.10000000000E+04  0.00000000000E+00 0.  1.
    9000005    2    1    2  501    0  0.71044892099E+00 -0.10166991977E+02 -0.96996723832E+03  0.10230490990E+04  0.32509866657E+03 0.  0.
         13    1    3    3    0    0 -0.10976434470E+03 -0.12441816891E+03 -0.52120888558E+03  0.54697970212E+03  0.00000000000E+00 0.  1.
          3    1    3    3  501    0  0.11047479362E+03  0.11425117693E+03 -0.44875835275E+03  0.47606939685E+03  0.00000000000E+00 0.  1.
         21    1    1    2  502  501 -0.71044892099E+00  0.10166991977E+02  0.39449871006E+01  0.10928649814E+02  0.00000000000E+00 0.  1.
<mgrwt>
<rscale>  1 0.30000000E+03</rscale>
<asrwt>0</asrwt>
<pdfrwt beam="1">  1        1 0.12355571E+00 0.30000000E+03</pdfrwt>
<pdfrwt beam="2">0</pdfrwt>
<totfact> 0.24828602E+01</totfact>
</mgrwt>
</event>
<event>
 6    1  0.1969531E-004  0.3000000E+03  0.7818608E-02  0.1093470E+00
          1   -1    0    0  502    0  0.00000000000E+00  0.00000000000E+00  0.40348037053E+02  0.40348037053E+02  0.00000000000E+00 0.  1.
         13   -1    0    0    0    0 -0.00000000000E+00 -0.00000000000E+00 -0.10000000000E+04  0.10000000000E+04  0.00000000000E+00 0.  1.
    9000005    2    1    2  501    0  0.69076785709E+01 -0.10878844371E+02 -0.97490554586E+03  0.10203796353E+04  0.30094469831E+03 0.  0.
         13    1    3    3    0    0  0.92265306924E+02 -0.12549114600E+03 -0.57434067012E+03  0.59508664910E+03  0.00000000000E+00 0.  1.
          3    1    3    3  501    0 -0.85357628353E+02  0.11461230163E+03 -0.40056487574E+03  0.42529298617E+03  0.00000000000E+00 0.  1.
         21    1    1    2  502  501 -0.69076785709E+01  0.10878844371E+02  0.15253582915E+02  0.19968401784E+02  0.00000000000E+00 0. -1.
<mgrwt>
<rscale>  1 0.30000000E+03</rscale>
<asrwt>0</asrwt>
<pdfrwt beam="1">  1        1 0.14672044E+00 0.30000000E+03</pdfrwt>
<pdfrwt beam="2">0</pdfrwt>
<totfact> 0.18671576E+01</totfact>
</mgrwt>
</event>
<event>
 6    1  0.1969531E-004  0.3000000E+03  0.7818608E-02  0.1093470E+00
          3   -1    0    0  502    0  0.00000000000E+00  0.00000000000E+00  0.15260155498E+02  0.15260155498E+02  0.00000000000E+00 0.  1.
         13   -1    0    0    0    0 -0.00000000000E+00 -0.00000000000E+00 -0.10000000000E+04  0.10000000000E+04  0.00000000000E+00 0.  1.
    9000005    2    1    2  501    0  0.13894386793E+02 -0.16096424620E+02 -0.92600680908E+03  0.95279641946E+03  0.22333888511E+03 0.  0.
         13    1    3    3    0    0  0.13427110615E+02  0.57799430125E+02 -0.62679089663E+02  0.86311816707E+02  0.00000000000E+00 0.  1.
          1    1    3    3  501    0  0.46727617783E+00 -0.73895854745E+02 -0.86332771942E+03  0.86648460276E+03  0.00000000000E+00 0.  1.
         21    1    1    2  502  501 -0.13894386793E+02  0.16096424620E+02 -0.58733035419E+02  0.62463736035E+02  0.00000000000E+00 0.  1.
<mgrwt>
<rscale>  1 0.30000000E+03</rscale>
<asrwt>0</asrwt>
<pdfrwt beam="1">  1        3 0.55491592E-01 0.30000000E+03</pdfrwt>
<pdfrwt beam="2">0</pdfrwt>
<totfact> 0.14228280E+01</totfact>
</mgrwt>
</event>
<event>
 6    1  0.1969531E-004  0.3000000E+03  0.7818608E-02  0.1093470E+00
          1   -1    0    0  502    0  0.00000000000E+00  0.00000000000E+00  0.57315789653E+02  0.57315789653E+02  0.00000000000E+00 0.  1.
         13   -1    0    0    0    0 -0.00000000000E+00 -0.00000000000E+00 -0.10000000000E+04  0.10000000000E+04  0.00000000000E+00 0.  1.
    9000005    2    1    2  501    0  0.79219201265E+01 -0.18731828455E+02 -0.97400587132E+03  0.10199703125E+04  0.30205688677E+03 0.  0.
         13    1    3    3    0    0 -0.13234287589E+03  0.26560313011E+02 -0.28465297024E+03  0.31503555433E+03  0.00000000000E+00 0.  1.
          1    1    3    3  501    0  0.14026479601E+03 -0.45292141466E+02 -0.68935290108E+03  0.70493475819E+03  0.00000000000E+00 0.  1.
         21    1    1    2  502  501 -0.79219201265E+01  0.18731828455E+02  0.31321660975E+02  0.37345477129E+02  0.00000000000E+00 0.  1.
<mgrwt>
<rscale>  1 0.30000000E+03</rscale>
<asrwt>0</asrwt>
<pdfrwt beam="1">  1        1 0.20842149E+00 0.30000000E+03</pdfrwt>
<pdfrwt beam="2">0</pdfrwt>
<totfact> 0.93441167E+00</totfact>
</mgrwt>
</event>
<event>
 6    1  0.1969531E-004  0.3000000E+03  0.7818608E-02  0.1093470E+00
          1   -1    0    0  502    0  0.00000000000E+00  0.00000000000E+00  0.45355054532E+02  0.45355054532E+02  0.00000000000E+00 0.  1.
         13   -1    0    0    0    0 -0.00000000000E+00 -0.00000000000E+00 -0.10000000000E+04  0.10000000000E+04  0.00000000000E+00 0.  1.
    9000005    2    1    2  501    0  0.11532911258E+02 -0.59983448001E+01 -0.97063928138E+03  0.10247442088E+04  0.32831553515E+03 0.  0.
         13    1    3    3    0    0 -0.15832482734E+03 -0.34931399901E+01 -0.49138726022E+03  0.51627550057E+03  0.00000000000E+00 0.  1.
          1    1    3    3  501    0  0.16985773860E+03 -0.25052048100E+01 -0.47925202116E+03  0.50846870818E+03  0.00000000000E+00 0.  1.
         21    1    1    2  502  501 -0.11532911258E+02  0.59983448001E+01  0.15994335916E+02  0.20610845781E+02  0.00000000000E+00 0. -1.
<mgrwt>
<rscale>  1 0.30000000E+03</rscale>
<asrwt>0</asrwt>
<pdfrwt beam="1">  1        1 0.16492782E+00 0.30000000E+03</pdfrwt>
<pdfrwt beam="2">0</pdfrwt>
<totfact> 0.15129688E+01</totfact>
</mgrwt>
</event>
<event>
 6    1  0.1969531E-004  0.3000000E+03  0.7818608E-02  0.1093470E+00
          1   -1    0    0  502    0  0.00000000000E+00  0.00000000000E+00  0.34205053889E+02  0.34205053889E+02  0.00000000000E+00 0.  1.
         13   -1    0    0    0    0 -0.00000000000E+00 -0.00000000000E+00 -0.10000000000E+04  0.10000000000E+04  0.00000000000E+00 0.  1.
    9000005    2    1    2  501    0 -0.19381566460E+02  0.25534396998E+02 -0.93665974402E+03  0.99088634489E+03  0.32170890860E+03 0.  0.
         13    1    3    3    0    0 -0.70164796336E+02  0.11415094950E+03 -0.16525989345E+03  0.21275424861E+03  0.00000000000E+00 0.  1.
          3    1    3    3  501    0  0.50783229876E+02 -0.88616552498E+02 -0.77139985056E+03  0.77813209628E+03  0.00000000000E+00 0.  1.
         21    1    1    2  502  501  0.19381566460E+02 -0.25534396998E+02 -0.29135202093E+02  0.43318709001E+02  0.00000000000E+00 0. -1.
<mgrwt>
<rscale>  1 0.30000000E+03</rscale>
<asrwt>0</asrwt>
<pdfrwt beam="1">  1        1 0.12438228E+00 0.30000000E+03</pdfrwt>
<pdfrwt beam="2">0</pdfrwt>
<totfact> 0.24567089E+01</totfact>
</mgrwt>
</event>
<event>
 6    1  0.1969531E-004  0.3000000E+03  0.7818608E-02  0.1093470E+00
          3   -1    0    0  502    0  0.00000000000E+00  0.00000000000E+00  0.25799064181E+02  0.25799064181E+02  0.00000000000E+00 0.  1.
         13   -1    0    0    0    0 -0.00000000000E+00 -0.00000000000E+00 -0.10000000000E+04  0.10000000000E+04  0.00000000000E+00 0.  1.
    9000005    2    1    2  501    0  0.11294088283E+02 -0.33367047243E+01 -0.95909601329E+03  0.10066457691E+04  0.30550262139E+03 0.  0.
         13    1    3    3    0    0 -0.25319464143E+02 -0.69129238551E+02 -0.38694519188E+02  0.83169662151E+02  0.00000000000E+00 0.  1.
          1    1    3    3  501    0  0.36613552426E+02  0.65792533826E+02 -0.92040149410E+03  0.92347610693E+03  0.00000000000E+00 0.  1.
         21    1    1    2  502  501 -0.11294088283E+02  0.33367047243E+01 -0.15104922531E+02  0.19153295101E+02  0.00000000000E+00 0.  1.
<mgrwt>
<rscale>  1 0.30000000E+03</rscale>
<asrwt>0</asrwt>
<pdfrwt beam="1">  1        3 0.93814977E-01 0.30000000E+03</pdfrwt>
<pdfrwt beam="2">0</pdfrwt>
<totfact> 0.46096749E+00</totfact>
</mgrwt>
</event>
<event>
 6    1  0.1969531E-004  0.3000000E+03  0.7818608E-02  0.1093470E+00
          1   -1    0    0  502    0  0.00000000000E+00  0.00000000000E+00  0.31234198061E+02  0.31234198061E+02  0.00000000000E+00 0.  1.
         13   -1    0    0    0    0 -0.00000000000E+00 -0.00000000000E+00 -0.10000000000E+04  0.10000000000E+04  0.00000000000E+00 0.  1.
    9000005    2    1    2  501    0  0.12932662831E+02 -0.12408449956E+02 -0.95345027688E+03  0.10076590267E+04  0.32555807493E+03 0.  0.
         13    1    3    3    0    0 -0.60389845918E+02  0.13591112362E+03 -0.31860442408E+03  0.35160709046E+03  0.00000000000E+00 0.  1.
          3    1    3    3  501    0  0.73322508749E+02 -0.14831957358E+03 -0.63484585280E+03  0.65605193622E+03  0.00000000000E+00 0.  1.
         21    1    1    2  502  501 -0.12932662831E+02  0.12408449956E+02 -0.15315525058E+02  0.23575171389E+02  0.00000000000E+00 0. -1.
<mgrwt>
<rscale>  1 0.30000000E+03</rscale>
<asrwt>0</asrwt>
<pdfrwt beam="1">  1        1 0.11357914E+00 0.30000000E+03</pdfrwt>
<pdfrwt beam="2">0</pdfrwt>
<totfact> 0.28299597E+01</totfact>
</mgrwt>
</event>
<event>
 6    1  0.1969531E-004  0.3000000E+03  0.7818608E-02  0.1093470E+00
          1   -1    0    0  502    0  0.00000000000E+00  0.00000000000E+00  0.31394816929E+02  0.31394816929E+02  0.00000000000E+00 0.  1.
         13   -1    0    0    0    0 -0.00000000000E+00 -0.00000000000E+00 -0.10000000000E+04  0.10000000000E+04  0.00000000000E+00 0.  1.
    9000005    2    1    2  501    0 -0.13074575290E+02  0.65841852060E+01 -0.94110431789E+03  0.10002404657E+04  0.33851049628E+03 0.  0.
         13    1    3    3    0    0 -0.12385153326E+03 -0.43794262162E+02 -0.14815684298E+03  0.19800906497E+03  0.00000000000E+00 0.  1.
          3    1    3    3  501    0  0.11077695797E+03  0.50378447368E+02 -0.79294747491E+03  0.80223140074E+03  0.00000000000E+00 0.  1.
         21    1    1    2  502  501  0.13074575290E+02 -0.65841852060E+01 -0.27500865183E+02  0.31154351216E+02  0.00000000000E+00 0.  1.
<mgrwt>
<rscale>  1 0.30000000E+03</rscale>
<asrwt>0</asrwt>
<pdfrwt beam="1">  1        1 0.11416321E+00 0.30000000E+03</pdfrwt>
<pdfrwt beam="2">0</pdfrwt>
<totfact> 0.28078568E+01</totfact>
</mgrwt>
</event>
<event>
 6    1  0.1969531E-004  0.3000000E+03  0.7818608E-02  0.1093470E+00
          1   -1    0    0  502    0  0.00000000000E+00  0.00000000000E+00  0.28077190535E+02  0.28077190535E+02  0.00000000000E+00 0.  1.
         13   -1    0    0    0    0 -0.00000000000E+00 -0.00000000000E+00 -0.10000000000E+04  0.10000000000E+04  0.00000000000E+00 0.  1.
    9000005    2    1    2  501    0 -0.10647220716E+02  0.29004269234E+01 -0.95392154859E+03  0.10069627126E+04  0.32231321400E+03 0.  0.
         13    1    3    3    0    0 -0.10502454660E+03  0.83530582375E+02 -0.79015387618E+03  0.80146781696E+03  0.00000000000E+00 0.  1.
          1    1    3    3  501    0  0.94377325883E+02 -0.80630155452E+02 -0.16376767242E+03  0.20549489565E+03  0.00000000000E+00 0.  1.
         21    1    1    2  502  501  0.10647220716E+02 -0.29004269234E+01 -0.18001260871E+02  0.21114477930E+02  0.00000000000E+00 0.  1.
<mgrwt>
<rscale>  1 0.30000000E+03</rscale>
<asrwt>0</asrwt>
<pdfrwt beam="1">  1        1 0.10209909E+00 0.30000000E+03</pdfrwt>
<pdfrwt beam="2">0</pdfrwt>
<totfact> 0.33199725E+01</totfact>
</mgrwt>
</event>
<event>
 6    1  0.1969531E-004  0.3000000E+03  0.7818608E-02  0.1093470E+00
          1   -1    0    0  502    0  0.00000000000E+00  0.00000000000E+00  0.64906905176E+02  0.64906905176E+02  0.00000000000E+00 0.  1.
         13   -1    0    0    0    0 -0.00000000000E+00 -0.00000000000E+00 -0.10000000000E+04  0.10000000000E+04  0.00000000000E+00 0.  1.
    9000005    2    1    2  501    0  0.22910184312E+01  0.63061886474E+02 -0.94608789945E+03  0.10008527404E+04  0.32037765882E+03 0.  0.
         13    1    3    3    0    0 -0.33355383713E+02  0.13315891098E+03 -0.89851956373E+03  0.90894514884E+03  0.00000000000E+00 0.  1.
          1    1    3    3  501    0  0.35646402145E+02 -0.70097024506E+02 -0.47568335716E+02  0.91907591598E+02  0.00000000000E+00 0.  1.
         21    1    1    2  502  501 -0.22910184312E+01 -0.63061886474E+02  0.10994804626E+02  0.64054164735E+02  0.00000000000E+00 0.  1.
<mgrwt>
<rscale>  1 0.30000000E+03</rscale>
<asrwt>0</asrwt>
<pdfrwt beam="1">  1        1 0.23602561E+00 0.30000000E+03</pdfrwt>
<pdfrwt beam="2">0</pdfrwt>
<totfact> 0.69350819E+00</totfact>
</mgrwt>
</event>
<event>
 6    1  0.1969531E-004  0.3000000E+03  0.7818608E-02  0.1093470E+00
          1   -1    0    0  502    0  0.00000000000E+00  0.00000000000E+00  0.30418477456E+02  0.30418477456E+02  0.00000000000E+00 0.  1.
         13   -1    0    0    0    0 -0.00000000000E+00 -0.00000000000E+00 -0.10000000000E+04  0.10000000000E+04  0.00000000000E+00 0.  1.
    9000005    2    1    2  501    0 -0.90398239114E+01 -0.87610948795E+01 -0.96156310914E+03  0.10154929908E+04  0.32628810307E+03 0.  0.
         13    1    3    3    0    0  0.11243040053E+03  0.10111497077E+03 -0.59653553314E+03  0.61540188054E+03  0.00000000000E+00 0.  1.
          1    1    3    3  501    0 -0.12147022444E+03 -0.10987606565E+03 -0.36502757600E+03  0.40009111021E+03  0.00000000000E+00 0.  1.
         21    1    1    2  502  501  0.90398239114E+01  0.87610948795E+01 -0.80184134012E+01  0.14925486703E+02  0.00000000000E+00 0.  1.
<mgrwt>
<rscale>  1 0.30000000E+03</rscale>
<asrwt>0</asrwt>
<pdfrwt beam="1">  1        1 0.11061288E+00 0.30000000E+03</pdfrwt>
<pdfrwt beam="2">0</pdfrwt>
<totfact> 0.29461228E+01</totfact>
</mgrwt>
</event>
<event>
 6    1  0.1969531E-004  0.3000000E+03  0.7818608E-02  0.1093470E+00
          1   -1    0    0  502    0  0.00000000000E+00  0.00000000000E+00  0.51446635146E+02  0.51446635146E+02  0.00000000000E+00 0.  1.
         13   -1    0    0    0    0 -0.00000000000E+00 -0.00000000000E+00 -0.10000000000E+04  0.10000000000E+04  0.00000000000E+00 0.  1.
    9000005    2    1    2  501    0 -0.52262658189E+02  0.20239185421E+02 -0.87476879948E+03  0.95879043106E+03  0.38848118113E+03 0.  0.
         13    1    3    3    0    0 -0.65106440035E+02  0.19487715693E+03 -0.58711868726E+03  0.62203240089E+03  0.00000000000E+00 0.  1.
          1    1    3    3  501    0  0.12843781846E+02 -0.17463797151E+03 -0.28765011221E+03  0.33675803017E+03  0.00000000000E+00 0.  1.
         21    1    1    2  502  501  0.52262658189E+02 -0.20239185421E+02 -0.73784565379E+02  0.92656204086E+02  0.00000000000E+00 0. -1.
<mgrwt>
<rscale>  1 0.30000000E+03</rscale>
<asrwt>0</asrwt>
<pdfrwt beam="1">  1        1 0.18707907E+00 0.30000000E+03</pdfrwt>
<pdfrwt beam="2">0</pdfrwt>
<totfact> 0.11809403E+01</totfact>
</mgrwt>
</event>
<event>
 6    1  0.1969531E-004  0.3000000E+03  0.7818608E-02  0.1093470E+00
          1   -1    0    0  502    0  0.00000000000E+00  0.00000000000E+00  0.62657196953E+02  0.62657196953E+02  0.00000000000E+00 0.  1.
         13   -1    0    0    0    0 -0.00000000000E+00 -0.00000000000E+00 -0.10000000000E+04  0.10000000000E+04  0.00000000000E+00 0.  1.
    9000005    2    1    2  501    0  0.10312179754E+02 -0.77900168668E+01 -0.97189104420E+03  0.10257707986E+04  0.32782084150E+03 0.  0.
         13    1    3    3    0    0  0.12638686800E+03 -0.68339735084E+02 -0.78220898752E+03  0.79529545450E+03  0.00000000000E+00 0.  1.
          3    1    3    3  501    0 -0.11607468824E+03  0.60549718217E+02 -0.18968205669E+03  0.23047534414E+03  0.00000000000E+00 0.  1.
         21    1    1    2  502  501 -0.10312179754E+02  0.77900168668E+01  0.34548241154E+02  0.36886398318E+02  0.00000000000E+00 0.  1.
<mgrwt>
<rscale>  1 0.30000000E+03</rscale>
<asrwt>0</asrwt>
<pdfrwt beam="1">  1        1 0.22784483E+00 0.30000000E+03</pdfrwt>
<pdfrwt beam="2">0</pdfrwt>
<totfact> 0.75743851E+00</totfact>
</mgrwt>
</event>
<event>
 6    1  0.1969531E-004  0.3000000E+03  0.7818608E-02  0.1093470E+00
          1   -1    0    0  502    0  0.00000000000E+00  0.00000000000E+00  0.35435075657E+02  0.35435075657E+02  0.00000000000E+00 0.  1.
         13   -1    0    0    0    0 -0.00000000000E+00 -0.00000000000E+00 -0.10000000000E+04  0.10000000000E+04  0.00000000000E+00 0.  1.
    9000005    2    1    2  501    0 -0.12890838439E+02  0.21480515582E+02 -0.94198944074E+03  0.10017121054E+04  0.33978735895E+03 0.  0.
         13    1    3    3    0    0  0.92686373786E+02 -0.12587779946E+03 -0.50418456178E+03  0.52786177794E+03  0.00000000000E+00 0.  1.
          1    1    3    3  501    0 -0.10557721222E+03  0.14735831504E+03 -0.43780487897E+03  0.47385032743E+03  0.00000000000E+00 0.  1.
         21    1    1    2  502  501  0.12890838439E+02 -0.21480515582E+02 -0.22575483598E+02  0.33722970288E+02  0.00000000000E+00 0.  1.
<mgrwt>
<rscale>  1 0.30000000E+03</rscale>
<asrwt>0</asrwt>
<pdfrwt beam="1">  1        1 0.12885509E+00 0.30000000E+03</pdfrwt>
<pdfrwt beam="2">0</pdfrwt>
<totfact> 0.23211277E+01</totfact>
</mgrwt>
</event>
<event>
 6    1  0.1969531E-004  0.3000000E+03  0.7818608E-02  0.1093470E+00
          1   -1    0    0  502    0  0.00000000000E+00  0.00000000000E+00  0.29525851481E+02  0.29525851481E+02  0.00000000000E+00 0.  1.
         13   -1    0    0    0    0 -0.00000000000E+00 -0.00000000000E+00 -0.10000000000E+04  0.10000000000E+04  0.00000000000E+00 0.  1.
    9000005    2    1    2  501    0  0.26427212161E+02 -0.27434546513E+01 -0.92503677074E+03  0.97689050798E+03  0.31291550500E+03 0.  0.
         13    1    3    3    0    0  0.13646606569E+03 -0.86936562024E+02 -0.35305556697E+03  0.38836733419E+03  0.00000000000E+00 0.  1.
          1    1    3    3  501    0 -0.11003885353E+03  0.84193107372E+02 -0.57198120378E+03  0.58852317379E+03  0.00000000000E+00 0.  1.
         21    1    1    2  502  501 -0.26427212161E+02  0.27434546513E+01 -0.45437377778E+02  0.52635343500E+02  0.00000000000E+00 0. -1.
<mgrwt>
<rscale>  1 0.30000000E+03</rscale>
<asrwt>0</asrwt>
<pdfrwt beam="1">  1        1 0.10736696E+00 0.30000000E+03</pdfrwt>
<pdfrwt beam="2">0</pdfrwt>
<totfact> 0.30811508E+01</totfact>
</mgrwt>
</event>
<event>
 6    1  0.1969531E-004  0.3000000E+03  0.7818608E-02  0.1093470E+00
          1   -1    0    0  502    0  0.00000000000E+00  0.00000000000E+00  0.29532749379E+02  0.29532749379E+02  0.00000000000E+00 0.  1.
         13   -1    0    0    0    0 -0.00000000000E+00 -0.00000000000E+00 -0.10000000000E+04  0.10000000000E+04  0.00000000000E+00 0.  1.
    9000005    2    1    2  501    0  0.12793484285E+01  0.12282636588E+02 -0.96126007446E+03  0.10141291139E+04  0.32293099721E+03 0.  0.
         13    1    3    3    0    0 -0.15291664688E+03 -0.43034319356E+02 -0.44529018196E+03  0.47277774872E+03  0.00000000000E+00 0.  1.
          3    1    3    3  501    0  0.15419599531E+03  0.55316955944E+02 -0.51596989250E+03  0.54135136515E+03  0.00000000000E+00 0.  1.
         21    1    1    2  502  501 -0.12793484285E+01 -0.12282636588E+02 -0.92071761629E+01  0.15403635508E+02  0.00000000000E+00 0.  1.
<mgrwt>
<rscale>  1 0.30000000E+03</rscale>
<asrwt>0</asrwt>
<pdfrwt beam="1">  1        1 0.10739204E+00 0.30000000E+03</pdfrwt>
<pdfrwt beam="2">0</pdfrwt>
<totfact> 0.30800738E+01</totfact>
</mgrwt>
</event>
<event>
 6    1  0.1969531E-004  0.3000000E+03  0.7818608E-02  0.1093470E+00
          1   -1    0    0  502    0  0.00000000000E+00  0.00000000000E+00  0.32826273611E+02  0.32826273611E+02  0.00000000000E+00 0.  1.
         13   -1    0    0    0    0 -0.00000000000E+00 -0.00000000000E+00 -0.10000000000E+04  0.10000000000E+04  0.00000000000E+00 0.  1.
    9000005    2    1    2  501    0  0.34185773057E+02 -0.12063121141E+02 -0.90539882516E+03  0.96119999078E+03  0.32069331719E+03 0.  0.
         13    1    3    3    0    0 -0.96931690596E+02 -0.11497829678E+03 -0.51979420566E+03  0.54111161289E+03  0.00000000000E+00 0.  1.
          1    1    3    3  501    0  0.13111746365E+03  0.10291517563E+03 -0.38560461950E+03  0.42008837788E+03  0.00000000000E+00 0.  1.
         21    1    1    2  502  501 -0.34185773057E+02  0.12063121141E+02 -0.61774901225E+02  0.71626282834E+02  0.00000000000E+00 0. -1.
<mgrwt>
<rscale>  1 0.30000000E+03</rscale>
<asrwt>0</asrwt>
<pdfrwt beam="1">  1        1 0.11936852E+00 0.30000000E+03</pdfrwt>
<pdfrwt beam="2">0</pdfrwt>
<totfact> 0.26210930E+01</totfact>
</mgrwt>
</event>
<event>
 6    1  0.1969531E-004  0.3000000E+03  0.7818608E-02  0.1093470E+00
          1   -1    0    0  502    0  0.00000000000E+00  0.00000000000E+00  0.35951270199E+02  0.35951270199E+02  0.00000000000E+00 0.  1.
         13   -1    0    0    0    0 -0.00000000000E+00 -0.00000000000E+00 -0.10000000000E+04  0.10000000000E+04  0.00000000000E+00 0.  1.
    9000005    2    1    2  501    0  0.47569009505E+02  0.17634186736E+02 -0.81537099524E+03  0.87885625448E+03  0.32401339628E+03 0.  0.
         13    1    3    3    0    0  0.77733824557E+02 -0.99950330377E+02 -0.70008691249E+03  0.71144522000E+03  0.00000000000E+00 0.  1.
          1    1    3    3  501    0 -0.30164815052E+02  0.11758451711E+03 -0.11528408274E+03  0.16741103448E+03  0.00000000000E+00 0.  1.
         21    1    1    2  502  501 -0.47569009505E+02 -0.17634186736E+02 -0.14867773457E+03  0.15709501572E+03  0.00000000000E+00 0.  1.
<mgrwt>
<rscale>  1 0.30000000E+03</rscale>
<asrwt>0</asrwt>
<pdfrwt beam="1">  1        1 0.13073217E+00 0.30000000E+03</pdfrwt>
<pdfrwt beam="2">0</pdfrwt>
<totfact> 0.22671006E+01</totfact>
</mgrwt>
</event>
<event>
 6    1  0.1969531E-004  0.3000000E+03  0.7818608E-02  0.1093470E+00
          1   -1    0    0  502    0  0.00000000000E+00  0.00000000000E+00  0.29060870668E+02  0.29060870668E+02  0.00000000000E+00 0.  1.
         13   -1    0    0    0    0 -0.00000000000E+00 -0.00000000000E+00 -0.10000000000E+04  0.10000000000E+04  0.00000000000E+00 0.  1.
    9000005    2    1    2  501    0  0.15551975451E+02  0.74291086769E+01 -0.95361719598E+03  0.10046251392E+04  0.31557702434E+03 0.  0.
         13    1    3    3    0    0  0.23021741585E+02 -0.15163001305E+03 -0.54200740490E+03  0.56328828180E+03  0.00000000000E+00 0.  1.
          1    1    3    3  501    0 -0.74697661343E+01  0.15905912173E+03 -0.41160979108E+03  0.44133685742E+03  0.00000000000E+00 0.  1.
         21    1    1    2  502  501 -0.15551975451E+02 -0.74291086769E+01 -0.17321933351E+02  0.24435731444E+02  0.00000000000E+00 0. -1.
<mgrwt>
<rscale>  1 0.30000000E+03</rscale>
<asrwt>0</asrwt>
<pdfrwt beam="1">  1        1 0.10567612E+00 0.30000000E+03</pdfrwt>
<pdfrwt beam="2">0</pdfrwt>
<totfact> 0.31550193E+01</totfact>
</mgrwt>
</event>
<event>
 6    1  0.1969531E-004  0.3000000E+03  0.7818608E-02  0.1093470E+00
          1   -1    0    0  502    0  0.00000000000E+00  0.00000000000E+00  0.38329618712E+02  0.38329618712E+02  0.00000000000E+00 0.  1.
         13   -1    0    0    0    0 -0.00000000000E+00 -0.00000000000E+00 -0.10000000000E+04  0.10000000000E+04  0.00000000000E+00 0.  1.
    9000005    2    1    2  501    0  0.14474594595E+02 -0.32286752109E+02 -0.95820985317E+03  0.10027779169E+04  0.29350550175E+03 0.  0.
         13    1    3    3    0    0 -0.96840616695E+02 -0.58177896179E+02 -0.15679372305E+03  0.19325383369E+03  0.00000000000E+00 0.  1.
          1    1    3    3  501    0  0.11131521129E+03  0.25891144070E+02 -0.80141613012E+03  0.80952408316E+03  0.00000000000E+00 0.  1.
         21    1    1    2  502  501 -0.14474594595E+02  0.32286752109E+02 -0.34605281147E+01  0.35551701862E+02  0.00000000000E+00 0.  1.
<mgrwt>
<rscale>  1 0.30000000E+03</rscale>
<asrwt>0</asrwt>
<pdfrwt beam="1">  1        1 0.13938073E+00 0.30000000E+03</pdfrwt>
<pdfrwt beam="2">0</pdfrwt>
<totfact> 0.20384235E+01</totfact>
</mgrwt>
</event>
<event>
 6    1  0.1969531E-004  0.3000000E+03  0.7818608E-02  0.1093470E+00
          1   -1    0    0  502    0  0.00000000000E+00  0.00000000000E+00  0.24188212304E+02  0.24188212304E+02  0.00000000000E+00 0.  1.
         13   -1    0    0    0    0 -0.00000000000E+00 -0.00000000000E+00 -0.10000000000E+04  0.10000000000E+04  0.00000000000E+00 0.  1.
    9000005    2    1    2  501    0  0.16276038335E+02  0.16513924988E+02 -0.93829017358E+03  0.98008049565E+03  0.28219090874E+03 0.  0.
         13    1    3    3    0    0 -0.11749478787E+03 -0.37740074009E+02 -0.59519901466E+03  0.60785788258E+03  0.00000000000E+00 0.  1.
          3    1    3    3  501    0  0.13377082621E+03  0.54253998998E+02 -0.34309115891E+03  0.37222261306E+03  0.00000000000E+00 0.  1.
         21    1    1    2  502  501 -0.16276038335E+02 -0.16513924988E+02 -0.37521614120E+02  0.44107716656E+02  0.00000000000E+00 0. -1.
<mgrwt>
<rscale>  1 0.30000000E+03</rscale>
<asrwt>0</asrwt>
<pdfrwt beam="1">  1        1 0.87957321E-01 0.30000000E+03</pdfrwt>
<pdfrwt beam="2">0</pdfrwt>
<totfact> 0.41145502E+01</totfact>
</mgrwt>
</event>
<event>
 6    1  0.1969531E-004  0.3000000E+03  0.7818608E-02  0.1093470E+00
          1   -1    0    0  502    0  0.00000000000E+00  0.00000000000E+00  0.61704658627E+02  0.61704658627E+02  0.00000000000E+00 0.  1.
         13   -1    0    0    0    0 -0.00000000000E+00 -0.00000000000E+00 -0.10000000000E+04  0.10000000000E+04  0.00000000000E+00 0.  1.
    9000005    2    1    2  501    0 -0.60450422908E+02  0.39297496500E+02 -0.84564489225E+03  0.94430511610E+03  0.41400280393E+03 0.  0.
         13    1    3    3    0    0 -0.19718035327E+03  0.46308870582E+02 -0.75108149232E+03  0.77791259876E+03  0.00000000000E+00 0.  1.
          1    1    3    3  501    0  0.13672993036E+03 -0.70113740815E+01 -0.94563399927E+02  0.16639251734E+03  0.00000000000E+00 0.  1.
         21    1    1    2  502  501  0.60450422908E+02 -0.39297496500E+02 -0.92650449128E+02  0.11739954252E+03  0.00000000000E+00 0. -1.
<mgrwt>
<rscale>  1 0.30000000E+03</rscale>
<asrwt>0</asrwt>
<pdfrwt beam="1">  1        1 0.22438105E+00 0.30000000E+03</pdfrwt>
<pdfrwt beam="2">0</pdfrwt>
<totfact> 0.78626932E+00</totfact>
</mgrwt>
</event>
<event>
 6    1  0.1969531E-004  0.3000000E+03  0.7818608E-02  0.1093470E+00
          1   -1    0    0  502    0  0.00000000000E+00  0.00000000000E+00  0.40404959743E+02  0.40404959743E+02  0.00000000000E+00 0.  1.
         13   -1    0    0    0    0 -0.00000000000E+00 -0.00000000000E+00 -0.10000000000E+04  0.10000000000E+04  0.00000000000E+00 0.  1.
    9000005    2    1    2  501    0  0.11093546546E+02 -0.30445886366E+02 -0.93429260066E+03  0.99929252585E+03  0.35303380827E+03 0.  0.
         13    1    3    3    0    0 -0.98267954429E+02  0.10964475560E+03 -0.62931983057E+03  0.64631417472E+03  0.00000000000E+00 0.  1.
          3    1    3    3  501    0  0.10936150098E+03 -0.14009064197E+03 -0.30497277009E+03  0.35297835112E+03  0.00000000000E+00 0.  1.
         21    1    1    2  502  501 -0.11093546546E+02  0.30445886366E+02 -0.25302439594E+02  0.41112433897E+02  0.00000000000E+00 0. -1.
<mgrwt>
<rscale>  1 0.30000000E+03</rscale>
<asrwt>0</asrwt>
<pdfrwt beam="1">  1        1 0.14692744E+00 0.30000000E+03</pdfrwt>
<pdfrwt beam="2">0</pdfrwt>
<totfact> 0.18625960E+01</totfact>
</mgrwt>
</event>
<event>
 6    1  0.1969531E-004  0.3000000E+03  0.7818608E-02  0.1093470E+00
          1   -1    0    0  502    0  0.00000000000E+00  0.00000000000E+00  0.56751450908E+02  0.56751450908E+02  0.00000000000E+00 0.  1.
         13   -1    0    0    0    0 -0.00000000000E+00 -0.00000000000E+00 -0.10000000000E+04  0.10000000000E+04  0.00000000000E+00 0.  1.
    9000005    2    1    2  501    0 -0.33613094628E+02 -0.15488249027E+02 -0.96208134568E+03  0.10152255528E+04  0.32204453312E+03 0.  0.
         13    1    3    3    0    0 -0.32959280637E+02  0.15190359875E+03 -0.41741940772E+03  0.44542112594E+03  0.00000000000E+00 0.  1.
          3    1    3    3  501    0 -0.65381399082E+00 -0.16739184778E+03 -0.54466193796E+03  0.56980442683E+03  0.00000000000E+00 0.  1.
         21    1    1    2  502  501  0.33613094628E+02  0.15488249027E+02  0.18832796588E+02  0.41525898133E+02  0.00000000000E+00 0.  1.
<mgrwt>
<rscale>  1 0.30000000E+03</rscale>
<asrwt>0</asrwt>
<pdfrwt beam="1">  1        1 0.20636935E+00 0.30000000E+03</pdfrwt>
<pdfrwt beam="2">0</pdfrwt>
<totfact> 0.95550956E+00</totfact>
</mgrwt>
</event>
<event>
 6    1  0.1969531E-004  0.3000000E+03  0.7818608E-02  0.1093470E+00
          1   -1    0    0  502    0  0.00000000000E+00  0.00000000000E+00  0.13589502118E+03  0.13589502118E+03  0.00000000000E+00 0.  1.
         13   -1    0    0    0    0 -0.00000000000E+00 -0.00000000000E+00 -0.10000000000E+04  0.10000000000E+04  0.00000000000E+00 0.  1.
    9000005    2    1    2  501    0 -0.44268090524E+02 -0.20801844564E+02 -0.96591290506E+03  0.10229470933E+04  0.33322760220E+03 0.  0.
         13    1    3    3    0    0 -0.86141518824E+02 -0.16218784461E+03 -0.44083301842E+03  0.47755524114E+03  0.00000000000E+00 0.  1.
          3    1    3    3  501    0  0.41873428299E+02  0.14138600005E+03 -0.52507988664E+03  0.54539185212E+03  0.00000000000E+00 0.  1.
         21    1    1    2  502  501  0.44268090524E+02  0.20801844564E+02  0.10180792624E+03  0.11294792792E+03  0.00000000000E+00 0. -1.
<mgrwt>
<rscale>  1 0.30000000E+03</rscale>
<asrwt>0</asrwt>
<pdfrwt beam="1">  1        1 0.49416476E+00 0.30000000E+03</pdfrwt>
<pdfrwt beam="2">0</pdfrwt>
<totfact> 0.25205000E-01</totfact>
</mgrwt>
</event>
<event>
 6    1  0.1969531E-004  0.3000000E+03  0.7818608E-02  0.1093470E+00
          3   -1    0    0  502    0  0.00000000000E+00  0.00000000000E+00  0.33603744213E+02  0.33603744213E+02  0.00000000000E+00 0.  1.
         13   -1    0    0    0    0 -0.00000000000E+00 -0.00000000000E+00 -0.10000000000E+04  0.10000000000E+04  0.00000000000E+00 0.  1.
    9000005    2    1    2  501    0 -0.13925310458E+02  0.61468846700E+01 -0.96706744992E+03  0.10183673088E+04  0.31878021343E+03 0.  0.
         13    1    3    3    0    0  0.63902518945E+02 -0.13304591067E+03 -0.60485134683E+03  0.62259930776E+03  0.00000000000E+00 0.  1.
          1    1    3    3  501    0 -0.77827829403E+02  0.13919279534E+03 -0.36221610310E+03  0.39576800104E+03  0.00000000000E+00 0.  1.
         21    1    1    2  502  501  0.13925310458E+02 -0.61468846700E+01  0.67119413370E+00  0.15236435412E+02  0.00000000000E+00 0. -1.
<mgrwt>
<rscale>  1 0.30000000E+03</rscale>
<asrwt>0</asrwt>
<pdfrwt beam="1">  1        3 0.12219569E+00 0.30000000E+03</pdfrwt>
<pdfrwt beam="2">0</pdfrwt>
<totfact> 0.21811709E+00</totfact>
</mgrwt>
</event>
<event>
 6    1  0.1969531E-004  0.3000000E+03  0.7818608E-02  0.1093470E+00
          1   -1    0    0  502    0  0.00000000000E+00  0.00000000000E+00  0.39716545339E+02  0.39716545339E+02  0.00000000000E+00 0.  1.
         13   -1    0    0    0    0 -0.00000000000E+00 -0.00000000000E+00 -0.10000000000E+04  0.10000000000E+04  0.00000000000E+00 0.  1.
    9000005    2    1    2  501    0 -0.31802831906E+02 -0.44299457384E+02 -0.69889094211E+03  0.77269611979E+03  0.32501828031E+03 0.  0.
         13    1    3    3    0    0 -0.62818821100E+02 -0.88815657585E+02 -0.46922842970E+02  0.11847437912E+03  0.00000000000E+00 0.  1.
          3    1    3    3  501    0  0.31015989193E+02  0.44516200201E+02 -0.65196809914E+03  0.65422174066E+03  0.00000000000E+00 0.  1.
         21    1    1    2  502  501  0.31802831906E+02  0.44299457384E+02 -0.26139251255E+03  0.26702042555E+03  0.00000000000E+00 0.  1.
<mgrwt>
<rscale>  1 0.30000000E+03</rscale>
<asrwt>0</asrwt>
<pdfrwt beam="1">  1        1 0.14442411E+00 0.30000000E+03</pdfrwt>
<pdfrwt beam="2">0</pdfrwt>
<totfact> 0.19187163E+01</totfact>
</mgrwt>
</event>
<event>
 6    1  0.1969531E-004  0.3000000E+03  0.7818608E-02  0.1093470E+00
          1   -1    0    0  502    0  0.00000000000E+00  0.00000000000E+00  0.53049292476E+02  0.53049292476E+02  0.00000000000E+00 0.  1.
         13   -1    0    0    0    0 -0.00000000000E+00 -0.00000000000E+00 -0.10000000000E+04  0.10000000000E+04  0.00000000000E+00 0.  1.
    9000005    2    1    2  501    0  0.11588263110E+02 -0.29865911180E+02 -0.96039146800E+03  0.10183086170E+04  0.33700802232E+03 0.  0.
         13    1    3    3    0    0 -0.98846560370E+01  0.34697967975E+02  0.16058504033E+02  0.39490897157E+02  0.00000000000E+00 0.  1.
          1    1    3    3  501    0  0.21472919147E+02 -0.64563879154E+02 -0.97644997203E+03  0.97881771981E+03  0.00000000000E+00 0.  1.
         21    1    1    2  502  501 -0.11588263110E+02  0.29865911180E+02  0.13440760472E+02  0.34740675505E+02  0.00000000000E+00 0.  1.
<mgrwt>
<rscale>  1 0.30000000E+03</rscale>
<asrwt>0</asrwt>
<pdfrwt beam="1">  1        1 0.19290692E+00 0.30000000E+03</pdfrwt>
<pdfrwt beam="2">0</pdfrwt>
<totfact> 0.11072955E+01</totfact>
</mgrwt>
</event>
<event>
 6    1  0.1969531E-004  0.3000000E+03  0.7818608E-02  0.1093470E+00
          1   -1    0    0  502    0  0.00000000000E+00  0.00000000000E+00  0.63389823331E+02  0.63389823331E+02  0.00000000000E+00 0.  1.
         13   -1    0    0    0    0 -0.00000000000E+00 -0.00000000000E+00 -0.10000000000E+04  0.10000000000E+04  0.00000000000E+00 0.  1.
    9000005    2    1    2  501    0  0.76827325227E+02  0.95751829658E+01 -0.93831559743E+03  0.98594932688E+03  0.29268719270E+03 0.  0.
         13    1    3    3    0    0  0.96027901592E+02  0.13641684680E+03 -0.41821053984E+03  0.45025655976E+03  0.00000000000E+00 0.  1.
          1    1    3    3  501    0 -0.19200576364E+02 -0.12684166383E+03 -0.52010505759E+03  0.53569276712E+03  0.00000000000E+00 0.  1.
         21    1    1    2  502  501 -0.76827325227E+02 -0.95751829658E+01  0.17054207605E+01  0.77440496450E+02  0.00000000000E+00 0.  1.
<mgrwt>
<rscale>  1 0.30000000E+03</rscale>
<asrwt>0</asrwt>
<pdfrwt beam="1">  1        1 0.23050893E+00 0.30000000E+03</pdfrwt>
<pdfrwt beam="2">0</pdfrwt>
<totfact> 0.73599320E+00</totfact>
</mgrwt>
</event>
<event>
 6    1  0.1969531E-004  0.3000000E+03  0.7818608E-02  0.1093470E+00
          1   -1    0    0  502    0  0.00000000000E+00  0.00000000000E+00  0.58417882373E+02  0.58417882373E+02  0.00000000000E+00 0.  1.
         13   -1    0    0    0    0 -0.00000000000E+00 -0.00000000000E+00 -0.10000000000E+04  0.10000000000E+04  0.00000000000E+00 0.  1.
    9000005    2    1    2  501    0  0.10456212979E+02 -0.13193477683E+00 -0.97126144850E+03  0.10269502406E+04  0.33341962383E+03 0.  0.
         13    1    3    3    0    0  0.15357481294E+03  0.67765808891E+01 -0.73281024992E+03  0.74876031385E+03  0.00000000000E+00 0.  1.
          1    1    3    3  501    0 -0.14311859997E+03 -0.69085156659E+01 -0.23845119859E+03  0.27818992676E+03  0.00000000000E+00 0.  1.
         21    1    1    2  502  501 -0.10456212979E+02  0.13193477683E+00  0.29679330874E+02  0.31467641758E+02  0.00000000000E+00 0.  1.
<mgrwt>
<rscale>  1 0.30000000E+03</rscale>
<asrwt>0</asrwt>
<pdfrwt beam="1">  1        1 0.21242911E+00 0.30000000E+03</pdfrwt>
<pdfrwt beam="2">0</pdfrwt>
<totfact> 0.89465395E+00</totfact>
</mgrwt>
</event>
<event>
 6    1  0.1969531E-004  0.3000000E+03  0.7818608E-02  0.1093470E+00
          1   -1    0    0  502    0  0.00000000000E+00  0.00000000000E+00  0.42996175318E+02  0.42996175318E+02  0.00000000000E+00 0.  1.
         13   -1    0    0    0    0 -0.00000000000E+00 -0.00000000000E+00 -0.10000000000E+04  0.10000000000E+04  0.00000000000E+00 0.  1.
    9000005    2    1    2  501    0  0.57383384450E+02  0.40674945819E+02 -0.84706672808E+03  0.91248384166E+03  0.33189970690E+03 0.  0.
         13    1    3    3    0    0  0.27237054388E+02 -0.13430930178E+03 -0.54618814612E+03  0.56311840374E+03  0.00000000000E+00 0.  1.
          1    1    3    3  501    0  0.30146330062E+02  0.17498424760E+03 -0.30087858196E+03  0.34936543791E+03  0.00000000000E+00 0.  1.
         21    1    1    2  502  501 -0.57383384450E+02 -0.40674945819E+02 -0.10993709660E+03  0.13051233366E+03  0.00000000000E+00 0.  1.
<mgrwt>
<rscale>  1 0.30000000E+03</rscale>
<asrwt>0</asrwt>
<pdfrwt beam="1">  1        1 0.15635006E+00 0.30000000E+03</pdfrwt>
<pdfrwt beam="2">0</pdfrwt>
<totfact> 0.16687870E+01</totfact>
</mgrwt>
</event>
<event>
 6    1  0.1969531E-004  0.3000000E+03  0.7818608E-02  0.1093470E+00
          1   -1    0    0  502    0  0.00000000000E+00  0.00000000000E+00  0.35087160014E+02  0.35087160014E+02  0.00000000000E+00 0.  1.
         13   -1    0    0    0    0 -0.00000000000E+00 -0.00000000000E+00 -0.10000000000E+04  0.10000000000E+04  0.00000000000E+00 0.  1.
    9000005    2    1    2  501    0  0.94330277516E+01  0.63421935514E+01 -0.97160177881E+03  0.10218982505E+04  0.31644401140E+03 0.  0.
         13    1    3    3    0    0 -0.12785267277E+03  0.86123411564E+02 -0.55675475128E+03  0.57770182709E+03  0.00000000000E+00 0.  1.
          1    1    3    3  501    0  0.13728570052E+03 -0.79781218013E+02 -0.41484702754E+03  0.44419642341E+03  0.00000000000E+00 0.  1.
         21    1    1    2  502  501 -0.94330277516E+01 -0.63421935514E+01  0.66889388250E+01  0.13188909516E+02  0.00000000000E+00 0. -1.
<mgrwt>
<rscale>  1 0.30000000E+03</rscale>
<asrwt>0</asrwt>
<pdfrwt beam="1">  1        1 0.12758994E+00 0.30000000E+03</pdfrwt>
<pdfrwt beam="2">0</pdfrwt>
<totfact> 0.23584845E+01</totfact>
</mgrwt>
</event>
<event>
 6    1  0.1969531E-004  0.3000000E+03  0.7818608E-02  0.1093470E+00
          1   -1    0    0  502    0  0.00000000000E+00  0.00000000000E+00  0.28093734007E+02  0.28093734007E+02  0.00000000000E+00 0.  1.
         13   -1    0    0    0    0 -0.00000000000E+00 -0.00000000000E+00 -0.10000000000E+04  0.10000000000E+04  0.00000000000E+00 0.  1.
    9000005    2    1    2  501    0 -0.18690799362E+02 -0.18817365756E+02 -0.94890894289E+03  0.99298937381E+03  0.29136965417E+03 0.  0.
         13    1    3    3    0    0  0.80708927322E+02  0.10466961728E+03 -0.48795131992E+03  0.50553550849E+03  0.00000000000E+00 0.  1.
          1    1    3    3  501    0 -0.99399726684E+02 -0.12348698304E+03 -0.46095762297E+03  0.48745386532E+03  0.00000000000E+00 0.  1.
         21    1    1    2  502  501  0.18690799362E+02  0.18817365756E+02 -0.22997323103E+02  0.35104360195E+02  0.00000000000E+00 0. -1.
<mgrwt>
<rscale>  1 0.30000000E+03</rscale>
<asrwt>0</asrwt>
<pdfrwt beam="1">  1        1 0.10215925E+00 0.30000000E+03</pdfrwt>
<pdfrwt beam="2">0</pdfrwt>
<totfact> 0.33170955E+01</totfact>
</mgrwt>
</event>
<event>
 6    1  0.1969531E-004  0.3000000E+03  0.7818608E-02  0.1093470E+00
          1   -1    0    0  502    0  0.00000000000E+00  0.00000000000E+00  0.32808386284E+02  0.32808386284E+02  0.00000000000E+00 0.  1.
         13   -1    0    0    0    0 -0.00000000000E+00 -0.00000000000E+00 -0.10000000000E+04  0.10000000000E+04  0.00000000000E+00 0.  1.
    9000005    2    1    2  501    0  0.16576355145E+02  0.89800198689E+01 -0.95375043641E+03  0.10096549512E+04  0.33076851318E+03 0.  0.
         13    1    3    3    0    0 -0.91716968068E+02  0.49737591358E+01 -0.60797152472E+02  0.11015005338E+03  0.00000000000E+00 0.  1.
          3    1    3    3  501    0  0.10829332321E+03  0.40062607331E+01 -0.89295328394E+03  0.89950489786E+03  0.00000000000E+00 0.  1.
         21    1    1    2  502  501 -0.16576355145E+02 -0.89800198689E+01 -0.13441177302E+02  0.23153435037E+02  0.00000000000E+00 0.  1.
<mgrwt>
<rscale>  1 0.30000000E+03</rscale>
<asrwt>0</asrwt>
<pdfrwt beam="1">  1        1 0.11930347E+00 0.30000000E+03</pdfrwt>
<pdfrwt beam="2">0</pdfrwt>
<totfact> 0.26233202E+01</totfact>
</mgrwt>
</event>
<event>
 6    1  0.1969531E-004  0.3000000E+03  0.7818608E-02  0.1093470E+00
          1   -1    0    0  502    0  0.00000000000E+00  0.00000000000E+00  0.33848781635E+02  0.33848781635E+02  0.00000000000E+00 0.  1.
         13   -1    0    0    0    0 -0.00000000000E+00 -0.00000000000E+00 -0.10000000000E+04  0.10000000000E+04  0.00000000000E+00 0.  1.
    9000005    2    1    2  501    0 -0.37005538247E+01 -0.19425638349E+02 -0.96397838762E+03  0.10139547947E+04  0.31378168255E+03 0.  0.
         13    1    3    3    0    0 -0.85924905686E+02 -0.13392254794E+03 -0.65958536020E+03  0.67850658482E+03  0.00000000000E+00 0.  1.
          1    1    3    3  501    0  0.82224351861E+02  0.11449690959E+03 -0.30439302743E+03  0.33544820985E+03  0.00000000000E+00 0.  1.
         21    1    1    2  502  501  0.37005538247E+01  0.19425638349E+02 -0.21728307397E+01  0.19893986964E+02  0.00000000000E+00 0. -1.
<mgrwt>
<rscale>  1 0.30000000E+03</rscale>
<asrwt>0</asrwt>
<pdfrwt beam="1">  1        1 0.12308674E+00 0.30000000E+03</pdfrwt>
<pdfrwt beam="2">0</pdfrwt>
<totfact> 0.24978581E+01</totfact>
</mgrwt>
</event>
<event>
 6    1  0.1969531E-004  0.3000000E+03  0.7818608E-02  0.1093470E+00
          1   -1    0    0  502    0  0.00000000000E+00  0.00000000000E+00  0.42082029397E+02  0.42082029397E+02  0.00000000000E+00 0.  1.
         13   -1    0    0    0    0 -0.00000000000E+00 -0.00000000000E+00 -0.10000000000E+04  0.10000000000E+04  0.00000000000E+00 0.  1.
    9000005    2    1    2  501    0 -0.36101104002E+00  0.15596872738E+02 -0.97000738785E+03  0.10223450900E+04  0.32253954447E+03 0.  0.
         13    1    3    3    0    0  0.12438241897E+03  0.21611795290E+02 -0.16525524840E+03  0.20795997925E+03  0.00000000000E+00 0.  1.
          1    1    3    3  501    0 -0.12474343001E+03 -0.60149225523E+01 -0.80475213945E+03  0.81438511073E+03  0.00000000000E+00 0.  1.
         21    1    1    2  502  501  0.36101104002E+00 -0.15596872738E+02  0.12089417250E+02  0.19736939419E+02  0.00000000000E+00 0.  1.
<mgrwt>
<rscale>  1 0.30000000E+03</rscale>
<asrwt>0</asrwt>
<pdfrwt beam="1">  1        1 0.15302588E+00 0.30000000E+03</pdfrwt>
<pdfrwt beam="2">0</pdfrwt>
<totfact> 0.17342129E+01</totfact>
</mgrwt>
</event>
<event>
 6    1  0.1969531E-004  0.3000000E+03  0.7818608E-02  0.1093470E+00
          3   -1    0    0  502    0  0.00000000000E+00  0.00000000000E+00  0.21964501937E+02  0.21964501937E+02  0.00000000000E+00 0.  1.
         13   -1    0    0    0    0 -0.00000000000E+00 -0.00000000000E+00 -0.10000000000E+04  0.10000000000E+04  0.00000000000E+00 0.  1.
    9000005    2    1    2  501    0 -0.46862130966E+01  0.11436282448E+02 -0.96408733481E+03  0.10033285043E+04  0.27758052754E+03 0.  0.
         13    1    3    3    0    0 -0.84252446377E+02 -0.93708959217E+02 -0.28586980270E+03  0.31241220824E+03  0.00000000000E+00 0.  1.
          1    1    3    3  501    0  0.79566233280E+02  0.10514524166E+03 -0.67821753211E+03  0.69091629607E+03  0.00000000000E+00 0.  1.
         21    1    1    2  502  501  0.46862130966E+01 -0.11436282448E+02 -0.13948163255E+02  0.18635997628E+02  0.00000000000E+00 0. -1.
<mgrwt>
<rscale>  1 0.30000000E+03</rscale>
<asrwt>0</asrwt>
<pdfrwt beam="1">  1        3 0.79871085E-01 0.30000000E+03</pdfrwt>
<pdfrwt beam="2">0</pdfrwt>
<totfact> 0.67203824E+00</totfact>
</mgrwt>
</event>
<event>
 6    1  0.1969531E-004  0.3000000E+03  0.7818608E-02  0.1093470E+00
          1   -1    0    0  502    0  0.00000000000E+00  0.00000000000E+00  0.33411929928E+02  0.33411929928E+02  0.00000000000E+00 0.  1.
         13   -1    0    0    0    0 -0.00000000000E+00 -0.00000000000E+00 -0.10000000000E+04  0.10000000000E+04  0.00000000000E+00 0.  1.
    9000005    2    1    2  501    0 -0.11245220449E+01 -0.10150072077E+02 -0.96755789779E+03  0.10231538074E+04  0.33252238934E+03 0.  0.
         13    1    3    3    0    0  0.86457991361E+02  0.12780452549E+03 -0.31945735670E+03  0.35477032536E+03  0.00000000000E+00 0.  1.
          1    1    3    3  501    0 -0.87582513406E+02 -0.13795459756E+03 -0.64810054109E+03  0.66838348200E+03  0.00000000000E+00 0.  1.
         21    1    1    2  502  501  0.11245220449E+01  0.10150072077E+02  0.96982771430E+00  0.10258122577E+02  0.00000000000E+00 0. -1.
<mgrwt>
<rscale>  1 0.30000000E+03</rscale>
<asrwt>0</asrwt>
<pdfrwt beam="1">  1        1 0.12149818E+00 0.30000000E+03</pdfrwt>
<pdfrwt beam="2">0</pdfrwt>
<totfact> 0.25495490E+01</totfact>
</mgrwt>
</event>
<event>
 6    1  0.1969531E-004  0.3000000E+03  0.7818608E-02  0.1093470E+00
          1   -1    0    0  502    0  0.00000000000E+00  0.00000000000E+00  0.89093349136E+02  0.89093349136E+02  0.00000000000E+00 0.  1.
         13   -1    0    0    0    0 -0.00000000000E+00 -0.00000000000E+00 -0.10000000000E+04  0.10000000000E+04  0.00000000000E+00 0.  1.
    9000005    2    1    2  501    0  0.43678288703E+02 -0.18457434217E+02 -0.96576830322E+03  0.10165794147E+04  0.31381016744E+03 0.  0.
         13    1    3    3    0    0  0.52649470237E+01  0.89078998840E+02 -0.84748350846E+03  0.85216846034E+03  0.00000000000E+00 0.  1.
          1    1    3    3  501    0  0.38413341680E+02 -0.10753643306E+03 -0.11828479477E+03  0.16441095440E+03  0.00000000000E+00 0.  1.
         21    1    1    2  502  501 -0.43678288703E+02  0.18457434217E+02  0.54861652357E+02  0.72513934394E+02  0.00000000000E+00 0.  1.
<mgrwt>
<rscale>  1 0.30000000E+03</rscale>
<asrwt>0</asrwt>
<pdfrwt beam="1">  1        1 0.32397650E+00 0.30000000E+03</pdfrwt>
<pdfrwt beam="2">0</pdfrwt>
<totfact> 0.26625680E+00</totfact>
</mgrwt>
</event>
<event>
 6    1  0.1969531E-004  0.3000000E+03  0.7818608E-02  0.1093470E+00
          1   -1    0    0  502    0  0.00000000000E+00  0.00000000000E+00  0.52958389470E+02  0.52958389470E+02  0.00000000000E+00 0.  1.
         13   -1    0    0    0    0 -0.00000000000E+00 -0.00000000000E+00 -0.10000000000E+04  0.10000000000E+04  0.00000000000E+00 0.  1.
    9000005    2    1    2  501    0 -0.50987108598E+02  0.18983310913E+02 -0.92372972834E+03  0.99376805928E+03  0.36240625449E+03 0.  0.
         13    1    3    3    0    0 -0.16611557998E+03  0.32850505980E+02 -0.82277493064E+03  0.84001912367E+03  0.00000000000E+00 0.  1.
          1    1    3    3  501    0  0.11512847138E+03 -0.13867195067E+02 -0.10095479771E+03  0.15374893561E+03  0.00000000000E+00 0.  1.
         21    1    1    2  502  501  0.50987108598E+02 -0.18983310913E+02 -0.23311882188E+02  0.59190330186E+02  0.00000000000E+00 0.  1.
<mgrwt>
<rscale>  1 0.30000000E+03</rscale>
<asrwt>0</asrwt>
<pdfrwt beam="1">  1        1 0.19257637E+00 0.30000000E+03</pdfrwt>
<pdfrwt beam="2">0</pdfrwt>
<totfact> 0.11113380E+01</totfact>
</mgrwt>
</event>
<event>
 6    1  0.1969531E-004  0.3000000E+03  0.7818608E-02  0.1093470E+00
          1   -1    0    0  502    0  0.00000000000E+00  0.00000000000E+00  0.40510086211E+02  0.40510086211E+02  0.00000000000E+00 0.  1.
         13   -1    0    0    0    0 -0.00000000000E+00 -0.00000000000E+00 -0.10000000000E+04  0.10000000000E+04  0.00000000000E+00 0.  1.
    9000005    2    1    2  501    0 -0.38248753213E+02  0.22797547104E+02 -0.91550946759E+03  0.97792434563E+03  0.34087497011E+03 0.  0.
         13    1    3    3    0    0 -0.34168440546E+02  0.39115832006E+02  0.94682198688E+01  0.52793729082E+02  0.00000000000E+00 0.  1.
          1    1    3    3  501    0 -0.40803126671E+01 -0.16318284902E+02 -0.92497768746E+03  0.92513061655E+03  0.00000000000E+00 0.  1.
         21    1    1    2  502  501  0.38248753213E+02 -0.22797547104E+02 -0.43980446198E+02  0.62585740582E+02  0.00000000000E+00 0.  1.
<mgrwt>
<rscale>  1 0.30000000E+03</rscale>
<asrwt>0</asrwt>
<pdfrwt beam="1">  1        1 0.14730972E+00 0.30000000E+03</pdfrwt>
<pdfrwt beam="2">0</pdfrwt>
<totfact> 0.18542084E+01</totfact>
</mgrwt>
</event>
<event>
 6    1  0.1969531E-004  0.3000000E+03  0.7818608E-02  0.1093470E+00
          1   -1    0    0  502    0  0.00000000000E+00  0.00000000000E+00  0.31549291115E+02  0.31549291115E+02  0.00000000000E+00 0.  1.
         13   -1    0    0    0    0 -0.00000000000E+00 -0.00000000000E+00 -0.10000000000E+04  0.10000000000E+04  0.00000000000E+00 0.  1.
    9000005    2    1    2  501    0  0.69904487877E+01 -0.10730602283E+02 -0.94288264302E+03  0.10029531691E+04  0.34164801886E+03 0.  0.
         13    1    3    3    0    0  0.12208704794E+02 -0.97643992091E+02 -0.90095704236E+03  0.90631506323E+03  0.00000000000E+00 0.  1.
          3    1    3    3  501    0 -0.52182560060E+01  0.86913389808E+02 -0.41925600658E+02  0.96638105911E+02  0.00000000000E+00 0.  1.
         21    1    1    2  502  501 -0.69904487877E+01  0.10730602283E+02 -0.25568065866E+02  0.28596121970E+02  0.00000000000E+00 0.  1.
<mgrwt>
<rscale>  1 0.30000000E+03</rscale>
<asrwt>0</asrwt>
<pdfrwt beam="1">  1        1 0.11472494E+00 0.30000000E+03</pdfrwt>
<pdfrwt beam="2">0</pdfrwt>
<totfact> 0.27868290E+01</totfact>
</mgrwt>
</event>
<event>
 6    1  0.1969531E-004  0.3000000E+03  0.7818608E-02  0.1093470E+00
          1   -1    0    0  502    0  0.00000000000E+00  0.00000000000E+00  0.29598570034E+02  0.29598570034E+02  0.00000000000E+00 0.  1.
         13   -1    0    0    0    0 -0.00000000000E+00 -0.00000000000E+00 -0.10000000000E+04  0.10000000000E+04  0.00000000000E+00 0.  1.
    9000005    2    1    2  501    0  0.11388430291E+02  0.53262245784E+01 -0.88527236996E+03  0.94354613328E+03  0.32621169754E+03 0.  0.
         13    1    3    3    0    0 -0.15264063952E+03  0.37258900395E+02 -0.37424863368E+03  0.40589337307E+03  0.00000000000E+00 0.  1.
          1    1    3    3  501    0  0.16402906981E+03 -0.31932675817E+02 -0.51102373628E+03  0.53765276022E+03  0.00000000000E+00 0.  1.
         21    1    1    2  502  501 -0.11388430291E+02 -0.53262245784E+01 -0.85129060010E+02  0.86052436752E+02  0.00000000000E+00 0.  1.
<mgrwt>
<rscale>  1 0.30000000E+03</rscale>
<asrwt>0</asrwt>
<pdfrwt beam="1">  1        1 0.10763139E+00 0.30000000E+03</pdfrwt>
<pdfrwt beam="2">0</pdfrwt>
<totfact> 0.30698236E+01</totfact>
</mgrwt>
</event>
<event>
 6    1  0.1969531E-004  0.3000000E+03  0.7818608E-02  0.1093470E+00
          1   -1    0    0  502    0  0.00000000000E+00  0.00000000000E+00  0.31825008225E+02  0.31825008225E+02  0.00000000000E+00 0.  1.
         13   -1    0    0    0    0 -0.00000000000E+00 -0.00000000000E+00 -0.10000000000E+04  0.10000000000E+04  0.00000000000E+00 0.  1.
    9000005    2    1    2  501    0 -0.16661025333E+02  0.18910993820E+02 -0.92720153897E+03  0.98372054599E+03  0.32767087645E+03 0.  0.
         13    1    3    3    0    0 -0.12864541374E+02  0.26707477671E+02  0.20459954789E+02  0.36019377261E+02  0.00000000000E+00 0.  1.
          3    1    3    3  501    0 -0.37964839599E+01 -0.77964838509E+01 -0.94766149376E+03  0.94770116873E+03  0.00000000000E+00 0.  1.
         21    1    1    2  502  501  0.16661025333E+02 -0.18910993820E+02 -0.40973452802E+02  0.48104462235E+02  0.00000000000E+00 0. -1.
<mgrwt>
<rscale>  1 0.30000000E+03</rscale>
<asrwt>0</asrwt>
<pdfrwt beam="1">  1        1 0.11572755E+00 0.30000000E+03</pdfrwt>
<pdfrwt beam="2">0</pdfrwt>
<totfact> 0.27498429E+01</totfact>
</mgrwt>
</event>
<event>
 6    1  0.1969531E-004  0.3000000E+03  0.7818608E-02  0.1093470E+00
          1   -1    0    0  502    0  0.00000000000E+00  0.00000000000E+00  0.27345181544E+02  0.27345181544E+02  0.00000000000E+00 0.  1.
         13   -1    0    0    0    0 -0.00000000000E+00 -0.00000000000E+00 -0.10000000000E+04  0.10000000000E+04  0.00000000000E+00 0.  1.
    9000005    2    1    2  501    0 -0.44050204490E+01  0.17888742553E+02 -0.93193480580E+03  0.98265143762E+03  0.31106583592E+03 0.  0.
         13    1    3    3    0    0 -0.96713179825E+02  0.21089479947E+02 -0.84354504956E+02  0.13005340373E+03  0.00000000000E+00 0.  1.
          1    1    3    3  501    0  0.92308159376E+02 -0.32007373940E+01 -0.84758030084E+03  0.85259803388E+03  0.00000000000E+00 0.  1.
         21    1    1    2  502  501  0.44050204490E+01 -0.17888742553E+02 -0.40720012657E+02  0.44693743926E+02  0.00000000000E+00 0.  1.
<mgrwt>
<rscale>  1 0.30000000E+03</rscale>
<asrwt>0</asrwt>
<pdfrwt beam="1">  1        1 0.99437233E-01 0.30000000E+03</pdfrwt>
<pdfrwt beam="2">0</pdfrwt>
<totfact> 0.34510295E+01</totfact>
</mgrwt>
</event>
<event>
 6    1  0.1969531E-004  0.3000000E+03  0.7818608E-02  0.1093470E+00
          1   -1    0    0  502    0  0.00000000000E+00  0.00000000000E+00  0.32568868682E+02  0.32568868682E+02  0.00000000000E+00 0.  1.
         13   -1    0    0    0    0 -0.00000000000E+00 -0.00000000000E+00 -0.10000000000E+04  0.10000000000E+04  0.00000000000E+00 0.  1.
    9000005    2    1    2  501    0 -0.16707913931E+02  0.26540444308E+02 -0.93553875737E+03  0.98783998441E+03  0.31561292541E+03 0.  0.
         13    1    3    3    0    0 -0.12238803359E+03  0.36677429639E+02 -0.82402507697E+03  0.83387132825E+03  0.00000000000E+00 0.  1.
          3    1    3    3  501    0  0.10568011966E+03 -0.10136985331E+02 -0.11151368041E+03  0.15396865616E+03  0.00000000000E+00 0.  1.
         21    1    1    2  502  501  0.16707913931E+02 -0.26540444308E+02 -0.31892373944E+02  0.44728884267E+02  0.00000000000E+00 0. -1.
<mgrwt>
<rscale>  1 0.30000000E+03</rscale>
<asrwt>0</asrwt>
<pdfrwt beam="1">  1        1 0.11843250E+00 0.30000000E+03</pdfrwt>
<pdfrwt beam="2">0</pdfrwt>
<totfact> 0.26533914E+01</totfact>
</mgrwt>
</event>
<event>
 6    1  0.1969531E-004  0.3000000E+03  0.7818608E-02  0.1093470E+00
          1   -1    0    0  502    0  0.00000000000E+00  0.00000000000E+00  0.41759132354E+02  0.41759132354E+02  0.00000000000E+00 0.  1.
         13   -1    0    0    0    0 -0.00000000000E+00 -0.00000000000E+00 -0.10000000000E+04  0.10000000000E+04  0.00000000000E+00 0.  1.
    9000005    2    1    2  501    0  0.33011142562E+02 -0.10514735700E+02 -0.95074329224E+03  0.10063118640E+04  0.32794887497E+03 0.  0.
         13    1    3    3    0    0  0.15678787389E+03 -0.91698675429E+02 -0.53695967371E+03  0.56684810635E+03  0.00000000000E+00 0.  1.
          3    1    3    3  501    0 -0.12377673133E+03  0.81183939729E+02 -0.41378361853E+03  0.43946375761E+03  0.00000000000E+00 0.  1.
         21    1    1    2  502  501 -0.33011142562E+02  0.10514735700E+02 -0.74975754055E+01  0.35447268401E+02  0.00000000000E+00 0. -1.
<mgrwt>
<rscale>  1 0.30000000E+03</rscale>
<asrwt>0</asrwt>
<pdfrwt beam="1">  1        1 0.15185171E+00 0.30000000E+03</pdfrwt>
<pdfrwt beam="2">0</pdfrwt>
<totfact> 0.17580621E+01</totfact>
</mgrwt>
</event>
<event>
 6    1  0.1969531E-004  0.3000000E+03  0.7818608E-02  0.1093470E+00
          1   -1    0    0  502    0  0.00000000000E+00  0.00000000000E+00  0.28352875324E+02  0.28352875324E+02  0.00000000000E+00 0.  1.
         13   -1    0    0    0    0 -0.00000000000E+00 -0.00000000000E+00 -0.10000000000E+04  0.10000000000E+04  0.00000000000E+00 0.  1.
    9000005    2    1    2  501    0 -0.94827953773E+01 -0.15879641234E+01 -0.94956063106E+03  0.10042643254E+04  0.32678585975E+03 0.  0.
         13    1    3    3    0    0 -0.63645056847E+02  0.11916227565E+03 -0.18924355292E+03  0.23251551243E+03  0.00000000000E+00 0.  1.
          3    1    3    3  501    0  0.54162261469E+02 -0.12075023978E+03 -0.76031707814E+03  0.77174881294E+03  0.00000000000E+00 0.  1.
         21    1    1    2  502  501  0.94827953773E+01  0.15879641234E+01 -0.22086493617E+02  0.24088549947E+02  0.00000000000E+00 0.  1.
<mgrwt>
<rscale>  1 0.30000000E+03</rscale>
<asrwt>0</asrwt>
<pdfrwt beam="1">  1        1 0.10310158E+00 0.30000000E+03</pdfrwt>
<pdfrwt beam="2">0</pdfrwt>
<totfact> 0.32725011E+01</totfact>
</mgrwt>
</event>
<event>
 6    1  0.1969531E-004  0.3000000E+03  0.7818608E-02  0.1093470E+00
          1   -1    0    0  502    0  0.00000000000E+00  0.00000000000E+00  0.28773175298E+02  0.28773175298E+02  0.00000000000E+00 0.  1.
         13   -1    0    0    0    0 -0.00000000000E+00 -0.00000000000E+00 -0.10000000000E+04  0.10000000000E+04  0.00000000000E+00 0.  1.
    9000005    2    1    2  501    0  0.96982769863E+01  0.75219417196E+01 -0.95030137966E+03  0.10045139413E+04  0.32530740832E+03 0.  0.
         13    1    3    3    0    0  0.16594283446E+03 -0.16413873021E+02 -0.45445127231E+03  0.48407891757E+03  0.00000000000E+00 0.  1.
          1    1    3    3  501    0 -0.15624455747E+03  0.23935814741E+02 -0.49585010735E+03  0.52043502373E+03  0.00000000000E+00 0.  1.
         21    1    1    2  502  501 -0.96982769863E+01 -0.75219417196E+01 -0.20925445038E+02  0.24259233990E+02  0.00000000000E+00 0. -1.
<mgrwt>
<rscale>  1 0.30000000E+03</rscale>
<asrwt>0</asrwt>
<pdfrwt beam="1">  1        1 0.10462995E+00 0.30000000E+03</pdfrwt>
<pdfrwt beam="2">0</pdfrwt>
<totfact> 0.32020089E+01</totfact>
</mgrwt>
</event>
<event>
 6    1  0.1969531E-004  0.3000000E+03  0.7818608E-02  0.1093470E+00
          1   -1    0    0  502    0  0.00000000000E+00  0.00000000000E+00  0.56984187188E+02  0.56984187188E+02  0.00000000000E+00 0.  1.
         13   -1    0    0    0    0 -0.00000000000E+00 -0.00000000000E+00 -0.10000000000E+04  0.10000000000E+04  0.00000000000E+00 0.  1.
    9000005    2    1    2  501    0  0.36017617779E+02  0.32528076371E+02 -0.95045111760E+03  0.10078860375E+04  0.33184573698E+03 0.  0.
         13    1    3    3    0    0  0.13915199806E+02 -0.89938264857E+02 -0.82906058393E+03  0.83404075206E+03  0.00000000000E+00 0.  1.
          3    1    3    3  501    0  0.22102417973E+02  0.12246634123E+03 -0.12139053367E+03  0.17384528547E+03  0.00000000000E+00 0.  1.
         21    1    1    2  502  501 -0.36017617779E+02 -0.32528076371E+02  0.74353047878E+01  0.49098149662E+02  0.00000000000E+00 0.  1.
<mgrwt>
<rscale>  1 0.30000000E+03</rscale>
<asrwt>0</asrwt>
<pdfrwt beam="1">  1        1 0.20721566E+00 0.30000000E+03</pdfrwt>
<pdfrwt beam="2">0</pdfrwt>
<totfact> 0.94674608E+00</totfact>
</mgrwt>
</event>
<event>
 6    1  0.1969531E-004  0.3000000E+03  0.7818608E-02  0.1093470E+00
          1   -1    0    0  502    0  0.00000000000E+00  0.00000000000E+00  0.19271318896E+02  0.19271318896E+02  0.00000000000E+00 0.  1.
         13   -1    0    0    0    0 -0.00000000000E+00 -0.00000000000E+00 -0.10000000000E+04  0.10000000000E+04  0.00000000000E+00 0.  1.
    9000005    2    1    2  501    0  0.66050605463E+01 -0.10334213631E+02 -0.94297751321E+03  0.97957782480E+03  0.26498245531E+03 0.  0.
         13    1    3    3    0    0  0.94134611932E+01 -0.92831945667E+02 -0.85056313066E+03  0.85566583584E+03  0.00000000000E+00 0.  1.
          1    1    3    3  501    0 -0.28084006469E+01  0.82497732036E+02 -0.92414382548E+02  0.12391198896E+03  0.00000000000E+00 0.  1.
         21    1    1    2  502  501 -0.66050605463E+01  0.10334213631E+02 -0.37751167897E+02  0.39693494099E+02  0.00000000000E+00 0. -1.
<mgrwt>
<rscale>  1 0.30000000E+03</rscale>
<asrwt>0</asrwt>
<pdfrwt beam="1">  1        1 0.70077671E-01 0.30000000E+03</pdfrwt>
<pdfrwt beam="2">0</pdfrwt>
<totfact> 0.56299376E+01</totfact>
</mgrwt>
</event>
<event>
 6    1  0.1969531E-004  0.3000000E+03  0.7818608E-02  0.1093470E+00
          1   -1    0    0  502    0  0.00000000000E+00  0.00000000000E+00  0.26572168063E+02  0.26572168063E+02  0.00000000000E+00 0.  1.
         13   -1    0    0    0    0 -0.00000000000E+00 -0.00000000000E+00 -0.10000000000E+04  0.10000000000E+04  0.00000000000E+00 0.  1.
    9000005    2    1    2  501    0 -0.71482946665E+01  0.10759842153E+02 -0.97452799896E+03  0.10136074973E+04  0.27843933909E+03 0.  0.
         13    1    3    3    0    0  0.32638031262E+02  0.14627664747E+02 -0.97294511276E+03  0.97360228128E+03  0.00000000000E+00 0.  1.
          1    1    3    3  501    0 -0.39786325929E+02 -0.38678225942E+01 -0.15828862020E+01  0.40005216051E+02  0.00000000000E+00 0.  1.
         21    1    1    2  502  501  0.71482946665E+01 -0.10759842153E+02  0.11001670259E+01  0.12964670736E+02  0.00000000000E+00 0. -1.
<mgrwt>
<rscale>  1 0.30000000E+03</rscale>
<asrwt>0</asrwt>
<pdfrwt beam="1">  1        1 0.96626269E-01 0.30000000E+03</pdfrwt>
<pdfrwt beam="2">0</pdfrwt>
<totfact> 0.35978795E+01</totfact>
</mgrwt>
</event>
<event>
 6    1  0.1969531E-004  0.3000000E+03  0.7818608E-02  0.1093470E+00
          1   -1    0    0  502    0  0.00000000000E+00  0.00000000000E+00  0.30615612689E+02  0.30615612689E+02  0.00000000000E+00 0.  1.
         13   -1    0    0    0    0 -0.00000000000E+00 -0.00000000000E+00 -0.10000000000E+04  0.10000000000E+04  0.00000000000E+00 0.  1.
    9000005    2    1    2  501    0 -0.11583629192E+01  0.14818249737E+02 -0.95637896661E+03  0.10108655925E+04  0.32705900995E+03 0.  0.
         13    1    3    3    0    0  0.91322098482E+02  0.36067535578E+02 -0.88919439234E+03  0.89459893817E+03  0.00000000000E+00 0.  1.
          1    1    3    3  501    0 -0.92480461402E+02 -0.21249285841E+02 -0.67184574268E+02  0.11626665433E+03  0.00000000000E+00 0.  1.
         21    1    1    2  502  501  0.11583629192E+01 -0.14818249737E+02 -0.13005420699E+02  0.19750020190E+02  0.00000000000E+00 0. -1.
<mgrwt>
<rscale>  1 0.30000000E+03</rscale>
<asrwt>0</asrwt>
<pdfrwt beam="1">  1        1 0.11132974E+00 0.30000000E+03</pdfrwt>
<pdfrwt beam="2">0</pdfrwt>
<totfact> 0.29174387E+01</totfact>
</mgrwt>
</event>
<event>
 6    1  0.1969531E-004  0.3000000E+03  0.7818608E-02  0.1093470E+00
          1   -1    0    0  502    0  0.00000000000E+00  0.00000000000E+00  0.29339295211E+02  0.29339295211E+02  0.00000000000E+00 0.  1.
         13   -1    0    0    0    0 -0.00000000000E+00 -0.00000000000E+00 -0.10000000000E+04  0.10000000000E+04  0.00000000000E+00 0.  1.
    9000005    2    1    2  501    0  0.10609247450E+02 -0.42817208543E+00 -0.95460605274E+03  0.10100911443E+04  0.32999797623E+03 0.  0.
         13    1    3    3    0    0 -0.61605536716E+02 -0.11140738119E+02 -0.10877122576E+02  0.63542662798E+02  0.00000000000E+00 0.  1.
          1    1    3    3  501    0  0.72214784166E+02  0.10712566033E+02 -0.94372893016E+03  0.94654848146E+03  0.00000000000E+00 0.  1.
         21    1    1    2  502  501 -0.10609247450E+02  0.42817208543E+00 -0.16054652051E+02  0.19248150957E+02  0.00000000000E+00 0. -1.
<mgrwt>
<rscale>  1 0.30000000E+03</rscale>
<asrwt>0</asrwt>
<pdfrwt beam="1">  1        1 0.10668857E+00 0.30000000E+03</pdfrwt>
<pdfrwt beam="2">0</pdfrwt>
<totfact> 0.31104859E+01</totfact>
</mgrwt>
</event>
<event>
 6    1  0.1969531E-004  0.3000000E+03  0.7818608E-02  0.1093470E+00
          1   -1    0    0  502    0  0.00000000000E+00  0.00000000000E+00  0.30069946313E+02  0.30069946313E+02  0.00000000000E+00 0.  1.
         13   -1    0    0    0    0 -0.00000000000E+00 -0.00000000000E+00 -0.10000000000E+04  0.10000000000E+04  0.00000000000E+00 0.  1.
    9000005    2    1    2  501    0 -0.99460177403E+01  0.25455378222E+02 -0.94365955769E+03  0.99216165554E+03  0.30519582297E+03 0.  0.
         13    1    3    3    0    0 -0.13888244165E+03 -0.54065723920E+02 -0.56496687292E+03  0.58429359281E+03  0.00000000000E+00 0.  1.
          1    1    3    3  501    0  0.12893642391E+03  0.79521102142E+02 -0.37869268477E+03  0.40786806273E+03  0.00000000000E+00 0.  1.
         21    1    1    2  502  501  0.99460177403E+01 -0.25455378222E+02 -0.26270496001E+02  0.37908290775E+02  0.00000000000E+00 0. -1.
<mgrwt>
<rscale>  1 0.30000000E+03</rscale>
<asrwt>0</asrwt>
<pdfrwt beam="1">  1        1 0.10934549E+00 0.30000000E+03</pdfrwt>
<pdfrwt beam="2">0</pdfrwt>
<totfact> 0.29978226E+01</totfact>
</mgrwt>
</event>
<event>
 6    1  0.1969531E-004  0.3000000E+03  0.7818608E-02  0.1093470E+00
          1   -1    0    0  502    0  0.00000000000E+00  0.00000000000E+00  0.54278228395E+02  0.54278228395E+02  0.00000000000E+00 0.  1.
         13   -1    0    0    0    0 -0.00000000000E+00 -0.00000000000E+00 -0.10000000000E+04  0.10000000000E+04  0.00000000000E+00 0.  1.
    9000005    2    1    2  501    0  0.41702696701E+02 -0.15069848882E+02 -0.94960049002E+03  0.10097668847E+04  0.34047298807E+03 0.  0.
         13    1    3    3    0    0  0.18487340201E+02 -0.63119013362E+02 -0.95396083635E+03  0.95622542786E+03  0.00000000000E+00 0.  1.
          3    1    3    3  501    0  0.23215356500E+02  0.48049164480E+02  0.43603463282E+01  0.53541456879E+02  0.00000000000E+00 0.  1.
         21    1    1    2  502  501 -0.41702696701E+02  0.15069848882E+02  0.38787184175E+01  0.44511343655E+02  0.00000000000E+00 0.  1.
<mgrwt>
<rscale>  1 0.30000000E+03</rscale>
<asrwt>0</asrwt>
<pdfrwt beam="1">  1        1 0.19737579E+00 0.30000000E+03</pdfrwt>
<pdfrwt beam="2">0</pdfrwt>
<totfact> 0.10542130E+01</totfact>
</mgrwt>
</event>
<event>
 6    1  0.1969531E-004  0.3000000E+03  0.7818608E-02  0.1093470E+00
          1   -1    0    0  502    0  0.00000000000E+00  0.00000000000E+00  0.37272503148E+02  0.37272503148E+02  0.00000000000E+00 0.  1.
         13   -1    0    0    0    0 -0.00000000000E+00 -0.00000000000E+00 -0.10000000000E+04  0.10000000000E+04  0.00000000000E+00 0.  1.
    9000005    2    1    2  501    0  0.20119681641E+02  0.36930116809E+02 -0.91966414249E+03  0.97708041392E+03  0.32731539097E+03 0.  0.
         13    1    3    3    0    0  0.11561825757E+03  0.14194231022E+03 -0.43227823839E+03  0.46944613781E+03  0.00000000000E+00 0.  1.
          3    1    3    3  501    0 -0.95498575931E+02 -0.10501219341E+03 -0.48738590410E+03  0.50763427611E+03  0.00000000000E+00 0.  1.
         21    1    1    2  502  501 -0.20119681641E+02 -0.36930116809E+02 -0.43063354367E+02  0.60192089232E+02  0.00000000000E+00 0.  1.
<mgrwt>
<rscale>  1 0.30000000E+03</rscale>
<asrwt>0</asrwt>
<pdfrwt beam="1">  1        1 0.13553666E+00 0.30000000E+03</pdfrwt>
<pdfrwt beam="2">0</pdfrwt>
<totfact> 0.21361266E+01</totfact>
</mgrwt>
</event>
<event>
 6    1  0.1969531E-004  0.3000000E+03  0.7818608E-02  0.1093470E+00
          1   -1    0    0  502    0  0.00000000000E+00  0.00000000000E+00  0.30105746891E+02  0.30105746891E+02  0.00000000000E+00 0.  1.
         13   -1    0    0    0    0 -0.00000000000E+00 -0.00000000000E+00 -0.10000000000E+04  0.10000000000E+04  0.00000000000E+00 0.  1.
    9000005    2    1    2  501    0  0.22477525104E+02 -0.43244663955E+00 -0.92546031928E+03  0.98030815036E+03  0.32252417111E+03 0.  0.
         13    1    3    3    0    0  0.95318121116E+02  0.32992939296E+02 -0.88463210055E+03  0.89036398825E+03  0.00000000000E+00 0.  1.
          1    1    3    3  501    0 -0.72840596011E+02 -0.33425385936E+02 -0.40828218733E+02  0.89944162107E+02  0.00000000000E+00 0.  1.
         21    1    1    2  502  501 -0.22477525104E+02  0.43244663955E+00 -0.44433933830E+02  0.49797596534E+02  0.00000000000E+00 0.  1.
<mgrwt>
<rscale>  1 0.30000000E+03</rscale>
<asrwt>0</asrwt>
<pdfrwt beam="1">  1        1 0.10947567E+00 0.30000000E+03</pdfrwt>
<pdfrwt beam="2">0</pdfrwt>
<totfact> 0.29924529E+01</totfact>
</mgrwt>
</event>
<event>
 6    1  0.1969531E-004  0.3000000E+03  0.7818608E-02  0.1093470E+00
          1   -1    0    0  502    0  0.00000000000E+00  0.00000000000E+00  0.33330236069E+02  0.33330236069E+02  0.00000000000E+00 0.  1.
         13   -1    0    0    0    0 -0.00000000000E+00 -0.00000000000E+00 -0.10000000000E+04  0.10000000000E+04  0.00000000000E+00 0.  1.
    9000005    2    1    2  501    0  0.21006449721E+02  0.18722415101E+01 -0.94878374879E+03  0.10056772840E+04  0.33279336149E+03 0.  0.
         13    1    3    3    0    0  0.39157321219E+02  0.93474082071E+02 -0.88908589206E+03  0.89484323951E+03  0.00000000000E+00 0.  1.
          3    1    3    3  501    0 -0.18150871497E+02 -0.91601840561E+02 -0.59697856724E+02  0.11083404453E+03  0.00000000000E+00 0.  1.
         21    1    1    2  502  501 -0.21006449721E+02 -0.18722415101E+01 -0.17886015143E+02  0.27652952028E+02  0.00000000000E+00 0. -1.
<mgrwt>
<rscale>  1 0.30000000E+03</rscale>
<asrwt>0</asrwt>
<pdfrwt beam="1">  1        1 0.12120111E+00 0.30000000E+03</pdfrwt>
<pdfrwt beam="2">0</pdfrwt>
<totfact> 0.25593714E+01</totfact>
</mgrwt>
</event>
<event>
 6    1  0.1969531E-004  0.3000000E+03  0.7818608E-02  0.1093470E+00
          1   -1    0    0  502    0  0.00000000000E+00  0.00000000000E+00  0.34377426669E+02  0.34377426669E+02  0.00000000000E+00 0.  1.
         13   -1    0    0    0    0 -0.00000000000E+00 -0.00000000000E+00 -0.10000000000E+04  0.10000000000E+04  0.00000000000E+00 0.  1.
    9000005    2    1    2  501    0 -0.14108777999E+01  0.94505180740E+01 -0.94565381262E+03  0.10122402572E+04  0.36094030267E+03 0.  0.
         13    1    3    3    0    0  0.10426676394E+03  0.11219881166E+03 -0.19869551995E+03  0.25087853844E+03  0.00000000000E+00 0.  1.
          3    1    3    3  501    0 -0.10567764174E+03 -0.10274829359E+03 -0.74695829267E+03  0.76136171875E+03  0.00000000000E+00 0.  1.
         21    1    1    2  502  501  0.14108777999E+01 -0.94505180740E+01 -0.19968760714E+02  0.22137169478E+02  0.00000000000E+00 0. -1.
<mgrwt>
<rscale>  1 0.30000000E+03</rscale>
<asrwt>0</asrwt>
<pdfrwt beam="1">  1        1 0.12500909E+00 0.30000000E+03</pdfrwt>
<pdfrwt beam="2">0</pdfrwt>
<totfact> 0.24371117E+01</totfact>
</mgrwt>
</event>
<event>
 6    1  0.1969531E-004  0.3000000E+03  0.7818608E-02  0.1093470E+00
          1   -1    0    0  502    0  0.00000000000E+00  0.00000000000E+00  0.31786077006E+02  0.31786077006E+02  0.00000000000E+00 0.  1.
         13   -1    0    0    0    0 -0.00000000000E+00 -0.00000000000E+00 -0.10000000000E+04  0.10000000000E+04  0.00000000000E+00 0.  1.
    9000005    2    1    2  501    0  0.26352304400E+01  0.12723916556E+02 -0.96445426090E+03  0.10182591575E+04  0.32635999753E+03 0.  0.
         13    1    3    3    0    0  0.32662109069E+02  0.44036238356E+02 -0.97257804846E+03  0.97412220178E+03  0.00000000000E+00 0.  1.
          1    1    3    3  501    0 -0.30026878630E+02 -0.31312321800E+02  0.81237875570E+01  0.44136955729E+02  0.00000000000E+00 0.  1.
         21    1    1    2  502  501 -0.26352304400E+01 -0.12723916556E+02 -0.37596620918E+01  0.13526919496E+02  0.00000000000E+00 0. -1.
<mgrwt>
<rscale>  1 0.30000000E+03</rscale>
<asrwt>0</asrwt>
<pdfrwt beam="1">  1        1 0.11558598E+00 0.30000000E+03</pdfrwt>
<pdfrwt beam="2">0</pdfrwt>
<totfact> 0.27550236E+01</totfact>
</mgrwt>
</event>
<event>
 6    1  0.1969531E-004  0.3000000E+03  0.7818608E-02  0.1093470E+00
          1   -1    0    0  502    0  0.00000000000E+00  0.00000000000E+00  0.28378790303E+02  0.28378790303E+02  0.00000000000E+00 0.  1.
         13   -1    0    0    0    0 -0.00000000000E+00 -0.00000000000E+00 -0.10000000000E+04  0.10000000000E+04  0.00000000000E+00 0.  1.
    9000005    2    1    2  501    0  0.69648505145E+01 -0.74212152314E+01 -0.95100122859E+03  0.10053838518E+04  0.32602111742E+03 0.  0.
         13    1    3    3    0    0 -0.42300465858E+02 -0.11314379160E+03 -0.82456284635E+03  0.83336350686E+03  0.00000000000E+00 0.  1.
          3    1    3    3  501    0  0.49265316373E+02  0.10572257637E+03 -0.12643838224E+03  0.17202034489E+03  0.00000000000E+00 0.  1.
         21    1    1    2  502  501 -0.69648505145E+01  0.74212152314E+01 -0.20619981106E+02  0.22994938552E+02  0.00000000000E+00 0. -1.
<mgrwt>
<rscale>  1 0.30000000E+03</rscale>
<asrwt>0</asrwt>
<pdfrwt beam="1">  1        1 0.10319582E+00 0.30000000E+03</pdfrwt>
<pdfrwt beam="2">0</pdfrwt>
<totfact> 0.32680897E+01</totfact>
</mgrwt>
</event>
<event>
 6    1  0.1969531E-004  0.3000000E+03  0.7818608E-02  0.1093470E+00
          1   -1    0    0  502    0  0.00000000000E+00  0.00000000000E+00  0.52927574565E+02  0.52927574565E+02  0.00000000000E+00 0.  1.
         13   -1    0    0    0    0 -0.00000000000E+00 -0.00000000000E+00 -0.10000000000E+04  0.10000000000E+04  0.00000000000E+00 0.  1.
    9000005    2    1    2  501    0 -0.95283505071E+02  0.40138619064E+02 -0.81746855658E+03  0.88713487901E+03  0.32872997653E+03 0.  0.
         13    1    3    3    0    0 -0.13647848742E+03  0.13359401336E+03 -0.72373685831E+03  0.74851104067E+03  0.00000000000E+00 0.  1.
          1    1    3    3  501    0  0.41194982345E+02 -0.93455394296E+02 -0.93731698275E+02  0.13862383834E+03  0.00000000000E+00 0.  1.
         21    1    1    2  502  501  0.95283505071E+02 -0.40138619064E+02 -0.12960386885E+03  0.16579269556E+03  0.00000000000E+00 0.  1.
<mgrwt>
<rscale>  1 0.30000000E+03</rscale>
<asrwt>0</asrwt>
<pdfrwt beam="1">  1        1 0.19246431E+00 0.30000000E+03</pdfrwt>
<pdfrwt beam="2">0</pdfrwt>
<totfact> 0.11127121E+01</totfact>
</mgrwt>
</event>
<event>
 6    1  0.1969531E-004  0.3000000E+03  0.7818608E-02  0.1093470E+00
          1   -1    0    0  502    0  0.00000000000E+00  0.00000000000E+00  0.49779525642E+02  0.49779525642E+02  0.00000000000E+00 0.  1.
         13   -1    0    0    0    0 -0.00000000000E+00 -0.00000000000E+00 -0.10000000000E+04  0.10000000000E+04  0.00000000000E+00 0.  1.
    9000005    2    1    2  501    0 -0.10316378818E+03 -0.23960563486E+02 -0.74713286050E+03  0.82073486909E+03  0.32277134058E+03 0.  0.
         13    1    3    3    0    0 -0.58767595078E+02 -0.16186479065E+03 -0.25483459097E+03  0.30756220418E+03  0.00000000000E+00 0.  1.
          3    1    3    3  501    0 -0.44396193101E+02  0.13790422716E+03 -0.49229826953E+03  0.51317266491E+03  0.00000000000E+00 0.  1.
         21    1    1    2  502  501  0.10316378818E+03  0.23960563486E+02 -0.20308761386E+03  0.22904465656E+03  0.00000000000E+00 0.  1.
<mgrwt>
<rscale>  1 0.30000000E+03</rscale>
<asrwt>0</asrwt>
<pdfrwt beam="1">  1        1 0.18101684E+00 0.30000000E+03</pdfrwt>
<pdfrwt beam="2">0</pdfrwt>
<totfact> 0.12630674E+01</totfact>
</mgrwt>
</event>
<event>
 6    1  0.1969531E-004  0.3000000E+03  0.7818608E-02  0.1093470E+00
          1   -1    0    0  502    0  0.00000000000E+00  0.00000000000E+00  0.30052098910E+02  0.30052098910E+02  0.00000000000E+00 0.  1.
         13   -1    0    0    0    0 -0.00000000000E+00 -0.00000000000E+00 -0.10000000000E+04  0.10000000000E+04  0.00000000000E+00 0.  1.
    9000005    2    1    2  501    0  0.23343609912E+02  0.24706806844E+02 -0.86475009334E+03  0.91949926455E+03  0.31069409901E+03 0.  0.
         13    1    3    3    0    0  0.20001509810E+02 -0.14238426329E+03 -0.35333268804E+03  0.38146733447E+03  0.00000000000E+00 0.  1.
          3    1    3    3  501    0  0.33421001024E+01  0.16709107014E+03 -0.51141740530E+03  0.53803193009E+03  0.00000000000E+00 0.  1.
         21    1    1    2  502  501 -0.23343609912E+02 -0.24706806844E+02 -0.10519780775E+03  0.11055283436E+03  0.00000000000E+00 0. -1.
<mgrwt>
<rscale>  1 0.30000000E+03</rscale>
<asrwt>0</asrwt>
<pdfrwt beam="1">  1        1 0.10928059E+00 0.30000000E+03</pdfrwt>
<pdfrwt beam="2">0</pdfrwt>
<totfact> 0.30005046E+01</totfact>
</mgrwt>
</event>
<event>
 6    1  0.1969531E-004  0.3000000E+03  0.7818608E-02  0.1093470E+00
          1   -1    0    0  502    0  0.00000000000E+00  0.00000000000E+00  0.55503402249E+02  0.55503402249E+02  0.00000000000E+00 0.  1.
         13   -1    0    0    0    0 -0.00000000000E+00 -0.00000000000E+00 -0.10000000000E+04  0.10000000000E+04  0.00000000000E+00 0.  1.
    9000005    2    1    2  501    0 -0.66100300008E+01 -0.39189429830E+02 -0.95990413811E+03  0.10128783368E+04  0.32082248491E+03 0.  0.
         13    1    3    3    0    0 -0.63256166711E+02 -0.46194813355E+02 -0.34288297020E+02  0.85504331589E+02  0.00000000000E+00 0.  1.
          1    1    3    3  501    0  0.56646136710E+02  0.70053835248E+01 -0.92561584109E+03  0.92737400518E+03  0.00000000000E+00 0.  1.
         21    1    1    2  502  501  0.66100300008E+01  0.39189429830E+02  0.15407540364E+02  0.42625065479E+02  0.00000000000E+00 0.  1.
<mgrwt>
<rscale>  1 0.30000000E+03</rscale>
<asrwt>0</asrwt>
<pdfrwt beam="1">  1        1 0.20183098E+00 0.30000000E+03</pdfrwt>
<pdfrwt beam="2">0</pdfrwt>
<totfact> 0.10040276E+01</totfact>
</mgrwt>
</event>
<event>
 6    1  0.1969531E-004  0.3000000E+03  0.7818608E-02  0.1093470E+00
          1   -1    0    0  502    0  0.00000000000E+00  0.00000000000E+00  0.31559162221E+02  0.31559162221E+02  0.00000000000E+00 0.  1.
         13   -1    0    0    0    0 -0.00000000000E+00 -0.00000000000E+00 -0.10000000000E+04  0.10000000000E+04  0.00000000000E+00 0.  1.
    9000005    2    1    2  501    0 -0.12801015466E+02  0.41619764644E+00 -0.93293378852E+03  0.99381277478E+03  0.34224894207E+03 0.  0.
         13    1    3    3    0    0  0.10112423932E+03  0.11321673571E+02 -0.70437849420E+02  0.12375695011E+03  0.00000000000E+00 0.  1.
          1    1    3    3  501    0 -0.11392525478E+03 -0.10905475925E+02 -0.86249593910E+03  0.87005582467E+03  0.00000000000E+00 0.  1.
         21    1    1    2  502  501  0.12801015466E+02 -0.41619764644E+00 -0.35507049261E+02  0.37746387438E+02  0.00000000000E+00 0.  1.
<mgrwt>
<rscale>  1 0.30000000E+03</rscale>
<asrwt>0</asrwt>
<pdfrwt beam="1">  1        1 0.11476083E+00 0.30000000E+03</pdfrwt>
<pdfrwt beam="2">0</pdfrwt>
<totfact> 0.27854928E+01</totfact>
</mgrwt>
</event>
<event>
 6    1  0.1969531E-004  0.3000000E+03  0.7818608E-02  0.1093470E+00
          1   -1    0    0  502    0  0.00000000000E+00  0.00000000000E+00  0.29227052857E+02  0.29227052857E+02  0.00000000000E+00 0.  1.
         13   -1    0    0    0    0 -0.00000000000E+00 -0.00000000000E+00 -0.10000000000E+04  0.10000000000E+04  0.00000000000E+00 0.  1.
    9000005    2    1    2  501    0  0.72876240574E+01 -0.89093214521E+01 -0.94837955610E+03  0.10040487003E+04  0.32948068950E+03 0.  0.
         13    1    3    3    0    0 -0.10010038255E+03  0.10940957015E+03 -0.63737273606E+03  0.65439632127E+03  0.00000000000E+00 0.  1.
          1    1    3    3  501    0  0.10738800661E+03 -0.11831889160E+03 -0.31100682004E+03  0.34965237907E+03  0.00000000000E+00 0.  1.
         21    1    1    2  502  501 -0.72876240574E+01  0.89093214521E+01 -0.22393391043E+02  0.25178352518E+02  0.00000000000E+00 0. -1.
<mgrwt>
<rscale>  1 0.30000000E+03</rscale>
<asrwt>0</asrwt>
<pdfrwt beam="1">  1        1 0.10628042E+00 0.30000000E+03</pdfrwt>
<pdfrwt beam="2">0</pdfrwt>
<totfact> 0.31283292E+01</totfact>
</mgrwt>
</event>
<event>
 6    1  0.1969531E-004  0.3000000E+03  0.7818608E-02  0.1093470E+00
          1   -1    0    0  502    0  0.00000000000E+00  0.00000000000E+00  0.37247544796E+02  0.37247544796E+02  0.00000000000E+00 0.  1.
         13   -1    0    0    0    0 -0.00000000000E+00 -0.00000000000E+00 -0.10000000000E+04  0.10000000000E+04  0.00000000000E+00 0.  1.
    9000005    2    1    2  501    0  0.11784458705E+02 -0.32144821286E+01 -0.97031061545E+03  0.10228832784E+04  0.32347844511E+03 0.  0.
         13    1    3    3    0    0 -0.21685454039E+02  0.15381905539E+03 -0.36588117484E+03  0.39749162862E+03  0.00000000000E+00 0.  1.
          1    1    3    3  501    0  0.33469912744E+02 -0.15703353752E+03 -0.60442944060E+03  0.62539164980E+03  0.00000000000E+00 0.  1.
         21    1    1    2  502  501 -0.11784458705E+02  0.32144821286E+01  0.75581602438E+01  0.14364266378E+02  0.00000000000E+00 0.  1.
<mgrwt>
<rscale>  1 0.30000000E+03</rscale>
<asrwt>0</asrwt>
<pdfrwt beam="1">  1        1 0.13544590E+00 0.30000000E+03</pdfrwt>
<pdfrwt beam="2">0</pdfrwt>
<totfact> 0.21385066E+01</totfact>
</mgrwt>
</event>
<event>
 6    1  0.1969531E-004  0.3000000E+03  0.7818608E-02  0.1093470E+00
          1   -1    0    0  502    0  0.00000000000E+00  0.00000000000E+00  0.31964692823E+02  0.31964692823E+02  0.00000000000E+00 0.  1.
         13   -1    0    0    0    0 -0.00000000000E+00 -0.00000000000E+00 -0.10000000000E+04  0.10000000000E+04  0.00000000000E+00 0.  1.
    9000005    2    1    2  501    0  0.22294688600E+02 -0.12817067950E+02 -0.94013814901E+03  0.99402287151E+03  0.32180801652E+03 0.  0.
         13    1    3    3    0    0  0.10619519360E+03  0.51326110221E+02 -0.84080515858E+03  0.84903775148E+03  0.00000000000E+00 0.  1.
          1    1    3    3  501    0 -0.83900504995E+02 -0.64143178171E+02 -0.99332990425E+02  0.14498512003E+03  0.00000000000E+00 0.  1.
         21    1    1    2  502  501 -0.22294688600E+02  0.12817067950E+02 -0.27897158170E+02  0.37941821313E+02  0.00000000000E+00 0.  1.
<mgrwt>
<rscale>  1 0.30000000E+03</rscale>
<asrwt>0</asrwt>
<pdfrwt beam="1">  1        1 0.11623549E+00 0.30000000E+03</pdfrwt>
<pdfrwt beam="2">0</pdfrwt>
<totfact> 0.27313661E+01</totfact>
</mgrwt>
</event>
<event>
 6    1  0.1969531E-004  0.3000000E+03  0.7818608E-02  0.1093470E+00
          1   -1    0    0  502    0  0.00000000000E+00  0.00000000000E+00  0.32836789206E+02  0.32836789206E+02  0.00000000000E+00 0.  1.
         13   -1    0    0    0    0 -0.00000000000E+00 -0.00000000000E+00 -0.10000000000E+04  0.10000000000E+04  0.00000000000E+00 0.  1.
    9000005    2    1    2  501    0 -0.10846439592E+01  0.18345755819E+02 -0.95723674629E+03  0.10119495226E+04  0.32772229800E+03 0.  0.
         13    1    3    3    0    0 -0.84787083799E+02 -0.11583181658E+03 -0.65819080580E+03  0.67366237549E+03  0.00000000000E+00 0.  1.
          1    1    3    3  501    0  0.83702439840E+02  0.13417757240E+03 -0.29904594050E+03  0.33828714711E+03  0.00000000000E+00 0.  1.
         21    1    1    2  502  501  0.10846439592E+01 -0.18345755819E+02 -0.99264644996E+01  0.20887266613E+02  0.00000000000E+00 0.  1.
<mgrwt>
<rscale>  1 0.30000000E+03</rscale>
<asrwt>0</asrwt>
<pdfrwt beam="1">  1        1 0.11940676E+00 0.30000000E+03</pdfrwt>
<pdfrwt beam="2">0</pdfrwt>
<totfact> 0.26197848E+01</totfact>
</mgrwt>
</event>
<event>
 6    1  0.1969531E-004  0.3000000E+03  0.7818608E-02  0.1093470E+00
          1   -1    0    0  502    0  0.00000000000E+00  0.00000000000E+00  0.33062719088E+02  0.33062719088E+02  0.00000000000E+00 0.  1.
         13   -1    0    0    0    0 -0.00000000000E+00 -0.00000000000E+00 -0.10000000000E+04  0.10000000000E+04  0.00000000000E+00 0.  1.
    9000005    2    1    2  501    0  0.32137524080E+02 -0.89810741530E+01 -0.94751658105E+03  0.99445386350E+03  0.30006221873E+03 0.  0.
         13    1    3    3    0    0 -0.69141401914E+02  0.25125352680E+02 -0.46298409803E+02  0.86921571294E+02  0.00000000000E+00 0.  1.
          3    1    3    3  501    0  0.10127892599E+03 -0.34106426833E+02 -0.90121817125E+03  0.90753229220E+03  0.00000000000E+00 0.  1.
         21    1    1    2  502  501 -0.32137524080E+02  0.89810741530E+01 -0.19420699859E+02  0.38608855590E+02  0.00000000000E+00 0.  1.
<mgrwt>
<rscale>  1 0.30000000E+03</rscale>
<asrwt>0</asrwt>
<pdfrwt beam="1">  1        1 0.12022832E+00 0.30000000E+03</pdfrwt>
<pdfrwt beam="2">0</pdfrwt>
<totfact> 0.25918899E+01</totfact>
</mgrwt>
</event>
<event>
 6    1  0.1969531E-004  0.3000000E+03  0.7818608E-02  0.1093470E+00
          1   -1    0    0  502    0  0.00000000000E+00  0.00000000000E+00  0.51392320337E+02  0.51392320337E+02  0.00000000000E+00 0.  1.
         13   -1    0    0    0    0 -0.00000000000E+00 -0.00000000000E+00 -0.10000000000E+04  0.10000000000E+04  0.00000000000E+00 0.  1.
    9000005    2    1    2  501    0  0.93963212761E+02 -0.42521681820E+02 -0.83027363169E+03  0.89442058502E+03  0.31622254926E+03 0.  0.
         13    1    3    3    0    0  0.10442823702E+03  0.97738196379E+02 -0.18418453452E+03  0.23319938781E+03  0.00000000000E+00 0.  1.
          3    1    3    3  501    0 -0.10465024258E+02 -0.14025987820E+03 -0.64608909717E+03  0.66122119722E+03  0.00000000000E+00 0.  1.
         21    1    1    2  502  501 -0.93963212761E+02  0.42521681820E+02 -0.11833404798E+03  0.15697173531E+03  0.00000000000E+00 0. -1.
<mgrwt>
<rscale>  1 0.30000000E+03</rscale>
<asrwt>0</asrwt>
<pdfrwt beam="1">  1        1 0.18688156E+00 0.30000000E+03</pdfrwt>
<pdfrwt beam="2">0</pdfrwt>
<totfact> 0.11835247E+01</totfact>
</mgrwt>
</event>
<event>
 6    1  0.1969531E-004  0.3000000E+03  0.7818608E-02  0.1093470E+00
          1   -1    0    0  502    0  0.00000000000E+00  0.00000000000E+00  0.49450619682E+02  0.49450619682E+02  0.00000000000E+00 0.  1.
         13   -1    0    0    0    0 -0.00000000000E+00 -0.00000000000E+00 -0.10000000000E+04  0.10000000000E+04  0.00000000000E+00 0.  1.
    9000005    2    1    2  501    0  0.43781601189E+02  0.84168674678E+02 -0.81801292310E+03  0.88645642687E+03  0.32811379119E+03 0.  0.
         13    1    3    3    0    0  0.10074491306E+03 -0.81572630839E+02 -0.55823667768E+03  0.57308971367E+03  0.00000000000E+00 0.  1.
          1    1    3    3  501    0 -0.56963311866E+02  0.16574130552E+03 -0.25977624542E+03  0.31336671319E+03  0.00000000000E+00 0.  1.
         21    1    1    2  502  501 -0.43781601189E+02 -0.84168674678E+02 -0.13253645722E+03  0.16299419282E+03  0.00000000000E+00 0. -1.
<mgrwt>
<rscale>  1 0.30000000E+03</rscale>
<asrwt>0</asrwt>
<pdfrwt beam="1">  1        1 0.17982081E+00 0.30000000E+03</pdfrwt>
<pdfrwt beam="2">0</pdfrwt>
<totfact> 0.12799971E+01</totfact>
</mgrwt>
</event>
<event>
 6    1  0.1969531E-004  0.3000000E+03  0.7818608E-02  0.1093470E+00
          1   -1    0    0  502    0  0.00000000000E+00  0.00000000000E+00  0.21144444951E+02  0.21144444951E+02  0.00000000000E+00 0.  1.
         13   -1    0    0    0    0 -0.00000000000E+00 -0.00000000000E+00 -0.10000000000E+04  0.10000000000E+04  0.00000000000E+00 0.  1.
    9000005    2    1    2  501    0  0.47226552152E+02  0.59574352805E+02 -0.82466421994E+03  0.84923045901E+03  0.18799427150E+03 0.  0.
         13    1    3    3    0    0 -0.62643046161E+01  0.10615331401E+03 -0.67830912208E+03  0.68659379016E+03  0.00000000000E+00 0.  1.
          3    1    3    3  501    0  0.53490856768E+02 -0.46578961204E+02 -0.14635509787E+03  0.16263666885E+03  0.00000000000E+00 0.  1.
         21    1    1    2  502  501 -0.47226552152E+02 -0.59574352805E+02 -0.15419133511E+03  0.17191398594E+03  0.00000000000E+00 0.  1.
<mgrwt>
<rscale>  1 0.30000000E+03</rscale>
<asrwt>0</asrwt>
<pdfrwt beam="1">  1        1 0.76889053E-01 0.30000000E+03</pdfrwt>
<pdfrwt beam="2">0</pdfrwt>
<totfact> 0.49604239E+01</totfact>
</mgrwt>
</event>
<event>
 6    1  0.1969531E-004  0.3000000E+03  0.7818608E-02  0.1093470E+00
          1   -1    0    0  502    0  0.00000000000E+00  0.00000000000E+00  0.40102684439E+02  0.40102684439E+02  0.00000000000E+00 0.  1.
         13   -1    0    0    0    0 -0.00000000000E+00 -0.00000000000E+00 -0.10000000000E+04  0.10000000000E+04  0.00000000000E+00 0.  1.
    9000005    2    1    2  501    0  0.14256145211E+02  0.35129389212E+02 -0.94240325319E+03  0.99834919499E+03  0.32732233633E+03 0.  0.
         13    1    3    3    0    0 -0.45416764407E+02  0.76832102223E+02 -0.91686504072E+03  0.92119886958E+03  0.00000000000E+00 0.  1.
          3    1    3    3  501    0  0.59672909618E+02 -0.41702713011E+02 -0.25538212462E+02  0.77150325408E+02  0.00000000000E+00 0.  1.
         21    1    1    2  502  501 -0.14256145211E+02 -0.35129389212E+02 -0.17494062375E+02  0.41753489448E+02  0.00000000000E+00 0.  1.
<mgrwt>
<rscale>  1 0.30000000E+03</rscale>
<asrwt>0</asrwt>
<pdfrwt beam="1">  1        1 0.14582825E+00 0.30000000E+03</pdfrwt>
<pdfrwt beam="2">0</pdfrwt>
<totfact> 0.18869802E+01</totfact>
</mgrwt>
</event>
<event>
 6    1  0.1969531E-004  0.3000000E+03  0.7818608E-02  0.1093470E+00
          1   -1    0    0  502    0  0.00000000000E+00  0.00000000000E+00  0.40729952806E+02  0.40729952806E+02  0.00000000000E+00 0.  1.
         13   -1    0    0    0    0 -0.00000000000E+00 -0.00000000000E+00 -0.10000000000E+04  0.10000000000E+04  0.00000000000E+00 0.  1.
    9000005    2    1    2  501    0 -0.28352865824E+02  0.42617350252E+02 -0.91433883400E+03  0.97262020709E+03  0.32764987460E+03 0.  0.
         13    1    3    3    0    0  0.55661274180E+02 -0.11142821322E+03 -0.18894741278E+03  0.22630852600E+03  0.00000000000E+00 0.  1.
          1    1    3    3  501    0 -0.84014140005E+02  0.15404556347E+03 -0.72539142123E+03  0.74631168109E+03  0.00000000000E+00 0.  1.
         21    1    1    2  502  501  0.28352865824E+02 -0.42617350252E+02 -0.44931213191E+02  0.68109745718E+02  0.00000000000E+00 0. -1.
<mgrwt>
<rscale>  1 0.30000000E+03</rscale>
<asrwt>0</asrwt>
<pdfrwt beam="1">  1        1 0.14810923E+00 0.30000000E+03</pdfrwt>
<pdfrwt beam="2">0</pdfrwt>
<totfact> 0.18368183E+01</totfact>
</mgrwt>
</event>
<event>
 6    1  0.1969531E-004  0.3000000E+03  0.7818608E-02  0.1093470E+00
          1   -1    0    0  502    0  0.00000000000E+00  0.00000000000E+00  0.66357600695E+02  0.66357600695E+02  0.00000000000E+00 0.  1.
         13   -1    0    0    0    0 -0.00000000000E+00 -0.00000000000E+00 -0.10000000000E+04  0.10000000000E+04  0.00000000000E+00 0.  1.
    9000005    2    1    2  501    0  0.14897132711E+02 -0.69018941401E+02 -0.93776486201E+03  0.99562901005E+03  0.32693829754E+03 0.  0.
         13    1    3    3    0    0  0.16069157174E+03 -0.59046293535E+02 -0.65910564517E+03  0.68097613578E+03  0.00000000000E+00 0.  1.
          1    1    3    3  501    0 -0.14579443903E+03 -0.99726478666E+01 -0.27865921685E+03  0.31465287428E+03  0.00000000000E+00 0.  1.
         21    1    1    2  502  501 -0.14897132711E+02  0.69018941401E+02  0.41224627082E+01  0.70728590640E+02  0.00000000000E+00 0.  1.
<mgrwt>
<rscale>  1 0.30000000E+03</rscale>
<asrwt>0</asrwt>
<pdfrwt beam="1">  1        1 0.24130087E+00 0.30000000E+03</pdfrwt>
<pdfrwt beam="2">0</pdfrwt>
<totfact> 0.65512061E+00</totfact>
</mgrwt>
</event>
<event>
 6    1  0.1969531E-004  0.3000000E+03  0.7818608E-02  0.1093470E+00
          1   -1    0    0  502    0  0.00000000000E+00  0.00000000000E+00  0.40759298035E+02  0.40759298035E+02  0.00000000000E+00 0.  1.
         13   -1    0    0    0    0 -0.00000000000E+00 -0.00000000000E+00 -0.10000000000E+04  0.10000000000E+04  0.00000000000E+00 0.  1.
    9000005    2    1    2  501    0 -0.48431412770E+02  0.68327119074E+01 -0.93235901944E+03  0.98494789642E+03  0.31374628259E+03 0.  0.
         13    1    3    3    0    0  0.12729998717E+03  0.41963954983E+02 -0.32091140366E+03  0.34777922486E+03  0.00000000000E+00 0.  1.
          3    1    3    3  501    0 -0.17573139994E+03 -0.35131243076E+02 -0.61144761578E+03  0.63716867155E+03  0.00000000000E+00 0.  1.
         21    1    1    2  502  501  0.48431412770E+02 -0.68327119074E+01 -0.26881682529E+02  0.55811401618E+02  0.00000000000E+00 0.  1.
<mgrwt>
<rscale>  1 0.30000000E+03</rscale>
<asrwt>0</asrwt>
<pdfrwt beam="1">  1        1 0.14821594E+00 0.30000000E+03</pdfrwt>
<pdfrwt beam="2">0</pdfrwt>
<totfact> 0.18345127E+01</totfact>
</mgrwt>
</event>
<event>
 6    1  0.1969531E-004  0.3000000E+03  0.7818608E-02  0.1093470E+00
          1   -1    0    0  502    0  0.00000000000E+00  0.00000000000E+00  0.33229079994E+02  0.33229079994E+02  0.00000000000E+00 0.  1.
         13   -1    0    0    0    0 -0.00000000000E+00 -0.00000000000E+00 -0.10000000000E+04  0.10000000000E+04  0.00000000000E+00 0.  1.
    9000005    2    1    2  501    0 -0.14534971618E+02  0.11106146510E+02 -0.95699701776E+03  0.10124892378E+04  0.33008567481E+03 0.  0.
         13    1    3    3    0    0 -0.16384400582E+03  0.43552351738E+02 -0.61446690758E+03  0.63742548278E+03  0.00000000000E+00 0.  1.
          1    1    3    3  501    0  0.14930903421E+03 -0.32446205227E+02 -0.34253011018E+03  0.37506375499E+03  0.00000000000E+00 0.  1.
         21    1    1    2  502  501  0.14534971618E+02 -0.11106146510E+02 -0.97739022481E+01  0.20739842222E+02  0.00000000000E+00 0.  1.
<mgrwt>
<rscale>  1 0.30000000E+03</rscale>
<asrwt>0</asrwt>
<pdfrwt beam="1">  1        1 0.12083327E+00 0.30000000E+03</pdfrwt>
<pdfrwt beam="2">0</pdfrwt>
<totfact> 0.25716034E+01</totfact>
</mgrwt>
</event>
<event>
 6    1  0.1969531E-004  0.3000000E+03  0.7818608E-02  0.1093470E+00
          1   -1    0    0  502    0  0.00000000000E+00  0.00000000000E+00  0.31951453735E+02  0.31951453735E+02  0.00000000000E+00 0.  1.
         13   -1    0    0    0    0 -0.00000000000E+00 -0.00000000000E+00 -0.10000000000E+04  0.10000000000E+04  0.00000000000E+00 0.  1.
    9000005    2    1    2  501    0  0.41566418433E+01 -0.12109486854E+02 -0.96417334367E+03  0.10185748122E+04  0.32817753439E+03 0.  0.
         13    1    3    3    0    0  0.13429211076E+03  0.89164267114E+02 -0.53725670397E+03  0.56091835725E+03  0.00000000000E+00 0.  1.
          3    1    3    3  501    0 -0.13013546891E+03 -0.10127375397E+03 -0.42691663970E+03  0.45765645496E+03  0.00000000000E+00 0.  1.
         21    1    1    2  502  501 -0.41566418433E+01  0.12109486854E+02 -0.38752025917E+01  0.13376641522E+02  0.00000000000E+00 0.  1.
<mgrwt>
<rscale>  1 0.30000000E+03</rscale>
<asrwt>0</asrwt>
<pdfrwt beam="1">  1        1 0.11618735E+00 0.30000000E+03</pdfrwt>
<pdfrwt beam="2">0</pdfrwt>
<totfact> 0.27331099E+01</totfact>
</mgrwt>
</event>
<event>
 6    1  0.1969531E-004  0.3000000E+03  0.7818608E-02  0.1093470E+00
          1   -1    0    0  502    0  0.00000000000E+00  0.00000000000E+00  0.47803700316E+02  0.47803700316E+02  0.00000000000E+00 0.  1.
         13   -1    0    0    0    0 -0.00000000000E+00 -0.00000000000E+00 -0.10000000000E+04  0.10000000000E+04  0.00000000000E+00 0.  1.
    9000005    2    1    2  501    0 -0.93891879826E+01  0.81582352972E+01 -0.97295134232E+03  0.10236068937E+04  0.31777672151E+03 0.  0.
         13    1    3    3    0    0 -0.68313921691E+02 -0.52772512910E+02 -0.56334188043E+02  0.10307895400E+03  0.00000000000E+00 0.  1.
          3    1    3    3  501    0  0.58924733709E+02  0.60930748207E+02 -0.91661715427E+03  0.92052793973E+03  0.00000000000E+00 0.  1.
         21    1    1    2  502  501  0.93891879826E+01 -0.81582352972E+01  0.20755042632E+02  0.24196806582E+02  0.00000000000E+00 0.  1.
<mgrwt>
<rscale>  1 0.30000000E+03</rscale>
<asrwt>0</asrwt>
<pdfrwt beam="1">  1        1 0.17383200E+00 0.30000000E+03</pdfrwt>
<pdfrwt beam="2">0</pdfrwt>
<totfact> 0.13685650E+01</totfact>
</mgrwt>
</event>
<event>
 6    1  0.1969531E-004  0.3000000E+03  0.7818608E-02  0.1093470E+00
          1   -1    0    0  502    0  0.00000000000E+00  0.00000000000E+00  0.30679698099E+02  0.30679698099E+02  0.00000000000E+00 0.  1.
         13   -1    0    0    0    0 -0.00000000000E+00 -0.00000000000E+00 -0.10000000000E+04  0.10000000000E+04  0.00000000000E+00 0.  1.
    9000005    2    1    2  501    0  0.44409643085E+01 -0.29596263777E+02 -0.88192654522E+03  0.93830367469E+03  0.31894152095E+03 0.  0.
         13    1    3    3    0    0  0.31658747723E+02  0.14236655383E+03 -0.37891255308E+03  0.40601137280E+03  0.00000000000E+00 0.  1.
          1    1    3    3  501    0 -0.27217783415E+02 -0.17196281761E+03 -0.50301399213E+03  0.53229230189E+03  0.00000000000E+00 0.  1.
         21    1    1    2  502  501 -0.44409643085E+01  0.29596263777E+02 -0.87393756685E+02  0.92376023410E+02  0.00000000000E+00 0. -1.
<mgrwt>
<rscale>  1 0.30000000E+03</rscale>
<asrwt>0</asrwt>
<pdfrwt beam="1">  1        1 0.11156277E+00 0.30000000E+03</pdfrwt>
<pdfrwt beam="2">0</pdfrwt>
<totfact> 0.29081989E+01</totfact>
</mgrwt>
</event>
<event>
 6    1  0.1969531E-004  0.3000000E+03  0.7818608E-02  0.1093470E+00
          1   -1    0    0  502    0  0.00000000000E+00  0.00000000000E+00  0.74062645073E+02  0.74062645073E+02  0.00000000000E+00 0.  1.
         13   -1    0    0    0    0 -0.00000000000E+00 -0.00000000000E+00 -0.10000000000E+04  0.10000000000E+04  0.00000000000E+00 0.  1.
    9000005    2    1    2  501    0 -0.14115920689E+03 -0.45359089859E+01 -0.84706051194E+03  0.91229722070E+03  0.30794189689E+03 0.  0.
         13    1    3    3    0    0 -0.14317927634E+02  0.96244658671E+02 -0.64976896240E+03  0.65701426307E+03  0.00000000000E+00 0.  1.
          1    1    3    3  501    0 -0.12684127926E+03 -0.10078056766E+03 -0.19729154954E+03  0.25528295764E+03  0.00000000000E+00 0.  1.
         21    1    1    2  502  501  0.14115920689E+03  0.45359089859E+01 -0.78876842990E+02  0.16176542437E+03  0.00000000000E+00 0.  1.
<mgrwt>
<rscale>  1 0.30000000E+03</rscale>
<asrwt>0</asrwt>
<pdfrwt beam="1">  1        1 0.26931928E+00 0.30000000E+03</pdfrwt>
<pdfrwt beam="2">0</pdfrwt>
<totfact> 0.48436107E+00</totfact>
</mgrwt>
</event>
<event>
 6    1  0.1969531E-004  0.3000000E+03  0.7818608E-02  0.1093470E+00
          1   -1    0    0  502    0  0.00000000000E+00  0.00000000000E+00  0.41842903724E+02  0.41842903724E+02  0.00000000000E+00 0.  1.
         13   -1    0    0    0    0 -0.00000000000E+00 -0.00000000000E+00 -0.10000000000E+04  0.10000000000E+04  0.00000000000E+00 0.  1.
    9000005    2    1    2  501    0  0.14897817320E+02 -0.15513267559E+02 -0.96470518428E+03  0.10193599349E+04  0.32859698390E+03 0.  0.
         13    1    3    3    0    0 -0.64165932893E+02 -0.45943808373E+02 -0.35901687078E+02  0.86700816644E+02  0.00000000000E+00 0.  1.
          1    1    3    3  501    0  0.79063750213E+02  0.30430540814E+02 -0.92880349721E+03  0.93265911824E+03  0.00000000000E+00 0.  1.
         21    1    1    2  502  501 -0.14897817320E+02  0.15513267559E+02  0.65480880085E+01  0.22482968839E+02  0.00000000000E+00 0.  1.
<mgrwt>
<rscale>  1 0.30000000E+03</rscale>
<asrwt>0</asrwt>
<pdfrwt beam="1">  1        1 0.15215633E+00 0.30000000E+03</pdfrwt>
<pdfrwt beam="2">0</pdfrwt>
<totfact> 0.17518365E+01</totfact>
</mgrwt>
</event>
<event>
 6    1  0.1969531E-004  0.3000000E+03  0.7818608E-02  0.1093470E+00
          1   -1    0    0  502    0  0.00000000000E+00  0.00000000000E+00  0.31006923137E+02  0.31006923137E+02  0.00000000000E+00 0.  1.
         13   -1    0    0    0    0 -0.00000000000E+00 -0.00000000000E+00 -0.10000000000E+04  0.10000000000E+04  0.00000000000E+00 0.  1.
    9000005    2    1    2  501    0 -0.17331787828E+02  0.12797142137E+02 -0.92642821512E+03  0.98330026562E+03  0.32885561708E+03 0.  0.
         13    1    3    3    0    0  0.23603522013E+02  0.15335711897E+03 -0.67272417859E+03  0.69038637925E+03  0.00000000000E+00 0.  1.
          1    1    3    3  501    0 -0.40935309841E+02 -0.14055997683E+03 -0.25370403653E+03  0.29291388638E+03  0.00000000000E+00 0.  1.
         21    1    1    2  502  501  0.17331787828E+02 -0.12797142137E+02 -0.42564861740E+02  0.47706657514E+02  0.00000000000E+00 0.  1.
<mgrwt>
<rscale>  1 0.30000000E+03</rscale>
<asrwt>0</asrwt>
<pdfrwt beam="1">  1        1 0.11275269E+00 0.30000000E+03</pdfrwt>
<pdfrwt beam="2">0</pdfrwt>
<totfact> 0.28616600E+01</totfact>
</mgrwt>
</event>
<event>
 6    1  0.1969531E-004  0.3000000E+03  0.7818608E-02  0.1093470E+00
          1   -1    0    0  502    0  0.00000000000E+00  0.00000000000E+00  0.31919281234E+02  0.31919281234E+02  0.00000000000E+00 0.  1.
         13   -1    0    0    0    0 -0.00000000000E+00 -0.00000000000E+00 -0.10000000000E+04  0.10000000000E+04  0.00000000000E+00 0.  1.
    9000005    2    1    2  501    0 -0.16075565572E+02  0.48111908118E+01 -0.93712677500E+03  0.99670965187E+03  0.33903092239E+03 0.  0.
         13    1    3    3    0    0  0.13371991175E+03  0.23814086363E+02 -0.71713171608E+03  0.72988082843E+03  0.00000000000E+00 0.  1.
          3    1    3    3  501    0 -0.14979547732E+03 -0.19002895551E+02 -0.21999505892E+03  0.26682882344E+03  0.00000000000E+00 0.  1.
         21    1    1    2  502  501  0.16075565572E+02 -0.48111908118E+01 -0.30953943767E+02  0.35209629368E+02  0.00000000000E+00 0.  1.
<mgrwt>
<rscale>  1 0.30000000E+03</rscale>
<asrwt>0</asrwt>
<pdfrwt beam="1">  1        1 0.11607036E+00 0.30000000E+03</pdfrwt>
<pdfrwt beam="2">0</pdfrwt>
<totfact> 0.27373540E+01</totfact>
</mgrwt>
</event>
<event>
 6    1  0.1969531E-004  0.3000000E+03  0.7818608E-02  0.1093470E+00
          1   -1    0    0  502    0  0.00000000000E+00  0.00000000000E+00  0.28895396647E+02  0.28895396647E+02  0.00000000000E+00 0.  1.
         13   -1    0    0    0    0 -0.00000000000E+00 -0.00000000000E+00 -0.10000000000E+04  0.10000000000E+04  0.00000000000E+00 0.  1.
    9000005    2    1    2  501    0  0.67720708615E+01  0.91363598318E+01 -0.95055853169E+03  0.10054118902E+04  0.32735640020E+03 0.  0.
         13    1    3    3    0    0 -0.30239025609E+02  0.14955331762E+03 -0.69431623366E+03  0.71088369359E+03  0.00000000000E+00 0.  1.
          3    1    3    3  501    0  0.37011096471E+02 -0.14041695779E+03 -0.25624229803E+03  0.29452819660E+03  0.00000000000E+00 0.  1.
         21    1    1    2  502  501 -0.67720708615E+01 -0.91363598318E+01 -0.20546071659E+02  0.23483506454E+02  0.00000000000E+00 0. -1.
<mgrwt>
<rscale>  1 0.30000000E+03</rscale>
<asrwt>0</asrwt>
<pdfrwt beam="1">  1        1 0.10507439E+00 0.30000000E+03</pdfrwt>
<pdfrwt beam="2">0</pdfrwt>
<totfact> 0.31819235E+01</totfact>
</mgrwt>
</event>
<event>
 6    1  0.1969531E-004  0.3000000E+03  0.7818608E-02  0.1093470E+00
          1   -1    0    0  502    0  0.00000000000E+00  0.00000000000E+00  0.34237588826E+02  0.34237588826E+02  0.00000000000E+00 0.  1.
         13   -1    0    0    0    0 -0.00000000000E+00 -0.00000000000E+00 -0.10000000000E+04  0.10000000000E+04  0.00000000000E+00 0.  1.
    9000005    2    1    2  501    0 -0.22923535826E+02 -0.23242939389E+02 -0.93568218537E+03  0.98984679349E+03  0.32129394615E+03 0.  0.
         13    1    3    3    0    0  0.71126835844E+02 -0.14302092762E+03 -0.35063580370E+03  0.38530439830E+03  0.00000000000E+00 0.  1.
          3    1    3    3  501    0 -0.94050371671E+02  0.11977798823E+03 -0.58504638167E+03  0.60454239519E+03  0.00000000000E+00 0.  1.
         21    1    1    2  502  501  0.22923535826E+02  0.23242939389E+02 -0.30080225804E+02  0.44390795337E+02  0.00000000000E+00 0.  1.
<mgrwt>
<rscale>  1 0.30000000E+03</rscale>
<asrwt>0</asrwt>
<pdfrwt beam="1">  1        1 0.12450059E+00 0.30000000E+03</pdfrwt>
<pdfrwt beam="2">0</pdfrwt>
<totfact> 0.24529947E+01</totfact>
</mgrwt>
</event>
<event>
 6    1  0.1969531E-004  0.3000000E+03  0.7818608E-02  0.1093470E+00
          1   -1    0    0  502    0  0.00000000000E+00  0.00000000000E+00  0.51704496213E+02  0.51704496213E+02  0.00000000000E+00 0.  1.
         13   -1    0    0    0    0 -0.00000000000E+00 -0.00000000000E+00 -0.10000000000E+04  0.10000000000E+04  0.00000000000E+00 0.  1.
    9000005    2    1    2  501    0  0.12209745369E+02  0.11415301308E+02 -0.97187550963E+03  0.10228011459E+04  0.31827785155E+03 0.  0.
         13    1    3    3    0    0  0.44753549629E+02  0.63143700973E+01  0.49078443810E+01  0.45462494549E+02  0.00000000000E+00 0.  1.
          3    1    3    3  501    0 -0.32543804259E+02  0.51009312106E+01 -0.97678335401E+03  0.97733865132E+03  0.00000000000E+00 0.  1.
         21    1    1    2  502  501 -0.12209745369E+02 -0.11415301308E+02  0.23580005838E+02  0.28903350347E+02  0.00000000000E+00 0.  1.
<mgrwt>
<rscale>  1 0.30000000E+03</rscale>
<asrwt>0</asrwt>
<pdfrwt beam="1">  1        1 0.18801675E+00 0.30000000E+03</pdfrwt>
<pdfrwt beam="2">0</pdfrwt>
<totfact> 0.11687502E+01</totfact>
</mgrwt>
</event>
<event>
 6    1  0.1969531E-004  0.3000000E+03  0.7818608E-02  0.1093470E+00
          1   -1    0    0  502    0  0.00000000000E+00  0.00000000000E+00  0.31330968996E+02  0.31330968996E+02  0.00000000000E+00 0.  1.
         13   -1    0    0    0    0 -0.00000000000E+00 -0.00000000000E+00 -0.10000000000E+04  0.10000000000E+04  0.00000000000E+00 0.  1.
    9000005    2    1    2  501    0  0.11036030890E+02 -0.26213756756E+02 -0.85069199574E+03  0.90997390958E+03  0.32181778925E+03 0.  0.
         13    1    3    3    0    0  0.10280557163E+03 -0.10135755211E+03 -0.18950217587E+03  0.23822974959E+03  0.00000000000E+00 0.  1.
          3    1    3    3  501    0 -0.91769540739E+02  0.75143795352E+02 -0.66118981987E+03  0.67174415999E+03  0.00000000000E+00 0.  1.
         21    1    1    2  502  501 -0.11036030890E+02  0.26213756756E+02 -0.11797703526E+03  0.12135705942E+03  0.00000000000E+00 0.  1.
<mgrwt>
<rscale>  1 0.30000000E+03</rscale>
<asrwt>0</asrwt>
<pdfrwt beam="1">  1        1 0.11393104E+00 0.30000000E+03</pdfrwt>
<pdfrwt beam="2">0</pdfrwt>
<totfact> 0.28166136E+01</totfact>
</mgrwt>
</event>
<event>
 6    1  0.1969531E-004  0.3000000E+03  0.7818608E-02  0.1093470E+00
          1   -1    0    0  502    0  0.00000000000E+00  0.00000000000E+00  0.28807577757E+02  0.28807577757E+02  0.00000000000E+00 0.  1.
         13   -1    0    0    0    0 -0.00000000000E+00 -0.00000000000E+00 -0.10000000000E+04  0.10000000000E+04  0.00000000000E+00 0.  1.
    9000005    2    1    2  501    0 -0.20208552599E+02 -0.10116086949E+02 -0.92658243734E+03  0.97879986269E+03  0.31461633333E+03 0.  0.
         13    1    3    3    0    0 -0.12421274296E+03  0.87373160468E+02 -0.65160927995E+03  0.66907213990E+03  0.00000000000E+00 0.  1.
          1    1    3    3  501    0  0.10400419036E+03 -0.97489247417E+02 -0.27497315739E+03  0.30972772278E+03  0.00000000000E+00 0.  1.
         21    1    1    2  502  501  0.20208552599E+02  0.10116086949E+02 -0.44609984905E+02  0.50007715070E+02  0.00000000000E+00 0. -1.
<mgrwt>
<rscale>  1 0.30000000E+03</rscale>
<asrwt>0</asrwt>
<pdfrwt beam="1">  1        1 0.10475505E+00 0.30000000E+03</pdfrwt>
<pdfrwt beam="2">0</pdfrwt>
<totfact> 0.31963368E+01</totfact>
</mgrwt>
</event>
<event>
 6    1  0.1969531E-004  0.3000000E+03  0.7818608E-02  0.1093470E+00
          1   -1    0    0  502    0  0.00000000000E+00  0.00000000000E+00  0.29879346054E+02  0.29879346054E+02  0.00000000000E+00 0.  1.
         13   -1    0    0    0    0 -0.00000000000E+00 -0.00000000000E+00 -0.10000000000E+04  0.10000000000E+04  0.00000000000E+00 0.  1.
    9000005    2    1    2  501    0  0.19676566666E+02 -0.26931885829E+01 -0.93588870599E+03  0.99030350997E+03  0.32313921354E+03 0.  0.
         13    1    3    3    0    0  0.29065547908E+02  0.15511091845E+03 -0.57597132675E+03  0.59719944100E+03  0.00000000000E+00 0.  1.
          1    1    3    3  501    0 -0.93889812422E+01 -0.15780410703E+03 -0.35991737924E+03  0.39310406897E+03  0.00000000000E+00 0.  1.
         21    1    1    2  502  501 -0.19676566666E+02  0.26931885829E+01 -0.34231947960E+02  0.39575836083E+02  0.00000000000E+00 0.  1.
<mgrwt>
<rscale>  1 0.30000000E+03</rscale>
<asrwt>0</asrwt>
<pdfrwt beam="1">  1        1 0.10865240E+00 0.30000000E+03</pdfrwt>
<pdfrwt beam="2">0</pdfrwt>
<totfact> 0.30266427E+01</totfact>
</mgrwt>
</event>
<event>
 6    1  0.1969531E-004  0.3000000E+03  0.7818608E-02  0.1093470E+00
          1   -1    0    0  502    0  0.00000000000E+00  0.00000000000E+00  0.49133339497E+02  0.49133339497E+02  0.00000000000E+00 0.  1.
         13   -1    0    0    0    0 -0.00000000000E+00 -0.00000000000E+00 -0.10000000000E+04  0.10000000000E+04  0.00000000000E+00 0.  1.
    9000005    2    1    2  501    0 -0.19949380367E+02 -0.46978358163E+01 -0.96972918857E+03  0.10212793918E+04  0.31971369924E+03 0.  0.
         13    1    3    3    0    0  0.36741953145E+02  0.13065805472E+03 -0.22938544551E+03  0.26653176357E+03  0.00000000000E+00 0.  1.
          3    1    3    3  501    0 -0.56691333511E+02 -0.13535589053E+03 -0.74034374306E+03  0.75474762821E+03  0.00000000000E+00 0.  1.
         21    1    1    2  502  501  0.19949380367E+02  0.46978358163E+01  0.18862528065E+02  0.27853947716E+02  0.00000000000E+00 0.  1.
<mgrwt>
<rscale>  1 0.30000000E+03</rscale>
<asrwt>0</asrwt>
<pdfrwt beam="1">  1        1 0.17866707E+00 0.30000000E+03</pdfrwt>
<pdfrwt beam="2">0</pdfrwt>
<totfact> 0.12965637E+01</totfact>
</mgrwt>
</event>
<event>
 6    1  0.1969531E-004  0.3000000E+03  0.7818608E-02  0.1093470E+00
          1   -1    0    0  502    0  0.00000000000E+00  0.00000000000E+00  0.49538739990E+02  0.49538739990E+02  0.00000000000E+00 0.  1.
         13   -1    0    0    0    0 -0.00000000000E+00 -0.00000000000E+00 -0.10000000000E+04  0.10000000000E+04  0.00000000000E+00 0.  1.
    9000005    2    1    2  501    0  0.27384720911E+02  0.15931508014E+02 -0.96212390289E+03  0.10157785100E+04  0.32422190098E+03 0.  0.
         13    1    3    3    0    0 -0.80587128778E+02  0.13425613615E+03 -0.59443118728E+03  0.61470922544E+03  0.00000000000E+00 0.  1.
          3    1    3    3  501    0  0.10797184969E+03 -0.11832462814E+03 -0.36769271560E+03  0.40106928461E+03  0.00000000000E+00 0.  1.
         21    1    1    2  502  501 -0.27384720911E+02 -0.15931508014E+02  0.11662642879E+02  0.33760229944E+02  0.00000000000E+00 0.  1.
<mgrwt>
<rscale>  1 0.30000000E+03</rscale>
<asrwt>0</asrwt>
<pdfrwt beam="1">  1        1 0.18014125E+00 0.30000000E+03</pdfrwt>
<pdfrwt beam="2">0</pdfrwt>
<totfact> 0.12754371E+01</totfact>
</mgrwt>
</event>
<event>
 6    1  0.1969531E-004  0.3000000E+03  0.7818608E-02  0.1093470E+00
          1   -1    0    0  502    0  0.00000000000E+00  0.00000000000E+00  0.42899077536E+02  0.42899077536E+02  0.00000000000E+00 0.  1.
         13   -1    0    0    0    0 -0.00000000000E+00 -0.00000000000E+00 -0.10000000000E+04  0.10000000000E+04  0.00000000000E+00 0.  1.
    9000005    2    1    2  501    0 -0.54556442510E+01 -0.10250178859E+02 -0.95280889438E+03  0.10305195894E+04  0.39241687624E+03 0.  0.
         13    1    3    3    0    0 -0.85928750907E+02  0.13002437141E+03 -0.16774673213E+03  0.22897391453E+03  0.00000000000E+00 0.  1.
          1    1    3    3  501    0  0.80473106656E+02 -0.14027455027E+03 -0.78506216225E+03  0.80154567490E+03  0.00000000000E+00 0.  1.
         21    1    1    2  502  501  0.54556442510E+01  0.10250178859E+02 -0.42920280848E+01  0.12379488112E+02  0.00000000000E+00 0.  1.
<mgrwt>
<rscale>  1 0.30000000E+03</rscale>
<asrwt>0</asrwt>
<pdfrwt beam="1">  1        1 0.15599697E+00 0.30000000E+03</pdfrwt>
<pdfrwt beam="2">0</pdfrwt>
<totfact> 0.16755940E+01</totfact>
</mgrwt>
</event>
<event>
 6    1  0.1969531E-004  0.3000000E+03  0.7818608E-02  0.1093470E+00
          1   -1    0    0  502    0  0.00000000000E+00  0.00000000000E+00  0.33094529985E+02  0.33094529985E+02  0.00000000000E+00 0.  1.
         13   -1    0    0    0    0 -0.00000000000E+00 -0.00000000000E+00 -0.10000000000E+04  0.10000000000E+04  0.00000000000E+00 0.  1.
    9000005    2    1    2  501    0  0.64961357578E+01  0.12357995295E+02 -0.96266326810E+03  0.10185028850E+04  0.33231406695E+03 0.  0.
         13    1    3    3    0    0  0.97601906753E+02 -0.11516795854E+03 -0.28024874021E+03  0.31832239517E+03  0.00000000000E+00 0.  1.
          3    1    3    3  501    0 -0.91105770995E+02  0.12752595383E+03 -0.68241452789E+03  0.70018048979E+03  0.00000000000E+00 0.  1.
         21    1    1    2  502  501 -0.64961357578E+01 -0.12357995295E+02 -0.42422019140E+01  0.14591645026E+02  0.00000000000E+00 0. -1.
<mgrwt>
<rscale>  1 0.30000000E+03</rscale>
<asrwt>0</asrwt>
<pdfrwt beam="1">  1        1 0.12034400E+00 0.30000000E+03</pdfrwt>
<pdfrwt beam="2">0</pdfrwt>
<totfact> 0.25879943E+01</totfact>
</mgrwt>
</event>
<event>
 6    1  0.1969531E-004  0.3000000E+03  0.7818608E-02  0.1093470E+00
          1   -1    0    0  502    0  0.00000000000E+00  0.00000000000E+00  0.56456321947E+02  0.56456321947E+02  0.00000000000E+00 0.  1.
         13   -1    0    0    0    0 -0.00000000000E+00 -0.00000000000E+00 -0.10000000000E+04  0.10000000000E+04  0.00000000000E+00 0.  1.
    9000005    2    1    2  501    0  0.97250837821E+01  0.14864758523E+02 -0.97080523271E+03  0.10239181803E+04  0.32500784878E+03 0.  0.
         13    1    3    3    0    0 -0.12684189802E+03 -0.83915969638E+02 -0.37321760746E+03  0.40301630187E+03  0.00000000000E+00 0.  1.
          1    1    3    3  501    0  0.13656698180E+03  0.98780728161E+02 -0.59758762525E+03  0.62090187842E+03  0.00000000000E+00 0.  1.
         21    1    1    2  502  501 -0.97250837821E+01 -0.14864758523E+02  0.27261554654E+02  0.32538141660E+02  0.00000000000E+00 0. -1.
<mgrwt>
<rscale>  1 0.30000000E+03</rscale>
<asrwt>0</asrwt>
<pdfrwt beam="1">  1        1 0.20529615E+00 0.30000000E+03</pdfrwt>
<pdfrwt beam="2">0</pdfrwt>
<totfact> 0.96674975E+00</totfact>
</mgrwt>
</event>
<event>
 6    1  0.1969531E-004  0.3000000E+03  0.7818608E-02  0.1093470E+00
          1   -1    0    0  502    0  0.00000000000E+00  0.00000000000E+00  0.32540088189E+02  0.32540088189E+02  0.00000000000E+00 0.  1.
         13   -1    0    0    0    0 -0.00000000000E+00 -0.00000000000E+00 -0.10000000000E+04  0.10000000000E+04  0.00000000000E+00 0.  1.
    9000005    2    1    2  501    0 -0.38581859183E+02 -0.10562237149E+02 -0.84965898298E+03  0.90813277512E+03  0.31809531461E+03 0.  0.
         13    1    3    3    0    0 -0.64570854780E+02  0.10744049000E+03 -0.13858378548E+03  0.18686444225E+03  0.00000000000E+00 0.  1.
          1    1    3    3  501    0  0.25988995597E+02 -0.11800272715E+03 -0.71107519750E+03  0.72126833287E+03  0.00000000000E+00 0.  1.
         21    1    1    2  502  501  0.38581859183E+02  0.10562237149E+02 -0.11780092883E+03  0.12440731307E+03  0.00000000000E+00 0. -1.
<mgrwt>
<rscale>  1 0.30000000E+03</rscale>
<asrwt>0</asrwt>
<pdfrwt beam="1">  1        1 0.11832784E+00 0.30000000E+03</pdfrwt>
<pdfrwt beam="2">0</pdfrwt>
<totfact> 0.26570362E+01</totfact>
</mgrwt>
</event>
<event>
 6    1  0.1969531E-004  0.3000000E+03  0.7818608E-02  0.1093470E+00
          1   -1    0    0  502    0  0.00000000000E+00  0.00000000000E+00  0.55007744103E+02  0.55007744103E+02  0.00000000000E+00 0.  1.
         13   -1    0    0    0    0 -0.00000000000E+00 -0.00000000000E+00 -0.10000000000E+04  0.10000000000E+04  0.00000000000E+00 0.  1.
    9000005    2    1    2  501    0 -0.20482324652E+02  0.28285399960E+01 -0.97866045522E+03  0.10154973163E+04  0.27024245867E+03 0.  0.
         13    1    3    3    0    0 -0.19376046064E+02  0.11049190329E+03 -0.19902143456E+03  0.22845879994E+03  0.00000000000E+00 0.  1.
          1    1    3    3  501    0 -0.11062785886E+01 -0.10766336330E+03 -0.77963902066E+03  0.78703851633E+03  0.00000000000E+00 0.  1.
         21    1    1    2  502  501  0.20482324652E+02 -0.28285399960E+01  0.33668199327E+02  0.39510427833E+02  0.00000000000E+00 0.  1.
<mgrwt>
<rscale>  1 0.30000000E+03</rscale>
<asrwt>0</asrwt>
<pdfrwt beam="1">  1        1 0.20002858E+00 0.30000000E+03</pdfrwt>
<pdfrwt beam="2">0</pdfrwt>
<totfact> 0.10240212E+01</totfact>
</mgrwt>
</event>
<event>
 6    1  0.1969531E-004  0.3000000E+03  0.7818608E-02  0.1093470E+00
          1   -1    0    0  502    0  0.00000000000E+00  0.00000000000E+00  0.27956019071E+02  0.27956019071E+02  0.00000000000E+00 0.  1.
         13   -1    0    0    0    0 -0.00000000000E+00 -0.00000000000E+00 -0.10000000000E+04  0.10000000000E+04  0.00000000000E+00 0.  1.
    9000005    2    1    2  501    0  0.45842814083E+01  0.86737154969E+01 -0.96029800302E+03  0.10126518702E+04  0.32124026301E+03 0.  0.
         13    1    3    3    0    0 -0.29877110934E+02 -0.15217162137E+03 -0.51990576595E+03  0.54254110405E+03  0.00000000000E+00 0.  1.
          3    1    3    3  501    0  0.34461392342E+02  0.16084533687E+03 -0.44039223707E+03  0.47011076612E+03  0.00000000000E+00 0.  1.
         21    1    1    2  502  501 -0.45842814083E+01 -0.86737154969E+01 -0.11745977911E+02  0.15304148902E+02  0.00000000000E+00 0. -1.
<mgrwt>
<rscale>  1 0.30000000E+03</rscale>
<asrwt>0</asrwt>
<pdfrwt beam="1">  1        1 0.10165847E+00 0.30000000E+03</pdfrwt>
<pdfrwt beam="2">0</pdfrwt>
<totfact> 0.33411565E+01</totfact>
</mgrwt>
</event>
<event>
 6    1  0.1969531E-004  0.3000000E+03  0.7818608E-02  0.1093470E+00
          1   -1    0    0  502    0  0.00000000000E+00  0.00000000000E+00  0.30226050387E+02  0.30226050387E+02  0.00000000000E+00 0.  1.
         13   -1    0    0    0    0 -0.00000000000E+00 -0.00000000000E+00 -0.10000000000E+04  0.10000000000E+04  0.00000000000E+00 0.  1.
    9000005    2    1    2  501    0 -0.86414907705E+01  0.16647572718E+01 -0.95398477818E+03  0.10121499691E+04  0.33805791842E+03 0.  0.
         13    1    3    3    0    0  0.38652025393E+02 -0.39232968333E+02  0.10363809321E+01  0.55084289562E+02  0.00000000000E+00 0.  1.
          1    1    3    3  501    0 -0.47293516163E+02  0.40897725604E+02 -0.95502115911E+03  0.95706567955E+03  0.00000000000E+00 0.  1.
         21    1    1    2  502  501  0.86414907705E+01 -0.16647572718E+01 -0.15789171434E+02  0.18076081270E+02  0.00000000000E+00 0. -1.
<mgrwt>
<rscale>  1 0.30000000E+03</rscale>
<asrwt>0</asrwt>
<pdfrwt beam="1">  1        1 0.10991314E+00 0.30000000E+03</pdfrwt>
<pdfrwt beam="2">0</pdfrwt>
<totfact> 0.29745087E+01</totfact>
</mgrwt>
</event>
<event>
 6    1  0.1969531E-004  0.3000000E+03  0.7818608E-02  0.1093470E+00
          1   -1    0    0  502    0  0.00000000000E+00  0.00000000000E+00  0.46052311055E+02  0.46052311055E+02  0.00000000000E+00 0.  1.
         13   -1    0    0    0    0 -0.00000000000E+00 -0.00000000000E+00 -0.10000000000E+04  0.10000000000E+04  0.00000000000E+00 0.  1.
    9000005    2    1    2  501    0  0.50601958370E+02 -0.61138926476E+02 -0.92463764840E+03  0.96144968108E+03  0.25126118263E+03 0.  0.
         13    1    3    3    0    0 -0.48699390356E+02  0.77271902683E+02 -0.27095865476E+03  0.28593910217E+03  0.00000000000E+00 0.  1.
          3    1    3    3  501    0  0.99301348726E+02 -0.13841082916E+03 -0.65367899364E+03  0.67551057891E+03  0.00000000000E+00 0.  1.
         21    1    1    2  502  501 -0.50601958370E+02  0.61138926476E+02 -0.29310040548E+02  0.84602629974E+02  0.00000000000E+00 0. -1.
<mgrwt>
<rscale>  1 0.30000000E+03</rscale>
<asrwt>0</asrwt>
<pdfrwt beam="1">  1        1 0.16746330E+00 0.30000000E+03</pdfrwt>
<pdfrwt beam="2">0</pdfrwt>
<totfact> 0.14701699E+01</totfact>
</mgrwt>
</event>
<event>
 6    1  0.2207058E-004  0.3000000E+03  0.7818608E-02  0.1093470E+00
          1   -1    0    0  502    0  0.00000000000E+00  0.00000000000E+00  0.58907762387E+02  0.58907762387E+02  0.00000000000E+00 0.  1.
         13   -1    0    0    0    0 -0.00000000000E+00 -0.00000000000E+00 -0.10000000000E+04  0.10000000000E+04  0.00000000000E+00 0.  1.
    9000005    2    1    2  501    0  0.55621072689E+01 -0.83622312953E+01 -0.94156997234E+03  0.10488533017E+04  0.46199390873E+03 0.  0.
         13    1    3    3    0    0  0.19673938607E+03 -0.63021895705E+02 -0.72932587378E+03  0.75802003637E+03  0.00000000000E+00 0.  1.
          1    1    3    3  501    0 -0.19117727880E+03  0.54659664410E+02 -0.21224409856E+03  0.29083326532E+03  0.00000000000E+00 0.  1.
         21    1    1    2  502  501 -0.55621072689E+01  0.83622312953E+01  0.47773472538E+00  0.10054460700E+02  0.00000000000E+00 0.  1.
<mgrwt>
<rscale>  1 0.30000000E+03</rscale>
<asrwt>0</asrwt>
<pdfrwt beam="1">  1        1 0.21421050E+00 0.30000000E+03</pdfrwt>
<pdfrwt beam="2">0</pdfrwt>
<totfact> 0.87755997E+00</totfact>
</mgrwt>
</event>
<event>
 6    1  0.1969531E-004  0.3000000E+03  0.7818608E-02  0.1093470E+00
          1   -1    0    0  502    0  0.00000000000E+00  0.00000000000E+00  0.26995721111E+02  0.26995721111E+02  0.00000000000E+00 0.  1.
         13   -1    0    0    0    0 -0.00000000000E+00 -0.00000000000E+00 -0.10000000000E+04  0.10000000000E+04  0.00000000000E+00 0.  1.
    9000005    2    1    2  501    0  0.22354357719E+02 -0.90043475362E+00 -0.94287563577E+03  0.98946888767E+03  0.29922180243E+03 0.  0.
         13    1    3    3    0    0  0.29960400714E+01 -0.13261753320E+03 -0.70038096340E+03  0.71283229462E+03  0.00000000000E+00 0.  1.
          3    1    3    3  501    0  0.19358317647E+02  0.13171709845E+03 -0.24249467237E+03  0.27663659305E+03  0.00000000000E+00 0.  1.
         21    1    1    2  502  501 -0.22354357719E+02  0.90043475362E+00 -0.30128643122E+02  0.37526833441E+02  0.00000000000E+00 0. -1.
<mgrwt>
<rscale>  1 0.30000000E+03</rscale>
<asrwt>0</asrwt>
<pdfrwt beam="1">  1        1 0.98166466E-01 0.30000000E+03</pdfrwt>
<pdfrwt beam="2">0</pdfrwt>
<totfact> 0.35162972E+01</totfact>
</mgrwt>
</event>
<event>
 6    1  0.1969531E-004  0.3000000E+03  0.7818608E-02  0.1093470E+00
          1   -1    0    0  502    0  0.00000000000E+00  0.00000000000E+00  0.36922801736E+02  0.36922801736E+02  0.00000000000E+00 0.  1.
         13   -1    0    0    0    0 -0.00000000000E+00 -0.00000000000E+00 -0.10000000000E+04  0.10000000000E+04  0.00000000000E+00 0.  1.
    9000005    2    1    2  501    0 -0.11848194920E+02  0.39440700779E+01 -0.97023393831E+03  0.10225299445E+04  0.32257969078E+03 0.  0.
         13    1    3    3    0    0  0.86217665095E+02  0.10687625203E+03 -0.22296710631E+03  0.26185940792E+03  0.00000000000E+00 0.  1.
          1    1    3    3  501    0 -0.98065860015E+02 -0.10293218195E+03 -0.74726683201E+03  0.76067053657E+03  0.00000000000E+00 0.  1.
         21    1    1    2  502  501  0.11848194920E+02 -0.39440700779E+01  0.71567400506E+01  0.14392857249E+02  0.00000000000E+00 0. -1.
<mgrwt>
<rscale>  1 0.30000000E+03</rscale>
<asrwt>0</asrwt>
<pdfrwt beam="1">  1        1 0.13426502E+00 0.30000000E+03</pdfrwt>
<pdfrwt beam="2">0</pdfrwt>
<totfact> 0.21697975E+01</totfact>
</mgrwt>
</event>
<event>
 6    1  0.1969531E-004  0.3000000E+03  0.7818608E-02  0.1093470E+00
          1   -1    0    0  502    0  0.00000000000E+00  0.00000000000E+00  0.55955368620E+02  0.55955368620E+02  0.00000000000E+00 0.  1.
         13   -1    0    0    0    0 -0.00000000000E+00 -0.00000000000E+00 -0.10000000000E+04  0.10000000000E+04  0.00000000000E+00 0.  1.
    9000005    2    1    2  501    0  0.50122675642E+01  0.22005253447E+02 -0.93838067656E+03  0.10326866259E+04  0.43055083217E+03 0.  0.
         13    1    3    3    0    0  0.19115352500E+03  0.53793985406E+02 -0.70523777762E+03  0.73266212265E+03  0.00000000000E+00 0.  1.
          1    1    3    3  501    0 -0.18614125744E+03 -0.31788731958E+02 -0.23314289894E+03  0.30002450321E+03  0.00000000000E+00 0.  1.
         21    1    1    2  502  501 -0.50122675642E+01 -0.22005253447E+02 -0.56639548210E+01  0.23268742760E+02  0.00000000000E+00 0.  1.
<mgrwt>
<rscale>  1 0.30000000E+03</rscale>
<asrwt>0</asrwt>
<pdfrwt beam="1">  1        1 0.20347450E+00 0.30000000E+03</pdfrwt>
<pdfrwt beam="2">0</pdfrwt>
<totfact> 0.98615798E+00</totfact>
</mgrwt>
</event>
<event>
 6    1  0.1969531E-004  0.3000000E+03  0.7818608E-02  0.1093470E+00
          1   -1    0    0  502    0  0.00000000000E+00  0.00000000000E+00  0.35299094012E+02  0.35299094012E+02  0.00000000000E+00 0.  1.
         13   -1    0    0    0    0 -0.00000000000E+00 -0.00000000000E+00 -0.10000000000E+04  0.10000000000E+04  0.00000000000E+00 0.  1.
    9000005    2    1    2  501    0 -0.20957100582E+02 -0.80673890685E+01 -0.95872103213E+03  0.10120602962E+04  0.32344356990E+03 0.  0.
         13    1    3    3    0    0 -0.26335856018E+02 -0.68224132870E+02 -0.26346884797E+02  0.77732026582E+02  0.00000000000E+00 0.  1.
          1    1    3    3  501    0  0.53787554354E+01  0.60156743802E+02 -0.93237414734E+03  0.93432826964E+03  0.00000000000E+00 0.  1.
         21    1    1    2  502  501  0.20957100582E+02  0.80673890685E+01 -0.59798738542E+01  0.23238797785E+02  0.00000000000E+00 0. -1.
<mgrwt>
<rscale>  1 0.30000000E+03</rscale>
<asrwt>0</asrwt>
<pdfrwt beam="1">  1        1 0.12836061E+00 0.30000000E+03</pdfrwt>
<pdfrwt beam="2">0</pdfrwt>
<totfact> 0.23356371E+01</totfact>
</mgrwt>
</event>
<event>
 6    1  0.1969531E-004  0.3000000E+03  0.7818608E-02  0.1093470E+00
          1   -1    0    0  502    0  0.00000000000E+00  0.00000000000E+00  0.47422364538E+02  0.47422364538E+02  0.00000000000E+00 0.  1.
         13   -1    0    0    0    0 -0.00000000000E+00 -0.00000000000E+00 -0.10000000000E+04  0.10000000000E+04  0.00000000000E+00 0.  1.
    9000005    2    1    2  501    0  0.14111855716E+02  0.39569048278E+01 -0.97059526603E+03  0.10241965905E+04  0.32666295170E+03 0.  0.
         13    1    3    3    0    0  0.49075925391E+02 -0.64676125553E+02 -0.40158113849E+02  0.90576607231E+02  0.00000000000E+00 0.  1.
          3    1    3    3  501    0 -0.34964069675E+02  0.68633030381E+02 -0.93043715218E+03  0.93361998329E+03  0.00000000000E+00 0.  1.
         21    1    1    2  502  501 -0.14111855716E+02 -0.39569048278E+01  0.18017630570E+02  0.23225774022E+02  0.00000000000E+00 0.  1.
<mgrwt>
<rscale>  1 0.30000000E+03</rscale>
<asrwt>0</asrwt>
<pdfrwt beam="1">  1        1 0.17244533E+00 0.30000000E+03</pdfrwt>
<pdfrwt beam="2">0</pdfrwt>
<totfact> 0.13900019E+01</totfact>
</mgrwt>
</event>
<event>
 6    1  0.1969531E-004  0.3000000E+03  0.7818608E-02  0.1093470E+00
          1   -1    0    0  502    0  0.00000000000E+00  0.00000000000E+00  0.45247539040E+02  0.45247539040E+02  0.00000000000E+00 0.  1.
         13   -1    0    0    0    0 -0.00000000000E+00 -0.00000000000E+00 -0.10000000000E+04  0.10000000000E+04  0.00000000000E+00 0.  1.
    9000005    2    1    2  501    0  0.72294146334E+01 -0.11689119529E+02 -0.96876690027E+03  0.10256183653E+04  0.33644438514E+03 0.  0.
         13    1    3    3    0    0 -0.13686461016E+03  0.81347225616E+02 -0.56323842788E+03  0.58530916554E+03  0.00000000000E+00 0.  1.
          1    1    3    3  501    0  0.14409402479E+03 -0.93036345145E+02 -0.40552847239E+03  0.44030919979E+03  0.00000000000E+00 0.  1.
         21    1    1    2  502  501 -0.72294146334E+01  0.11689119529E+02  0.14014439311E+02  0.19629173709E+02  0.00000000000E+00 0.  1.
<mgrwt>
<rscale>  1 0.30000000E+03</rscale>
<asrwt>0</asrwt>
<pdfrwt beam="1">  1        1 0.16453685E+00 0.30000000E+03</pdfrwt>
<pdfrwt beam="2">0</pdfrwt>
<totfact> 0.15196940E+01</totfact>
</mgrwt>
</event>
<event>
 6    1  0.1969531E-004  0.3000000E+03  0.7818608E-02  0.1093470E+00
          1   -1    0    0  502    0  0.00000000000E+00  0.00000000000E+00  0.29756420365E+02  0.29756420365E+02  0.00000000000E+00 0.  1.
         13   -1    0    0    0    0 -0.00000000000E+00 -0.00000000000E+00 -0.10000000000E+04  0.10000000000E+04  0.00000000000E+00 0.  1.
    9000005    2    1    2  501    0  0.12603798447E+02 -0.29363958543E+01 -0.94487128998E+03  0.10012742990E+04  0.33106040087E+03 0.  0.
         13    1    3    3    0    0  0.40466626849E+02 -0.31018763012E+01  0.13291575581E+02  0.42706387187E+02  0.00000000000E+00 0.  1.
          1    1    3    3  501    0 -0.27862828402E+02  0.16548044690E+00 -0.95816286556E+03  0.95856791180E+03  0.00000000000E+00 0.  1.
         21    1    1    2  502  501 -0.12603798447E+02  0.29363958543E+01 -0.25372289659E+02  0.28482121383E+02  0.00000000000E+00 0. -1.
<mgrwt>
<rscale>  1 0.30000000E+03</rscale>
<asrwt>0</asrwt>
<pdfrwt beam="1">  1        1 0.10820539E+00 0.30000000E+03</pdfrwt>
<pdfrwt beam="2">0</pdfrwt>
<totfact> 0.30454400E+01</totfact>
</mgrwt>
</event>
<event>
 6    1  0.1969531E-004  0.3000000E+03  0.7818608E-02  0.1093470E+00
          1   -1    0    0  502    0  0.00000000000E+00  0.00000000000E+00  0.33084082976E+02  0.33084082976E+02  0.00000000000E+00 0.  1.
         13   -1    0    0    0    0 -0.00000000000E+00 -0.00000000000E+00 -0.10000000000E+04  0.10000000000E+04  0.00000000000E+00 0.  1.
    9000005    2    1    2  501    0  0.36942924728E+02  0.61876380516E+01 -0.90750053696E+03  0.96284695646E+03  0.31955276629E+03 0.  0.
         13    1    3    3    0    0  0.13759749377E+03 -0.10281604754E+03 -0.43869441938E+03  0.47112312989E+03  0.00000000000E+00 0.  1.
          1    1    3    3  501    0 -0.10065456904E+03  0.10900368560E+03 -0.46880611758E+03  0.49172382657E+03  0.00000000000E+00 0.  1.
         21    1    1    2  502  501 -0.36942924728E+02 -0.61876380516E+01 -0.59415380068E+02  0.70237126512E+02  0.00000000000E+00 0. -1.
<mgrwt>
<rscale>  1 0.30000000E+03</rscale>
<asrwt>0</asrwt>
<pdfrwt beam="1">  1        1 0.12030601E+00 0.30000000E+03</pdfrwt>
<pdfrwt beam="2">0</pdfrwt>
<totfact> 0.25892728E+01</totfact>
</mgrwt>
</event>
<event>
 6    1  0.1969531E-004  0.3000000E+03  0.7818608E-02  0.1093470E+00
          1   -1    0    0  502    0  0.00000000000E+00  0.00000000000E+00  0.53802532854E+02  0.53802532854E+02  0.00000000000E+00 0.  1.
         13   -1    0    0    0    0 -0.00000000000E+00 -0.00000000000E+00 -0.10000000000E+04  0.10000000000E+04  0.00000000000E+00 0.  1.
    9000005    2    1    2  501    0  0.14330464918E+02 -0.21835313187E+02 -0.96712457431E+03  0.10203348329E+04  0.32414670422E+03 0.  0.
         13    1    3    3    0    0 -0.10361650627E+03 -0.11949740900E+03 -0.34317853151E+03  0.37787235361E+03  0.00000000000E+00 0.  1.
          3    1    3    3  501    0  0.11794697119E+03  0.97662095809E+02 -0.62394604279E+03  0.64246247928E+03  0.00000000000E+00 0.  1.
         21    1    1    2  502  501 -0.14330464918E+02  0.21835313187E+02  0.20927107161E+02  0.33467699964E+02  0.00000000000E+00 0.  1.
<mgrwt>
<rscale>  1 0.30000000E+03</rscale>
<asrwt>0</asrwt>
<pdfrwt beam="1">  1        1 0.19564599E+00 0.30000000E+03</pdfrwt>
<pdfrwt beam="2">0</pdfrwt>
<totfact> 0.10744148E+01</totfact>
</mgrwt>
</event>
<event>
 6    1  0.1969531E-004  0.3000000E+03  0.7818608E-02  0.1093470E+00
          1   -1    0    0  502    0  0.00000000000E+00  0.00000000000E+00  0.35450576151E+02  0.35450576151E+02  0.00000000000E+00 0.  1.
         13   -1    0    0    0    0 -0.00000000000E+00 -0.00000000000E+00 -0.10000000000E+04  0.10000000000E+04  0.00000000000E+00 0.  1.
    9000005    2    1    2  501    0  0.58591144613E+00  0.15503802298E+02 -0.96431067648E+03  0.10199338697E+04  0.33185735893E+03 0.  0.
         13    1    3    3    0    0  0.87256106913E+02  0.14759725959E+03 -0.43586815475E+03  0.46837978986E+03  0.00000000000E+00 0.  1.
          1    1    3    3  501    0 -0.86670195466E+02 -0.13209345729E+03 -0.52844252173E+03  0.55155407986E+03  0.00000000000E+00 0.  1.
         21    1    1    2  502  501 -0.58591144613E+00 -0.15503802298E+02 -0.23874737210E+00  0.15516706423E+02  0.00000000000E+00 0. -1.
<mgrwt>
<rscale>  1 0.30000000E+03</rscale>
<asrwt>0</asrwt>
<pdfrwt beam="1">  1        1 0.12891146E+00 0.30000000E+03</pdfrwt>
<pdfrwt beam="2">0</pdfrwt>
<totfact> 0.23194812E+01</totfact>
</mgrwt>
</event>
<event>
 6    1  0.1969531E-004  0.3000000E+03  0.7818608E-02  0.1093470E+00
          1   -1    0    0  502    0  0.00000000000E+00  0.00000000000E+00  0.29989288711E+02  0.29989288711E+02  0.00000000000E+00 0.  1.
         13   -1    0    0    0    0 -0.00000000000E+00 -0.00000000000E+00 -0.10000000000E+04  0.10000000000E+04  0.00000000000E+00 0.  1.
    9000005    2    1    2  501    0 -0.14332108579E+02  0.18575143386E+02 -0.90710161402E+03  0.96284764882E+03  0.32201212926E+03 0.  0.
         13    1    3    3    0    0 -0.54976696073E+02  0.76074506388E+02 -0.56953140225E+02  0.10978810416E+03  0.00000000000E+00 0.  1.
          1    1    3    3  501    0  0.40644587493E+02 -0.57499363002E+02 -0.85014847380E+03  0.85305954466E+03  0.00000000000E+00 0.  1.
         21    1    1    2  502  501  0.14332108579E+02 -0.18575143386E+02 -0.62909097264E+02  0.67141639887E+02  0.00000000000E+00 0.  1.
<mgrwt>
<rscale>  1 0.30000000E+03</rscale>
<asrwt>0</asrwt>
<pdfrwt beam="1">  1        1 0.10905219E+00 0.30000000E+03</pdfrwt>
<pdfrwt beam="2">0</pdfrwt>
<totfact> 0.30099707E+01</totfact>
</mgrwt>
</event>
<event>
 6    1  0.1969531E-004  0.3000000E+03  0.7818608E-02  0.1093470E+00
          1   -1    0    0  502    0  0.00000000000E+00  0.00000000000E+00  0.61686481421E+02  0.61686481421E+02  0.00000000000E+00 0.  1.
         13   -1    0    0    0    0 -0.00000000000E+00 -0.00000000000E+00 -0.10000000000E+04  0.10000000000E+04  0.00000000000E+00 0.  1.
    9000005    2    1    2  501    0  0.16841548995E+02 -0.15493728227E+02 -0.94562161242E+03  0.10376635419E+04  0.42664001096E+03 0.  0.
         13    1    3    3    0    0  0.10474165088E+01 -0.19533887389E+03 -0.73374070097E+03  0.75929822138E+03  0.00000000000E+00 0.  1.
          1    1    3    3  501    0  0.15794132487E+02  0.17984514566E+03 -0.21188091146E+03  0.27836532054E+03  0.00000000000E+00 0.  1.
         21    1    1    2  502  501 -0.16841548995E+02  0.15493728227E+02  0.73080938439E+01  0.24022939507E+02  0.00000000000E+00 0. -1.
<mgrwt>
<rscale>  1 0.30000000E+03</rscale>
<asrwt>0</asrwt>
<pdfrwt beam="1">  1        1 0.22431495E+00 0.30000000E+03</pdfrwt>
<pdfrwt beam="2">0</pdfrwt>
<totfact> 0.78683013E+00</totfact>
</mgrwt>
</event>
<event>
 6    1  0.1969531E-004  0.3000000E+03  0.7818608E-02  0.1093470E+00
          1   -1    0    0  502    0  0.00000000000E+00  0.00000000000E+00  0.26624152606E+02  0.26624152606E+02  0.00000000000E+00 0.  1.
         13   -1    0    0    0    0 -0.00000000000E+00 -0.00000000000E+00 -0.10000000000E+04  0.10000000000E+04  0.00000000000E+00 0.  1.
    9000005    2    1    2  501    0 -0.84688913501E+01 -0.33248350282E+01 -0.93654322213E+03  0.98868447770E+03  0.31670335152E+03 0.  0.
         13    1    3    3    0    0  0.42313926695E+02  0.18412779303E+02 -0.93212700178E+03  0.93326858207E+03  0.00000000000E+00 0.  1.
          1    1    3    3  501    0 -0.50782818046E+02 -0.21737614331E+02 -0.44162203508E+01  0.55415895623E+02  0.00000000000E+00 0.  1.
         21    1    1    2  502  501  0.84688913501E+01  0.33248350282E+01 -0.36832625260E+02  0.37939674909E+02  0.00000000000E+00 0. -1.
<mgrwt>
<rscale>  1 0.30000000E+03</rscale>
<asrwt>0</asrwt>
<pdfrwt beam="1">  1        1 0.96815305E-01 0.30000000E+03</pdfrwt>
<pdfrwt beam="2">0</pdfrwt>
<totfact> 0.35877163E+01</totfact>
</mgrwt>
</event>
<event>
 6    1  0.1969531E-004  0.3000000E+03  0.7818608E-02  0.1093470E+00
          1   -1    0    0  502    0  0.00000000000E+00  0.00000000000E+00  0.36700304445E+02  0.36700304445E+02  0.00000000000E+00 0.  1.
         13   -1    0    0    0    0 -0.00000000000E+00 -0.00000000000E+00 -0.10000000000E+04  0.10000000000E+04  0.00000000000E+00 0.  1.
    9000005    2    1    2  501    0 -0.22889142242E+02  0.89452610648E+01 -0.93388328392E+03  0.99836943175E+03  0.35213577458E+03 0.  0.
         13    1    3    3    0    0 -0.17308657215E+02  0.94455958311E+02 -0.90175232438E+03  0.90685101984E+03  0.00000000000E+00 0.  1.
          1    1    3    3  501    0 -0.55804850272E+01 -0.85510697246E+02 -0.32130959547E+02  0.91518411907E+02  0.00000000000E+00 0.  1.
         21    1    1    2  502  501  0.22889142242E+02 -0.89452610648E+01 -0.29416411633E+02  0.38330872694E+02  0.00000000000E+00 0. -1.
<mgrwt>
<rscale>  1 0.30000000E+03</rscale>
<asrwt>0</asrwt>
<pdfrwt beam="1">  1        1 0.13345593E+00 0.30000000E+03</pdfrwt>
<pdfrwt beam="2">0</pdfrwt>
<totfact> 0.21915881E+01</totfact>
</mgrwt>
</event>
<event>
 6    1  0.1969531E-004  0.3000000E+03  0.7818608E-02  0.1093470E+00
          1   -1    0    0  502    0  0.00000000000E+00  0.00000000000E+00  0.37301275012E+02  0.37301275012E+02  0.00000000000E+00 0.  1.
         13   -1    0    0    0    0 -0.00000000000E+00 -0.00000000000E+00 -0.10000000000E+04  0.10000000000E+04  0.00000000000E+00 0.  1.
    9000005    2    1    2  501    0 -0.12056722110E+02  0.61497492528E+02 -0.80677930903E+03  0.86925910647E+03  0.31747635277E+03 0.  0.
         13    1    3    3    0    0 -0.81965539954E+02  0.17323633302E+03 -0.49086556066E+03  0.52695177717E+03  0.00000000000E+00 0.  1.
          3    1    3    3  501    0  0.69908817844E+02 -0.11173884049E+03 -0.31591374837E+03  0.34230732930E+03  0.00000000000E+00 0.  1.
         21    1    1    2  502  501  0.12056722110E+02 -0.61497492528E+02 -0.15591941596E+03  0.16804216854E+03  0.00000000000E+00 0.  1.
<mgrwt>
<rscale>  1 0.30000000E+03</rscale>
<asrwt>0</asrwt>
<pdfrwt beam="1">  1        1 0.13564129E+00 0.30000000E+03</pdfrwt>
<pdfrwt beam="2">0</pdfrwt>
<totfact> 0.21333874E+01</totfact>
</mgrwt>
</event>
<event>
 6    1  0.1969531E-004  0.3000000E+03  0.7818608E-02  0.1093470E+00
          1   -1    0    0  502    0  0.00000000000E+00  0.00000000000E+00  0.30901721508E+02  0.30901721508E+02  0.00000000000E+00 0.  1.
         13   -1    0    0    0    0 -0.00000000000E+00 -0.00000000000E+00 -0.10000000000E+04  0.10000000000E+04  0.00000000000E+00 0.  1.
    9000005    2    1    2  501    0 -0.21125890544E+02 -0.85268443251E+01 -0.91660432740E+03  0.97367738030E+03  0.32766619840E+03 0.  0.
         13    1    3    3    0    0  0.34779120335E+02  0.13799434052E+03 -0.23898203484E+03  0.27814463541E+03  0.00000000000E+00 0.  1.
          3    1    3    3  501    0 -0.55905010879E+02 -0.14652118485E+03 -0.67762229256E+03  0.69553274490E+03  0.00000000000E+00 0.  1.
         21    1    1    2  502  501  0.21125890544E+02  0.85268443251E+01 -0.52493951089E+02  0.57224341205E+02  0.00000000000E+00 0. -1.
<mgrwt>
<rscale>  1 0.30000000E+03</rscale>
<asrwt>0</asrwt>
<pdfrwt beam="1">  1        1 0.11237013E+00 0.30000000E+03</pdfrwt>
<pdfrwt beam="2">0</pdfrwt>
<totfact> 0.28765056E+01</totfact>
</mgrwt>
</event>
<event>
 6    1  0.1969531E-004  0.3000000E+03  0.7818608E-02  0.1093470E+00
          1   -1    0    0  502    0  0.00000000000E+00  0.00000000000E+00  0.39048725450E+02  0.39048725450E+02  0.00000000000E+00 0.  1.
         13   -1    0    0    0    0 -0.00000000000E+00 -0.00000000000E+00 -0.10000000000E+04  0.10000000000E+04  0.00000000000E+00 0.  1.
    9000005    2    1    2  501    0  0.13572611726E+02 -0.82143681415E+01 -0.96870230469E+03  0.10213917126E+04  0.32342724669E+03 0.  0.
         13    1    3    3    0    0 -0.42316512590E+01 -0.68683177656E+02 -0.95424066694E+03  0.95671862959E+03  0.00000000000E+00 0.  1.
          1    1    3    3  501    0  0.17804262985E+02  0.60468809514E+02 -0.14461637749E+02  0.64673083048E+02  0.00000000000E+00 0.  1.
         21    1    1    2  502  501 -0.13572611726E+02  0.82143681415E+01  0.77510301429E+01  0.17657012808E+02  0.00000000000E+00 0.  1.
<mgrwt>
<rscale>  1 0.30000000E+03</rscale>
<asrwt>0</asrwt>
<pdfrwt beam="1">  1        1 0.14199566E+00 0.30000000E+03</pdfrwt>
<pdfrwt beam="2">0</pdfrwt>
<totfact> 0.19752103E+01</totfact>
</mgrwt>
</event>
<event>
 6    1  0.1969531E-004  0.3000000E+03  0.7818608E-02  0.1093470E+00
          1   -1    0    0  502    0  0.00000000000E+00  0.00000000000E+00  0.40168783155E+02  0.40168783155E+02  0.00000000000E+00 0.  1.
         13   -1    0    0    0    0 -0.00000000000E+00 -0.00000000000E+00 -0.10000000000E+04  0.10000000000E+04  0.00000000000E+00 0.  1.
    9000005    2    1    2  501    0 -0.19723912623E+02 -0.20333221963E+02 -0.95744786398E+03  0.10117407509E+04  0.32574600879E+03 0.  0.
         13    1    3    3    0    0  0.38940539724E+02 -0.10042219560E+03 -0.87801786449E+03  0.88459954407E+03  0.00000000000E+00 0.  1.
          1    1    3    3  501    0 -0.58664452347E+02  0.80088973635E+02 -0.79429999486E+02  0.12714120687E+03  0.00000000000E+00 0.  1.
         21    1    1    2  502  501  0.19723912623E+02  0.20333221963E+02 -0.23833528695E+01  0.28428032212E+02  0.00000000000E+00 0.  1.
<mgrwt>
<rscale>  1 0.30000000E+03</rscale>
<asrwt>0</asrwt>
<pdfrwt beam="1">  1        1 0.14606861E+00 0.30000000E+03</pdfrwt>
<pdfrwt beam="2">0</pdfrwt>
<totfact> 0.18816140E+01</totfact>
</mgrwt>
</event>
<event>
 6    1  0.1969531E-004  0.3000000E+03  0.7818608E-02  0.1093470E+00
          1   -1    0    0  502    0  0.00000000000E+00  0.00000000000E+00  0.55106468478E+02  0.55106468478E+02  0.00000000000E+00 0.  1.
         13   -1    0    0    0    0 -0.00000000000E+00 -0.00000000000E+00 -0.10000000000E+04  0.10000000000E+04  0.00000000000E+00 0.  1.
    9000005    2    1    2  501    0 -0.34976312771E+01 -0.26794192082E+02 -0.96526231482E+03  0.10212678886E+04  0.33245541318E+03 0.  0.
         13    1    3    3    0    0  0.79557262905E+02 -0.15044748845E+03 -0.36387168730E+03  0.40170438096E+03  0.00000000000E+00 0.  1.
          1    1    3    3  501    0 -0.83054894182E+02  0.12365329637E+03 -0.60139062752E+03  0.61956350766E+03  0.00000000000E+00 0.  1.
         21    1    1    2  502  501  0.34976312771E+01  0.26794192082E+02  0.20368783299E+02  0.33838579860E+02  0.00000000000E+00 0.  1.
<mgrwt>
<rscale>  1 0.30000000E+03</rscale>
<asrwt>0</asrwt>
<pdfrwt beam="1">  1        1 0.20038758E+00 0.30000000E+03</pdfrwt>
<pdfrwt beam="2">0</pdfrwt>
<totfact> 0.10200056E+01</totfact>
</mgrwt>
</event>
<event>
 6    1  0.1969531E-004  0.3000000E+03  0.7818608E-02  0.1093470E+00
          1   -1    0    0  502    0  0.00000000000E+00  0.00000000000E+00  0.31194374411E+02  0.31194374411E+02  0.00000000000E+00 0.  1.
         13   -1    0    0    0    0 -0.00000000000E+00 -0.00000000000E+00 -0.10000000000E+04  0.10000000000E+04  0.00000000000E+00 0.  1.
    9000005    2    1    2  501    0  0.13842460626E+02 -0.12207977334E+02 -0.95998418698E+03  0.10107379279E+04  0.31572277573E+03 0.  0.
         13    1    3    3    0    0  0.20137588468E+02 -0.29046377029E+02 -0.98181906433E+03  0.98245503183E+03  0.00000000000E+00 0.  1.
          1    1    3    3  501    0 -0.62951278415E+01  0.16838399695E+02  0.21834877344E+02  0.28282896024E+02  0.00000000000E+00 0.  1.
         21    1    1    2  502  501 -0.13842460626E+02  0.12207977334E+02 -0.88214386074E+01  0.20456446561E+02  0.00000000000E+00 0. -1.
<mgrwt>
<rscale>  1 0.30000000E+03</rscale>
<asrwt>0</asrwt>
<pdfrwt beam="1">  1        1 0.11343433E+00 0.30000000E+03</pdfrwt>
<pdfrwt beam="2">0</pdfrwt>
<totfact> 0.28354780E+01</totfact>
</mgrwt>
</event>
<event>
 6    1  0.1969531E-004  0.3000000E+03  0.7818608E-02  0.1093470E+00
          1   -1    0    0  502    0  0.00000000000E+00  0.00000000000E+00  0.59369281973E+02  0.59369281973E+02  0.00000000000E+00 0.  1.
         13   -1    0    0    0    0 -0.00000000000E+00 -0.00000000000E+00 -0.10000000000E+04  0.10000000000E+04  0.00000000000E+00 0.  1.
    9000005    2    1    2  501    0  0.27576801128E+02 -0.39177871065E+02 -0.94545667038E+03  0.10112166563E+04  0.35549321358E+03 0.  0.
         13    1    3    3    0    0  0.57378773486E+02  0.86951982022E+02 -0.83340510177E+03  0.83989108489E+03  0.00000000000E+00 0.  1.
          3    1    3    3  501    0 -0.29801972358E+02 -0.12612985309E+03 -0.11205156861E+03  0.17132557142E+03  0.00000000000E+00 0.  1.
         21    1    1    2  502  501 -0.27576801128E+02  0.39177871065E+02  0.48259523504E+01  0.48152625658E+02  0.00000000000E+00 0. -1.
<mgrwt>
<rscale>  1 0.30000000E+03</rscale>
<asrwt>0</asrwt>
<pdfrwt beam="1">  1        1 0.21588875E+00 0.30000000E+03</pdfrwt>
<pdfrwt beam="2">0</pdfrwt>
<totfact> 0.86176921E+00</totfact>
</mgrwt>
</event>
<event>
 6    1  0.1969531E-004  0.3000000E+03  0.7818608E-02  0.1093470E+00
          1   -1    0    0  502    0  0.00000000000E+00  0.00000000000E+00  0.33708292552E+02  0.33708292552E+02  0.00000000000E+00 0.  1.
         13   -1    0    0    0    0 -0.00000000000E+00 -0.00000000000E+00 -0.10000000000E+04  0.10000000000E+04  0.00000000000E+00 0.  1.
    9000005    2    1    2  501    0  0.27664436883E+02 -0.12032334358E+01 -0.94003873895E+03  0.99555089230E+03  0.32662207458E+03 0.  0.
         13    1    3    3    0    0  0.76907634581E+02  0.12968413350E+03 -0.25379106232E+03  0.29519935985E+03  0.00000000000E+00 0.  1.
          1    1    3    3  501    0 -0.49243197698E+02 -0.13088736693E+03 -0.68624767662E+03  0.70035153245E+03  0.00000000000E+00 0.  1.
         21    1    1    2  502  501 -0.27664436883E+02  0.12032334358E+01 -0.26252968503E+02  0.38157400252E+02  0.00000000000E+00 0. -1.
<mgrwt>
<rscale>  1 0.30000000E+03</rscale>
<asrwt>0</asrwt>
<pdfrwt beam="1">  1        1 0.12257587E+00 0.30000000E+03</pdfrwt>
<pdfrwt beam="2">0</pdfrwt>
<totfact> 0.25143305E+01</totfact>
</mgrwt>
</event>
<event>
 6    1  0.1969531E-004  0.3000000E+03  0.7818608E-02  0.1093470E+00
          1   -1    0    0  502    0  0.00000000000E+00  0.00000000000E+00  0.39065754346E+02  0.39065754346E+02  0.00000000000E+00 0.  1.
         13   -1    0    0    0    0 -0.00000000000E+00 -0.00000000000E+00 -0.10000000000E+04  0.10000000000E+04  0.00000000000E+00 0.  1.
    9000005    2    1    2  501    0 -0.99968449904E+01  0.31860788182E+01 -0.97134194548E+03  0.10242871136E+04  0.32488279108E+03 0.  0.
         13    1    3    3    0    0 -0.14231982778E+03  0.88486880972E+02 -0.50805947907E+03  0.53498532293E+03  0.00000000000E+00 0.  1.
          1    1    3    3  501    0  0.13232298279E+03 -0.85300802154E+02 -0.46328246641E+03  0.48930179062E+03  0.00000000000E+00 0.  1.
         21    1    1    2  502  501  0.99968449904E+01 -0.31860788182E+01  0.10407699825E+02  0.14778640791E+02  0.00000000000E+00 0.  1.
<mgrwt>
<rscale>  1 0.30000000E+03</rscale>
<asrwt>0</asrwt>
<pdfrwt beam="1">  1        1 0.14205759E+00 0.30000000E+03</pdfrwt>
<pdfrwt beam="2">0</pdfrwt>
<totfact> 0.19737438E+01</totfact>
</mgrwt>
</event>
<event>
 6    1  0.1969531E-004  0.3000000E+03  0.7818608E-02  0.1093470E+00
          1   -1    0    0  502    0  0.00000000000E+00  0.00000000000E+00  0.53253320192E+02  0.53253320192E+02  0.00000000000E+00 0.  1.
         13   -1    0    0    0    0 -0.00000000000E+00 -0.00000000000E+00 -0.10000000000E+04  0.10000000000E+04  0.00000000000E+00 0.  1.
    9000005    2    1    2  501    0 -0.75791920301E+01 -0.23721304976E+02 -0.94728973282E+03  0.10283446998E+04  0.39939308872E+03 0.  0.
         13    1    3    3    0    0 -0.10633023031E+03 -0.14478209435E+03 -0.21783413295E+03  0.28234674109E+03  0.00000000000E+00 0.  1.
          3    1    3    3  501    0  0.98751038280E+02  0.12106078937E+03 -0.72945559986E+03  0.74599795875E+03  0.00000000000E+00 0.  1.
         21    1    1    2  502  501  0.75791920301E+01  0.23721304976E+02  0.54305300731E+00  0.24908620359E+02  0.00000000000E+00 0.  1.
<mgrwt>
<rscale>  1 0.30000000E+03</rscale>
<asrwt>0</asrwt>
<pdfrwt beam="1">  1        1 0.19364885E+00 0.30000000E+03</pdfrwt>
<pdfrwt beam="2">0</pdfrwt>
<totfact> 0.10982806E+01</totfact>
</mgrwt>
</event>
<event>
 6    1  0.1969531E-004  0.3000000E+03  0.7818608E-02  0.1093470E+00
          1   -1    0    0  502    0  0.00000000000E+00  0.00000000000E+00  0.30833067693E+02  0.30833067693E+02  0.00000000000E+00 0.  1.
         13   -1    0    0    0    0 -0.00000000000E+00 -0.00000000000E+00 -0.10000000000E+04  0.10000000000E+04  0.00000000000E+00 0.  1.
    9000005    2    1    2  501    0 -0.50625360985E+01 -0.14494433842E+02 -0.96761800398E+03  0.10154020255E+04  0.30744260258E+03 0.  0.
         13    1    3    3    0    0  0.14377939413E+03 -0.38946918013E+01 -0.63112671103E+03  0.64730874255E+03  0.00000000000E+00 0.  1.
          1    1    3    3  501    0 -0.14884193023E+03 -0.10599742040E+02 -0.33649129295E+03  0.36809328295E+03  0.00000000000E+00 0.  1.
         21    1    1    2  502  501  0.50625360985E+01  0.14494433842E+02 -0.15489283248E+01  0.15431042191E+02  0.00000000000E+00 0.  1.
<mgrwt>
<rscale>  1 0.30000000E+03</rscale>
<asrwt>0</asrwt>
<pdfrwt beam="1">  1        1 0.11212048E+00 0.30000000E+03</pdfrwt>
<pdfrwt beam="2">0</pdfrwt>
<totfact> 0.28862533E+01</totfact>
</mgrwt>
</event>
<event>
 6    1  0.1969531E-004  0.3000000E+03  0.7818608E-02  0.1093470E+00
          1   -1    0    0  502    0  0.00000000000E+00  0.00000000000E+00  0.31896087519E+02  0.31896087519E+02  0.00000000000E+00 0.  1.
         13   -1    0    0    0    0 -0.00000000000E+00 -0.00000000000E+00 -0.10000000000E+04  0.10000000000E+04  0.00000000000E+00 0.  1.
    9000005    2    1    2  501    0  0.10565959857E+02  0.16591421865E+02 -0.95644625963E+03  0.10090309250E+04  0.32088478501E+03 0.  0.
         13    1    3    3    0    0 -0.78857409879E+02  0.14495646546E+03 -0.49754501395E+03  0.52419644112E+03  0.00000000000E+00 0.  1.
          1    1    3    3  501    0  0.89423369735E+02 -0.12836504360E+03 -0.45890124568E+03  0.48483448388E+03  0.00000000000E+00 0.  1.
         21    1    1    2  502  501 -0.10565959857E+02 -0.16591421865E+02 -0.11657652848E+02  0.22865162521E+02  0.00000000000E+00 0.  1.
<mgrwt>
<rscale>  1 0.30000000E+03</rscale>
<asrwt>0</asrwt>
<pdfrwt beam="1">  1        1 0.11598602E+00 0.30000000E+03</pdfrwt>
<pdfrwt beam="2">0</pdfrwt>
<totfact> 0.27404193E+01</totfact>
</mgrwt>
</event>
<event>
 6    1  0.1969531E-004  0.3000000E+03  0.7818608E-02  0.1093470E+00
          3   -1    0    0  502    0  0.00000000000E+00  0.00000000000E+00  0.29962785829E+02  0.29962785829E+02  0.00000000000E+00 0.  1.
         13   -1    0    0    0    0 -0.00000000000E+00 -0.00000000000E+00 -0.10000000000E+04  0.10000000000E+04  0.00000000000E+00 0.  1.
    9000005    2    1    2  501    0  0.11458264930E+02 -0.18981716625E+02 -0.83069772006E+03  0.88887029127E+03  0.31549975466E+03 0.  0.
         13    1    3    3    0    0 -0.27641729615E+02  0.11827338623E+03 -0.63585223175E+03  0.64734899376E+03  0.00000000000E+00 0.  1.
          1    1    3    3  501    0  0.39099994545E+02 -0.13725510286E+03 -0.19484548831E+03  0.24152129751E+03  0.00000000000E+00 0.  1.
         21    1    1    2  502  501 -0.11458264930E+02  0.18981716625E+02 -0.13933949411E+03  0.14109249456E+03  0.00000000000E+00 0.  1.
<mgrwt>
<rscale>  1 0.30000000E+03</rscale>
<asrwt>0</asrwt>
<pdfrwt beam="1">  1        3 0.10895581E+00 0.30000000E+03</pdfrwt>
<pdfrwt beam="2">0</pdfrwt>
<totfact> 0.30973300E+00</totfact>
</mgrwt>
</event>
<event>
 6    1  0.1969531E-004  0.3000000E+03  0.7818608E-02  0.1093470E+00
          1   -1    0    0  502    0  0.00000000000E+00  0.00000000000E+00  0.32156698483E+02  0.32156698483E+02  0.00000000000E+00 0.  1.
         13   -1    0    0    0    0 -0.00000000000E+00 -0.00000000000E+00 -0.10000000000E+04  0.10000000000E+04  0.00000000000E+00 0.  1.
    9000005    2    1    2  501    0  0.16411852266E+02 -0.32279927759E+01 -0.95204658806E+03  0.10091500693E+04  0.33423253525E+03 0.  0.
         13    1    3    3    0    0  0.95631297915E+02  0.93944079804E+02 -0.80422811337E+03  0.81532428739E+03  0.00000000000E+00 0.  1.
          1    1    3    3  501    0 -0.79219445650E+02 -0.97172072580E+02 -0.14781847469E+03  0.19382578187E+03  0.00000000000E+00 0.  1.
         21    1    1    2  502  501 -0.16411852266E+02  0.32279927759E+01 -0.15796713458E+02  0.23006629224E+02  0.00000000000E+00 0. -1.
<mgrwt>
<rscale>  1 0.30000000E+03</rscale>
<asrwt>0</asrwt>
<pdfrwt beam="1">  1        1 0.11693370E+00 0.30000000E+03</pdfrwt>
<pdfrwt beam="2">0</pdfrwt>
<totfact> 0.27062482E+01</totfact>
</mgrwt>
</event>
<event>
 6    1  0.1969531E-004  0.3000000E+03  0.7818608E-02  0.1093470E+00
          1   -1    0    0  502    0  0.00000000000E+00  0.00000000000E+00  0.47249016309E+02  0.47249016309E+02  0.00000000000E+00 0.  1.
         13   -1    0    0    0    0 -0.00000000000E+00 -0.00000000000E+00 -0.10000000000E+04  0.10000000000E+04  0.00000000000E+00 0.  1.
    9000005    2    1    2  501    0 -0.14391410730E+02  0.42475089281E+01 -0.97109980484E+03  0.10235459939E+04  0.32308886796E+03 0.  0.
         13    1    3    3    0    0 -0.12391344626E+03  0.25680326809E+02 -0.84799673943E+03  0.85738701380E+03  0.00000000000E+00 0.  1.
          3    1    3    3  501    0  0.10952203553E+03 -0.21432817881E+02 -0.12310306541E+03  0.16615898008E+03  0.00000000000E+00 0.  1.
         21    1    1    2  502  501  0.14391410730E+02 -0.42475089281E+01  0.18348821146E+02  0.23703022430E+02  0.00000000000E+00 0.  1.
<mgrwt>
<rscale>  1 0.30000000E+03</rscale>
<asrwt>0</asrwt>
<pdfrwt beam="1">  1        1 0.17181497E+00 0.30000000E+03</pdfrwt>
<pdfrwt beam="2">0</pdfrwt>
<totfact> 0.13998690E+01</totfact>
</mgrwt>
</event>
<event>
 6    1  0.1969531E-004  0.3000000E+03  0.7818608E-02  0.1093470E+00
          1   -1    0    0  502    0  0.00000000000E+00  0.00000000000E+00  0.32062765804E+02  0.32062765804E+02  0.00000000000E+00 0.  1.
         13   -1    0    0    0    0 -0.00000000000E+00 -0.00000000000E+00 -0.10000000000E+04  0.10000000000E+04  0.00000000000E+00 0.  1.
    9000005    2    1    2  501    0  0.78443445363E+01 -0.84978595250E+01 -0.97207994506E+03  0.10197782466E+04  0.30801705373E+03 0.  0.
         13    1    3    3    0    0  0.15177055530E+03 -0.31704957234E+02 -0.61131535966E+03  0.63067105112E+03  0.00000000000E+00 0.  1.
          3    1    3    3  501    0 -0.14392621076E+03  0.23207097709E+02 -0.36076458540E+03  0.38910719552E+03  0.00000000000E+00 0.  1.
         21    1    1    2  502  501 -0.78443445363E+01  0.84978595250E+01  0.41427108623E+01  0.12284519160E+02  0.00000000000E+00 0.  1.
<mgrwt>
<rscale>  1 0.30000000E+03</rscale>
<asrwt>0</asrwt>
<pdfrwt beam="1">  1        1 0.11659212E+00 0.30000000E+03</pdfrwt>
<pdfrwt beam="2">0</pdfrwt>
<totfact> 0.27184963E+01</totfact>
</mgrwt>
</event>
<event>
 6    1  0.1969531E-004  0.3000000E+03  0.7818608E-02  0.1093470E+00
          1   -1    0    0  502    0  0.00000000000E+00  0.00000000000E+00  0.39543034558E+02  0.39543034558E+02  0.00000000000E+00 0.  1.
         13   -1    0    0    0    0 -0.00000000000E+00 -0.00000000000E+00 -0.10000000000E+04  0.10000000000E+04  0.00000000000E+00 0.  1.
    9000005    2    1    2  501    0 -0.13587774361E+02 -0.57303813883E+01 -0.96873315521E+03  0.10226326768E+04  0.32728611450E+03 0.  0.
         13    1    3    3    0    0  0.10805628412E+03 -0.10685663231E+03 -0.64032602993E+03  0.65811239543E+03  0.00000000000E+00 0.  1.
          3    1    3    3  501    0 -0.12164405848E+03  0.10112625092E+03 -0.32840712528E+03  0.36452028136E+03  0.00000000000E+00 0.  1.
         21    1    1    2  502  501  0.13587774361E+02  0.57303813883E+01  0.82761897680E+01  0.16910357773E+02  0.00000000000E+00 0.  1.
<mgrwt>
<rscale>  1 0.30000000E+03</rscale>
<asrwt>0</asrwt>
<pdfrwt beam="1">  1        1 0.14379316E+00 0.30000000E+03</pdfrwt>
<pdfrwt beam="2">0</pdfrwt>
<totfact> 0.19331959E+01</totfact>
</mgrwt>
</event>
<event>
 6    1  0.1969531E-004  0.3000000E+03  0.7818608E-02  0.1093470E+00
          1   -1    0    0  502    0  0.00000000000E+00  0.00000000000E+00  0.37352719879E+02  0.37352719879E+02  0.00000000000E+00 0.  1.
         13   -1    0    0    0    0 -0.00000000000E+00 -0.00000000000E+00 -0.10000000000E+04  0.10000000000E+04  0.00000000000E+00 0.  1.
    9000005    2    1    2  501    0 -0.15355771472E+02 -0.49345725451E+02 -0.88910516814E+03  0.94746811290E+03  0.32329092874E+03 0.  0.
         13    1    3    3    0    0  0.15107944569E+03 -0.47471665234E+02 -0.37423747227E+03  0.40636466820E+03  0.00000000000E+00 0.  1.
          1    1    3    3  501    0 -0.16643521716E+03 -0.18740602170E+01 -0.51486769587E+03  0.54110344470E+03  0.00000000000E+00 0.  1.
         21    1    1    2  502  501  0.15355771472E+02  0.49345725451E+02 -0.73542111977E+02  0.89884606979E+02  0.00000000000E+00 0.  1.
<mgrwt>
<rscale>  1 0.30000000E+03</rscale>
<asrwt>0</asrwt>
<pdfrwt beam="1">  1        1 0.13582836E+00 0.30000000E+03</pdfrwt>
<pdfrwt beam="2">0</pdfrwt>
<totfact> 0.21285013E+01</totfact>
</mgrwt>
</event>
<event>
 6    1  0.1969531E-004  0.3000000E+03  0.7818608E-02  0.1093470E+00
          1   -1    0    0  502    0  0.00000000000E+00  0.00000000000E+00  0.39848004913E+02  0.39848004913E+02  0.00000000000E+00 0.  1.
         13   -1    0    0    0    0 -0.00000000000E+00 -0.00000000000E+00 -0.10000000000E+04  0.10000000000E+04  0.00000000000E+00 0.  1.
    9000005    2    1    2  501    0 -0.58823032942E+02  0.23899487517E+02 -0.73599434863E+03  0.80687164308E+03  0.32453479395E+03 0.  0.
         13    1    3    3    0    0  0.55890209102E+02  0.56275290973E+02 -0.66166222568E+03  0.66639892313E+03  0.00000000000E+00 0.  1.
          1    1    3    3  501    0 -0.11471324204E+03 -0.32375803456E+02 -0.74332122949E+02  0.14047271996E+03  0.00000000000E+00 0.  1.
         21    1    1    2  502  501  0.58823032942E+02 -0.23899487517E+02 -0.22415764645E+03  0.23297636183E+03  0.00000000000E+00 0. -1.
<mgrwt>
<rscale>  1 0.30000000E+03</rscale>
<asrwt>0</asrwt>
<pdfrwt beam="1">  1        1 0.14490214E+00 0.30000000E+03</pdfrwt>
<pdfrwt beam="2">0</pdfrwt>
<totfact> 0.19078369E+01</totfact>
</mgrwt>
</event>
<event>
 6    1  0.1969531E-004  0.3000000E+03  0.7818608E-02  0.1093470E+00
          1   -1    0    0  502    0  0.00000000000E+00  0.00000000000E+00  0.34696334792E+02  0.34696334792E+02  0.00000000000E+00 0.  1.
         13   -1    0    0    0    0 -0.00000000000E+00 -0.00000000000E+00 -0.10000000000E+04  0.10000000000E+04  0.00000000000E+00 0.  1.
    9000005    2    1    2  501    0 -0.31900666858E+02  0.96374474922E+01 -0.93739669085E+03  0.99122988615E+03  0.32048962266E+03 0.  0.
         13    1    3    3    0    0 -0.13736270811E+03 -0.34696080050E+02 -0.20049396272E+03  0.24549981800E+03  0.00000000000E+00 0.  1.
          3    1    3    3  501    0  0.10546204126E+03  0.44333527542E+02 -0.73690272813E+03  0.74573006814E+03  0.00000000000E+00 0.  1.
         21    1    1    2  502  501  0.31900666858E+02 -0.96374474922E+01 -0.27906974358E+02  0.43466448647E+02  0.00000000000E+00 0.  1.
<mgrwt>
<rscale>  1 0.30000000E+03</rscale>
<asrwt>0</asrwt>
<pdfrwt beam="1">  1        1 0.12616876E+00 0.30000000E+03</pdfrwt>
<pdfrwt beam="2">0</pdfrwt>
<totfact> 0.24013745E+01</totfact>
</mgrwt>
</event>
<event>
 6    1  0.1969531E-004  0.3000000E+03  0.7818608E-02  0.1093470E+00
          1   -1    0    0  502    0  0.00000000000E+00  0.00000000000E+00  0.60511867430E+02  0.60511867430E+02  0.00000000000E+00 0.  1.
         13   -1    0    0    0    0 -0.00000000000E+00 -0.00000000000E+00 -0.10000000000E+04  0.10000000000E+04  0.00000000000E+00 0.  1.
    9000005    2    1    2  501    0  0.16860150187E+02 -0.26496984470E+01 -0.97077907486E+03  0.10248690752E+04  0.32810565925E+03 0.  0.
         13    1    3    3    0    0  0.48126221664E+02 -0.15203621134E+03 -0.33489929706E+03  0.37092948378E+03  0.00000000000E+00 0.  1.
          3    1    3    3  501    0 -0.31266071477E+02  0.14938651289E+03 -0.63587977780E+03  0.65393959146E+03  0.00000000000E+00 0.  1.
         21    1    1    2  502  501 -0.16860150187E+02  0.26496984470E+01  0.31290942285E+02  0.35642792193E+02  0.00000000000E+00 0.  1.
<mgrwt>
<rscale>  1 0.30000000E+03</rscale>
<asrwt>0</asrwt>
<pdfrwt beam="1">  1        1 0.22004362E+00 0.30000000E+03</pdfrwt>
<pdfrwt beam="2">0</pdfrwt>
<totfact> 0.82393915E+00</totfact>
</mgrwt>
</event>
<event>
 6    1  0.1969531E-004  0.3000000E+03  0.7818608E-02  0.1093470E+00
          1   -1    0    0  502    0  0.00000000000E+00  0.00000000000E+00  0.55011196436E+02  0.55011196436E+02  0.00000000000E+00 0.  1.
         13   -1    0    0    0    0 -0.00000000000E+00 -0.00000000000E+00 -0.10000000000E+04  0.10000000000E+04  0.00000000000E+00 0.  1.
    9000005    2    1    2  501    0  0.29513824954E+02  0.38108261332E+01 -0.96492772558E+03  0.10191901290E+04  0.32676813685E+03 0.  0.
         13    1    3    3    0    0  0.39352947583E+02 -0.14707053687E+03 -0.29000772769E+03  0.32754065308E+03  0.00000000000E+00 0.  1.
          1    1    3    3  501    0 -0.98391226286E+01  0.15088136300E+03 -0.67491999788E+03  0.69164947595E+03  0.00000000000E+00 0.  1.
         21    1    1    2  502  501 -0.29513824954E+02 -0.38108261332E+01  0.19938922013E+02  0.35821067409E+02  0.00000000000E+00 0.  1.
<mgrwt>
<rscale>  1 0.30000000E+03</rscale>
<asrwt>0</asrwt>
<pdfrwt beam="1">  1        1 0.20004114E+00 0.30000000E+03</pdfrwt>
<pdfrwt beam="2">0</pdfrwt>
<totfact> 0.10238805E+01</totfact>
</mgrwt>
</event>
<event>
 6    1  0.1969531E-004  0.3000000E+03  0.7818608E-02  0.1093470E+00
          1   -1    0    0  502    0  0.00000000000E+00  0.00000000000E+00  0.43290654659E+02  0.43290654659E+02  0.00000000000E+00 0.  1.
         13   -1    0    0    0    0 -0.00000000000E+00 -0.00000000000E+00 -0.10000000000E+04  0.10000000000E+04  0.00000000000E+00 0.  1.
    9000005    2    1    2  501    0  0.12912946625E+02 -0.10918350951E+02 -0.96950320670E+03  0.10220859979E+04  0.32316770384E+03 0.  0.
         13    1    3    3    0    0  0.86571476634E+02  0.13443995136E+03 -0.44537658402E+03  0.47321139323E+03  0.00000000000E+00 0.  1.
          1    1    3    3  501    0 -0.73658530009E+02 -0.14535830231E+03 -0.52412662269E+03  0.54887460472E+03  0.00000000000E+00 0.  1.
         21    1    1    2  502  501 -0.12912946625E+02  0.10918350951E+02  0.12793861361E+02  0.21204656718E+02  0.00000000000E+00 0.  1.
<mgrwt>
<rscale>  1 0.30000000E+03</rscale>
<asrwt>0</asrwt>
<pdfrwt beam="1">  1        1 0.15742089E+00 0.30000000E+03</pdfrwt>
<pdfrwt beam="2">0</pdfrwt>
<totfact> 0.16483429E+01</totfact>
</mgrwt>
</event>
<event>
 6    1  0.1969531E-004  0.3000000E+03  0.7818608E-02  0.1093470E+00
          1   -1    0    0  502    0  0.00000000000E+00  0.00000000000E+00  0.42595130791E+02  0.42595130791E+02  0.00000000000E+00 0.  1.
         13   -1    0    0    0    0 -0.00000000000E+00 -0.00000000000E+00 -0.10000000000E+04  0.10000000000E+04  0.00000000000E+00 0.  1.
    9000005    2    1    2  501    0 -0.46204783142E+01 -0.10505636771E+02 -0.97061996035E+03  0.10250921065E+04  0.32951328082E+03 0.  0.
         13    1    3    3    0    0 -0.11245200970E+02  0.15146976720E+03 -0.31469962478E+03  0.34943582924E+03  0.00000000000E+00 0.  1.
          3    1    3    3  501    0  0.66247226553E+01 -0.16197540397E+03 -0.65592033557E+03  0.67565627730E+03  0.00000000000E+00 0.  1.
         21    1    1    2  502  501  0.46204783142E+01  0.10505636771E+02  0.13215091146E+02  0.17503024247E+02  0.00000000000E+00 0.  1.
<mgrwt>
<rscale>  1 0.30000000E+03</rscale>
<asrwt>0</asrwt>
<pdfrwt beam="1">  1        1 0.15489171E+00 0.30000000E+03</pdfrwt>
<pdfrwt beam="2">0</pdfrwt>
<totfact> 0.16971177E+01</totfact>
</mgrwt>
</event>
<event>
 6    1  0.1969531E-004  0.3000000E+03  0.7818608E-02  0.1093470E+00
          1   -1    0    0  502    0  0.00000000000E+00  0.00000000000E+00  0.42193833857E+02  0.42193833857E+02  0.00000000000E+00 0.  1.
         13   -1    0    0    0    0 -0.00000000000E+00 -0.00000000000E+00 -0.10000000000E+04  0.10000000000E+04  0.00000000000E+00 0.  1.
    9000005    2    1    2  501    0  0.88738845859E+00  0.15760543617E+02 -0.97012068998E+03  0.10221731023E+04  0.32164346069E+03 0.  0.
         13    1    3    3    0    0 -0.76615998354E+02 -0.73383509193E+02 -0.83903902120E+03  0.84571959285E+03  0.00000000000E+00 0.  1.
          1    1    3    3  501    0  0.77503386813E+02  0.89144052810E+02 -0.13108166878E+03  0.17645350948E+03  0.00000000000E+00 0.  1.
         21    1    1    2  502  501 -0.88738845859E+00 -0.15760543617E+02  0.12314523841E+02  0.20020731525E+02  0.00000000000E+00 0. -1.
<mgrwt>
<rscale>  1 0.30000000E+03</rscale>
<asrwt>0</asrwt>
<pdfrwt beam="1">  1        1 0.15343245E+00 0.30000000E+03</pdfrwt>
<pdfrwt beam="2">0</pdfrwt>
<totfact> 0.17260470E+01</totfact>
</mgrwt>
</event>
<event>
 6    1  0.1969531E-004  0.3000000E+03  0.7818608E-02  0.1093470E+00
          1   -1    0    0  502    0  0.00000000000E+00  0.00000000000E+00  0.58389965812E+02  0.58389965812E+02  0.00000000000E+00 0.  1.
         13   -1    0    0    0    0 -0.00000000000E+00 -0.00000000000E+00 -0.10000000000E+04  0.10000000000E+04  0.00000000000E+00 0.  1.
    9000005    2    1    2  501    0  0.88293398043E+02  0.64738388568E+02 -0.86081972808E+03  0.92232433219E+03  0.31254565491E+03 0.  0.
         13    1    3    3    0    0  0.43288483131E+02  0.13211359765E+03 -0.81980763170E+03  0.83151214570E+03  0.00000000000E+00 0.  1.
          3    1    3    3  501    0  0.45004914912E+02 -0.67375209081E+02 -0.41012096381E+02  0.90812186486E+02  0.00000000000E+00 0.  1.
         21    1    1    2  502  501 -0.88293398043E+02 -0.64738388568E+02 -0.80790306107E+02  0.13606563362E+03  0.00000000000E+00 0.  1.
<mgrwt>
<rscale>  1 0.30000000E+03</rscale>
<asrwt>0</asrwt>
<pdfrwt beam="1">  1        1 0.21232760E+00 0.30000000E+03</pdfrwt>
<pdfrwt beam="2">0</pdfrwt>
<totfact> 0.89563858E+00</totfact>
</mgrwt>
</event>
<event>
 6    1  0.1969531E-004  0.3000000E+03  0.7818608E-02  0.1093470E+00
          1   -1    0    0  502    0  0.00000000000E+00  0.00000000000E+00  0.33950406787E+02  0.33950406787E+02  0.00000000000E+00 0.  1.
         13   -1    0    0    0    0 -0.00000000000E+00 -0.00000000000E+00 -0.10000000000E+04  0.10000000000E+04  0.00000000000E+00 0.  1.
    9000005    2    1    2  501    0 -0.21531314526E+02  0.52168683239E+02 -0.83636260221E+03  0.89251531690E+03  0.30642457393E+03 0.  0.
         13    1    3    3    0    0 -0.43101762931E+02 -0.20277713375E+02 -0.81156587038E+03  0.81296255116E+03  0.00000000000E+00 0.  1.
          3    1    3    3  501    0  0.21570448405E+02  0.72446396614E+02 -0.24796731830E+02  0.79552765736E+02  0.00000000000E+00 0.  1.
         21    1    1    2  502  501  0.21531314526E+02 -0.52168683239E+02 -0.12968699100E+03  0.14143508989E+03  0.00000000000E+00 0. -1.
<mgrwt>
<rscale>  1 0.30000000E+03</rscale>
<asrwt>0</asrwt>
<pdfrwt beam="1">  1        1 0.12345629E+00 0.30000000E+03</pdfrwt>
<pdfrwt beam="2">0</pdfrwt>
<totfact> 0.24860300E+01</totfact>
</mgrwt>
</event>
<event>
 6    1  0.1969531E-004  0.3000000E+03  0.7818608E-02  0.1093470E+00
          1   -1    0    0  502    0  0.00000000000E+00  0.00000000000E+00  0.53044452770E+02  0.53044452770E+02  0.00000000000E+00 0.  1.
         13   -1    0    0    0    0 -0.00000000000E+00 -0.00000000000E+00 -0.10000000000E+04  0.10000000000E+04  0.00000000000E+00 0.  1.
    9000005    2    1    2  501    0 -0.26771173553E+02 -0.33606750312E+02 -0.47621094906E+03  0.58034308181E+03  0.32889985589E+03 0.  0.
         13    1    3    3    0    0 -0.35417947243E+02 -0.22992338499E+02  0.43399434941E+02  0.60552370472E+02  0.00000000000E+00 0.  1.
          3    1    3    3  501    0  0.86467736906E+01 -0.10614411813E+02 -0.51961038400E+03  0.51979071134E+03  0.00000000000E+00 0.  1.
         21    1    1    2  502  501  0.26771173553E+02  0.33606750312E+02 -0.47074459817E+03  0.47270137096E+03  0.00000000000E+00 0.  1.
<mgrwt>
<rscale>  1 0.30000000E+03</rscale>
<asrwt>0</asrwt>
<pdfrwt beam="1">  1        1 0.19288933E+00 0.30000000E+03</pdfrwt>
<pdfrwt beam="2">0</pdfrwt>
<totfact> 0.11075103E+01</totfact>
</mgrwt>
</event>
<event>
 6    1  0.1969531E-004  0.3000000E+03  0.7818608E-02  0.1093470E+00
          1   -1    0    0  502    0  0.00000000000E+00  0.00000000000E+00  0.30072052520E+02  0.30072052520E+02  0.00000000000E+00 0.  1.
         13   -1    0    0    0    0 -0.00000000000E+00 -0.00000000000E+00 -0.10000000000E+04  0.10000000000E+04  0.00000000000E+00 0.  1.
    9000005    2    1    2  501    0 -0.84974905991E+01  0.77036804951E+01 -0.95415496034E+03  0.10105697151E+04  0.33272797717E+03 0.  0.
         13    1    3    3    0    0 -0.92368403447E+02 -0.43311760263E+02 -0.88410498772E+03  0.88997160620E+03  0.00000000000E+00 0.  1.
          1    1    3    3  501    0  0.83870912848E+02  0.51015440758E+02 -0.70049972623E+02  0.12059810895E+03  0.00000000000E+00 0.  1.
         21    1    1    2  502  501  0.84974905991E+01 -0.77036804951E+01 -0.15772987138E+02  0.19502337371E+02  0.00000000000E+00 0.  1.
<mgrwt>
<rscale>  1 0.30000000E+03</rscale>
<asrwt>0</asrwt>
<pdfrwt beam="1">  1        1 0.10935315E+00 0.30000000E+03</pdfrwt>
<pdfrwt beam="2">0</pdfrwt>
<totfact> 0.29975063E+01</totfact>
</mgrwt>
</event>
<event>
 6    1  0.1969531E-004  0.3000000E+03  0.7818608E-02  0.1093470E+00
          1   -1    0    0  502    0  0.00000000000E+00  0.00000000000E+00  0.43236631383E+02  0.43236631383E+02  0.00000000000E+00 0.  1.
         13   -1    0    0    0    0 -0.00000000000E+00 -0.00000000000E+00 -0.10000000000E+04  0.10000000000E+04  0.00000000000E+00 0.  1.
    9000005    2    1    2  501    0 -0.56803593290E+01 -0.27389345068E+02 -0.95938484336E+03  0.10151418839E+04  0.33062263097E+03 0.  0.
         13    1    3    3    0    0  0.20993531520E+02  0.13133533228E+03 -0.20930709311E+03  0.24799023589E+03  0.00000000000E+00 0.  1.
          3    1    3    3  501    0 -0.26673890849E+02 -0.15872467735E+03 -0.75007775024E+03  0.76715164802E+03  0.00000000000E+00 0.  1.
         21    1    1    2  502  501  0.56803593290E+01  0.27389345068E+02  0.26214747415E+01  0.28094747466E+02  0.00000000000E+00 0.  1.
<mgrwt>
<rscale>  1 0.30000000E+03</rscale>
<asrwt>0</asrwt>
<pdfrwt beam="1">  1        1 0.15722445E+00 0.30000000E+03</pdfrwt>
<pdfrwt beam="2">0</pdfrwt>
<totfact> 0.16520711E+01</totfact>
</mgrwt>
</event>
<event>
 6    1  0.1969531E-004  0.3000000E+03  0.7818608E-02  0.1093470E+00
          1   -1    0    0  502    0  0.00000000000E+00  0.00000000000E+00  0.23770634406E+02  0.23770634406E+02  0.00000000000E+00 0.  1.
         13   -1    0    0    0    0 -0.00000000000E+00 -0.00000000000E+00 -0.10000000000E+04  0.10000000000E+04  0.00000000000E+00 0.  1.
    9000005    2    1    2  501    0  0.78409145541E+01 -0.10415435611E+02 -0.96808382485E+03  0.10083982216E+04  0.28197645335E+03 0.  0.
         13    1    3    3    0    0  0.11490835287E+03 -0.34366675861E+02 -0.20531844946E+03  0.23778280774E+03  0.00000000000E+00 0.  1.
          3    1    3    3  501    0 -0.10706743831E+03  0.23951240250E+02 -0.76276537539E+03  0.77061541391E+03  0.00000000000E+00 0.  1.
         21    1    1    2  502  501 -0.78409145541E+01  0.10415435611E+02 -0.81455407435E+01  0.15372412758E+02  0.00000000000E+00 0.  1.
<mgrwt>
<rscale>  1 0.30000000E+03</rscale>
<asrwt>0</asrwt>
<pdfrwt beam="1">  1        1 0.86438853E-01 0.30000000E+03</pdfrwt>
<pdfrwt beam="2">0</pdfrwt>
<totfact> 0.42165689E+01</totfact>
</mgrwt>
</event>
<event>
 6    1  0.1969531E-004  0.3000000E+03  0.7818608E-02  0.1093470E+00
          1   -1    0    0  502    0  0.00000000000E+00  0.00000000000E+00  0.31968386564E+02  0.31968386564E+02  0.00000000000E+00 0.  1.
         13   -1    0    0    0    0 -0.00000000000E+00 -0.00000000000E+00 -0.10000000000E+04  0.10000000000E+04  0.00000000000E+00 0.  1.
    9000005    2    1    2  501    0 -0.21258190056E+02  0.17725379010E+02 -0.93152710926E+03  0.98615705030E+03  0.32248546147E+03 0.  0.
         13    1    3    3    0    0  0.28511780075E+02  0.13353637141E+03 -0.18990720991E+03  0.23390090309E+03  0.00000000000E+00 0.  1.
          1    1    3    3  501    0 -0.49769970131E+02 -0.11581099240E+03 -0.74161989935E+03  0.75225614720E+03  0.00000000000E+00 0.  1.
         21    1    1    2  502  501  0.21258190056E+02 -0.17725379010E+02 -0.36504504173E+02  0.45811336266E+02  0.00000000000E+00 0.  1.
<mgrwt>
<rscale>  1 0.30000000E+03</rscale>
<asrwt>0</asrwt>
<pdfrwt beam="1">  1        1 0.11624892E+00 0.30000000E+03</pdfrwt>
<pdfrwt beam="2">0</pdfrwt>
<totfact> 0.27308799E+01</totfact>
</mgrwt>
</event>
<event>
 6    1  0.1969531E-004  0.3000000E+03  0.7818608E-02  0.1093470E+00
          1   -1    0    0  502    0  0.00000000000E+00  0.00000000000E+00  0.28407263517E+02  0.28407263517E+02  0.00000000000E+00 0.  1.
         13   -1    0    0    0    0 -0.00000000000E+00 -0.00000000000E+00 -0.10000000000E+04  0.10000000000E+04  0.00000000000E+00 0.  1.
    9000005    2    1    2  501    0  0.15724779365E+02  0.39554771486E+01 -0.94692591190E+03  0.99888834212E+03  0.31756310067E+03 0.  0.
         13    1    3    3    0    0  0.15563614599E+03  0.24639385026E+02 -0.66577397273E+03  0.68416715209E+03  0.00000000000E+00 0.  1.
          1    1    3    3  501    0 -0.13991136662E+03 -0.20683907878E+02 -0.28115193917E+03  0.31472119003E+03  0.00000000000E+00 0.  1.
         21    1    1    2  502  501 -0.15724779365E+02 -0.39554771486E+01 -0.24666824579E+02  0.29518921395E+02  0.00000000000E+00 0.  1.
<mgrwt>
<rscale>  1 0.30000000E+03</rscale>
<asrwt>0</asrwt>
<pdfrwt beam="1">  1        1 0.10329936E+00 0.30000000E+03</pdfrwt>
<pdfrwt beam="2">0</pdfrwt>
<totfact> 0.32632528E+01</totfact>
</mgrwt>
</event>
<event>
 6    1  0.1969531E-004  0.3000000E+03  0.7818608E-02  0.1093470E+00
          1   -1    0    0  502    0  0.00000000000E+00  0.00000000000E+00  0.35821393671E+02  0.35821393671E+02  0.00000000000E+00 0.  1.
         13   -1    0    0    0    0 -0.00000000000E+00 -0.00000000000E+00 -0.10000000000E+04  0.10000000000E+04  0.00000000000E+00 0.  1.
    9000005    2    1    2  501    0 -0.68648502182E+00  0.32597776513E+02 -0.93533627975E+03  0.99229018535E+03  0.32973135949E+03 0.  0.
         13    1    3    3    0    0 -0.13036498266E+03 -0.47161136233E+02 -0.68819749667E+03  0.70202207651E+03  0.00000000000E+00 0.  1.
          3    1    3    3  501    0  0.12967849764E+03  0.79758912746E+02 -0.24713878308E+03  0.29026810885E+03  0.00000000000E+00 0.  1.
         21    1    1    2  502  501  0.68648502182E+00 -0.32597776513E+02 -0.28842326578E+02  0.43531208319E+02  0.00000000000E+00 0.  1.
<mgrwt>
<rscale>  1 0.30000000E+03</rscale>
<asrwt>0</asrwt>
<pdfrwt beam="1">  1        1 0.13025989E+00 0.30000000E+03</pdfrwt>
<pdfrwt beam="2">0</pdfrwt>
<totfact> 0.22805388E+01</totfact>
</mgrwt>
</event>
<event>
 6    1  0.1969531E-004  0.3000000E+03  0.7818608E-02  0.1093470E+00
          1   -1    0    0  502    0  0.00000000000E+00  0.00000000000E+00  0.54650205846E+02  0.54650205846E+02  0.00000000000E+00 0.  1.
         13   -1    0    0    0    0 -0.00000000000E+00 -0.00000000000E+00 -0.10000000000E+04  0.10000000000E+04  0.00000000000E+00 0.  1.
    9000005    2    1    2  501    0 -0.11416095933E+02 -0.17208495255E+02 -0.97060599033E+03  0.10220260583E+04  0.31942889023E+03 0.  0.
         13    1    3    3    0    0 -0.41837529207E+02  0.11957178658E+03 -0.18622623793E+03  0.22522877856E+03  0.00000000000E+00 0.  1.
          3    1    3    3  501    0  0.30421433274E+02 -0.13678028184E+03 -0.78437975239E+03  0.79679727978E+03  0.00000000000E+00 0.  1.
         21    1    1    2  502  501  0.11416095933E+02  0.17208495255E+02  0.25256196172E+02  0.32624147505E+02  0.00000000000E+00 0.  1.
<mgrwt>
<rscale>  1 0.30000000E+03</rscale>
<asrwt>0</asrwt>
<pdfrwt beam="1">  1        1 0.19872844E+00 0.30000000E+03</pdfrwt>
<pdfrwt beam="2">0</pdfrwt>
<totfact> 0.10387038E+01</totfact>
</mgrwt>
</event>
<event>
 6    1  0.1969531E-004  0.3000000E+03  0.7818608E-02  0.1093470E+00
          1   -1    0    0  502    0  0.00000000000E+00  0.00000000000E+00  0.37008403180E+02  0.37008403180E+02  0.00000000000E+00 0.  1.
         13   -1    0    0    0    0 -0.00000000000E+00 -0.00000000000E+00 -0.10000000000E+04  0.10000000000E+04  0.00000000000E+00 0.  1.
    9000005    2    1    2  501    0 -0.39170674850E+02  0.41453393196E+02 -0.83004776974E+03  0.89234746604E+03  0.32257088294E+03 0.  0.
         13    1    3    3    0    0  0.48392453855E+02  0.30281328463E+02 -0.79551435079E+03  0.79755994807E+03  0.00000000000E+00 0.  1.
          1    1    3    3  501    0 -0.87563128705E+02  0.11172064733E+02 -0.34533418947E+02  0.94787517972E+02  0.00000000000E+00 0.  1.
         21    1    1    2  502  501  0.39170674850E+02 -0.41453393196E+02 -0.13294382708E+03  0.14466093714E+03  0.00000000000E+00 0. -1.
<mgrwt>
<rscale>  1 0.30000000E+03</rscale>
<asrwt>0</asrwt>
<pdfrwt beam="1">  1        1 0.13457630E+00 0.30000000E+03</pdfrwt>
<pdfrwt beam="2">0</pdfrwt>
<totfact> 0.21614905E+01</totfact>
</mgrwt>
</event>
<event>
 6    1  0.1969531E-004  0.3000000E+03  0.7818608E-02  0.1093470E+00
          1   -1    0    0  502    0  0.00000000000E+00  0.00000000000E+00  0.30572810498E+02  0.30572810498E+02  0.00000000000E+00 0.  1.
         13   -1    0    0    0    0 -0.00000000000E+00 -0.00000000000E+00 -0.10000000000E+04  0.10000000000E+04  0.00000000000E+00 0.  1.
    9000005    2    1    2  501    0 -0.60615099292E+01  0.61703289252E+01 -0.95439333759E+03  0.10132283138E+04  0.34013255979E+03 0.  0.
         13    1    3    3    0    0 -0.17109222369E+03  0.19918516484E+02 -0.42649111255E+03  0.45996083028E+03  0.00000000000E+00 0.  1.
          3    1    3    3  501    0  0.16503071376E+03 -0.13748187558E+02 -0.52790222504E+03  0.55326748354E+03  0.00000000000E+00 0.  1.
         21    1    1    2  502  501  0.60615099292E+01 -0.61703289252E+01 -0.15033851916E+02  0.17344496680E+02  0.00000000000E+00 0.  1.
<mgrwt>
<rscale>  1 0.30000000E+03</rscale>
<asrwt>0</asrwt>
<pdfrwt beam="1">  1        1 0.11117409E+00 0.30000000E+03</pdfrwt>
<pdfrwt beam="2">0</pdfrwt>
<totfact> 0.29236329E+01</totfact>
</mgrwt>
</event>
<event>
 6    1  0.1969531E-004  0.3000000E+03  0.7818608E-02  0.1093470E+00
          1   -1    0    0  502    0  0.00000000000E+00  0.00000000000E+00  0.37469850287E+02  0.37469850287E+02  0.00000000000E+00 0.  1.
         13   -1    0    0    0    0 -0.00000000000E+00 -0.00000000000E+00 -0.10000000000E+04  0.10000000000E+04  0.00000000000E+00 0.  1.
    9000005    2    1    2  501    0  0.55141515721E+02  0.17479737631E+02 -0.82452552121E+03  0.88783226987E+03  0.32412601920E+03 0.  0.
         13    1    3    3    0    0 -0.86169531106E+01 -0.11051592707E+03 -0.66258360460E+03  0.67179241965E+03  0.00000000000E+00 0.  1.
          1    1    3    3  501    0  0.63758468832E+02  0.12799566470E+03 -0.16194191661E+03  0.21603985023E+03  0.00000000000E+00 0.  1.
         21    1    1    2  502  501 -0.55141515721E+02 -0.17479737631E+02 -0.13800462850E+03  0.14963758041E+03  0.00000000000E+00 0.  1.
<mgrwt>
<rscale>  1 0.30000000E+03</rscale>
<asrwt>0</asrwt>
<pdfrwt beam="1">  1        1 0.13625429E+00 0.30000000E+03</pdfrwt>
<pdfrwt beam="2">0</pdfrwt>
<totfact> 0.21174324E+01</totfact>
</mgrwt>
</event>
<event>
 6    1  0.1969531E-004  0.3000000E+03  0.7818608E-02  0.1093470E+00
          1   -1    0    0  502    0  0.00000000000E+00  0.00000000000E+00  0.27556022194E+02  0.27556022194E+02  0.00000000000E+00 0.  1.
         13   -1    0    0    0    0 -0.00000000000E+00 -0.00000000000E+00 -0.10000000000E+04  0.10000000000E+04  0.00000000000E+00 0.  1.
    9000005    2    1    2  501    0 -0.70196606917E+01 -0.10896364853E+02 -0.95343030484E+03  0.10045445867E+04  0.31608934513E+03 0.  0.
         13    1    3    3    0    0 -0.10701712951E+03  0.11398528801E+03 -0.47701194367E+03  0.50198177884E+03  0.00000000000E+00 0.  1.
          3    1    3    3  501    0  0.99997468816E+02 -0.12488165286E+03 -0.47641836117E+03  0.50256280787E+03  0.00000000000E+00 0.  1.
         21    1    1    2  502  501  0.70196606917E+01  0.10896364853E+02 -0.19013672966E+02  0.23011435481E+02  0.00000000000E+00 0.  1.
<mgrwt>
<rscale>  1 0.30000000E+03</rscale>
<asrwt>0</asrwt>
<pdfrwt beam="1">  1        1 0.10020393E+00 0.30000000E+03</pdfrwt>
<pdfrwt beam="2">0</pdfrwt>
<totfact> 0.34125120E+01</totfact>
</mgrwt>
</event>
<event>
 6    1  0.1969531E-004  0.3000000E+03  0.7818608E-02  0.1093470E+00
          1   -1    0    0  502    0  0.00000000000E+00  0.00000000000E+00  0.43676167144E+02  0.43676167144E+02  0.00000000000E+00 0.  1.
         13   -1    0    0    0    0 -0.00000000000E+00 -0.00000000000E+00 -0.10000000000E+04  0.10000000000E+04  0.00000000000E+00 0.  1.
    9000005    2    1    2  501    0 -0.74418952786E+01  0.15783118869E+02 -0.96819140939E+03  0.10225733707E+04  0.32856841682E+03 0.  0.
         13    1    3    3    0    0  0.46496732750E+02  0.20957491115E+02  0.18351041579E+01  0.51034598045E+02  0.00000000000E+00 0.  1.
          3    1    3    3  501    0 -0.53938628029E+02 -0.51743722455E+01 -0.97002651354E+03  0.97153877262E+03  0.00000000000E+00 0.  1.
         21    1    1    2  502  501  0.74418952786E+01 -0.15783118869E+02  0.11867576531E+02  0.21102796481E+02  0.00000000000E+00 0.  1.
<mgrwt>
<rscale>  1 0.30000000E+03</rscale>
<asrwt>0</asrwt>
<pdfrwt beam="1">  1        1 0.15882276E+00 0.30000000E+03</pdfrwt>
<pdfrwt beam="2">0</pdfrwt>
<totfact> 0.16220249E+01</totfact>
</mgrwt>
</event>
<event>
 6    1  0.1969531E-004  0.3000000E+03  0.7818608E-02  0.1093470E+00
          1   -1    0    0  502    0  0.00000000000E+00  0.00000000000E+00  0.53690956321E+01  0.53690956321E+01  0.00000000000E+00 0.  1.
         13   -1    0    0    0    0 -0.00000000000E+00 -0.00000000000E+00 -0.10000000000E+04  0.10000000000E+04  0.00000000000E+00 0.  1.
    9000005    2    1    2  501    0 -0.10367993912E+02 -0.18107479175E+01 -0.96077385236E+03  0.96991385516E+03  0.13242249416E+03 0.  0.
         13    1    3    3    0    0 -0.32492676823E+02  0.25017548097E+02 -0.89110939103E+03  0.89205246400E+03  0.00000000000E+00 0.  1.
          3    1    3    3  501    0  0.22124682911E+02 -0.26828296014E+02 -0.69664461331E+02  0.77861391161E+02  0.00000000000E+00 0.  1.
         21    1    1    2  502  501  0.10367993912E+02  0.18107479175E+01 -0.33857052010E+02  0.35455240467E+02  0.00000000000E+00 0. -1.
<mgrwt>
<rscale>  1 0.30000000E+03</rscale>
<asrwt>0</asrwt>
<pdfrwt beam="1">  1        1 0.19524025E-01 0.30000000E+03</pdfrwt>
<pdfrwt beam="2">0</pdfrwt>
<totfact> 0.30406050E+02</totfact>
</mgrwt>
</event>
<event>
 6    1  0.1969531E-004  0.3000000E+03  0.7818608E-02  0.1093470E+00
          1   -1    0    0  502    0  0.00000000000E+00  0.00000000000E+00  0.33845076314E+02  0.33845076314E+02  0.00000000000E+00 0.  1.
         13   -1    0    0    0    0 -0.00000000000E+00 -0.00000000000E+00 -0.10000000000E+04  0.10000000000E+04  0.00000000000E+00 0.  1.
    9000005    2    1    2  501    0  0.20140247106E+02 -0.31244722927E+02 -0.92910311659E+03  0.98135985293E+03  0.31377172822E+03 0.  0.
         13    1    3    3    0    0 -0.54693017916E+02 -0.15666268553E+03 -0.57094390597E+03  0.59456830306E+03  0.00000000000E+00 0.  1.
          1    1    3    3  501    0  0.74833265021E+02  0.12541796260E+03 -0.35815921062E+03  0.38679154987E+03  0.00000000000E+00 0.  1.
         21    1    1    2  502  501 -0.20140247106E+02  0.31244722927E+02 -0.37051807096E+02  0.52485223381E+02  0.00000000000E+00 0. -1.
<mgrwt>
<rscale>  1 0.30000000E+03</rscale>
<asrwt>0</asrwt>
<pdfrwt beam="1">  1        1 0.12307326E+00 0.30000000E+03</pdfrwt>
<pdfrwt beam="2">0</pdfrwt>
<totfact> 0.24982907E+01</totfact>
</mgrwt>
</event>
<event>
 6    1  0.1969531E-004  0.3000000E+03  0.7818608E-02  0.1093470E+00
          1   -1    0    0  502    0  0.00000000000E+00  0.00000000000E+00  0.36153345890E+02  0.36153345890E+02  0.00000000000E+00 0.  1.
         13   -1    0    0    0    0 -0.00000000000E+00 -0.00000000000E+00 -0.10000000000E+04  0.10000000000E+04  0.00000000000E+00 0.  1.
    9000005    2    1    2  501    0  0.83654234535E+01 -0.23013275490E+02 -0.94519893283E+03  0.10053746411E+04  0.34172731122E+03 0.  0.
         13    1    3    3    0    0 -0.14087860092E+03  0.74248024327E+02 -0.53419858864E+03  0.55742953045E+03  0.00000000000E+00 0.  1.
          3    1    3    3  501    0  0.14924402437E+03 -0.97261299816E+02 -0.41100034418E+03  0.44794511067E+03  0.00000000000E+00 0.  1.
         21    1    1    2  502  501 -0.83654234535E+01  0.23013275490E+02 -0.18647721284E+02  0.30778704771E+02  0.00000000000E+00 0. -1.
<mgrwt>
<rscale>  1 0.30000000E+03</rscale>
<asrwt>0</asrwt>
<pdfrwt beam="1">  1        1 0.13146699E+00 0.30000000E+03</pdfrwt>
<pdfrwt beam="2">0</pdfrwt>
<totfact> 0.22463968E+01</totfact>
</mgrwt>
</event>
<event>
 6    1  0.1969531E-004  0.3000000E+03  0.7818608E-02  0.1093470E+00
          1   -1    0    0  502    0  0.00000000000E+00  0.00000000000E+00  0.31447553121E+02  0.31447553121E+02  0.00000000000E+00 0.  1.
         13   -1    0    0    0    0 -0.00000000000E+00 -0.00000000000E+00 -0.10000000000E+04  0.10000000000E+04  0.00000000000E+00 0.  1.
    9000005    2    1    2  501    0  0.56513653888E+01 -0.14928520798E+02 -0.96262164472E+03  0.10144189572E+04  0.31961006120E+03 0.  0.
         13    1    3    3    0    0  0.57828885378E+02 -0.74178780402E+02 -0.91981387575E+03  0.92461031655E+03  0.00000000000E+00 0.  1.
          3    1    3    3  501    0 -0.52177519989E+02  0.59250259604E+02 -0.42807768970E+02  0.89808640673E+02  0.00000000000E+00 0.  1.
         21    1    1    2  502  501 -0.56513653888E+01  0.14928520798E+02 -0.59308021538E+01  0.17028595895E+02  0.00000000000E+00 0. -1.
<mgrwt>
<rscale>  1 0.30000000E+03</rscale>
<asrwt>0</asrwt>
<pdfrwt beam="1">  1        1 0.11435498E+00 0.30000000E+03</pdfrwt>
<pdfrwt beam="2">0</pdfrwt>
<totfact> 0.28006530E+01</totfact>
</mgrwt>
</event>
<event>
 6    1  0.1969531E-004  0.3000000E+03  0.7818608E-02  0.1093470E+00
          1   -1    0    0  502    0  0.00000000000E+00  0.00000000000E+00  0.30764953894E+02  0.30764953894E+02  0.00000000000E+00 0.  1.
         13   -1    0    0    0    0 -0.00000000000E+00 -0.00000000000E+00 -0.10000000000E+04  0.10000000000E+04  0.00000000000E+00 0.  1.
    9000005    2    1    2  501    0 -0.16568022764E+02 -0.16264015188E+01 -0.94204246728E+03  0.99888108802E+03  0.33172620227E+03 0.  0.
         13    1    3    3    0    0  0.12725828818E+03 -0.86577382241E+02 -0.58146088247E+03  0.60148738380E+03  0.00000000000E+00 0.  1.
          1    1    3    3  501    0 -0.14382631095E+03  0.84950980722E+02 -0.36058158481E+03  0.39739370422E+03  0.00000000000E+00 0.  1.
         21    1    1    2  502  501  0.16568022764E+02  0.16264015188E+01 -0.27192578823E+02  0.31883865876E+02  0.00000000000E+00 0.  1.
<mgrwt>
<rscale>  1 0.30000000E+03</rscale>
<asrwt>0</asrwt>
<pdfrwt beam="1">  1        1 0.11187280E+00 0.30000000E+03</pdfrwt>
<pdfrwt beam="2">0</pdfrwt>
<totfact> 0.28959708E+01</totfact>
</mgrwt>
</event>
<event>
 6    1  0.1969531E-004  0.3000000E+03  0.7818608E-02  0.1093470E+00
          1   -1    0    0  502    0  0.00000000000E+00  0.00000000000E+00  0.29357870754E+02  0.29357870754E+02  0.00000000000E+00 0.  1.
         13   -1    0    0    0    0 -0.00000000000E+00 -0.00000000000E+00 -0.10000000000E+04  0.10000000000E+04  0.00000000000E+00 0.  1.
    9000005    2    1    2  501    0 -0.60392363224E+01  0.10073256753E+02 -0.96309802230E+03  0.10153987724E+04  0.32146372046E+03 0.  0.
         13    1    3    3    0    0  0.14790064846E+03 -0.36668856060E+02 -0.58451482225E+03  0.60405031599E+03  0.00000000000E+00 0.  1.
          1    1    3    3  501    0 -0.15393988478E+03  0.46742112813E+02 -0.37858320005E+03  0.41134845642E+03  0.00000000000E+00 0.  1.
         21    1    1    2  502  501  0.60392363224E+01 -0.10073256753E+02 -0.75441069439E+01  0.13959098343E+02  0.00000000000E+00 0.  1.
<mgrwt>
<rscale>  1 0.30000000E+03</rscale>
<asrwt>0</asrwt>
<pdfrwt beam="1">  1        1 0.10675612E+00 0.30000000E+03</pdfrwt>
<pdfrwt beam="2">0</pdfrwt>
<totfact> 0.31075470E+01</totfact>
</mgrwt>
</event>
<event>
 6    1  0.1969531E-004  0.3000000E+03  0.7818608E-02  0.1093470E+00
          1   -1    0    0  502    0  0.00000000000E+00  0.00000000000E+00  0.49621348150E+02  0.49621348150E+02  0.00000000000E+00 0.  1.
         13   -1    0    0    0    0 -0.00000000000E+00 -0.00000000000E+00 -0.10000000000E+04  0.10000000000E+04  0.00000000000E+00 0.  1.
    9000005    2    1    2  501    0 -0.30745101602E+02 -0.17539740491E+01 -0.95542953912E+03  0.10184147918E+04  0.35124741453E+03 0.  0.
         13    1    3    3    0    0  0.56976489535E+02 -0.13040796035E+03 -0.73428681062E+03  0.74795031703E+03  0.00000000000E+00 0.  1.
          1    1    3    3  501    0 -0.87721591137E+02  0.12865398630E+03 -0.22114272850E+03  0.27046447477E+03  0.00000000000E+00 0.  1.
         21    1    1    2  502  501  0.30745101602E+02  0.17539740491E+01  0.50508872734E+01  0.31206556358E+02  0.00000000000E+00 0. -1.
<mgrwt>
<rscale>  1 0.30000000E+03</rscale>
<asrwt>0</asrwt>
<pdfrwt beam="1">  1        1 0.18044165E+00 0.30000000E+03</pdfrwt>
<pdfrwt beam="2">0</pdfrwt>
<totfact> 0.12711784E+01</totfact>
</mgrwt>
</event>
<event>
 6    1  0.1969531E-004  0.3000000E+03  0.7818608E-02  0.1093470E+00
          1   -1    0    0  502    0  0.00000000000E+00  0.00000000000E+00  0.46070799606E+02  0.46070799606E+02  0.00000000000E+00 0.  1.
         13   -1    0    0    0    0 -0.00000000000E+00 -0.00000000000E+00 -0.10000000000E+04  0.10000000000E+04  0.00000000000E+00 0.  1.
    9000005    2    1    2  501    0  0.75087635738E+02  0.25261578851E+02 -0.95186872104E+03  0.96682090382E+03  0.14970737310E+03 0.  0.
         13    1    3    3    0    0  0.12101563774E+03  0.23397401885E+02 -0.67454652071E+03  0.68571512423E+03  0.00000000000E+00 0.  1.
          3    1    3    3  501    0 -0.45928002003E+02  0.18641769656E+01 -0.27732220033E+03  0.28110577959E+03  0.00000000000E+00 0.  1.
         21    1    1    2  502  501 -0.75087635738E+02 -0.25261578851E+02 -0.20604793516E+01  0.79249895785E+02  0.00000000000E+00 0.  1.
<mgrwt>
<rscale>  1 0.30000000E+03</rscale>
<asrwt>0</asrwt>
<pdfrwt beam="1">  1        1 0.16753053E+00 0.30000000E+03</pdfrwt>
<pdfrwt beam="2">0</pdfrwt>
<totfact> 0.14690539E+01</totfact>
</mgrwt>
</event>
<event>
 6    1  0.1969531E-004  0.3000000E+03  0.7818608E-02  0.1093470E+00
          1   -1    0    0  502    0  0.00000000000E+00  0.00000000000E+00  0.70723517417E+02  0.70723517417E+02  0.00000000000E+00 0.  1.
         13   -1    0    0    0    0 -0.00000000000E+00 -0.00000000000E+00 -0.10000000000E+04  0.10000000000E+04  0.00000000000E+00 0.  1.
    9000005    2    1    2  501    0 -0.22844850630E+01 -0.13434255982E+02 -0.97096203284E+03  0.10268671244E+04  0.33392083477E+03 0.  0.
         13    1    3    3    0    0  0.10882219428E+03  0.10400783925E+03 -0.65345505645E+03  0.67056946798E+03  0.00000000000E+00 0.  1.
          3    1    3    3  501    0 -0.11110667935E+03 -0.11744209523E+03 -0.31750697640E+03  0.35629765645E+03  0.00000000000E+00 0.  1.
         21    1    1    2  502  501  0.22844850630E+01  0.13434255982E+02  0.41685550260E+02  0.43856392992E+02  0.00000000000E+00 0.  1.
<mgrwt>
<rscale>  1 0.30000000E+03</rscale>
<asrwt>0</asrwt>
<pdfrwt beam="1">  1        1 0.25717697E+00 0.30000000E+03</pdfrwt>
<pdfrwt beam="2">0</pdfrwt>
<totfact> 0.55238999E+00</totfact>
</mgrwt>
</event>
<event>
 6    1  0.1969531E-004  0.3000000E+03  0.7818608E-02  0.1093470E+00
          1   -1    0    0  502    0  0.00000000000E+00  0.00000000000E+00  0.34898458912E+02  0.34898458912E+02  0.00000000000E+00 0.  1.
         13   -1    0    0    0    0 -0.00000000000E+00 -0.00000000000E+00 -0.10000000000E+04  0.10000000000E+04  0.00000000000E+00 0.  1.
    9000005    2    1    2  501    0  0.28226202204E+00 -0.20361659267E+02 -0.96078784629E+03  0.10140829646E+04  0.32378433673E+03 0.  0.
         13    1    3    3    0    0  0.10482033722E+03 -0.12827541222E+03 -0.61794293375E+03  0.63976195093E+03  0.00000000000E+00 0.  1.
          1    1    3    3  501    0 -0.10453807520E+03  0.10791375295E+03 -0.34284491253E+03  0.37432101369E+03  0.00000000000E+00 0.  1.
         21    1    1    2  502  501 -0.28226202204E+00  0.20361659267E+02 -0.43136948016E+01  0.20815494296E+02  0.00000000000E+00 0.  1.
<mgrwt>
<rscale>  1 0.30000000E+03</rscale>
<asrwt>0</asrwt>
<pdfrwt beam="1">  1        1 0.12690375E+00 0.30000000E+03</pdfrwt>
<pdfrwt beam="2">0</pdfrwt>
<totfact> 0.23790695E+01</totfact>
</mgrwt>
</event>
<event>
 6    1  0.1969531E-004  0.3000000E+03  0.7818608E-02  0.1093470E+00
          1   -1    0    0  502    0  0.00000000000E+00  0.00000000000E+00  0.38088759928E+02  0.38088759928E+02  0.00000000000E+00 0.  1.
         13   -1    0    0    0    0 -0.00000000000E+00 -0.00000000000E+00 -0.10000000000E+04  0.10000000000E+04  0.00000000000E+00 0.  1.
    9000005    2    1    2  501    0 -0.28716435783E+02 -0.29532937926E+02 -0.93501198397E+03  0.98889121847E+03  0.31931427105E+03 0.  0.
         13    1    3    3    0    0 -0.46605426367E+02  0.12696260691E+03 -0.64336160723E+03  0.65742355219E+03  0.00000000000E+00 0.  1.
          3    1    3    3  501    0  0.17888990585E+02 -0.15649554483E+03 -0.29165037674E+03  0.33146766628E+03  0.00000000000E+00 0.  1.
         21    1    1    2  502  501  0.28716435783E+02  0.29532937926E+02 -0.26899256105E+02  0.49197541459E+02  0.00000000000E+00 0.  1.
<mgrwt>
<rscale>  1 0.30000000E+03</rscale>
<asrwt>0</asrwt>
<pdfrwt beam="1">  1        1 0.13850487E+00 0.30000000E+03</pdfrwt>
<pdfrwt beam="2">0</pdfrwt>
<totfact> 0.20601712E+01</totfact>
</mgrwt>
</event>
<event>
 6    1  0.1969531E-004  0.3000000E+03  0.7818608E-02  0.1093470E+00
          3   -1    0    0  502    0  0.00000000000E+00  0.00000000000E+00  0.30088355594E+02  0.30088355594E+02  0.00000000000E+00 0.  1.
         13   -1    0    0    0    0 -0.00000000000E+00 -0.00000000000E+00 -0.10000000000E+04  0.10000000000E+04  0.00000000000E+00 0.  1.
    9000005    2    1    2  501    0 -0.47892275612E+01 -0.93010814437E+01 -0.95895509628E+03  0.10149393370E+04  0.33226124413E+03 0.  0.
         13    1    3    3    0    0 -0.13251060121E+03  0.26903979242E+02 -0.78264131664E+03  0.79423567916E+03  0.00000000000E+00 0.  1.
          3    1    3    3  501    0  0.12772137365E+03 -0.36205060686E+02 -0.17631377964E+03  0.22070365787E+03  0.00000000000E+00 0.  1.
         21    1    1    2  502  501  0.47892275612E+01  0.93010814437E+01 -0.10956548130E+02  0.15149018568E+02  0.00000000000E+00 0. -1.
<mgrwt>
<rscale>  1 0.30000000E+03</rscale>
<asrwt>0</asrwt>
<pdfrwt beam="1">  1        3 0.10941243E+00 0.30000000E+03</pdfrwt>
<pdfrwt beam="2">0</pdfrwt>
<totfact> 0.30604472E+00</totfact>
</mgrwt>
</event>
<event>
 6    1  0.1969531E-004  0.3000000E+03  0.7818608E-02  0.1093470E+00
          1   -1    0    0  502    0  0.00000000000E+00  0.00000000000E+00  0.36095814119E+02  0.36095814119E+02  0.00000000000E+00 0.  1.
         13   -1    0    0    0    0 -0.00000000000E+00 -0.00000000000E+00 -0.10000000000E+04  0.10000000000E+04  0.00000000000E+00 0.  1.
    9000005    2    1    2  501    0  0.76346372472E+01  0.10299138149E+02 -0.97496306771E+03  0.10191648130E+04  0.29661350723E+03 0.  0.
         13    1    3    3    0    0  0.10271947649E+03  0.11054848042E+03 -0.39179562362E+03  0.41985243605E+03  0.00000000000E+00 0.  1.
          1    1    3    3  501    0 -0.95084839242E+02 -0.10024934227E+03 -0.58316744409E+03  0.59931237692E+03  0.00000000000E+00 0.  1.
         21    1    1    2  502  501 -0.76346372472E+01 -0.10299138149E+02  0.11058881830E+02  0.16931001147E+02  0.00000000000E+00 0.  1.
<mgrwt>
<rscale>  1 0.30000000E+03</rscale>
<asrwt>0</asrwt>
<pdfrwt beam="1">  1        1 0.13125778E+00 0.30000000E+03</pdfrwt>
<pdfrwt beam="2">0</pdfrwt>
<totfact> 0.22522660E+01</totfact>
</mgrwt>
</event>
<event>
 6    1  0.1969531E-004  0.3000000E+03  0.7818608E-02  0.1093470E+00
          1   -1    0    0  502    0  0.00000000000E+00  0.00000000000E+00  0.34524505514E+02  0.34524505514E+02  0.00000000000E+00 0.  1.
         13   -1    0    0    0    0 -0.00000000000E+00 -0.00000000000E+00 -0.10000000000E+04  0.10000000000E+04  0.00000000000E+00 0.  1.
    9000005    2    1    2  501    0 -0.35121994522E+02 -0.21434631153E+02 -0.89530981887E+03  0.95318435586E+03  0.32448073374E+03 0.  0.
         13    1    3    3    0    0 -0.11148221772E+03  0.10184235456E+03 -0.25236005106E+03  0.29408458889E+03  0.00000000000E+00 0.  1.
          1    1    3    3  501    0  0.76360223197E+02 -0.12327698571E+03 -0.64294976781E+03  0.65909976697E+03  0.00000000000E+00 0.  1.
         21    1    1    2  502  501  0.35121994522E+02  0.21434631153E+02 -0.70165675613E+02  0.81340149656E+02  0.00000000000E+00 0.  1.
<mgrwt>
<rscale>  1 0.30000000E+03</rscale>
<asrwt>0</asrwt>
<pdfrwt beam="1">  1        1 0.12554392E+00 0.30000000E+03</pdfrwt>
<pdfrwt beam="2">0</pdfrwt>
<totfact> 0.24205465E+01</totfact>
</mgrwt>
</event>
<event>
 6    1  0.1969531E-004  0.3000000E+03  0.7818608E-02  0.1093470E+00
          1   -1    0    0  502    0  0.00000000000E+00  0.00000000000E+00  0.34891609679E+02  0.34891609679E+02  0.00000000000E+00 0.  1.
         13   -1    0    0    0    0 -0.00000000000E+00 -0.00000000000E+00 -0.10000000000E+04  0.10000000000E+04  0.00000000000E+00 0.  1.
    9000005    2    1    2  501    0  0.12908118027E+02 -0.40113447394E+01 -0.96516986272E+03  0.10213744289E+04  0.33387145684E+03 0.  0.
         13    1    3    3    0    0 -0.11703309980E+03  0.10185592863E+03 -0.59729525176E+03  0.61711667813E+03  0.00000000000E+00 0.  1.
          3    1    3    3  501    0  0.12994121783E+03 -0.10586727337E+03 -0.36787461096E+03  0.40425775076E+03  0.00000000000E+00 0.  1.
         21    1    1    2  502  501 -0.12908118027E+02  0.40113447394E+01  0.61472398988E-01  0.13517180789E+02  0.00000000000E+00 0. -1.
<mgrwt>
<rscale>  1 0.30000000E+03</rscale>
<asrwt>0</asrwt>
<pdfrwt beam="1">  1        1 0.12687885E+00 0.30000000E+03</pdfrwt>
<pdfrwt beam="2">0</pdfrwt>
<totfact> 0.23798210E+01</totfact>
</mgrwt>
</event>
<event>
 6    1  0.1969531E-004  0.3000000E+03  0.7818608E-02  0.1093470E+00
          1   -1    0    0  502    0  0.00000000000E+00  0.00000000000E+00  0.44976763872E+02  0.44976763872E+02  0.00000000000E+00 0.  1.
         13   -1    0    0    0    0 -0.00000000000E+00 -0.00000000000E+00 -0.10000000000E+04  0.10000000000E+04  0.00000000000E+00 0.  1.
    9000005    2    1    2  501    0  0.54582015894E+01  0.32270074702E+02 -0.95160883665E+03  0.10120707187E+04  0.34301109595E+03 0.  0.
         13    1    3    3    0    0  0.16736574147E+03  0.23655414396E+00 -0.34566660896E+03  0.38405305873E+03  0.00000000000E+00 0.  1.
          3    1    3    3  501    0 -0.16190753988E+03  0.32033520558E+02 -0.60594222770E+03  0.62801765995E+03  0.00000000000E+00 0.  1.
         21    1    1    2  502  501 -0.54582015894E+01 -0.32270074702E+02 -0.34143994733E+01  0.32906045183E+02  0.00000000000E+00 0.  1.
<mgrwt>
<rscale>  1 0.30000000E+03</rscale>
<asrwt>0</asrwt>
<pdfrwt beam="1">  1        1 0.16355221E+00 0.30000000E+03</pdfrwt>
<pdfrwt beam="2">0</pdfrwt>
<totfact> 0.15367837E+01</totfact>
</mgrwt>
</event>
<event>
 6    1  0.1969531E-004  0.3000000E+03  0.7818608E-02  0.1093470E+00
          1   -1    0    0  502    0  0.00000000000E+00  0.00000000000E+00  0.39357316524E+02  0.39357316524E+02  0.00000000000E+00 0.  1.
         13   -1    0    0    0    0 -0.00000000000E+00 -0.00000000000E+00 -0.10000000000E+04  0.10000000000E+04  0.00000000000E+00 0.  1.
    9000005    2    1    2  501    0 -0.72826713569E+01  0.74057592481E+01 -0.93380348591E+03  0.10105784163E+04  0.38622778592E+03 0.  0.
         13    1    3    3    0    0  0.18847209614E+02  0.10469756445E+03 -0.89706220214E+03  0.90334787974E+03  0.00000000000E+00 0.  1.
          3    1    3    3  501    0 -0.26129880971E+02 -0.97291805198E+02 -0.36741283764E+02  0.10723053656E+03  0.00000000000E+00 0.  1.
         21    1    1    2  502  501  0.72826713569E+01 -0.74057592481E+01 -0.26839197568E+02  0.28778900226E+02  0.00000000000E+00 0. -1.
<mgrwt>
<rscale>  1 0.30000000E+03</rscale>
<asrwt>0</asrwt>
<pdfrwt beam="1">  1        1 0.14311782E+00 0.30000000E+03</pdfrwt>
<pdfrwt beam="2">0</pdfrwt>
<totfact> 0.19488474E+01</totfact>
</mgrwt>
</event>
<event>
 6    1  0.1969531E-004  0.3000000E+03  0.7818608E-02  0.1093470E+00
          1   -1    0    0  502    0  0.00000000000E+00  0.00000000000E+00  0.29075616469E+02  0.29075616469E+02  0.00000000000E+00 0.  1.
         13   -1    0    0    0    0 -0.00000000000E+00 -0.00000000000E+00 -0.10000000000E+04  0.10000000000E+04  0.00000000000E+00 0.  1.
    9000005    2    1    2  501    0  0.50589922826E+01  0.97818603265E+01 -0.96093463126E+03  0.10142070811E+04  0.32419031378E+03 0.  0.
         13    1    3    3    0    0 -0.10359641053E+03  0.85656365545E+02 -0.77086506725E+03  0.78249740008E+03  0.00000000000E+00 0.  1.
          3    1    3    3  501    0  0.10865540281E+03 -0.75874505218E+02 -0.19006956402E+03  0.23170968100E+03  0.00000000000E+00 0.  1.
         21    1    1    2  502  501 -0.50589922826E+01 -0.97818603265E+01 -0.99897522694E+01  0.14868535394E+02  0.00000000000E+00 0.  1.
<mgrwt>
<rscale>  1 0.30000000E+03</rscale>
<asrwt>0</asrwt>
<pdfrwt beam="1">  1        1 0.10572974E+00 0.30000000E+03</pdfrwt>
<pdfrwt beam="2">0</pdfrwt>
<totfact> 0.31526378E+01</totfact>
</mgrwt>
</event>
<event>
 6    1  0.1969531E-004  0.3000000E+03  0.7818608E-02  0.1093470E+00
          1   -1    0    0  502    0  0.00000000000E+00  0.00000000000E+00  0.44569329532E+02  0.44569329532E+02  0.00000000000E+00 0.  1.
         13   -1    0    0    0    0 -0.00000000000E+00 -0.00000000000E+00 -0.10000000000E+04  0.10000000000E+04  0.00000000000E+00 0.  1.
    9000005    2    1    2  501    0  0.40394147564E+02  0.26007094007E+02 -0.91550633901E+03  0.98210327204E+03  0.35223135024E+03 0.  0.
         13    1    3    3    0    0  0.19827605381E+02  0.18627595290E+02 -0.94500330282E+03  0.94539481889E+03  0.00000000000E+00 0.  1.
          1    1    3    3  501    0  0.20566542182E+02  0.73794987168E+01  0.29496963812E+02  0.36708453151E+02  0.00000000000E+00 0.  1.
         21    1    1    2  502  501 -0.40394147564E+02 -0.26007094007E+02 -0.39924331461E+02  0.62466057493E+02  0.00000000000E+00 0.  1.
<mgrwt>
<rscale>  1 0.30000000E+03</rscale>
<asrwt>0</asrwt>
<pdfrwt beam="1">  1        1 0.16207063E+00 0.30000000E+03</pdfrwt>
<pdfrwt beam="2">0</pdfrwt>
<totfact> 0.15629165E+01</totfact>
</mgrwt>
</event>
<event>
 6    1  0.1969531E-004  0.3000000E+03  0.7818608E-02  0.1093470E+00
          3   -1    0    0  502    0  0.00000000000E+00  0.00000000000E+00  0.33616565797E+02  0.33616565797E+02  0.00000000000E+00 0.  1.
         13   -1    0    0    0    0 -0.00000000000E+00 -0.00000000000E+00 -0.10000000000E+04  0.10000000000E+04  0.00000000000E+00 0.  1.
    9000005    2    1    2  501    0 -0.10195601646E+02 -0.40104202473E+00 -0.96758673469E+03  0.10233423719E+04  0.33301863298E+03 0.  0.
         13    1    3    3    0    0  0.11895627972E+03 -0.10022510302E+03 -0.62184079412E+03  0.64100049999E+03  0.00000000000E+00 0.  1.
          1    1    3    3  501    0 -0.12915188137E+03  0.99824060998E+02 -0.34574594057E+03  0.38234187193E+03  0.00000000000E+00 0.  1.
         21    1    1    2  502  501  0.10195601646E+02  0.40104202473E+00  0.12033004835E+01  0.10274193871E+02  0.00000000000E+00 0. -1.
<mgrwt>
<rscale>  1 0.30000000E+03</rscale>
<asrwt>0</asrwt>
<pdfrwt beam="1">  1        3 0.12224232E+00 0.30000000E+03</pdfrwt>
<pdfrwt beam="2">0</pdfrwt>
<totfact> 0.21784522E+00</totfact>
</mgrwt>
</event>
<event>
 6    1  0.1969531E-004  0.3000000E+03  0.7818608E-02  0.1093470E+00
          1   -1    0    0  502    0  0.00000000000E+00  0.00000000000E+00  0.32029358760E+02  0.32029358760E+02  0.00000000000E+00 0.  1.
         13   -1    0    0    0    0 -0.00000000000E+00 -0.00000000000E+00 -0.10000000000E+04  0.10000000000E+04  0.00000000000E+00 0.  1.
    9000005    2    1    2  501    0  0.25039301285E+02 -0.14014644296E+00 -0.93305801809E+03  0.98906568218E+03  0.32714931193E+03 0.  0.
         13    1    3    3    0    0  0.11494724524E+03 -0.36798742153E+02 -0.85772237252E+03  0.86617243371E+03  0.00000000000E+00 0.  1.
          1    1    3    3  501    0 -0.89907943951E+02  0.36658595710E+02 -0.75335645575E+02  0.12289324847E+03  0.00000000000E+00 0.  1.
         21    1    1    2  502  501 -0.25039301285E+02  0.14014644296E+00 -0.34912623149E+02  0.42963676577E+02  0.00000000000E+00 0. -1.
<mgrwt>
<rscale>  1 0.30000000E+03</rscale>
<asrwt>0</asrwt>
<pdfrwt beam="1">  1        1 0.11647064E+00 0.30000000E+03</pdfrwt>
<pdfrwt beam="2">0</pdfrwt>
<totfact> 0.27228707E+01</totfact>
</mgrwt>
</event>
<event>
 6    1  0.1969531E-004  0.3000000E+03  0.7818608E-02  0.1093470E+00
          1   -1    0    0  502    0  0.00000000000E+00  0.00000000000E+00  0.29943538393E+02  0.29943538393E+02  0.00000000000E+00 0.  1.
         13   -1    0    0    0    0 -0.00000000000E+00 -0.00000000000E+00 -0.10000000000E+04  0.10000000000E+04  0.00000000000E+00 0.  1.
    9000005    2    1    2  501    0  0.22353038934E+02 -0.10737811636E+02 -0.91976575291E+03  0.97387113583E+03  0.31912535158E+03 0.  0.
         13    1    3    3    0    0  0.80640498384E+02  0.13580448660E+03 -0.37942404645E+03  0.41098461721E+03  0.00000000000E+00 0.  1.
          3    1    3    3  501    0 -0.58287459450E+02 -0.14654229823E+03 -0.54034170646E+03  0.56288651862E+03  0.00000000000E+00 0.  1.
         21    1    1    2  502  501 -0.22353038934E+02  0.10737811636E+02 -0.50290708695E+02  0.56072402565E+02  0.00000000000E+00 0. -1.
<mgrwt>
<rscale>  1 0.30000000E+03</rscale>
<asrwt>0</asrwt>
<pdfrwt beam="1">  1        1 0.10888582E+00 0.30000000E+03</pdfrwt>
<pdfrwt beam="2">0</pdfrwt>
<totfact> 0.30168924E+01</totfact>
</mgrwt>
</event>
<event>
 6    1  0.1969531E-004  0.3000000E+03  0.7818608E-02  0.1093470E+00
          1   -1    0    0  502    0  0.00000000000E+00  0.00000000000E+00  0.99088635228E+02  0.99088635228E+02  0.00000000000E+00 0.  1.
         13   -1    0    0    0    0 -0.00000000000E+00 -0.00000000000E+00 -0.10000000000E+04  0.10000000000E+04  0.00000000000E+00 0.  1.
    9000005    2    1    2  501    0  0.47657498647E+02 -0.71567686177E+02 -0.94297071893E+03  0.10033694618E+04  0.33190861592E+03 0.  0.
         13    1    3    3    0    0 -0.55411207330E+02 -0.14992175164E+03 -0.77490461254E+03  0.79121684262E+03  0.00000000000E+00 0.  1.
          3    1    3    3  501    0  0.10306870598E+03  0.78354065463E+02 -0.16806610638E+03  0.21215261922E+03  0.00000000000E+00 0.  1.
         21    1    1    2  502  501 -0.47657498647E+02  0.71567686177E+02  0.42059354153E+02  0.95719173386E+02  0.00000000000E+00 0.  1.
<mgrwt>
<rscale>  1 0.30000000E+03</rscale>
<asrwt>0</asrwt>
<pdfrwt beam="1">  1        1 0.36032307E+00 0.30000000E+03</pdfrwt>
<pdfrwt beam="2">0</pdfrwt>
<totfact> 0.17393796E+00</totfact>
</mgrwt>
</event>
<event>
 6    1  0.1969531E-004  0.3000000E+03  0.7818608E-02  0.1093470E+00
          1   -1    0    0  502    0  0.00000000000E+00  0.00000000000E+00  0.32106122892E+02  0.32106122892E+02  0.00000000000E+00 0.  1.
         13   -1    0    0    0    0 -0.00000000000E+00 -0.00000000000E+00 -0.10000000000E+04  0.10000000000E+04  0.00000000000E+00 0.  1.
    9000005    2    1    2  501    0  0.28369754365E+02 -0.51570403459E+00 -0.90018582074E+03  0.95869297822E+03  0.32856141848E+03 0.  0.
         13    1    3    3    0    0  0.14495546688E+03 -0.53483001552E+02 -0.23465363515E+03  0.28095346113E+03  0.00000000000E+00 0.  1.
          3    1    3    3  501    0 -0.11658571251E+03  0.52967297518E+02 -0.66553218559E+03  0.67773951709E+03  0.00000000000E+00 0.  1.
         21    1    1    2  502  501 -0.28369754365E+02  0.51570403459E+00 -0.67708056369E+02  0.73413144672E+02  0.00000000000E+00 0.  1.
<mgrwt>
<rscale>  1 0.30000000E+03</rscale>
<asrwt>0</asrwt>
<pdfrwt beam="1">  1        1 0.11674978E+00 0.30000000E+03</pdfrwt>
<pdfrwt beam="2">0</pdfrwt>
<totfact> 0.27128334E+01</totfact>
</mgrwt>
</event>
<event>
 6    1  0.1969531E-004  0.3000000E+03  0.7818608E-02  0.1093470E+00
          1   -1    0    0  502    0  0.00000000000E+00  0.00000000000E+00  0.27526549466E+02  0.27526549466E+02  0.00000000000E+00 0.  1.
         13   -1    0    0    0    0 -0.00000000000E+00 -0.00000000000E+00 -0.10000000000E+04  0.10000000000E+04  0.00000000000E+00 0.  1.
    9000005    2    1    2  501    0  0.11734898524E+02  0.37112551615E+01 -0.94911418522E+03  0.10011232062E+04  0.31824276300E+03 0.  0.
         13    1    3    3    0    0 -0.68611773160E+02 -0.89861672715E+02 -0.79845144157E+03  0.80641639380E+03  0.00000000000E+00 0.  1.
          3    1    3    3  501    0  0.80346671684E+02  0.93572927876E+02 -0.15066274365E+03  0.19470681243E+03  0.00000000000E+00 0.  1.
         21    1    1    2  502  501 -0.11734898524E+02 -0.37112551615E+01 -0.23359265316E+02  0.26403343242E+02  0.00000000000E+00 0.  1.
<mgrwt>
<rscale>  1 0.30000000E+03</rscale>
<asrwt>0</asrwt>
<pdfrwt beam="1">  1        1 0.10009675E+00 0.30000000E+03</pdfrwt>
<pdfrwt beam="2">0</pdfrwt>
<totfact> 0.34178580E+01</totfact>
</mgrwt>
</event>
<event>
 6    1  0.1969531E-004  0.3000000E+03  0.7818608E-02  0.1093470E+00
          1   -1    0    0  502    0  0.00000000000E+00  0.00000000000E+00  0.54158158312E+02  0.54158158312E+02  0.00000000000E+00 0.  1.
         13   -1    0    0    0    0 -0.00000000000E+00 -0.00000000000E+00 -0.10000000000E+04  0.10000000000E+04  0.00000000000E+00 0.  1.
    9000005    2    1    2  501    0 -0.33628733620E+02  0.89883047247E+02 -0.85781649150E+03  0.92393405846E+03  0.32953779355E+03 0.  0.
         13    1    3    3    0    0 -0.50738973369E+02 -0.12056124284E+03 -0.36772983453E+03  0.39030076595E+03  0.00000000000E+00 0.  1.
          3    1    3    3  501    0  0.17110239749E+02  0.21044429009E+03 -0.49008665697E+03  0.53363329251E+03  0.00000000000E+00 0.  1.
         21    1    1    2  502  501  0.33628733620E+02 -0.89883047247E+02 -0.88025350183E+02  0.13022409985E+03  0.00000000000E+00 0.  1.
<mgrwt>
<rscale>  1 0.30000000E+03</rscale>
<asrwt>0</asrwt>
<pdfrwt beam="1">  1        1 0.19693917E+00 0.30000000E+03</pdfrwt>
<pdfrwt beam="2">0</pdfrwt>
<totfact> 0.10592712E+01</totfact>
</mgrwt>
</event>
<event>
 6    1  0.1969531E-004  0.3000000E+03  0.7818608E-02  0.1093470E+00
          1   -1    0    0  502    0  0.00000000000E+00  0.00000000000E+00  0.31146136322E+02  0.31146136322E+02  0.00000000000E+00 0.  1.
         13   -1    0    0    0    0 -0.00000000000E+00 -0.00000000000E+00 -0.10000000000E+04  0.10000000000E+04  0.00000000000E+00 0.  1.
    9000005    2    1    2  501    0 -0.14373102638E+01  0.14631842218E+02 -0.96398185900E+03  0.10156576536E+04  0.31950475453E+03 0.  0.
         13    1    3    3    0    0  0.11184126283E+03  0.10772263803E+03 -0.66192939332E+03  0.67989937238E+03  0.00000000000E+00 0.  1.
          3    1    3    3  501    0 -0.11327857309E+03 -0.93090795814E+02 -0.30205246568E+03  0.33575828122E+03  0.00000000000E+00 0.  1.
         21    1    1    2  502  501  0.14373102638E+01 -0.14631842218E+02 -0.48720046807E+01  0.15488482724E+02  0.00000000000E+00 0. -1.
<mgrwt>
<rscale>  1 0.30000000E+03</rscale>
<asrwt>0</asrwt>
<pdfrwt beam="1">  1        1 0.11325892E+00 0.30000000E+03</pdfrwt>
<pdfrwt beam="2">0</pdfrwt>
<totfact> 0.28421828E+01</totfact>
</mgrwt>
</event>
<event>
 6    1  0.1969531E-004  0.3000000E+03  0.7818608E-02  0.1093470E+00
          1   -1    0    0  502    0  0.00000000000E+00  0.00000000000E+00  0.35368857653E+02  0.35368857653E+02  0.00000000000E+00 0.  1.
         13   -1    0    0    0    0 -0.00000000000E+00 -0.00000000000E+00 -0.10000000000E+04  0.10000000000E+04  0.00000000000E+00 0.  1.
    9000005    2    1    2  501    0 -0.47020224682E+02  0.23143704261E+02 -0.86386283108E+03  0.92178723444E+03  0.31731086032E+03 0.  0.
         13    1    3    3    0    0  0.11276174647E+03  0.10230918422E+02 -0.13834715119E+03  0.17877308914E+03  0.00000000000E+00 0.  1.
          3    1    3    3  501    0 -0.15978197115E+03  0.12912785839E+02 -0.72551567989E+03  0.74301414530E+03  0.00000000000E+00 0.  1.
         21    1    1    2  502  501  0.47020224682E+02 -0.23143704261E+02 -0.10076831127E+03  0.11358162321E+03  0.00000000000E+00 0.  1.
<mgrwt>
<rscale>  1 0.30000000E+03</rscale>
<asrwt>0</asrwt>
<pdfrwt beam="1">  1        1 0.12861430E+00 0.30000000E+03</pdfrwt>
<pdfrwt beam="2">0</pdfrwt>
<totfact> 0.23281786E+01</totfact>
</mgrwt>
</event>
<event>
 6    1  0.1969531E-004  0.3000000E+03  0.7818608E-02  0.1093470E+00
          1   -1    0    0  502    0  0.00000000000E+00  0.00000000000E+00  0.86476475543E+02  0.86476475543E+02  0.00000000000E+00 0.  1.
         13   -1    0    0    0    0 -0.00000000000E+00 -0.00000000000E+00 -0.10000000000E+04  0.10000000000E+04  0.00000000000E+00 0.  1.
    9000005    2    1    2  501    0 -0.15275647916E+03 -0.94583015260E+02 -0.77629521816E+03  0.86039662958E+03  0.32460376731E+03 0.  0.
         13    1    3    3    0    0 -0.77425374899E+02  0.81886578981E+02 -0.80143638313E+02  0.13828630900E+03  0.00000000000E+00 0.  1.
          3    1    3    3  501    0 -0.75331104263E+02 -0.17646959424E+03 -0.69615157985E+03  0.72211032058E+03  0.00000000000E+00 0.  1.
         21    1    1    2  502  501  0.15275647916E+03  0.94583015260E+02 -0.13722830629E+03  0.22607984596E+03  0.00000000000E+00 0.  1.
<mgrwt>
<rscale>  1 0.30000000E+03</rscale>
<asrwt>0</asrwt>
<pdfrwt beam="1">  1        1 0.31446057E+00 0.30000000E+03</pdfrwt>
<pdfrwt beam="2">0</pdfrwt>
<totfact> 0.29624848E+00</totfact>
</mgrwt>
</event>
<event>
 6    1  0.1969531E-004  0.3000000E+03  0.7818608E-02  0.1093470E+00
          3   -1    0    0  502    0  0.00000000000E+00  0.00000000000E+00  0.33781646168E+02  0.33781646168E+02  0.00000000000E+00 0.  1.
         13   -1    0    0    0    0 -0.00000000000E+00 -0.00000000000E+00 -0.10000000000E+04  0.10000000000E+04  0.00000000000E+00 0.  1.
    9000005    2    1    2  501    0  0.15262050703E+02 -0.12338081875E+02 -0.95582307532E+03  0.10115730831E+04  0.33060125950E+03 0.  0.
         13    1    3    3    0    0 -0.77129038690E+02 -0.10807591147E+03 -0.77927311478E+03  0.79050356019E+03  0.00000000000E+00 0.  1.
          1    1    3    3  501    0  0.92391089392E+02  0.95737829600E+02 -0.17654996054E+03  0.22106952296E+03  0.00000000000E+00 0.  1.
         21    1    1    2  502  501 -0.15262050703E+02  0.12338081875E+02 -0.10395278512E+02  0.22208563019E+02  0.00000000000E+00 0. -1.
<mgrwt>
<rscale>  1 0.30000000E+03</rscale>
<asrwt>0</asrwt>
<pdfrwt beam="1">  1        3 0.12284261E+00 0.30000000E+03</pdfrwt>
<pdfrwt beam="2">0</pdfrwt>
<totfact> 0.21437419E+00</totfact>
</mgrwt>
</event>
<event>
 6    1  0.1969531E-004  0.3000000E+03  0.7818608E-02  0.1093470E+00
          1   -1    0    0  502    0  0.00000000000E+00  0.00000000000E+00  0.11115908002E+03  0.11115908002E+03  0.00000000000E+00 0.  1.
         13   -1    0    0    0    0 -0.00000000000E+00 -0.00000000000E+00 -0.10000000000E+04  0.10000000000E+04  0.00000000000E+00 0.  1.
    9000005    2    1    2  501    0 -0.29210459915E+02  0.35878217753E+02 -0.96643366344E+03  0.10208201000E+04  0.32548295378E+03 0.  0.
         13    1    3    3    0    0  0.19515369369E+02  0.46728260866E+02  0.24044877134E+01  0.50696760906E+02  0.00000000000E+00 0.  1.
          3    1    3    3  501    0 -0.48725829285E+02 -0.10850043113E+02 -0.96883815115E+03  0.97012333907E+03  0.00000000000E+00 0.  1.
         21    1    1    2  502  501  0.29210459915E+02 -0.35878217753E+02  0.77592743463E+02  0.90338980046E+02  0.00000000000E+00 0.  1.
<mgrwt>
<rscale>  1 0.30000000E+03</rscale>
<asrwt>0</asrwt>
<pdfrwt beam="1">  1        1 0.40421569E+00 0.30000000E+03</pdfrwt>
<pdfrwt beam="2">0</pdfrwt>
<totfact> 0.99604590E-01</totfact>
</mgrwt>
</event>
<event>
 6    1  0.1969531E-004  0.3000000E+03  0.7818608E-02  0.1093470E+00
          1   -1    0    0  502    0  0.00000000000E+00  0.00000000000E+00  0.41120873223E+02  0.41120873223E+02  0.00000000000E+00 0.  1.
         13   -1    0    0    0    0 -0.00000000000E+00 -0.00000000000E+00 -0.10000000000E+04  0.10000000000E+04  0.00000000000E+00 0.  1.
    9000005    2    1    2  501    0 -0.26842395436E+02  0.17654223901E+02 -0.93213246126E+03  0.99931692687E+03  0.35879131704E+03 0.  0.
         13    1    3    3    0    0 -0.10156433137E+03  0.14207450633E+03 -0.72922936072E+03  0.74985061131E+03  0.00000000000E+00 0.  1.
          1    1    3    3  501    0  0.74721935933E+02 -0.12442028242E+03 -0.20290310054E+03  0.24946631555E+03  0.00000000000E+00 0.  1.
         21    1    1    2  502  501  0.26842395436E+02 -0.17654223901E+02 -0.26746665520E+02  0.41803946354E+02  0.00000000000E+00 0.  1.
<mgrwt>
<rscale>  1 0.30000000E+03</rscale>
<asrwt>0</asrwt>
<pdfrwt beam="1">  1        1 0.14953076E+00 0.30000000E+03</pdfrwt>
<pdfrwt beam="2">0</pdfrwt>
<totfact> 0.18063990E+01</totfact>
</mgrwt>
</event>
<event>
 6    1  0.1969531E-004  0.3000000E+03  0.7818608E-02  0.1093470E+00
          1   -1    0    0  502    0  0.00000000000E+00  0.00000000000E+00  0.53036411975E+02  0.53036411975E+02  0.00000000000E+00 0.  1.
         13   -1    0    0    0    0 -0.00000000000E+00 -0.00000000000E+00 -0.10000000000E+04  0.10000000000E+04  0.00000000000E+00 0.  1.
    9000005    2    1    2  501    0  0.62231590515E+02  0.52516963435E+02 -0.88846172744E+03  0.95277041575E+03  0.33432980977E+03 0.  0.
         13    1    3    3    0    0  0.11068767582E+03  0.10904265526E+03 -0.16940606211E+03  0.22987056385E+03  0.00000000000E+00 0.  1.
          3    1    3    3  501    0 -0.48456085301E+02 -0.56525691828E+02 -0.71905566533E+03  0.72289985190E+03  0.00000000000E+00 0.  1.
         21    1    1    2  502  501 -0.62231590515E+02 -0.52516963435E+02 -0.58501860582E+02  0.10026599622E+03  0.00000000000E+00 0. -1.
<mgrwt>
<rscale>  1 0.30000000E+03</rscale>
<asrwt>0</asrwt>
<pdfrwt beam="1">  1        1 0.19286009E+00 0.30000000E+03</pdfrwt>
<pdfrwt beam="2">0</pdfrwt>
<totfact> 0.11078673E+01</totfact>
</mgrwt>
</event>
<event>
 6    1  0.1969531E-004  0.3000000E+03  0.7818608E-02  0.1093470E+00
          1   -1    0    0  502    0  0.00000000000E+00  0.00000000000E+00  0.31091340569E+02  0.31091340569E+02  0.00000000000E+00 0.  1.
         13   -1    0    0    0    0 -0.00000000000E+00 -0.00000000000E+00 -0.10000000000E+04  0.10000000000E+04  0.00000000000E+00 0.  1.
    9000005    2    1    2  501    0  0.22662058923E+02  0.11185461522E+02 -0.88860364382E+03  0.94690358019E+03  0.32614608830E+03 0.  0.
         13    1    3    3    0    0 -0.76258901817E+02 -0.51048498311E+02 -0.58976638752E+02  0.10908534826E+03  0.00000000000E+00 0.  1.
          3    1    3    3  501    0  0.98920960741E+02  0.62233959833E+02 -0.82962700507E+03  0.83781823194E+03  0.00000000000E+00 0.  1.
         21    1    1    2  502  501 -0.22662058923E+02 -0.11185461522E+02 -0.80305015614E+02  0.84187760374E+02  0.00000000000E+00 0.  1.
<mgrwt>
<rscale>  1 0.30000000E+03</rscale>
<asrwt>0</asrwt>
<pdfrwt beam="1">  1        1 0.11305966E+00 0.30000000E+03</pdfrwt>
<pdfrwt beam="2">0</pdfrwt>
<totfact> 0.28498266E+01</totfact>
</mgrwt>
</event>
<event>
 6    1  0.1969531E-004  0.3000000E+03  0.7818608E-02  0.1093470E+00
          1   -1    0    0  502    0  0.00000000000E+00  0.00000000000E+00  0.60714435395E+02  0.60714435395E+02  0.00000000000E+00 0.  1.
         13   -1    0    0    0    0 -0.00000000000E+00 -0.00000000000E+00 -0.10000000000E+04  0.10000000000E+04  0.00000000000E+00 0.  1.
    9000005    2    1    2  501    0 -0.56006869344E+02  0.18558536567E+01 -0.94814424120E+03  0.10039809377E+04  0.32536134925E+03 0.  0.
         13    1    3    3    0    0  0.11659498105E+03 -0.33262486605E+02 -0.61807118692E+03  0.62985139098E+03  0.00000000000E+00 0.  1.
          1    1    3    3  501    0 -0.17260185040E+03  0.35118340261E+02 -0.33007305428E+03  0.37412954674E+03  0.00000000000E+00 0.  1.
         21    1    1    2  502  501  0.56006869344E+02 -0.18558536567E+01  0.88586765997E+01  0.56733497668E+02  0.00000000000E+00 0. -1.
<mgrwt>
<rscale>  1 0.30000000E+03</rscale>
<asrwt>0</asrwt>
<pdfrwt beam="1">  1        1 0.22078023E+00 0.30000000E+03</pdfrwt>
<pdfrwt beam="2">0</pdfrwt>
<totfact> 0.81741441E+00</totfact>
</mgrwt>
</event>
<event>
 6    1  0.1969531E-004  0.3000000E+03  0.7818608E-02  0.1093470E+00
          1   -1    0    0  502    0  0.00000000000E+00  0.00000000000E+00  0.33013980953E+02  0.33013980953E+02  0.00000000000E+00 0.  1.
         13   -1    0    0    0    0 -0.00000000000E+00 -0.00000000000E+00 -0.10000000000E+04  0.10000000000E+04  0.00000000000E+00 0.  1.
    9000005    2    1    2  501    0 -0.22042768896E+01 -0.16346076941E+02 -0.96341378654E+03  0.10161375503E+04  0.32264119992E+03 0.  0.
         13    1    3    3    0    0  0.11462075013E+03 -0.11524591885E+03 -0.38703471271E+03  0.41978018892E+03  0.00000000000E+00 0.  1.
          1    1    3    3  501    0 -0.11682502702E+03  0.98899841909E+02 -0.57637907383E+03  0.59635736133E+03  0.00000000000E+00 0.  1.
         21    1    1    2  502  501  0.22042768896E+01  0.16346076941E+02 -0.35722325109E+01  0.16876430697E+02  0.00000000000E+00 0. -1.
<mgrwt>
<rscale>  1 0.30000000E+03</rscale>
<asrwt>0</asrwt>
<pdfrwt beam="1">  1        1 0.12005109E+00 0.30000000E+03</pdfrwt>
<pdfrwt beam="2">0</pdfrwt>
<totfact> 0.25978736E+01</totfact>
</mgrwt>
</event>
<event>
 6    1  0.1969531E-004  0.3000000E+03  0.7818608E-02  0.1093470E+00
          1   -1    0    0  502    0  0.00000000000E+00  0.00000000000E+00  0.38083379179E+02  0.38083379179E+02  0.00000000000E+00 0.  1.
         13   -1    0    0    0    0 -0.00000000000E+00 -0.00000000000E+00 -0.10000000000E+04  0.10000000000E+04  0.00000000000E+00 0.  1.
    9000005    2    1    2  501    0 -0.30265970714E+02  0.15859477065E+01 -0.94595199926E+03  0.10038282576E+04  0.33455558824E+03 0.  0.
         13    1    3    3    0    0 -0.12001982785E+03 -0.12225554477E+03 -0.36706942821E+03  0.40508164909E+03  0.00000000000E+00 0.  1.
          1    1    3    3  501    0  0.89753857132E+02  0.12384149248E+03 -0.57888257104E+03  0.59874660850E+03  0.00000000000E+00 0.  1.
         21    1    1    2  502  501  0.30265970714E+02 -0.15859477065E+01 -0.15964621565E+02  0.34255121589E+02  0.00000000000E+00 0.  1.
<mgrwt>
<rscale>  1 0.30000000E+03</rscale>
<asrwt>0</asrwt>
<pdfrwt beam="1">  1        1 0.13848531E+00 0.30000000E+03</pdfrwt>
<pdfrwt beam="2">0</pdfrwt>
<totfact> 0.20606604E+01</totfact>
</mgrwt>
</event>
<event>
 6    1  0.1969531E-004  0.3000000E+03  0.7818608E-02  0.1093470E+00
          1   -1    0    0  502    0  0.00000000000E+00  0.00000000000E+00  0.47564070562E+02  0.47564070562E+02  0.00000000000E+00 0.  1.
         13   -1    0    0    0    0 -0.00000000000E+00 -0.00000000000E+00 -0.10000000000E+04  0.10000000000E+04  0.00000000000E+00 0.  1.
    9000005    2    1    2  501    0  0.10808419820E+02  0.18085959885E+01 -0.97328141104E+03  0.10240135491E+04  0.31813039887E+03 0.  0.
         13    1    3    3    0    0 -0.26213781294E+02  0.26535990749E+02 -0.97847974832E+03  0.97919045083E+03  0.00000000000E+00 0.  1.
          3    1    3    3  501    0  0.37022201113E+02 -0.24727394761E+02  0.51983372778E+01  0.44823098257E+02  0.00000000000E+00 0.  1.
         21    1    1    2  502  501 -0.10808419820E+02 -0.18085959885E+01  0.20845481601E+02  0.23550521473E+02  0.00000000000E+00 0. -1.
<mgrwt>
<rscale>  1 0.30000000E+03</rscale>
<asrwt>0</asrwt>
<pdfrwt beam="1">  1        1 0.17296062E+00 0.30000000E+03</pdfrwt>
<pdfrwt beam="2">0</pdfrwt>
<totfact> 0.13819935E+01</totfact>
</mgrwt>
</event>
<event>
 6    1  0.1969531E-004  0.3000000E+03  0.7818608E-02  0.1093470E+00
          1   -1    0    0  502    0  0.00000000000E+00  0.00000000000E+00  0.50149058831E+02  0.50149058831E+02  0.00000000000E+00 0.  1.
         13   -1    0    0    0    0 -0.00000000000E+00 -0.00000000000E+00 -0.10000000000E+04  0.10000000000E+04  0.00000000000E+00 0.  1.
    9000005    2    1    2  501    0  0.43874171192E+01  0.93589957150E+01 -0.97114567413E+03  0.10264782777E+04  0.33230542260E+03 0.  0.
         13    1    3    3    0    0  0.14996984058E+03  0.67644352657E+02 -0.62809826860E+03  0.64928741444E+03  0.00000000000E+00 0.  1.
          1    1    3    3  501    0 -0.14558242346E+03 -0.58285356942E+02 -0.34304740553E+03  0.37719086322E+03  0.00000000000E+00 0.  1.
         21    1    1    2  502  501 -0.43874171192E+01 -0.93589957150E+01  0.21294732958E+02  0.23670781177E+02  0.00000000000E+00 0. -1.
<mgrwt>
<rscale>  1 0.30000000E+03</rscale>
<asrwt>0</asrwt>
<pdfrwt beam="1">  1        1 0.18236060E+00 0.30000000E+03</pdfrwt>
<pdfrwt beam="2">0</pdfrwt>
<totfact> 0.12443390E+01</totfact>
</mgrwt>
</event>
<event>
 6    1  0.1969531E-004  0.3000000E+03  0.7818608E-02  0.1093470E+00
          1   -1    0    0  502    0  0.00000000000E+00  0.00000000000E+00  0.27929992139E+02  0.27929992139E+02  0.00000000000E+00 0.  1.
         13   -1    0    0    0    0 -0.00000000000E+00 -0.00000000000E+00 -0.10000000000E+04  0.10000000000E+04  0.00000000000E+00 0.  1.
    9000005    2    1    2  501    0  0.14220451656E+02  0.82435608176E+00 -0.93338474130E+03  0.98670559818E+03  0.31965287639E+03 0.  0.
         13    1    3    3    0    0 -0.57576648728E+02  0.65929554075E+01 -0.90872757251E+03  0.91057363161E+03  0.00000000000E+00 0.  1.
          3    1    3    3  501    0  0.71797100384E+02 -0.57685993257E+01 -0.24657168793E+02  0.76131966575E+02  0.00000000000E+00 0.  1.
         21    1    1    2  502  501 -0.14220451656E+02 -0.82435608176E+00 -0.38685266559E+02  0.41224393955E+02  0.00000000000E+00 0. -1.
<mgrwt>
<rscale>  1 0.30000000E+03</rscale>
<asrwt>0</asrwt>
<pdfrwt beam="1">  1        1 0.10156382E+00 0.30000000E+03</pdfrwt>
<pdfrwt beam="2">0</pdfrwt>
<totfact> 0.33457325E+01</totfact>
</mgrwt>
</event>
<event>
 6    1  0.1969531E-004  0.3000000E+03  0.7818608E-02  0.1093470E+00
          1   -1    0    0  502    0  0.00000000000E+00  0.00000000000E+00  0.31950215661E+02  0.31950215661E+02  0.00000000000E+00 0.  1.
         13   -1    0    0    0    0 -0.00000000000E+00 -0.00000000000E+00 -0.10000000000E+04  0.10000000000E+04  0.00000000000E+00 0.  1.
    9000005    2    1    2  501    0 -0.10877887835E+02 -0.29602073635E+01 -0.97013130981E+03  0.10204861841E+04  0.31640196331E+03 0.  0.
         13    1    3    3    0    0 -0.63221435431E+02  0.31953835190E+02 -0.95251752776E+03  0.95514796664E+03  0.00000000000E+00 0.  1.
          1    1    3    3  501    0  0.52343547597E+02 -0.34914042554E+02 -0.17613782048E+02  0.65338217457E+02  0.00000000000E+00 0.  1.
         21    1    1    2  502  501  0.10877887835E+02  0.29602073635E+01  0.20815254731E+01  0.11464031563E+02  0.00000000000E+00 0.  1.
<mgrwt>
<rscale>  1 0.30000000E+03</rscale>
<asrwt>0</asrwt>
<pdfrwt beam="1">  1        1 0.11618285E+00 0.30000000E+03</pdfrwt>
<pdfrwt beam="2">0</pdfrwt>
<totfact> 0.27332730E+01</totfact>
</mgrwt>
</event>
<event>
 6    1  0.1969531E-004  0.3000000E+03  0.7818608E-02  0.1093470E+00
          1   -1    0    0  502    0  0.00000000000E+00  0.00000000000E+00  0.29600226861E+02  0.29600226861E+02  0.00000000000E+00 0.  1.
         13   -1    0    0    0    0 -0.00000000000E+00 -0.00000000000E+00 -0.10000000000E+04  0.10000000000E+04  0.00000000000E+00 0.  1.
    9000005    2    1    2  501    0  0.61843769060E+00 -0.11670171448E+02 -0.95129998305E+03  0.10072087698E+04  0.33069815979E+03 0.  0.
         13    1    3    3    0    0 -0.63994808635E+02  0.57230990298E+02 -0.46780912169E+02  0.97771036233E+02  0.00000000000E+00 0.  1.
          1    1    3    3  501    0  0.64613246325E+02 -0.68901161746E+02 -0.90451907088E+03  0.90943773359E+03  0.00000000000E+00 0.  1.
         21    1    1    2  502  501 -0.61843769060E+00  0.11670171448E+02 -0.19099790092E+02  0.22391457040E+02  0.00000000000E+00 0. -1.
<mgrwt>
<rscale>  1 0.30000000E+03</rscale>
<asrwt>0</asrwt>
<pdfrwt beam="1">  1        1 0.10763742E+00 0.30000000E+03</pdfrwt>
<pdfrwt beam="2">0</pdfrwt>
<totfact> 0.30695662E+01</totfact>
</mgrwt>
</event>
<event>
 6    1  0.1969531E-004  0.3000000E+03  0.7818608E-02  0.1093470E+00
          3   -1    0    0  502    0  0.00000000000E+00  0.00000000000E+00  0.38378439635E+02  0.38378439635E+02  0.00000000000E+00 0.  1.
         13   -1    0    0    0    0 -0.00000000000E+00 -0.00000000000E+00 -0.10000000000E+04  0.10000000000E+04  0.00000000000E+00 0.  1.
    9000005    2    1    2  501    0  0.41867215130E+01 -0.15711489959E+02 -0.96064231478E+03  0.10220892262E+04  0.34866653084E+03 0.  0.
         13    1    3    3    0    0 -0.72913884342E+02  0.14935810169E+03 -0.48955536406E+03  0.51699974038E+03  0.00000000000E+00 0.  1.
          1    1    3    3  501    0  0.77100605855E+02 -0.16506959164E+03 -0.47108695072E+03  0.50508948578E+03  0.00000000000E+00 0.  1.
         21    1    1    2  502  501 -0.41867215130E+01  0.15711489959E+02 -0.97924558494E+00  0.16289213476E+02  0.00000000000E+00 0. -1.
<mgrwt>
<rscale>  1 0.30000000E+03</rscale>
<asrwt>0</asrwt>
<pdfrwt beam="1">  1        3 0.13955826E+00 0.30000000E+03</pdfrwt>
<pdfrwt beam="2">0</pdfrwt>
<totfact> 0.13564939E+00</totfact>
</mgrwt>
</event>
<event>
 6    1  0.1969531E-004  0.3000000E+03  0.7818608E-02  0.1093470E+00
          1   -1    0    0  502    0  0.00000000000E+00  0.00000000000E+00  0.15751568902E+02  0.15751568902E+02  0.00000000000E+00 0.  1.
         13   -1    0    0    0    0 -0.00000000000E+00 -0.00000000000E+00 -0.10000000000E+04  0.10000000000E+04  0.00000000000E+00 0.  1.
    9000005    2    1    2  501    0  0.46059444053E+02 -0.91346732391E+01 -0.85248638442E+03  0.87587250833E+03  0.19548580661E+03 0.  0.
         13    1    3    3    0    0 -0.42473070558E+02  0.67543196822E+02 -0.26187116148E+03  0.27375637048E+03  0.00000000000E+00 0.  1.
          1    1    3    3  501    0  0.88532514611E+02 -0.76677870061E+02 -0.59061522293E+03  0.60211613785E+03  0.00000000000E+00 0.  1.
         21    1    1    2  502  501 -0.46059444053E+02  0.91346732391E+01 -0.13176204668E+03  0.13987906057E+03  0.00000000000E+00 0.  1.
<mgrwt>
<rscale>  1 0.30000000E+03</rscale>
<asrwt>0</asrwt>
<pdfrwt beam="1">  1        1 0.57278553E-01 0.30000000E+03</pdfrwt>
<pdfrwt beam="2">0</pdfrwt>
<totfact> 0.73750745E+01</totfact>
</mgrwt>
</event>
<event>
 6    1  0.1969531E-004  0.3000000E+03  0.7818608E-02  0.1093470E+00
          1   -1    0    0  502    0  0.00000000000E+00  0.00000000000E+00  0.76768429388E+02  0.76768429388E+02  0.00000000000E+00 0.  1.
         13   -1    0    0    0    0 -0.00000000000E+00 -0.00000000000E+00 -0.10000000000E+04  0.10000000000E+04  0.00000000000E+00 0.  1.
    9000005    2    1    2  501    0  0.35344804120E+02 -0.20241864457E+02 -0.97004355986E+03  0.10147172361E+04  0.29497046107E+03 0.  0.
         13    1    3    3    0    0 -0.41658408965E+02 -0.13306709557E+03 -0.29903047513E+03  0.32994166154E+03  0.00000000000E+00 0.  1.
          1    1    3    3  501    0  0.77003213085E+02  0.11282523112E+03 -0.67101308473E+03  0.68477557453E+03  0.00000000000E+00 0.  1.
         21    1    1    2  502  501 -0.35344804120E+02  0.20241864457E+02  0.46811989245E+02  0.62051193317E+02  0.00000000000E+00 0.  1.
<mgrwt>
<rscale>  1 0.30000000E+03</rscale>
<asrwt>0</asrwt>
<pdfrwt beam="1">  1        1 0.27915851E+00 0.30000000E+03</pdfrwt>
<pdfrwt beam="2">0</pdfrwt>
<totfact> 0.43572760E+00</totfact>
</mgrwt>
</event>
<event>
 6    1  0.1969531E-004  0.3000000E+03  0.7818608E-02  0.1093470E+00
          1   -1    0    0  502    0  0.00000000000E+00  0.00000000000E+00  0.36953742502E+02  0.36953742502E+02  0.00000000000E+00 0.  1.
         13   -1    0    0    0    0 -0.00000000000E+00 -0.00000000000E+00 -0.10000000000E+04  0.10000000000E+04  0.00000000000E+00 0.  1.
    9000005    2    1    2  501    0  0.49540597193E+00 -0.15939259670E+02 -0.96449449290E+03  0.10209411596E+04  0.33439036929E+03 0.  0.
         13    1    3    3    0    0 -0.77644832757E+02 -0.14816460928E+03 -0.35567390916E+03  0.39304630917E+03  0.00000000000E+00 0.  1.
          1    1    3    3  501    0  0.78140238729E+02  0.13222534961E+03 -0.60882058374E+03  0.62789485041E+03  0.00000000000E+00 0.  1.
         21    1    1    2  502  501 -0.49540597193E+00  0.15939259670E+02  0.14482354021E+01  0.16012582917E+02  0.00000000000E+00 0. -1.
<mgrwt>
<rscale>  1 0.30000000E+03</rscale>
<asrwt>0</asrwt>
<pdfrwt beam="1">  1        1 0.13437753E+00 0.30000000E+03</pdfrwt>
<pdfrwt beam="2">0</pdfrwt>
<totfact> 0.21667900E+01</totfact>
</mgrwt>
</event>
<event>
 6    1  0.1969531E-004  0.3000000E+03  0.7818608E-02  0.1093470E+00
          1   -1    0    0  502    0  0.00000000000E+00  0.00000000000E+00  0.11023314165E+02  0.11023314165E+02  0.00000000000E+00 0.  1.
         13   -1    0    0    0    0 -0.00000000000E+00 -0.00000000000E+00 -0.10000000000E+04  0.10000000000E+04  0.00000000000E+00 0.  1.
    9000005    2    1    2  501    0  0.29006493148E+02  0.45162589366E+01 -0.93812892423E+03  0.95230987362E+03  0.16107899830E+03 0.  0.
         13    1    3    3    0    0  0.79725990422E+01  0.81333159774E+02 -0.55555674877E+03  0.56153534734E+03  0.00000000000E+00 0.  1.
          1    1    3    3  501    0  0.21033894106E+02 -0.76816900837E+02 -0.38257217546E+03  0.39077452628E+03  0.00000000000E+00 0.  1.
         21    1    1    2  502  501 -0.29006493148E+02 -0.45162589366E+01 -0.50847761609E+02  0.58713440541E+02  0.00000000000E+00 0. -1.
<mgrwt>
<rscale>  1 0.30000000E+03</rscale>
<asrwt>0</asrwt>
<pdfrwt beam="1">  1        1 0.40084863E-01 0.30000000E+03</pdfrwt>
<pdfrwt beam="2">0</pdfrwt>
<totfact> 0.11787914E+02</totfact>
</mgrwt>
</event>
<event>
 6    1  0.1969531E-004  0.3000000E+03  0.7818608E-02  0.1093470E+00
          1   -1    0    0  502    0  0.00000000000E+00  0.00000000000E+00  0.53467280930E+02  0.53467280930E+02  0.00000000000E+00 0.  1.
         13   -1    0    0    0    0 -0.00000000000E+00 -0.00000000000E+00 -0.10000000000E+04  0.10000000000E+04  0.00000000000E+00 0.  1.
    9000005    2    1    2  501    0 -0.13744300033E+02 -0.46230107332E+02 -0.95082883058E+03  0.10050463642E+04  0.32205061780E+03 0.  0.
         13    1    3    3    0    0 -0.59640627484E+02 -0.13722299786E+03 -0.84492539876E+03  0.85807114219E+03  0.00000000000E+00 0.  1.
          1    1    3    3  501    0  0.45896327451E+02  0.90992890526E+02 -0.10590343182E+03  0.14697522196E+03  0.00000000000E+00 0.  1.
         21    1    1    2  502  501  0.13744300033E+02  0.46230107332E+02  0.42961115115E+01  0.48420916776E+02  0.00000000000E+00 0.  1.
<mgrwt>
<rscale>  1 0.30000000E+03</rscale>
<asrwt>0</asrwt>
<pdfrwt beam="1">  1        1 0.19442689E+00 0.30000000E+03</pdfrwt>
<pdfrwt beam="2">0</pdfrwt>
<totfact> 0.10889137E+01</totfact>
</mgrwt>
</event>
<event>
 6    1  0.1969531E-004  0.3000000E+03  0.7818608E-02  0.1093470E+00
          1   -1    0    0  502    0  0.00000000000E+00  0.00000000000E+00  0.31084554466E+02  0.31084554466E+02  0.00000000000E+00 0.  1.
         13   -1    0    0    0    0 -0.00000000000E+00 -0.00000000000E+00 -0.10000000000E+04  0.10000000000E+04  0.00000000000E+00 0.  1.
    9000005    2    1    2  501    0 -0.19388617840E+01  0.15619536685E+02 -0.96211580642E+03  0.10139391701E+04  0.31962178695E+03 0.  0.
         13    1    3    3    0    0 -0.48656629875E+02 -0.12016298918E+03 -0.72679549524E+03  0.73826709496E+03  0.00000000000E+00 0.  1.
          1    1    3    3  501    0  0.46717768091E+02  0.13578252587E+03 -0.23532031118E+03  0.27567207519E+03  0.00000000000E+00 0.  1.
         21    1    1    2  502  501  0.19388617840E+01 -0.15619536685E+02 -0.67996391144E+01  0.17145384316E+02  0.00000000000E+00 0. -1.
<mgrwt>
<rscale>  1 0.30000000E+03</rscale>
<asrwt>0</asrwt>
<pdfrwt beam="1">  1        1 0.11303498E+00 0.30000000E+03</pdfrwt>
<pdfrwt beam="2">0</pdfrwt>
<totfact> 0.28507753E+01</totfact>
</mgrwt>
</event>
<event>
 6    1  0.1969531E-004  0.3000000E+03  0.7818608E-02  0.1093470E+00
          1   -1    0    0  502    0  0.00000000000E+00  0.00000000000E+00  0.32284013019E+02  0.32284013019E+02  0.00000000000E+00 0.  1.
         13   -1    0    0    0    0 -0.00000000000E+00 -0.00000000000E+00 -0.10000000000E+04  0.10000000000E+04  0.00000000000E+00 0.  1.
    9000005    2    1    2  501    0  0.80363274411E-01 -0.12798940785E+02 -0.96622769399E+03  0.10193985810E+04  0.32467474629E+03 0.  0.
         13    1    3    3    0    0  0.37886480179E+02  0.94671526300E+02 -0.85196044250E+03  0.85804118715E+03  0.00000000000E+00 0.  1.
          1    1    3    3  501    0 -0.37806116905E+02 -0.10747046709E+03 -0.11426725149E+03  0.16135739380E+03  0.00000000000E+00 0.  1.
         21    1    1    2  502  501 -0.80363274411E-01  0.12798940785E+02 -0.14882929937E+01  0.12885432065E+02  0.00000000000E+00 0.  1.
<mgrwt>
<rscale>  1 0.30000000E+03</rscale>
<asrwt>0</asrwt>
<pdfrwt beam="1">  1        1 0.11739666E+00 0.30000000E+03</pdfrwt>
<pdfrwt beam="2">0</pdfrwt>
<totfact> 0.26897685E+01</totfact>
</mgrwt>
</event>
<event>
 6    1  0.1969531E-004  0.3000000E+03  0.7818608E-02  0.1093470E+00
          1   -1    0    0  502    0  0.00000000000E+00  0.00000000000E+00  0.30282399636E+02  0.30282399636E+02  0.00000000000E+00 0.  1.
         13   -1    0    0    0    0 -0.00000000000E+00 -0.00000000000E+00 -0.10000000000E+04  0.10000000000E+04  0.00000000000E+00 0.  1.
    9000005    2    1    2  501    0  0.16916162416E+01  0.12789490984E+02 -0.96388306429E+03  0.10161234994E+04  0.32135645587E+03 0.  0.
         13    1    3    3    0    0  0.60894860668E+02  0.15524597538E+03 -0.53122627175E+03  0.55678617864E+03  0.00000000000E+00 0.  1.
          3    1    3    3  501    0 -0.59203244427E+02 -0.14245648439E+03 -0.43265679255E+03  0.45933732075E+03  0.00000000000E+00 0.  1.
         21    1    1    2  502  501 -0.16916162416E+01 -0.12789490984E+02 -0.58345360721E+01  0.14158900251E+02  0.00000000000E+00 0. -1.
<mgrwt>
<rscale>  1 0.30000000E+03</rscale>
<asrwt>0</asrwt>
<pdfrwt beam="1">  1        1 0.11011805E+00 0.30000000E+03</pdfrwt>
<pdfrwt beam="2">0</pdfrwt>
<totfact> 0.29661563E+01</totfact>
</mgrwt>
</event>
<event>
 6    1  0.1969531E-004  0.3000000E+03  0.7818608E-02  0.1093470E+00
          1   -1    0    0  502    0  0.00000000000E+00  0.00000000000E+00  0.31091269325E+02  0.31091269325E+02  0.00000000000E+00 0.  1.
         13   -1    0    0    0    0 -0.00000000000E+00 -0.00000000000E+00 -0.10000000000E+04  0.10000000000E+04  0.00000000000E+00 0.  1.
    9000005    2    1    2  501    0  0.39965216741E+01  0.96641178049E+01 -0.96511552169E+03  0.10199667112E+04  0.32981017943E+03 0.  0.
         13    1    3    3    0    0 -0.19382271872E+02  0.13973543279E+03 -0.20751875106E+03  0.25092966282E+03  0.00000000000E+00 0.  1.
          3    1    3    3  501    0  0.23378793546E+02 -0.13007131498E+03 -0.75759677062E+03  0.76903704841E+03  0.00000000000E+00 0.  1.
         21    1    1    2  502  501 -0.39965216741E+01 -0.96641178049E+01 -0.37932089896E+01  0.11124558098E+02  0.00000000000E+00 0. -1.
<mgrwt>
<rscale>  1 0.30000000E+03</rscale>
<asrwt>0</asrwt>
<pdfrwt beam="1">  1        1 0.11305940E+00 0.30000000E+03</pdfrwt>
<pdfrwt beam="2">0</pdfrwt>
<totfact> 0.28498366E+01</totfact>
</mgrwt>
</event>
<event>
 6    1  0.1969531E-004  0.3000000E+03  0.7818608E-02  0.1093470E+00
          1   -1    0    0  502    0  0.00000000000E+00  0.00000000000E+00  0.42912965744E+02  0.42912965744E+02  0.00000000000E+00 0.  1.
         13   -1    0    0    0    0 -0.00000000000E+00 -0.00000000000E+00 -0.10000000000E+04  0.10000000000E+04  0.00000000000E+00 0.  1.
    9000005    2    1    2  501    0  0.14552966510E+02  0.67209117671E+00 -0.95867112651E+03  0.10282586186E+04  0.37155513383E+03 0.  0.
         13    1    3    3    0    0  0.39757718766E+02 -0.15363216498E+03 -0.20879930797E+03  0.26226068963E+03  0.00000000000E+00 0.  1.
          1    1    3    3  501    0 -0.25204752256E+02  0.15430425616E+03 -0.74987181854E+03  0.76599792901E+03  0.00000000000E+00 0.  1.
         21    1    1    2  502  501 -0.14552966510E+02 -0.67209117671E+00  0.15840922495E+01  0.14654347104E+02  0.00000000000E+00 0.  1.
<mgrwt>
<rscale>  1 0.30000000E+03</rscale>
<asrwt>0</asrwt>
<pdfrwt beam="1">  1        1 0.15604748E+00 0.30000000E+03</pdfrwt>
<pdfrwt beam="2">0</pdfrwt>
<totfact> 0.16746183E+01</totfact>
</mgrwt>
</event>
<event>
 6    1  0.1969531E-004  0.3000000E+03  0.7818608E-02  0.1093470E+00
          3   -1    0    0  502    0  0.00000000000E+00  0.00000000000E+00  0.43468739585E+02  0.43468739585E+02  0.00000000000E+00 0.  1.
         13   -1    0    0    0    0 -0.00000000000E+00 -0.00000000000E+00 -0.10000000000E+04  0.10000000000E+04  0.00000000000E+00 0.  1.
    9000005    2    1    2  501    0  0.11620788878E+02 -0.17376027506E+02 -0.97056326700E+03  0.10182920386E+04  0.30739006402E+03 0.  0.
         13    1    3    3    0    0 -0.11410078165E+03 -0.61989051120E+02 -0.21599957569E+03  0.25202668019E+03  0.00000000000E+00 0.  1.
          1    1    3    3  501    0  0.12572157053E+03  0.44613023613E+02 -0.75456369132E+03  0.76626535836E+03  0.00000000000E+00 0.  1.
         21    1    1    2  502  501 -0.11620788878E+02  0.17376027506E+02  0.14032006587E+02  0.25176701033E+02  0.00000000000E+00 0.  1.
<mgrwt>
<rscale>  1 0.30000000E+03</rscale>
<asrwt>0</asrwt>
<pdfrwt beam="1">  1        3 0.15806848E+00 0.30000000E+03</pdfrwt>
<pdfrwt beam="2">0</pdfrwt>
<totfact> 0.75735086E-01</totfact>
</mgrwt>
</event>
<event>
 6    1  0.1969531E-004  0.3000000E+03  0.7818608E-02  0.1093470E+00
          1   -1    0    0  502    0  0.00000000000E+00  0.00000000000E+00  0.28804423517E+02  0.28804423517E+02  0.00000000000E+00 0.  1.
         13   -1    0    0    0    0 -0.00000000000E+00 -0.00000000000E+00 -0.10000000000E+04  0.10000000000E+04  0.00000000000E+00 0.  1.
    9000005    2    1    2  501    0 -0.11826042046E+02  0.12504025713E+01 -0.94848660841E+03  0.10031701494E+04  0.32646911584E+03 0.  0.
         13    1    3    3    0    0 -0.55835108695E+02  0.40779833869E+02 -0.94100694354E+03  0.94354365136E+03  0.00000000000E+00 0.  1.
          1    1    3    3  501    0  0.44009066649E+02 -0.39529431297E+02 -0.74796648649E+01  0.59626498073E+02  0.00000000000E+00 0.  1.
         21    1    1    2  502  501  0.11826042046E+02 -0.12504025713E+01 -0.22708968074E+02  0.25634274088E+02  0.00000000000E+00 0. -1.
<mgrwt>
<rscale>  1 0.30000000E+03</rscale>
<asrwt>0</asrwt>
<pdfrwt beam="1">  1        1 0.10474358E+00 0.30000000E+03</pdfrwt>
<pdfrwt beam="2">0</pdfrwt>
<totfact> 0.31968562E+01</totfact>
</mgrwt>
</event>
<event>
 6    1  0.1969531E-004  0.3000000E+03  0.7818608E-02  0.1093470E+00
          1   -1    0    0  502    0  0.00000000000E+00  0.00000000000E+00  0.30181619133E+02  0.30181619133E+02  0.00000000000E+00 0.  1.
         13   -1    0    0    0    0 -0.00000000000E+00 -0.00000000000E+00 -0.10000000000E+04  0.10000000000E+04  0.00000000000E+00 0.  1.
    9000005    2    1    2  501    0  0.12817556735E+02 -0.56645710400E+01 -0.96671688881E+03  0.10158290452E+04  0.31172219816E+03 0.  0.
         13    1    3    3    0    0  0.14865830873E+03  0.42779592359E+02 -0.35321698142E+03  0.38560552672E+03  0.00000000000E+00 0.  1.
          3    1    3    3  501    0 -0.13584075199E+03 -0.48444163399E+02 -0.61349990739E+03  0.63022351847E+03  0.00000000000E+00 0.  1.
         21    1    1    2  502  501 -0.12817556735E+02  0.56645710400E+01 -0.31014920598E+01  0.14352573941E+02  0.00000000000E+00 0.  1.
<mgrwt>
<rscale>  1 0.30000000E+03</rscale>
<asrwt>0</asrwt>
<pdfrwt beam="1">  1        1 0.10975157E+00 0.30000000E+03</pdfrwt>
<pdfrwt beam="2">0</pdfrwt>
<totfact> 0.29811181E+01</totfact>
</mgrwt>
</event>
<event>
 6    1  0.1969531E-004  0.3000000E+03  0.7818608E-02  0.1093470E+00
          1   -1    0    0  502    0  0.00000000000E+00  0.00000000000E+00  0.38695855533E+02  0.38695855533E+02  0.00000000000E+00 0.  1.
         13   -1    0    0    0    0 -0.00000000000E+00 -0.00000000000E+00 -0.10000000000E+04  0.10000000000E+04  0.00000000000E+00 0.  1.
    9000005    2    1    2  501    0  0.26024975046E+01 -0.15178066581E+02 -0.96870797155E+03  0.10216089204E+04  0.32411804223E+03 0.  0.
         13    1    3    3    0    0 -0.21575130823E+02 -0.16646067448E+03 -0.57997155776E+03  0.60377284655E+03  0.00000000000E+00 0.  1.
          3    1    3    3  501    0  0.24177628328E+02  0.15128260790E+03 -0.38873641379E+03  0.41783607381E+03  0.00000000000E+00 0.  1.
         21    1    1    2  502  501 -0.26024975046E+01  0.15178066581E+02  0.74038270836E+01  0.17086935181E+02  0.00000000000E+00 0.  1.
<mgrwt>
<rscale>  1 0.30000000E+03</rscale>
<asrwt>0</asrwt>
<pdfrwt beam="1">  1        1 0.14071250E+00 0.30000000E+03</pdfrwt>
<pdfrwt beam="2">0</pdfrwt>
<totfact> 0.20059129E+01</totfact>
</mgrwt>
</event>
<event>
 6    1  0.1969531E-004  0.3000000E+03  0.7818608E-02  0.1093470E+00
          1   -1    0    0  502    0  0.00000000000E+00  0.00000000000E+00  0.27345003761E+02  0.27345003761E+02  0.00000000000E+00 0.  1.
         13   -1    0    0    0    0 -0.00000000000E+00 -0.00000000000E+00 -0.10000000000E+04  0.10000000000E+04  0.00000000000E+00 0.  1.
    9000005    2    1    2  501    0  0.35439545147E+02 -0.36175905317E+02 -0.87027719572E+03  0.91312647844E+03  0.27175892031E+03 0.  0.
         13    1    3    3    0    0  0.13354570058E+03  0.32611044514E+02 -0.29437000354E+03  0.32488710863E+03  0.00000000000E+00 0.  1.
          1    1    3    3  501    0 -0.98106155435E+02 -0.68786949830E+02 -0.57590719218E+03  0.58823936982E+03  0.00000000000E+00 0.  1.
         21    1    1    2  502  501 -0.35439545147E+02  0.36175905317E+02 -0.10237780052E+03  0.11421852532E+03  0.00000000000E+00 0.  1.
<mgrwt>
<rscale>  1 0.30000000E+03</rscale>
<asrwt>0</asrwt>
<pdfrwt beam="1">  1        1 0.99436587E-01 0.30000000E+03</pdfrwt>
<pdfrwt beam="2">0</pdfrwt>
<totfact> 0.34510622E+01</totfact>
</mgrwt>
</event>
<event>
 6    1  0.1969531E-004  0.3000000E+03  0.7818608E-02  0.1093470E+00
          3   -1    0    0  502    0  0.00000000000E+00  0.00000000000E+00  0.32349324177E+02  0.32349324177E+02  0.00000000000E+00 0.  1.
         13   -1    0    0    0    0 -0.00000000000E+00 -0.00000000000E+00 -0.10000000000E+04  0.10000000000E+04  0.00000000000E+00 0.  1.
    9000005    2    1    2  501    0 -0.25085747176E+02  0.15533645132E+02 -0.93941292951E+03  0.99150866846E+03  0.31578821805E+03 0.  0.
         13    1    3    3    0    0 -0.11894201292E+03  0.11613109446E+03 -0.36862697159E+03  0.40437541682E+03  0.00000000000E+00 0.  1.
          3    1    3    3  501    0  0.93856265746E+02 -0.10059744933E+03 -0.57078595792E+03  0.58713325165E+03  0.00000000000E+00 0.  1.
         21    1    1    2  502  501  0.25085747176E+02 -0.15533645132E+02 -0.28237746310E+02  0.40840655714E+02  0.00000000000E+00 0.  1.
<mgrwt>
<rscale>  1 0.30000000E+03</rscale>
<asrwt>0</asrwt>
<pdfrwt beam="1">  1        3 0.11763415E+00 0.30000000E+03</pdfrwt>
<pdfrwt beam="2">0</pdfrwt>
<totfact> 0.24635179E+00</totfact>
</mgrwt>
</event>
<event>
 6    1  0.1969531E-004  0.3000000E+03  0.7818608E-02  0.1093470E+00
          1   -1    0    0  502    0  0.00000000000E+00  0.00000000000E+00  0.46351311979E+02  0.46351311979E+02  0.00000000000E+00 0.  1.
         13   -1    0    0    0    0 -0.00000000000E+00 -0.00000000000E+00 -0.10000000000E+04  0.10000000000E+04  0.00000000000E+00 0.  1.
    9000005    2    1    2  501    0 -0.20842095598E+01 -0.35235856570E+02 -0.95994824611E+03  0.10104961317E+04  0.31361742226E+03 0.  0.
         13    1    3    3    0    0 -0.74513514688E+02  0.61208184206E+02 -0.88961055209E+02  0.13119746579E+03  0.00000000000E+00 0.  1.
          3    1    3    3  501    0  0.72429305128E+02 -0.96444040776E+02 -0.87098719090E+03  0.87929866596E+03  0.00000000000E+00 0.  1.
         21    1    1    2  502  501  0.20842095598E+01  0.35235856570E+02  0.62995580856E+01  0.35855180237E+02  0.00000000000E+00 0.  1.
<mgrwt>
<rscale>  1 0.30000000E+03</rscale>
<asrwt>0</asrwt>
<pdfrwt beam="1">  1        1 0.16855058E+00 0.30000000E+03</pdfrwt>
<pdfrwt beam="2">0</pdfrwt>
<totfact> 0.14522392E+01</totfact>
</mgrwt>
</event>
<event>
 6    1  0.1969531E-004  0.3000000E+03  0.7818608E-02  0.1093470E+00
          1   -1    0    0  502    0  0.00000000000E+00  0.00000000000E+00  0.35852872207E+02  0.35852872207E+02  0.00000000000E+00 0.  1.
         13   -1    0    0    0    0 -0.00000000000E+00 -0.00000000000E+00 -0.10000000000E+04  0.10000000000E+04  0.00000000000E+00 0.  1.
    9000005    2    1    2  501    0 -0.35696290613E+02 -0.76420229274E+01 -0.92346860422E+03  0.98119605234E+03  0.32957367077E+03 0.  0.
         13    1    3    3    0    0 -0.11706464323E+03  0.91801599982E+02 -0.21675166187E+03  0.26289341448E+03  0.00000000000E+00 0.  1.
          3    1    3    3  501    0  0.81368352622E+02 -0.99443622910E+02 -0.70671694236E+03  0.71830263786E+03  0.00000000000E+00 0.  1.
         21    1    1    2  502  501  0.35696290613E+02  0.76420229274E+01 -0.40678523571E+02  0.54656819866E+02  0.00000000000E+00 0.  1.
<mgrwt>
<rscale>  1 0.30000000E+03</rscale>
<asrwt>0</asrwt>
<pdfrwt beam="1">  1        1 0.13037436E+00 0.30000000E+03</pdfrwt>
<pdfrwt beam="2">0</pdfrwt>
<totfact> 0.22772723E+01</totfact>
</mgrwt>
</event>
<event>
 6    1  0.1969531E-004  0.3000000E+03  0.7818608E-02  0.1093470E+00
          1   -1    0    0  502    0  0.00000000000E+00  0.00000000000E+00  0.33575484489E+02  0.33575484489E+02  0.00000000000E+00 0.  1.
         13   -1    0    0    0    0 -0.00000000000E+00 -0.00000000000E+00 -0.10000000000E+04  0.10000000000E+04  0.00000000000E+00 0.  1.
    9000005    2    1    2  501    0  0.12076521723E+02  0.18249688390E+01 -0.96884105319E+03  0.10211250812E+04  0.32232634423E+03 0.  0.
         13    1    3    3    0    0 -0.13285213236E+03  0.56676240734E+02 -0.65962048320E+03  0.67524889278E+03  0.00000000000E+00 0.  1.
          3    1    3    3  501    0  0.14492865408E+03 -0.54851271895E+02 -0.30922056999E+03  0.34587618840E+03  0.00000000000E+00 0.  1.
         21    1    1    2  502  501 -0.12076521723E+02 -0.18249688390E+01  0.24165376800E+01  0.12450403308E+02  0.00000000000E+00 0.  1.
<mgrwt>
<rscale>  1 0.30000000E+03</rscale>
<asrwt>0</asrwt>
<pdfrwt beam="1">  1        1 0.12209293E+00 0.30000000E+03</pdfrwt>
<pdfrwt beam="2">0</pdfrwt>
<totfact> 0.25300332E+01</totfact>
</mgrwt>
</event>
<event>
 6    1  0.1969531E-004  0.3000000E+03  0.7818608E-02  0.1093470E+00
          1   -1    0    0  502    0  0.00000000000E+00  0.00000000000E+00  0.46622325216E+02  0.46622325216E+02  0.00000000000E+00 0.  1.
         13   -1    0    0    0    0 -0.00000000000E+00 -0.00000000000E+00 -0.10000000000E+04  0.10000000000E+04  0.00000000000E+00 0.  1.
    9000005    2    1    2  501    0  0.24461538645E+01 -0.68319571777E+02 -0.90682591155E+03  0.96391431946E+03  0.31956851196E+03 0.  0.
         13    1    3    3    0    0  0.14110644737E+03 -0.74855766721E+02 -0.67555123385E+03  0.69417856842E+03  0.00000000000E+00 0.  1.
          1    1    3    3  501    0 -0.13866029351E+03  0.65361949441E+01 -0.23127467770E+03  0.26973575104E+03  0.00000000000E+00 0.  1.
         21    1    1    2  502  501 -0.24461538645E+01  0.68319571777E+02 -0.46551763231E+02  0.82708005757E+02  0.00000000000E+00 0. -1.
<mgrwt>
<rscale>  1 0.30000000E+03</rscale>
<asrwt>0</asrwt>
<pdfrwt beam="1">  1        1 0.16953609E+00 0.30000000E+03</pdfrwt>
<pdfrwt beam="2">0</pdfrwt>
<totfact> 0.14362003E+01</totfact>
</mgrwt>
</event>
<event>
 6    1  0.1969531E-004  0.3000000E+03  0.7818608E-02  0.1093470E+00
          1   -1    0    0  502    0  0.00000000000E+00  0.00000000000E+00  0.34345143009E+02  0.34345143009E+02  0.00000000000E+00 0.  1.
         13   -1    0    0    0    0 -0.00000000000E+00 -0.00000000000E+00 -0.10000000000E+04  0.10000000000E+04  0.00000000000E+00 0.  1.
    9000005    2    1    2  501    0  0.18797589761E+02  0.15988579008E+02 -0.94982314263E+03  0.10050257430E+04  0.32757252281E+03 0.  0.
         13    1    3    3    0    0 -0.56972318557E+02 -0.56136601116E+02 -0.86940949726E+03  0.87308077346E+03  0.00000000000E+00 0.  1.
          1    1    3    3  501    0  0.75769908318E+02  0.72125180124E+02 -0.80413645376E+02  0.13194496950E+03  0.00000000000E+00 0.  1.
         21    1    1    2  502  501 -0.18797589761E+02 -0.15988579008E+02 -0.15831714357E+02  0.29319400045E+02  0.00000000000E+00 0.  1.
<mgrwt>
<rscale>  1 0.30000000E+03</rscale>
<asrwt>0</asrwt>
<pdfrwt beam="1">  1        1 0.12489169E+00 0.30000000E+03</pdfrwt>
<pdfrwt beam="2">0</pdfrwt>
<totfact> 0.24407669E+01</totfact>
</mgrwt>
</event>
<event>
 6    1  0.1969531E-004  0.3000000E+03  0.7818608E-02  0.1093470E+00
          3   -1    0    0  502    0  0.00000000000E+00  0.00000000000E+00  0.32930583125E+02  0.32930583125E+02  0.00000000000E+00 0.  1.
         13   -1    0    0    0    0 -0.00000000000E+00 -0.00000000000E+00 -0.10000000000E+04  0.10000000000E+04  0.00000000000E+00 0.  1.
    9000005    2    1    2  501    0 -0.78734983184E+01 -0.42212682443E+02 -0.84269232035E+03  0.90134956369E+03  0.31694918624E+03 0.  0.
         13    1    3    3    0    0 -0.56839829784E+02  0.12864353303E+03 -0.32985032597E+03  0.35858215570E+03  0.00000000000E+00 0.  1.
          3    1    3    3  501    0  0.48966331466E+02 -0.17085621547E+03 -0.51284199438E+03  0.54276740800E+03  0.00000000000E+00 0.  1.
         21    1    1    2  502  501  0.78734983184E+01  0.42212682443E+02 -0.12437709653E+03  0.13158101943E+03  0.00000000000E+00 0.  1.
<mgrwt>
<rscale>  1 0.30000000E+03</rscale>
<asrwt>0</asrwt>
<pdfrwt beam="1">  1        3 0.11974783E+00 0.30000000E+03</pdfrwt>
<pdfrwt beam="2">0</pdfrwt>
<totfact> 0.23286063E+00</totfact>
</mgrwt>
</event>
<event>
 6    1  0.1969531E-004  0.3000000E+03  0.7818608E-02  0.1093470E+00
          1   -1    0    0  502    0  0.00000000000E+00  0.00000000000E+00  0.44999222665E+02  0.44999222665E+02  0.00000000000E+00 0.  1.
         13   -1    0    0    0    0 -0.00000000000E+00 -0.00000000000E+00 -0.10000000000E+04  0.10000000000E+04  0.00000000000E+00 0.  1.
    9000005    2    1    2  501    0 -0.14890342497E+02 -0.47155818884E+02 -0.94030881111E+03  0.99341194297E+03  0.31660896171E+03 0.  0.
         13    1    3    3    0    0  0.31862735094E+02  0.11841156672E+03 -0.59634688526E+03  0.60882357098E+03  0.00000000000E+00 0.  1.
          1    1    3    3  501    0 -0.46753077591E+02 -0.16556738560E+03 -0.34396192585E+03  0.38458837200E+03  0.00000000000E+00 0.  1.
         21    1    1    2  502  501  0.14890342497E+02  0.47155818884E+02 -0.14691966225E+02  0.51587279690E+02  0.00000000000E+00 0. -1.
<mgrwt>
<rscale>  1 0.30000000E+03</rscale>
<asrwt>0</asrwt>
<pdfrwt beam="1">  1        1 0.16363388E+00 0.30000000E+03</pdfrwt>
<pdfrwt beam="2">0</pdfrwt>
<totfact> 0.15353579E+01</totfact>
</mgrwt>
</event>
<event>
 6    1  0.1969531E-004  0.3000000E+03  0.7818608E-02  0.1093470E+00
          1   -1    0    0  502    0  0.00000000000E+00  0.00000000000E+00  0.33467104058E+02  0.33467104058E+02  0.00000000000E+00 0.  1.
         13   -1    0    0    0    0 -0.00000000000E+00 -0.00000000000E+00 -0.10000000000E+04  0.10000000000E+04  0.00000000000E+00 0.  1.
    9000005    2    1    2  501    0 -0.70478693217E+01  0.82168763016E+01 -0.97339895817E+03  0.10206478869E+04  0.30675623503E+03 0.  0.
         13    1    3    3    0    0 -0.46213433733E+02  0.13868952598E+03 -0.70105763563E+03  0.71613705012E+03  0.00000000000E+00 0.  1.
          3    1    3    3  501    0  0.39165564412E+02 -0.13047264968E+03 -0.27234132254E+03  0.30451083678E+03  0.00000000000E+00 0.  1.
         21    1    1    2  502  501  0.70478693217E+01 -0.82168763016E+01  0.68660622307E+01  0.12819217164E+02  0.00000000000E+00 0.  1.
<mgrwt>
<rscale>  1 0.30000000E+03</rscale>
<asrwt>0</asrwt>
<pdfrwt beam="1">  1        1 0.12169882E+00 0.30000000E+03</pdfrwt>
<pdfrwt beam="2">0</pdfrwt>
<totfact> 0.25429433E+01</totfact>
</mgrwt>
</event>
<event>
 6    1  0.1969531E-004  0.3000000E+03  0.7818608E-02  0.1093470E+00
          1   -1    0    0  502    0  0.00000000000E+00  0.00000000000E+00  0.25016946390E+02  0.25016946390E+02  0.00000000000E+00 0.  1.
         13   -1    0    0    0    0 -0.00000000000E+00 -0.00000000000E+00 -0.10000000000E+04  0.10000000000E+04  0.00000000000E+00 0.  1.
    9000005    2    1    2  501    0 -0.63128838513E+01  0.10889966871E+02 -0.96165898488E+03  0.10066873341E+04  0.29744401399E+03 0.  0.
         13    1    3    3    0    0 -0.13847842961E+02 -0.11288330846E+03 -0.16477375856E+03  0.20021187675E+03  0.00000000000E+00 0.  1.
          1    1    3    3  501    0  0.75349591097E+01  0.12377327533E+03 -0.79688522633E+03  0.80647545730E+03  0.00000000000E+00 0.  1.
         21    1    1    2  502  501  0.63128838513E+01 -0.10889966871E+02 -0.13324068726E+02  0.18329612335E+02  0.00000000000E+00 0. -1.
<mgrwt>
<rscale>  1 0.30000000E+03</rscale>
<asrwt>0</asrwt>
<pdfrwt beam="1">  1        1 0.90970906E-01 0.30000000E+03</pdfrwt>
<pdfrwt beam="2">0</pdfrwt>
<totfact> 0.39229618E+01</totfact>
</mgrwt>
</event>
<event>
 6    1  0.1969531E-004  0.3000000E+03  0.7818608E-02  0.1093470E+00
          1   -1    0    0  502    0  0.00000000000E+00  0.00000000000E+00  0.57280419977E+02  0.57280419977E+02  0.00000000000E+00 0.  1.
         13   -1    0    0    0    0 -0.00000000000E+00 -0.00000000000E+00 -0.10000000000E+04  0.10000000000E+04  0.00000000000E+00 0.  1.
    9000005    2    1    2  501    0  0.89600127231E+01 -0.10209561109E+02 -0.97405718646E+03  0.10231254417E+04  0.31275189834E+03 0.  0.
         13    1    3    3    0    0 -0.78641560443E+02 -0.62202207909E+01 -0.46787342565E+02  0.91718272988E+02  0.00000000000E+00 0.  1.
          3    1    3    3  501    0  0.87601573166E+02 -0.39893403184E+01 -0.92726984390E+03  0.93140716868E+03  0.00000000000E+00 0.  1.
         21    1    1    2  502  501 -0.89600127231E+01  0.10209561109E+02  0.31337606441E+02  0.34154978312E+02  0.00000000000E+00 0.  1.
<mgrwt>
<rscale>  1 0.30000000E+03</rscale>
<asrwt>0</asrwt>
<pdfrwt beam="1">  1        1 0.20829288E+00 0.30000000E+03</pdfrwt>
<pdfrwt beam="2">0</pdfrwt>
<totfact> 0.93571884E+00</totfact>
</mgrwt>
</event>
<event>
 6    1  0.1969531E-004  0.3000000E+03  0.7818608E-02  0.1093470E+00
          1   -1    0    0  502    0  0.00000000000E+00  0.00000000000E+00  0.34639325666E+02  0.34639325666E+02  0.00000000000E+00 0.  1.
         13   -1    0    0    0    0 -0.00000000000E+00 -0.00000000000E+00 -0.10000000000E+04  0.10000000000E+04  0.00000000000E+00 0.  1.
    9000005    2    1    2  501    0 -0.47917390880E+01 -0.38595898122E+02 -0.81888484511E+03  0.88308810441E+03  0.32826758368E+03 0.  0.
         13    1    3    3    0    0  0.37803133287E+02 -0.56900651702E+02 -0.83208460499E+03  0.83488415419E+03  0.00000000000E+00 0.  1.
          3    1    3    3  501    0 -0.42594872375E+02  0.18304753580E+02  0.13199759886E+02  0.48203950225E+02  0.00000000000E+00 0.  1.
         21    1    1    2  502  501  0.47917390880E+01  0.38595898122E+02 -0.14647582923E+03  0.15155122125E+03  0.00000000000E+00 0.  1.
<mgrwt>
<rscale>  1 0.30000000E+03</rscale>
<asrwt>0</asrwt>
<pdfrwt beam="1">  1        1 0.12596145E+00 0.30000000E+03</pdfrwt>
<pdfrwt beam="2">0</pdfrwt>
<totfact> 0.24077138E+01</totfact>
</mgrwt>
</event>
<event>
 6    1  0.1969531E-004  0.3000000E+03  0.7818608E-02  0.1093470E+00
          1   -1    0    0  502    0  0.00000000000E+00  0.00000000000E+00  0.46461053088E+02  0.46461053088E+02  0.00000000000E+00 0.  1.
         13   -1    0    0    0    0 -0.00000000000E+00 -0.00000000000E+00 -0.10000000000E+04  0.10000000000E+04  0.00000000000E+00 0.  1.
    9000005    2    1    2  501    0 -0.64769152495E+02  0.64666608053E+02 -0.83718412896E+03  0.89842302766E+03  0.31290550896E+03 0.  0.
         13    1    3    3    0    0 -0.11357192089E+03  0.10818039702E+03 -0.18317149049E+03  0.24115010770E+03  0.00000000000E+00 0.  1.
          3    1    3    3  501    0  0.48802768398E+02 -0.43513788971E+02 -0.65401263847E+03  0.65727291996E+03  0.00000000000E+00 0.  1.
         21    1    1    2  502  501  0.64769152495E+02 -0.64666608053E+02 -0.11635481795E+03  0.14803802543E+03  0.00000000000E+00 0.  1.
<mgrwt>
<rscale>  1 0.30000000E+03</rscale>
<asrwt>0</asrwt>
<pdfrwt beam="1">  1        1 0.16894964E+00 0.30000000E+03</pdfrwt>
<pdfrwt beam="2">0</pdfrwt>
<totfact> 0.14457204E+01</totfact>
</mgrwt>
</event>
<event>
 6    1  0.1969531E-004  0.3000000E+03  0.7818608E-02  0.1093470E+00
          1   -1    0    0  502    0  0.00000000000E+00  0.00000000000E+00  0.28740626366E+02  0.28740626366E+02  0.00000000000E+00 0.  1.
         13   -1    0    0    0    0 -0.00000000000E+00 -0.00000000000E+00 -0.10000000000E+04  0.10000000000E+04  0.00000000000E+00 0.  1.
    9000005    2    1    2  501    0  0.53984371827E+01 -0.76315066257E+01 -0.96075767423E+03  0.10146811560E+04  0.32624401400E+03 0.  0.
         13    1    3    3    0    0 -0.21851241060E+02 -0.15295885841E+03 -0.29851281518E+03  0.33613061439E+03  0.00000000000E+00 0.  1.
          3    1    3    3  501    0  0.27249678243E+02  0.14532735179E+03 -0.66224485906E+03  0.67855054159E+03  0.00000000000E+00 0.  1.
         21    1    1    2  502  501 -0.53984371827E+01  0.76315066257E+01 -0.10501699399E+02  0.14059470391E+02  0.00000000000E+00 0.  1.
<mgrwt>
<rscale>  1 0.30000000E+03</rscale>
<asrwt>0</asrwt>
<pdfrwt beam="1">  1        1 0.10451159E+00 0.30000000E+03</pdfrwt>
<pdfrwt beam="2">0</pdfrwt>
<totfact> 0.32073888E+01</totfact>
</mgrwt>
</event>
<event>
 6    1  0.1969531E-004  0.3000000E+03  0.7818608E-02  0.1093470E+00
          1   -1    0    0  502    0  0.00000000000E+00  0.00000000000E+00  0.68241168559E+02  0.68241168559E+02  0.00000000000E+00 0.  1.
         13   -1    0    0    0    0 -0.00000000000E+00 -0.00000000000E+00 -0.10000000000E+04  0.10000000000E+04  0.00000000000E+00 0.  1.
    9000005    2    1    2  501    0  0.22622103403E+02  0.23076450934E+01 -0.96800976120E+03  0.10254484741E+04  0.33761604008E+03 0.  0.
         13    1    3    3    0    0 -0.19391537285E+02 -0.55661677689E+02 -0.43177111948E+01  0.59100733594E+02  0.00000000000E+00 0.  1.
          1    1    3    3  501    0  0.42013640688E+02  0.57969322782E+02 -0.96369205001E+03  0.96634774053E+03  0.00000000000E+00 0.  1.
         21    1    1    2  502  501 -0.22622103403E+02 -0.23076450934E+01  0.36250929760E+02  0.42792694432E+02  0.00000000000E+00 0.  1.
<mgrwt>
<rscale>  1 0.30000000E+03</rscale>
<asrwt>0</asrwt>
<pdfrwt beam="1">  1        1 0.24815023E+00 0.30000000E+03</pdfrwt>
<pdfrwt beam="2">0</pdfrwt>
<totfact> 0.60856200E+00</totfact>
</mgrwt>
</event>
<event>
 6    1  0.1969531E-004  0.3000000E+03  0.7818608E-02  0.1093470E+00
          1   -1    0    0  502    0  0.00000000000E+00  0.00000000000E+00  0.30241254009E+02  0.30241254009E+02  0.00000000000E+00 0.  1.
         13   -1    0    0    0    0 -0.00000000000E+00 -0.00000000000E+00 -0.10000000000E+04  0.10000000000E+04  0.00000000000E+00 0.  1.
    9000005    2    1    2  501    0  0.81928915836E+01  0.36763114516E+01 -0.95312753515E+03  0.10113405685E+04  0.33804882563E+03 0.  0.
         13    1    3    3    0    0 -0.16098923018E+03 -0.10623311666E+02 -0.36227369341E+03  0.39657611618E+03  0.00000000000E+00 0.  1.
          1    1    3    3  501    0  0.16918212177E+03  0.14299623118E+02 -0.59085384174E+03  0.61476445233E+03  0.00000000000E+00 0.  1.
         21    1    1    2  502  501 -0.81928915836E+01 -0.36763114516E+01 -0.16631210837E+02  0.18900685498E+02  0.00000000000E+00 0.  1.
<mgrwt>
<rscale>  1 0.30000000E+03</rscale>
<asrwt>0</asrwt>
<pdfrwt beam="1">  1        1 0.10996843E+00 0.30000000E+03</pdfrwt>
<pdfrwt beam="2">0</pdfrwt>
<totfact> 0.29722519E+01</totfact>
</mgrwt>
</event>
<event>
 6    1  0.1969531E-004  0.3000000E+03  0.7818608E-02  0.1093470E+00
          1   -1    0    0  502    0  0.00000000000E+00  0.00000000000E+00  0.30454086231E+02  0.30454086231E+02  0.00000000000E+00 0.  1.
         13   -1    0    0    0    0 -0.00000000000E+00 -0.00000000000E+00 -0.10000000000E+04  0.10000000000E+04  0.00000000000E+00 0.  1.
    9000005    2    1    2  501    0  0.10824759055E+02  0.31898598002E+01 -0.92964944883E+03  0.98899231434E+03  0.33723930597E+03 0.  0.
         13    1    3    3    0    0  0.11416353324E+03  0.58231034801E+02 -0.81537752496E+03  0.82538759014E+03  0.00000000000E+00 0.  1.
          1    1    3    3  501    0 -0.10333877419E+03 -0.55041175001E+02 -0.11427192387E+03  0.16360472420E+03  0.00000000000E+00 0.  1.
         21    1    1    2  502  501 -0.10824759055E+02 -0.31898598002E+01 -0.39896464936E+02  0.41461771893E+02  0.00000000000E+00 0. -1.
<mgrwt>
<rscale>  1 0.30000000E+03</rscale>
<asrwt>0</asrwt>
<pdfrwt beam="1">  1        1 0.11074237E+00 0.30000000E+03</pdfrwt>
<pdfrwt beam="2">0</pdfrwt>
<totfact> 0.29409121E+01</totfact>
</mgrwt>
</event>
<event>
 6    1  0.1969531E-004  0.3000000E+03  0.7818608E-02  0.1093470E+00
          1   -1    0    0  502    0  0.00000000000E+00  0.00000000000E+00  0.32582777244E+02  0.32582777244E+02  0.00000000000E+00 0.  1.
         13   -1    0    0    0    0 -0.00000000000E+00 -0.00000000000E+00 -0.10000000000E+04  0.10000000000E+04  0.00000000000E+00 0.  1.
    9000005    2    1    2  501    0  0.46109429277E+02 -0.91588906991E+01 -0.88673451253E+03  0.93920363355E+03  0.30593366081E+03 0.  0.
         13    1    3    3    0    0 -0.15770247242E+02 -0.13870840158E+03 -0.24857166864E+03  0.28509050460E+03  0.00000000000E+00 0.  1.
          3    1    3    3  501    0  0.61879676519E+02  0.12954951088E+03 -0.63816284389E+03  0.65411312894E+03  0.00000000000E+00 0.  1.
         21    1    1    2  502  501 -0.46109429277E+02  0.91588906991E+01 -0.80682710231E+02  0.93379143695E+02  0.00000000000E+00 0. -1.
<mgrwt>
<rscale>  1 0.30000000E+03</rscale>
<asrwt>0</asrwt>
<pdfrwt beam="1">  1        1 0.11848308E+00 0.30000000E+03</pdfrwt>
<pdfrwt beam="2">0</pdfrwt>
<totfact> 0.26516324E+01</totfact>
</mgrwt>
</event>
<event>
 6    1  0.1969531E-004  0.3000000E+03  0.7818608E-02  0.1093470E+00
          1   -1    0    0  502    0  0.00000000000E+00  0.00000000000E+00  0.36858834905E+02  0.36858834905E+02  0.00000000000E+00 0.  1.
         13   -1    0    0    0    0 -0.00000000000E+00 -0.00000000000E+00 -0.10000000000E+04  0.10000000000E+04  0.00000000000E+00 0.  1.
    9000005    2    1    2  501    0  0.10180182177E+02 -0.55490945221E+01 -0.96782553952E+03  0.10243539589E+04  0.33538087258E+03 0.  0.
         13    1    3    3    0    0  0.44444672449E+02 -0.24852722180E+02  0.46043570252E+01  0.51129119026E+02  0.00000000000E+00 0.  1.
          1    1    3    3  501    0 -0.34264490271E+02  0.19303627657E+02 -0.97242989654E+03  0.97322483991E+03  0.00000000000E+00 0.  1.
         21    1    1    2  502  501 -0.10180182177E+02  0.55490945221E+01  0.46843744220E+01  0.12504875965E+02  0.00000000000E+00 0. -1.
<mgrwt>
<rscale>  1 0.30000000E+03</rscale>
<asrwt>0</asrwt>
<pdfrwt beam="1">  1        1 0.13403241E+00 0.30000000E+03</pdfrwt>
<pdfrwt beam="2">0</pdfrwt>
<totfact> 0.21760326E+01</totfact>
</mgrwt>
</event>
<event>
 6    1  0.1969531E-004  0.3000000E+03  0.7818608E-02  0.1093470E+00
          1   -1    0    0  502    0  0.00000000000E+00  0.00000000000E+00  0.31325018455E+02  0.31325018455E+02  0.00000000000E+00 0.  1.
         13   -1    0    0    0    0 -0.00000000000E+00 -0.00000000000E+00 -0.10000000000E+04  0.10000000000E+04  0.00000000000E+00 0.  1.
    9000005    2    1    2  501    0  0.15986897907E+02  0.26028971391E+01 -0.95403756675E+03  0.10094936216E+04  0.32958661568E+03 0.  0.
         13    1    3    3    0    0  0.15992399492E+03  0.93714169726E+01 -0.69350571200E+03  0.71176799604E+03  0.00000000000E+00 0.  1.
          3    1    3    3  501    0 -0.14393709701E+03 -0.67685198335E+01 -0.26053185474E+03  0.29772562552E+03  0.00000000000E+00 0.  1.
         21    1    1    2  502  501 -0.15986897907E+02 -0.26028971391E+01 -0.14637414798E+02  0.21831396891E+02  0.00000000000E+00 0.  1.
<mgrwt>
<rscale>  1 0.30000000E+03</rscale>
<asrwt>0</asrwt>
<pdfrwt beam="1">  1        1 0.11390940E+00 0.30000000E+03</pdfrwt>
<pdfrwt beam="2">0</pdfrwt>
<totfact> 0.28174316E+01</totfact>
</mgrwt>
</event>
<event>
 6    1  0.1969531E-004  0.3000000E+03  0.7818608E-02  0.1093470E+00
          3   -1    0    0  502    0  0.00000000000E+00  0.00000000000E+00  0.29526360130E+02  0.29526360130E+02  0.00000000000E+00 0.  1.
         13   -1    0    0    0    0 -0.00000000000E+00 -0.00000000000E+00 -0.10000000000E+04  0.10000000000E+04  0.00000000000E+00 0.  1.
    9000005    2    1    2  501    0 -0.10179836901E+02  0.65039631773E+01 -0.96065453325E+03  0.10139589110E+04  0.32420612334E+03 0.  0.
         13    1    3    3    0    0  0.75762479022E+01  0.48500055164E+02  0.30438342448E+01  0.49182515288E+02  0.00000000000E+00 0.  1.
          3    1    3    3  501    0 -0.17756084804E+02 -0.41996091987E+02 -0.96369836749E+03  0.96477639575E+03  0.00000000000E+00 0.  1.
         21    1    1    2  502  501  0.10179836901E+02 -0.65039631773E+01 -0.98191066219E+01  0.15567449091E+02  0.00000000000E+00 0. -1.
<mgrwt>
<rscale>  1 0.30000000E+03</rscale>
<asrwt>0</asrwt>
<pdfrwt beam="1">  1        3 0.10736881E+00 0.30000000E+03</pdfrwt>
<pdfrwt beam="2">0</pdfrwt>
<totfact> 0.32289548E+00</totfact>
</mgrwt>
</event>
<event>
 6    1  0.1969531E-004  0.3000000E+03  0.7818608E-02  0.1093470E+00
          1   -1    0    0  502    0  0.00000000000E+00  0.00000000000E+00  0.27826249400E+02  0.27826249400E+02  0.00000000000E+00 0.  1.
         13   -1    0    0    0    0 -0.00000000000E+00 -0.00000000000E+00 -0.10000000000E+04  0.10000000000E+04  0.00000000000E+00 0.  1.
    9000005    2    1    2  501    0 -0.55063056216E+01 -0.73078834126E+01 -0.95018561988E+03  0.10040102368E+04  0.32419148492E+03 0.  0.
         13    1    3    3    0    0 -0.14254451410E+03  0.78317603841E+02 -0.48836095681E+03  0.51473197851E+03  0.00000000000E+00 0.  1.
          3    1    3    3  501    0  0.13703820848E+03 -0.85625487254E+02 -0.46182466307E+03  0.48927825833E+03  0.00000000000E+00 0.  1.
         21    1    1    2  502  501  0.55063056216E+01  0.73078834126E+01 -0.21988130724E+02  0.23816012561E+02  0.00000000000E+00 0. -1.
<mgrwt>
<rscale>  1 0.30000000E+03</rscale>
<asrwt>0</asrwt>
<pdfrwt beam="1">  1        1 0.10118657E+00 0.30000000E+03</pdfrwt>
<pdfrwt beam="2">0</pdfrwt>
<totfact> 0.33640640E+01</totfact>
</mgrwt>
</event>
<event>
 6    1  0.1969531E-004  0.3000000E+03  0.7818608E-02  0.1093470E+00
          1   -1    0    0  502    0  0.00000000000E+00  0.00000000000E+00  0.49169734300E+02  0.49169734300E+02  0.00000000000E+00 0.  1.
         13   -1    0    0    0    0 -0.00000000000E+00 -0.00000000000E+00 -0.10000000000E+04  0.10000000000E+04  0.00000000000E+00 0.  1.
    9000005    2    1    2  501    0 -0.13037922984E+02 -0.61045337215E+02 -0.90673960081E+03  0.97274652211E+03  0.34664473450E+03 0.  0.
         13    1    3    3    0    0 -0.15040525285E+03  0.66637684818E+02 -0.43880664924E+03  0.46862948749E+03  0.00000000000E+00 0.  1.
          3    1    3    3  501    0  0.13736732987E+03 -0.12768302203E+03 -0.46793295157E+03  0.50411703462E+03  0.00000000000E+00 0.  1.
         21    1    1    2  502  501  0.13037922984E+02  0.61045337215E+02 -0.44090664886E+02  0.76423212191E+02  0.00000000000E+00 0. -1.
<mgrwt>
<rscale>  1 0.30000000E+03</rscale>
<asrwt>0</asrwt>
<pdfrwt beam="1">  1        1 0.17879941E+00 0.30000000E+03</pdfrwt>
<pdfrwt beam="2">0</pdfrwt>
<totfact> 0.12946515E+01</totfact>
</mgrwt>
</event>
<event>
 6    1  0.1969531E-004  0.3000000E+03  0.7818608E-02  0.1093470E+00
          1   -1    0    0  502    0  0.00000000000E+00  0.00000000000E+00  0.34365577893E+02  0.34365577893E+02  0.00000000000E+00 0.  1.
         13   -1    0    0    0    0 -0.00000000000E+00 -0.00000000000E+00 -0.10000000000E+04  0.10000000000E+04  0.00000000000E+00 0.  1.
    9000005    2    1    2  501    0  0.17609549592E+02  0.12976026984E+02 -0.96537972747E+03  0.10124900577E+04  0.30446613158E+03 0.  0.
         13    1    3    3    0    0 -0.46744382875E+02  0.65606366951E+02 -0.53217177858E+02  0.96546883606E+02  0.00000000000E+00 0.  1.
          1    1    3    3  501    0  0.64353932467E+02 -0.52630339968E+02 -0.91216254961E+03  0.91594317412E+03  0.00000000000E+00 0.  1.
         21    1    1    2  502  501 -0.17609549592E+02 -0.12976026984E+02 -0.25469463818E+00  0.21875520165E+02  0.00000000000E+00 0.  1.
<mgrwt>
<rscale>  1 0.30000000E+03</rscale>
<asrwt>0</asrwt>
<pdfrwt beam="1">  1        1 0.12496600E+00 0.30000000E+03</pdfrwt>
<pdfrwt beam="2">0</pdfrwt>
<totfact> 0.24384524E+01</totfact>
</mgrwt>
</event>
<event>
 6    1  0.1969531E-004  0.3000000E+03  0.7818608E-02  0.1093470E+00
          1   -1    0    0  502    0  0.00000000000E+00  0.00000000000E+00  0.34978609235E+02  0.34978609235E+02  0.00000000000E+00 0.  1.
         13   -1    0    0    0    0 -0.00000000000E+00 -0.00000000000E+00 -0.10000000000E+04  0.10000000000E+04  0.00000000000E+00 0.  1.
    9000005    2    1    2  501    0 -0.11381529002E+02  0.17553149781E+02 -0.96215609533E+03  0.10138631602E+04  0.31896160206E+03 0.  0.
         13    1    3    3    0    0  0.41692117717E+02  0.14051870065E+03 -0.74065912847E+03  0.75502296820E+03  0.00000000000E+00 0.  1.
          1    1    3    3  501    0 -0.53073646719E+02 -0.12296555087E+03 -0.22149696685E+03  0.25884019201E+03  0.00000000000E+00 0.  1.
         21    1    1    2  502  501  0.11381529002E+02 -0.17553149781E+02 -0.28652954393E+01  0.21115449027E+02  0.00000000000E+00 0. -1.
<mgrwt>
<rscale>  1 0.30000000E+03</rscale>
<asrwt>0</asrwt>
<pdfrwt beam="1">  1        1 0.12719521E+00 0.30000000E+03</pdfrwt>
<pdfrwt beam="2">0</pdfrwt>
<totfact> 0.23702981E+01</totfact>
</mgrwt>
</event>
<event>
 6    1  0.1969531E-004  0.3000000E+03  0.7818608E-02  0.1093470E+00
          1   -1    0    0  502    0  0.00000000000E+00  0.00000000000E+00  0.52636814348E+02  0.52636814348E+02  0.00000000000E+00 0.  1.
         13   -1    0    0    0    0 -0.00000000000E+00 -0.00000000000E+00 -0.10000000000E+04  0.10000000000E+04  0.00000000000E+00 0.  1.
    9000005    2    1    2  501    0  0.65355712172E+02  0.14750797660E+02 -0.93331906305E+03  0.98418104377E+03  0.30502278329E+03 0.  0.
         13    1    3    3    0    0 -0.87381133687E+02  0.84311164844E+02 -0.21898616908E+03  0.25039723898E+03  0.00000000000E+00 0.  1.
          3    1    3    3  501    0  0.15273684586E+03 -0.69560367184E+02 -0.71433289397E+03  0.73378380480E+03  0.00000000000E+00 0.  1.
         21    1    1    2  502  501 -0.65355712172E+02 -0.14750797660E+02 -0.14044122601E+02  0.68455770573E+02  0.00000000000E+00 0.  1.
<mgrwt>
<rscale>  1 0.30000000E+03</rscale>
<asrwt>0</asrwt>
<pdfrwt beam="1">  1        1 0.19140700E+00 0.30000000E+03</pdfrwt>
<pdfrwt beam="2">0</pdfrwt>
<totfact> 0.11257682E+01</totfact>
</mgrwt>
</event>
<event>
 6    1  0.1969531E-004  0.3000000E+03  0.7818608E-02  0.1093470E+00
          1   -1    0    0  502    0  0.00000000000E+00  0.00000000000E+00  0.27896329384E+02  0.27896329384E+02  0.00000000000E+00 0.  1.
         13   -1    0    0    0    0 -0.00000000000E+00 -0.00000000000E+00 -0.10000000000E+04  0.10000000000E+04  0.00000000000E+00 0.  1.
    9000005    2    1    2  501    0  0.37701652338E+01 -0.88102241733E+01 -0.95673904501E+03  0.10097881568E+04  0.32284777696E+03 0.  0.
         13    1    3    3    0    0  0.13836068408E+03  0.31856769288E+02 -0.23563017119E+03  0.27510018215E+03  0.00000000000E+00 0.  1.
          3    1    3    3  501    0 -0.13459051884E+03 -0.40666993461E+02 -0.72110887382E+03  0.73468797460E+03  0.00000000000E+00 0.  1.
         21    1    1    2  502  501 -0.37701652338E+01  0.88102241733E+01 -0.15364625607E+02  0.18108172628E+02  0.00000000000E+00 0. -1.
<mgrwt>
<rscale>  1 0.30000000E+03</rscale>
<asrwt>0</asrwt>
<pdfrwt beam="1">  1        1 0.10144141E+00 0.30000000E+03</pdfrwt>
<pdfrwt beam="2">0</pdfrwt>
<totfact> 0.33516647E+01</totfact>
</mgrwt>
</event>
<event>
 6    1  0.1969531E-004  0.3000000E+03  0.7818608E-02  0.1093470E+00
          1   -1    0    0  502    0  0.00000000000E+00  0.00000000000E+00  0.55081751273E+02  0.55081751273E+02  0.00000000000E+00 0.  1.
         13   -1    0    0    0    0 -0.00000000000E+00 -0.00000000000E+00 -0.10000000000E+04  0.10000000000E+04  0.00000000000E+00 0.  1.
    9000005    2    1    2  501    0  0.77792833032E+02 -0.47880795781E+02 -0.88303140670E+03  0.94474464649E+03  0.32319295534E+03 0.  0.
         13    1    3    3    0    0  0.15505933131E+03  0.35575796446E+02 -0.76291987800E+03  0.77933033674E+03  0.00000000000E+00 0.  1.
          3    1    3    3  501    0 -0.77266498281E+02 -0.83456592227E+02 -0.12011152869E+03  0.16541430974E+03  0.00000000000E+00 0.  1.
         21    1    1    2  502  501 -0.77792833032E+02  0.47880795781E+02 -0.61886842032E+02  0.11033710479E+03  0.00000000000E+00 0.  1.
<mgrwt>
<rscale>  1 0.30000000E+03</rscale>
<asrwt>0</asrwt>
<pdfrwt beam="1">  1        1 0.20029770E+00 0.30000000E+03</pdfrwt>
<pdfrwt beam="2">0</pdfrwt>
<totfact> 0.10210094E+01</totfact>
</mgrwt>
</event>
<event>
 6    1  0.1969531E-004  0.3000000E+03  0.7818608E-02  0.1093470E+00
          1   -1    0    0  502    0  0.00000000000E+00  0.00000000000E+00  0.30361961916E+02  0.30361961916E+02  0.00000000000E+00 0.  1.
         13   -1    0    0    0    0 -0.00000000000E+00 -0.00000000000E+00 -0.10000000000E+04  0.10000000000E+04  0.00000000000E+00 0.  1.
    9000005    2    1    2  501    0  0.93837868545E+01  0.45316937257E+01 -0.96195005838E+03  0.10174121845E+04  0.33116619181E+03 0.  0.
         13    1    3    3    0    0 -0.93649111103E-01 -0.10225688133E+03 -0.87053722851E+03  0.87652241544E+03  0.00000000000E+00 0.  1.
          1    1    3    3  501    0  0.94774359656E+01  0.10678857505E+03 -0.91412829872E+02  0.14088976904E+03  0.00000000000E+00 0.  1.
         21    1    1    2  502  501 -0.93837868545E+01 -0.45316937257E+01 -0.76879797018E+01  0.12949777436E+02  0.00000000000E+00 0. -1.
<mgrwt>
<rscale>  1 0.30000000E+03</rscale>
<asrwt>0</asrwt>
<pdfrwt beam="1">  1        1 0.11040737E+00 0.30000000E+03</pdfrwt>
<pdfrwt beam="2">0</pdfrwt>
<totfact> 0.29544197E+01</totfact>
</mgrwt>
</event>
<event>
 6    1  0.1969531E-004  0.3000000E+03  0.7818608E-02  0.1093470E+00
          1   -1    0    0  502    0  0.00000000000E+00  0.00000000000E+00  0.35879910919E+02  0.35879910919E+02  0.00000000000E+00 0.  1.
         13   -1    0    0    0    0 -0.00000000000E+00 -0.00000000000E+00 -0.10000000000E+04  0.10000000000E+04  0.00000000000E+00 0.  1.
    9000005    2    1    2  501    0  0.21155465776E+02 -0.76921974473E+01 -0.95900647221E+03  0.10127958751E+04  0.32489282414E+03 0.  0.
         13    1    3    3    0    0  0.87843419837E+02  0.10967766452E+03 -0.21640723175E+03  0.25802663905E+03  0.00000000000E+00 0.  1.
          3    1    3    3  501    0 -0.66687954061E+02 -0.11736986197E+03 -0.74259924045E+03  0.75476923602E+03  0.00000000000E+00 0.  1.
         21    1    1    2  502  501 -0.21155465776E+02  0.76921974473E+01 -0.51136168741E+01  0.23084035854E+02  0.00000000000E+00 0.  1.
<mgrwt>
<rscale>  1 0.30000000E+03</rscale>
<asrwt>0</asrwt>
<pdfrwt beam="1">  1        1 0.13047268E+00 0.30000000E+03</pdfrwt>
<pdfrwt beam="2">0</pdfrwt>
<totfact> 0.22744713E+01</totfact>
</mgrwt>
</event>
<event>
 6    1  0.1969531E-004  0.3000000E+03  0.7818608E-02  0.1093470E+00
          1   -1    0    0  502    0  0.00000000000E+00  0.00000000000E+00  0.30380448272E+02  0.30380448272E+02  0.00000000000E+00 0.  1.
         13   -1    0    0    0    0 -0.00000000000E+00 -0.00000000000E+00 -0.10000000000E+04  0.10000000000E+04  0.00000000000E+00 0.  1.
    9000005    2    1    2  501    0  0.85323368837E+01  0.77864761808E+01 -0.96460178216E+03  0.10177864816E+04  0.32449852710E+03 0.  0.
         13    1    3    3    0    0  0.14321697340E+03  0.86055301329E+02 -0.44484599386E+03  0.47518898831E+03  0.00000000000E+00 0.  1.
          3    1    3    3  501    0 -0.13468463652E+03 -0.78268825149E+02 -0.51975578830E+03  0.54259749333E+03  0.00000000000E+00 0.  1.
         21    1    1    2  502  501 -0.85323368837E+01 -0.77864761808E+01 -0.50177695723E+01  0.12593966631E+02  0.00000000000E+00 0.  1.
<mgrwt>
<rscale>  1 0.30000000E+03</rscale>
<asrwt>0</asrwt>
<pdfrwt beam="1">  1        1 0.11047459E+00 0.30000000E+03</pdfrwt>
<pdfrwt beam="2">0</pdfrwt>
<totfact> 0.29517022E+01</totfact>
</mgrwt>
</event>
<event>
 6    1  0.1969531E-004  0.3000000E+03  0.7818608E-02  0.1093470E+00
          1   -1    0    0  502    0  0.00000000000E+00  0.00000000000E+00  0.33856155316E+02  0.33856155316E+02  0.00000000000E+00 0.  1.
         13   -1    0    0    0    0 -0.00000000000E+00 -0.00000000000E+00 -0.10000000000E+04  0.10000000000E+04  0.00000000000E+00 0.  1.
    9000005    2    1    2  501    0 -0.49440919723E+02 -0.22129163487E+02 -0.89480445404E+03  0.94428264876E+03  0.29675007221E+03 0.  0.
         13    1    3    3    0    0 -0.37517171686E+02 -0.12084844674E+03 -0.78901091688E+03  0.79909330632E+03  0.00000000000E+00 0.  1.
          3    1    3    3  501    0 -0.11923748037E+02  0.98719283250E+02 -0.10579353715E+03  0.14518934243E+03  0.00000000000E+00 0.  1.
         21    1    1    2  502  501  0.49440919723E+02  0.22129163487E+02 -0.71339390647E+02  0.89573506561E+02  0.00000000000E+00 0. -1.
<mgrwt>
<rscale>  1 0.30000000E+03</rscale>
<asrwt>0</asrwt>
<pdfrwt beam="1">  1        1 0.12311355E+00 0.30000000E+03</pdfrwt>
<pdfrwt beam="2">0</pdfrwt>
<totfact> 0.24969974E+01</totfact>
</mgrwt>
</event>
<event>
 6    1  0.1969531E-004  0.3000000E+03  0.7818608E-02  0.1093470E+00
          1   -1    0    0  502    0  0.00000000000E+00  0.00000000000E+00  0.40845052557E+02  0.40845052557E+02  0.00000000000E+00 0.  1.
         13   -1    0    0    0    0 -0.00000000000E+00 -0.00000000000E+00 -0.10000000000E+04  0.10000000000E+04  0.00000000000E+00 0.  1.
    9000005    2    1    2  501    0  0.15274560262E+02  0.81169015219E+01 -0.96470757769E+03  0.10226783802E+04  0.33898549028E+03 0.  0.
         13    1    3    3    0    0  0.33443514560E+02  0.53811718535E+02 -0.70380607875E+01  0.63747188310E+02  0.00000000000E+00 0.  1.
          1    1    3    3  501    0 -0.18168954297E+02 -0.45694817013E+02 -0.95766951690E+03  0.95893119190E+03  0.00000000000E+00 0.  1.
         21    1    1    2  502  501 -0.15274560262E+02 -0.81169015219E+01  0.55526302440E+01  0.18166672347E+02  0.00000000000E+00 0.  1.
<mgrwt>
<rscale>  1 0.30000000E+03</rscale>
<asrwt>0</asrwt>
<pdfrwt beam="1">  1        1 0.14852778E+00 0.30000000E+03</pdfrwt>
<pdfrwt beam="2">0</pdfrwt>
<totfact> 0.18277959E+01</totfact>
</mgrwt>
</event>
<event>
 6    1  0.1969531E-004  0.3000000E+03  0.7818608E-02  0.1093470E+00
          1   -1    0    0  502    0  0.00000000000E+00  0.00000000000E+00  0.30990914419E+02  0.30990914419E+02  0.00000000000E+00 0.  1.
         13   -1    0    0    0    0 -0.00000000000E+00 -0.00000000000E+00 -0.10000000000E+04  0.10000000000E+04  0.00000000000E+00 0.  1.
    9000005    2    1    2  501    0 -0.17685585608E+02 -0.17711446649E+01 -0.94972251429E+03  0.10047632816E+04  0.32750645946E+03 0.  0.
         13    1    3    3    0    0 -0.85542009388E+02 -0.63151446316E+02 -0.87506614151E+02  0.13770602043E+03  0.00000000000E+00 0.  1.
          1    1    3    3  501    0  0.67856423780E+02  0.61380301651E+02 -0.86221590014E+03  0.86705726116E+03  0.00000000000E+00 0.  1.
         21    1    1    2  502  501  0.17685585608E+02  0.17711446649E+01 -0.19286571294E+02  0.26227632832E+02  0.00000000000E+00 0.  1.
<mgrwt>
<rscale>  1 0.30000000E+03</rscale>
<asrwt>0</asrwt>
<pdfrwt beam="1">  1        1 0.11269447E+00 0.30000000E+03</pdfrwt>
<pdfrwt beam="2">0</pdfrwt>
<totfact> 0.28639120E+01</totfact>
</mgrwt>
</event>
<event>
 6    1  0.1969531E-004  0.3000000E+03  0.7818608E-02  0.1093470E+00
          3   -1    0    0  502    0  0.00000000000E+00  0.00000000000E+00  0.37660791592E+02  0.37660791592E+02  0.00000000000E+00 0.  1.
         13   -1    0    0    0    0 -0.00000000000E+00 -0.00000000000E+00 -0.10000000000E+04  0.10000000000E+04  0.00000000000E+00 0.  1.
    9000005    2    1    2  501    0 -0.71274405160E+01 -0.25363809948E+02 -0.94615813157E+03  0.10067423422E+04  0.34295890487E+03 0.  0.
         13    1    3    3    0    0  0.72748164560E+02  0.11355949134E+03 -0.18523939501E+03  0.22913246602E+03  0.00000000000E+00 0.  1.
          1    1    3    3  501    0 -0.79875605076E+02 -0.13892330129E+03 -0.76091873657E+03  0.77760987622E+03  0.00000000000E+00 0.  1.
         21    1    1    2  502  501  0.71274405160E+01  0.25363809948E+02 -0.16181076834E+02  0.30918449361E+02  0.00000000000E+00 0.  1.
<mgrwt>
<rscale>  1 0.30000000E+03</rscale>
<asrwt>0</asrwt>
<pdfrwt beam="1">  1        3 0.13694862E+00 0.30000000E+03</pdfrwt>
<pdfrwt beam="2">0</pdfrwt>
<totfact> 0.14614410E+00</totfact>
</mgrwt>
</event>
<event>
 6    1  0.1969531E-004  0.3000000E+03  0.7818608E-02  0.1093470E+00
          1   -1    0    0  502    0  0.00000000000E+00  0.00000000000E+00  0.40618040642E+02  0.40618040642E+02  0.00000000000E+00 0.  1.
         13   -1    0    0    0    0 -0.00000000000E+00 -0.00000000000E+00 -0.10000000000E+04  0.10000000000E+04  0.00000000000E+00 0.  1.
    9000005    2    1    2  501    0  0.55670721456E+01 -0.91562469333E+01 -0.97265501597E+03  0.10235592253E+04  0.31859202497E+03 0.  0.
         13    1    3    3    0    0 -0.37277477730E+02 -0.64376809770E+01 -0.97937537253E+03  0.98010569552E+03  0.00000000000E+00 0.  1.
          3    1    3    3  501    0  0.42844549875E+02 -0.27185659562E+01  0.67203565544E+01  0.43453529743E+02  0.00000000000E+00 0.  1.
         21    1    1    2  502  501 -0.55670721456E+01  0.91562469333E+01  0.13273056615E+02  0.17058815377E+02  0.00000000000E+00 0.  1.
<mgrwt>
<rscale>  1 0.30000000E+03</rscale>
<asrwt>0</asrwt>
<pdfrwt beam="1">  1        1 0.14770228E+00 0.30000000E+03</pdfrwt>
<pdfrwt beam="2">0</pdfrwt>
<totfact> 0.18456442E+01</totfact>
</mgrwt>
</event>
<event>
 6    1  0.1969531E-004  0.3000000E+03  0.7818608E-02  0.1093470E+00
          1   -1    0    0  502    0  0.00000000000E+00  0.00000000000E+00  0.29040458903E+02  0.29040458903E+02  0.00000000000E+00 0.  1.
         13   -1    0    0    0    0 -0.00000000000E+00 -0.00000000000E+00 -0.10000000000E+04  0.10000000000E+04  0.00000000000E+00 0.  1.
    9000005    2    1    2  501    0 -0.53333269070E+01 -0.87692607604E+01 -0.96227824009E+03  0.10155976431E+04  0.32458252720E+03 0.  0.
         13    1    3    3    0    0 -0.13613266882E+03 -0.35686724376E+02 -0.21831498392E+03  0.25974425503E+03  0.00000000000E+00 0.  1.
          3    1    3    3  501    0  0.13079934191E+03  0.26917463616E+02 -0.74396325617E+03  0.75585338805E+03  0.00000000000E+00 0.  1.
         21    1    1    2  502  501  0.53333269070E+01  0.87692607604E+01 -0.86813010066E+01  0.13442815827E+02  0.00000000000E+00 0.  1.
<mgrwt>
<rscale>  1 0.30000000E+03</rscale>
<asrwt>0</asrwt>
<pdfrwt beam="1">  1        1 0.10560189E+00 0.30000000E+03</pdfrwt>
<pdfrwt beam="2">0</pdfrwt>
<totfact> 0.31583203E+01</totfact>
</mgrwt>
</event>
<event>
 6    1  0.1969531E-004  0.3000000E+03  0.7818608E-02  0.1093470E+00
          1   -1    0    0  502    0  0.00000000000E+00  0.00000000000E+00  0.16319133527E+02  0.16319133527E+02  0.00000000000E+00 0.  1.
         13   -1    0    0    0    0 -0.00000000000E+00 -0.00000000000E+00 -0.10000000000E+04  0.10000000000E+04  0.00000000000E+00 0.  1.
    9000005    2    1    2  501    0 -0.52625031482E+01  0.86608018671E+01 -0.98500446796E+03  0.10060987935E+04  0.20469068629E+03 0.  0.
         13    1    3    3    0    0 -0.67143622862E+00 -0.84421326943E+02 -0.72495448683E+03  0.72985369715E+03  0.00000000000E+00 0.  1.
          1    1    3    3  501    0 -0.45910669195E+01  0.93082128810E+02 -0.26004998113E+03  0.27624509640E+03  0.00000000000E+00 0.  1.
         21    1    1    2  502  501  0.52625031482E+01 -0.86608018671E+01  0.13236014852E+01  0.10220339978E+02  0.00000000000E+00 0.  1.
<mgrwt>
<rscale>  1 0.30000000E+03</rscale>
<asrwt>0</asrwt>
<pdfrwt beam="1">  1        1 0.59342429E-01 0.30000000E+03</pdfrwt>
<pdfrwt beam="2">0</pdfrwt>
<totfact> 0.70366726E+01</totfact>
</mgrwt>
</event>
<event>
 6    1  0.1969531E-004  0.3000000E+03  0.7818608E-02  0.1093470E+00
          1   -1    0    0  502    0  0.00000000000E+00  0.00000000000E+00  0.41707470730E+02  0.41707470730E+02  0.00000000000E+00 0.  1.
         13   -1    0    0    0    0 -0.00000000000E+00 -0.00000000000E+00 -0.10000000000E+04  0.10000000000E+04  0.00000000000E+00 0.  1.
    9000005    2    1    2  501    0  0.49112715714E+01 -0.14226805380E+02 -0.97248611072E+03  0.10210197852E+04  0.31068576339E+03 0.  0.
         13    1    3    3    0    0  0.19465718607E+02  0.14716899763E+03 -0.49529901707E+03  0.51706744664E+03  0.00000000000E+00 0.  1.
          1    1    3    3  501    0 -0.14554447035E+02 -0.16139580301E+03 -0.47718709365E+03  0.50395233853E+03  0.00000000000E+00 0.  1.
         21    1    1    2  502  501 -0.49112715714E+01  0.14226805380E+02  0.14193581449E+02  0.20687685567E+02  0.00000000000E+00 0.  1.
<mgrwt>
<rscale>  1 0.30000000E+03</rscale>
<asrwt>0</asrwt>
<pdfrwt beam="1">  1        1 0.15166385E+00 0.30000000E+03</pdfrwt>
<pdfrwt beam="2">0</pdfrwt>
<totfact> 0.17619149E+01</totfact>
</mgrwt>
</event>
<event>
 6    1  0.1969531E-004  0.3000000E+03  0.7818608E-02  0.1093470E+00
          1   -1    0    0  502    0  0.00000000000E+00  0.00000000000E+00  0.30240371034E+02  0.30240371034E+02  0.00000000000E+00 0.  1.
         13   -1    0    0    0    0 -0.00000000000E+00 -0.00000000000E+00 -0.10000000000E+04  0.10000000000E+04  0.00000000000E+00 0.  1.
    9000005    2    1    2  501    0 -0.86934260036E+01  0.56242768612E+01 -0.96761545348E+03  0.10196665527E+04  0.32145451423E+03 0.  0.
         13    1    3    3    0    0  0.40863654393E+02 -0.31204423491E+02 -0.95533012615E+03  0.95671270726E+03  0.00000000000E+00 0.  1.
          1    1    3    3  501    0 -0.49557080397E+02  0.36828700352E+02 -0.12285327325E+02  0.62953845431E+02  0.00000000000E+00 0.  1.
         21    1    1    2  502  501  0.86934260036E+01 -0.56242768612E+01 -0.21441754899E+01  0.10573818346E+02  0.00000000000E+00 0.  1.
<mgrwt>
<rscale>  1 0.30000000E+03</rscale>
<asrwt>0</asrwt>
<pdfrwt beam="1">  1        1 0.10996522E+00 0.30000000E+03</pdfrwt>
<pdfrwt beam="2">0</pdfrwt>
<totfact> 0.29723829E+01</totfact>
</mgrwt>
</event>
<event>
 6    1  0.1969531E-004  0.3000000E+03  0.7818608E-02  0.1093470E+00
          1   -1    0    0  502    0  0.00000000000E+00  0.00000000000E+00  0.28854952437E+02  0.28854952437E+02  0.00000000000E+00 0.  1.
         13   -1    0    0    0    0 -0.00000000000E+00 -0.00000000000E+00 -0.10000000000E+04  0.10000000000E+04  0.00000000000E+00 0.  1.
    9000005    2    1    2  501    0  0.10572393785E+02  0.19745969279E+02 -0.91108211307E+03  0.96475163807E+03  0.31650186032E+03 0.  0.
         13    1    3    3    0    0  0.11774546479E+03  0.11487998882E+03 -0.60186087760E+03  0.62393743460E+03  0.00000000000E+00 0.  1.
          3    1    3    3  501    0 -0.10717307100E+03 -0.95134019538E+02 -0.30922123546E+03  0.34081420347E+03  0.00000000000E+00 0.  1.
         21    1    1    2  502  501 -0.10572393785E+02 -0.19745969279E+02 -0.60062934494E+02  0.64103314370E+02  0.00000000000E+00 0.  1.
<mgrwt>
<rscale>  1 0.30000000E+03</rscale>
<asrwt>0</asrwt>
<pdfrwt beam="1">  1        1 0.10492732E+00 0.30000000E+03</pdfrwt>
<pdfrwt beam="2">0</pdfrwt>
<totfact> 0.31885497E+01</totfact>
</mgrwt>
</event>
<event>
 6    1  0.1969531E-004  0.3000000E+03  0.7818608E-02  0.1093470E+00
          1   -1    0    0  502    0  0.00000000000E+00  0.00000000000E+00  0.41413280621E+02  0.41413280621E+02  0.00000000000E+00 0.  1.
         13   -1    0    0    0    0 -0.00000000000E+00 -0.00000000000E+00 -0.10000000000E+04  0.10000000000E+04  0.00000000000E+00 0.  1.
    9000005    2    1    2  501    0 -0.45575469017E+02 -0.27201008902E+02 -0.93508895938E+03  0.98336878918E+03  0.29967615073E+03 0.  0.
         13    1    3    3    0    0  0.31452643261E+02 -0.96942183410E+02 -0.82765248081E+03  0.83390388216E+03  0.00000000000E+00 0.  1.
          1    1    3    3  501    0 -0.77028112279E+02  0.69741174509E+02 -0.10743647858E+03  0.14946490702E+03  0.00000000000E+00 0.  1.
         21    1    1    2  502  501  0.45575469017E+02  0.27201008902E+02 -0.23497759994E+02  0.58044491437E+02  0.00000000000E+00 0.  1.
<mgrwt>
<rscale>  1 0.30000000E+03</rscale>
<asrwt>0</asrwt>
<pdfrwt beam="1">  1        1 0.15059407E+00 0.30000000E+03</pdfrwt>
<pdfrwt beam="2">0</pdfrwt>
<totfact> 0.17840536E+01</totfact>
</mgrwt>
</event>
<event>
 6    1  0.1969531E-004  0.3000000E+03  0.7818608E-02  0.1093470E+00
          1   -1    0    0  502    0  0.00000000000E+00  0.00000000000E+00  0.30888334815E+02  0.30888334815E+02  0.00000000000E+00 0.  1.
         13   -1    0    0    0    0 -0.00000000000E+00 -0.00000000000E+00 -0.10000000000E+04  0.10000000000E+04  0.00000000000E+00 0.  1.
    9000005    2    1    2  501    0 -0.14683795928E+02 -0.44979998147E+00 -0.96748980525E+03  0.10161083953E+04  0.31019982515E+03 0.  0.
         13    1    3    3    0    0  0.10766605564E+03  0.83616476381E+01 -0.80656553843E+03  0.81376278145E+03  0.00000000000E+00 0.  1.
          1    1    3    3  501    0 -0.12234985156E+03 -0.88114476196E+01 -0.16092426681E+03  0.20234561383E+03  0.00000000000E+00 0.  1.
         21    1    1    2  502  501  0.14683795928E+02  0.44979998147E+00 -0.16218599362E+01  0.14779939531E+02  0.00000000000E+00 0.  1.
<mgrwt>
<rscale>  1 0.30000000E+03</rscale>
<asrwt>0</asrwt>
<pdfrwt beam="1">  1        1 0.11232145E+00 0.30000000E+03</pdfrwt>
<pdfrwt beam="2">0</pdfrwt>
<totfact> 0.28784026E+01</totfact>
</mgrwt>
</event>
<event>
 6    1  0.1969531E-004  0.3000000E+03  0.7818608E-02  0.1093470E+00
          1   -1    0    0  502    0  0.00000000000E+00  0.00000000000E+00  0.74059877051E+02  0.74059877051E+02  0.00000000000E+00 0.  1.
         13   -1    0    0    0    0 -0.00000000000E+00 -0.00000000000E+00 -0.10000000000E+04  0.10000000000E+04  0.00000000000E+00 0.  1.
    9000005    2    1    2  501    0 -0.78755883367E+01  0.50205843494E+02 -0.96685456133E+03  0.10088169243E+04  0.28340993709E+03 0.  0.
         13    1    3    3    0    0 -0.58955868654E+02  0.74828329504E+02 -0.94216704598E+03  0.94697086327E+03  0.00000000000E+00 0.  1.
          1    1    3    3  501    0  0.51080280317E+02 -0.24622486010E+02 -0.24687515344E+02  0.61846061058E+02  0.00000000000E+00 0.  1.
         21    1    1    2  502  501  0.78755883367E+01 -0.50205843494E+02  0.40914438377E+02  0.65242952725E+02  0.00000000000E+00 0.  1.
<mgrwt>
<rscale>  1 0.30000000E+03</rscale>
<asrwt>0</asrwt>
<pdfrwt beam="1">  1        1 0.26930921E+00 0.30000000E+03</pdfrwt>
<pdfrwt beam="2">0</pdfrwt>
<totfact> 0.48441376E+00</totfact>
</mgrwt>
</event>
<event>
 6    1  0.1969531E-004  0.3000000E+03  0.7818608E-02  0.1093470E+00
          1   -1    0    0  502    0  0.00000000000E+00  0.00000000000E+00  0.26324208347E+02  0.26324208347E+02  0.00000000000E+00 0.  1.
         13   -1    0    0    0    0 -0.00000000000E+00 -0.00000000000E+00 -0.10000000000E+04  0.10000000000E+04  0.00000000000E+00 0.  1.
    9000005    2    1    2  501    0  0.38036455539E+02 -0.35731970307E+02 -0.93832369859E+03  0.96328996261E+03  0.21154820509E+03 0.  0.
         13    1    3    3    0    0 -0.47104801828E+02 -0.90660059683E+02 -0.29866501004E+03  0.31565629567E+03  0.00000000000E+00 0.  1.
          3    1    3    3  501    0  0.85141257367E+02  0.54928089376E+02 -0.63965868855E+03  0.64763366693E+03  0.00000000000E+00 0.  1.
         21    1    1    2  502  501 -0.38036455539E+02  0.35731970307E+02 -0.35352093067E+02  0.63034245742E+02  0.00000000000E+00 0.  1.
<mgrwt>
<rscale>  1 0.30000000E+03</rscale>
<asrwt>0</asrwt>
<pdfrwt beam="1">  1        1 0.95724596E-01 0.30000000E+03</pdfrwt>
<pdfrwt beam="2">0</pdfrwt>
<totfact> 0.36469501E+01</totfact>
</mgrwt>
</event>
<event>
 6    1  0.1969531E-004  0.3000000E+03  0.7818608E-02  0.1093470E+00
          1   -1    0    0  502    0  0.00000000000E+00  0.00000000000E+00  0.44175722103E+02  0.44175722103E+02  0.00000000000E+00 0.  1.
         13   -1    0    0    0    0 -0.00000000000E+00 -0.00000000000E+00 -0.10000000000E+04  0.10000000000E+04  0.00000000000E+00 0.  1.
    9000005    2    1    2  501    0  0.28317709441E+01 -0.99828838001E+01 -0.97184197871E+03  0.10250905542E+04  0.32592351215E+03 0.  0.
         13    1    3    3    0    0  0.39907065718E+02  0.81175924191E+02 -0.89675682380E+03  0.90130733138E+03  0.00000000000E+00 0.  1.
          3    1    3    3  501    0 -0.37075294774E+02 -0.91158807991E+02 -0.75085154907E+02  0.12378322279E+03  0.00000000000E+00 0.  1.
         21    1    1    2  502  501 -0.28317709441E+01  0.99828838001E+01  0.16017700814E+02  0.19085167933E+02  0.00000000000E+00 0.  1.
<mgrwt>
<rscale>  1 0.30000000E+03</rscale>
<asrwt>0</asrwt>
<pdfrwt beam="1">  1        1 0.16063933E+00 0.30000000E+03</pdfrwt>
<pdfrwt beam="2">0</pdfrwt>
<totfact> 0.15886510E+01</totfact>
</mgrwt>
</event>
<event>
 6    1  0.1969531E-004  0.3000000E+03  0.7818608E-02  0.1093470E+00
          1   -1    0    0  502    0  0.00000000000E+00  0.00000000000E+00  0.29988531089E+02  0.29988531089E+02  0.00000000000E+00 0.  1.
         13   -1    0    0    0    0 -0.00000000000E+00 -0.00000000000E+00 -0.10000000000E+04  0.10000000000E+04  0.00000000000E+00 0.  1.
    9000005    2    1    2  501    0  0.51043830728E+01  0.11390490845E+02 -0.96372203838E+03  0.10160115878E+04  0.32150207030E+03 0.  0.
         13    1    3    3    0    0 -0.73421615567E+02  0.26484116932E+02 -0.92296667923E+03  0.92626110414E+03  0.00000000000E+00 0.  1.
          1    1    3    3  501    0  0.78525998640E+02 -0.15093626086E+02 -0.40755359150E+02  0.89750483621E+02  0.00000000000E+00 0.  1.
         21    1    1    2  502  501 -0.51043830728E+01 -0.11390490845E+02 -0.62894305314E+01  0.13976943323E+02  0.00000000000E+00 0. -1.
<mgrwt>
<rscale>  1 0.30000000E+03</rscale>
<asrwt>0</asrwt>
<pdfrwt beam="1">  1        1 0.10904943E+00 0.30000000E+03</pdfrwt>
<pdfrwt beam="2">0</pdfrwt>
<totfact> 0.30100851E+01</totfact>
</mgrwt>
</event>
<event>
 6    1  0.1969531E-004  0.3000000E+03  0.7818608E-02  0.1093470E+00
          1   -1    0    0  502    0  0.00000000000E+00  0.00000000000E+00  0.15450717602E+03  0.15450717602E+03  0.00000000000E+00 0.  1.
         13   -1    0    0    0    0 -0.00000000000E+00 -0.00000000000E+00 -0.10000000000E+04  0.10000000000E+04  0.00000000000E+00 0.  1.
    9000005    2    1    2  501    0  0.19598141313E+02 -0.83443404641E+01 -0.96859841456E+03  0.10295723867E+04  0.34840019450E+03 0.  0.
         13    1    3    3    0    0 -0.10449062431E+02 -0.11362434341E+03 -0.88367945933E+03  0.89101574687E+03  0.00000000000E+00 0.  1.
          3    1    3    3  501    0  0.30047203744E+02  0.10528000295E+03 -0.84918955226E+02  0.13855663979E+03  0.00000000000E+00 0.  1.
         21    1    1    2  502  501 -0.19598141313E+02  0.83443404641E+01  0.12310559057E+03  0.12493478936E+03  0.00000000000E+00 0.  1.
<mgrwt>
<rscale>  1 0.30000000E+03</rscale>
<asrwt>0</asrwt>
<pdfrwt beam="1">  1        1 0.56184546E+00 0.30000000E+03</pdfrwt>
<pdfrwt beam="2">0</pdfrwt>
<totfact> 0.84314177E-02</totfact>
</mgrwt>
</event>
<event>
 6    1  0.1969531E-004  0.3000000E+03  0.7818608E-02  0.1093470E+00
          1   -1    0    0  502    0  0.00000000000E+00  0.00000000000E+00  0.32077113462E+02  0.32077113462E+02  0.00000000000E+00 0.  1.
         13   -1    0    0    0    0 -0.00000000000E+00 -0.00000000000E+00 -0.10000000000E+04  0.10000000000E+04  0.00000000000E+00 0.  1.
    9000005    2    1    2  501    0  0.81997980407E+01 -0.22034837247E+02 -0.92577275927E+03  0.98381321423E+03  0.33208503120E+03 0.  0.
         13    1    3    3    0    0  0.15633765557E+03 -0.76193418522E+02 -0.52822403534E+03  0.55611827077E+03  0.00000000000E+00 0.  1.
          3    1    3    3  501    0 -0.14813785753E+03  0.54158581275E+02 -0.39754872393E+03  0.42769494346E+03  0.00000000000E+00 0.  1.
         21    1    1    2  502  501 -0.81997980407E+01  0.22034837247E+02 -0.42150127267E+02  0.48263899232E+02  0.00000000000E+00 0. -1.
<mgrwt>
<rscale>  1 0.30000000E+03</rscale>
<asrwt>0</asrwt>
<pdfrwt beam="1">  1        1 0.11664429E+00 0.30000000E+03</pdfrwt>
<pdfrwt beam="2">0</pdfrwt>
<totfact> 0.27166205E+01</totfact>
</mgrwt>
</event>
<event>
 6    1  0.1969531E-004  0.3000000E+03  0.7818608E-02  0.1093470E+00
          1   -1    0    0  502    0  0.00000000000E+00  0.00000000000E+00  0.38228214126E+02  0.38228214126E+02  0.00000000000E+00 0.  1.
         13   -1    0    0    0    0 -0.00000000000E+00 -0.00000000000E+00 -0.10000000000E+04  0.10000000000E+04  0.00000000000E+00 0.  1.
    9000005    2    1    2  501    0  0.50871349320E+02  0.82655684228E+02 -0.68917434844E+03  0.74886819751E+03  0.27644608586E+03 0.  0.
         13    1    3    3    0    0  0.40155587025E+02  0.13401371058E+03 -0.14254830236E+03  0.19973022880E+03  0.00000000000E+00 0.  1.
          1    1    3    3  501    0  0.10715762295E+02 -0.51358026347E+02 -0.54662604608E+03  0.54913796871E+03  0.00000000000E+00 0.  1.
         21    1    1    2  502  501 -0.50871349320E+02 -0.82655684228E+02 -0.27259743744E+03  0.28936001661E+03  0.00000000000E+00 0. -1.
<mgrwt>
<rscale>  1 0.30000000E+03</rscale>
<asrwt>0</asrwt>
<pdfrwt beam="1">  1        1 0.13901198E+00 0.30000000E+03</pdfrwt>
<pdfrwt beam="2">0</pdfrwt>
<totfact> 0.20475436E+01</totfact>
</mgrwt>
</event>
<event>
 6    1  0.1969531E-004  0.3000000E+03  0.7818608E-02  0.1093470E+00
          1   -1    0    0  502    0  0.00000000000E+00  0.00000000000E+00  0.63932568849E+02  0.63932568849E+02  0.00000000000E+00 0.  1.
         13   -1    0    0    0    0 -0.00000000000E+00 -0.00000000000E+00 -0.10000000000E+04  0.10000000000E+04  0.00000000000E+00 0.  1.
    9000005    2    1    2  501    0 -0.79833602755E+02  0.21125642827E+02 -0.91628511734E+03  0.97901474473E+03  0.33477120130E+03 0.  0.
         13    1    3    3    0    0 -0.17891785869E+03 -0.74425381906E+02 -0.39661160067E+03  0.44141986749E+03  0.00000000000E+00 0.  1.
          3    1    3    3  501    0  0.99084255933E+02  0.95551024733E+02 -0.51967351667E+03  0.53759487724E+03  0.00000000000E+00 0.  1.
         21    1    1    2  502  501  0.79833602755E+02 -0.21125642827E+02 -0.19782313806E+02  0.84917824119E+02  0.00000000000E+00 0.  1.
<mgrwt>
<rscale>  1 0.30000000E+03</rscale>
<asrwt>0</asrwt>
<pdfrwt beam="1">  1        1 0.23248256E+00 0.30000000E+03</pdfrwt>
<pdfrwt beam="2">0</pdfrwt>
<totfact> 0.72050432E+00</totfact>
</mgrwt>
</event>
<event>
 6    1  0.1969531E-004  0.3000000E+03  0.7818608E-02  0.1093470E+00
          1   -1    0    0  502    0  0.00000000000E+00  0.00000000000E+00  0.40875477118E+02  0.40875477118E+02  0.00000000000E+00 0.  1.
         13   -1    0    0    0    0 -0.00000000000E+00 -0.00000000000E+00 -0.10000000000E+04  0.10000000000E+04  0.00000000000E+00 0.  1.
    9000005    2    1    2  501    0  0.13140161237E+02 -0.40610033390E+01 -0.97574482441E+03  0.10193025773E+04  0.29446668070E+03 0.  0.
         13    1    3    3    0    0 -0.72547437171E+02  0.62310694883E+02 -0.84079291791E+03  0.84621420701E+03  0.00000000000E+00 0.  1.
          1    1    3    3  501    0  0.85687598408E+02 -0.66371698222E+02 -0.13495190651E+03  0.17308837025E+03  0.00000000000E+00 0.  1.
         21    1    1    2  502  501 -0.13140161237E+02  0.40610033390E+01  0.16620301532E+02  0.21572899862E+02  0.00000000000E+00 0. -1.
<mgrwt>
<rscale>  1 0.30000000E+03</rscale>
<asrwt>0</asrwt>
<pdfrwt beam="1">  1        1 0.14863841E+00 0.30000000E+03</pdfrwt>
<pdfrwt beam="2">0</pdfrwt>
<totfact> 0.18254203E+01</totfact>
</mgrwt>
</event>
<event>
 6    1  0.1969531E-004  0.3000000E+03  0.7818608E-02  0.1093470E+00
          1   -1    0    0  502    0  0.00000000000E+00  0.00000000000E+00  0.43692113657E+02  0.43692113657E+02  0.00000000000E+00 0.  1.
         13   -1    0    0    0    0 -0.00000000000E+00 -0.00000000000E+00 -0.10000000000E+04  0.10000000000E+04  0.00000000000E+00 0.  1.
    9000005    2    1    2  501    0  0.17321268591E+02  0.53936930140E+02 -0.92178363037E+03  0.97735100251E+03  0.31987607303E+03 0.  0.
         13    1    3    3    0    0  0.12343742759E+03  0.11446277330E+02 -0.13893365303E+03  0.18619982744E+03  0.00000000000E+00 0.  1.
          1    1    3    3  501    0 -0.10611615900E+03  0.42490652810E+02 -0.78284997735E+03  0.79115117507E+03  0.00000000000E+00 0.  1.
         21    1    1    2  502  501 -0.17321268591E+02 -0.53936930140E+02 -0.34524255970E+02  0.66341111151E+02  0.00000000000E+00 0.  1.
<mgrwt>
<rscale>  1 0.30000000E+03</rscale>
<asrwt>0</asrwt>
<pdfrwt beam="1">  1        1 0.15888075E+00 0.30000000E+03</pdfrwt>
<pdfrwt beam="2">0</pdfrwt>
<totfact> 0.16209470E+01</totfact>
</mgrwt>
</event>
<event>
 6    1  0.1969531E-004  0.3000000E+03  0.7818608E-02  0.1093470E+00
          1   -1    0    0  502    0  0.00000000000E+00  0.00000000000E+00  0.32518676948E+02  0.32518676948E+02  0.00000000000E+00 0.  1.
         13   -1    0    0    0    0 -0.00000000000E+00 -0.00000000000E+00 -0.10000000000E+04  0.10000000000E+04  0.00000000000E+00 0.  1.
    9000005    2    1    2  501    0 -0.18625623056E+02 -0.44931550855E+01 -0.95703299942E+03  0.10106950718E+04  0.32438443831E+03 0.  0.
         13    1    3    3    0    0  0.63908112401E+02 -0.11821452675E+03 -0.74029634940E+03  0.75239458139E+03  0.00000000000E+00 0.  1.
          3    1    3    3  501    0 -0.82533735457E+02  0.11372137167E+03 -0.21673665002E+03  0.25830049037E+03  0.00000000000E+00 0.  1.
         21    1    1    2  502  501  0.18625623056E+02  0.44931550855E+01 -0.10448323632E+02  0.21823605192E+02  0.00000000000E+00 0. -1.
<mgrwt>
<rscale>  1 0.30000000E+03</rscale>
<asrwt>0</asrwt>
<pdfrwt beam="1">  1        1 0.11824998E+00 0.30000000E+03</pdfrwt>
<pdfrwt beam="2">0</pdfrwt>
<totfact> 0.26597521E+01</totfact>
</mgrwt>
</event>
<event>
 6    1  0.1969531E-004  0.3000000E+03  0.7818608E-02  0.1093470E+00
          1   -1    0    0  502    0  0.00000000000E+00  0.00000000000E+00  0.41616612990E+02  0.41616612990E+02  0.00000000000E+00 0.  1.
         13   -1    0    0    0    0 -0.00000000000E+00 -0.00000000000E+00 -0.10000000000E+04  0.10000000000E+04  0.00000000000E+00 0.  1.
    9000005    2    1    2  501    0  0.53988856011E+02 -0.43723984826E+02 -0.83315594178E+03  0.89840873450E+03  0.32888120573E+03 0.  0.
         13    1    3    3    0    0  0.99500683078E+02 -0.15025997884E+02 -0.83833767568E+03  0.84435550866E+03  0.00000000000E+00 0.  1.
          1    1    3    3  501    0 -0.45511827066E+02 -0.28697986942E+02  0.51817338986E+01  0.54053225839E+02  0.00000000000E+00 0.  1.
         21    1    1    2  502  501 -0.53988856011E+02  0.43723984826E+02 -0.12522744523E+03  0.14320787849E+03  0.00000000000E+00 0. -1.
<mgrwt>
<rscale>  1 0.30000000E+03</rscale>
<asrwt>0</asrwt>
<pdfrwt beam="1">  1        1 0.15133346E+00 0.30000000E+03</pdfrwt>
<pdfrwt beam="2">0</pdfrwt>
<totfact> 0.17687160E+01</totfact>
</mgrwt>
</event>
<event>
 6    1  0.1969531E-004  0.3000000E+03  0.7818608E-02  0.1093470E+00
          1   -1    0    0  502    0  0.00000000000E+00  0.00000000000E+00  0.15383851492E+02  0.15383851492E+02  0.00000000000E+00 0.  1.
         13   -1    0    0    0    0 -0.00000000000E+00 -0.00000000000E+00 -0.10000000000E+04  0.10000000000E+04  0.00000000000E+00 0.  1.
    9000005    2    1    2  501    0  0.27659410589E+01  0.74817482486E+01 -0.95779602746E+03  0.98740268140E+03  0.23984828127E+03 0.  0.
         13    1    3    3    0    0  0.24312644746E+02 -0.87133610911E+02 -0.16062144400E+03  0.18434375259E+03  0.00000000000E+00 0.  1.
          3    1    3    3  501    0 -0.21546703687E+02  0.94615359160E+02 -0.79717458346E+03  0.80305892881E+03  0.00000000000E+00 0.  1.
         21    1    1    2  502  501 -0.27659410589E+01 -0.74817482486E+01 -0.26820121046E+02  0.27981170092E+02  0.00000000000E+00 0.  1.
<mgrwt>
<rscale>  1 0.30000000E+03</rscale>
<asrwt>0</asrwt>
<pdfrwt beam="1">  1        1 0.55941396E-01 0.30000000E+03</pdfrwt>
<pdfrwt beam="2">0</pdfrwt>
<totfact> 0.76095093E+01</totfact>
</mgrwt>
</event>
<event>
 6    1  0.1969531E-004  0.3000000E+03  0.7818608E-02  0.1093470E+00
          1   -1    0    0  502    0  0.00000000000E+00  0.00000000000E+00  0.51121069394E+02  0.51121069394E+02  0.00000000000E+00 0.  1.
         13   -1    0    0    0    0 -0.00000000000E+00 -0.00000000000E+00 -0.10000000000E+04  0.10000000000E+04  0.00000000000E+00 0.  1.
    9000005    2    1    2  501    0  0.85443421292E+02 -0.29920500514E+02 -0.87703849726E+03  0.93554917637E+03  0.31282570410E+03 0.  0.
         13    1    3    3    0    0 -0.39850402616E+02 -0.66092905727E+02 -0.74840171445E+03  0.75237055562E+03  0.00000000000E+00 0.  1.
          3    1    3    3  501    0  0.12529382391E+03  0.36172405213E+02 -0.12863678281E+03  0.18317862075E+03  0.00000000000E+00 0.  1.
         21    1    1    2  502  501 -0.85443421292E+02  0.29920500514E+02 -0.71840433350E+02  0.11557189302E+03  0.00000000000E+00 0.  1.
<mgrwt>
<rscale>  1 0.30000000E+03</rscale>
<asrwt>0</asrwt>
<pdfrwt beam="1">  1        1 0.18589519E+00 0.30000000E+03</pdfrwt>
<pdfrwt beam="2">0</pdfrwt>
<totfact> 0.11965187E+01</totfact>
</mgrwt>
</event>
<event>
 6    1  0.1969531E-004  0.3000000E+03  0.7818608E-02  0.1093470E+00
          1   -1    0    0  502    0  0.00000000000E+00  0.00000000000E+00  0.34862789985E+02  0.34862789985E+02  0.00000000000E+00 0.  1.
         13   -1    0    0    0    0 -0.00000000000E+00 -0.00000000000E+00 -0.10000000000E+04  0.10000000000E+04  0.00000000000E+00 0.  1.
    9000005    2    1    2  501    0  0.10323802812E+02 -0.11488272890E+02 -0.96709542033E+03  0.10192937211E+04  0.32163267328E+03 0.  0.
         13    1    3    3    0    0  0.92198731406E+02 -0.12137502648E+03 -0.72734024909E+03  0.74313951656E+03  0.00000000000E+00 0.  1.
          1    1    3    3  501    0 -0.81874928594E+02  0.10988675359E+03 -0.23975517124E+03  0.27615420453E+03  0.00000000000E+00 0.  1.
         21    1    1    2  502  501 -0.10323802812E+02  0.11488272890E+02  0.19582103146E+01  0.15569068891E+02  0.00000000000E+00 0.  1.
<mgrwt>
<rscale>  1 0.30000000E+03</rscale>
<asrwt>0</asrwt>
<pdfrwt beam="1">  1        1 0.12677405E+00 0.30000000E+03</pdfrwt>
<pdfrwt beam="2">0</pdfrwt>
<totfact> 0.23829864E+01</totfact>
</mgrwt>
</event>
<event>
 6    1  0.1969531E-004  0.3000000E+03  0.7818608E-02  0.1093470E+00
          3   -1    0    0  502    0  0.00000000000E+00  0.00000000000E+00  0.32216979583E+02  0.32216979583E+02  0.00000000000E+00 0.  1.
         13   -1    0    0    0    0 -0.00000000000E+00 -0.00000000000E+00 -0.10000000000E+04  0.10000000000E+04  0.00000000000E+00 0.  1.
    9000005    2    1    2  501    0  0.21272234996E+02 -0.92529493776E+01 -0.95240242520E+03  0.10043837663E+04  0.31808528003E+03 0.  0.
         13    1    3    3    0    0  0.15297771125E+03 -0.57616984646E+02 -0.66171490177E+03  0.68160729771E+03  0.00000000000E+00 0.  1.
          3    1    3    3  501    0 -0.13170547626E+03  0.48364035268E+02 -0.29068752343E+03  0.32277646857E+03  0.00000000000E+00 0.  1.
         21    1    1    2  502  501 -0.21272234996E+02  0.92529493776E+01 -0.15380595217E+02  0.27833213309E+02  0.00000000000E+00 0. -1.
<mgrwt>
<rscale>  1 0.30000000E+03</rscale>
<asrwt>0</asrwt>
<pdfrwt beam="1">  1        3 0.11715290E+00 0.30000000E+03</pdfrwt>
<pdfrwt beam="2">0</pdfrwt>
<totfact> 0.24952469E+00</totfact>
</mgrwt>
</event>
<event>
 6    1  0.1969531E-004  0.3000000E+03  0.7818608E-02  0.1093470E+00
          1   -1    0    0  502    0  0.00000000000E+00  0.00000000000E+00  0.32848909986E+02  0.32848909986E+02  0.00000000000E+00 0.  1.
         13   -1    0    0    0    0 -0.00000000000E+00 -0.00000000000E+00 -0.10000000000E+04  0.10000000000E+04  0.00000000000E+00 0.  1.
    9000005    2    1    2  501    0  0.27862809725E+01 -0.44190754397E+02 -0.87186146651E+03  0.92777418190E+03  0.31410496601E+03 0.  0.
         13    1    3    3    0    0  0.14002032844E+03  0.33825821860E+02 -0.27565901511E+03  0.31102696220E+03  0.00000000000E+00 0.  1.
          1    1    3    3  501    0 -0.13723404746E+03 -0.78016576257E+02 -0.59620245140E+03  0.61674721970E+03  0.00000000000E+00 0.  1.
         21    1    1    2  502  501 -0.27862809725E+01  0.44190754397E+02 -0.95289623502E+02  0.10507472809E+03  0.00000000000E+00 0.  1.
<mgrwt>
<rscale>  1 0.30000000E+03</rscale>
<asrwt>0</asrwt>
<pdfrwt beam="1">  1        1 0.11945083E+00 0.30000000E+03</pdfrwt>
<pdfrwt beam="2">0</pdfrwt>
<totfact> 0.26182781E+01</totfact>
</mgrwt>
</event>
<event>
 6    1  0.1969531E-004  0.3000000E+03  0.7818608E-02  0.1093470E+00
          1   -1    0    0  502    0  0.00000000000E+00  0.00000000000E+00  0.30599092946E+02  0.30599092946E+02  0.00000000000E+00 0.  1.
         13   -1    0    0    0    0 -0.00000000000E+00 -0.00000000000E+00 -0.10000000000E+04  0.10000000000E+04  0.00000000000E+00 0.  1.
    9000005    2    1    2  501    0  0.12670657046E+02  0.13163429806E+02 -0.95520231131E+03  0.10074599150E+04  0.31973458273E+03 0.  0.
         13    1    3    3    0    0 -0.14617835121E+03 -0.38719292304E+02 -0.39890494919E+03  0.42660573419E+03  0.00000000000E+00 0.  1.
          3    1    3    3  501    0  0.15884900825E+03  0.51882722110E+02 -0.55629736212E+03  0.58085418082E+03  0.00000000000E+00 0.  1.
         21    1    1    2  502  501 -0.12670657046E+02 -0.13163429806E+02 -0.14198595746E+02  0.23139177932E+02  0.00000000000E+00 0. -1.
<mgrwt>
<rscale>  1 0.30000000E+03</rscale>
<asrwt>0</asrwt>
<pdfrwt beam="1">  1        1 0.11126966E+00 0.30000000E+03</pdfrwt>
<pdfrwt beam="2">0</pdfrwt>
<totfact> 0.29198272E+01</totfact>
</mgrwt>
</event>
<event>
 6    1  0.1969531E-004  0.3000000E+03  0.7818608E-02  0.1093470E+00
          1   -1    0    0  502    0  0.00000000000E+00  0.00000000000E+00  0.23321869773E+02  0.23321869773E+02  0.00000000000E+00 0.  1.
         13   -1    0    0    0    0 -0.00000000000E+00 -0.00000000000E+00 -0.10000000000E+04  0.10000000000E+04  0.00000000000E+00 0.  1.
    9000005    2    1    2  501    0 -0.10820086296E+01  0.13157960328E+02 -0.97350145806E+03  0.10097426979E+04  0.26777028301E+03 0.  0.
         13    1    3    3    0    0 -0.32991340963E+01  0.11232248367E+03 -0.81537133208E+03  0.82307814563E+03  0.00000000000E+00 0.  1.
          1    1    3    3  501    0  0.22171254667E+01 -0.99164523344E+02 -0.15813012597E+03  0.18666455227E+03  0.00000000000E+00 0.  1.
         21    1    1    2  502  501  0.10820086296E+01 -0.13157960328E+02 -0.31766721697E+01  0.13579171872E+02  0.00000000000E+00 0.  1.
<mgrwt>
<rscale>  1 0.30000000E+03</rscale>
<asrwt>0</asrwt>
<pdfrwt beam="1">  1        1 0.84806978E-01 0.30000000E+03</pdfrwt>
<pdfrwt beam="2">0</pdfrwt>
<totfact> 0.43306659E+01</totfact>
</mgrwt>
</event>
<event>
 6    1  0.1969531E-004  0.3000000E+03  0.7818608E-02  0.1093470E+00
          1   -1    0    0  502    0  0.00000000000E+00  0.00000000000E+00  0.25027978549E+02  0.25027978549E+02  0.00000000000E+00 0.  1.
         13   -1    0    0    0    0 -0.00000000000E+00 -0.00000000000E+00 -0.10000000000E+04  0.10000000000E+04  0.00000000000E+00 0.  1.
    9000005    2    1    2  501    0  0.12054438183E+02  0.25304459335E+01 -0.94154113599E+03  0.98940022618E+03  0.30374559117E+03 0.  0.
         13    1    3    3    0    0 -0.59103160988E+02 -0.44238097538E+02 -0.40229072916E+02  0.84074795392E+02  0.00000000000E+00 0.  1.
          1    1    3    3  501    0  0.71157599171E+02  0.46768543471E+02 -0.90131206308E+03  0.90532543078E+03  0.00000000000E+00 0.  1.
         21    1    1    2  502  501 -0.12054438183E+02 -0.25304459335E+01 -0.33430885460E+02  0.35627752373E+02  0.00000000000E+00 0.  1.
<mgrwt>
<rscale>  1 0.30000000E+03</rscale>
<asrwt>0</asrwt>
<pdfrwt beam="1">  1        1 0.91011023E-01 0.30000000E+03</pdfrwt>
<pdfrwt beam="2">0</pdfrwt>
<totfact> 0.39205030E+01</totfact>
</mgrwt>
</event>
<event>
 6    1  0.1969531E-004  0.3000000E+03  0.7818608E-02  0.1093470E+00
          1   -1    0    0  502    0  0.00000000000E+00  0.00000000000E+00  0.43550097348E+02  0.43550097348E+02  0.00000000000E+00 0.  1.
         13   -1    0    0    0    0 -0.00000000000E+00 -0.00000000000E+00 -0.10000000000E+04  0.10000000000E+04  0.00000000000E+00 0.  1.
    9000005    2    1    2  501    0  0.19738801870E+02 -0.17709862691E+02 -0.93239211529E+03  0.10077445577E+04  0.38143253324E+03 0.  0.
         13    1    3    3    0    0  0.18404196043E+03  0.41012441604E+02 -0.32447256190E+03  0.37528110396E+03  0.00000000000E+00 0.  1.
          3    1    3    3  501    0 -0.16430315856E+03 -0.58722304294E+02 -0.60791955339E+03  0.63246345375E+03  0.00000000000E+00 0.  1.
         21    1    1    2  502  501 -0.19738801870E+02  0.17709862691E+02 -0.24057787363E+02  0.35805539636E+02  0.00000000000E+00 0.  1.
<mgrwt>
<rscale>  1 0.30000000E+03</rscale>
<asrwt>0</asrwt>
<pdfrwt beam="1">  1        1 0.15836432E+00 0.30000000E+03</pdfrwt>
<pdfrwt beam="2">0</pdfrwt>
<totfact> 0.16305765E+01</totfact>
</mgrwt>
</event>
<event>
 6    1  0.1969531E-004  0.3000000E+03  0.7818608E-02  0.1093470E+00
          1   -1    0    0  502    0  0.00000000000E+00  0.00000000000E+00  0.31883942569E+02  0.31883942569E+02  0.00000000000E+00 0.  1.
         13   -1    0    0    0    0 -0.00000000000E+00 -0.00000000000E+00 -0.10000000000E+04  0.10000000000E+04  0.00000000000E+00 0.  1.
    9000005    2    1    2  501    0  0.25396558490E+02 -0.10282117491E+02 -0.91694077145E+03  0.97383554019E+03  0.32684028802E+03 0.  0.
         13    1    3    3    0    0 -0.93971448469E+01 -0.56236730807E+02 -0.91436139630E+03  0.91613734738E+03  0.00000000000E+00 0.  1.
          3    1    3    3  501    0  0.34793703337E+02  0.45954613315E+02 -0.25793751436E+01  0.57698192805E+02  0.00000000000E+00 0.  1.
         21    1    1    2  502  501 -0.25396558490E+02  0.10282117491E+02 -0.51175285985E+02  0.58048402380E+02  0.00000000000E+00 0.  1.
<mgrwt>
<rscale>  1 0.30000000E+03</rscale>
<asrwt>0</asrwt>
<pdfrwt beam="1">  1        1 0.11594185E+00 0.30000000E+03</pdfrwt>
<pdfrwt beam="2">0</pdfrwt>
<totfact> 0.27420262E+01</totfact>
</mgrwt>
</event>
<event>
 6    1  0.1969531E-004  0.3000000E+03  0.7818608E-02  0.1093470E+00
          1   -1    0    0  502    0  0.00000000000E+00  0.00000000000E+00  0.42538364265E+02  0.42538364265E+02  0.00000000000E+00 0.  1.
         13   -1    0    0    0    0 -0.00000000000E+00 -0.00000000000E+00 -0.10000000000E+04  0.10000000000E+04  0.00000000000E+00 0.  1.
    9000005    2    1    2  501    0  0.23048955892E+02  0.11669746440E+02 -0.96631399333E+03  0.10152289962E+04  0.31025754405E+03 0.  0.
         13    1    3    3    0    0  0.71501754020E+02  0.71386919466E+02 -0.91984639306E+03  0.92537883049E+03  0.00000000000E+00 0.  1.
          1    1    3    3  501    0 -0.48452798128E+02 -0.59717173026E+02 -0.46467600278E+02  0.89850165699E+02  0.00000000000E+00 0.  1.
         21    1    1    2  502  501 -0.23048955892E+02 -0.11669746440E+02  0.88523575994E+01  0.27309368076E+02  0.00000000000E+00 0.  1.
<mgrwt>
<rscale>  1 0.30000000E+03</rscale>
<asrwt>0</asrwt>
<pdfrwt beam="1">  1        1 0.15468529E+00 0.30000000E+03</pdfrwt>
<pdfrwt beam="2">0</pdfrwt>
<totfact> 0.17011743E+01</totfact>
</mgrwt>
</event>
<event>
 6    1  0.1969531E-004  0.3000000E+03  0.7818608E-02  0.1093470E+00
          1   -1    0    0  502    0  0.00000000000E+00  0.00000000000E+00  0.86050169834E+02  0.86050169834E+02  0.00000000000E+00 0.  1.
         13   -1    0    0    0    0 -0.00000000000E+00 -0.00000000000E+00 -0.10000000000E+04  0.10000000000E+04  0.00000000000E+00 0.  1.
    9000005    2    1    2  501    0  0.10619756879E+03 -0.17655728102E+03 -0.52522364714E+03  0.64609739684E+03  0.31485166283E+03 0.  0.
         13    1    3    3    0    0  0.15168902880E+03 -0.22676093176E+03 -0.50731839087E+03  0.57602259621E+03  0.00000000000E+00 0.  1.
          3    1    3    3  501    0 -0.45491460007E+02  0.50203650738E+02 -0.17905256269E+02  0.70074800628E+02  0.00000000000E+00 0.  1.
         21    1    1    2  502  501 -0.10619756879E+03  0.17655728102E+03 -0.38872618303E+03  0.43995277300E+03  0.00000000000E+00 0.  1.
<mgrwt>
<rscale>  1 0.30000000E+03</rscale>
<asrwt>0</asrwt>
<pdfrwt beam="1">  1        1 0.31291037E+00 0.30000000E+03</pdfrwt>
<pdfrwt beam="2">0</pdfrwt>
<totfact> 0.30140050E+00</totfact>
</mgrwt>
</event>
<event>
 6    1  0.1969531E-004  0.3000000E+03  0.7818608E-02  0.1093470E+00
          1   -1    0    0  502    0  0.00000000000E+00  0.00000000000E+00  0.35913969917E+02  0.35913969917E+02  0.00000000000E+00 0.  1.
         13   -1    0    0    0    0 -0.00000000000E+00 -0.00000000000E+00 -0.10000000000E+04  0.10000000000E+04  0.00000000000E+00 0.  1.
    9000005    2    1    2  501    0 -0.41986118397E+01 -0.30970363282E+02 -0.93059343078E+03  0.99010408069E+03  0.33663803326E+03 0.  0.
         13    1    3    3    0    0 -0.10303746489E+03  0.49481674606E+02 -0.10654592483E+03  0.15626000573E+03  0.00000000000E+00 0.  1.
          1    1    3    3  501    0  0.98838853054E+02 -0.80452037889E+02 -0.82404750595E+03  0.83384407496E+03  0.00000000000E+00 0.  1.
         21    1    1    2  502  501  0.41986118397E+01  0.30970363282E+02 -0.33492599300E+02  0.45809889228E+02  0.00000000000E+00 0. -1.
<mgrwt>
<rscale>  1 0.30000000E+03</rscale>
<asrwt>0</asrwt>
<pdfrwt beam="1">  1        1 0.13059653E+00 0.30000000E+03</pdfrwt>
<pdfrwt beam="2">0</pdfrwt>
<totfact> 0.22709494E+01</totfact>
</mgrwt>
</event>
<event>
 6    1  0.1969531E-004  0.3000000E+03  0.7818608E-02  0.1093470E+00
          1   -1    0    0  502    0  0.00000000000E+00  0.00000000000E+00  0.42169990784E+02  0.42169990784E+02  0.00000000000E+00 0.  1.
         13   -1    0    0    0    0 -0.00000000000E+00 -0.00000000000E+00 -0.10000000000E+04  0.10000000000E+04  0.00000000000E+00 0.  1.
    9000005    2    1    2  501    0  0.27489389795E+01  0.77977746379E+02 -0.74360468503E+03  0.81417750161E+03  0.32225609527E+03 0.  0.
         13    1    3    3    0    0  0.13797533461E+03 -0.46027834286E+02 -0.38044265399E+03  0.40729886750E+03  0.00000000000E+00 0.  1.
          3    1    3    3  501    0 -0.13522639563E+03  0.12400558067E+03 -0.36316203104E+03  0.40687863411E+03  0.00000000000E+00 0.  1.
         21    1    1    2  502  501 -0.27489389795E+01 -0.77977746379E+02 -0.21422532418E+03  0.22799248917E+03  0.00000000000E+00 0.  1.
<mgrwt>
<rscale>  1 0.30000000E+03</rscale>
<asrwt>0</asrwt>
<pdfrwt beam="1">  1        1 0.15334574E+00 0.30000000E+03</pdfrwt>
<pdfrwt beam="2">0</pdfrwt>
<totfact> 0.17277845E+01</totfact>
</mgrwt>
</event>
<event>
 6    1  0.1969531E-004  0.3000000E+03  0.7818608E-02  0.1093470E+00
          1   -1    0    0  502    0  0.00000000000E+00  0.00000000000E+00  0.27874647938E+02  0.27874647938E+02  0.00000000000E+00 0.  1.
         13   -1    0    0    0    0 -0.00000000000E+00 -0.00000000000E+00 -0.10000000000E+04  0.10000000000E+04  0.00000000000E+00 0.  1.
    9000005    2    1    2  501    0 -0.27373510966E+01  0.85579706697E+01 -0.94881275651E+03  0.10028904717E+04  0.32475054931E+03 0.  0.
         13    1    3    3    0    0  0.12548979852E+03  0.90896591455E+02 -0.31543239504E+03  0.35143630392E+03  0.00000000000E+00 0.  1.
          1    1    3    3  501    0 -0.12822714962E+03 -0.82338620785E+02 -0.63338036147E+03  0.65145416774E+03  0.00000000000E+00 0.  1.
         21    1    1    2  502  501  0.27373510966E+01 -0.85579706697E+01 -0.23312595556E+02  0.24984176284E+02  0.00000000000E+00 0.  1.
<mgrwt>
<rscale>  1 0.30000000E+03</rscale>
<asrwt>0</asrwt>
<pdfrwt beam="1">  1        1 0.10136257E+00 0.30000000E+03</pdfrwt>
<pdfrwt beam="2">0</pdfrwt>
<totfact> 0.33554936E+01</totfact>
</mgrwt>
</event>
<event>
 6    1  0.1969531E-004  0.3000000E+03  0.7818608E-02  0.1093470E+00
          1   -1    0    0  502    0  0.00000000000E+00  0.00000000000E+00  0.39849920013E+02  0.39849920013E+02  0.00000000000E+00 0.  1.
         13   -1    0    0    0    0 -0.00000000000E+00 -0.00000000000E+00 -0.10000000000E+04  0.10000000000E+04  0.00000000000E+00 0.  1.
    9000005    2    1    2  501    0 -0.10106415449E+02  0.12357987720E+02 -0.96918977878E+03  0.10215039219E+04  0.32231440492E+03 0.  0.
         13    1    3    3    0    0 -0.12409503598E+03 -0.93736996004E+02 -0.61924749607E+03  0.63847761415E+03  0.00000000000E+00 0.  1.
          1    1    3    3  501    0  0.11398862054E+03  0.10609498372E+03 -0.34994228270E+03  0.38302630772E+03  0.00000000000E+00 0.  1.
         21    1    1    2  502  501  0.10106415449E+02 -0.12357987720E+02  0.90396987893E+01  0.18345998144E+02  0.00000000000E+00 0.  1.
<mgrwt>
<rscale>  1 0.30000000E+03</rscale>
<asrwt>0</asrwt>
<pdfrwt beam="1">  1        1 0.14490911E+00 0.30000000E+03</pdfrwt>
<pdfrwt beam="2">0</pdfrwt>
<totfact> 0.19076790E+01</totfact>
</mgrwt>
</event>
<event>
 6    1  0.1969531E-004  0.3000000E+03  0.7818608E-02  0.1093470E+00
          3   -1    0    0  502    0  0.00000000000E+00  0.00000000000E+00  0.28693502915E+02  0.28693502915E+02  0.00000000000E+00 0.  1.
         13   -1    0    0    0    0 -0.00000000000E+00 -0.00000000000E+00 -0.10000000000E+04  0.10000000000E+04  0.00000000000E+00 0.  1.
    9000005    2    1    2  501    0  0.67008127731E+01 -0.75127842355E+01 -0.95695839987E+03  0.10111660755E+04  0.32647528283E+03 0.  0.
         13    1    3    3    0    0 -0.12173612148E+03  0.44611211893E+02 -0.17938112558E+03  0.22133104552E+03  0.00000000000E+00 0.  1.
          1    1    3    3  501    0  0.12843693425E+03 -0.52123996129E+02 -0.77757727429E+03  0.78983502996E+03  0.00000000000E+00 0.  1.
         21    1    1    2  502  501 -0.67008127731E+01  0.75127842355E+01 -0.14348097217E+02  0.17527427436E+02  0.00000000000E+00 0. -1.
<mgrwt>
<rscale>  1 0.30000000E+03</rscale>
<asrwt>0</asrwt>
<pdfrwt beam="1">  1        3 0.10434023E+00 0.30000000E+03</pdfrwt>
<pdfrwt beam="2">0</pdfrwt>
<totfact> 0.34957220E+00</totfact>
</mgrwt>
</event>
<event>
 6    1  0.1969531E-004  0.3000000E+03  0.7818608E-02  0.1093470E+00
          1   -1    0    0  502    0  0.00000000000E+00  0.00000000000E+00  0.27686123995E+02  0.27686123995E+02  0.00000000000E+00 0.  1.
         13   -1    0    0    0    0 -0.00000000000E+00 -0.00000000000E+00 -0.10000000000E+04  0.10000000000E+04  0.00000000000E+00 0.  1.
    9000005    2    1    2  501    0  0.13567879916E+02 -0.49656347707E+01 -0.96672040700E+03  0.10121931646E+04  0.29962962528E+03 0.  0.
         13    1    3    3    0    0  0.93142894737E+02  0.19648416815E+02 -0.90120888655E+03  0.90622244306E+03  0.00000000000E+00 0.  1.
          3    1    3    3  501    0 -0.79575014822E+02 -0.24614051586E+02 -0.65511520451E+02  0.10597072158E+03  0.00000000000E+00 0.  1.
         21    1    1    2  502  501 -0.13567879916E+02  0.49656347707E+01 -0.55934690073E+01  0.15492959356E+02  0.00000000000E+00 0. -1.
<mgrwt>
<rscale>  1 0.30000000E+03</rscale>
<asrwt>0</asrwt>
<pdfrwt beam="1">  1        1 0.10067703E+00 0.30000000E+03</pdfrwt>
<pdfrwt beam="2">0</pdfrwt>
<totfact> 0.33890594E+01</totfact>
</mgrwt>
</event>
<event>
 6    1  0.1969531E-004  0.3000000E+03  0.7818608E-02  0.1093470E+00
          1   -1    0    0  502    0  0.00000000000E+00  0.00000000000E+00  0.39355431097E+02  0.39355431097E+02  0.00000000000E+00 0.  1.
         13   -1    0    0    0    0 -0.00000000000E+00 -0.00000000000E+00 -0.10000000000E+04  0.10000000000E+04  0.00000000000E+00 0.  1.
    9000005    2    1    2  501    0  0.54154951429E+01 -0.12571561136E+02 -0.97042187645E+03  0.10225337938E+04  0.32197728107E+03 0.  0.
         13    1    3    3    0    0 -0.13268076572E+03  0.96007017922E+01 -0.20459610199E+03  0.24404082449E+03  0.00000000000E+00 0.  1.
          3    1    3    3  501    0  0.13809626087E+03 -0.22172262928E+02 -0.76582577446E+03  0.77849296936E+03  0.00000000000E+00 0.  1.
         21    1    1    2  502  501 -0.54154951429E+01  0.12571561136E+02  0.97773075459E+01  0.16821637253E+02  0.00000000000E+00 0.  1.
<mgrwt>
<rscale>  1 0.30000000E+03</rscale>
<asrwt>0</asrwt>
<pdfrwt beam="1">  1        1 0.14311096E+00 0.30000000E+03</pdfrwt>
<pdfrwt beam="2">0</pdfrwt>
<totfact> 0.19490071E+01</totfact>
</mgrwt>
</event>
<event>
 6    1  0.1969531E-004  0.3000000E+03  0.7818608E-02  0.1093470E+00
          1   -1    0    0  502    0  0.00000000000E+00  0.00000000000E+00  0.48576163698E+02  0.48576163698E+02  0.00000000000E+00 0.  1.
         13   -1    0    0    0    0 -0.00000000000E+00 -0.00000000000E+00 -0.10000000000E+04  0.10000000000E+04  0.00000000000E+00 0.  1.
    9000005    2    1    2  501    0  0.17755739077E+02  0.97604525550E+00 -0.95979314455E+03  0.10289225570E+04  0.37035459916E+03 0.  0.
         13    1    3    3    0    0  0.71866854929E+02 -0.12096113384E+03 -0.14049604717E+03  0.19883556022E+03  0.00000000000E+00 0.  1.
          1    1    3    3  501    0 -0.54111115852E+02  0.12193717910E+03 -0.81929709737E+03  0.83008699681E+03  0.00000000000E+00 0.  1.
         21    1    1    2  502  501 -0.17755739077E+02 -0.97604525550E+00  0.83693082445E+01  0.19653606666E+02  0.00000000000E+00 0.  1.
<mgrwt>
<rscale>  1 0.30000000E+03</rscale>
<asrwt>0</asrwt>
<pdfrwt beam="1">  1        1 0.17664097E+00 0.30000000E+03</pdfrwt>
<pdfrwt beam="2">0</pdfrwt>
<totfact> 0.13262238E+01</totfact>
</mgrwt>
</event>
<event>
 6    1  0.1969531E-004  0.3000000E+03  0.7818608E-02  0.1093470E+00
          1   -1    0    0  502    0  0.00000000000E+00  0.00000000000E+00  0.52689253775E+02  0.52689253775E+02  0.00000000000E+00 0.  1.
         13   -1    0    0    0    0 -0.00000000000E+00 -0.00000000000E+00 -0.10000000000E+04  0.10000000000E+04  0.00000000000E+00 0.  1.
    9000005    2    1    2  501    0  0.55858446048E+01  0.10341402423E+02 -0.97112206758E+03  0.10261350585E+04  0.33126566648E+03 0.  0.
         13    1    3    3    0    0  0.77248245669E+02  0.21981792630E+02 -0.35686616559E+02  0.87886433922E+02  0.00000000000E+00 0.  1.
          1    1    3    3  501    0 -0.71662401064E+02 -0.11640390207E+02 -0.93543545103E+03  0.93824862454E+03  0.00000000000E+00 0.  1.
         21    1    1    2  502  501 -0.55858446048E+01 -0.10341402423E+02  0.23811321358E+02  0.26554195316E+02  0.00000000000E+00 0. -1.
<mgrwt>
<rscale>  1 0.30000000E+03</rscale>
<asrwt>0</asrwt>
<pdfrwt beam="1">  1        1 0.19159769E+00 0.30000000E+03</pdfrwt>
<pdfrwt beam="2">0</pdfrwt>
<totfact> 0.11234013E+01</totfact>
</mgrwt>
</event>
<event>
 6    1  0.1969531E-004  0.3000000E+03  0.7818608E-02  0.1093470E+00
          1   -1    0    0  502    0  0.00000000000E+00  0.00000000000E+00  0.29433113960E+02  0.29433113960E+02  0.00000000000E+00 0.  1.
         13   -1    0    0    0    0 -0.00000000000E+00 -0.00000000000E+00 -0.10000000000E+04  0.10000000000E+04  0.00000000000E+00 0.  1.
    9000005    2    1    2  501    0 -0.70465792226E+01  0.69192221967E+01 -0.96538717852E+03  0.10182814645E+04  0.32377029927E+03 0.  0.
         13    1    3    3    0    0 -0.98248604005E+02 -0.84709020838E+02 -0.78898151165E+03  0.79957503221E+03  0.00000000000E+00 0.  1.
          1    1    3    3  501    0  0.91202024783E+02  0.91628243034E+02 -0.17640566686E+03  0.21870643234E+03  0.00000000000E+00 0.  1.
         21    1    1    2  502  501  0.70465792226E+01 -0.69192221967E+01 -0.51797075248E+01  0.11151649411E+02  0.00000000000E+00 0. -1.
<mgrwt>
<rscale>  1 0.30000000E+03</rscale>
<asrwt>0</asrwt>
<pdfrwt beam="1">  1        1 0.10702973E+00 0.30000000E+03</pdfrwt>
<pdfrwt beam="2">0</pdfrwt>
<totfact> 0.30956834E+01</totfact>
</mgrwt>
</event>
<event>
 6    1  0.1969531E-004  0.3000000E+03  0.7818608E-02  0.1093470E+00
          1   -1    0    0  502    0  0.00000000000E+00  0.00000000000E+00  0.32769034683E+02  0.32769034683E+02  0.00000000000E+00 0.  1.
         13   -1    0    0    0    0 -0.00000000000E+00 -0.00000000000E+00 -0.10000000000E+04  0.10000000000E+04  0.00000000000E+00 0.  1.
    9000005    2    1    2  501    0 -0.88030746105E+01  0.92321708760E+01 -0.96693553677E+03  0.10200091609E+04  0.32448671604E+03 0.  0.
         13    1    3    3    0    0  0.90078150352E+02  0.10611379578E+03 -0.21986250391E+03  0.26021862242E+03  0.00000000000E+00 0.  1.
          3    1    3    3  501    0 -0.98881224963E+02 -0.96881624908E+02 -0.74707303286E+03  0.75979053845E+03  0.00000000000E+00 0.  1.
         21    1    1    2  502  501  0.88030746105E+01 -0.92321708760E+01 -0.29542854428E+00  0.12759873812E+02  0.00000000000E+00 0. -1.
<mgrwt>
<rscale>  1 0.30000000E+03</rscale>
<asrwt>0</asrwt>
<pdfrwt beam="1">  1        1 0.11916038E+00 0.30000000E+03</pdfrwt>
<pdfrwt beam="2">0</pdfrwt>
<totfact> 0.26282290E+01</totfact>
</mgrwt>
</event>
<event>
 6    1  0.1969531E-004  0.3000000E+03  0.7818608E-02  0.1093470E+00
          1   -1    0    0  502    0  0.00000000000E+00  0.00000000000E+00  0.47316816958E+02  0.47316816958E+02  0.00000000000E+00 0.  1.
         13   -1    0    0    0    0 -0.00000000000E+00 -0.00000000000E+00 -0.10000000000E+04  0.10000000000E+04  0.00000000000E+00 0.  1.
    9000005    2    1    2  501    0  0.77661136721E+02 -0.33047586441E+02 -0.82280983182E+03  0.89242820380E+03  0.33509503799E+03 0.  0.
         13    1    3    3    0    0 -0.98959514909E+02 -0.30911077019E+02 -0.59601426168E+03  0.60496403231E+03  0.00000000000E+00 0.  1.
          1    1    3    3  501    0  0.17662065163E+03 -0.21365094219E+01 -0.22679557014E+03  0.28746417149E+03  0.00000000000E+00 0.  1.
         21    1    1    2  502  501 -0.77661136721E+02  0.33047586441E+02 -0.12987335123E+03  0.15488861316E+03  0.00000000000E+00 0. -1.
<mgrwt>
<rscale>  1 0.30000000E+03</rscale>
<asrwt>0</asrwt>
<pdfrwt beam="1">  1        1 0.17206152E+00 0.30000000E+03</pdfrwt>
<pdfrwt beam="2">0</pdfrwt>
<totfact> 0.13960005E+01</totfact>
</mgrwt>
</event>
<event>
 6    1  0.1969531E-004  0.3000000E+03  0.7818608E-02  0.1093470E+00
          1   -1    0    0  502    0  0.00000000000E+00  0.00000000000E+00  0.28279813531E+02  0.28279813531E+02  0.00000000000E+00 0.  1.
         13   -1    0    0    0    0 -0.00000000000E+00 -0.00000000000E+00 -0.10000000000E+04  0.10000000000E+04  0.00000000000E+00 0.  1.
    9000005    2    1    2  501    0 -0.94200491352E+01  0.69630720911E+01 -0.94810534723E+03  0.10019191927E+04  0.32372997628E+03 0.  0.
         13    1    3    3    0    0 -0.17209099603E+02  0.15696129442E+03 -0.33008296512E+03  0.36590677080E+03  0.00000000000E+00 0.  1.
          1    1    3    3  501    0  0.77890504674E+01 -0.14999822233E+03 -0.61802238211E+03  0.63601242190E+03  0.00000000000E+00 0.  1.
         21    1    1    2  502  501  0.94200491352E+01 -0.69630720911E+01 -0.23614839239E+02  0.26360620837E+02  0.00000000000E+00 0.  1.
<mgrwt>
<rscale>  1 0.30000000E+03</rscale>
<asrwt>0</asrwt>
<pdfrwt beam="1">  1        1 0.10283590E+00 0.30000000E+03</pdfrwt>
<pdfrwt beam="2">0</pdfrwt>
<totfact> 0.32849850E+01</totfact>
</mgrwt>
</event>
<event>
 6    1  0.1969531E-004  0.3000000E+03  0.7818608E-02  0.1093470E+00
          1   -1    0    0  502    0  0.00000000000E+00  0.00000000000E+00  0.39378674303E+02  0.39378674303E+02  0.00000000000E+00 0.  1.
         13   -1    0    0    0    0 -0.00000000000E+00 -0.00000000000E+00 -0.10000000000E+04  0.10000000000E+04  0.00000000000E+00 0.  1.
    9000005    2    1    2  501    0 -0.20334411134E+02  0.18461222189E+02 -0.94897856728E+03  0.10095481727E+04  0.34332621062E+03 0.  0.
         13    1    3    3    0    0 -0.10863864611E+03 -0.29878701640E+01 -0.77833199741E+02  0.13367606285E+03  0.00000000000E+00 0.  1.
          1    1    3    3  501    0  0.88304234976E+02  0.21449092353E+02 -0.87114536754E+03  0.87587210988E+03  0.00000000000E+00 0.  1.
         21    1    1    2  502  501  0.20334411134E+02 -0.18461222189E+02 -0.11642758418E+02  0.29830501579E+02  0.00000000000E+00 0.  1.
<mgrwt>
<rscale>  1 0.30000000E+03</rscale>
<asrwt>0</asrwt>
<pdfrwt beam="1">  1        1 0.14319548E+00 0.30000000E+03</pdfrwt>
<pdfrwt beam="2">0</pdfrwt>
<totfact> 0.19470393E+01</totfact>
</mgrwt>
</event>
<event>
 6    1  0.1969531E-004  0.3000000E+03  0.7818608E-02  0.1093470E+00
          1   -1    0    0  502    0  0.00000000000E+00  0.00000000000E+00  0.68616951966E+02  0.68616951966E+02  0.00000000000E+00 0.  1.
         13   -1    0    0    0    0 -0.00000000000E+00 -0.00000000000E+00 -0.10000000000E+04  0.10000000000E+04  0.00000000000E+00 0.  1.
    9000005    2    1    2  501    0  0.25055278254E+02 -0.67787113906E+02 -0.93766368918E+03  0.99607519686E+03  0.32822209555E+03 0.  0.
         13    1    3    3    0    0  0.89995060978E+02  0.21483678968E+02 -0.57327203574E+02  0.10884423610E+03  0.00000000000E+00 0.  1.
          1    1    3    3  501    0 -0.64939782723E+02 -0.89270792875E+02 -0.88033648561E+03  0.88723096076E+03  0.00000000000E+00 0.  1.
         21    1    1    2  502  501 -0.25055278254E+02  0.67787113906E+02  0.62806411505E+01  0.72541755103E+02  0.00000000000E+00 0. -1.
<mgrwt>
<rscale>  1 0.30000000E+03</rscale>
<asrwt>0</asrwt>
<pdfrwt beam="1">  1        1 0.24951672E+00 0.30000000E+03</pdfrwt>
<pdfrwt beam="2">0</pdfrwt>
<totfact> 0.59970704E+00</totfact>
</mgrwt>
</event>
<event>
 6    1  0.1969531E-004  0.3000000E+03  0.7818608E-02  0.1093470E+00
          1   -1    0    0  502    0  0.00000000000E+00  0.00000000000E+00  0.86561414040E+01  0.86561414040E+01  0.00000000000E+00 0.  1.
         13   -1    0    0    0    0 -0.00000000000E+00 -0.00000000000E+00 -0.10000000000E+04  0.10000000000E+04  0.00000000000E+00 0.  1.
    9000005    2    1    2  501    0 -0.21468736081E+02 -0.85952399029E+01 -0.94755262445E+03  0.95913385384E+03  0.14678892566E+03 0.  0.
         13    1    3    3    0    0  0.31440789042E+02  0.35806219299E+02 -0.71382560050E+03  0.71541428312E+03  0.00000000000E+00 0.  1.
          3    1    3    3  501    0 -0.52909525123E+02 -0.44401459202E+02 -0.23372702395E+03  0.24371957072E+03  0.00000000000E+00 0.  1.
         21    1    1    2  502  501  0.21468736081E+02  0.85952399029E+01 -0.43791234145E+02  0.49522287567E+02  0.00000000000E+00 0.  1.
<mgrwt>
<rscale>  1 0.30000000E+03</rscale>
<asrwt>0</asrwt>
<pdfrwt beam="1">  1        1 0.31476944E-01 0.30000000E+03</pdfrwt>
<pdfrwt beam="2">0</pdfrwt>
<totfact> 0.16169825E+02</totfact>
</mgrwt>
</event>
<event>
 6    1  0.1969531E-004  0.3000000E+03  0.7818608E-02  0.1093470E+00
          1   -1    0    0  502    0  0.00000000000E+00  0.00000000000E+00  0.35100602939E+02  0.35100602939E+02  0.00000000000E+00 0.  1.
         13   -1    0    0    0    0 -0.00000000000E+00 -0.00000000000E+00 -0.10000000000E+04  0.10000000000E+04  0.00000000000E+00 0.  1.
    9000005    2    1    2  501    0 -0.13847489465E+02  0.12232559232E+02 -0.96458211791E+03  0.10166211783E+04  0.32055977516E+03 0.  0.
         13    1    3    3    0    0 -0.33569015690E+02 -0.11939402308E+03 -0.77572430621E+03  0.78557622852E+03  0.00000000000E+00 0.  1.
          1    1    3    3  501    0  0.19721526225E+02  0.13162658231E+03 -0.18885781170E+03  0.23104494976E+03  0.00000000000E+00 0.  1.
         21    1    1    2  502  501  0.13847489465E+02 -0.12232559232E+02 -0.31727914704E+00  0.18479424664E+02  0.00000000000E+00 0.  1.
<mgrwt>
<rscale>  1 0.30000000E+03</rscale>
<asrwt>0</asrwt>
<pdfrwt beam="1">  1        1 0.12763883E+00 0.30000000E+03</pdfrwt>
<pdfrwt beam="2">0</pdfrwt>
<totfact> 0.23570268E+01</totfact>
</mgrwt>
</event>
<event>
 6    1  0.1969531E-004  0.3000000E+03  0.7818608E-02  0.1093470E+00
          3   -1    0    0  502    0  0.00000000000E+00  0.00000000000E+00  0.37769835453E+02  0.37769835453E+02  0.00000000000E+00 0.  1.
         13   -1    0    0    0    0 -0.00000000000E+00 -0.00000000000E+00 -0.10000000000E+04  0.10000000000E+04  0.00000000000E+00 0.  1.
    9000005    2    1    2  501    0  0.41977709149E+02 -0.38664103974E+02 -0.73180471442E+03  0.80038211659E+03  0.31908674605E+03 0.  0.
         13    1    3    3    0    0 -0.78895364291E+02 -0.13396425987E+03 -0.48694045352E+03  0.51115741871E+03  0.00000000000E+00 0.  1.
          1    1    3    3  501    0  0.12087307344E+03  0.95300155893E+02 -0.24486426090E+03  0.28922469788E+03  0.00000000000E+00 0.  1.
         21    1    1    2  502  501 -0.41977709149E+02  0.38664103974E+02 -0.23042545012E+03  0.23738771886E+03  0.00000000000E+00 0. -1.
<mgrwt>
<rscale>  1 0.30000000E+03</rscale>
<asrwt>0</asrwt>
<pdfrwt beam="1">  1        3 0.13734515E+00 0.30000000E+03</pdfrwt>
<pdfrwt beam="2">0</pdfrwt>
<totfact> 0.14451366E+00</totfact>
</mgrwt>
</event>
<event>
 6    1  0.1969531E-004  0.3000000E+03  0.7818608E-02  0.1093470E+00
          3   -1    0    0  502    0  0.00000000000E+00  0.00000000000E+00  0.31948225302E+02  0.31948225302E+02  0.00000000000E+00 0.  1.
         13   -1    0    0    0    0 -0.00000000000E+00 -0.00000000000E+00 -0.10000000000E+04  0.10000000000E+04  0.00000000000E+00 0.  1.
    9000005    2    1    2  501    0  0.12520677078E+02  0.31044234355E+01 -0.94235267966E+03  0.10031932556E+04  0.34380478521E+03 0.  0.
         13    1    3    3    0    0 -0.15596616218E+03 -0.54845920020E+02 -0.42543655180E+03  0.45643157022E+03  0.00000000000E+00 0.  1.
          3    1    3    3  501    0  0.16848683926E+03  0.57950343455E+02 -0.51691612785E+03  0.54676168533E+03  0.00000000000E+00 0.  1.
         21    1    1    2  502  501 -0.12520677078E+02 -0.31044234355E+01 -0.25699095041E+02  0.28754969750E+02  0.00000000000E+00 0. -1.
<mgrwt>
<rscale>  1 0.30000000E+03</rscale>
<asrwt>0</asrwt>
<pdfrwt beam="1">  1        3 0.11617561E+00 0.30000000E+03</pdfrwt>
<pdfrwt beam="2">0</pdfrwt>
<totfact> 0.25608550E+00</totfact>
</mgrwt>
</event>
<event>
 6    1  0.1969531E-004  0.3000000E+03  0.7818608E-02  0.1093470E+00
          1   -1    0    0  502    0  0.00000000000E+00  0.00000000000E+00  0.24345412885E+02  0.24345412885E+02  0.00000000000E+00 0.  1.
         13   -1    0    0    0    0 -0.00000000000E+00 -0.00000000000E+00 -0.10000000000E+04  0.10000000000E+04  0.00000000000E+00 0.  1.
    9000005    2    1    2  501    0  0.92527245410E+01  0.75602958890E+01 -0.94227213870E+03  0.98888897698E+03  0.29980302604E+03 0.  0.
         13    1    3    3    0    0  0.13749451866E+03  0.47731757738E+02 -0.30963250987E+03  0.34213353318E+03  0.00000000000E+00 0.  1.
          1    1    3    3  501    0 -0.12824179412E+03 -0.40171461849E+02 -0.63263962883E+03  0.64675544379E+03  0.00000000000E+00 0.  1.
         21    1    1    2  502  501 -0.92527245410E+01 -0.75602958890E+01 -0.33382448411E+02  0.35456435908E+02  0.00000000000E+00 0.  1.
<mgrwt>
<rscale>  1 0.30000000E+03</rscale>
<asrwt>0</asrwt>
<pdfrwt beam="1">  1        1 0.88528961E-01 0.30000000E+03</pdfrwt>
<pdfrwt beam="2">0</pdfrwt>
<totfact> 0.40771324E+01</totfact>
</mgrwt>
</event>
<event>
 6    1  0.1969531E-004  0.3000000E+03  0.7818608E-02  0.1093470E+00
          1   -1    0    0  502    0  0.00000000000E+00  0.00000000000E+00  0.34888428398E+02  0.34888428398E+02  0.00000000000E+00 0.  1.
         13   -1    0    0    0    0 -0.00000000000E+00 -0.00000000000E+00 -0.10000000000E+04  0.10000000000E+04  0.00000000000E+00 0.  1.
    9000005    2    1    2  501    0  0.75791005403E+01  0.73585109314E+01 -0.97404578525E+03  0.10210533056E+04  0.30606056716E+03 0.  0.
         13    1    3    3    0    0  0.12417309653E+03 -0.48590376118E+02 -0.75496886449E+03  0.76665374772E+03  0.00000000000E+00 0.  1.
          1    1    3    3  501    0 -0.11659399599E+03  0.55948887049E+02 -0.21907692076E+03  0.25439955792E+03  0.00000000000E+00 0.  1.
         21    1    1    2  502  501 -0.75791005403E+01 -0.73585109314E+01  0.89342136434E+01  0.13835122752E+02  0.00000000000E+00 0.  1.
<mgrwt>
<rscale>  1 0.30000000E+03</rscale>
<asrwt>0</asrwt>
<pdfrwt beam="1">  1        1 0.12686728E+00 0.30000000E+03</pdfrwt>
<pdfrwt beam="2">0</pdfrwt>
<totfact> 0.23801701E+01</totfact>
</mgrwt>
</event>
<event>
 6    1  0.1969531E-004  0.3000000E+03  0.7818608E-02  0.1093470E+00
          1   -1    0    0  502    0  0.00000000000E+00  0.00000000000E+00  0.33246931193E+02  0.33246931193E+02  0.00000000000E+00 0.  1.
         13   -1    0    0    0    0 -0.00000000000E+00 -0.00000000000E+00 -0.10000000000E+04  0.10000000000E+04  0.00000000000E+00 0.  1.
    9000005    2    1    2  501    0  0.15950406411E+02 -0.12954358379E+02 -0.97158554490E+03  0.10121380778E+04  0.28288299106E+03 0.  0.
         13    1    3    3    0    0  0.97982516442E+02  0.78229421062E+02 -0.73532058621E+03  0.74593349593E+03  0.00000000000E+00 0.  1.
          3    1    3    3  501    0 -0.82032110032E+02 -0.91183779441E+02 -0.23626495870E+03  0.26620458189E+03  0.00000000000E+00 0.  1.
         21    1    1    2  502  501 -0.15950406411E+02  0.12954358379E+02  0.48324760978E+01  0.21108853377E+02  0.00000000000E+00 0.  1.
<mgrwt>
<rscale>  1 0.30000000E+03</rscale>
<asrwt>0</asrwt>
<pdfrwt beam="1">  1        1 0.12089819E+00 0.30000000E+03</pdfrwt>
<pdfrwt beam="2">0</pdfrwt>
<totfact> 0.25694391E+01</totfact>
</mgrwt>
</event>
<event>
 6    1  0.1969531E-004  0.3000000E+03  0.7818608E-02  0.1093470E+00
          1   -1    0    0  502    0  0.00000000000E+00  0.00000000000E+00  0.49992718754E+02  0.49992718754E+02  0.00000000000E+00 0.  1.
         13   -1    0    0    0    0 -0.00000000000E+00 -0.00000000000E+00 -0.10000000000E+04  0.10000000000E+04  0.00000000000E+00 0.  1.
    9000005    2    1    2  501    0 -0.10436469432E+02 -0.16057318188E+01 -0.97085199600E+03  0.10266260673E+04  0.33361052976E+03 0.  0.
         13    1    3    3    0    0  0.14541294532E+03  0.54162284962E+02 -0.32874384065E+03  0.36352577700E+03  0.00000000000E+00 0.  1.
          3    1    3    3  501    0 -0.15584941475E+03 -0.55768016780E+02 -0.64210815535E+03  0.66310029026E+03  0.00000000000E+00 0.  1.
         21    1    1    2  502  501  0.10436469432E+02  0.16057318188E+01  0.20844714755E+02  0.23366651495E+02  0.00000000000E+00 0. -1.
<mgrwt>
<rscale>  1 0.30000000E+03</rscale>
<asrwt>0</asrwt>
<pdfrwt beam="1">  1        1 0.18179209E+00 0.30000000E+03</pdfrwt>
<pdfrwt beam="2">0</pdfrwt>
<totfact> 0.12522250E+01</totfact>
</mgrwt>
</event>
<event>
 6    1  0.1969531E-004  0.3000000E+03  0.7818608E-02  0.1093470E+00
          1   -1    0    0  502    0  0.00000000000E+00  0.00000000000E+00  0.53974679076E+02  0.53974679076E+02  0.00000000000E+00 0.  1.
         13   -1    0    0    0    0 -0.00000000000E+00 -0.00000000000E+00 -0.10000000000E+04  0.10000000000E+04  0.00000000000E+00 0.  1.
    9000005    2    1    2  501    0  0.28630862761E+02  0.92261861954E+02 -0.85661845260E+03  0.92234806483E+03  0.32802256308E+03 0.  0.
         13    1    3    3    0    0  0.13276818063E+03  0.16727243151E+03 -0.54284916054E+03  0.58334609558E+03  0.00000000000E+00 0.  1.
          1    1    3    3  501    0 -0.10413731787E+03 -0.75010569552E+02 -0.31376929206E+03  0.33900196926E+03  0.00000000000E+00 0.  1.
         21    1    1    2  502  501 -0.28630862761E+02 -0.92261861954E+02 -0.89406868321E+02  0.13162661424E+03  0.00000000000E+00 0.  1.
<mgrwt>
<rscale>  1 0.30000000E+03</rscale>
<asrwt>0</asrwt>
<pdfrwt beam="1">  1        1 0.19627197E+00 0.30000000E+03</pdfrwt>
<pdfrwt beam="2">0</pdfrwt>
<totfact> 0.10670540E+01</totfact>
</mgrwt>
</event>
<event>
 6    1  0.1969531E-004  0.3000000E+03  0.7818608E-02  0.1093470E+00
          1   -1    0    0  502    0  0.00000000000E+00  0.00000000000E+00  0.36179250756E+02  0.36179250756E+02  0.00000000000E+00 0.  1.
         13   -1    0    0    0    0 -0.00000000000E+00 -0.00000000000E+00 -0.10000000000E+04  0.10000000000E+04  0.00000000000E+00 0.  1.
    9000005    2    1    2  501    0  0.36269734301E+02 -0.80575206662E+01 -0.93084533213E+03  0.98650234063E+03  0.32455110301E+03 0.  0.
         13    1    3    3    0    0 -0.90934436077E+02 -0.11038943801E+03 -0.26717168719E+03  0.30304390791E+03  0.00000000000E+00 0.  1.
          3    1    3    3  501    0  0.12720417038E+03  0.10233191734E+03 -0.66367364494E+03  0.68345843272E+03  0.00000000000E+00 0.  1.
         21    1    1    2  502  501 -0.36269734301E+02  0.80575206662E+01 -0.32975417119E+02  0.49676910126E+02  0.00000000000E+00 0.  1.
<mgrwt>
<rscale>  1 0.30000000E+03</rscale>
<asrwt>0</asrwt>
<pdfrwt beam="1">  1        1 0.13156119E+00 0.30000000E+03</pdfrwt>
<pdfrwt beam="2">0</pdfrwt>
<totfact> 0.22437606E+01</totfact>
</mgrwt>
</event>
<event>
 6    1  0.1969531E-004  0.3000000E+03  0.7818608E-02  0.1093470E+00
          1   -1    0    0  502    0  0.00000000000E+00  0.00000000000E+00  0.28307497338E+02  0.28307497338E+02  0.00000000000E+00 0.  1.
         13   -1    0    0    0    0 -0.00000000000E+00 -0.00000000000E+00 -0.10000000000E+04  0.10000000000E+04  0.00000000000E+00 0.  1.
    9000005    2    1    2  501    0 -0.27611079004E+01  0.11485767021E+02 -0.94960536865E+03  0.10032597819E+04  0.32348150983E+03 0.  0.
         13    1    3    3    0    0 -0.99297896526E+02 -0.10837016226E+03 -0.28042680543E+03  0.31661231424E+03  0.00000000000E+00 0.  1.
          1    1    3    3  501    0  0.96536788626E+02  0.11985592928E+03 -0.66917856322E+03  0.68664746764E+03  0.00000000000E+00 0.  1.
         21    1    1    2  502  501  0.27611079004E+01 -0.11485767021E+02 -0.22087134015E+02  0.25047715463E+02  0.00000000000E+00 0. -1.
<mgrwt>
<rscale>  1 0.30000000E+03</rscale>
<asrwt>0</asrwt>
<pdfrwt beam="1">  1        1 0.10293657E+00 0.30000000E+03</pdfrwt>
<pdfrwt beam="2">0</pdfrwt>
<totfact> 0.32802466E+01</totfact>
</mgrwt>
</event>
<event>
 6    1  0.1969531E-004  0.3000000E+03  0.7818608E-02  0.1093470E+00
          1   -1    0    0  502    0  0.00000000000E+00  0.00000000000E+00  0.11151878572E+03  0.11151878572E+03  0.00000000000E+00 0.  1.
         13   -1    0    0    0    0 -0.00000000000E+00 -0.00000000000E+00 -0.10000000000E+04  0.10000000000E+04  0.00000000000E+00 0.  1.
    9000005    2    1    2  501    0 -0.35799120779E+02 -0.54525697321E+02 -0.95781013556E+03  0.10163288280E+04  0.33357068548E+03 0.  0.
         13    1    3    3    0    0 -0.81943911773E+02  0.10011322040E+03 -0.17831177595E+03  0.22030104634E+03  0.00000000000E+00 0.  1.
          3    1    3    3  501    0  0.46144790994E+02 -0.15463891772E+03 -0.77949835961E+03  0.79602778170E+03  0.00000000000E+00 0.  1.
         21    1    1    2  502  501  0.35799120779E+02  0.54525697321E+02  0.69328921280E+02  0.95189957678E+02  0.00000000000E+00 0. -1.
<mgrwt>
<rscale>  1 0.30000000E+03</rscale>
<asrwt>0</asrwt>
<pdfrwt beam="1">  1        1 0.40552371E+00 0.30000000E+03</pdfrwt>
<pdfrwt beam="2">0</pdfrwt>
<totfact> 0.97877706E-01</totfact>
</mgrwt>
</event>
<event>
 6    1  0.1969531E-004  0.3000000E+03  0.7818608E-02  0.1093470E+00
          3   -1    0    0  502    0  0.00000000000E+00  0.00000000000E+00  0.40028309980E+02  0.40028309980E+02  0.00000000000E+00 0.  1.
         13   -1    0    0    0    0 -0.00000000000E+00 -0.00000000000E+00 -0.10000000000E+04  0.10000000000E+04  0.00000000000E+00 0.  1.
    9000005    2    1    2  501    0  0.27025360685E+02  0.18618608598E+02 -0.95002646716E+03  0.10057364718E+04  0.32844868662E+03 0.  0.
         13    1    3    3    0    0 -0.95128050410E+02  0.99490298247E+02 -0.71986110590E+03  0.73290359340E+03  0.00000000000E+00 0.  1.
          3    1    3    3  501    0  0.12215341109E+03 -0.80871689650E+02 -0.23016536126E+03  0.27283287843E+03  0.00000000000E+00 0.  1.
         21    1    1    2  502  501 -0.27025360685E+02 -0.18618608598E+02 -0.99452228562E+01  0.34291838153E+02  0.00000000000E+00 0.  1.
<mgrwt>
<rscale>  1 0.30000000E+03</rscale>
<asrwt>0</asrwt>
<pdfrwt beam="1">  1        3 0.14555780E+00 0.30000000E+03</pdfrwt>
<pdfrwt beam="2">0</pdfrwt>
<totfact> 0.11358132E+00</totfact>
</mgrwt>
</event>
<event>
 6    1  0.1969531E-004  0.3000000E+03  0.7818608E-02  0.1093470E+00
          1   -1    0    0  502    0  0.00000000000E+00  0.00000000000E+00  0.32508606133E+02  0.32508606133E+02  0.00000000000E+00 0.  1.
         13   -1    0    0    0    0 -0.00000000000E+00 -0.00000000000E+00 -0.10000000000E+04  0.10000000000E+04  0.00000000000E+00 0.  1.
    9000005    2    1    2  501    0  0.44863506157E-01  0.14975838656E+02 -0.96276871009E+03  0.10168056924E+04  0.32671998609E+03 0.  0.
         13    1    3    3    0    0  0.96230824425E+02 -0.12119697750E+03 -0.55761375544E+03  0.57869005450E+03  0.00000000000E+00 0.  1.
          1    1    3    3  501    0 -0.96185960919E+02  0.13617281615E+03 -0.40515495465E+03  0.43811563795E+03  0.00000000000E+00 0.  1.
         21    1    1    2  502  501 -0.44863506157E-01 -0.14975838656E+02 -0.47226837819E+01  0.15702913688E+02  0.00000000000E+00 0.  1.
<mgrwt>
<rscale>  1 0.30000000E+03</rscale>
<asrwt>0</asrwt>
<pdfrwt beam="1">  1        1 0.11821336E+00 0.30000000E+03</pdfrwt>
<pdfrwt beam="2">0</pdfrwt>
<totfact> 0.26610309E+01</totfact>
</mgrwt>
</event>
<event>
 6    1  0.1969531E-004  0.3000000E+03  0.7818608E-02  0.1093470E+00
          1   -1    0    0  502    0  0.00000000000E+00  0.00000000000E+00  0.30310206857E+02  0.30310206857E+02  0.00000000000E+00 0.  1.
         13   -1    0    0    0    0 -0.00000000000E+00 -0.00000000000E+00 -0.10000000000E+04  0.10000000000E+04  0.00000000000E+00 0.  1.
    9000005    2    1    2  501    0 -0.12135685302E+02  0.49705551803E+01 -0.96111440036E+03  0.10146411725E+04  0.32493666623E+03 0.  0.
         13    1    3    3    0    0 -0.65314111958E+02 -0.14114917957E+03 -0.33244279869E+03  0.36702484727E+03  0.00000000000E+00 0.  1.
          3    1    3    3  501    0  0.53178426656E+02  0.14611973475E+03 -0.62867160167E+03  0.64761632522E+03  0.00000000000E+00 0.  1.
         21    1    1    2  502  501  0.12135685302E+02 -0.49705551803E+01 -0.85753927861E+01  0.15669034367E+02  0.00000000000E+00 0. -1.
<mgrwt>
<rscale>  1 0.30000000E+03</rscale>
<asrwt>0</asrwt>
<pdfrwt beam="1">  1        1 0.11021917E+00 0.30000000E+03</pdfrwt>
<pdfrwt beam="2">0</pdfrwt>
<totfact> 0.29620468E+01</totfact>
</mgrwt>
</event>
<event>
 6    1  0.1969531E-004  0.3000000E+03  0.7818608E-02  0.1093470E+00
          1   -1    0    0  502    0  0.00000000000E+00  0.00000000000E+00  0.33484723229E+02  0.33484723229E+02  0.00000000000E+00 0.  1.
         13   -1    0    0    0    0 -0.00000000000E+00 -0.00000000000E+00 -0.10000000000E+04  0.10000000000E+04  0.00000000000E+00 0.  1.
    9000005    2    1    2  501    0 -0.37975604842E+02  0.82249179912E+01 -0.90117131565E+03  0.95746085136E+03  0.32111017719E+03 0.  0.
         13    1    3    3    0    0 -0.12049286986E+03 -0.71968758276E+02 -0.77122642916E+03  0.78389300219E+03  0.00000000000E+00 0.  1.
          3    1    3    3  501    0  0.82517265016E+02  0.80193676267E+02 -0.12994488649E+03  0.17356784917E+03  0.00000000000E+00 0.  1.
         21    1    1    2  502  501  0.37975604842E+02 -0.82249179912E+01 -0.65343961120E+02  0.76023871869E+02  0.00000000000E+00 0.  1.
<mgrwt>
<rscale>  1 0.30000000E+03</rscale>
<asrwt>0</asrwt>
<pdfrwt beam="1">  1        1 0.12176289E+00 0.30000000E+03</pdfrwt>
<pdfrwt beam="2">0</pdfrwt>
<totfact> 0.25408387E+01</totfact>
</mgrwt>
</event>
<event>
 6    1  0.1969531E-004  0.3000000E+03  0.7818608E-02  0.1093470E+00
          1   -1    0    0  502    0  0.00000000000E+00  0.00000000000E+00  0.43682399233E+02  0.43682399233E+02  0.00000000000E+00 0.  1.
         13   -1    0    0    0    0 -0.00000000000E+00 -0.00000000000E+00 -0.10000000000E+04  0.10000000000E+04  0.00000000000E+00 0.  1.
    9000005    2    1    2  501    0  0.77746719671E+02 -0.36116782779E+01 -0.84197711618E+03  0.90536630091E+03  0.32358164042E+03 0.  0.
         13    1    3    3    0    0 -0.10408722251E+03 -0.69557951020E+02 -0.46638814449E+03  0.48289787716E+03  0.00000000000E+00 0.  1.
          1    1    3    3  501    0  0.18183394218E+03  0.65946272742E+02 -0.37558897169E+03  0.42246842375E+03  0.00000000000E+00 0.  1.
         21    1    1    2  502  501 -0.77746719671E+02  0.36116782779E+01 -0.11434048459E+03  0.13831609832E+03  0.00000000000E+00 0.  1.
<mgrwt>
<rscale>  1 0.30000000E+03</rscale>
<asrwt>0</asrwt>
<pdfrwt beam="1">  1        1 0.15884542E+00 0.30000000E+03</pdfrwt>
<pdfrwt beam="2">0</pdfrwt>
<totfact> 0.16216036E+01</totfact>
</mgrwt>
</event>
<event>
 6    1  0.1969531E-004  0.3000000E+03  0.7818608E-02  0.1093470E+00
          1   -1    0    0  502    0  0.00000000000E+00  0.00000000000E+00  0.33717741752E+02  0.33717741752E+02  0.00000000000E+00 0.  1.
         13   -1    0    0    0    0 -0.00000000000E+00 -0.00000000000E+00 -0.10000000000E+04  0.10000000000E+04  0.00000000000E+00 0.  1.
    9000005    2    1    2  501    0  0.13490099732E+02  0.39878022980E+01 -0.96459977363E+03  0.10195503104E+04  0.32989729720E+03 0.  0.
         13    1    3    3    0    0  0.13526883314E+03 -0.55383396132E+02 -0.76155734120E+03  0.77545764663E+03  0.00000000000E+00 0.  1.
          1    1    3    3  501    0 -0.12177873341E+03  0.59371198430E+02 -0.20304243243E+03  0.24409266372E+03  0.00000000000E+00 0.  1.
         21    1    1    2  502  501 -0.13490099732E+02 -0.39878022980E+01 -0.16824846188E+01  0.14167431399E+02  0.00000000000E+00 0.  1.
<mgrwt>
<rscale>  1 0.30000000E+03</rscale>
<asrwt>0</asrwt>
<pdfrwt beam="1">  1        1 0.12261023E+00 0.30000000E+03</pdfrwt>
<pdfrwt beam="2">0</pdfrwt>
<totfact> 0.25132181E+01</totfact>
</mgrwt>
</event>
<event>
 6    1  0.1969531E-004  0.3000000E+03  0.7818608E-02  0.1093470E+00
          1   -1    0    0  502    0  0.00000000000E+00  0.00000000000E+00  0.22371204993E+02  0.22371204993E+02  0.00000000000E+00 0.  1.
         13   -1    0    0    0    0 -0.00000000000E+00 -0.00000000000E+00 -0.10000000000E+04  0.10000000000E+04  0.00000000000E+00 0.  1.
    9000005    2    1    2  501    0  0.99724032274E+00  0.13519123315E+02 -0.96421700614E+03  0.10033019296E+04  0.27697755473E+03 0.  0.
         13    1    3    3    0    0 -0.10750402351E+03  0.28126628276E+02 -0.18041601719E+03  0.21189186286E+03  0.00000000000E+00 0.  1.
          3    1    3    3  501    0  0.10850126383E+03 -0.14607504961E+02 -0.78380098895E+03  0.79141006674E+03  0.00000000000E+00 0.  1.
         21    1    1    2  502  501 -0.99724032274E+00 -0.13519123315E+02 -0.13411788862E+02  0.19069275391E+02  0.00000000000E+00 0. -1.
<mgrwt>
<rscale>  1 0.30000000E+03</rscale>
<asrwt>0</asrwt>
<pdfrwt beam="1">  1        1 0.81350008E-01 0.30000000E+03</pdfrwt>
<pdfrwt beam="2">0</pdfrwt>
<totfact> 0.45890063E+01</totfact>
</mgrwt>
</event>
<event>
 6    1  0.1969531E-004  0.3000000E+03  0.7818608E-02  0.1093470E+00
          1   -1    0    0  502    0  0.00000000000E+00  0.00000000000E+00  0.36600250503E+02  0.36600250503E+02  0.00000000000E+00 0.  1.
         13   -1    0    0    0    0 -0.00000000000E+00 -0.00000000000E+00 -0.10000000000E+04  0.10000000000E+04  0.00000000000E+00 0.  1.
    9000005    2    1    2  501    0 -0.37767860306E-01  0.11410886988E+02 -0.97178411643E+03  0.10224401878E+04  0.31763085306E+03 0.  0.
         13    1    3    3    0    0 -0.11575041615E+03 -0.36245587828E+02 -0.80415557464E+03  0.81325155376E+03  0.00000000000E+00 0.  1.
          3    1    3    3  501    0  0.11571264829E+03  0.47656474816E+02 -0.16762854179E+03  0.20918863399E+03  0.00000000000E+00 0.  1.
         21    1    1    2  502  501  0.37767860306E-01 -0.11410886988E+02  0.83843669325E+01  0.14160062751E+02  0.00000000000E+00 0.  1.
<mgrwt>
<rscale>  1 0.30000000E+03</rscale>
<asrwt>0</asrwt>
<pdfrwt beam="1">  1        1 0.13309210E+00 0.30000000E+03</pdfrwt>
<pdfrwt beam="2">0</pdfrwt>
<totfact> 0.22014815E+01</totfact>
</mgrwt>
</event>
<event>
 6    1  0.1969531E-004  0.3000000E+03  0.7818608E-02  0.1093470E+00
          1   -1    0    0  502    0  0.00000000000E+00  0.00000000000E+00  0.40778842552E+02  0.40778842552E+02  0.00000000000E+00 0.  1.
         13   -1    0    0    0    0 -0.00000000000E+00 -0.00000000000E+00 -0.10000000000E+04  0.10000000000E+04  0.00000000000E+00 0.  1.
    9000005    2    1    2  501    0 -0.10969415178E+02 -0.60058258027E+01 -0.96498891173E+03  0.10270069508E+04  0.35125956105E+03 0.  0.
         13    1    3    3    0    0 -0.12236022156E+03  0.11697017107E+03 -0.64135507721E+03  0.66331770653E+03  0.00000000000E+00 0.  1.
          1    1    3    3  501    0  0.11139080638E+03 -0.12297599687E+03 -0.32363383452E+03  0.36368924427E+03  0.00000000000E+00 0.  1.
         21    1    1    2  502  501  0.10969415178E+02  0.60058258027E+01  0.57677542800E+01  0.13771891749E+02  0.00000000000E+00 0. -1.
<mgrwt>
<rscale>  1 0.30000000E+03</rscale>
<asrwt>0</asrwt>
<pdfrwt beam="1">  1        1 0.14828701E+00 0.30000000E+03</pdfrwt>
<pdfrwt beam="2">0</pdfrwt>
<totfact> 0.18329792E+01</totfact>
</mgrwt>
</event>
<event>
 6    1  0.1969531E-004  0.3000000E+03  0.7818608E-02  0.1093470E+00
          1   -1    0    0  502    0  0.00000000000E+00  0.00000000000E+00  0.29462506884E+02  0.29462506884E+02  0.00000000000E+00 0.  1.
         13   -1    0    0    0    0 -0.00000000000E+00 -0.00000000000E+00 -0.10000000000E+04  0.10000000000E+04  0.00000000000E+00 0.  1.
    9000005    2    1    2  501    0  0.72658462310E+01 -0.13016373616E+02 -0.94995527984E+03  0.10040490064E+04  0.32477246658E+03 0.  0.
         13    1    3    3    0    0 -0.98011892041E+02 -0.13265510278E+03 -0.51861896173E+03  0.54421441982E+03  0.00000000000E+00 0.  1.
          1    1    3    3  501    0  0.10527773827E+03  0.11963872916E+03 -0.43133631812E+03  0.45983458658E+03  0.00000000000E+00 0.  1.
         21    1    1    2  502  501 -0.72658462310E+01  0.13016373616E+02 -0.20582213272E+02  0.25413500482E+02  0.00000000000E+00 0.  1.
<mgrwt>
<rscale>  1 0.30000000E+03</rscale>
<asrwt>0</asrwt>
<pdfrwt beam="1">  1        1 0.10713661E+00 0.30000000E+03</pdfrwt>
<pdfrwt beam="2">0</pdfrwt>
<totfact> 0.30910667E+01</totfact>
</mgrwt>
</event>
<event>
 6    1  0.1969531E-004  0.3000000E+03  0.7818608E-02  0.1093470E+00
          1   -1    0    0  502    0  0.00000000000E+00  0.00000000000E+00  0.20189379670E+02  0.20189379670E+02  0.00000000000E+00 0.  1.
         13   -1    0    0    0    0 -0.00000000000E+00 -0.00000000000E+00 -0.10000000000E+04  0.10000000000E+04  0.00000000000E+00 0.  1.
    9000005    2    1    2  501    0 -0.15434452394E+02  0.16167055649E+02 -0.95984659394E+03  0.99022008941E+03  0.24234427075E+03 0.  0.
         13    1    3    3    0    0  0.10931503825E+03  0.33221108449E+02 -0.53731211975E+03  0.54932479797E+03  0.00000000000E+00 0.  1.
          3    1    3    3  501    0 -0.12474949065E+03 -0.17054052800E+02 -0.42253447419E+03  0.44089529144E+03  0.00000000000E+00 0.  1.
         21    1    1    2  502  501  0.15434452394E+02 -0.16167055649E+02 -0.19964026393E+02  0.29969290263E+02  0.00000000000E+00 0.  1.
<mgrwt>
<rscale>  1 0.30000000E+03</rscale>
<asrwt>0</asrwt>
<pdfrwt beam="1">  1        1 0.73416081E-01 0.30000000E+03</pdfrwt>
<pdfrwt beam="2">0</pdfrwt>
<totfact> 0.52844501E+01</totfact>
</mgrwt>
</event>
<event>
 6    1  0.1969531E-004  0.3000000E+03  0.7818608E-02  0.1093470E+00
          1   -1    0    0  502    0  0.00000000000E+00  0.00000000000E+00  0.32841197424E+02  0.32841197424E+02  0.00000000000E+00 0.  1.
         13   -1    0    0    0    0 -0.00000000000E+00 -0.00000000000E+00 -0.10000000000E+04  0.10000000000E+04  0.00000000000E+00 0.  1.
    9000005    2    1    2  501    0  0.20952692535E+02  0.13556666849E+02 -0.92144551599E+03  0.98075950092E+03  0.33496949288E+03 0.  0.
         13    1    3    3    0    0 -0.14238660418E+03  0.38793698260E+02 -0.61636263579E+03  0.63378371301E+03  0.00000000000E+00 0.  1.
          1    1    3    3  501    0  0.16333929671E+03 -0.25237031412E+02 -0.30508288020E+03  0.34697578791E+03  0.00000000000E+00 0.  1.
         21    1    1    2  502  501 -0.20952692535E+02 -0.13556666849E+02 -0.45713286587E+02  0.52081696507E+02  0.00000000000E+00 0.  1.
<mgrwt>
<rscale>  1 0.30000000E+03</rscale>
<asrwt>0</asrwt>
<pdfrwt beam="1">  1        1 0.11942279E+00 0.30000000E+03</pdfrwt>
<pdfrwt beam="2">0</pdfrwt>
<totfact> 0.26192367E+01</totfact>
</mgrwt>
</event>
<event>
 6    1  0.1969531E-004  0.3000000E+03  0.7818608E-02  0.1093470E+00
          1   -1    0    0  502    0  0.00000000000E+00  0.00000000000E+00  0.43815761468E+02  0.43815761468E+02  0.00000000000E+00 0.  1.
         13   -1    0    0    0    0 -0.00000000000E+00 -0.00000000000E+00 -0.10000000000E+04  0.10000000000E+04  0.00000000000E+00 0.  1.
    9000005    2    1    2  501    0  0.46789879356E+02  0.37043083229E+02 -0.90592583523E+03  0.96579403419E+03  0.32938581438E+03 0.  0.
         13    1    3    3    0    0  0.20813982773E+02  0.17948814520E+03 -0.61235717066E+03  0.63845949018E+03  0.00000000000E+00 0.  1.
          1    1    3    3  501    0  0.25975896584E+02 -0.14244506197E+03 -0.29356866456E+03  0.32733454400E+03  0.00000000000E+00 0.  1.
         21    1    1    2  502  501 -0.46789879356E+02 -0.37043083229E+02 -0.50258403305E+02  0.78021727282E+02  0.00000000000E+00 0.  1.
<mgrwt>
<rscale>  1 0.30000000E+03</rscale>
<asrwt>0</asrwt>
<pdfrwt beam="1">  1        1 0.15933038E+00 0.30000000E+03</pdfrwt>
<pdfrwt beam="2">0</pdfrwt>
<totfact> 0.16126172E+01</totfact>
</mgrwt>
</event>
<event>
 6    1  0.1969531E-004  0.3000000E+03  0.7818608E-02  0.1093470E+00
          1   -1    0    0  502    0  0.00000000000E+00  0.00000000000E+00  0.29272770725E+02  0.29272770725E+02  0.00000000000E+00 0.  1.
         13   -1    0    0    0    0 -0.00000000000E+00 -0.00000000000E+00 -0.10000000000E+04  0.10000000000E+04  0.00000000000E+00 0.  1.
    9000005    2    1    2  501    0 -0.64140420314E+01 -0.13841698961E+02 -0.94738141122E+03  0.10013844257E+04  0.32404706020E+03 0.  0.
         13    1    3    3    0    0  0.13817519810E+03 -0.47209305579E+02 -0.68083001113E+03  0.69631214837E+03  0.00000000000E+00 0.  1.
          1    1    3    3  501    0 -0.14458924013E+03  0.33367606618E+02 -0.26655140009E+03  0.30507227738E+03  0.00000000000E+00 0.  1.
         21    1    1    2  502  501  0.64140420314E+01  0.13841698961E+02 -0.23345818052E+02  0.27888344982E+02  0.00000000000E+00 0.  1.
<mgrwt>
<rscale>  1 0.30000000E+03</rscale>
<asrwt>0</asrwt>
<pdfrwt beam="1">  1        1 0.10644666E+00 0.30000000E+03</pdfrwt>
<pdfrwt beam="2">0</pdfrwt>
<totfact> 0.31210436E+01</totfact>
</mgrwt>
</event>
<event>
 6    1  0.1969531E-004  0.3000000E+03  0.7818608E-02  0.1093470E+00
          1   -1    0    0  502    0  0.00000000000E+00  0.00000000000E+00  0.30202421590E+02  0.30202421590E+02  0.00000000000E+00 0.  1.
         13   -1    0    0    0    0 -0.00000000000E+00 -0.00000000000E+00 -0.10000000000E+04  0.10000000000E+04  0.00000000000E+00 0.  1.
    9000005    2    1    2  501    0  0.12374608009E+02  0.67167565468E+01 -0.94893297004E+03  0.10050314537E+04  0.33078118986E+03 0.  0.
         13    1    3    3    0    0 -0.30863185652E+02 -0.13265376536E+03 -0.72546572946E+03  0.73813960896E+03  0.00000000000E+00 0.  1.
          1    1    3    3  501    0  0.43237793661E+02  0.13937052191E+03 -0.22346724058E+03  0.26689184474E+03  0.00000000000E+00 0.  1.
         21    1    1    2  502  501 -0.12374608009E+02 -0.67167565468E+01 -0.20864608369E+02  0.25170967885E+02  0.00000000000E+00 0.  1.
<mgrwt>
<rscale>  1 0.30000000E+03</rscale>
<asrwt>0</asrwt>
<pdfrwt beam="1">  1        1 0.10982722E+00 0.30000000E+03</pdfrwt>
<pdfrwt beam="2">0</pdfrwt>
<totfact> 0.29780211E+01</totfact>
</mgrwt>
</event>
<event>
 6    1  0.1969531E-004  0.3000000E+03  0.7818608E-02  0.1093470E+00
          1   -1    0    0  502    0  0.00000000000E+00  0.00000000000E+00  0.31547546113E+02  0.31547546113E+02  0.00000000000E+00 0.  1.
         13   -1    0    0    0    0 -0.00000000000E+00 -0.00000000000E+00 -0.10000000000E+04  0.10000000000E+04  0.00000000000E+00 0.  1.
    9000005    2    1    2  501    0 -0.74807035956E+01 -0.80415862870E+01 -0.96905018537E+03  0.10205482134E+04  0.31990587076E+03 0.  0.
         13    1    3    3    0    0  0.21436910749E+02  0.41100156213E+02 -0.96197609874E+03  0.96309230011E+03  0.00000000000E+00 0.  1.
          1    1    3    3  501    0 -0.28917614345E+02 -0.49141742500E+02 -0.70740866374E+01  0.57455913335E+02  0.00000000000E+00 0.  1.
         21    1    1    2  502  501  0.74807035956E+01  0.80415862870E+01  0.59773148683E+00  0.10999332672E+02  0.00000000000E+00 0.  1.
<mgrwt>
<rscale>  1 0.30000000E+03</rscale>
<asrwt>0</asrwt>
<pdfrwt beam="1">  1        1 0.11471859E+00 0.30000000E+03</pdfrwt>
<pdfrwt beam="2">0</pdfrwt>
<totfact> 0.27870653E+01</totfact>
</mgrwt>
</event>
<event>
 6    1  0.1969531E-004  0.3000000E+03  0.7818608E-02  0.1093470E+00
          1   -1    0    0  502    0  0.00000000000E+00  0.00000000000E+00  0.31836892890E+02  0.31836892890E+02  0.00000000000E+00 0.  1.
         13   -1    0    0    0    0 -0.00000000000E+00 -0.00000000000E+00 -0.10000000000E+04  0.10000000000E+04  0.00000000000E+00 0.  1.
    9000005    2    1    2  501    0  0.12940582143E+02 -0.16036398724E+02 -0.95036240264E+03  0.10046065820E+04  0.32499394386E+03 0.  0.
         13    1    3    3    0    0  0.40839318770E+02  0.11766609731E+03 -0.16119983135E+03  0.20371191924E+03  0.00000000000E+00 0.  1.
          1    1    3    3  501    0 -0.27898736627E+02 -0.13370249603E+03 -0.78916257129E+03  0.80089466278E+03  0.00000000000E+00 0.  1.
         21    1    1    2  502  501 -0.12940582143E+02  0.16036398724E+02 -0.17800704470E+02  0.27230310866E+02  0.00000000000E+00 0.  1.
<mgrwt>
<rscale>  1 0.30000000E+03</rscale>
<asrwt>0</asrwt>
<pdfrwt beam="1">  1        1 0.11577076E+00 0.30000000E+03</pdfrwt>
<pdfrwt beam="2">0</pdfrwt>
<totfact> 0.27482641E+01</totfact>
</mgrwt>
</event>
<event>
 6    1  0.1969531E-004  0.3000000E+03  0.7818608E-02  0.1093470E+00
          1   -1    0    0  502    0  0.00000000000E+00  0.00000000000E+00  0.31046634738E+02  0.31046634738E+02  0.00000000000E+00 0.  1.
         13   -1    0    0    0    0 -0.00000000000E+00 -0.00000000000E+00 -0.10000000000E+04  0.10000000000E+04  0.00000000000E+00 0.  1.
    9000005    2    1    2  501    0 -0.75945643951E+01 -0.22161175585E+02 -0.95552675587E+03  0.10040453579E+04  0.30745227989E+03 0.  0.
         13    1    3    3    0    0 -0.11126781623E+02 -0.62003468484E+02 -0.96153655281E+03  0.96359782989E+03  0.00000000000E+00 0.  1.
          1    1    3    3  501    0  0.35322172281E+01  0.39842292899E+02  0.60097969447E+01  0.40447528000E+02  0.00000000000E+00 0.  1.
         21    1    1    2  502  501  0.75945643951E+01  0.22161175585E+02 -0.13426609394E+02  0.27001276849E+02  0.00000000000E+00 0. -1.
<mgrwt>
<rscale>  1 0.30000000E+03</rscale>
<asrwt>0</asrwt>
<pdfrwt beam="1">  1        1 0.11289709E+00 0.30000000E+03</pdfrwt>
<pdfrwt beam="2">0</pdfrwt>
<totfact> 0.28560846E+01</totfact>
</mgrwt>
</event>
<event>
 6    1  0.1969531E-004  0.3000000E+03  0.7818608E-02  0.1093470E+00
          1   -1    0    0  502    0  0.00000000000E+00  0.00000000000E+00  0.10052325516E+03  0.10052325516E+03  0.00000000000E+00 0.  1.
         13   -1    0    0    0    0 -0.00000000000E+00 -0.00000000000E+00 -0.10000000000E+04  0.10000000000E+04  0.00000000000E+00 0.  1.
    9000005    2    1    2  501    0  0.10176185077E+02  0.34463852170E+02 -0.97175965307E+03  0.10198007015E+04  0.30722196467E+03 0.  0.
         13    1    3    3    0    0  0.12545722784E+03 -0.78104601543E+02 -0.43879335007E+03  0.46301128373E+03  0.00000000000E+00 0.  1.
          3    1    3    3  501    0 -0.11528104276E+03  0.11256845371E+03 -0.53296630300E+03  0.55678941776E+03  0.00000000000E+00 0.  1.
         21    1    1    2  502  501 -0.10176185077E+02 -0.34463852170E+02  0.72282908234E+02  0.80722553676E+02  0.00000000000E+00 0.  1.
<mgrwt>
<rscale>  1 0.30000000E+03</rscale>
<asrwt>0</asrwt>
<pdfrwt beam="1">  1        1 0.36553988E+00 0.30000000E+03</pdfrwt>
<pdfrwt beam="2">0</pdfrwt>
<totfact> 0.16311746E+00</totfact>
</mgrwt>
</event>
<event>
 6    1  0.1969531E-004  0.3000000E+03  0.7818608E-02  0.1093470E+00
          1   -1    0    0  502    0  0.00000000000E+00  0.00000000000E+00  0.46955879033E+02  0.46955879033E+02  0.00000000000E+00 0.  1.
         13   -1    0    0    0    0 -0.00000000000E+00 -0.00000000000E+00 -0.10000000000E+04  0.10000000000E+04  0.00000000000E+00 0.  1.
    9000005    2    1    2  501    0 -0.41660391311E+02 -0.71578813946E+02 -0.87885475145E+03  0.93576605324E+03  0.31050493948E+03 0.  0.
         13    1    3    3    0    0  0.60050514923E+02 -0.15036053145E+03 -0.28174064733E+03  0.32494945164E+03  0.00000000000E+00 0.  1.
          1    1    3    3  501    0 -0.10171090623E+03  0.78781717502E+02 -0.59711410412E+03  0.61081660161E+03  0.00000000000E+00 0.  1.
         21    1    1    2  502  501  0.41660391311E+02  0.71578813946E+02 -0.74189369518E+02  0.11118982579E+03  0.00000000000E+00 0.  1.
<mgrwt>
<rscale>  1 0.30000000E+03</rscale>
<asrwt>0</asrwt>
<pdfrwt beam="1">  1        1 0.17074901E+00 0.30000000E+03</pdfrwt>
<pdfrwt beam="2">0</pdfrwt>
<totfact> 0.14167332E+01</totfact>
</mgrwt>
</event>
<event>
 6    1  0.1969531E-004  0.3000000E+03  0.7818608E-02  0.1093470E+00
          1   -1    0    0  502    0  0.00000000000E+00  0.00000000000E+00  0.34002896822E+02  0.34002896822E+02  0.00000000000E+00 0.  1.
         13   -1    0    0    0    0 -0.00000000000E+00 -0.00000000000E+00 -0.10000000000E+04  0.10000000000E+04  0.00000000000E+00 0.  1.
    9000005    2    1    2  501    0  0.17964254871E+02  0.13526640106E+02 -0.95428367791E+03  0.10086476454E+04  0.32589423146E+03 0.  0.
         13    1    3    3    0    0  0.90355984176E+02 -0.12615280231E+03 -0.32720654318E+03  0.36213651474E+03  0.00000000000E+00 0.  1.
          1    1    3    3  501    0 -0.72391729305E+02  0.13967944241E+03 -0.62707713473E+03  0.64651113061E+03  0.00000000000E+00 0.  1.
         21    1    1    2  502  501 -0.17964254871E+02 -0.13526640106E+02 -0.11713425265E+02  0.25355251469E+02  0.00000000000E+00 0.  1.
<mgrwt>
<rscale>  1 0.30000000E+03</rscale>
<asrwt>0</asrwt>
<pdfrwt beam="1">  1        1 0.12364716E+00 0.30000000E+03</pdfrwt>
<pdfrwt beam="2">0</pdfrwt>
<totfact> 0.24799492E+01</totfact>
</mgrwt>
</event>
<event>
 6    1  0.1969531E-004  0.3000000E+03  0.7818608E-02  0.1093470E+00
          1   -1    0    0  502    0  0.00000000000E+00  0.00000000000E+00  0.38138024461E+02  0.38138024461E+02  0.00000000000E+00 0.  1.
         13   -1    0    0    0    0 -0.00000000000E+00 -0.00000000000E+00 -0.10000000000E+04  0.10000000000E+04  0.00000000000E+00 0.  1.
    9000005    2    1    2  501    0 -0.46814343816E+01 -0.29691234598E+02 -0.94675559149E+03  0.10044974525E+04  0.33431347103E+03 0.  0.
         13    1    3    3    0    0 -0.12022634363E+03 -0.11753473789E+03 -0.68354898896E+03  0.70392329740E+03  0.00000000000E+00 0.  1.
          1    1    3    3  501    0  0.11554490925E+03  0.87843503296E+02 -0.26320660253E+03  0.30057415515E+03  0.00000000000E+00 0.  1.
         21    1    1    2  502  501  0.46814343816E+01  0.29691234598E+02 -0.15106384046E+02  0.33640571915E+02  0.00000000000E+00 0.  1.
<mgrwt>
<rscale>  1 0.30000000E+03</rscale>
<asrwt>0</asrwt>
<pdfrwt beam="1">  1        1 0.13868402E+00 0.30000000E+03</pdfrwt>
<pdfrwt beam="2">0</pdfrwt>
<totfact> 0.20556990E+01</totfact>
</mgrwt>
</event>
<event>
 6    1  0.1969531E-004  0.3000000E+03  0.7818608E-02  0.1093470E+00
          1   -1    0    0  502    0  0.00000000000E+00  0.00000000000E+00  0.36342357629E+02  0.36342357629E+02  0.00000000000E+00 0.  1.
         13   -1    0    0    0    0 -0.00000000000E+00 -0.00000000000E+00 -0.10000000000E+04  0.10000000000E+04  0.00000000000E+00 0.  1.
    9000005    2    1    2  501    0  0.59786466338E+01 -0.37436205601E+02 -0.91880968348E+03  0.97761797494E+03  0.33179580583E+03 0.  0.
         13    1    3    3    0    0 -0.68536855188E+01  0.12790686695E+03 -0.64424486407E+03  0.65685507115E+03  0.00000000000E+00 0.  1.
          3    1    3    3  501    0  0.12832332153E+02 -0.16534307255E+03 -0.27456481941E+03  0.32076290379E+03  0.00000000000E+00 0.  1.
         21    1    1    2  502  501 -0.59786466338E+01  0.37436205601E+02 -0.44847958892E+02  0.58724382688E+02  0.00000000000E+00 0. -1.
<mgrwt>
<rscale>  1 0.30000000E+03</rscale>
<asrwt>0</asrwt>
<pdfrwt beam="1">  1        1 0.13215431E+00 0.30000000E+03</pdfrwt>
<pdfrwt beam="2">0</pdfrwt>
<totfact> 0.22272549E+01</totfact>
</mgrwt>
</event>
<event>
 6    1  0.1969531E-004  0.3000000E+03  0.7818608E-02  0.1093470E+00
          1   -1    0    0  502    0  0.00000000000E+00  0.00000000000E+00  0.37553441444E+02  0.37553441444E+02  0.00000000000E+00 0.  1.
         13   -1    0    0    0    0 -0.00000000000E+00 -0.00000000000E+00 -0.10000000000E+04  0.10000000000E+04  0.00000000000E+00 0.  1.
    9000005    2    1    2  501    0 -0.33555140055E+02 -0.20418367071E+02 -0.93008393943E+03  0.98665947073E+03  0.32695247310E+03 0.  0.
         13    1    3    3    0    0  0.12672137431E+03  0.66757697569E+02 -0.33780963102E+03  0.36691994182E+03  0.00000000000E+00 0.  1.
          1    1    3    3  501    0 -0.16027651437E+03 -0.87176064640E+02 -0.59227430840E+03  0.61973952891E+03  0.00000000000E+00 0.  1.
         21    1    1    2  502  501  0.33555140055E+02  0.20418367071E+02 -0.32362619130E+02  0.50893970713E+02  0.00000000000E+00 0.  1.
<mgrwt>
<rscale>  1 0.30000000E+03</rscale>
<asrwt>0</asrwt>
<pdfrwt beam="1">  1        1 0.13655826E+00 0.30000000E+03</pdfrwt>
<pdfrwt beam="2">0</pdfrwt>
<totfact> 0.21095799E+01</totfact>
</mgrwt>
</event>
<event>
 6    1  0.1969531E-004  0.3000000E+03  0.7818608E-02  0.1093470E+00
          1   -1    0    0  502    0  0.00000000000E+00  0.00000000000E+00  0.63554045291E+02  0.63554045291E+02  0.00000000000E+00 0.  1.
         13   -1    0    0    0    0 -0.00000000000E+00 -0.00000000000E+00 -0.10000000000E+04  0.10000000000E+04  0.00000000000E+00 0.  1.
    9000005    2    1    2  501    0 -0.34159190771E+01  0.24446766666E+02 -0.96551511274E+03  0.10254183815E+04  0.34446206074E+03 0.  0.
         13    1    3    3    0    0  0.14019104946E+03  0.10276077055E+03 -0.38740288905E+03  0.42461076853E+03  0.00000000000E+00 0.  1.
          3    1    3    3  501    0 -0.14360696854E+03 -0.78314003883E+02 -0.57811222370E+03  0.60080761297E+03  0.00000000000E+00 0.  1.
         21    1    1    2  502  501  0.34159190771E+01 -0.24446766666E+02  0.29069158035E+02  0.38135663787E+02  0.00000000000E+00 0.  1.
<mgrwt>
<rscale>  1 0.30000000E+03</rscale>
<asrwt>0</asrwt>
<pdfrwt beam="1">  1        1 0.23110611E+00 0.30000000E+03</pdfrwt>
<pdfrwt beam="2">0</pdfrwt>
<totfact> 0.73127125E+00</totfact>
</mgrwt>
</event>
<event>
 6    1  0.1969531E-004  0.3000000E+03  0.7818608E-02  0.1093470E+00
          1   -1    0    0  502    0  0.00000000000E+00  0.00000000000E+00  0.91940103152E+01  0.91940103152E+01  0.00000000000E+00 0.  1.
         13   -1    0    0    0    0 -0.00000000000E+00 -0.00000000000E+00 -0.10000000000E+04  0.10000000000E+04  0.00000000000E+00 0.  1.
    9000005    2    1    2  501    0  0.75137017168E+01 -0.78149033366E+01 -0.98081898319E+03  0.99445397211E+03  0.16375376767E+03 0.  0.
         13    1    3    3    0    0 -0.51062054357E+02  0.36495778872E+02 -0.74066592736E+03  0.74332044989E+03  0.00000000000E+00 0.  1.
          1    1    3    3  501    0  0.58575756073E+02 -0.44310682208E+02 -0.24015305583E+03  0.25113352221E+03  0.00000000000E+00 0.  1.
         21    1    1    2  502  501 -0.75137017168E+01  0.78149033366E+01 -0.99870064951E+01  0.14740038208E+02  0.00000000000E+00 0. -1.
<mgrwt>
<rscale>  1 0.30000000E+03</rscale>
<asrwt>0</asrwt>
<pdfrwt beam="1">  1        1 0.33432835E-01 0.30000000E+03</pdfrwt>
<pdfrwt beam="2">0</pdfrwt>
<totfact> 0.14941299E+02</totfact>
</mgrwt>
</event>
<event>
 6    1  0.1969531E-004  0.3000000E+03  0.7818608E-02  0.1093470E+00
          1   -1    0    0  502    0  0.00000000000E+00  0.00000000000E+00  0.38418780316E+02  0.38418780316E+02  0.00000000000E+00 0.  1.
         13   -1    0    0    0    0 -0.00000000000E+00 -0.00000000000E+00 -0.10000000000E+04  0.10000000000E+04  0.00000000000E+00 0.  1.
    9000005    2    1    2  501    0 -0.70482149786E+01 -0.13595763510E+02 -0.96809859438E+03  0.10217755146E+04  0.32645947945E+03 0.  0.
         13    1    3    3    0    0  0.10660140255E+03 -0.83622870763E+02 -0.19629652577E+03  0.23851408673E+03  0.00000000000E+00 0.  1.
          1    1    3    3  501    0 -0.11364961752E+03  0.70027107253E+02 -0.77180206861E+03  0.78326142789E+03  0.00000000000E+00 0.  1.
         21    1    1    2  502  501  0.70482149786E+01  0.13595763510E+02  0.65173747004E+01  0.16643265689E+02  0.00000000000E+00 0.  1.
<mgrwt>
<rscale>  1 0.30000000E+03</rscale>
<asrwt>0</asrwt>
<pdfrwt beam="1">  1        1 0.13970495E+00 0.30000000E+03</pdfrwt>
<pdfrwt beam="2">0</pdfrwt>
<totfact> 0.20304472E+01</totfact>
</mgrwt>
</event>
<event>
 6    1  0.1969531E-004  0.3000000E+03  0.7818608E-02  0.1093470E+00
          1   -1    0    0  502    0  0.00000000000E+00  0.00000000000E+00  0.30894276096E+02  0.30894276096E+02  0.00000000000E+00 0.  1.
         13   -1    0    0    0    0 -0.00000000000E+00 -0.00000000000E+00 -0.10000000000E+04  0.10000000000E+04  0.00000000000E+00 0.  1.
    9000005    2    1    2  501    0  0.66834411604E+00  0.14944507090E+02 -0.96295755520E+03  0.10147206879E+04  0.31960449998E+03 0.  0.
         13    1    3    3    0    0 -0.12663017633E+03  0.19165203169E+01 -0.17264111482E+03  0.21411172115E+03  0.00000000000E+00 0.  1.
          3    1    3    3  501    0  0.12729852044E+03  0.13027986773E+02 -0.79031644037E+03  0.80060896677E+03  0.00000000000E+00 0.  1.
         21    1    1    2  502  501 -0.66834411604E+00 -0.14944507090E+02 -0.61481687075E+01  0.16173588175E+02  0.00000000000E+00 0.  1.
<mgrwt>
<rscale>  1 0.30000000E+03</rscale>
<asrwt>0</asrwt>
<pdfrwt beam="1">  1        1 0.11234306E+00 0.30000000E+03</pdfrwt>
<pdfrwt beam="2">0</pdfrwt>
<totfact> 0.28775604E+01</totfact>
</mgrwt>
</event>
<event>
 6    1  0.1969531E-004  0.3000000E+03  0.7818608E-02  0.1093470E+00
          1   -1    0    0  502    0  0.00000000000E+00  0.00000000000E+00  0.26276749211E+02  0.26276749211E+02  0.00000000000E+00 0.  1.
         13   -1    0    0    0    0 -0.00000000000E+00 -0.00000000000E+00 -0.10000000000E+04  0.10000000000E+04  0.00000000000E+00 0.  1.
    9000005    2    1    2  501    0 -0.18676259980E+02  0.13057704206E+02 -0.93463081328E+03  0.98102716362E+03  0.29725449079E+03 0.  0.
         13    1    3    3    0    0  0.36522595812E+02  0.11125717081E+03 -0.78524364842E+03  0.79392672549E+03  0.00000000000E+00 0.  1.
          1    1    3    3  501    0 -0.55198855792E+02 -0.98199466608E+02 -0.14938716486E+03  0.18710043813E+03  0.00000000000E+00 0.  1.
         21    1    1    2  502  501  0.18676259980E+02 -0.13057704206E+02 -0.39092437506E+02  0.45249585591E+02  0.00000000000E+00 0.  1.
<mgrwt>
<rscale>  1 0.30000000E+03</rscale>
<asrwt>0</asrwt>
<pdfrwt beam="1">  1        1 0.95552017E-01 0.30000000E+03</pdfrwt>
<pdfrwt beam="2">0</pdfrwt>
<totfact> 0.36564556E+01</totfact>
</mgrwt>
</event>
<event>
 6    1  0.1969531E-004  0.3000000E+03  0.7818608E-02  0.1093470E+00
          1   -1    0    0  502    0  0.00000000000E+00  0.00000000000E+00  0.53903214531E+02  0.53903214531E+02  0.00000000000E+00 0.  1.
         13   -1    0    0    0    0 -0.00000000000E+00 -0.00000000000E+00 -0.10000000000E+04  0.10000000000E+04  0.00000000000E+00 0.  1.
    9000005    2    1    2  501    0 -0.14333715117E+02 -0.10835412915E+02 -0.96544203499E+03  0.10275005586E+04  0.35122103210E+03 0.  0.
         13    1    3    3    0    0  0.14138294386E+03  0.13629764830E+02 -0.73311441785E+03  0.74674738497E+03  0.00000000000E+00 0.  1.
          1    1    3    3  501    0 -0.15571665897E+03 -0.24465177745E+02 -0.23232761714E+03  0.28075317361E+03  0.00000000000E+00 0.  1.
         21    1    1    2  502  501  0.14333715117E+02  0.10835412915E+02  0.19345249524E+02  0.26402655951E+02  0.00000000000E+00 0. -1.
<mgrwt>
<rscale>  1 0.30000000E+03</rscale>
<asrwt>0</asrwt>
<pdfrwt beam="1">  1        1 0.19601210E+00 0.30000000E+03</pdfrwt>
<pdfrwt beam="2">0</pdfrwt>
<totfact> 0.10701028E+01</totfact>
</mgrwt>
</event>
<event>
 6    1  0.1969531E-004  0.3000000E+03  0.7818608E-02  0.1093470E+00
          1   -1    0    0  502    0  0.00000000000E+00  0.00000000000E+00  0.32788309817E+02  0.32788309817E+02  0.00000000000E+00 0.  1.
         13   -1    0    0    0    0 -0.00000000000E+00 -0.00000000000E+00 -0.10000000000E+04  0.10000000000E+04  0.00000000000E+00 0.  1.
    9000005    2    1    2  501    0 -0.85484503457E+01 -0.59908131461E+01 -0.98223580064E+03  0.10144937822E+04  0.25357740480E+03 0.  0.
         13    1    3    3    0    0 -0.36815224313E+02 -0.11748406463E+03 -0.68112157762E+03  0.69215928057E+03  0.00000000000E+00 0.  1.
          3    1    3    3  501    0  0.28266773967E+02  0.11149325148E+03 -0.30111422302E+03  0.32233450163E+03  0.00000000000E+00 0.  1.
         21    1    1    2  502  501  0.85484503457E+01  0.59908131461E+01  0.15024110459E+02  0.18294527612E+02  0.00000000000E+00 0.  1.
<mgrwt>
<rscale>  1 0.30000000E+03</rscale>
<asrwt>0</asrwt>
<pdfrwt beam="1">  1        1 0.11923047E+00 0.30000000E+03</pdfrwt>
<pdfrwt beam="2">0</pdfrwt>
<totfact> 0.26258230E+01</totfact>
</mgrwt>
</event>
<event>
 6    1  0.1969531E-004  0.3000000E+03  0.7818608E-02  0.1093470E+00
          1   -1    0    0  502    0  0.00000000000E+00  0.00000000000E+00  0.58178854613E+02  0.58178854613E+02  0.00000000000E+00 0.  1.
         13   -1    0    0    0    0 -0.00000000000E+00 -0.00000000000E+00 -0.10000000000E+04  0.10000000000E+04  0.00000000000E+00 0.  1.
    9000005    2    1    2  501    0  0.26970074873E+01  0.12700622943E+02 -0.97135358132E+03  0.10259182836E+04  0.32986658657E+03 0.  0.
         13    1    3    3    0    0 -0.59753113097E+02  0.14234716536E+03 -0.27992535780E+03  0.31967382744E+03  0.00000000000E+00 0.  1.
          1    1    3    3  501    0  0.62450120585E+02 -0.12964654242E+03 -0.69142822352E+03  0.70624445612E+03  0.00000000000E+00 0.  1.
         21    1    1    2  502  501 -0.26970074873E+01 -0.12700622943E+02  0.29532435932E+02  0.32260571052E+02  0.00000000000E+00 0. -1.
<mgrwt>
<rscale>  1 0.30000000E+03</rscale>
<asrwt>0</asrwt>
<pdfrwt beam="1">  1        1 0.21155992E+00 0.30000000E+03</pdfrwt>
<pdfrwt beam="2">0</pdfrwt>
<totfact> 0.90312165E+00</totfact>
</mgrwt>
</event>
<event>
 6    1  0.1969531E-004  0.3000000E+03  0.7818608E-02  0.1093470E+00
          1   -1    0    0  502    0  0.00000000000E+00  0.00000000000E+00  0.34498144901E+02  0.34498144901E+02  0.00000000000E+00 0.  1.
         13   -1    0    0    0    0 -0.00000000000E+00 -0.00000000000E+00 -0.10000000000E+04  0.10000000000E+04  0.00000000000E+00 0.  1.
    9000005    2    1    2  501    0 -0.14756179283E+02 -0.80733130546E+01 -0.95853940820E+03  0.10162937807E+04  0.33730153916E+03 0.  0.
         13    1    3    3    0    0  0.66378223517E-01 -0.15927400235E+03 -0.29153674072E+03  0.33220759086E+03  0.00000000000E+00 0.  1.
          3    1    3    3  501    0 -0.14822557507E+02  0.15120068930E+03 -0.66700266748E+03  0.68408618980E+03  0.00000000000E+00 0.  1.
         21    1    1    2  502  501  0.14756179283E+02  0.80733130546E+01 -0.69624469006E+01  0.18204364245E+02  0.00000000000E+00 0. -1.
<mgrwt>
<rscale>  1 0.30000000E+03</rscale>
<asrwt>0</asrwt>
<pdfrwt beam="1">  1        1 0.12544806E+00 0.30000000E+03</pdfrwt>
<pdfrwt beam="2">0</pdfrwt>
<totfact> 0.24235049E+01</totfact>
</mgrwt>
</event>
<event>
 6    1  0.1969531E-004  0.3000000E+03  0.7818608E-02  0.1093470E+00
          1   -1    0    0  502    0  0.00000000000E+00  0.00000000000E+00  0.34091810335E+02  0.34091810335E+02  0.00000000000E+00 0.  1.
         13   -1    0    0    0    0 -0.00000000000E+00 -0.00000000000E+00 -0.10000000000E+04  0.10000000000E+04  0.00000000000E+00 0.  1.
    9000005    2    1    2  501    0 -0.81782969184E+01  0.12441189455E+02 -0.96768744684E+03  0.10190973616E+04  0.31924719262E+03 0.  0.
         13    1    3    3    0    0  0.10543365198E+03  0.11085413322E+03 -0.64833041332E+03  0.66613603615E+03  0.00000000000E+00 0.  1.
          1    1    3    3  501    0 -0.11361194890E+03 -0.98412943765E+02 -0.31935703352E+03  0.35296132549E+03  0.00000000000E+00 0.  1.
         21    1    1    2  502  501  0.81782969184E+01 -0.12441189455E+02  0.17792571750E+01  0.14994448694E+02  0.00000000000E+00 0.  1.
<mgrwt>
<rscale>  1 0.30000000E+03</rscale>
<asrwt>0</asrwt>
<pdfrwt beam="1">  1        1 0.12397048E+00 0.30000000E+03</pdfrwt>
<pdfrwt beam="2">0</pdfrwt>
<totfact> 0.24696928E+01</totfact>
</mgrwt>
</event>
<event>
 6    1  0.1969531E-004  0.3000000E+03  0.7818608E-02  0.1093470E+00
          3   -1    0    0  502    0  0.00000000000E+00  0.00000000000E+00  0.28899568593E+02  0.28899568593E+02  0.00000000000E+00 0.  1.
         13   -1    0    0    0    0 -0.00000000000E+00 -0.00000000000E+00 -0.10000000000E+04  0.10000000000E+04  0.00000000000E+00 0.  1.
    9000005    2    1    2  501    0  0.13384886092E+02 -0.10314304297E+02 -0.93554071588E+03  0.98952910483E+03  0.32194079918E+03 0.  0.
         13    1    3    3    0    0  0.34349383437E+02  0.97497122085E+01  0.14867564931E+02  0.38677920286E+02  0.00000000000E+00 0.  1.
          1    1    3    3  501    0 -0.20964497345E+02 -0.20064016506E+02 -0.95040828081E+03  0.95085118454E+03  0.00000000000E+00 0.  1.
         21    1    1    2  502  501 -0.13384886092E+02  0.10314304297E+02 -0.35559715525E+02  0.39370463764E+02  0.00000000000E+00 0.  1.
<mgrwt>
<rscale>  1 0.30000000E+03</rscale>
<asrwt>0</asrwt>
<pdfrwt beam="1">  1        3 0.10508956E+00 0.30000000E+03</pdfrwt>
<pdfrwt beam="2">0</pdfrwt>
<totfact> 0.34277404E+00</totfact>
</mgrwt>
</event>
<event>
 6    1  0.1969531E-004  0.3000000E+03  0.7818608E-02  0.1093470E+00
          3   -1    0    0  502    0  0.00000000000E+00  0.00000000000E+00  0.25450716544E+02  0.25450716544E+02  0.00000000000E+00 0.  1.
         13   -1    0    0    0    0 -0.00000000000E+00 -0.00000000000E+00 -0.10000000000E+04  0.10000000000E+04  0.00000000000E+00 0.  1.
    9000005    2    1    2  501    0 -0.91367098214E+01 -0.10452862741E+02 -0.98235858009E+03  0.10095219087E+04  0.23219251160E+03 0.  0.
         13    1    3    3    0    0  0.70968213292E+02  0.43609563383E+02 -0.78872681440E+03  0.79311302415E+03  0.00000000000E+00 0.  1.
          3    1    3    3  501    0 -0.80104923113E+02 -0.54062426125E+02 -0.19363176569E+03  0.21640888454E+03  0.00000000000E+00 0.  1.
         21    1    1    2  502  501  0.91367098214E+01  0.10452862741E+02  0.78092966309E+01  0.15928807856E+02  0.00000000000E+00 0. -1.
<mgrwt>
<rscale>  1 0.30000000E+03</rscale>
<asrwt>0</asrwt>
<pdfrwt beam="1">  1        3 0.92548255E-01 0.30000000E+03</pdfrwt>
<pdfrwt beam="2">0</pdfrwt>
<totfact> 0.47670972E+00</totfact>
</mgrwt>
</event>
<event>
 6    1  0.1969531E-004  0.3000000E+03  0.7818608E-02  0.1093470E+00
          3   -1    0    0  502    0  0.00000000000E+00  0.00000000000E+00  0.40640862340E+02  0.40640862340E+02  0.00000000000E+00 0.  1.
         13   -1    0    0    0    0 -0.00000000000E+00 -0.00000000000E+00 -0.10000000000E+04  0.10000000000E+04  0.00000000000E+00 0.  1.
    9000005    2    1    2  501    0 -0.67962489619E+01 -0.25772847671E+02 -0.95649739774E+03  0.10138338067E+04  0.33505415538E+03 0.  0.
         13    1    3    3    0    0  0.13860158359E+02  0.51178090989E+02 -0.92754819356E+03  0.92906240499E+03  0.00000000000E+00 0.  1.
          3    1    3    3  501    0 -0.20656407321E+02 -0.76950938660E+02 -0.28949204173E+02  0.84771401701E+02  0.00000000000E+00 0.  1.
         21    1    1    2  502  501  0.67962489619E+01  0.25772847671E+02 -0.28617399229E+01  0.26807055646E+02  0.00000000000E+00 0.  1.
<mgrwt>
<rscale>  1 0.30000000E+03</rscale>
<asrwt>0</asrwt>
<pdfrwt beam="1">  1        3 0.14778527E+00 0.30000000E+03</pdfrwt>
<pdfrwt beam="2">0</pdfrwt>
<totfact> 0.10609364E+00</totfact>
</mgrwt>
</event>
<event>
 6    1  0.1969531E-004  0.3000000E+03  0.7818608E-02  0.1093470E+00
          1   -1    0    0  502    0  0.00000000000E+00  0.00000000000E+00  0.43059641231E+02  0.43059641231E+02  0.00000000000E+00 0.  1.
         13   -1    0    0    0    0 -0.00000000000E+00 -0.00000000000E+00 -0.10000000000E+04  0.10000000000E+04  0.00000000000E+00 0.  1.
    9000005    2    1    2  501    0 -0.74562924366E+02  0.24761004479E+01 -0.70779302900E+03  0.78298243597E+03  0.32638131438E+03 0.  0.
         13    1    3    3    0    0  0.71446187231E+02 -0.11974061132E+03 -0.36713125015E+03  0.39271838065E+03  0.00000000000E+00 0.  1.
          1    1    3    3  501    0 -0.14600911160E+03  0.12221671176E+03 -0.34066177885E+03  0.39026405532E+03  0.00000000000E+00 0.  1.
         21    1    1    2  502  501  0.74562924366E+02 -0.24761004479E+01 -0.24914732977E+03  0.26007720526E+03  0.00000000000E+00 0.  1.
<mgrwt>
<rscale>  1 0.30000000E+03</rscale>
<asrwt>0</asrwt>
<pdfrwt beam="1">  1        1 0.15658084E+00 0.30000000E+03</pdfrwt>
<pdfrwt beam="2">0</pdfrwt>
<totfact> 0.16643555E+01</totfact>
</mgrwt>
</event>
<event>
 6    1  0.1969531E-004  0.3000000E+03  0.7818608E-02  0.1093470E+00
          1   -1    0    0  502    0  0.00000000000E+00  0.00000000000E+00  0.44954482749E+02  0.44954482749E+02  0.00000000000E+00 0.  1.
         13   -1    0    0    0    0 -0.00000000000E+00 -0.00000000000E+00 -0.10000000000E+04  0.10000000000E+04  0.00000000000E+00 0.  1.
    9000005    2    1    2  501    0  0.16673005205E+02 -0.52531432513E+02 -0.91944989045E+03  0.97934511488E+03  0.33270288922E+03 0.  0.
         13    1    3    3    0    0  0.30352116072E+02 -0.81510646585E+01  0.20968628010E+02  0.37780605683E+02  0.00000000000E+00 0.  1.
          1    1    3    3  501    0 -0.13679110868E+02 -0.44380367854E+02 -0.94041851846E+03  0.94156450920E+03  0.00000000000E+00 0.  1.
         21    1    1    2  502  501 -0.16673005205E+02  0.52531432513E+02 -0.35595626801E+02  0.65609367866E+02  0.00000000000E+00 0.  1.
<mgrwt>
<rscale>  1 0.30000000E+03</rscale>
<asrwt>0</asrwt>
<pdfrwt beam="1">  1        1 0.16347119E+00 0.30000000E+03</pdfrwt>
<pdfrwt beam="2">0</pdfrwt>
<totfact> 0.15381997E+01</totfact>
</mgrwt>
</event>
<event>
 6    1  0.1969531E-004  0.3000000E+03  0.7818608E-02  0.1093470E+00
          1   -1    0    0  502    0  0.00000000000E+00  0.00000000000E+00  0.99863724465E+02  0.99863724465E+02  0.00000000000E+00 0.  1.
         13   -1    0    0    0    0 -0.00000000000E+00 -0.00000000000E+00 -0.10000000000E+04  0.10000000000E+04  0.00000000000E+00 0.  1.
    9000005    2    1    2  501    0  0.20091733066E+02  0.22576841843E+02 -0.97060562547E+03  0.10231869952E+04  0.32237083536E+03 0.  0.
         13    1    3    3    0    0  0.13207340627E+01 -0.84936510520E+02 -0.55218371483E+02  0.10131645329E+03  0.00000000000E+00 0.  1.
          3    1    3    3  501    0  0.18770999003E+02  0.10751335236E+03 -0.91538725399E+03  0.92187054194E+03  0.00000000000E+00 0.  1.
         21    1    1    2  502  501 -0.20091733066E+02 -0.22576841843E+02  0.70469349937E+02  0.76676729232E+02  0.00000000000E+00 0.  1.
<mgrwt>
<rscale>  1 0.30000000E+03</rscale>
<asrwt>0</asrwt>
<pdfrwt beam="1">  1        1 0.36314158E+00 0.30000000E+03</pdfrwt>
<pdfrwt beam="2">0</pdfrwt>
<totfact> 0.16801720E+00</totfact>
</mgrwt>
</event>
<event>
 6    1  0.1969531E-004  0.3000000E+03  0.7818608E-02  0.1093470E+00
          1   -1    0    0  502    0  0.00000000000E+00  0.00000000000E+00  0.42485785849E+02  0.42485785849E+02  0.00000000000E+00 0.  1.
         13   -1    0    0    0    0 -0.00000000000E+00 -0.00000000000E+00 -0.10000000000E+04  0.10000000000E+04  0.00000000000E+00 0.  1.
    9000005    2    1    2  501    0 -0.13099751895E+02 -0.28863326256E+01 -0.96978927981E+03  0.10243030563E+04  0.32943219266E+03 0.  0.
         13    1    3    3    0    0  0.55124271551E+01  0.82558433768E+02 -0.91992165082E+03  0.92363527730E+03  0.00000000000E+00 0.  1.
          1    1    3    3  501    0 -0.18612179050E+02 -0.85444766394E+02 -0.49867628993E+02  0.10066777903E+03  0.00000000000E+00 0.  1.
         21    1    1    2  502  501  0.13099751895E+02  0.28863326256E+01  0.12275065659E+02  0.18182729516E+02  0.00000000000E+00 0.  1.
<mgrwt>
<rscale>  1 0.30000000E+03</rscale>
<asrwt>0</asrwt>
<pdfrwt beam="1">  1        1 0.15449409E+00 0.30000000E+03</pdfrwt>
<pdfrwt beam="2">0</pdfrwt>
<totfact> 0.17049420E+01</totfact>
</mgrwt>
</event>
<event>
 6    1  0.1969531E-004  0.3000000E+03  0.7818608E-02  0.1093470E+00
          1   -1    0    0  502    0  0.00000000000E+00  0.00000000000E+00  0.66293399341E+02  0.66293399341E+02  0.00000000000E+00 0.  1.
         13   -1    0    0    0    0 -0.00000000000E+00 -0.00000000000E+00 -0.10000000000E+04  0.10000000000E+04  0.00000000000E+00 0.  1.
    9000005    2    1    2  501    0  0.58520617437E+01 -0.23194119285E+02 -0.96569404297E+03  0.10263508123E+04  0.34678349362E+03 0.  0.
         13    1    3    3    0    0  0.42334765128E+02  0.10834329758E+03 -0.11086230142E+03  0.16068899260E+03  0.00000000000E+00 0.  1.
          1    1    3    3  501    0 -0.36482703384E+02 -0.13153741686E+03 -0.85483174155E+03  0.86566181967E+03  0.00000000000E+00 0.  1.
         21    1    1    2  502  501 -0.58520617437E+01  0.23194119285E+02  0.31987442307E+02  0.39942587064E+02  0.00000000000E+00 0.  1.
<mgrwt>
<rscale>  1 0.30000000E+03</rscale>
<asrwt>0</asrwt>
<pdfrwt beam="1">  1        1 0.24106742E+00 0.30000000E+03</pdfrwt>
<pdfrwt beam="2">0</pdfrwt>
<totfact> 0.65677326E+00</totfact>
</mgrwt>
</event>
<event>
 6    1  0.1969531E-004  0.3000000E+03  0.7818608E-02  0.1093470E+00
          1   -1    0    0  502    0  0.00000000000E+00  0.00000000000E+00  0.27939026958E+02  0.27939026958E+02  0.00000000000E+00 0.  1.
         13   -1    0    0    0    0 -0.00000000000E+00 -0.00000000000E+00 -0.10000000000E+04  0.10000000000E+04  0.00000000000E+00 0.  1.
    9000005    2    1    2  501    0  0.24515122391E+01 -0.12762176741E+02 -0.95155183609E+03  0.10036592459E+04  0.31892334838E+03 0.  0.
         13    1    3    3    0    0  0.77111678315E+02 -0.70242985713E+02 -0.87787341977E+03  0.88404865766E+03  0.00000000000E+00 0.  1.
          1    1    3    3  501    0 -0.74660166076E+02  0.57480808971E+02 -0.73678416320E+02  0.11961058828E+03  0.00000000000E+00 0.  1.
         21    1    1    2  502  501 -0.24515122391E+01  0.12762176741E+02 -0.20509136957E+02  0.24279781015E+02  0.00000000000E+00 0.  1.
<mgrwt>
<rscale>  1 0.30000000E+03</rscale>
<asrwt>0</asrwt>
<pdfrwt beam="1">  1        1 0.10159668E+00 0.30000000E+03</pdfrwt>
<pdfrwt beam="2">0</pdfrwt>
<totfact> 0.33441430E+01</totfact>
</mgrwt>
</event>
<event>
 6    1  0.1969531E-004  0.3000000E+03  0.7818608E-02  0.1093470E+00
          3   -1    0    0  502    0  0.00000000000E+00  0.00000000000E+00  0.35025371012E+02  0.35025371012E+02  0.00000000000E+00 0.  1.
         13   -1    0    0    0    0 -0.00000000000E+00 -0.00000000000E+00 -0.10000000000E+04  0.10000000000E+04  0.00000000000E+00 0.  1.
    9000005    2    1    2  501    0  0.77124008955E+01  0.43719606047E+02 -0.88564690104E+03  0.94412007138E+03  0.32407003992E+03 0.  0.
         13    1    3    3    0    0 -0.12158603801E+03  0.12499466105E+03 -0.47170471083E+03  0.50290373249E+03  0.00000000000E+00 0.  1.
          3    1    3    3  501    0  0.12929843890E+03 -0.81275055003E+02 -0.41394219021E+03  0.44121633889E+03  0.00000000000E+00 0.  1.
         21    1    1    2  502  501 -0.77124008955E+01 -0.43719606047E+02 -0.79327727948E+02  0.90905299636E+02  0.00000000000E+00 0. -1.
<mgrwt>
<rscale>  1 0.30000000E+03</rscale>
<asrwt>0</asrwt>
<pdfrwt beam="1">  1        3 0.12736525E+00 0.30000000E+03</pdfrwt>
<pdfrwt beam="2">0</pdfrwt>
<totfact> 0.18992629E+00</totfact>
</mgrwt>
</event>
<event>
 6    1  0.1969531E-004  0.3000000E+03  0.7818608E-02  0.1093470E+00
          1   -1    0    0  502    0  0.00000000000E+00  0.00000000000E+00  0.32943293507E+02  0.32943293507E+02  0.00000000000E+00 0.  1.
         13   -1    0    0    0    0 -0.00000000000E+00 -0.00000000000E+00 -0.10000000000E+04  0.10000000000E+04  0.00000000000E+00 0.  1.
    9000005    2    1    2  501    0 -0.20416095030E+01 -0.23122800647E+02 -0.95601992475E+03  0.10072403242E+04  0.31625961191E+03 0.  0.
         13    1    3    3    0    0  0.10770472555E+03  0.10093071704E+03 -0.52952783090E+03  0.54971541841E+03  0.00000000000E+00 0.  1.
          1    1    3    3  501    0 -0.10974633506E+03 -0.12405351768E+03 -0.42649209386E+03  0.45752490580E+03  0.00000000000E+00 0.  1.
         21    1    1    2  502  501  0.20416095030E+01  0.23122800647E+02 -0.11036781740E+02  0.25702969290E+02  0.00000000000E+00 0. -1.
<mgrwt>
<rscale>  1 0.30000000E+03</rscale>
<asrwt>0</asrwt>
<pdfrwt beam="1">  1        1 0.11979405E+00 0.30000000E+03</pdfrwt>
<pdfrwt beam="2">0</pdfrwt>
<totfact> 0.26065851E+01</totfact>
</mgrwt>
</event>
<event>
 6    1  0.1969531E-004  0.3000000E+03  0.7818608E-02  0.1093470E+00
          1   -1    0    0  502    0  0.00000000000E+00  0.00000000000E+00  0.10833361999E+03  0.10833361999E+03  0.00000000000E+00 0.  1.
         13   -1    0    0    0    0 -0.00000000000E+00 -0.00000000000E+00 -0.10000000000E+04  0.10000000000E+04  0.00000000000E+00 0.  1.
    9000005    2    1    2  501    0 -0.70488998748E+02  0.17408293350E+02 -0.95517872112E+03  0.10118682630E+04  0.32594362213E+03 0.  0.
         13    1    3    3    0    0  0.20230073515E+02  0.37725700842E+02 -0.90540431629E+03  0.90641572159E+03  0.00000000000E+00 0.  1.
          1    1    3    3  501    0 -0.90719072263E+02 -0.20317407491E+02 -0.49774404828E+02  0.10545254144E+03  0.00000000000E+00 0.  1.
         21    1    1    2  502  501  0.70488998748E+02 -0.17408293350E+02  0.63512341108E+02  0.96465356968E+02  0.00000000000E+00 0.  1.
<mgrwt>
<rscale>  1 0.30000000E+03</rscale>
<asrwt>0</asrwt>
<pdfrwt beam="1">  1        1 0.39394127E+00 0.30000000E+03</pdfrwt>
<pdfrwt beam="2">0</pdfrwt>
<totfact> 0.11396662E+00</totfact>
</mgrwt>
</event>
<event>
 6    1  0.1969531E-004  0.3000000E+03  0.7818608E-02  0.1093470E+00
          1   -1    0    0  502    0  0.00000000000E+00  0.00000000000E+00  0.44735713967E+02  0.44735713967E+02  0.00000000000E+00 0.  1.
         13   -1    0    0    0    0 -0.00000000000E+00 -0.00000000000E+00 -0.10000000000E+04  0.10000000000E+04  0.00000000000E+00 0.  1.
    9000005    2    1    2  501    0  0.36341972875E+01  0.22429174104E+02 -0.96167066255E+03  0.10211281537E+04  0.34260176278E+03 0.  0.
         13    1    3    3    0    0 -0.61805632176E+02 -0.14316987910E+03 -0.33259024690E+03  0.36733339460E+03  0.00000000000E+00 0.  1.
          1    1    3    3  501    0  0.65439829463E+02  0.16559905321E+03 -0.62908041564E+03  0.65379475912E+03  0.00000000000E+00 0.  1.
         21    1    1    2  502  501 -0.36341972875E+01 -0.22429174104E+02  0.64063765166E+01  0.23607560251E+02  0.00000000000E+00 0. -1.
<mgrwt>
<rscale>  1 0.30000000E+03</rscale>
<asrwt>0</asrwt>
<pdfrwt beam="1">  1        1 0.16267567E+00 0.30000000E+03</pdfrwt>
<pdfrwt beam="2">0</pdfrwt>
<totfact> 0.15521833E+01</totfact>
</mgrwt>
</event>
<event>
 6    1  0.1969531E-004  0.3000000E+03  0.7818608E-02  0.1093470E+00
          1   -1    0    0  502    0  0.00000000000E+00  0.00000000000E+00  0.24822316313E+02  0.24822316313E+02  0.00000000000E+00 0.  1.
         13   -1    0    0    0    0 -0.00000000000E+00 -0.00000000000E+00 -0.10000000000E+04  0.10000000000E+04  0.00000000000E+00 0.  1.
    9000005    2    1    2  501    0  0.83923519959E+01 -0.47697976529E+01 -0.96415859835E+03  0.10101729893E+04  0.30125484710E+03 0.  0.
         13    1    3    3    0    0 -0.58961505751E+02  0.10996962452E+03 -0.20924880461E+03  0.24362848706E+03  0.00000000000E+00 0.  1.
          3    1    3    3  501    0  0.67353857747E+02 -0.11473942217E+03 -0.75490979374E+03  0.76654450219E+03  0.00000000000E+00 0.  1.
         21    1    1    2  502  501 -0.83923519959E+01  0.47697976529E+01 -0.11019085335E+02  0.14649327059E+02  0.00000000000E+00 0.  1.
<mgrwt>
<rscale>  1 0.30000000E+03</rscale>
<asrwt>0</asrwt>
<pdfrwt beam="1">  1        1 0.90263159E-01 0.30000000E+03</pdfrwt>
<pdfrwt beam="2">0</pdfrwt>
<totfact> 0.39667257E+01</totfact>
</mgrwt>
</event>
<event>
 6    1  0.1969531E-004  0.3000000E+03  0.7818608E-02  0.1093470E+00
          1   -1    0    0  502    0  0.00000000000E+00  0.00000000000E+00  0.29568480246E+02  0.29568480246E+02  0.00000000000E+00 0.  1.
         13   -1    0    0    0    0 -0.00000000000E+00 -0.00000000000E+00 -0.10000000000E+04  0.10000000000E+04  0.00000000000E+00 0.  1.
    9000005    2    1    2  501    0  0.28380519935E+01  0.14659481345E+02 -0.93211937365E+03  0.98844943999E+03  0.32857695256E+03 0.  0.
         13    1    3    3    0    0 -0.11886319349E+03 -0.59009928774E+02 -0.18364201059E+03  0.22657232513E+03  0.00000000000E+00 0.  1.
          3    1    3    3  501    0  0.12170124548E+03  0.73669410119E+02 -0.74847736306E+03  0.76187711486E+03  0.00000000000E+00 0.  1.
         21    1    1    2  502  501 -0.28380519935E+01 -0.14659481345E+02 -0.38312146104E+02  0.41119040256E+02  0.00000000000E+00 0.  1.
<mgrwt>
<rscale>  1 0.30000000E+03</rscale>
<asrwt>0</asrwt>
<pdfrwt beam="1">  1        1 0.10752197E+00 0.30000000E+03</pdfrwt>
<pdfrwt beam="2">0</pdfrwt>
<totfact> 0.30745034E+01</totfact>
</mgrwt>
</event>
<event>
 6    1  0.1969531E-004  0.3000000E+03  0.7818608E-02  0.1093470E+00
          1   -1    0    0  502    0  0.00000000000E+00  0.00000000000E+00  0.43275969369E+02  0.43275969369E+02  0.00000000000E+00 0.  1.
         13   -1    0    0    0    0 -0.00000000000E+00 -0.00000000000E+00 -0.10000000000E+04  0.10000000000E+04  0.00000000000E+00 0.  1.
    9000005    2    1    2  501    0  0.49907156999E+01 -0.15355621896E+02 -0.96892676975E+03  0.10230371648E+04  0.32791043459E+03 0.  0.
         13    1    3    3    0    0  0.46382550578E+02  0.45068758635E+02 -0.15112258497E+02  0.66414714936E+02  0.00000000000E+00 0.  1.
          1    1    3    3  501    0 -0.41391834879E+02 -0.60424380532E+02 -0.95381451126E+03  0.95662244990E+03  0.00000000000E+00 0.  1.
         21    1    1    2  502  501 -0.49907156999E+01  0.15355621896E+02  0.12202739123E+02  0.20238804538E+02  0.00000000000E+00 0.  1.
<mgrwt>
<rscale>  1 0.30000000E+03</rscale>
<asrwt>0</asrwt>
<pdfrwt beam="1">  1        1 0.15736749E+00 0.30000000E+03</pdfrwt>
<pdfrwt beam="2">0</pdfrwt>
<totfact> 0.16493553E+01</totfact>
</mgrwt>
</event>
<event>
 6    1  0.1969531E-004  0.3000000E+03  0.7818608E-02  0.1093470E+00
          1   -1    0    0  502    0  0.00000000000E+00  0.00000000000E+00  0.33986729084E+02  0.33986729084E+02  0.00000000000E+00 0.  1.
         13   -1    0    0    0    0 -0.00000000000E+00 -0.00000000000E+00 -0.10000000000E+04  0.10000000000E+04  0.00000000000E+00 0.  1.
    9000005    2    1    2  501    0  0.25122165019E+02 -0.28710283512E+02 -0.90211344450E+03  0.95956501605E+03  0.32480909736E+03 0.  0.
         13    1    3    3    0    0  0.11146606493E+03 -0.50422957515E+02 -0.11654394456E+03  0.16896641468E+03  0.00000000000E+00 0.  1.
          1    1    3    3  501    0 -0.86343899908E+02  0.21712674003E+02 -0.78556949994E+03  0.79059860138E+03  0.00000000000E+00 0.  1.
         21    1    1    2  502  501 -0.25122165019E+02  0.28710283512E+02 -0.63899826413E+02  0.74421713030E+02  0.00000000000E+00 0.  1.
<mgrwt>
<rscale>  1 0.30000000E+03</rscale>
<asrwt>0</asrwt>
<pdfrwt beam="1">  1        1 0.12358837E+00 0.30000000E+03</pdfrwt>
<pdfrwt beam="2">0</pdfrwt>
<totfact> 0.24818202E+01</totfact>
</mgrwt>
</event>
<event>
 6    1  0.1969531E-004  0.3000000E+03  0.7818608E-02  0.1093470E+00
          1   -1    0    0  502    0  0.00000000000E+00  0.00000000000E+00  0.56966922822E+02  0.56966922822E+02  0.00000000000E+00 0.  1.
         13   -1    0    0    0    0 -0.00000000000E+00 -0.00000000000E+00 -0.10000000000E+04  0.10000000000E+04  0.00000000000E+00 0.  1.
    9000005    2    1    2  501    0 -0.19344630880E+02 -0.19496411232E+02 -0.97039370971E+03  0.10181992945E+04  0.30710181805E+03 0.  0.
         13    1    3    3    0    0  0.12552723684E+03  0.47928458674E+02 -0.59905419943E+03  0.61393823646E+03  0.00000000000E+00 0.  1.
          1    1    3    3  501    0 -0.14487186772E+03 -0.67424869905E+02 -0.37133951028E+03  0.40426105802E+03  0.00000000000E+00 0.  1.
         21    1    1    2  502  501  0.19344630880E+02  0.19496411232E+02  0.27360632528E+02  0.38767628340E+02  0.00000000000E+00 0.  1.
<mgrwt>
<rscale>  1 0.30000000E+03</rscale>
<asrwt>0</asrwt>
<pdfrwt beam="1">  1        1 0.20715288E+00 0.30000000E+03</pdfrwt>
<pdfrwt beam="2">0</pdfrwt>
<totfact> 0.94739312E+00</totfact>
</mgrwt>
</event>
<event>
 6    1  0.1969531E-004  0.3000000E+03  0.7818608E-02  0.1093470E+00
          1   -1    0    0  502    0  0.00000000000E+00  0.00000000000E+00  0.34548897104E+02  0.34548897104E+02  0.00000000000E+00 0.  1.
         13   -1    0    0    0    0 -0.00000000000E+00 -0.00000000000E+00 -0.10000000000E+04  0.10000000000E+04  0.00000000000E+00 0.  1.
    9000005    2    1    2  501    0  0.80310268977E+01 -0.12230352190E+02 -0.96660385815E+03  0.10198721212E+04  0.32496468424E+03 0.  0.
         13    1    3    3    0    0 -0.47817484463E+02 -0.15245717818E+03 -0.34497611281E+03  0.38018182678E+03  0.00000000000E+00 0.  1.
          3    1    3    3  501    0  0.55848511361E+02  0.14022682599E+03 -0.62162774534E+03  0.63969029438E+03  0.00000000000E+00 0.  1.
         21    1    1    2  502  501 -0.80310268977E+01  0.12230352190E+02  0.11527552532E+01  0.14676775953E+02  0.00000000000E+00 0.  1.
<mgrwt>
<rscale>  1 0.30000000E+03</rscale>
<asrwt>0</asrwt>
<pdfrwt beam="1">  1        1 0.12563262E+00 0.30000000E+03</pdfrwt>
<pdfrwt beam="2">0</pdfrwt>
<totfact> 0.24178131E+01</totfact>
</mgrwt>
</event>
<event>
 6    1  0.1969531E-004  0.3000000E+03  0.7818608E-02  0.1093470E+00
          1   -1    0    0  502    0  0.00000000000E+00  0.00000000000E+00  0.68633434572E+02  0.68633434572E+02  0.00000000000E+00 0.  1.
         13   -1    0    0    0    0 -0.00000000000E+00 -0.00000000000E+00 -0.10000000000E+04  0.10000000000E+04  0.00000000000E+00 0.  1.
    9000005    2    1    2  501    0 -0.46932663625E+02 -0.15065749629E+03 -0.57488893147E+03  0.67879159534E+03  0.32459265284E+03 0.  0.
         13    1    3    3    0    0  0.13265542704E+03 -0.85111124510E+02 -0.34848094905E+03  0.38246612620E+03  0.00000000000E+00 0.  1.
          3    1    3    3  501    0 -0.17958809066E+03 -0.65546371776E+02 -0.22640798242E+03  0.29632546915E+03  0.00000000000E+00 0.  1.
         21    1    1    2  502  501  0.46932663625E+02  0.15065749629E+03 -0.35647763396E+03  0.38984183923E+03  0.00000000000E+00 0. -1.
<mgrwt>
<rscale>  1 0.30000000E+03</rscale>
<asrwt>0</asrwt>
<pdfrwt beam="1">  1        1 0.24957665E+00 0.30000000E+03</pdfrwt>
<pdfrwt beam="2">0</pdfrwt>
<totfact> 0.59932173E+00</totfact>
</mgrwt>
</event>
<event>
 6    1  0.1969531E-004  0.3000000E+03  0.7818608E-02  0.1093470E+00
          1   -1    0    0  502    0  0.00000000000E+00  0.00000000000E+00  0.43862149609E+02  0.43862149609E+02  0.00000000000E+00 0.  1.
         13   -1    0    0    0    0 -0.00000000000E+00 -0.00000000000E+00 -0.10000000000E+04  0.10000000000E+04  0.00000000000E+00 0.  1.
    9000005    2    1    2  501    0  0.39490196362E+02 -0.22496554882E+02 -0.93637038532E+03  0.99430084146E+03  0.33132928370E+03 0.  0.
         13    1    3    3    0    0 -0.76745967637E+02 -0.13600661944E+03 -0.61075555227E+03  0.63040470232E+03  0.00000000000E+00 0.  1.
          3    1    3    3  501    0  0.11623616400E+03  0.11351006456E+03 -0.32561483304E+03  0.36389613913E+03  0.00000000000E+00 0.  1.
         21    1    1    2  502  501 -0.39490196362E+02  0.22496554882E+02 -0.19767465076E+02  0.49561308152E+02  0.00000000000E+00 0. -1.
<mgrwt>
<rscale>  1 0.30000000E+03</rscale>
<asrwt>0</asrwt>
<pdfrwt beam="1">  1        1 0.15949906E+00 0.30000000E+03</pdfrwt>
<pdfrwt beam="2">0</pdfrwt>
<totfact> 0.16095052E+01</totfact>
</mgrwt>
</event>
<event>
 6    1  0.1969531E-004  0.3000000E+03  0.7818608E-02  0.1093470E+00
          1   -1    0    0  502    0  0.00000000000E+00  0.00000000000E+00  0.31716144952E+02  0.31716144952E+02  0.00000000000E+00 0.  1.
         13   -1    0    0    0    0 -0.00000000000E+00 -0.00000000000E+00 -0.10000000000E+04  0.10000000000E+04  0.00000000000E+00 0.  1.
    9000005    2    1    2  501    0  0.11713480231E+02  0.97429731651E+01 -0.95998938345E+03  0.10143688280E+04  0.32731081833E+03 0.  0.
         13    1    3    3    0    0 -0.10052941149E+03 -0.34798910895E+02 -0.10020098214E+03  0.14614158750E+03  0.00000000000E+00 0.  1.
          1    1    3    3  501    0  0.11224289172E+03  0.44541884060E+02 -0.85978840131E+03  0.86822724053E+03  0.00000000000E+00 0.  1.
         21    1    1    2  502  501 -0.11713480231E+02 -0.97429731651E+01 -0.82944715951E+01  0.17347316918E+02  0.00000000000E+00 0.  1.
<mgrwt>
<rscale>  1 0.30000000E+03</rscale>
<asrwt>0</asrwt>
<pdfrwt beam="1">  1        1 0.11533168E+00 0.30000000E+03</pdfrwt>
<pdfrwt beam="2">0</pdfrwt>
<totfact> 0.27643638E+01</totfact>
</mgrwt>
</event>
<event>
 6    1  0.1969531E-004  0.3000000E+03  0.7818608E-02  0.1093470E+00
          1   -1    0    0  502    0  0.00000000000E+00  0.00000000000E+00  0.33150863453E+02  0.33150863453E+02  0.00000000000E+00 0.  1.
         13   -1    0    0    0    0 -0.00000000000E+00 -0.00000000000E+00 -0.10000000000E+04  0.10000000000E+04  0.00000000000E+00 0.  1.
    9000005    2    1    2  501    0  0.13026575025E+02 -0.29542440074E+01 -0.97433631105E+03  0.10178382217E+04  0.29408328644E+03 0.  0.
         13    1    3    3    0    0  0.85918943833E+02 -0.11919706700E+03 -0.36969313746E+03  0.39782285201E+03  0.00000000000E+00 0.  1.
          3    1    3    3  501    0 -0.72892368808E+02  0.11624282299E+03 -0.60464317359E+03  0.62001536972E+03  0.00000000000E+00 0.  1.
         21    1    1    2  502  501 -0.13026575025E+02  0.29542440074E+01  0.74871745044E+01  0.15312641725E+02  0.00000000000E+00 0.  1.
<mgrwt>
<rscale>  1 0.30000000E+03</rscale>
<asrwt>0</asrwt>
<pdfrwt beam="1">  1        1 0.12054885E+00 0.30000000E+03</pdfrwt>
<pdfrwt beam="2">0</pdfrwt>
<totfact> 0.25811149E+01</totfact>
</mgrwt>
</event>
<event>
 6    1  0.1969531E-004  0.3000000E+03  0.7818608E-02  0.1093470E+00
          1   -1    0    0  502    0  0.00000000000E+00  0.00000000000E+00  0.34186821669E+02  0.34186821669E+02  0.00000000000E+00 0.  1.
         13   -1    0    0    0    0 -0.00000000000E+00 -0.00000000000E+00 -0.10000000000E+04  0.10000000000E+04  0.00000000000E+00 0.  1.
    9000005    2    1    2  501    0  0.20369525063E+02 -0.27287438493E+02 -0.91009688842E+03  0.96888883692E+03  0.33062019017E+03 0.  0.
         13    1    3    3    0    0 -0.36260057535E+02  0.13762110739E+03 -0.26684589492E+03  0.30242535047E+03  0.00000000000E+00 0.  1.
          1    1    3    3  501    0  0.56629582598E+02 -0.16490854588E+03 -0.64325099351E+03  0.66646348645E+03  0.00000000000E+00 0.  1.
         21    1    1    2  502  501 -0.20369525063E+02  0.27287438493E+02 -0.55716289907E+02  0.65297984745E+02  0.00000000000E+00 0. -1.
<mgrwt>
<rscale>  1 0.30000000E+03</rscale>
<asrwt>0</asrwt>
<pdfrwt beam="1">  1        1 0.12431598E+00 0.30000000E+03</pdfrwt>
<pdfrwt beam="2">0</pdfrwt>
<totfact> 0.24587934E+01</totfact>
</mgrwt>
</event>
<event>
 6    1  0.1969531E-004  0.3000000E+03  0.7818608E-02  0.1093470E+00
          1   -1    0    0  502    0  0.00000000000E+00  0.00000000000E+00  0.34683720898E+02  0.34683720898E+02  0.00000000000E+00 0.  1.
         13   -1    0    0    0    0 -0.00000000000E+00 -0.00000000000E+00 -0.10000000000E+04  0.10000000000E+04  0.00000000000E+00 0.  1.
    9000005    2    1    2  501    0  0.16072705713E+02  0.12971722967E+02 -0.94217299591E+03  0.10036642267E+04  0.34529020866E+03 0.  0.
         13    1    3    3    0    0  0.15938074703E+03  0.89460131190E+02 -0.46701418144E+03  0.50150531728E+03  0.00000000000E+00 0.  1.
          3    1    3    3  501    0 -0.14330804132E+03 -0.76488408223E+02 -0.47515881447E+03  0.50215890938E+03  0.00000000000E+00 0.  1.
         21    1    1    2  502  501 -0.16072705713E+02 -0.12971722967E+02 -0.23143283189E+02  0.31019494232E+02  0.00000000000E+00 0. -1.
<mgrwt>
<rscale>  1 0.30000000E+03</rscale>
<asrwt>0</asrwt>
<pdfrwt beam="1">  1        1 0.12612289E+00 0.30000000E+03</pdfrwt>
<pdfrwt beam="2">0</pdfrwt>
<totfact> 0.24027753E+01</totfact>
</mgrwt>
</event>
<event>
 6    1  0.1969531E-004  0.3000000E+03  0.7818608E-02  0.1093470E+00
          1   -1    0    0  502    0  0.00000000000E+00  0.00000000000E+00  0.47973485344E+02  0.47973485344E+02  0.00000000000E+00 0.  1.
         13   -1    0    0    0    0 -0.00000000000E+00 -0.00000000000E+00 -0.10000000000E+04  0.10000000000E+04  0.00000000000E+00 0.  1.
    9000005    2    1    2  501    0  0.55665662400E+00 -0.12839794524E+02 -0.97168341313E+03  0.10244880889E+04  0.32441026290E+03 0.  0.
         13    1    3    3    0    0  0.15194152657E+03 -0.58718149488E+02 -0.41687441039E+03  0.44756934950E+03  0.00000000000E+00 0.  1.
          3    1    3    3  501    0 -0.15138486995E+03  0.45878354965E+02 -0.55480900275E+03  0.57691873936E+03  0.00000000000E+00 0.  1.
         21    1    1    2  502  501 -0.55665662400E+00  0.12839794524E+02  0.19656898477E+02  0.23485396479E+02  0.00000000000E+00 0.  1.
<mgrwt>
<rscale>  1 0.30000000E+03</rscale>
<asrwt>0</asrwt>
<pdfrwt beam="1">  1        1 0.17444941E+00 0.30000000E+03</pdfrwt>
<pdfrwt beam="2">0</pdfrwt>
<totfact> 0.13591353E+01</totfact>
</mgrwt>
</event>
<event>
 6    1  0.1969531E-004  0.3000000E+03  0.7818608E-02  0.1093470E+00
          1   -1    0    0  502    0  0.00000000000E+00  0.00000000000E+00  0.33452436912E+02  0.33452436912E+02  0.00000000000E+00 0.  1.
         13   -1    0    0    0    0 -0.00000000000E+00 -0.00000000000E+00 -0.10000000000E+04  0.10000000000E+04  0.00000000000E+00 0.  1.
    9000005    2    1    2  501    0 -0.96649539244E+01  0.94952703601E+01 -0.96854496742E+03  0.10197571415E+04  0.31881295794E+03 0.  0.
         13    1    3    3    0    0  0.88109779761E+02  0.13417722254E+03 -0.47269735885E+03  0.49920902777E+03  0.00000000000E+00 0.  1.
          1    1    3    3  501    0 -0.97774733685E+02 -0.12468195218E+03 -0.49584760856E+03  0.52054811369E+03  0.00000000000E+00 0.  1.
         21    1    1    2  502  501  0.96649539244E+01 -0.94952703601E+01  0.19974043286E+01  0.13695295456E+02  0.00000000000E+00 0.  1.
<mgrwt>
<rscale>  1 0.30000000E+03</rscale>
<asrwt>0</asrwt>
<pdfrwt beam="1">  1        1 0.12164548E+00 0.30000000E+03</pdfrwt>
<pdfrwt beam="2">0</pdfrwt>
<totfact> 0.25446971E+01</totfact>
</mgrwt>
</event>
<event>
 6    1  0.1969531E-004  0.3000000E+03  0.7818608E-02  0.1093470E+00
          1   -1    0    0  502    0  0.00000000000E+00  0.00000000000E+00  0.58611764487E+02  0.58611764487E+02  0.00000000000E+00 0.  1.
         13   -1    0    0    0    0 -0.00000000000E+00 -0.00000000000E+00 -0.10000000000E+04  0.10000000000E+04  0.00000000000E+00 0.  1.
    9000005    2    1    2  501    0  0.79899151404E+02 -0.72431257683E+01 -0.91497090286E+03  0.97414749553E+03  0.32458473887E+03 0.  0.
         13    1    3    3    0    0 -0.11052749961E+03  0.53692216563E+02 -0.47910535853E+03  0.49461209736E+03  0.00000000000E+00 0.  1.
          1    1    3    3  501    0  0.19042665101E+03 -0.60935342332E+02 -0.43586554433E+03  0.47953539817E+03  0.00000000000E+00 0.  1.
         21    1    1    2  502  501 -0.79899151404E+02  0.72431257683E+01 -0.26417332656E+02  0.84464268958E+02  0.00000000000E+00 0.  1.
<mgrwt>
<rscale>  1 0.30000000E+03</rscale>
<asrwt>0</asrwt>
<pdfrwt beam="1">  1        1 0.21313414E+00 0.30000000E+03</pdfrwt>
<pdfrwt beam="2">0</pdfrwt>
<totfact> 0.88784706E+00</totfact>
</mgrwt>
</event>
<event>
 6    1  0.1969531E-004  0.3000000E+03  0.7818608E-02  0.1093470E+00
          1   -1    0    0  502    0  0.00000000000E+00  0.00000000000E+00  0.30020796895E+02  0.30020796895E+02  0.00000000000E+00 0.  1.
         13   -1    0    0    0    0 -0.00000000000E+00 -0.00000000000E+00 -0.10000000000E+04  0.10000000000E+04  0.00000000000E+00 0.  1.
    9000005    2    1    2  501    0 -0.97099585984E+01 -0.39593231004E+01 -0.96956580632E+03  0.10195264921E+04  0.31506579607E+03 0.  0.
         13    1    3    3    0    0 -0.11635713333E+03 -0.52493340171E+02 -0.17633902694E+03  0.21769241067E+03  0.00000000000E+00 0.  1.
          3    1    3    3  501    0  0.10664717473E+03  0.48534017070E+02 -0.79322677938E+03  0.80183408147E+03  0.00000000000E+00 0.  1.
         21    1    1    2  502  501  0.97099585984E+01  0.39593231004E+01 -0.41339678250E+00  0.10494304755E+02  0.00000000000E+00 0.  1.
<mgrwt>
<rscale>  1 0.30000000E+03</rscale>
<asrwt>0</asrwt>
<pdfrwt beam="1">  1        1 0.10916676E+00 0.30000000E+03</pdfrwt>
<pdfrwt beam="2">0</pdfrwt>
<totfact> 0.30052168E+01</totfact>
</mgrwt>
</event>
<event>
 6    1  0.1969531E-004  0.3000000E+03  0.7818608E-02  0.1093470E+00
          1   -1    0    0  502    0  0.00000000000E+00  0.00000000000E+00  0.32171822940E+02  0.32171822940E+02  0.00000000000E+00 0.  1.
         13   -1    0    0    0    0 -0.00000000000E+00 -0.00000000000E+00 -0.10000000000E+04  0.10000000000E+04  0.00000000000E+00 0.  1.
    9000005    2    1    2  501    0  0.92887486056E+01 -0.53205589893E+01 -0.96972806259E+03  0.10212998975E+04  0.32025985697E+03 0.  0.
         13    1    3    3    0    0 -0.12467113436E+03  0.20833651721E+02 -0.18050230229E+03  0.22035882990E+03  0.00000000000E+00 0.  1.
          3    1    3    3  501    0  0.13395988296E+03 -0.26154210710E+02 -0.78922576030E+03  0.80094106756E+03  0.00000000000E+00 0.  1.
         21    1    1    2  502  501 -0.92887486056E+01  0.53205589893E+01  0.18998855260E+01  0.10871925479E+02  0.00000000000E+00 0.  1.
<mgrwt>
<rscale>  1 0.30000000E+03</rscale>
<asrwt>0</asrwt>
<pdfrwt beam="1">  1        1 0.11698869E+00 0.30000000E+03</pdfrwt>
<pdfrwt beam="2">0</pdfrwt>
<totfact> 0.27042832E+01</totfact>
</mgrwt>
</event>
<event>
 6    1  0.1969531E-004  0.3000000E+03  0.7818608E-02  0.1093470E+00
          1   -1    0    0  502    0  0.00000000000E+00  0.00000000000E+00  0.28818898798E+02  0.28818898798E+02  0.00000000000E+00 0.  1.
         13   -1    0    0    0    0 -0.00000000000E+00 -0.00000000000E+00 -0.10000000000E+04  0.10000000000E+04  0.00000000000E+00 0.  1.
    9000005    2    1    2  501    0 -0.33885667953E+00  0.13827990983E+02 -0.95512617101E+03  0.10076271801E+04  0.32071046653E+03 0.  0.
         13    1    3    3    0    0  0.14882943087E+02  0.14900089925E+03 -0.72501609340E+03  0.74031824620E+03  0.00000000000E+00 0.  1.
          1    1    3    3  501    0 -0.15221799766E+02 -0.13517290826E+03 -0.23011007761E+03  0.26730893388E+03  0.00000000000E+00 0.  1.
         21    1    1    2  502  501  0.33885667953E+00 -0.13827990983E+02 -0.16054930192E+02  0.21191718711E+02  0.00000000000E+00 0. -1.
<mgrwt>
<rscale>  1 0.30000000E+03</rscale>
<asrwt>0</asrwt>
<pdfrwt beam="1">  1        1 0.10479622E+00 0.30000000E+03</pdfrwt>
<pdfrwt beam="2">0</pdfrwt>
<totfact> 0.31944734E+01</totfact>
</mgrwt>
</event>
<event>
 6    1  0.1969531E-004  0.3000000E+03  0.7818608E-02  0.1093470E+00
          1   -1    0    0  502    0  0.00000000000E+00  0.00000000000E+00  0.39438922843E+02  0.39438922843E+02  0.00000000000E+00 0.  1.
         13   -1    0    0    0    0 -0.00000000000E+00 -0.00000000000E+00 -0.10000000000E+04  0.10000000000E+04  0.00000000000E+00 0.  1.
    9000005    2    1    2  501    0 -0.35618361513E+01  0.66197941749E+01 -0.94451885807E+03  0.10217227962E+04  0.38954472218E+03 0.  0.
         13    1    3    3    0    0 -0.48225343559E+02 -0.13466959670E+03 -0.12826835919E+03  0.19213109068E+03  0.00000000000E+00 0.  1.
          3    1    3    3  501    0  0.44663507407E+02  0.14128939087E+03 -0.81625049888E+03  0.82959170547E+03  0.00000000000E+00 0.  1.
         21    1    1    2  502  501  0.35618361513E+01 -0.66197941749E+01 -0.16042219085E+02  0.17716126689E+02  0.00000000000E+00 0.  1.
<mgrwt>
<rscale>  1 0.30000000E+03</rscale>
<asrwt>0</asrwt>
<pdfrwt beam="1">  1        1 0.14341457E+00 0.30000000E+03</pdfrwt>
<pdfrwt beam="2">0</pdfrwt>
<totfact> 0.19419503E+01</totfact>
</mgrwt>
</event>
<event>
 6    1  0.1969531E-004  0.3000000E+03  0.7818608E-02  0.1093470E+00
          1   -1    0    0  502    0  0.00000000000E+00  0.00000000000E+00  0.36979366054E+02  0.36979366054E+02  0.00000000000E+00 0.  1.
         13   -1    0    0    0    0 -0.00000000000E+00 -0.00000000000E+00 -0.10000000000E+04  0.10000000000E+04  0.00000000000E+00 0.  1.
    9000005    2    1    2  501    0  0.36035415256E+02  0.21210183295E+02 -0.91996995709E+03  0.97696450284E+03  0.32613876624E+03 0.  0.
         13    1    3    3    0    0  0.15773110181E+03 -0.66157153241E+02 -0.38239249236E+03  0.41890319599E+03  0.00000000000E+00 0.  1.
          3    1    3    3  501    0 -0.12169568655E+03  0.87367336536E+02 -0.53757746473E+03  0.55806130685E+03  0.00000000000E+00 0.  1.
         21    1    1    2  502  501 -0.36035415256E+02 -0.21210183295E+02 -0.43050676858E+02  0.60014863209E+02  0.00000000000E+00 0.  1.
<mgrwt>
<rscale>  1 0.30000000E+03</rscale>
<asrwt>0</asrwt>
<pdfrwt beam="1">  1        1 0.13447071E+00 0.30000000E+03</pdfrwt>
<pdfrwt beam="2">0</pdfrwt>
<totfact> 0.21643036E+01</totfact>
</mgrwt>
</event>
<event>
 6    1  0.1969531E-004  0.3000000E+03  0.7818608E-02  0.1093470E+00
          1   -1    0    0  502    0  0.00000000000E+00  0.00000000000E+00  0.28786767882E+02  0.28786767882E+02  0.00000000000E+00 0.  1.
         13   -1    0    0    0    0 -0.00000000000E+00 -0.00000000000E+00 -0.10000000000E+04  0.10000000000E+04  0.00000000000E+00 0.  1.
    9000005    2    1    2  501    0  0.28331321071E+01  0.95096975985E+01 -0.96175083181E+03  0.10150755314E+04  0.32452305157E+03 0.  0.
         13    1    3    3    0    0 -0.44430062697E+02  0.10430386782E+03 -0.86249844942E+03  0.86991775621E+03  0.00000000000E+00 0.  1.
          1    1    3    3  501    0  0.47263194804E+02 -0.94794170226E+02 -0.99252382391E+02  0.14515777520E+03  0.00000000000E+00 0.  1.
         21    1    1    2  502  501 -0.28331321071E+01 -0.95096975985E+01 -0.94624003089E+01  0.13711236471E+02  0.00000000000E+00 0.  1.
<mgrwt>
<rscale>  1 0.30000000E+03</rscale>
<asrwt>0</asrwt>
<pdfrwt beam="1">  1        1 0.10467938E+00 0.30000000E+03</pdfrwt>
<pdfrwt beam="2">0</pdfrwt>
<totfact> 0.31997661E+01</totfact>
</mgrwt>
</event>
<event>
 6    1  0.1969531E-004  0.3000000E+03  0.7818608E-02  0.1093470E+00
          1   -1    0    0  502    0  0.00000000000E+00  0.00000000000E+00  0.30319066308E+02  0.30319066308E+02  0.00000000000E+00 0.  1.
         13   -1    0    0    0    0 -0.00000000000E+00 -0.00000000000E+00 -0.10000000000E+04  0.10000000000E+04  0.00000000000E+00 0.  1.
    9000005    2    1    2  501    0  0.18658985974E+02  0.14990555751E+02 -0.94611345385E+03  0.99672887987E+03  0.31267382026E+03 0.  0.
         13    1    3    3    0    0 -0.52211230575E+02  0.15100941582E+03 -0.50889685652E+03  0.53339091372E+03  0.00000000000E+00 0.  1.
          1    1    3    3  501    0  0.70870216548E+02 -0.13601886007E+03 -0.43721659733E+03  0.46333796614E+03  0.00000000000E+00 0.  1.
         21    1    1    2  502  501 -0.18658985974E+02 -0.14990555751E+02 -0.23567479838E+02  0.33590186442E+02  0.00000000000E+00 0. -1.
<mgrwt>
<rscale>  1 0.30000000E+03</rscale>
<asrwt>0</asrwt>
<pdfrwt beam="1">  1        1 0.11025138E+00 0.30000000E+03</pdfrwt>
<pdfrwt beam="2">0</pdfrwt>
<totfact> 0.29607393E+01</totfact>
</mgrwt>
</event>
<event>
 6    1  0.1969531E-004  0.3000000E+03  0.7818608E-02  0.1093470E+00
          1   -1    0    0  502    0  0.00000000000E+00  0.00000000000E+00  0.36358755825E+02  0.36358755825E+02  0.00000000000E+00 0.  1.
         13   -1    0    0    0    0 -0.00000000000E+00 -0.00000000000E+00 -0.10000000000E+04  0.10000000000E+04  0.00000000000E+00 0.  1.
    9000005    2    1    2  501    0 -0.11134417148E+02 -0.88566566357E+01 -0.96818354072E+03  0.10214239619E+04  0.32515400319E+03 0.  0.
         13    1    3    3    0    0 -0.29420419189E+02  0.10823943379E+03 -0.83760368648E+03  0.84508063029E+03  0.00000000000E+00 0.  1.
          3    1    3    3  501    0  0.18286002040E+02 -0.11709609043E+03 -0.13057985424E+03  0.17634333160E+03  0.00000000000E+00 0.  1.
         21    1    1    2  502  501  0.11134417148E+02  0.88566566357E+01  0.45422965452E+01  0.14934793936E+02  0.00000000000E+00 0.  1.
<mgrwt>
<rscale>  1 0.30000000E+03</rscale>
<asrwt>0</asrwt>
<pdfrwt beam="1">  1        1 0.13221394E+00 0.30000000E+03</pdfrwt>
<pdfrwt beam="2">0</pdfrwt>
<totfact> 0.22256043E+01</totfact>
</mgrwt>
</event>
<event>
 6    1  0.1969531E-004  0.3000000E+03  0.7818608E-02  0.1093470E+00
          3   -1    0    0  502    0  0.00000000000E+00  0.00000000000E+00  0.27744246562E+02  0.27744246562E+02  0.00000000000E+00 0.  1.
         13   -1    0    0    0    0 -0.00000000000E+00 -0.00000000000E+00 -0.10000000000E+04  0.10000000000E+04  0.00000000000E+00 0.  1.
    9000005    2    1    2  501    0  0.12934930011E+02  0.12201348790E+02 -0.94072178337E+03  0.99154235994E+03  0.31286193844E+03 0.  0.
         13    1    3    3    0    0 -0.68195207598E+02  0.23444473549E+02 -0.31589764398E+02  0.78728285223E+02  0.00000000000E+00 0.  1.
          3    1    3    3  501    0  0.81130137609E+02 -0.11243124759E+02 -0.90913201898E+03  0.91281407472E+03  0.00000000000E+00 0.  1.
         21    1    1    2  502  501 -0.12934930011E+02 -0.12201348790E+02 -0.31533970065E+02  0.36201886618E+02  0.00000000000E+00 0.  1.
<mgrwt>
<rscale>  1 0.30000000E+03</rscale>
<asrwt>0</asrwt>
<pdfrwt beam="1">  1        3 0.10088838E+00 0.30000000E+03</pdfrwt>
<pdfrwt beam="2">0</pdfrwt>
<totfact> 0.38268206E+00</totfact>
</mgrwt>
</event>
<event>
 6    1  0.1969531E-004  0.3000000E+03  0.7818608E-02  0.1093470E+00
          1   -1    0    0  502    0  0.00000000000E+00  0.00000000000E+00  0.51814870179E+02  0.51814870179E+02  0.00000000000E+00 0.  1.
         13   -1    0    0    0    0 -0.00000000000E+00 -0.00000000000E+00 -0.10000000000E+04  0.10000000000E+04  0.00000000000E+00 0.  1.
    9000005    2    1    2  501    0  0.14030087670E+02 -0.18350066813E+02 -0.96724546217E+03  0.10218671727E+04  0.32880870782E+03 0.  0.
         13    1    3    3    0    0  0.15488135518E+03 -0.77710272800E+02 -0.58726780502E+03  0.61229943287E+03  0.00000000000E+00 0.  1.
          3    1    3    3  501    0 -0.14085126751E+03  0.59360205987E+02 -0.37997765715E+03  0.40956773987E+03  0.00000000000E+00 0.  1.
         21    1    1    2  502  501 -0.14030087670E+02  0.18350066813E+02  0.19060332351E+02  0.29947697431E+02  0.00000000000E+00 0.  1.
<mgrwt>
<rscale>  1 0.30000000E+03</rscale>
<asrwt>0</asrwt>
<pdfrwt beam="1">  1        1 0.18841811E+00 0.30000000E+03</pdfrwt>
<pdfrwt beam="2">0</pdfrwt>
<totfact> 0.11635725E+01</totfact>
</mgrwt>
</event>
<event>
 6    1  0.1969531E-004  0.3000000E+03  0.7818608E-02  0.1093470E+00
          1   -1    0    0  502    0  0.00000000000E+00  0.00000000000E+00  0.36540676814E+02  0.36540676814E+02  0.00000000000E+00 0.  1.
         13   -1    0    0    0    0 -0.00000000000E+00 -0.00000000000E+00 -0.10000000000E+04  0.10000000000E+04  0.00000000000E+00 0.  1.
    9000005    2    1    2  501    0  0.20799699645E+01  0.39105949219E+02 -0.93160013407E+03  0.98605692229E+03  0.32077381854E+03 0.  0.
         13    1    3    3    0    0 -0.11486620626E+03 -0.14901618701E+02 -0.77349543240E+03  0.78211986775E+03  0.00000000000E+00 0.  1.
          3    1    3    3  501    0  0.11694617623E+03  0.54007567920E+02 -0.15810470167E+03  0.20393705455E+03  0.00000000000E+00 0.  1.
         21    1    1    2  502  501 -0.20799699645E+01 -0.39105949219E+02 -0.31859189114E+02  0.50483754519E+02  0.00000000000E+00 0.  1.
<mgrwt>
<rscale>  1 0.30000000E+03</rscale>
<asrwt>0</asrwt>
<pdfrwt beam="1">  1        1 0.13287547E+00 0.30000000E+03</pdfrwt>
<pdfrwt beam="2">0</pdfrwt>
<totfact> 0.22074001E+01</totfact>
</mgrwt>
</event>
<event>
 6    1  0.1969531E-004  0.3000000E+03  0.7818608E-02  0.1093470E+00
          1   -1    0    0  502    0  0.00000000000E+00  0.00000000000E+00  0.27004823119E+02  0.27004823119E+02  0.00000000000E+00 0.  1.
         13   -1    0    0    0    0 -0.00000000000E+00 -0.00000000000E+00 -0.10000000000E+04  0.10000000000E+04  0.00000000000E+00 0.  1.
    9000005    2    1    2  501    0 -0.16796748413E+02 -0.31312422415E+01 -0.92720905395E+03  0.97813454086E+03  0.31102831842E+03 0.  0.
         13    1    3    3    0    0  0.13094847302E+03  0.19950160483E+02 -0.23315882285E+03  0.26815769272E+03  0.00000000000E+00 0.  1.
          3    1    3    3  501    0 -0.14774522143E+03 -0.23081402725E+02 -0.69405023110E+03  0.70997684814E+03  0.00000000000E+00 0.  1.
         21    1    1    2  502  501  0.16796748413E+02  0.31312422415E+01 -0.45786122933E+02  0.48870282263E+02  0.00000000000E+00 0. -1.
<mgrwt>
<rscale>  1 0.30000000E+03</rscale>
<asrwt>0</asrwt>
<pdfrwt beam="1">  1        1 0.98199564E-01 0.30000000E+03</pdfrwt>
<pdfrwt beam="2">0</pdfrwt>
<totfact> 0.35145742E+01</totfact>
</mgrwt>
</event>
<event>
 6    1  0.1969531E-004  0.3000000E+03  0.7818608E-02  0.1093470E+00
          1   -1    0    0  502    0  0.00000000000E+00  0.00000000000E+00  0.45602850468E+02  0.45602850468E+02  0.00000000000E+00 0.  1.
         13   -1    0    0    0    0 -0.00000000000E+00 -0.00000000000E+00 -0.10000000000E+04  0.10000000000E+04  0.00000000000E+00 0.  1.
    9000005    2    1    2  501    0  0.60598681976E+01  0.13422226476E+02 -0.97208613574E+03  0.10225859350E+04  0.31703889495E+03 0.  0.
         13    1    3    3    0    0  0.23091289730E+02 -0.13153610200E+03 -0.22726532442E+03  0.26359909233E+03  0.00000000000E+00 0.  1.
          3    1    3    3  501    0 -0.17031421532E+02  0.14495832848E+03 -0.74482081132E+03  0.75898684263E+03  0.00000000000E+00 0.  1.
         21    1    1    2  502  501 -0.60598681976E+01 -0.13422226476E+02  0.17688986212E+02  0.23016915505E+02  0.00000000000E+00 0. -1.
<mgrwt>
<rscale>  1 0.30000000E+03</rscale>
<asrwt>0</asrwt>
<pdfrwt beam="1">  1        1 0.16582890E+00 0.30000000E+03</pdfrwt>
<pdfrwt beam="2">0</pdfrwt>
<totfact> 0.14975980E+01</totfact>
</mgrwt>
</event>
<event>
 6    1  0.1969531E-004  0.3000000E+03  0.7818608E-02  0.1093470E+00
          1   -1    0    0  502    0  0.00000000000E+00  0.00000000000E+00  0.31756566802E+02  0.31756566802E+02  0.00000000000E+00 0.  1.
         13   -1    0    0    0    0 -0.00000000000E+00 -0.00000000000E+00 -0.10000000000E+04  0.10000000000E+04  0.00000000000E+00 0.  1.
    9000005    2    1    2  501    0  0.52369174703E+01 -0.87657868314E+01 -0.96722285504E+03  0.10214947003E+04  0.32837038112E+03 0.  0.
         13    1    3    3    0    0  0.63340981735E+02 -0.67876301876E+02 -0.60104826949E+02  0.11059775109E+03  0.00000000000E+00 0.  1.
          1    1    3    3  501    0 -0.58104064265E+02  0.59110515044E+02 -0.90711802809E+03  0.91089694926E+03  0.00000000000E+00 0.  1.
         21    1    1    2  502  501 -0.52369174703E+01  0.87657868314E+01 -0.10205781539E+01  0.10261866455E+02  0.00000000000E+00 0. -1.
<mgrwt>
<rscale>  1 0.30000000E+03</rscale>
<asrwt>0</asrwt>
<pdfrwt beam="1">  1        1 0.11547867E+00 0.30000000E+03</pdfrwt>
<pdfrwt beam="2">0</pdfrwt>
<totfact> 0.27589596E+01</totfact>
</mgrwt>
</event>
<event>
 6    1  0.1969531E-004  0.3000000E+03  0.7818608E-02  0.1093470E+00
          1   -1    0    0  502    0  0.00000000000E+00  0.00000000000E+00  0.35121966107E+02  0.35121966107E+02  0.00000000000E+00 0.  1.
         13   -1    0    0    0    0 -0.00000000000E+00 -0.00000000000E+00 -0.10000000000E+04  0.10000000000E+04  0.00000000000E+00 0.  1.
    9000005    2    1    2  501    0 -0.14128631242E+02  0.87488488838E+01 -0.96234451680E+03  0.10183118713E+04  0.33252960423E+03 0.  0.
         13    1    3    3    0    0 -0.77364285365E+02  0.77435723443E+02 -0.92039180310E+02  0.14301305754E+03  0.00000000000E+00 0.  1.
          1    1    3    3  501    0  0.63235654123E+02 -0.68686874559E+02 -0.87030533649E+03  0.87529881379E+03  0.00000000000E+00 0.  1.
         21    1    1    2  502  501  0.14128631242E+02 -0.87488488838E+01 -0.25335170883E+01  0.16810094777E+02  0.00000000000E+00 0.  1.
<mgrwt>
<rscale>  1 0.30000000E+03</rscale>
<asrwt>0</asrwt>
<pdfrwt beam="1">  1        1 0.12771651E+00 0.30000000E+03</pdfrwt>
<pdfrwt beam="2">0</pdfrwt>
<totfact> 0.23547126E+01</totfact>
</mgrwt>
</event>
<event>
 6    1  0.1969531E-004  0.3000000E+03  0.7818608E-02  0.1093470E+00
          1   -1    0    0  502    0  0.00000000000E+00  0.00000000000E+00  0.36003986580E+02  0.36003986580E+02  0.00000000000E+00 0.  1.
         13   -1    0    0    0    0 -0.00000000000E+00 -0.00000000000E+00 -0.10000000000E+04  0.10000000000E+04  0.00000000000E+00 0.  1.
    9000005    2    1    2  501    0  0.60855317389E+01  0.40285152270E+02 -0.77956524526E+03  0.84712668399E+03  0.32900109410E+03 0.  0.
         13    1    3    3    0    0 -0.12418109684E+03  0.10072671121E+03 -0.23711876511E+03  0.28599322358E+03  0.00000000000E+00 0.  1.
          1    1    3    3  501    0  0.13026662858E+03 -0.60441558940E+02 -0.54244648015E+03  0.56113346041E+03  0.00000000000E+00 0.  1.
         21    1    1    2  502  501 -0.60855317389E+01 -0.40285152270E+02 -0.18443076816E+03  0.18887730259E+03  0.00000000000E+00 0.  1.
<mgrwt>
<rscale>  1 0.30000000E+03</rscale>
<asrwt>0</asrwt>
<pdfrwt beam="1">  1        1 0.13092386E+00 0.30000000E+03</pdfrwt>
<pdfrwt beam="2">0</pdfrwt>
<totfact> 0.22616755E+01</totfact>
</mgrwt>
</event>
<event>
 6    1  0.1969531E-004  0.3000000E+03  0.7818608E-02  0.1093470E+00
          3   -1    0    0  502    0  0.00000000000E+00  0.00000000000E+00  0.29360042329E+02  0.29360042329E+02  0.00000000000E+00 0.  1.
         13   -1    0    0    0    0 -0.00000000000E+00 -0.00000000000E+00 -0.10000000000E+04  0.10000000000E+04  0.00000000000E+00 0.  1.
    9000005    2    1    2  501    0  0.92416880093E+01  0.80265600099E+01 -0.95337717314E+03  0.10081978545E+04  0.32769657481E+03 0.  0.
         13    1    3    3    0    0  0.55847418648E+02 -0.28498589772E+02 -0.10630345942E+02  0.63593301875E+02  0.00000000000E+00 0.  1.
          1    1    3    3  501    0 -0.46605730638E+02  0.36525149782E+02 -0.94274682720E+03  0.94460455265E+03  0.00000000000E+00 0.  1.
         21    1    1    2  502  501 -0.92416880093E+01 -0.80265600099E+01 -0.17262784528E+02  0.21162187800E+02  0.00000000000E+00 0. -1.
<mgrwt>
<rscale>  1 0.30000000E+03</rscale>
<asrwt>0</asrwt>
<pdfrwt beam="1">  1        3 0.10676402E+00 0.30000000E+03</pdfrwt>
<pdfrwt beam="2">0</pdfrwt>
<totfact> 0.32805575E+00</totfact>
</mgrwt>
</event>
<event>
 6    1  0.1969531E-004  0.3000000E+03  0.7818608E-02  0.1093470E+00
          1   -1    0    0  502    0  0.00000000000E+00  0.00000000000E+00  0.23833874292E+02  0.23833874292E+02  0.00000000000E+00 0.  1.
         13   -1    0    0    0    0 -0.00000000000E+00 -0.00000000000E+00 -0.10000000000E+04  0.10000000000E+04  0.00000000000E+00 0.  1.
    9000005    2    1    2  501    0  0.13818259354E+02  0.82739888444E+01 -0.96017896483E+03  0.10011404282E+04  0.28298252468E+03 0.  0.
         13    1    3    3    0    0  0.14230125718E+03 -0.24137620364E+02 -0.60694167812E+03  0.62386735220E+03  0.00000000000E+00 0.  1.
          3    1    3    3  501    0 -0.12848299782E+03  0.32411609208E+02 -0.35323728672E+03  0.37727307599E+03  0.00000000000E+00 0.  1.
         21    1    1    2  502  501 -0.13818259354E+02 -0.82739888444E+01 -0.15987160874E+02  0.22693446098E+02  0.00000000000E+00 0.  1.
<mgrwt>
<rscale>  1 0.30000000E+03</rscale>
<asrwt>0</asrwt>
<pdfrwt beam="1">  1        1 0.86668817E-01 0.30000000E+03</pdfrwt>
<pdfrwt beam="2">0</pdfrwt>
<totfact> 0.42008678E+01</totfact>
</mgrwt>
</event>
<event>
 6    1  0.1969531E-004  0.3000000E+03  0.7818608E-02  0.1093470E+00
          1   -1    0    0  502    0  0.00000000000E+00  0.00000000000E+00  0.29561750806E+02  0.29561750806E+02  0.00000000000E+00 0.  1.
         13   -1    0    0    0    0 -0.00000000000E+00 -0.00000000000E+00 -0.10000000000E+04  0.10000000000E+04  0.00000000000E+00 0.  1.
    9000005    2    1    2  501    0 -0.98959864308E+01 -0.42395922647E+01 -0.94877894657E+03  0.10053743557E+04  0.33238562098E+03 0.  0.
         13    1    3    3    0    0 -0.29777579136E+02 -0.15916488003E+03 -0.33572279151E+03  0.37273308948E+03  0.00000000000E+00 0.  1.
          3    1    3    3  501    0  0.19881592705E+02  0.15492528776E+03 -0.61305615507E+03  0.63264126627E+03  0.00000000000E+00 0.  1.
         21    1    1    2  502  501  0.98959864308E+01  0.42395922647E+01 -0.21659302622E+02  0.24187395066E+02  0.00000000000E+00 0. -1.
<mgrwt>
<rscale>  1 0.30000000E+03</rscale>
<asrwt>0</asrwt>
<pdfrwt beam="1">  1        1 0.10749750E+00 0.30000000E+03</pdfrwt>
<pdfrwt beam="2">0</pdfrwt>
<totfact> 0.30755514E+01</totfact>
</mgrwt>
</event>
<event>
 6    1  0.1969531E-004  0.3000000E+03  0.7818608E-02  0.1093470E+00
          1   -1    0    0  502    0  0.00000000000E+00  0.00000000000E+00  0.42719536666E+02  0.42719536666E+02  0.00000000000E+00 0.  1.
         13   -1    0    0    0    0 -0.00000000000E+00 -0.00000000000E+00 -0.10000000000E+04  0.10000000000E+04  0.00000000000E+00 0.  1.
    9000005    2    1    2  501    0  0.25256400974E+02  0.82022925765E+01 -0.96158368482E+03  0.10158182150E+04  0.32640205204E+03 0.  0.
         13    1    3    3    0    0 -0.10558193384E+03  0.90078889776E+02 -0.23415495007E+03  0.27219531917E+03  0.00000000000E+00 0.  1.
          1    1    3    3  501    0  0.13083833482E+03 -0.81876597200E+02 -0.72742873474E+03  0.74362289580E+03  0.00000000000E+00 0.  1.
         21    1    1    2  502  501 -0.25256400974E+02 -0.82022925765E+01  0.43032214816E+01  0.26901321693E+02  0.00000000000E+00 0.  1.
<mgrwt>
<rscale>  1 0.30000000E+03</rscale>
<asrwt>0</asrwt>
<pdfrwt beam="1">  1        1 0.15534410E+00 0.30000000E+03</pdfrwt>
<pdfrwt beam="2">0</pdfrwt>
<totfact> 0.16882682E+01</totfact>
</mgrwt>
</event>
<event>
 6    1  0.1969531E-004  0.3000000E+03  0.7818608E-02  0.1093470E+00
          1   -1    0    0  502    0  0.00000000000E+00  0.00000000000E+00  0.39282643314E+02  0.39282643314E+02  0.00000000000E+00 0.  1.
         13   -1    0    0    0    0 -0.00000000000E+00 -0.00000000000E+00 -0.10000000000E+04  0.10000000000E+04  0.00000000000E+00 0.  1.
    9000005    2    1    2  501    0 -0.19611999783E+02 -0.37870091305E+01 -0.96529357202E+03  0.10187908469E+04  0.32518323692E+03 0.  0.
         13    1    3    3    0    0 -0.47060509576E+02 -0.16006963147E+03 -0.47373736203E+03  0.50225896375E+03  0.00000000000E+00 0.  1.
          1    1    3    3  501    0  0.27448509793E+02  0.15628262234E+03 -0.49155620998E+03  0.51653188315E+03  0.00000000000E+00 0.  1.
         21    1    1    2  502  501  0.19611999783E+02  0.37870091305E+01  0.45762153304E+01  0.20491796417E+02  0.00000000000E+00 0. -1.
<mgrwt>
<rscale>  1 0.30000000E+03</rscale>
<asrwt>0</asrwt>
<pdfrwt beam="1">  1        1 0.14284628E+00 0.30000000E+03</pdfrwt>
<pdfrwt beam="2">0</pdfrwt>
<totfact> 0.19551856E+01</totfact>
</mgrwt>
</event>
<event>
 6    1  0.1969531E-004  0.3000000E+03  0.7818608E-02  0.1093470E+00
          1   -1    0    0  502    0  0.00000000000E+00  0.00000000000E+00  0.54436698052E+02  0.54436698052E+02  0.00000000000E+00 0.  1.
         13   -1    0    0    0    0 -0.00000000000E+00 -0.00000000000E+00 -0.10000000000E+04  0.10000000000E+04  0.00000000000E+00 0.  1.
    9000005    2    1    2  501    0  0.35266073190E+01 -0.23930975788E+02 -0.96887607624E+03  0.10208418472E+04  0.32064325541E+03 0.  0.
         13    1    3    3    0    0  0.48496385283E+02  0.13514596683E+03 -0.59447923878E+03  0.61157329657E+03  0.00000000000E+00 0.  1.
          1    1    3    3  501    0 -0.44969777964E+02 -0.15907694262E+03 -0.37439683746E+03  0.40926855059E+03  0.00000000000E+00 0.  1.
         21    1    1    2  502  501 -0.35266073190E+01  0.23930975788E+02  0.23312774290E+02  0.33594850893E+02  0.00000000000E+00 0.  1.
<mgrwt>
<rscale>  1 0.30000000E+03</rscale>
<asrwt>0</asrwt>
<pdfrwt beam="1">  1        1 0.19795205E+00 0.30000000E+03</pdfrwt>
<pdfrwt beam="2">0</pdfrwt>
<totfact> 0.10475765E+01</totfact>
</mgrwt>
</event>
<event>
 6    1  0.1969531E-004  0.3000000E+03  0.7818608E-02  0.1093470E+00
          1   -1    0    0  502    0  0.00000000000E+00  0.00000000000E+00  0.44582310626E+02  0.44582310626E+02  0.00000000000E+00 0.  1.
         13   -1    0    0    0    0 -0.00000000000E+00 -0.00000000000E+00 -0.10000000000E+04  0.10000000000E+04  0.00000000000E+00 0.  1.
    9000005    2    1    2  501    0 -0.73124952807E+01 -0.11486942374E+02 -0.97058181761E+03  0.10242016036E+04  0.32676358088E+03 0.  0.
         13    1    3    3    0    0  0.12981556565E+03  0.16528775906E+02 -0.76108348777E+03  0.77225213297E+03  0.00000000000E+00 0.  1.
          3    1    3    3  501    0 -0.13712806093E+03 -0.28015718280E+02 -0.20949832983E+03  0.25194947066E+03  0.00000000000E+00 0.  1.
         21    1    1    2  502  501  0.73124952807E+01  0.11486942374E+02  0.15164128233E+02  0.20380706990E+02  0.00000000000E+00 0.  1.
<mgrwt>
<rscale>  1 0.30000000E+03</rscale>
<asrwt>0</asrwt>
<pdfrwt beam="1">  1        1 0.16211784E+00 0.30000000E+03</pdfrwt>
<pdfrwt beam="2">0</pdfrwt>
<totfact> 0.15620761E+01</totfact>
</mgrwt>
</event>
<event>
 6    1  0.1969531E-004  0.3000000E+03  0.7818608E-02  0.1093470E+00
          1   -1    0    0  502    0  0.00000000000E+00  0.00000000000E+00  0.29023209191E+02  0.29023209191E+02  0.00000000000E+00 0.  1.
         13   -1    0    0    0    0 -0.00000000000E+00 -0.00000000000E+00 -0.10000000000E+04  0.10000000000E+04  0.00000000000E+00 0.  1.
    9000005    2    1    2  501    0  0.92036842607E+01  0.42914393558E+01 -0.94688441628E+03  0.10028780994E+04  0.33025938321E+03 0.  0.
         13    1    3    3    0    0  0.45004931080E+02 -0.11337573290E+03 -0.13587953223E+03  0.18259996690E+03  0.00000000000E+00 0.  1.
          1    1    3    3  501    0 -0.35801246819E+02  0.11766717226E+03 -0.81100488405E+03  0.82027813250E+03  0.00000000000E+00 0.  1.
         21    1    1    2  502  501 -0.92036842607E+01 -0.42914393558E+01 -0.24092374527E+02  0.26145109792E+02  0.00000000000E+00 0. -1.
<mgrwt>
<rscale>  1 0.30000000E+03</rscale>
<asrwt>0</asrwt>
<pdfrwt beam="1">  1        1 0.10553917E+00 0.30000000E+03</pdfrwt>
<pdfrwt beam="2">0</pdfrwt>
<totfact> 0.31611137E+01</totfact>
</mgrwt>
</event>
<event>
 6    1  0.1969531E-004  0.3000000E+03  0.7818608E-02  0.1093470E+00
          1   -1    0    0  502    0  0.00000000000E+00  0.00000000000E+00  0.40294492174E+02  0.40294492174E+02  0.00000000000E+00 0.  1.
         13   -1    0    0    0    0 -0.00000000000E+00 -0.00000000000E+00 -0.10000000000E+04  0.10000000000E+04  0.00000000000E+00 0.  1.
    9000005    2    1    2  501    0  0.46866089232E+02 -0.74209554842E+01 -0.89317084154E+03  0.95857324208E+03  0.34475644641E+03 0.  0.
         13    1    3    3    0    0 -0.64641230955E+02 -0.15186226705E+03 -0.44948842675E+03  0.47883241607E+03  0.00000000000E+00 0.  1.
          3    1    3    3  501    0  0.11150732019E+03  0.14444131157E+03 -0.44368241479E+03  0.47974082601E+03  0.00000000000E+00 0.  1.
         21    1    1    2  502  501 -0.46866089232E+02  0.74209554842E+01 -0.66534666282E+02  0.81721250097E+02  0.00000000000E+00 0.  1.
<mgrwt>
<rscale>  1 0.30000000E+03</rscale>
<asrwt>0</asrwt>
<pdfrwt beam="1">  1        1 0.14652574E+00 0.30000000E+03</pdfrwt>
<pdfrwt beam="2">0</pdfrwt>
<totfact> 0.18714612E+01</totfact>
</mgrwt>
</event>
<event>
 6    1  0.1969531E-004  0.3000000E+03  0.7818608E-02  0.1093470E+00
          1   -1    0    0  502    0  0.00000000000E+00  0.00000000000E+00  0.46640012590E+02  0.46640012590E+02  0.00000000000E+00 0.  1.
         13   -1    0    0    0    0 -0.00000000000E+00 -0.00000000000E+00 -0.10000000000E+04  0.10000000000E+04  0.00000000000E+00 0.  1.
    9000005    2    1    2  501    0  0.11235406778E+01  0.25974452652E+02 -0.95696217249E+03  0.10203929123E+04  0.35319847317E+03 0.  0.
         13    1    3    3    0    0 -0.16609603041E+03  0.49652922893E+02 -0.35314414192E+03  0.39340067240E+03  0.00000000000E+00 0.  1.
          1    1    3    3  501    0  0.16721957109E+03 -0.23678470242E+02 -0.60381803056E+03  0.62699223994E+03  0.00000000000E+00 0.  1.
         21    1    1    2  502  501 -0.11235406778E+01 -0.25974452652E+02  0.36021850774E+01  0.26247100250E+02  0.00000000000E+00 0. -1.
<mgrwt>
<rscale>  1 0.30000000E+03</rscale>
<asrwt>0</asrwt>
<pdfrwt beam="1">  1        1 0.16960040E+00 0.30000000E+03</pdfrwt>
<pdfrwt beam="2">0</pdfrwt>
<totfact> 0.14351605E+01</totfact>
</mgrwt>
</event>
<event>
 6    1  0.1969531E-004  0.3000000E+03  0.7818608E-02  0.1093470E+00
          1   -1    0    0  502    0  0.00000000000E+00  0.00000000000E+00  0.33872008096E+02  0.33872008096E+02  0.00000000000E+00 0.  1.
         13   -1    0    0    0    0 -0.00000000000E+00 -0.00000000000E+00 -0.10000000000E+04  0.10000000000E+04  0.00000000000E+00 0.  1.
    9000005    2    1    2  501    0  0.23508338516E+02  0.66343255728E+01 -0.94966830462E+03  0.10044173385E+04  0.32617118945E+03 0.  0.
         13    1    3    3    0    0 -0.25478891849E+02  0.12180925701E+03 -0.14948875460E+03  0.19450850052E+03  0.00000000000E+00 0.  1.
          1    1    3    3  501    0  0.48987230364E+02 -0.11517493144E+03 -0.80017955001E+03  0.80990883797E+03  0.00000000000E+00 0.  1.
         21    1    1    2  502  501 -0.23508338516E+02 -0.66343255728E+01 -0.16459687289E+02  0.29454669600E+02  0.00000000000E+00 0.  1.
<mgrwt>
<rscale>  1 0.30000000E+03</rscale>
<asrwt>0</asrwt>
<pdfrwt beam="1">  1        1 0.12317120E+00 0.30000000E+03</pdfrwt>
<pdfrwt beam="2">0</pdfrwt>
<totfact> 0.24951484E+01</totfact>
</mgrwt>
</event>
<event>
 6    1  0.1969531E-004  0.3000000E+03  0.7818608E-02  0.1093470E+00
          1   -1    0    0  502    0  0.00000000000E+00  0.00000000000E+00  0.39944159430E+02  0.39944159430E+02  0.00000000000E+00 0.  1.
         13   -1    0    0    0    0 -0.00000000000E+00 -0.00000000000E+00 -0.10000000000E+04  0.10000000000E+04  0.00000000000E+00 0.  1.
    9000005    2    1    2  501    0 -0.67010242578E+01  0.37617377565E+02 -0.92940778639E+03  0.99096177437E+03  0.34168177306E+03 0.  0.
         13    1    3    3    0    0  0.11344885766E+03  0.10881903330E+03 -0.73478505167E+03  0.75141286752E+03  0.00000000000E+00 0.  1.
          1    1    3    3  501    0 -0.12014988192E+03 -0.71201655740E+02 -0.19462273472E+03  0.23954890685E+03  0.00000000000E+00 0.  1.
         21    1    1    2  502  501  0.67010242578E+01 -0.37617377565E+02 -0.30648054181E+02  0.48982385059E+02  0.00000000000E+00 0.  1.
<mgrwt>
<rscale>  1 0.30000000E+03</rscale>
<asrwt>0</asrwt>
<pdfrwt beam="1">  1        1 0.14525180E+00 0.30000000E+03</pdfrwt>
<pdfrwt beam="2">0</pdfrwt>
<totfact> 0.18999285E+01</totfact>
</mgrwt>
</event>
<event>
 6    1  0.1969531E-004  0.3000000E+03  0.7818608E-02  0.1093470E+00
          1   -1    0    0  502    0  0.00000000000E+00  0.00000000000E+00  0.32934269440E+02  0.32934269440E+02  0.00000000000E+00 0.  1.
         13   -1    0    0    0    0 -0.00000000000E+00 -0.00000000000E+00 -0.10000000000E+04  0.10000000000E+04  0.00000000000E+00 0.  1.
    9000005    2    1    2  501    0 -0.15959583593E+01  0.16707071027E+02 -0.96650157383E+03  0.10161416646E+04  0.31326812312E+03 0.  0.
         13    1    3    3    0    0  0.96415582955E+02  0.76952570314E+02 -0.16285621532E+03  0.20430322950E+03  0.00000000000E+00 0.  1.
          1    1    3    3  501    0 -0.98011541314E+02 -0.60245499288E+02 -0.80364535851E+03  0.81183843508E+03  0.00000000000E+00 0.  1.
         21    1    1    2  502  501  0.15959583593E+01 -0.16707071027E+02 -0.56415673174E+00  0.16792604866E+02  0.00000000000E+00 0. -1.
<mgrwt>
<rscale>  1 0.30000000E+03</rscale>
<asrwt>0</asrwt>
<pdfrwt beam="1">  1        1 0.11976123E+00 0.30000000E+03</pdfrwt>
<pdfrwt beam="2">0</pdfrwt>
<totfact> 0.26077000E+01</totfact>
</mgrwt>
</event>
<event>
 6    1  0.1969531E-004  0.3000000E+03  0.7818608E-02  0.1093470E+00
          1   -1    0    0  502    0  0.00000000000E+00  0.00000000000E+00  0.44044328648E+02  0.44044328648E+02  0.00000000000E+00 0.  1.
         13   -1    0    0    0    0 -0.00000000000E+00 -0.00000000000E+00 -0.10000000000E+04  0.10000000000E+04  0.00000000000E+00 0.  1.
    9000005    2    1    2  501    0 -0.19386146947E+01  0.15623090323E+02 -0.97025575866E+03  0.10227762381E+04  0.32315190984E+03 0.  0.
         13    1    3    3    0    0  0.79010986353E+02 -0.53697076201E+02 -0.75681946495E+02  0.12187644966E+03  0.00000000000E+00 0.  1.
          3    1    3    3  501    0 -0.80949601047E+02  0.69320166524E+02 -0.89457381217E+03  0.90089978844E+03  0.00000000000E+00 0.  1.
         21    1    1    2  502  501  0.19386146947E+01 -0.15623090323E+02  0.14300087313E+02  0.21268090543E+02  0.00000000000E+00 0.  1.
<mgrwt>
<rscale>  1 0.30000000E+03</rscale>
<asrwt>0</asrwt>
<pdfrwt beam="1">  1        1 0.16016153E+00 0.30000000E+03</pdfrwt>
<pdfrwt beam="2">0</pdfrwt>
<totfact> 0.15973508E+01</totfact>
</mgrwt>
</event>
<event>
 6    1  0.1969531E-004  0.3000000E+03  0.7818608E-02  0.1093470E+00
          1   -1    0    0  502    0  0.00000000000E+00  0.00000000000E+00  0.52963373631E+02  0.52963373631E+02  0.00000000000E+00 0.  1.
         13   -1    0    0    0    0 -0.00000000000E+00 -0.00000000000E+00 -0.10000000000E+04  0.10000000000E+04  0.00000000000E+00 0.  1.
    9000005    2    1    2  501    0  0.45359619321E+02 -0.41515718134E+02 -0.93433807812E+03  0.99017561173E+03  0.32199231036E+03 0.  0.
         13    1    3    3    0    0  0.16158313652E+03 -0.63126342449E+02 -0.75992874196E+03  0.77947786240E+03  0.00000000000E+00 0.  1.
          3    1    3    3  501    0 -0.11622351720E+03  0.21610624315E+02 -0.17440933616E+03  0.21069774933E+03  0.00000000000E+00 0.  1.
         21    1    1    2  502  501 -0.45359619321E+02  0.41515718134E+02 -0.12698548253E+02  0.62787761903E+02  0.00000000000E+00 0.  1.
<mgrwt>
<rscale>  1 0.30000000E+03</rscale>
<asrwt>0</asrwt>
<pdfrwt beam="1">  1        1 0.19259449E+00 0.30000000E+03</pdfrwt>
<pdfrwt beam="2">0</pdfrwt>
<totfact> 0.11111160E+01</totfact>
</mgrwt>
</event>
<event>
 6    1  0.1969531E-004  0.3000000E+03  0.7818608E-02  0.1093470E+00
          1   -1    0    0  502    0  0.00000000000E+00  0.00000000000E+00  0.31127243881E+02  0.31127243881E+02  0.00000000000E+00 0.  1.
         13   -1    0    0    0    0 -0.00000000000E+00 -0.00000000000E+00 -0.10000000000E+04  0.10000000000E+04  0.00000000000E+00 0.  1.
    9000005    2    1    2  501    0 -0.77055834404E+01  0.15808598406E+02 -0.93176953204E+03  0.99006708026E+03  0.33425899356E+03 0.  0.
         13    1    3    3    0    0  0.81151277179E+02 -0.80913206323E+02 -0.78413633435E+03  0.79246594097E+03  0.00000000000E+00 0.  1.
          3    1    3    3  501    0 -0.88856860619E+02  0.96721804729E+02 -0.14763319769E+03  0.19760113930E+03  0.00000000000E+00 0.  1.
         21    1    1    2  502  501  0.77055834404E+01 -0.15808598406E+02 -0.37103224075E+02  0.41060163620E+02  0.00000000000E+00 0. -1.
<mgrwt>
<rscale>  1 0.30000000E+03</rscale>
<asrwt>0</asrwt>
<pdfrwt beam="1">  1        1 0.11319022E+00 0.30000000E+03</pdfrwt>
<pdfrwt beam="2">0</pdfrwt>
<totfact> 0.28448150E+01</totfact>
</mgrwt>
</event>
<event>
 6    1  0.1969531E-004  0.3000000E+03  0.7818608E-02  0.1093470E+00
          1   -1    0    0  502    0  0.00000000000E+00  0.00000000000E+00  0.31871650943E+02  0.31871650943E+02  0.00000000000E+00 0.  1.
         13   -1    0    0    0    0 -0.00000000000E+00 -0.00000000000E+00 -0.10000000000E+04  0.10000000000E+04  0.00000000000E+00 0.  1.
    9000005    2    1    2  501    0 -0.72299164742E+01  0.10048609571E+02 -0.96658173092E+03  0.10193961440E+04  0.32362788748E+03 0.  0.
         13    1    3    3    0    0 -0.77108690759E+02 -0.10040192393E+03 -0.78795403494E+03  0.79805880591E+03  0.00000000000E+00 0.  1.
          3    1    3    3  501    0  0.69878774285E+02  0.11045053351E+03 -0.17862769598E+03  0.22133733806E+03  0.00000000000E+00 0.  1.
         21    1    1    2  502  501  0.72299164742E+01 -0.10048609571E+02 -0.15466181403E+01  0.12475506972E+02  0.00000000000E+00 0.  1.
<mgrwt>
<rscale>  1 0.30000000E+03</rscale>
<asrwt>0</asrwt>
<pdfrwt beam="1">  1        1 0.11589716E+00 0.30000000E+03</pdfrwt>
<pdfrwt beam="2">0</pdfrwt>
<totfact> 0.27436540E+01</totfact>
</mgrwt>
</event>
<event>
 6    1  0.1969531E-004  0.3000000E+03  0.7818608E-02  0.1093470E+00
          1   -1    0    0  502    0  0.00000000000E+00  0.00000000000E+00  0.26227335822E+02  0.26227335822E+02  0.00000000000E+00 0.  1.
         13   -1    0    0    0    0 -0.00000000000E+00 -0.00000000000E+00 -0.10000000000E+04  0.10000000000E+04  0.00000000000E+00 0.  1.
    9000005    2    1    2  501    0  0.42766630783E+02 -0.85728936198E+02 -0.86931077184E+03  0.88448559123E+03  0.13204206845E+03 0.  0.
         13    1    3    3    0    0 -0.40364033302E+02 -0.24061015235E+02 -0.45584927631E+03  0.45826493468E+03  0.00000000000E+00 0.  1.
          1    1    3    3  501    0  0.83130664086E+02 -0.61667920963E+02 -0.41346149552E+03  0.42622065655E+03  0.00000000000E+00 0.  1.
         21    1    1    2  502  501 -0.42766630783E+02  0.85728936198E+02 -0.10446189234E+03  0.14174174460E+03  0.00000000000E+00 0.  1.
<mgrwt>
<rscale>  1 0.30000000E+03</rscale>
<asrwt>0</asrwt>
<pdfrwt beam="1">  1        1 0.95372331E-01 0.30000000E+03</pdfrwt>
<pdfrwt beam="2">0</pdfrwt>
<totfact> 0.36663917E+01</totfact>
</mgrwt>
</event>
<event>
 6    1  0.1969531E-004  0.3000000E+03  0.7818608E-02  0.1093470E+00
          1   -1    0    0  502    0  0.00000000000E+00  0.00000000000E+00  0.30882073129E+02  0.30882073129E+02  0.00000000000E+00 0.  1.
         13   -1    0    0    0    0 -0.00000000000E+00 -0.00000000000E+00 -0.10000000000E+04  0.10000000000E+04  0.00000000000E+00 0.  1.
    9000005    2    1    2  501    0  0.28183817260E+02  0.86179231127E+01 -0.90588442813E+03  0.96111767306E+03  0.31976864791E+03 0.  0.
         13    1    3    3    0    0 -0.38707989035E+02 -0.31469303670E+02  0.19651848733E+01  0.49924817879E+02  0.00000000000E+00 0.  1.
          3    1    3    3  501    0  0.66891806295E+02  0.40087226783E+02 -0.90784961300E+03  0.91119285518E+03  0.00000000000E+00 0.  1.
         21    1    1    2  502  501 -0.28183817260E+02 -0.86179231127E+01 -0.63233498741E+02  0.69764400070E+02  0.00000000000E+00 0.  1.
<mgrwt>
<rscale>  1 0.30000000E+03</rscale>
<asrwt>0</asrwt>
<pdfrwt beam="1">  1        1 0.11229868E+00 0.30000000E+03</pdfrwt>
<pdfrwt beam="2">0</pdfrwt>
<totfact> 0.28792905E+01</totfact>
</mgrwt>
</event>
<event>
 6    1  0.1969531E-004  0.3000000E+03  0.7818608E-02  0.1093470E+00
          1   -1    0    0  502    0  0.00000000000E+00  0.00000000000E+00  0.35364538640E+02  0.35364538640E+02  0.00000000000E+00 0.  1.
         13   -1    0    0    0    0 -0.00000000000E+00 -0.00000000000E+00 -0.10000000000E+04  0.10000000000E+04  0.00000000000E+00 0.  1.
    9000005    2    1    2  501    0 -0.10635870630E+02  0.17726575202E+01 -0.96792436336E+03  0.10240915206E+04  0.33431961561E+03 0.  0.
         13    1    3    3    0    0 -0.14941593112E+03  0.82197436061E+02 -0.42398781997E+03  0.45699804206E+03  0.00000000000E+00 0.  1.
          3    1    3    3  501    0  0.13878006049E+03 -0.80424778541E+02 -0.54393654339E+03  0.56709347857E+03  0.00000000000E+00 0.  1.
         21    1    1    2  502  501  0.10635870630E+02 -0.17726575202E+01  0.32889019983E+01  0.11273018012E+02  0.00000000000E+00 0.  1.
<mgrwt>
<rscale>  1 0.30000000E+03</rscale>
<asrwt>0</asrwt>
<pdfrwt beam="1">  1        1 0.12859859E+00 0.30000000E+03</pdfrwt>
<pdfrwt beam="2">0</pdfrwt>
<totfact> 0.23286395E+01</totfact>
</mgrwt>
</event>
<event>
 6    1  0.1969531E-004  0.3000000E+03  0.7818608E-02  0.1093470E+00
          1   -1    0    0  502    0  0.00000000000E+00  0.00000000000E+00  0.35957119368E+02  0.35957119368E+02  0.00000000000E+00 0.  1.
         13   -1    0    0    0    0 -0.00000000000E+00 -0.00000000000E+00 -0.10000000000E+04  0.10000000000E+04  0.00000000000E+00 0.  1.
    9000005    2    1    2  501    0 -0.20831303889E+00  0.17359817395E+02 -0.96619297886E+03  0.10184634183E+04  0.32161693890E+03 0.  0.
         13    1    3    3    0    0 -0.77373346672E+01 -0.13195153867E+03 -0.70696141661E+03  0.71921173480E+03  0.00000000000E+00 0.  1.
          1    1    3    3  501    0  0.75290216283E+01  0.14931135606E+03 -0.25923156225E+03  0.29925168351E+03  0.00000000000E+00 0.  1.
         21    1    1    2  502  501  0.20831303889E+00 -0.17359817395E+02  0.21500982250E+01  0.17493701057E+02  0.00000000000E+00 0.  1.
<mgrwt>
<rscale>  1 0.30000000E+03</rscale>
<asrwt>0</asrwt>
<pdfrwt beam="1">  1        1 0.13075344E+00 0.30000000E+03</pdfrwt>
<pdfrwt beam="2">0</pdfrwt>
<totfact> 0.22664978E+01</totfact>
</mgrwt>
</event>
<event>
 6    1  0.1969531E-004  0.3000000E+03  0.7818608E-02  0.1093470E+00
          1   -1    0    0  502    0  0.00000000000E+00  0.00000000000E+00  0.30886425203E+02  0.30886425203E+02  0.00000000000E+00 0.  1.
         13   -1    0    0    0    0 -0.00000000000E+00 -0.00000000000E+00 -0.10000000000E+04  0.10000000000E+04  0.00000000000E+00 0.  1.
    9000005    2    1    2  501    0  0.36936433811E+01  0.10379932353E+02 -0.96741606868E+03  0.10197388908E+04  0.32226102681E+03 0.  0.
         13    1    3    3    0    0  0.66067279329E+02  0.10206555597E+03 -0.84840487117E+03  0.85707239399E+03  0.00000000000E+00 0.  1.
          3    1    3    3  501    0 -0.62373635948E+02 -0.91685623622E+02 -0.11901119751E+03  0.16266649677E+03  0.00000000000E+00 0.  1.
         21    1    1    2  502  501 -0.36936433811E+01 -0.10379932353E+02 -0.16975061211E+01  0.11147534441E+02  0.00000000000E+00 0. -1.
<mgrwt>
<rscale>  1 0.30000000E+03</rscale>
<asrwt>0</asrwt>
<pdfrwt beam="1">  1        1 0.11231451E+00 0.30000000E+03</pdfrwt>
<pdfrwt beam="2">0</pdfrwt>
<totfact> 0.28786733E+01</totfact>
</mgrwt>
</event>
<event>
 6    1  0.1969531E-004  0.3000000E+03  0.7818608E-02  0.1093470E+00
          1   -1    0    0  502    0  0.00000000000E+00  0.00000000000E+00  0.24033471970E+02  0.24033471970E+02  0.00000000000E+00 0.  1.
         13   -1    0    0    0    0 -0.00000000000E+00 -0.00000000000E+00 -0.10000000000E+04  0.10000000000E+04  0.00000000000E+00 0.  1.
    9000005    2    1    2  501    0 -0.33627162434E+01  0.10530113108E+02 -0.94627877165E+03  0.99235455120E+03  0.29866678834E+03 0.  0.
         13    1    3    3    0    0  0.14480443070E+03  0.33823813224E+02 -0.48841909459E+03  0.51055419443E+03  0.00000000000E+00 0.  1.
          3    1    3    3  501    0 -0.14816714695E+03 -0.23293700116E+02 -0.45785967707E+03  0.48180035677E+03  0.00000000000E+00 0.  1.
         21    1    1    2  502  501  0.33627162434E+01 -0.10530113108E+02 -0.29687756377E+02  0.31678920772E+02  0.00000000000E+00 0.  1.
<mgrwt>
<rscale>  1 0.30000000E+03</rscale>
<asrwt>0</asrwt>
<pdfrwt beam="1">  1        1 0.87394628E-01 0.30000000E+03</pdfrwt>
<pdfrwt beam="2">0</pdfrwt>
<totfact> 0.41519037E+01</totfact>
</mgrwt>
</event>
<event>
 6    1  0.1969531E-004  0.3000000E+03  0.7818608E-02  0.1093470E+00
          1   -1    0    0  502    0  0.00000000000E+00  0.00000000000E+00  0.26055569173E+02  0.26055569173E+02  0.00000000000E+00 0.  1.
         13   -1    0    0    0    0 -0.00000000000E+00 -0.00000000000E+00 -0.10000000000E+04  0.10000000000E+04  0.00000000000E+00 0.  1.
    9000005    2    1    2  501    0 -0.10054742696E+01  0.19920968739E+02 -0.94288519428E+03  0.98914307604E+03  0.29828456099E+03 0.  0.
         13    1    3    3    0    0  0.76804140781E+02 -0.79189377935E+02 -0.14939949011E+03  0.18571494626E+03  0.00000000000E+00 0.  1.
          3    1    3    3  501    0 -0.77809615051E+02  0.99110346673E+02 -0.79348570417E+03  0.80342812979E+03  0.00000000000E+00 0.  1.
         21    1    1    2  502  501  0.10054742696E+01 -0.19920968739E+02 -0.31059236551E+02  0.36912493131E+02  0.00000000000E+00 0.  1.
<mgrwt>
<rscale>  1 0.30000000E+03</rscale>
<asrwt>0</asrwt>
<pdfrwt beam="1">  1        1 0.94747724E-01 0.30000000E+03</pdfrwt>
<pdfrwt beam="2">0</pdfrwt>
<totfact> 0.37012458E+01</totfact>
</mgrwt>
</event>
<event>
 6    1  0.1969531E-004  0.3000000E+03  0.7818608E-02  0.1093470E+00
          1   -1    0    0  502    0  0.00000000000E+00  0.00000000000E+00  0.33140265104E+02  0.33140265104E+02  0.00000000000E+00 0.  1.
         13   -1    0    0    0    0 -0.00000000000E+00 -0.00000000000E+00 -0.10000000000E+04  0.10000000000E+04  0.00000000000E+00 0.  1.
    9000005    2    1    2  501    0 -0.12032963487E+02  0.15826087316E+02 -0.93363216870E+03  0.99441910286E+03  0.34176756496E+03 0.  0.
         13    1    3    3    0    0 -0.91015554807E+02 -0.13132743249E+03 -0.60553359551E+03  0.62626005863E+03  0.00000000000E+00 0.  1.
          3    1    3    3  501    0  0.78982591320E+02  0.14715351980E+03 -0.32809857318E+03  0.36815904423E+03  0.00000000000E+00 0.  1.
         21    1    1    2  502  501  0.12032963487E+02 -0.15826087316E+02 -0.33227566199E+02  0.38721162244E+02  0.00000000000E+00 0. -1.
<mgrwt>
<rscale>  1 0.30000000E+03</rscale>
<asrwt>0</asrwt>
<pdfrwt beam="1">  1        1 0.12051031E+00 0.30000000E+03</pdfrwt>
<pdfrwt beam="2">0</pdfrwt>
<totfact> 0.25824073E+01</totfact>
</mgrwt>
</event>
<event>
 6    1  0.1969531E-004  0.3000000E+03  0.7818608E-02  0.1093470E+00
          1   -1    0    0  502    0  0.00000000000E+00  0.00000000000E+00  0.27514542674E+02  0.27514542674E+02  0.00000000000E+00 0.  1.
         13   -1    0    0    0    0 -0.00000000000E+00 -0.00000000000E+00 -0.10000000000E+04  0.10000000000E+04  0.00000000000E+00 0.  1.
    9000005    2    1    2  501    0  0.27574939780E+01 -0.76866133129E+01 -0.95426477105E+03  0.10075475398E+04  0.32320907134E+03 0.  0.
         13    1    3    3    0    0 -0.40069389282E+02  0.10038705058E+03 -0.10612568212E+03  0.15147863311E+03  0.00000000000E+00 0.  1.
          1    1    3    3  501    0  0.42826883260E+02 -0.10807366390E+03 -0.84813908893E+03  0.85606890665E+03  0.00000000000E+00 0.  1.
         21    1    1    2  502  501 -0.27574939780E+01  0.76866133129E+01 -0.18220686271E+02  0.19967002916E+02  0.00000000000E+00 0.  1.
<mgrwt>
<rscale>  1 0.30000000E+03</rscale>
<asrwt>0</asrwt>
<pdfrwt beam="1">  1        1 0.10005309E+00 0.30000000E+03</pdfrwt>
<pdfrwt beam="2">0</pdfrwt>
<totfact> 0.34200395E+01</totfact>
</mgrwt>
</event>
<event>
 6    1  0.1969531E-004  0.3000000E+03  0.7818608E-02  0.1093470E+00
          1   -1    0    0  502    0  0.00000000000E+00  0.00000000000E+00  0.28899155231E+02  0.28899155231E+02  0.00000000000E+00 0.  1.
         13   -1    0    0    0    0 -0.00000000000E+00 -0.00000000000E+00 -0.10000000000E+04  0.10000000000E+04  0.00000000000E+00 0.  1.
    9000005    2    1    2  501    0  0.61554986004E+01 -0.13460256298E+02 -0.94212360656E+03  0.99636073184E+03  0.32391163803E+03 0.  0.
         13    1    3    3    0    0  0.98295398465E+02  0.34510788801E+02 -0.85343931150E+03  0.85977417868E+03  0.00000000000E+00 0.  1.
          1    1    3    3  501    0 -0.92139899864E+02 -0.47971045099E+02 -0.88684295060E+02  0.13658655316E+03  0.00000000000E+00 0.  1.
         21    1    1    2  502  501 -0.61554986004E+01  0.13460256298E+02 -0.28977238208E+02  0.32538423391E+02  0.00000000000E+00 0. -1.
<mgrwt>
<rscale>  1 0.30000000E+03</rscale>
<asrwt>0</asrwt>
<pdfrwt beam="1">  1        1 0.10508806E+00 0.30000000E+03</pdfrwt>
<pdfrwt beam="2">0</pdfrwt>
<totfact> 0.31813087E+01</totfact>
</mgrwt>
</event>
<event>
 6    1  0.1969531E-004  0.3000000E+03  0.7818608E-02  0.1093470E+00
          1   -1    0    0  502    0  0.00000000000E+00  0.00000000000E+00  0.34769466210E+02  0.34769466210E+02  0.00000000000E+00 0.  1.
         13   -1    0    0    0    0 -0.00000000000E+00 -0.00000000000E+00 -0.10000000000E+04  0.10000000000E+04  0.00000000000E+00 0.  1.
    9000005    2    1    2  501    0  0.27390726828E+02 -0.52984488836E+02 -0.87708049964E+03  0.92833621721E+03  0.29829569449E+03 0.  0.
         13    1    3    3    0    0  0.61403281503E+02  0.30075806629E+01 -0.85786255453E+03  0.86006253899E+03  0.00000000000E+00 0.  1.
          1    1    3    3  501    0 -0.34012554675E+02 -0.55992069499E+02 -0.19217945118E+02  0.68273678214E+02  0.00000000000E+00 0.  1.
         21    1    1    2  502  501 -0.27390726828E+02  0.52984488836E+02 -0.88150034146E+02  0.10643324900E+03  0.00000000000E+00 0.  1.
<mgrwt>
<rscale>  1 0.30000000E+03</rscale>
<asrwt>0</asrwt>
<pdfrwt beam="1">  1        1 0.12643469E+00 0.30000000E+03</pdfrwt>
<pdfrwt beam="2">0</pdfrwt>
<totfact> 0.23932735E+01</totfact>
</mgrwt>
</event>
<event>
 6    1  0.1969531E-004  0.3000000E+03  0.7818608E-02  0.1093470E+00
          1   -1    0    0  502    0  0.00000000000E+00  0.00000000000E+00  0.28076994762E+02  0.28076994762E+02  0.00000000000E+00 0.  1.
         13   -1    0    0    0    0 -0.00000000000E+00 -0.00000000000E+00 -0.10000000000E+04  0.10000000000E+04  0.00000000000E+00 0.  1.
    9000005    2    1    2  501    0  0.11931012404E+02  0.68034955118E+00 -0.95088282187E+03  0.10038798617E+04  0.32164238504E+03 0.  0.
         13    1    3    3    0    0  0.14249804490E+03 -0.84387516939E+02 -0.46426334476E+03  0.49291723352E+03  0.00000000000E+00 0.  1.
          1    1    3    3  501    0 -0.13056703250E+03  0.85067866490E+02 -0.48661947710E+03  0.51096262817E+03  0.00000000000E+00 0.  1.
         21    1    1    2  502  501 -0.11931012404E+02 -0.68034955118E+00 -0.21040183373E+02  0.24197133071E+02  0.00000000000E+00 0. -1.
<mgrwt>
<rscale>  1 0.30000000E+03</rscale>
<asrwt>0</asrwt>
<pdfrwt beam="1">  1        1 0.10209838E+00 0.30000000E+03</pdfrwt>
<pdfrwt beam="2">0</pdfrwt>
<totfact> 0.33200066E+01</totfact>
</mgrwt>
</event>
<event>
 6    1  0.1969531E-004  0.3000000E+03  0.7818608E-02  0.1093470E+00
          1   -1    0    0  502    0  0.00000000000E+00  0.00000000000E+00  0.40606157207E+02  0.40606157207E+02  0.00000000000E+00 0.  1.
         13   -1    0    0    0    0 -0.00000000000E+00 -0.00000000000E+00 -0.10000000000E+04  0.10000000000E+04  0.00000000000E+00 0.  1.
    9000005    2    1    2  501    0  0.95011689728E+01 -0.64554448498E+01 -0.97063267444E+03  0.10245358020E+04  0.32774056185E+03 0.  0.
         13    1    3    3    0    0 -0.68951376906E+02 -0.29742098189E+02 -0.93025528904E+03  0.93328119426E+03  0.00000000000E+00 0.  1.
          3    1    3    3  501    0  0.78452545879E+02  0.23286653339E+02 -0.40377385402E+02  0.91254607722E+02  0.00000000000E+00 0.  1.
         21    1    1    2  502  501 -0.95011689728E+01  0.64554448498E+01  0.11238831649E+02  0.16070355220E+02  0.00000000000E+00 0. -1.
<mgrwt>
<rscale>  1 0.30000000E+03</rscale>
<asrwt>0</asrwt>
<pdfrwt beam="1">  1        1 0.14765906E+00 0.30000000E+03</pdfrwt>
<pdfrwt beam="2">0</pdfrwt>
<totfact> 0.18465845E+01</totfact>
</mgrwt>
</event>
<event>
 6    1  0.1969531E-004  0.3000000E+03  0.7818608E-02  0.1093470E+00
          1   -1    0    0  502    0  0.00000000000E+00  0.00000000000E+00  0.34925066438E+02  0.34925066438E+02  0.00000000000E+00 0.  1.
         13   -1    0    0    0    0 -0.00000000000E+00 -0.00000000000E+00 -0.10000000000E+04  0.10000000000E+04  0.00000000000E+00 0.  1.
    9000005    2    1    2  501    0  0.26038771237E+01 -0.96152532247E+01 -0.97032170908E+03  0.10236662066E+04  0.32598934068E+03 0.  0.
         13    1    3    3    0    0  0.15413140323E+03 -0.56164657954E+02 -0.41768267416E+03  0.44874243677E+03  0.00000000000E+00 0.  1.
          1    1    3    3  501    0 -0.15152752610E+03  0.46549404729E+02 -0.55263903491E+03  0.57492376987E+03  0.00000000000E+00 0.  1.
         21    1    1    2  502  501 -0.26038771237E+01  0.96152532247E+01  0.52467755148E+01  0.11258859798E+02  0.00000000000E+00 0.  1.
<mgrwt>
<rscale>  1 0.30000000E+03</rscale>
<asrwt>0</asrwt>
<pdfrwt beam="1">  1        1 0.12700051E+00 0.30000000E+03</pdfrwt>
<pdfrwt beam="2">0</pdfrwt>
<totfact> 0.23761530E+01</totfact>
</mgrwt>
</event>
<event>
 6    1  0.1969531E-004  0.3000000E+03  0.7818608E-02  0.1093470E+00
          1   -1    0    0  502    0  0.00000000000E+00  0.00000000000E+00  0.38721157222E+02  0.38721157222E+02  0.00000000000E+00 0.  1.
         13   -1    0    0    0    0 -0.00000000000E+00 -0.00000000000E+00 -0.10000000000E+04  0.10000000000E+04  0.00000000000E+00 0.  1.
    9000005    2    1    2  501    0 -0.16862616742E+02 -0.15354589614E+02 -0.96095560924E+03  0.10159129187E+04  0.32882102143E+03 0.  0.
         13    1    3    3    0    0  0.37914848994E+02 -0.15792798881E+03 -0.34522707208E+03  0.38152393991E+03  0.00000000000E+00 0.  1.
          1    1    3    3  501    0 -0.54777465736E+02  0.14257339920E+03 -0.61572853716E+03  0.63438897877E+03  0.00000000000E+00 0.  1.
         21    1    1    2  502  501  0.16862616742E+02  0.15354589614E+02 -0.32323353501E+00  0.22808238545E+02  0.00000000000E+00 0. -1.
<mgrwt>
<rscale>  1 0.30000000E+03</rscale>
<asrwt>0</asrwt>
<pdfrwt beam="1">  1        1 0.14080450E+00 0.30000000E+03</pdfrwt>
<pdfrwt beam="2">0</pdfrwt>
<totfact> 0.20036914E+01</totfact>
</mgrwt>
</event>
<event>
 6    1  0.1969531E-004  0.3000000E+03  0.7818608E-02  0.1093470E+00
          1   -1    0    0  502    0  0.00000000000E+00  0.00000000000E+00  0.42907063200E+02  0.42907063200E+02  0.00000000000E+00 0.  1.
         13   -1    0    0    0    0 -0.00000000000E+00 -0.00000000000E+00 -0.10000000000E+04  0.10000000000E+04  0.00000000000E+00 0.  1.
    9000005    2    1    2  501    0  0.37186636132E+02  0.14523567684E+02 -0.94510266693E+03  0.10012231755E+04  0.32807775926E+03 0.  0.
         13    1    3    3    0    0 -0.13508461731E+03  0.22193355066E+02 -0.24975370436E+03  0.28481101047E+03  0.00000000000E+00 0.  1.
          3    1    3    3  501    0  0.17227125344E+03 -0.76697873827E+01 -0.69534896258E+03  0.71641216500E+03  0.00000000000E+00 0.  1.
         21    1    1    2  502  501 -0.37186636132E+02 -0.14523567684E+02 -0.11990269866E+02  0.41683887733E+02  0.00000000000E+00 0.  1.
<mgrwt>
<rscale>  1 0.30000000E+03</rscale>
<asrwt>0</asrwt>
<pdfrwt beam="1">  1        1 0.15602601E+00 0.30000000E+03</pdfrwt>
<pdfrwt beam="2">0</pdfrwt>
<totfact> 0.16750329E+01</totfact>
</mgrwt>
</event>
<event>
 6    1  0.1969531E-004  0.3000000E+03  0.7818608E-02  0.1093470E+00
          1   -1    0    0  502    0  0.00000000000E+00  0.00000000000E+00  0.57313048296E+02  0.57313048296E+02  0.00000000000E+00 0.  1.
         13   -1    0    0    0    0 -0.00000000000E+00 -0.00000000000E+00 -0.10000000000E+04  0.10000000000E+04  0.00000000000E+00 0.  1.
    9000005    2    1    2  501    0 -0.16770252282E+02  0.11022525316E+03 -0.80529473736E+03  0.88037388260E+03  0.33782793157E+03 0.  0.
         13    1    3    3    0    0 -0.17018600850E+03  0.76595753483E+02 -0.32171365392E+03  0.37192722683E+03  0.00000000000E+00 0.  1.
          1    1    3    3  501    0  0.15341575621E+03  0.33629499673E+02 -0.48358108344E+03  0.50844665577E+03  0.00000000000E+00 0.  1.
         21    1    1    2  502  501  0.16770252282E+02 -0.11022525316E+03 -0.13739221434E+03  0.17693916569E+03  0.00000000000E+00 0. -1.
<mgrwt>
<rscale>  1 0.30000000E+03</rscale>
<asrwt>0</asrwt>
<pdfrwt beam="1">  1        1 0.20841152E+00 0.30000000E+03</pdfrwt>
<pdfrwt beam="2">0</pdfrwt>
<totfact> 0.93451292E+00</totfact>
</mgrwt>
</event>
<event>
 6    1  0.1969531E-004  0.3000000E+03  0.7818608E-02  0.1093470E+00
          1   -1    0    0  502    0  0.00000000000E+00  0.00000000000E+00  0.26084373337E+02  0.26084373337E+02  0.00000000000E+00 0.  1.
         13   -1    0    0    0    0 -0.00000000000E+00 -0.00000000000E+00 -0.10000000000E+04  0.10000000000E+04  0.00000000000E+00 0.  1.
    9000005    2    1    2  501    0 -0.17584153392E+02 -0.45059232251E+02 -0.87599576934E+03  0.91686974373E+03  0.26634939874E+03 0.  0.
         13    1    3    3    0    0 -0.35842920333E+02  0.39478010467E+02 -0.20678765667E+02  0.57191254558E+02  0.00000000000E+00 0.  1.
          3    1    3    3  501    0  0.18258766941E+02 -0.84537242717E+02 -0.85531700368E+03  0.85967848918E+03  0.00000000000E+00 0.  1.
         21    1    1    2  502  501  0.17584153392E+02  0.45059232251E+02 -0.97919857321E+02  0.10921462960E+03  0.00000000000E+00 0.  1.
<mgrwt>
<rscale>  1 0.30000000E+03</rscale>
<asrwt>0</asrwt>
<pdfrwt beam="1">  1        1 0.94852467E-01 0.30000000E+03</pdfrwt>
<pdfrwt beam="2">0</pdfrwt>
<totfact> 0.36953666E+01</totfact>
</mgrwt>
</event>
<event>
 6    1  0.1969531E-004  0.3000000E+03  0.7818608E-02  0.1093470E+00
          1   -1    0    0  502    0  0.00000000000E+00  0.00000000000E+00  0.39600128496E+02  0.39600128496E+02  0.00000000000E+00 0.  1.
         13   -1    0    0    0    0 -0.00000000000E+00 -0.00000000000E+00 -0.10000000000E+04  0.10000000000E+04  0.00000000000E+00 0.  1.
    9000005    2    1    2  501    0 -0.13057756030E+01  0.13386205511E+02 -0.96402459755E+03  0.10256705130E+04  0.34996525697E+03 0.  0.
         13    1    3    3    0    0 -0.78424855594E+02 -0.10636848964E+03 -0.15273534671E+03  0.20197227457E+03  0.00000000000E+00 0.  1.
          3    1    3    3  501    0  0.77119079991E+02  0.11975469515E+03 -0.81128925085E+03  0.82369823846E+03  0.00000000000E+00 0.  1.
         21    1    1    2  502  501  0.13057756030E+01 -0.13386205511E+02  0.36247260474E+01  0.13929615459E+02  0.00000000000E+00 0. -1.
<mgrwt>
<rscale>  1 0.30000000E+03</rscale>
<asrwt>0</asrwt>
<pdfrwt beam="1">  1        1 0.14400077E+00 0.30000000E+03</pdfrwt>
<pdfrwt beam="2">0</pdfrwt>
<totfact> 0.19284162E+01</totfact>
</mgrwt>
</event>
<event>
 6    1  0.1969531E-004  0.3000000E+03  0.7818608E-02  0.1093470E+00
          1   -1    0    0  502    0  0.00000000000E+00  0.00000000000E+00  0.32733307602E+02  0.32733307602E+02  0.00000000000E+00 0.  1.
         13   -1    0    0    0    0 -0.00000000000E+00 -0.00000000000E+00 -0.10000000000E+04  0.10000000000E+04  0.00000000000E+00 0.  1.
    9000005    2    1    2  501    0  0.23640273273E+02 -0.42566816831E+01 -0.93644112482E+03  0.99365393356E+03  0.33143502765E+03 0.  0.
         13    1    3    3    0    0  0.10831623669E+03 -0.97576219691E+02 -0.20567235519E+03  0.25210046305E+03  0.00000000000E+00 0.  1.
          3    1    3    3  501    0 -0.84675963417E+02  0.93319538008E+02 -0.73076876963E+03  0.74155347051E+03  0.00000000000E+00 0.  1.
         21    1    1    2  502  501 -0.23640273273E+02  0.42566816831E+01 -0.30825567576E+02  0.39079374045E+02  0.00000000000E+00 0. -1.
<mgrwt>
<rscale>  1 0.30000000E+03</rscale>
<asrwt>0</asrwt>
<pdfrwt beam="1">  1        1 0.11903046E+00 0.30000000E+03</pdfrwt>
<pdfrwt beam="2">0</pdfrwt>
<totfact> 0.26326964E+01</totfact>
</mgrwt>
</event>
<event>
 6    1  0.1969531E-004  0.3000000E+03  0.7818608E-02  0.1093470E+00
          1   -1    0    0  502    0  0.00000000000E+00  0.00000000000E+00  0.29950308339E+02  0.29950308339E+02  0.00000000000E+00 0.  1.
         13   -1    0    0    0    0 -0.00000000000E+00 -0.00000000000E+00 -0.10000000000E+04  0.10000000000E+04  0.00000000000E+00 0.  1.
    9000005    2    1    2  501    0 -0.11231231052E+02 -0.10806934669E+02 -0.95422441639E+03  0.10077383808E+04  0.32365023853E+03 0.  0.
         13    1    3    3    0    0 -0.74158736996E+02  0.13804400578E+03 -0.56424114137E+03  0.58559690182E+03  0.00000000000E+00 0.  1.
          3    1    3    3  501    0  0.62927505945E+02 -0.14885094045E+03 -0.38998327502E+03  0.42214147898E+03  0.00000000000E+00 0.  1.
         21    1    1    2  502  501  0.11231231052E+02  0.10806934669E+02 -0.15825275267E+02  0.22211927542E+02  0.00000000000E+00 0.  1.
<mgrwt>
<rscale>  1 0.30000000E+03</rscale>
<asrwt>0</asrwt>
<pdfrwt beam="1">  1        1 0.10891044E+00 0.30000000E+03</pdfrwt>
<pdfrwt beam="2">0</pdfrwt>
<totfact> 0.30158668E+01</totfact>
</mgrwt>
</event>
<event>
 6    1  0.1969531E-004  0.3000000E+03  0.7818608E-02  0.1093470E+00
          1   -1    0    0  502    0  0.00000000000E+00  0.00000000000E+00  0.43506367792E+02  0.43506367792E+02  0.00000000000E+00 0.  1.
         13   -1    0    0    0    0 -0.00000000000E+00 -0.00000000000E+00 -0.10000000000E+04  0.10000000000E+04  0.00000000000E+00 0.  1.
    9000005    2    1    2  501    0 -0.30537152902E+02  0.34015197628E+02 -0.93704242535E+03  0.99382839656E+03  0.32795856985E+03 0.  0.
         13    1    3    3    0    0 -0.86784748524E+02  0.24266721300E+02 -0.93219105487E+03  0.93653650709E+03  0.00000000000E+00 0.  1.
          1    1    3    3  501    0  0.56247595623E+02  0.97484763276E+01 -0.48513704832E+01  0.57291889475E+02  0.00000000000E+00 0.  1.
         21    1    1    2  502  501  0.30537152902E+02 -0.34015197628E+02 -0.19451206859E+02  0.49677971228E+02  0.00000000000E+00 0.  1.
<mgrwt>
<rscale>  1 0.30000000E+03</rscale>
<asrwt>0</asrwt>
<pdfrwt beam="1">  1        1 0.15820531E+00 0.30000000E+03</pdfrwt>
<pdfrwt beam="2">0</pdfrwt>
<totfact> 0.16335552E+01</totfact>
</mgrwt>
</event>
<event>
 6    1  0.1969531E-004  0.3000000E+03  0.7818608E-02  0.1093470E+00
          3   -1    0    0  502    0  0.00000000000E+00  0.00000000000E+00  0.29874870945E+02  0.29874870945E+02  0.00000000000E+00 0.  1.
         13   -1    0    0    0    0 -0.00000000000E+00 -0.00000000000E+00 -0.10000000000E+04  0.10000000000E+04  0.00000000000E+00 0.  1.
    9000005    2    1    2  501    0  0.32539840929E+01  0.13445765327E+02 -0.96649679768E+03  0.10155730596E+04  0.31157856562E+03 0.  0.
         13    1    3    3    0    0  0.23413565433E+02  0.15434186335E+03 -0.65102485642E+03  0.66947962591E+03  0.00000000000E+00 0.  1.
          1    1    3    3  501    0 -0.20159581340E+02 -0.14089609803E+03 -0.31547194125E+03  0.34609343374E+03  0.00000000000E+00 0.  1.
         21    1    1    2  502  501 -0.32539840929E+01 -0.13445765327E+02 -0.36283313800E+01  0.14301811295E+02  0.00000000000E+00 0. -1.
<mgrwt>
<rscale>  1 0.30000000E+03</rscale>
<asrwt>0</asrwt>
<pdfrwt beam="1">  1        3 0.10863612E+00 0.30000000E+03</pdfrwt>
<pdfrwt beam="2">0</pdfrwt>
<totfact> 0.31234124E+00</totfact>
</mgrwt>
</event>
<event>
 6    1  0.1969531E-004  0.3000000E+03  0.7818608E-02  0.1093470E+00
          1   -1    0    0  502    0  0.00000000000E+00  0.00000000000E+00  0.35483501067E+02  0.35483501067E+02  0.00000000000E+00 0.  1.
         13   -1    0    0    0    0 -0.00000000000E+00 -0.00000000000E+00 -0.10000000000E+04  0.10000000000E+04  0.00000000000E+00 0.  1.
    9000005    2    1    2  501    0  0.81790200083E+01 -0.93803160800E+01 -0.96816378235E+03  0.10225147165E+04  0.32869491814E+03 0.  0.
         13    1    3    3    0    0  0.70994174968E+01  0.15684573686E+03 -0.37605980002E+03  0.40751927573E+03  0.00000000000E+00 0.  1.
          3    1    3    3  501    0  0.10796025115E+01 -0.16622605294E+03 -0.59210398233E+03  0.61499544072E+03  0.00000000000E+00 0.  1.
         21    1    1    2  502  501 -0.81790200083E+01  0.93803160800E+01  0.36472834156E+01  0.12968784614E+02  0.00000000000E+00 0.  1.
<mgrwt>
<rscale>  1 0.30000000E+03</rscale>
<asrwt>0</asrwt>
<pdfrwt beam="1">  1        1 0.12903119E+00 0.30000000E+03</pdfrwt>
<pdfrwt beam="2">0</pdfrwt>
<totfact> 0.23159888E+01</totfact>
</mgrwt>
</event>
<event>
 6    1  0.1969531E-004  0.3000000E+03  0.7818608E-02  0.1093470E+00
          1   -1    0    0  502    0  0.00000000000E+00  0.00000000000E+00  0.59229367241E+02  0.59229367241E+02  0.00000000000E+00 0.  1.
         13   -1    0    0    0    0 -0.00000000000E+00 -0.00000000000E+00 -0.10000000000E+04  0.10000000000E+04  0.00000000000E+00 0.  1.
    9000005    2    1    2  501    0 -0.82507839217E+01 -0.15288969130E+02 -0.97262991735E+03  0.10229410492E+04  0.31638205700E+03 0.  0.
         13    1    3    3    0    0 -0.16094561651E+03 -0.26006166991E+02 -0.53684042408E+03  0.56105031247E+03  0.00000000000E+00 0.  1.
          3    1    3    3  501    0  0.15269483259E+03  0.10717197861E+02 -0.43578949326E+03  0.46189073672E+03  0.00000000000E+00 0.  1.
         21    1    1    2  502  501  0.82507839217E+01  0.15288969130E+02  0.31859284587E+02  0.36288318049E+02  0.00000000000E+00 0.  1.
<mgrwt>
<rscale>  1 0.30000000E+03</rscale>
<asrwt>0</asrwt>
<pdfrwt beam="1">  1        1 0.21537997E+00 0.30000000E+03</pdfrwt>
<pdfrwt beam="2">0</pdfrwt>
<totfact> 0.86652466E+00</totfact>
</mgrwt>
</event>
<event>
 6    1  0.1969531E-004  0.3000000E+03  0.7818608E-02  0.1093470E+00
          1   -1    0    0  502    0  0.00000000000E+00  0.00000000000E+00  0.31736890909E+02  0.31736890909E+02  0.00000000000E+00 0.  1.
         13   -1    0    0    0    0 -0.00000000000E+00 -0.00000000000E+00 -0.10000000000E+04  0.10000000000E+04  0.00000000000E+00 0.  1.
    9000005    2    1    2  501    0 -0.75070098119E+01  0.89860996240E+01 -0.96635302715E+03  0.10198729288E+04  0.32583049693E+03 0.  0.
         13    1    3    3    0    0  0.82673983999E+02 -0.10706613429E+03 -0.21304449153E+03  0.25236105110E+03  0.00000000000E+00 0.  1.
          1    1    3    3  501    0 -0.90180993811E+02  0.11605223391E+03 -0.75330853562E+03  0.76751187775E+03  0.00000000000E+00 0.  1.
         21    1    1    2  502  501  0.75070098119E+01 -0.89860996240E+01 -0.19100819396E+01  0.11863962061E+02  0.00000000000E+00 0.  1.
<mgrwt>
<rscale>  1 0.30000000E+03</rscale>
<asrwt>0</asrwt>
<pdfrwt beam="1">  1        1 0.11540712E+00 0.30000000E+03</pdfrwt>
<pdfrwt beam="2">0</pdfrwt>
<totfact> 0.27615884E+01</totfact>
</mgrwt>
</event>
<event>
 6    1  0.1969531E-004  0.3000000E+03  0.7818608E-02  0.1093470E+00
          1   -1    0    0  502    0  0.00000000000E+00  0.00000000000E+00  0.72051971921E+02  0.72051971921E+02  0.00000000000E+00 0.  1.
         13   -1    0    0    0    0 -0.00000000000E+00 -0.00000000000E+00 -0.10000000000E+04  0.10000000000E+04  0.00000000000E+00 0.  1.
    9000005    2    1    2  501    0 -0.30516560244E+02 -0.84367184290E+01 -0.95863500743E+03  0.10279596895E+04  0.36975344098E+03 0.  0.
         13    1    3    3    0    0 -0.97801168234E+02 -0.12677505042E+03 -0.81296806260E+03  0.82858557356E+03  0.00000000000E+00 0.  1.
          3    1    3    3  501    0  0.67284607990E+02  0.11833833199E+03 -0.14566694483E+03  0.19937411594E+03  0.00000000000E+00 0.  1.
         21    1    1    2  502  501  0.30516560244E+02  0.84367184290E+01  0.30686979349E+02  0.44092282414E+02  0.00000000000E+00 0. -1.
<mgrwt>
<rscale>  1 0.30000000E+03</rscale>
<asrwt>0</asrwt>
<pdfrwt beam="1">  1        1 0.26200772E+00 0.30000000E+03</pdfrwt>
<pdfrwt beam="2">0</pdfrwt>
<totfact> 0.52431168E+00</totfact>
</mgrwt>
</event>
<event>
 6    1  0.1969531E-004  0.3000000E+03  0.7818608E-02  0.1093470E+00
          1   -1    0    0  502    0  0.00000000000E+00  0.00000000000E+00  0.29913731783E+02  0.29913731783E+02  0.00000000000E+00 0.  1.
         13   -1    0    0    0    0 -0.00000000000E+00 -0.00000000000E+00 -0.10000000000E+04  0.10000000000E+04  0.00000000000E+00 0.  1.
    9000005    2    1    2  501    0  0.10566057499E+02 -0.58157670356E+01 -0.95878685226E+03  0.10133867382E+04  0.32792527852E+03 0.  0.
         13    1    3    3    0    0 -0.75629221540E+00 -0.39333581127E+02 -0.97405863257E+03  0.97485276953E+03  0.00000000000E+00 0.  1.
          1    1    3    3  501    0  0.11322349715E+02  0.33517814091E+02  0.15271780307E+02  0.38533968628E+02  0.00000000000E+00 0.  1.
         21    1    1    2  502  501 -0.10566057499E+02  0.58157670356E+01 -0.11299415958E+02  0.16526993625E+02  0.00000000000E+00 0.  1.
<mgrwt>
<rscale>  1 0.30000000E+03</rscale>
<asrwt>0</asrwt>
<pdfrwt beam="1">  1        1 0.10877744E+00 0.30000000E+03</pdfrwt>
<pdfrwt beam="2">0</pdfrwt>
<totfact> 0.30214142E+01</totfact>
</mgrwt>
</event>
<event>
 6    1  0.1969531E-004  0.3000000E+03  0.7818608E-02  0.1093470E+00
          1   -1    0    0  502    0  0.00000000000E+00  0.00000000000E+00  0.26454620823E+02  0.26454620823E+02  0.00000000000E+00 0.  1.
         13   -1    0    0    0    0 -0.00000000000E+00 -0.00000000000E+00 -0.10000000000E+04  0.10000000000E+04  0.00000000000E+00 0.  1.
    9000005    2    1    2  501    0 -0.11925445926E+01 -0.12344200569E+02 -0.95146796346E+03  0.10011324224E+04  0.31116079470E+03 0.  0.
         13    1    3    3    0    0 -0.15435103072E+03 -0.24066759190E+02 -0.53014398605E+03  0.55268082609E+03  0.00000000000E+00 0.  1.
          1    1    3    3  501    0  0.15315848613E+03  0.11722558621E+02 -0.42132397741E+03  0.44845159626E+03  0.00000000000E+00 0.  1.
         21    1    1    2  502  501  0.11925445926E+01  0.12344200569E+02 -0.22077415720E+02  0.25322198466E+02  0.00000000000E+00 0.  1.
<mgrwt>
<rscale>  1 0.30000000E+03</rscale>
<asrwt>0</asrwt>
<pdfrwt beam="1">  1        1 0.96198824E-01 0.30000000E+03</pdfrwt>
<pdfrwt beam="2">0</pdfrwt>
<totfact> 0.36210186E+01</totfact>
</mgrwt>
</event>
<event>
 6    1  0.1969531E-004  0.3000000E+03  0.7818608E-02  0.1093470E+00
          1   -1    0    0  502    0  0.00000000000E+00  0.00000000000E+00  0.35495233266E+02  0.35495233266E+02  0.00000000000E+00 0.  1.
         13   -1    0    0    0    0 -0.00000000000E+00 -0.00000000000E+00 -0.10000000000E+04  0.10000000000E+04  0.00000000000E+00 0.  1.
    9000005    2    1    2  501    0  0.40780306495E+00 -0.10224997631E+02 -0.97066226954E+03  0.10235523810E+04  0.32460671316E+03 0.  0.
         13    1    3    3    0    0  0.13147620281E+03 -0.77834740561E+02 -0.68764790191E+03  0.70441740165E+03  0.00000000000E+00 0.  1.
          3    1    3    3  501    0 -0.13106839974E+03  0.67609742930E+02 -0.28301436763E+03  0.31913497933E+03  0.00000000000E+00 0.  1.
         21    1    1    2  502  501 -0.40780306495E+00  0.10224997631E+02  0.61575028051E+01  0.11942852285E+02  0.00000000000E+00 0.  1.
<mgrwt>
<rscale>  1 0.30000000E+03</rscale>
<asrwt>0</asrwt>
<pdfrwt beam="1">  1        1 0.12907385E+00 0.30000000E+03</pdfrwt>
<pdfrwt beam="2">0</pdfrwt>
<totfact> 0.23147460E+01</totfact>
</mgrwt>
</event>
<event>
 6    1  0.1969531E-004  0.3000000E+03  0.7818608E-02  0.1093470E+00
          1   -1    0    0  502    0  0.00000000000E+00  0.00000000000E+00  0.69309354897E+02  0.69309354897E+02  0.00000000000E+00 0.  1.
         13   -1    0    0    0    0 -0.00000000000E+00 -0.00000000000E+00 -0.10000000000E+04  0.10000000000E+04  0.00000000000E+00 0.  1.
    9000005    2    1    2  501    0 -0.92591532177E+01 -0.30140668545E+02 -0.96711577701E+03  0.10211327833E+04  0.32619785887E+03 0.  0.
         13    1    3    3    0    0 -0.48304298306E+01  0.93719126978E+02 -0.74138677407E+02  0.11959578296E+03  0.00000000000E+00 0.  1.
          3    1    3    3  501    0 -0.44287233871E+01 -0.12385979552E+03 -0.89297709960E+03  0.90153700032E+03  0.00000000000E+00 0.  1.
         21    1    1    2  502  501  0.92591532177E+01  0.30140668545E+02  0.36425131904E+02  0.48176571618E+02  0.00000000000E+00 0.  1.
<mgrwt>
<rscale>  1 0.30000000E+03</rscale>
<asrwt>0</asrwt>
<pdfrwt beam="1">  1        1 0.25203455E+00 0.30000000E+03</pdfrwt>
<pdfrwt beam="2">0</pdfrwt>
<totfact> 0.58373609E+00</totfact>
</mgrwt>
</event>
<event>
 6    1  0.1969531E-004  0.3000000E+03  0.7818608E-02  0.1093470E+00
          1   -1    0    0  502    0  0.00000000000E+00  0.00000000000E+00  0.29280170683E+02  0.29280170683E+02  0.00000000000E+00 0.  1.
         13   -1    0    0    0    0 -0.00000000000E+00 -0.00000000000E+00 -0.10000000000E+04  0.10000000000E+04  0.00000000000E+00 0.  1.
    9000005    2    1    2  501    0 -0.90946581962E+01 -0.81988186235E+00 -0.95991897896E+03  0.10151365013E+04  0.33011253411E+03 0.  0.
         13    1    3    3    0    0  0.13083010287E+03 -0.67922841275E+02 -0.26637530630E+03  0.30444347914E+03  0.00000000000E+00 0.  1.
          3    1    3    3  501    0 -0.13992476106E+03  0.67102959413E+02 -0.69354367267E+03  0.71069302221E+03  0.00000000000E+00 0.  1.
         21    1    1    2  502  501  0.90946581962E+01  0.81988186235E+00 -0.10800850354E+02  0.14143669338E+02  0.00000000000E+00 0.  1.
<mgrwt>
<rscale>  1 0.30000000E+03</rscale>
<asrwt>0</asrwt>
<pdfrwt beam="1">  1        1 0.10647357E+00 0.30000000E+03</pdfrwt>
<pdfrwt beam="2">0</pdfrwt>
<totfact> 0.31198667E+01</totfact>
</mgrwt>
</event>
<event>
 6    1  0.1969531E-004  0.3000000E+03  0.7818608E-02  0.1093470E+00
          1   -1    0    0  502    0  0.00000000000E+00  0.00000000000E+00  0.24279505084E+02  0.24279505084E+02  0.00000000000E+00 0.  1.
         13   -1    0    0    0    0 -0.00000000000E+00 -0.00000000000E+00 -0.10000000000E+04  0.10000000000E+04  0.00000000000E+00 0.  1.
    9000005    2    1    2  501    0 -0.26983366828E+02 -0.14580963101E+02 -0.96338789065E+03  0.99122198403E+03  0.23122302481E+03 0.  0.
         13    1    3    3    0    0  0.16674116609E+01  0.83781310777E+02 -0.74833858572E+03  0.75301575494E+03  0.00000000000E+00 0.  1.
          1    1    3    3  501    0 -0.28650778489E+02 -0.98362273879E+02 -0.21504930492E+03  0.23820622909E+03  0.00000000000E+00 0.  1.
         21    1    1    2  502  501  0.26983366828E+02  0.14580963101E+02 -0.12332604271E+02  0.33057521057E+02  0.00000000000E+00 0.  1.
<mgrwt>
<rscale>  1 0.30000000E+03</rscale>
<asrwt>0</asrwt>
<pdfrwt beam="1">  1        1 0.88289296E-01 0.30000000E+03</pdfrwt>
<pdfrwt beam="2">0</pdfrwt>
<totfact> 0.40927561E+01</totfact>
</mgrwt>
</event>
<event>
 6    1  0.1969531E-004  0.3000000E+03  0.7818608E-02  0.1093470E+00
          1   -1    0    0  502    0  0.00000000000E+00  0.00000000000E+00  0.74688690895E+02  0.74688690895E+02  0.00000000000E+00 0.  1.
         13   -1    0    0    0    0 -0.00000000000E+00 -0.00000000000E+00 -0.10000000000E+04  0.10000000000E+04  0.00000000000E+00 0.  1.
    9000005    2    1    2  501    0  0.74847851769E+02  0.10408540280E+03 -0.85952896588E+03  0.93059396971E+03  0.33283497607E+03 0.  0.
         13    1    3    3    0    0 -0.65960207482E+02 -0.54795184984E+02 -0.63394759996E+02  0.10664031538E+03  0.00000000000E+00 0.  1.
          1    1    3    3  501    0  0.14080805925E+03  0.15888058779E+03 -0.79613420588E+03  0.82395365434E+03  0.00000000000E+00 0.  1.
         21    1    1    2  502  501 -0.74847851769E+02 -0.10408540280E+03 -0.65782343230E+02  0.14409472118E+03  0.00000000000E+00 0.  1.
<mgrwt>
<rscale>  1 0.30000000E+03</rscale>
<asrwt>0</asrwt>
<pdfrwt beam="1">  1        1 0.27159581E+00 0.30000000E+03</pdfrwt>
<pdfrwt beam="2">0</pdfrwt>
<totfact> 0.47261402E+00</totfact>
</mgrwt>
</event>
<event>
 6    1  0.1969531E-004  0.3000000E+03  0.7818608E-02  0.1093470E+00
          1   -1    0    0  502    0  0.00000000000E+00  0.00000000000E+00  0.29338410151E+02  0.29338410151E+02  0.00000000000E+00 0.  1.
         13   -1    0    0    0    0 -0.00000000000E+00 -0.00000000000E+00 -0.10000000000E+04  0.10000000000E+04  0.00000000000E+00 0.  1.
    9000005    2    1    2  501    0  0.16717656448E+02  0.59264652121E+01 -0.94877377341E+03  0.10011660915E+04  0.31913518566E+03 0.  0.
         13    1    3    3    0    0  0.14812686994E+03 -0.58739740338E+02 -0.34720012676E+03  0.38202075168E+03  0.00000000000E+00 0.  1.
          1    1    3    3  501    0 -0.13140921349E+03  0.64666205550E+02 -0.60157364666E+03  0.61914533987E+03  0.00000000000E+00 0.  1.
         21    1    1    2  502  501 -0.16717656448E+02 -0.59264652121E+01 -0.21887816437E+02  0.28172318601E+02  0.00000000000E+00 0. -1.
<mgrwt>
<rscale>  1 0.30000000E+03</rscale>
<asrwt>0</asrwt>
<pdfrwt beam="1">  1        1 0.10668535E+00 0.30000000E+03</pdfrwt>
<pdfrwt beam="2">0</pdfrwt>
<totfact> 0.31106260E+01</totfact>
</mgrwt>
</event>
<event>
 6    1  0.1969531E-004  0.3000000E+03  0.7818608E-02  0.1093470E+00
          1   -1    0    0  502    0  0.00000000000E+00  0.00000000000E+00  0.33050156514E+02  0.33050156514E+02  0.00000000000E+00 0.  1.
         13   -1    0    0    0    0 -0.00000000000E+00 -0.00000000000E+00 -0.10000000000E+04  0.10000000000E+04  0.00000000000E+00 0.  1.
    9000005    2    1    2  501    0 -0.32329792435E+02 -0.50551787387E+01 -0.86773692681E+03  0.92858019363E+03  0.32897269116E+03 0.  0.
         13    1    3    3    0    0 -0.13691497568E+03 -0.64024856134E+02 -0.73165434165E+03  0.74710305074E+03  0.00000000000E+00 0.  1.
          3    1    3    3  501    0  0.10458518324E+03  0.58969677395E+02 -0.13608258517E+03  0.18147714289E+03  0.00000000000E+00 0.  1.
         21    1    1    2  502  501  0.32329792435E+02  0.50551787387E+01 -0.99212916673E+02  0.10446996289E+03  0.00000000000E+00 0.  1.
<mgrwt>
<rscale>  1 0.30000000E+03</rscale>
<asrwt>0</asrwt>
<pdfrwt beam="1">  1        1 0.12018264E+00 0.30000000E+03</pdfrwt>
<pdfrwt beam="2">0</pdfrwt>
<totfact> 0.25934305E+01</totfact>
</mgrwt>
</event>
<event>
 6    1  0.1969531E-004  0.3000000E+03  0.7818608E-02  0.1093470E+00
          1   -1    0    0  502    0  0.00000000000E+00  0.00000000000E+00  0.41814040782E+02  0.41814040782E+02  0.00000000000E+00 0.  1.
         13   -1    0    0    0    0 -0.00000000000E+00 -0.00000000000E+00 -0.10000000000E+04  0.10000000000E+04  0.00000000000E+00 0.  1.
    9000005    2    1    2  501    0  0.17329366967E+02 -0.15521755275E+02 -0.97580609406E+03  0.10126301240E+04  0.26959414497E+03 0.  0.
         13    1    3    3    0    0 -0.10888592701E+03 -0.44862002310E+02 -0.67356288166E+03  0.68378044715E+03  0.00000000000E+00 0.  1.
          3    1    3    3  501    0  0.12621529398E+03  0.29340247035E+02 -0.30224321240E+03  0.32884967686E+03  0.00000000000E+00 0.  1.
         21    1    1    2  502  501 -0.17329366967E+02  0.15521755275E+02  0.17620134841E+02  0.29183916771E+02  0.00000000000E+00 0.  1.
<mgrwt>
<rscale>  1 0.30000000E+03</rscale>
<asrwt>0</asrwt>
<pdfrwt beam="1">  1        1 0.15205138E+00 0.30000000E+03</pdfrwt>
<pdfrwt beam="2">0</pdfrwt>
<totfact> 0.17539784E+01</totfact>
</mgrwt>
</event>
<event>
 6    1  0.1969531E-004  0.3000000E+03  0.7818608E-02  0.1093470E+00
          1   -1    0    0  502    0  0.00000000000E+00  0.00000000000E+00  0.37087281118E+02  0.37087281118E+02  0.00000000000E+00 0.  1.
         13   -1    0    0    0    0 -0.00000000000E+00 -0.00000000000E+00 -0.10000000000E+04  0.10000000000E+04  0.00000000000E+00 0.  1.
    9000005    2    1    2  501    0  0.26645918628E+02 -0.32286131426E+02 -0.91350199825E+03  0.97232758242E+03  0.33042794595E+03 0.  0.
         13    1    3    3    0    0  0.11836688736E+03  0.50311640173E+02 -0.77990691509E+03  0.79044087532E+03  0.00000000000E+00 0.  1.
          1    1    3    3  501    0 -0.91720968730E+02 -0.82597771599E+02 -0.13359508316E+03  0.18188670711E+03  0.00000000000E+00 0.  1.
         21    1    1    2  502  501 -0.26645918628E+02  0.32286131426E+02 -0.49410720630E+02  0.64759698696E+02  0.00000000000E+00 0. -1.
<mgrwt>
<rscale>  1 0.30000000E+03</rscale>
<asrwt>0</asrwt>
<pdfrwt beam="1">  1        1 0.13486312E+00 0.30000000E+03</pdfrwt>
<pdfrwt beam="2">0</pdfrwt>
<totfact> 0.21538733E+01</totfact>
</mgrwt>
</event>
<event>
 6    1  0.1969531E-004  0.3000000E+03  0.7818608E-02  0.1093470E+00
          1   -1    0    0  502    0  0.00000000000E+00  0.00000000000E+00  0.29523127954E+02  0.29523127954E+02  0.00000000000E+00 0.  1.
         13   -1    0    0    0    0 -0.00000000000E+00 -0.00000000000E+00 -0.10000000000E+04  0.10000000000E+04  0.00000000000E+00 0.  1.
    9000005    2    1    2  501    0  0.14796953866E+02  0.93336774813E+01 -0.95979070040E+03  0.10090228440E+04  0.31084215238E+03 0.  0.
         13    1    3    3    0    0 -0.11152509633E+03  0.63033809096E+02 -0.73158926491E+03  0.74272064784E+03  0.00000000000E+00 0.  1.
          1    1    3    3  501    0  0.12632205020E+03 -0.53700131615E+02 -0.22820143549E+03  0.26630219612E+03  0.00000000000E+00 0.  1.
         21    1    1    2  502  501 -0.14796953866E+02 -0.93336774813E+01 -0.10686171647E+02  0.20500283986E+02  0.00000000000E+00 0.  1.
<mgrwt>
<rscale>  1 0.30000000E+03</rscale>
<asrwt>0</asrwt>
<pdfrwt beam="1">  1        1 0.10735706E+00 0.30000000E+03</pdfrwt>
<pdfrwt beam="2">0</pdfrwt>
<totfact> 0.30815762E+01</totfact>
</mgrwt>
</event>
<event>
 6    1  0.1969531E-004  0.3000000E+03  0.7818608E-02  0.1093470E+00
          1   -1    0    0  502    0  0.00000000000E+00  0.00000000000E+00  0.24111531687E+02  0.24111531687E+02  0.00000000000E+00 0.  1.
         13   -1    0    0    0    0 -0.00000000000E+00 -0.00000000000E+00 -0.10000000000E+04  0.10000000000E+04  0.00000000000E+00 0.  1.
    9000005    2    1    2  501    0  0.25454208167E+01 -0.17218727915E+02 -0.94974769077E+03  0.99270605432E+03  0.28834297356E+03 0.  0.
         13    1    3    3    0    0  0.78897134736E+02  0.27482170478E+02 -0.86873888736E+03  0.87274697478E+03  0.00000000000E+00 0.  1.
          1    1    3    3  501    0 -0.76351713919E+02 -0.44700898392E+02 -0.81008803403E+02  0.11995907954E+03  0.00000000000E+00 0.  1.
         21    1    1    2  502  501 -0.25454208167E+01  0.17218727915E+02 -0.26140777545E+02  0.31405477370E+02  0.00000000000E+00 0.  1.
<mgrwt>
<rscale>  1 0.30000000E+03</rscale>
<asrwt>0</asrwt>
<pdfrwt beam="1">  1        1 0.87678482E-01 0.30000000E+03</pdfrwt>
<pdfrwt beam="2">0</pdfrwt>
<totfact> 0.41329951E+01</totfact>
</mgrwt>
</event>
<event>
 6    1  0.1969531E-004  0.3000000E+03  0.7818608E-02  0.1093470E+00
          1   -1    0    0  502    0  0.00000000000E+00  0.00000000000E+00  0.29513566509E+02  0.29513566509E+02  0.00000000000E+00 0.  1.
         13   -1    0    0    0    0 -0.00000000000E+00 -0.00000000000E+00 -0.10000000000E+04  0.10000000000E+04  0.00000000000E+00 0.  1.
    9000005    2    1    2  501    0 -0.57250571724E+01  0.10731429145E+02 -0.95858892364E+03  0.10124991435E+04  0.32575121048E+03 0.  0.
         13    1    3    3    0    0 -0.37770342194E+02 -0.10253729466E+03 -0.10742491862E+03  0.15323383662E+03  0.00000000000E+00 0.  1.
          1    1    3    3  501    0  0.32045285022E+02  0.11326872381E+03 -0.85116400502E+03  0.85926530683E+03  0.00000000000E+00 0.  1.
         21    1    1    2  502  501  0.57250571724E+01 -0.10731429145E+02 -0.11897509852E+02  0.17014423052E+02  0.00000000000E+00 0.  1.
<mgrwt>
<rscale>  1 0.30000000E+03</rscale>
<asrwt>0</asrwt>
<pdfrwt beam="1">  1        1 0.10732229E+00 0.30000000E+03</pdfrwt>
<pdfrwt beam="2">0</pdfrwt>
<totfact> 0.30830703E+01</totfact>
</mgrwt>
</event>
<event>
 6    1  0.1969531E-004  0.3000000E+03  0.7818608E-02  0.1093470E+00
          1   -1    0    0  502    0  0.00000000000E+00  0.00000000000E+00  0.42937328304E+02  0.42937328304E+02  0.00000000000E+00 0.  1.
         13   -1    0    0    0    0 -0.00000000000E+00 -0.00000000000E+00 -0.10000000000E+04  0.10000000000E+04  0.00000000000E+00 0.  1.
    9000005    2    1    2  501    0  0.21515236567E+02 -0.35545770166E+02 -0.92321529816E+03  0.98934580028E+03  0.35320280093E+03 0.  0.
         13    1    3    3    0    0  0.37928130075E+02 -0.63027402724E+02 -0.94675756380E+03  0.94961091041E+03  0.00000000000E+00 0.  1.
          3    1    3    3  501    0 -0.16412893508E+02  0.27481632558E+02  0.23542265642E+02  0.39734889869E+02  0.00000000000E+00 0.  1.
         21    1    1    2  502  501 -0.21515236567E+02  0.35545770166E+02 -0.33847373534E+02  0.53591528028E+02  0.00000000000E+00 0. -1.
<mgrwt>
<rscale>  1 0.30000000E+03</rscale>
<asrwt>0</asrwt>
<pdfrwt beam="1">  1        1 0.15613607E+00 0.30000000E+03</pdfrwt>
<pdfrwt beam="2">0</pdfrwt>
<totfact> 0.16729085E+01</totfact>
</mgrwt>
</event>
<event>
 6    1  0.1969531E-004  0.3000000E+03  0.7818608E-02  0.1093470E+00
          1   -1    0    0  502    0  0.00000000000E+00  0.00000000000E+00  0.32700282244E+02  0.32700282244E+02  0.00000000000E+00 0.  1.
         13   -1    0    0    0    0 -0.00000000000E+00 -0.00000000000E+00 -0.10000000000E+04  0.10000000000E+04  0.00000000000E+00 0.  1.
    9000005    2    1    2  501    0 -0.13625825924E+02  0.23781853497E+02 -0.93699955573E+03  0.99184273084E+03  0.32408732712E+03 0.  0.
         13    1    3    3    0    0  0.73285387298E+02  0.15258513950E+03 -0.45865294712E+03  0.48889211355E+03  0.00000000000E+00 0.  1.
          1    1    3    3  501    0 -0.86911213222E+02 -0.12880328600E+03 -0.47834660860E+03  0.50295061729E+03  0.00000000000E+00 0.  1.
         21    1    1    2  502  501  0.13625825924E+02 -0.23781853497E+02 -0.30300162030E+02  0.40857551406E+02  0.00000000000E+00 0.  1.
<mgrwt>
<rscale>  1 0.30000000E+03</rscale>
<asrwt>0</asrwt>
<pdfrwt beam="1">  1        1 0.11891037E+00 0.30000000E+03</pdfrwt>
<pdfrwt beam="2">0</pdfrwt>
<totfact> 0.26368351E+01</totfact>
</mgrwt>
</event>
<event>
 6    1  0.1969531E-004  0.3000000E+03  0.7818608E-02  0.1093470E+00
          1   -1    0    0  502    0  0.00000000000E+00  0.00000000000E+00  0.39901741678E+02  0.39901741678E+02  0.00000000000E+00 0.  1.
         13   -1    0    0    0    0 -0.00000000000E+00 -0.00000000000E+00 -0.10000000000E+04  0.10000000000E+04  0.00000000000E+00 0.  1.
    9000005    2    1    2  501    0 -0.35466204094E+01 -0.22626450510E+02 -0.96935371040E+03  0.10151995521E+04  0.30076399362E+03 0.  0.
         13    1    3    3    0    0 -0.14705699358E+03 -0.46045610163E+02 -0.43836417226E+03  0.46466020391E+03  0.00000000000E+00 0.  1.
          1    1    3    3  501    0  0.14351037317E+03  0.23419159653E+02 -0.53098953814E+03  0.55053934815E+03  0.00000000000E+00 0.  1.
         21    1    1    2  502  501  0.35466204094E+01  0.22626450510E+02  0.92554520748E+01  0.24702189622E+02  0.00000000000E+00 0.  1.
<mgrwt>
<rscale>  1 0.30000000E+03</rscale>
<asrwt>0</asrwt>
<pdfrwt beam="1">  1        1 0.14509755E+00 0.30000000E+03</pdfrwt>
<pdfrwt beam="2">0</pdfrwt>
<totfact> 0.19034122E+01</totfact>
</mgrwt>
</event>
<event>
 6    1  0.1969531E-004  0.3000000E+03  0.7818608E-02  0.1093470E+00
          1   -1    0    0  502    0  0.00000000000E+00  0.00000000000E+00  0.11140109482E+03  0.11140109482E+03  0.00000000000E+00 0.  1.
         13   -1    0    0    0    0 -0.00000000000E+00 -0.00000000000E+00 -0.10000000000E+04  0.10000000000E+04  0.00000000000E+00 0.  1.
    9000005    2    1    2  501    0  0.11875050117E+03  0.85393791581E+02 -0.88880805909E+03  0.96513481397E+03  0.34657129433E+03 0.  0.
         13    1    3    3    0    0  0.82032553845E+02 -0.38287510420E+02 -0.80766510392E+03  0.81272270390E+03  0.00000000000E+00 0.  1.
          3    1    3    3  501    0  0.36717947325E+02  0.12368130200E+03 -0.81142955170E+02  0.15241211006E+03  0.00000000000E+00 0.  1.
         21    1    1    2  502  501 -0.11875050117E+03 -0.85393791581E+02  0.20915390842E+00  0.14626628085E+03  0.00000000000E+00 0.  1.
<mgrwt>
<rscale>  1 0.30000000E+03</rscale>
<asrwt>0</asrwt>
<pdfrwt beam="1">  1        1 0.40509574E+00 0.30000000E+03</pdfrwt>
<pdfrwt beam="2">0</pdfrwt>
<totfact> 0.98440266E-01</totfact>
</mgrwt>
</event>
<event>
 6    1  0.1969531E-004  0.3000000E+03  0.7818608E-02  0.1093470E+00
          1   -1    0    0  502    0  0.00000000000E+00  0.00000000000E+00  0.31751015507E+02  0.31751015507E+02  0.00000000000E+00 0.  1.
         13   -1    0    0    0    0 -0.00000000000E+00 -0.00000000000E+00 -0.10000000000E+04  0.10000000000E+04  0.00000000000E+00 0.  1.
    9000005    2    1    2  501    0  0.12567977785E+02 -0.23074528022E+01 -0.94842552026E+03  0.10081661021E+04  0.34164988457E+03 0.  0.
         13    1    3    3    0    0 -0.16156627008E+03  0.25323285287E+02 -0.40169149779E+03  0.43370610763E+03  0.00000000000E+00 0.  1.
          1    1    3    3  501    0  0.17413424786E+03 -0.27630738089E+02 -0.54673402248E+03  0.57445999451E+03  0.00000000000E+00 0.  1.
         21    1    1    2  502  501 -0.12567977785E+02  0.23074528022E+01 -0.19823464229E+02  0.23584913358E+02  0.00000000000E+00 0. -1.
<mgrwt>
<rscale>  1 0.30000000E+03</rscale>
<asrwt>0</asrwt>
<pdfrwt beam="1">  1        1 0.11545848E+00 0.30000000E+03</pdfrwt>
<pdfrwt beam="2">0</pdfrwt>
<totfact> 0.27597009E+01</totfact>
</mgrwt>
</event>
<event>
 6    1  0.1969531E-004  0.3000000E+03  0.7818608E-02  0.1093470E+00
          3   -1    0    0  502    0  0.00000000000E+00  0.00000000000E+00  0.29280122084E+02  0.29280122084E+02  0.00000000000E+00 0.  1.
         13   -1    0    0    0    0 -0.00000000000E+00 -0.00000000000E+00 -0.10000000000E+04  0.10000000000E+04  0.00000000000E+00 0.  1.
    9000005    2    1    2  501    0  0.40561473452E+01  0.13444090579E+02 -0.94142707464E+03  0.99679529137E+03  0.32728996338E+03 0.  0.
         13    1    3    3    0    0  0.15915005360E+03  0.19360550803E+02 -0.34381808636E+03  0.37936057650E+03  0.00000000000E+00 0.  1.
          1    1    3    3  501    0 -0.15509390626E+03 -0.59164602243E+01 -0.59760898828E+03  0.61743471487E+03  0.00000000000E+00 0.  1.
         21    1    1    2  502  501 -0.40561473452E+01 -0.13444090579E+02 -0.29292803273E+02  0.32484830712E+02  0.00000000000E+00 0. -1.
<mgrwt>
<rscale>  1 0.30000000E+03</rscale>
<asrwt>0</asrwt>
<pdfrwt beam="1">  1        3 0.10647340E+00 0.30000000E+03</pdfrwt>
<pdfrwt beam="2">0</pdfrwt>
<totfact> 0.33056441E+00</totfact>
</mgrwt>
</event>
<event>
 6    1  0.1969531E-004  0.3000000E+03  0.7818608E-02  0.1093470E+00
          1   -1    0    0  502    0  0.00000000000E+00  0.00000000000E+00  0.30962551099E+02  0.30962551099E+02  0.00000000000E+00 0.  1.
         13   -1    0    0    0    0 -0.00000000000E+00 -0.00000000000E+00 -0.10000000000E+04  0.10000000000E+04  0.00000000000E+00 0.  1.
    9000005    2    1    2  501    0  0.16684451293E+02 -0.10865166820E+02 -0.95271441403E+03  0.10052164012E+04  0.31999818104E+03 0.  0.
         13    1    3    3    0    0 -0.11714444074E+03  0.24223874039E+02 -0.75189959588E+03  0.76135577647E+03  0.00000000000E+00 0.  1.
          3    1    3    3  501    0  0.13382889203E+03 -0.35089040860E+02 -0.20081481814E+03  0.24386062477E+03  0.00000000000E+00 0.  1.
         21    1    1    2  502  501 -0.16684451293E+02  0.10865166820E+02 -0.16323034876E+02  0.25746149858E+02  0.00000000000E+00 0.  1.
<mgrwt>
<rscale>  1 0.30000000E+03</rscale>
<asrwt>0</asrwt>
<pdfrwt beam="1">  1        1 0.11259133E+00 0.30000000E+03</pdfrwt>
<pdfrwt beam="2">0</pdfrwt>
<totfact> 0.28679082E+01</totfact>
</mgrwt>
</event>
<event>
 6    1  0.1969531E-004  0.3000000E+03  0.7818608E-02  0.1093470E+00
          1   -1    0    0  502    0  0.00000000000E+00  0.00000000000E+00  0.62207504475E+02  0.62207504475E+02  0.00000000000E+00 0.  1.
         13   -1    0    0    0    0 -0.00000000000E+00 -0.00000000000E+00 -0.10000000000E+04  0.10000000000E+04  0.00000000000E+00 0.  1.
    9000005    2    1    2  501    0  0.47526406696E+02  0.42909758354E+02 -0.93998674649E+03  0.99813862410E+03  0.32955367187E+03 0.  0.
         13    1    3    3    0    0  0.14459981046E+03 -0.90578115299E+02 -0.48525636329E+03  0.51438044119E+03  0.00000000000E+00 0.  1.
          3    1    3    3  501    0 -0.97073403768E+02  0.13348787365E+03 -0.45473038320E+03  0.48375818291E+03  0.00000000000E+00 0.  1.
         21    1    1    2  502  501 -0.47526406696E+02 -0.42909758354E+02  0.21942509675E+01  0.64068880377E+02  0.00000000000E+00 0. -1.
<mgrwt>
<rscale>  1 0.30000000E+03</rscale>
<asrwt>0</asrwt>
<pdfrwt beam="1">  1        1 0.22620958E+00 0.30000000E+03</pdfrwt>
<pdfrwt beam="2">0</pdfrwt>
<totfact> 0.77091406E+00</totfact>
</mgrwt>
</event>
<event>
 6    1  0.1969531E-004  0.3000000E+03  0.7818608E-02  0.1093470E+00
          1   -1    0    0  502    0  0.00000000000E+00  0.00000000000E+00  0.28122819768E+02  0.28122819768E+02  0.00000000000E+00 0.  1.
         13   -1    0    0    0    0 -0.00000000000E+00 -0.00000000000E+00 -0.10000000000E+04  0.10000000000E+04  0.00000000000E+00 0.  1.
    9000005    2    1    2  501    0 -0.26375517274E+02  0.58616460386E+01 -0.93955643660E+03  0.98599613850E+03  0.29781212329E+03 0.  0.
         13    1    3    3    0    0 -0.23694243759E+02 -0.62076533777E+02 -0.28322777304E+02  0.72229446539E+02  0.00000000000E+00 0.  1.
          1    1    3    3  501    0 -0.26812735143E+01  0.67938179816E+02 -0.91123365929E+03  0.91376669196E+03  0.00000000000E+00 0.  1.
         21    1    1    2  502  501  0.26375517274E+02 -0.58616460386E+01 -0.32320743633E+02  0.42126681269E+02  0.00000000000E+00 0.  1.
<mgrwt>
<rscale>  1 0.30000000E+03</rscale>
<asrwt>0</asrwt>
<pdfrwt beam="1">  1        1 0.10226501E+00 0.30000000E+03</pdfrwt>
<pdfrwt beam="2">0</pdfrwt>
<totfact> 0.33120462E+01</totfact>
</mgrwt>
</event>
<event>
 6    1  0.1969531E-004  0.3000000E+03  0.7818608E-02  0.1093470E+00
          1   -1    0    0  502    0  0.00000000000E+00  0.00000000000E+00  0.27505221509E+02  0.27505221509E+02  0.00000000000E+00 0.  1.
         13   -1    0    0    0    0 -0.00000000000E+00 -0.00000000000E+00 -0.10000000000E+04  0.10000000000E+04  0.00000000000E+00 0.  1.
    9000005    2    1    2  501    0 -0.31024210022E+00  0.10682329258E+02 -0.95800643843E+03  0.10095018772E+04  0.31812496851E+03 0.  0.
         13    1    3    3    0    0 -0.15445732980E+03  0.12157937172E+02 -0.35956999500E+03  0.39152964571E+03  0.00000000000E+00 0.  1.
          3    1    3    3  501    0  0.15414708770E+03 -0.14756079138E+01 -0.59843644343E+03  0.61797223149E+03  0.00000000000E+00 0.  1.
         21    1    1    2  502  501  0.31024210022E+00 -0.10682329258E+02 -0.14488340056E+02  0.18003344304E+02  0.00000000000E+00 0. -1.
<mgrwt>
<rscale>  1 0.30000000E+03</rscale>
<asrwt>0</asrwt>
<pdfrwt beam="1">  1        1 0.10001920E+00 0.30000000E+03</pdfrwt>
<pdfrwt beam="2">0</pdfrwt>
<totfact> 0.34217344E+01</totfact>
</mgrwt>
</event>
<event>
 6    1  0.1969531E-004  0.3000000E+03  0.7818608E-02  0.1093470E+00
          1   -1    0    0  502    0  0.00000000000E+00  0.00000000000E+00  0.43608164037E+02  0.43608164037E+02  0.00000000000E+00 0.  1.
         13   -1    0    0    0    0 -0.00000000000E+00 -0.00000000000E+00 -0.10000000000E+04  0.10000000000E+04  0.00000000000E+00 0.  1.
    9000005    2    1    2  501    0 -0.14132535073E+02 -0.66915886906E+02 -0.86267986600E+03  0.92759351935E+03  0.33396964153E+03 0.  0.
         13    1    3    3    0    0 -0.50823492353E+02 -0.14558561952E+02  0.89519385270E+01  0.53620111008E+02  0.00000000000E+00 0.  1.
          3    1    3    3  501    0  0.36690957280E+02 -0.52357324954E+02 -0.87163180453E+03  0.87397340834E+03  0.00000000000E+00 0.  1.
         21    1    1    2  502  501  0.14132535073E+02  0.66915886906E+02 -0.93711969965E+02  0.11601464469E+03  0.00000000000E+00 0.  1.
<mgrwt>
<rscale>  1 0.30000000E+03</rscale>
<asrwt>0</asrwt>
<pdfrwt beam="1">  1        1 0.15857548E+00 0.30000000E+03</pdfrwt>
<pdfrwt beam="2">0</pdfrwt>
<totfact> 0.16266312E+01</totfact>
</mgrwt>
</event>
<event>
 6    1  0.1969531E-004  0.3000000E+03  0.7818608E-02  0.1093470E+00
          1   -1    0    0  502    0  0.00000000000E+00  0.00000000000E+00  0.46685435692E+02  0.46685435692E+02  0.00000000000E+00 0.  1.
         13   -1    0    0    0    0 -0.00000000000E+00 -0.00000000000E+00 -0.10000000000E+04  0.10000000000E+04  0.00000000000E+00 0.  1.
    9000005    2    1    2  501    0  0.77984884233E+01 -0.63860409622E+01 -0.97230370437E+03  0.10251869385E+04  0.32485714927E+03 0.  0.
         13    1    3    3    0    0  0.35966812931E+02 -0.65276271899E+02 -0.95465941169E+03  0.95756419922E+03  0.00000000000E+00 0.  1.
          1    1    3    3  501    0 -0.28168324507E+02  0.58890230937E+02 -0.17644292680E+02  0.67622739294E+02  0.00000000000E+00 0.  1.
         21    1    1    2  502  501 -0.77984884233E+01  0.63860409622E+01  0.18989140058E+02  0.21498497180E+02  0.00000000000E+00 0.  1.
<mgrwt>
<rscale>  1 0.30000000E+03</rscale>
<asrwt>0</asrwt>
<pdfrwt beam="1">  1        1 0.16976558E+00 0.30000000E+03</pdfrwt>
<pdfrwt beam="2">0</pdfrwt>
<totfact> 0.14324940E+01</totfact>
</mgrwt>
</event>
<event>
 6    1  0.1969531E-004  0.3000000E+03  0.7818608E-02  0.1093470E+00
          1   -1    0    0  502    0  0.00000000000E+00  0.00000000000E+00  0.51560026977E+02  0.51560026977E+02  0.00000000000E+00 0.  1.
         13   -1    0    0    0    0 -0.00000000000E+00 -0.00000000000E+00 -0.10000000000E+04  0.10000000000E+04  0.00000000000E+00 0.  1.
    9000005    2    1    2  501    0 -0.38452056253E+01  0.12575365225E+02 -0.97262900611E+03  0.10240275963E+04  0.32008187868E+03 0.  0.
         13    1    3    3    0    0 -0.22943158890E+02  0.16464311267E+03 -0.46858832063E+03  0.49720092249E+03  0.00000000000E+00 0.  1.
          3    1    3    3  501    0  0.19097953264E+02 -0.15206774745E+03 -0.50404068548E+03  0.52682667382E+03  0.00000000000E+00 0.  1.
         21    1    1    2  502  501  0.38452056253E+01 -0.12575365225E+02  0.24189033087E+02  0.27532430668E+02  0.00000000000E+00 0. -1.
<mgrwt>
<rscale>  1 0.30000000E+03</rscale>
<asrwt>0</asrwt>
<pdfrwt beam="1">  1        1 0.18749140E+00 0.30000000E+03</pdfrwt>
<pdfrwt beam="2">0</pdfrwt>
<totfact> 0.11755637E+01</totfact>
</mgrwt>
</event>
<event>
 6    1  0.1969531E-004  0.3000000E+03  0.7818608E-02  0.1093470E+00
          1   -1    0    0  502    0  0.00000000000E+00  0.00000000000E+00  0.28911652004E+02  0.28911652004E+02  0.00000000000E+00 0.  1.
         13   -1    0    0    0    0 -0.00000000000E+00 -0.00000000000E+00 -0.10000000000E+04  0.10000000000E+04  0.00000000000E+00 0.  1.
    9000005    2    1    2  501    0 -0.16414243203E+02  0.20245288175E+01 -0.94519592614E+03  0.99818798676E+03  0.32048462055E+03 0.  0.
         13    1    3    3    0    0  0.52958923534E+02  0.11268206925E+03 -0.76818401418E+03  0.77820856841E+03  0.00000000000E+00 0.  1.
          1    1    3    3  501    0 -0.69373166737E+02 -0.11065754043E+03 -0.17701191197E+03  0.21997941835E+03  0.00000000000E+00 0.  1.
         21    1    1    2  502  501  0.16414243203E+02 -0.20245288175E+01 -0.25892421853E+02  0.30723665248E+02  0.00000000000E+00 0.  1.
<mgrwt>
<rscale>  1 0.30000000E+03</rscale>
<asrwt>0</asrwt>
<pdfrwt beam="1">  1        1 0.10513350E+00 0.30000000E+03</pdfrwt>
<pdfrwt beam="2">0</pdfrwt>
<totfact> 0.31792659E+01</totfact>
</mgrwt>
</event>
<event>
 6    1  0.1969531E-004  0.3000000E+03  0.7818608E-02  0.1093470E+00
          1   -1    0    0  502    0  0.00000000000E+00  0.00000000000E+00  0.31816837328E+02  0.31816837328E+02  0.00000000000E+00 0.  1.
         13   -1    0    0    0    0 -0.00000000000E+00 -0.00000000000E+00 -0.10000000000E+04  0.10000000000E+04  0.00000000000E+00 0.  1.
    9000005    2    1    2  501    0 -0.12149931893E+02  0.69803626882E+01 -0.96376444863E+03  0.10171242766E+04  0.32481307734E+03 0.  0.
         13    1    3    3    0    0  0.27930702725E+02 -0.14712870869E+02 -0.97053597155E+03  0.97104925972E+03  0.00000000000E+00 0.  1.
          1    1    3    3  501    0 -0.40080634618E+02  0.21693233557E+02  0.67715229277E+01  0.46075016835E+02  0.00000000000E+00 0.  1.
         21    1    1    2  502  501  0.12149931893E+02 -0.69803626882E+01 -0.44187140466E+01  0.14692560774E+02  0.00000000000E+00 0.  1.
<mgrwt>
<rscale>  1 0.30000000E+03</rscale>
<asrwt>0</asrwt>
<pdfrwt beam="1">  1        1 0.11569783E+00 0.30000000E+03</pdfrwt>
<pdfrwt beam="2">0</pdfrwt>
<totfact> 0.27509291E+01</totfact>
</mgrwt>
</event>
<event>
 6    1  0.1969531E-004  0.3000000E+03  0.7818608E-02  0.1093470E+00
          1   -1    0    0  502    0  0.00000000000E+00  0.00000000000E+00  0.26173386286E+02  0.26173386286E+02  0.00000000000E+00 0.  1.
         13   -1    0    0    0    0 -0.00000000000E+00 -0.00000000000E+00 -0.10000000000E+04  0.10000000000E+04  0.00000000000E+00 0.  1.
    9000005    2    1    2  501    0  0.10993138237E+02 -0.28184336697E+01 -0.95908967291E+03  0.10075731153E+04  0.30858028020E+03 0.  0.
         13    1    3    3    0    0 -0.49202869446E+02  0.10110612036E+03 -0.13923526475E+03  0.17896879305E+03  0.00000000000E+00 0.  1.
          1    1    3    3  501    0  0.60196007683E+02 -0.10392455402E+03 -0.81985440816E+03  0.82860432225E+03  0.00000000000E+00 0.  1.
         21    1    1    2  502  501 -0.10993138237E+02  0.28184336697E+01 -0.14736940802E+02  0.18600270989E+02  0.00000000000E+00 0. -1.
<mgrwt>
<rscale>  1 0.30000000E+03</rscale>
<asrwt>0</asrwt>
<pdfrwt beam="1">  1        1 0.95176151E-01 0.30000000E+03</pdfrwt>
<pdfrwt beam="2">0</pdfrwt>
<totfact> 0.36772860E+01</totfact>
</mgrwt>
</event>
<event>
 6    1  0.1969531E-004  0.3000000E+03  0.7818608E-02  0.1093470E+00
          1   -1    0    0  502    0  0.00000000000E+00  0.00000000000E+00  0.27861946000E+02  0.27861946000E+02  0.00000000000E+00 0.  1.
         13   -1    0    0    0    0 -0.00000000000E+00 -0.00000000000E+00 -0.10000000000E+04  0.10000000000E+04  0.00000000000E+00 0.  1.
    9000005    2    1    2  501    0  0.79429920874E-01  0.99442042435E+01 -0.95774909014E+03  0.10103709258E+04  0.32166316933E+03 0.  0.
         13    1    3    3    0    0  0.34058973799E+01 -0.63151840901E+02 -0.15276935086E+02  0.65062584423E+02  0.00000000000E+00 0.  1.
          1    1    3    3  501    0 -0.33264674590E+01  0.73096045144E+02 -0.94247215505E+03  0.94530834136E+03  0.00000000000E+00 0.  1.
         21    1    1    2  502  501 -0.79429920874E-01 -0.99442042435E+01 -0.14388963862E+02  0.17491020215E+02  0.00000000000E+00 0.  1.
<mgrwt>
<rscale>  1 0.30000000E+03</rscale>
<asrwt>0</asrwt>
<pdfrwt beam="1">  1        1 0.10131638E+00 0.30000000E+03</pdfrwt>
<pdfrwt beam="2">0</pdfrwt>
<totfact> 0.33577398E+01</totfact>
</mgrwt>
</event>
<event>
 6    1  0.1969531E-004  0.3000000E+03  0.7818608E-02  0.1093470E+00
          1   -1    0    0  502    0  0.00000000000E+00  0.00000000000E+00  0.32257418493E+02  0.32257418493E+02  0.00000000000E+00 0.  1.
         13   -1    0    0    0    0 -0.00000000000E+00 -0.00000000000E+00 -0.10000000000E+04  0.10000000000E+04  0.00000000000E+00 0.  1.
    9000005    2    1    2  501    0  0.38436459121E+01  0.13945135889E+02 -0.96215405986E+03  0.10167502588E+04  0.32837693791E+03 0.  0.
         13    1    3    3    0    0  0.99472781181E+02 -0.12516073383E+03 -0.47279064962E+03  0.49909021415E+03  0.00000000000E+00 0.  1.
          3    1    3    3  501    0 -0.95629135269E+02  0.13910586972E+03 -0.48936341024E+03  0.51766004461E+03  0.00000000000E+00 0.  1.
         21    1    1    2  502  501 -0.38436459121E+01 -0.13945135889E+02 -0.55885216473E+01  0.15507159736E+02  0.00000000000E+00 0. -1.
<mgrwt>
<rscale>  1 0.30000000E+03</rscale>
<asrwt>0</asrwt>
<pdfrwt beam="1">  1        1 0.11729995E+00 0.30000000E+03</pdfrwt>
<pdfrwt beam="2">0</pdfrwt>
<totfact> 0.26931995E+01</totfact>
</mgrwt>
</event>
<event>
 6    1  0.1969531E-004  0.3000000E+03  0.7818608E-02  0.1093470E+00
          1   -1    0    0  502    0  0.00000000000E+00  0.00000000000E+00  0.31407313823E+02  0.31407313823E+02  0.00000000000E+00 0.  1.
         13   -1    0    0    0    0 -0.00000000000E+00 -0.00000000000E+00 -0.10000000000E+04  0.10000000000E+04  0.00000000000E+00 0.  1.
    9000005    2    1    2  501    0  0.52508521667E+01 -0.24165569849E+02 -0.93396288849E+03  0.98885418112E+03  0.32393574708E+03 0.  0.
         13    1    3    3    0    0  0.11025302840E+02 -0.15687701062E+03 -0.27639769558E+03  0.31800572304E+03  0.00000000000E+00 0.  1.
          1    1    3    3  501    0 -0.57744506733E+01  0.13271144077E+03 -0.65756519291E+03  0.67084845808E+03  0.00000000000E+00 0.  1.
         21    1    1    2  502  501 -0.52508521667E+01  0.24165569849E+02 -0.34629797688E+02  0.42553132699E+02  0.00000000000E+00 0. -1.
<mgrwt>
<rscale>  1 0.30000000E+03</rscale>
<asrwt>0</asrwt>
<pdfrwt beam="1">  1        1 0.11420865E+00 0.30000000E+03</pdfrwt>
<pdfrwt beam="2">0</pdfrwt>
<totfact> 0.28061473E+01</totfact>
</mgrwt>
</event>
<event>
 6    1  0.1969531E-004  0.3000000E+03  0.7818608E-02  0.1093470E+00
          1   -1    0    0  502    0  0.00000000000E+00  0.00000000000E+00  0.31144626330E+02  0.31144626330E+02  0.00000000000E+00 0.  1.
         13   -1    0    0    0    0 -0.00000000000E+00 -0.00000000000E+00 -0.10000000000E+04  0.10000000000E+04  0.00000000000E+00 0.  1.
    9000005    2    1    2  501    0  0.10209258017E+02  0.30381659499E+00 -0.96922267277E+03  0.10209242466E+04  0.32060787043E+03 0.  0.
         13    1    3    3    0    0 -0.11444173431E+03 -0.16589915340E+02 -0.80899636332E+03  0.81721921888E+03  0.00000000000E+00 0.  1.
          3    1    3    3  501    0  0.12465099233E+03  0.16893731935E+02 -0.16022630945E+03  0.20370502769E+03  0.00000000000E+00 0.  1.
         21    1    1    2  502  501 -0.10209258017E+02 -0.30381659499E+00  0.36729909590E+00  0.10220379758E+02  0.00000000000E+00 0.  1.
<mgrwt>
<rscale>  1 0.30000000E+03</rscale>
<asrwt>0</asrwt>
<pdfrwt beam="1">  1        1 0.11325343E+00 0.30000000E+03</pdfrwt>
<pdfrwt beam="2">0</pdfrwt>
<totfact> 0.28423931E+01</totfact>
</mgrwt>
</event>
<event>
 6    1  0.1969531E-004  0.3000000E+03  0.7818608E-02  0.1093470E+00
          1   -1    0    0  502    0  0.00000000000E+00  0.00000000000E+00  0.22737308725E+02  0.22737308725E+02  0.00000000000E+00 0.  1.
         13   -1    0    0    0    0 -0.00000000000E+00 -0.00000000000E+00 -0.10000000000E+04  0.10000000000E+04  0.00000000000E+00 0.  1.
    9000005    2    1    2  501    0  0.79056746411E+01 -0.20209509873E+02 -0.94908147147E+03  0.98716899234E+03  0.27069550415E+03 0.  0.
         13    1    3    3    0    0  0.11287762665E+03  0.28373368172E+02 -0.21924406844E+03  0.24822241673E+03  0.00000000000E+00 0.  1.
          3    1    3    3  501    0 -0.10497195201E+03 -0.48582878045E+02 -0.72983740302E+03  0.73894657561E+03  0.00000000000E+00 0.  1.
         21    1    1    2  502  501 -0.79056746411E+01  0.20209509873E+02 -0.28181219808E+02  0.35568316389E+02  0.00000000000E+00 0. -1.
<mgrwt>
<rscale>  1 0.30000000E+03</rscale>
<asrwt>0</asrwt>
<pdfrwt beam="1">  1        1 0.82681297E-01 0.30000000E+03</pdfrwt>
<pdfrwt beam="2">0</pdfrwt>
<totfact> 0.44867074E+01</totfact>
</mgrwt>
</event>
<event>
 6    1  0.1969531E-004  0.3000000E+03  0.7818608E-02  0.1093470E+00
          1   -1    0    0  502    0  0.00000000000E+00  0.00000000000E+00  0.30024942003E+02  0.30024942003E+02  0.00000000000E+00 0.  1.
         13   -1    0    0    0    0 -0.00000000000E+00 -0.00000000000E+00 -0.10000000000E+04  0.10000000000E+04  0.00000000000E+00 0.  1.
    9000005    2    1    2  501    0 -0.10091216118E+02  0.31365344680E+01 -0.96320600950E+03  0.10174754198E+04  0.32768695819E+03 0.  0.
         13    1    3    3    0    0 -0.11655818648E+03  0.10504881468E+03 -0.68390209062E+03  0.70167167098E+03  0.00000000000E+00 0.  1.
          3    1    3    3  501    0  0.10646697036E+03 -0.10191228021E+03 -0.27930391888E+03  0.31580374877E+03  0.00000000000E+00 0.  1.
         21    1    1    2  502  501  0.10091216118E+02 -0.31365344680E+01 -0.67690484967E+01  0.12549522252E+02  0.00000000000E+00 0.  1.
<mgrwt>
<rscale>  1 0.30000000E+03</rscale>
<asrwt>0</asrwt>
<pdfrwt beam="1">  1        1 0.10918184E+00 0.30000000E+03</pdfrwt>
<pdfrwt beam="2">0</pdfrwt>
<totfact> 0.30045922E+01</totfact>
</mgrwt>
</event>
<event>
 6    1  0.1969531E-004  0.3000000E+03  0.7818608E-02  0.1093470E+00
          1   -1    0    0  502    0  0.00000000000E+00  0.00000000000E+00  0.39481021519E+02  0.39481021519E+02  0.00000000000E+00 0.  1.
         13   -1    0    0    0    0 -0.00000000000E+00 -0.00000000000E+00 -0.10000000000E+04  0.10000000000E+04  0.00000000000E+00 0.  1.
    9000005    2    1    2  501    0  0.11014124413E+02 -0.37400383085E+01 -0.96818327262E+03  0.10255511892E+04  0.33799570046E+03 0.  0.
         13    1    3    3    0    0  0.49937585745E+02  0.13430960359E+03 -0.21199549702E+03  0.25588068087E+03  0.00000000000E+00 0.  1.
          1    1    3    3  501    0 -0.38923461332E+02 -0.13804964190E+03 -0.75618777560E+03  0.76967050836E+03  0.00000000000E+00 0.  1.
         21    1    1    2  502  501 -0.11014124413E+02  0.37400383085E+01  0.76642941345E+01  0.13929832293E+02  0.00000000000E+00 0. -1.
<mgrwt>
<rscale>  1 0.30000000E+03</rscale>
<asrwt>0</asrwt>
<pdfrwt beam="1">  1        1 0.14356765E+00 0.30000000E+03</pdfrwt>
<pdfrwt beam="2">0</pdfrwt>
<totfact> 0.19384043E+01</totfact>
</mgrwt>
</event>
<event>
 6    1  0.1969531E-004  0.3000000E+03  0.7818608E-02  0.1093470E+00
          1   -1    0    0  502    0  0.00000000000E+00  0.00000000000E+00  0.44133846697E+02  0.44133846697E+02  0.00000000000E+00 0.  1.
         13   -1    0    0    0    0 -0.00000000000E+00 -0.00000000000E+00 -0.10000000000E+04  0.10000000000E+04  0.00000000000E+00 0.  1.
    9000005    2    1    2  501    0  0.71789321062E+02  0.36762430169E+02 -0.82006417470E+03  0.88618651280E+03  0.32606150028E+03 0.  0.
         13    1    3    3    0    0 -0.82065896034E+02  0.62188483805E+01 -0.41866919852E+02  0.92338098014E+02  0.00000000000E+00 0.  1.
          1    1    3    3  501    0  0.15385521710E+03  0.30543581788E+02 -0.77819725484E+03  0.79384841479E+03  0.00000000000E+00 0.  1.
         21    1    1    2  502  501 -0.71789321062E+02 -0.36762430169E+02 -0.13580197861E+03  0.15794733389E+03  0.00000000000E+00 0.  1.
<mgrwt>
<rscale>  1 0.30000000E+03</rscale>
<asrwt>0</asrwt>
<pdfrwt beam="1">  1        1 0.16048705E+00 0.30000000E+03</pdfrwt>
<pdfrwt beam="2">0</pdfrwt>
<totfact> 0.15914177E+01</totfact>
</mgrwt>
</event>
<event>
 6    1  0.1969531E-004  0.3000000E+03  0.7818608E-02  0.1093470E+00
          1   -1    0    0  502    0  0.00000000000E+00  0.00000000000E+00  0.31873095416E+02  0.31873095416E+02  0.00000000000E+00 0.  1.
         13   -1    0    0    0    0 -0.00000000000E+00 -0.00000000000E+00 -0.10000000000E+04  0.10000000000E+04  0.00000000000E+00 0.  1.
    9000005    2    1    2  501    0  0.18503687005E+02 -0.25526768188E+02 -0.88077978308E+03  0.93901017515E+03  0.32399549443E+03 0.  0.
         13    1    3    3    0    0  0.16281359098E+03 -0.51070299391E+02 -0.57742490302E+03  0.60210959095E+03  0.00000000000E+00 0.  1.
          1    1    3    3  501    0 -0.14430990397E+03  0.25543531203E+02 -0.30335488006E+03  0.33690058419E+03  0.00000000000E+00 0.  1.
         21    1    1    2  502  501 -0.18503687005E+02  0.25526768188E+02 -0.87347121499E+02  0.92862920270E+02  0.00000000000E+00 0. -1.
<mgrwt>
<rscale>  1 0.30000000E+03</rscale>
<asrwt>0</asrwt>
<pdfrwt beam="1">  1        1 0.11590241E+00 0.30000000E+03</pdfrwt>
<pdfrwt beam="2">0</pdfrwt>
<totfact> 0.27434626E+01</totfact>
</mgrwt>
</event>
<event>
 6    1  0.1969531E-004  0.3000000E+03  0.7818608E-02  0.1093470E+00
          1   -1    0    0  502    0  0.00000000000E+00  0.00000000000E+00  0.39270246939E+02  0.39270246939E+02  0.00000000000E+00 0.  1.
         13   -1    0    0    0    0 -0.00000000000E+00 -0.00000000000E+00 -0.10000000000E+04  0.10000000000E+04  0.00000000000E+00 0.  1.
    9000005    2    1    2  501    0  0.38598130336E+01  0.19327103522E+02 -0.96929660876E+03  0.10177801073E+04  0.30976119170E+03 0.  0.
         13    1    3    3    0    0 -0.67085396274E+02  0.10374853973E+03 -0.83462962277E+03  0.84372437270E+03  0.00000000000E+00 0.  1.
          1    1    3    3  501    0  0.70945209307E+02 -0.84421436207E+02 -0.13466698599E+03  0.17405573455E+03  0.00000000000E+00 0.  1.
         21    1    1    2  502  501 -0.38598130336E+01 -0.19327103522E+02  0.85668556960E+01  0.21490139686E+02  0.00000000000E+00 0.  1.
<mgrwt>
<rscale>  1 0.30000000E+03</rscale>
<asrwt>0</asrwt>
<pdfrwt beam="1">  1        1 0.14280120E+00 0.30000000E+03</pdfrwt>
<pdfrwt beam="2">0</pdfrwt>
<totfact> 0.19562404E+01</totfact>
</mgrwt>
</event>
<event>
 6    1  0.1969531E-004  0.3000000E+03  0.7818608E-02  0.1093470E+00
          1   -1    0    0  502    0  0.00000000000E+00  0.00000000000E+00  0.27104531632E+02  0.27104531632E+02  0.00000000000E+00 0.  1.
         13   -1    0    0    0    0 -0.00000000000E+00 -0.00000000000E+00 -0.10000000000E+04  0.10000000000E+04  0.00000000000E+00 0.  1.
    9000005    2    1    2  501    0 -0.95243317934E+01  0.10929794310E+02 -0.94923401506E+03  0.99935497898E+03  0.31217781049E+03 0.  0.
         13    1    3    3    0    0 -0.11785814112E+03  0.10685973690E+03 -0.61296088598E+03  0.63326976285E+03  0.00000000000E+00 0.  1.
          3    1    3    3  501    0  0.10833380932E+03 -0.95929942591E+02 -0.33627312908E+03  0.36608521613E+03  0.00000000000E+00 0.  1.
         21    1    1    2  502  501  0.95243317934E+01 -0.10929794310E+02 -0.23661453308E+02  0.27749552653E+02  0.00000000000E+00 0. -1.
<mgrwt>
<rscale>  1 0.30000000E+03</rscale>
<asrwt>0</asrwt>
<pdfrwt beam="1">  1        1 0.98562141E-01 0.30000000E+03</pdfrwt>
<pdfrwt beam="2">0</pdfrwt>
<totfact> 0.34957809E+01</totfact>
</mgrwt>
</event>
<event>
 6    1  0.1969531E-004  0.3000000E+03  0.7818608E-02  0.1093470E+00
          1   -1    0    0  502    0  0.00000000000E+00  0.00000000000E+00  0.29091066105E+02  0.29091066105E+02  0.00000000000E+00 0.  1.
         13   -1    0    0    0    0 -0.00000000000E+00 -0.00000000000E+00 -0.10000000000E+04  0.10000000000E+04  0.00000000000E+00 0.  1.
    9000005    2    1    2  501    0 -0.99159090586E+01  0.79815136905E-02 -0.96342506598E+03  0.10166679588E+04  0.32454207026E+03 0.  0.
         13    1    3    3    0    0  0.15645138904E+03  0.87425193057E+00 -0.41263176519E+03  0.44129669736E+03  0.00000000000E+00 0.  1.
          3    1    3    3  501    0 -0.16636729810E+03 -0.86627041688E+00 -0.55079330079E+03  0.57537126144E+03  0.00000000000E+00 0.  1.
         21    1    1    2  502  501  0.99159090586E+01 -0.79815136905E-02 -0.74838679123E+01  0.12423107304E+02  0.00000000000E+00 0.  1.
<mgrwt>
<rscale>  1 0.30000000E+03</rscale>
<asrwt>0</asrwt>
<pdfrwt beam="1">  1        1 0.10578592E+00 0.30000000E+03</pdfrwt>
<pdfrwt beam="2">0</pdfrwt>
<totfact> 0.31501454E+01</totfact>
</mgrwt>
</event>
<event>
 6    1  0.1969531E-004  0.3000000E+03  0.7818608E-02  0.1093470E+00
          1   -1    0    0  502    0  0.00000000000E+00  0.00000000000E+00  0.29517320084E+02  0.29517320084E+02  0.00000000000E+00 0.  1.
         13   -1    0    0    0    0 -0.00000000000E+00 -0.00000000000E+00 -0.10000000000E+04  0.10000000000E+04  0.00000000000E+00 0.  1.
    9000005    2    1    2  501    0 -0.83093094293E+01  0.67326591667E+01 -0.96115096123E+03  0.10153238605E+04  0.32704280761E+03 0.  0.
         13    1    3    3    0    0  0.10021199060E+03 -0.11057043980E+03 -0.63271877650E+03  0.65007793022E+03  0.00000000000E+00 0.  1.
          3    1    3    3  501    0 -0.10852130003E+03  0.11730309897E+03 -0.32843218473E+03  0.36524593023E+03  0.00000000000E+00 0.  1.
         21    1    1    2  502  501  0.83093094293E+01 -0.67326591667E+01 -0.93317186873E+01  0.14193459631E+02  0.00000000000E+00 0.  1.
<mgrwt>
<rscale>  1 0.30000000E+03</rscale>
<asrwt>0</asrwt>
<pdfrwt beam="1">  1        1 0.10733594E+00 0.30000000E+03</pdfrwt>
<pdfrwt beam="2">0</pdfrwt>
<totfact> 0.30824836E+01</totfact>
</mgrwt>
</event>
<event>
 6    1  0.1969531E-004  0.3000000E+03  0.7818608E-02  0.1093470E+00
          1   -1    0    0  502    0  0.00000000000E+00  0.00000000000E+00  0.38390600224E+02  0.38390600224E+02  0.00000000000E+00 0.  1.
         13   -1    0    0    0    0 -0.00000000000E+00 -0.00000000000E+00 -0.10000000000E+04  0.10000000000E+04  0.00000000000E+00 0.  1.
    9000005    2    1    2  501    0 -0.52886848176E+01 -0.99482207255E+01 -0.96250084221E+03  0.10270887441E+04  0.35829663642E+03 0.  0.
         13    1    3    3    0    0 -0.70201223687E+02  0.13707909498E+03 -0.22754155259E+03  0.27476180274E+03  0.00000000000E+00 0.  1.
          3    1    3    3  501    0  0.64912538870E+02 -0.14702731570E+03 -0.73495928963E+03  0.75232694134E+03  0.00000000000E+00 0.  1.
         21    1    1    2  502  501  0.52886848176E+01  0.99482207255E+01  0.89144243917E+00  0.11301856145E+02  0.00000000000E+00 0.  1.
<mgrwt>
<rscale>  1 0.30000000E+03</rscale>
<asrwt>0</asrwt>
<pdfrwt beam="1">  1        1 0.13960248E+00 0.30000000E+03</pdfrwt>
<pdfrwt beam="2">0</pdfrwt>
<totfact> 0.20329638E+01</totfact>
</mgrwt>
</event>
<event>
 6    1  0.1969531E-004  0.3000000E+03  0.7818608E-02  0.1093470E+00
          1   -1    0    0  502    0  0.00000000000E+00  0.00000000000E+00  0.45671719540E+02  0.45671719540E+02  0.00000000000E+00 0.  1.
         13   -1    0    0    0    0 -0.00000000000E+00 -0.00000000000E+00 -0.10000000000E+04  0.10000000000E+04  0.00000000000E+00 0.  1.
    9000005    2    1    2  501    0  0.39105141473E+02 -0.51483300401E+02 -0.91102582810E+03  0.96785883699E+03  0.32031691583E+03 0.  0.
         13    1    3    3    0    0 -0.18036075363E+02 -0.12555681753E+03 -0.84224540778E+03  0.85174358898E+03  0.00000000000E+00 0.  1.
          1    1    3    3  501    0  0.57141216836E+02  0.74073517129E+02 -0.68780420318E+02  0.11611524801E+03  0.00000000000E+00 0.  1.
         21    1    1    2  502  501 -0.39105141473E+02  0.51483300401E+02 -0.43302452359E+02  0.77812882546E+02  0.00000000000E+00 0.  1.
<mgrwt>
<rscale>  1 0.30000000E+03</rscale>
<asrwt>0</asrwt>
<pdfrwt beam="1">  1        1 0.16607933E+00 0.30000000E+03</pdfrwt>
<pdfrwt beam="2">0</pdfrwt>
<totfact> 0.14933578E+01</totfact>
</mgrwt>
</event>
<event>
 6    1  0.1969531E-004  0.3000000E+03  0.7818608E-02  0.1093470E+00
          1   -1    0    0  502    0  0.00000000000E+00  0.00000000000E+00  0.41197641877E+02  0.41197641877E+02  0.00000000000E+00 0.  1.
         13   -1    0    0    0    0 -0.00000000000E+00 -0.00000000000E+00 -0.10000000000E+04  0.10000000000E+04  0.00000000000E+00 0.  1.
    9000005    2    1    2  501    0  0.36856565003E+01 -0.13597727768E+02 -0.95844015660E+03  0.10271046133E+04  0.36896865805E+03 0.  0.
         13    1    3    3    0    0 -0.67586818980E+02 -0.16014859265E+03 -0.70250534900E+03  0.72369145027E+03  0.00000000000E+00 0.  1.
          1    1    3    3  501    0  0.71272475480E+02  0.14655086488E+03 -0.25593480761E+03  0.30341316304E+03  0.00000000000E+00 0.  1.
         21    1    1    2  502  501 -0.36856565003E+01  0.13597727768E+02 -0.36220151865E+00  0.14093028568E+02  0.00000000000E+00 0.  1.
<mgrwt>
<rscale>  1 0.30000000E+03</rscale>
<asrwt>0</asrwt>
<pdfrwt beam="1">  1        1 0.14980992E+00 0.30000000E+03</pdfrwt>
<pdfrwt beam="2">0</pdfrwt>
<totfact> 0.18004990E+01</totfact>
</mgrwt>
</event>
<event>
 6    1  0.1969531E-004  0.3000000E+03  0.7818608E-02  0.1093470E+00
          1   -1    0    0  502    0  0.00000000000E+00  0.00000000000E+00  0.47467539763E+02  0.47467539763E+02  0.00000000000E+00 0.  1.
         13   -1    0    0    0    0 -0.00000000000E+00 -0.00000000000E+00 -0.10000000000E+04  0.10000000000E+04  0.00000000000E+00 0.  1.
    9000005    2    1    2  501    0  0.43580844723E+02 -0.71481818981E+01 -0.95236092303E+03  0.10033040259E+04  0.31253360483E+03 0.  0.
         13    1    3    3    0    0  0.98717634673E+02  0.76476723762E+02 -0.15208282174E+03  0.19678172004E+03  0.00000000000E+00 0.  1.
          1    1    3    3  501    0 -0.55136789950E+02 -0.83624905660E+02 -0.80027810129E+03  0.80652230586E+03  0.00000000000E+00 0.  1.
         21    1    1    2  502  501 -0.43580844723E+02  0.71481818981E+01 -0.17153720367E+00  0.44163513858E+02  0.00000000000E+00 0.  1.
<mgrwt>
<rscale>  1 0.30000000E+03</rscale>
<asrwt>0</asrwt>
<pdfrwt beam="1">  1        1 0.17260960E+00 0.30000000E+03</pdfrwt>
<pdfrwt beam="2">0</pdfrwt>
<totfact> 0.13874433E+01</totfact>
</mgrwt>
</event>
<event>
 6    1  0.1969531E-004  0.3000000E+03  0.7818608E-02  0.1093470E+00
          3   -1    0    0  502    0  0.00000000000E+00  0.00000000000E+00  0.43206027604E+02  0.43206027604E+02  0.00000000000E+00 0.  1.
         13   -1    0    0    0    0 -0.00000000000E+00 -0.00000000000E+00 -0.10000000000E+04  0.10000000000E+04  0.00000000000E+00 0.  1.
    9000005    2    1    2  501    0 -0.98452089613E+01 -0.15859846383E+02 -0.95476115247E+03  0.10244285085E+04  0.37085906743E+03 0.  0.
         13    1    3    3    0    0 -0.78861074112E+02  0.16211132571E+03 -0.44831210765E+03  0.48320067963E+03  0.00000000000E+00 0.  1.
          1    1    3    3  501    0  0.69015865150E+02 -0.17797117209E+03 -0.50644904482E+03  0.54122782887E+03  0.00000000000E+00 0.  1.
         21    1    1    2  502  501  0.98452089613E+01  0.15859846383E+02 -0.20328199225E+01  0.18777519102E+02  0.00000000000E+00 0.  1.
<mgrwt>
<rscale>  1 0.30000000E+03</rscale>
<asrwt>0</asrwt>
<pdfrwt beam="1">  1        3 0.15711316E+00 0.30000000E+03</pdfrwt>
<pdfrwt beam="2">0</pdfrwt>
<totfact> 0.78263484E-01</totfact>
</mgrwt>
</event>
<event>
 6    1  0.1969531E-004  0.3000000E+03  0.7818608E-02  0.1093470E+00
          1   -1    0    0  502    0  0.00000000000E+00  0.00000000000E+00  0.27520874995E+02  0.27520874995E+02  0.00000000000E+00 0.  1.
         13   -1    0    0    0    0 -0.00000000000E+00 -0.00000000000E+00 -0.10000000000E+04  0.10000000000E+04  0.00000000000E+00 0.  1.
    9000005    2    1    2  501    0 -0.87364342501E+01  0.19440444095E+01 -0.95232364751E+03  0.10054675790E+04  0.32243544809E+03 0.  0.
         13    1    3    3    0    0  0.10043932254E+01  0.71148353425E+02 -0.92910396108E+03  0.93182469783E+03  0.00000000000E+00 0.  1.
          3    1    3    3  501    0 -0.97408274755E+01 -0.69204309015E+02 -0.23219686437E+02  0.73642881152E+02  0.00000000000E+00 0.  1.
         21    1    1    2  502  501  0.87364342501E+01 -0.19440444095E+01 -0.20155477492E+02  0.22053296012E+02  0.00000000000E+00 0. -1.
<mgrwt>
<rscale>  1 0.30000000E+03</rscale>
<asrwt>0</asrwt>
<pdfrwt beam="1">  1        1 0.10007612E+00 0.30000000E+03</pdfrwt>
<pdfrwt beam="2">0</pdfrwt>
<totfact> 0.34188887E+01</totfact>
</mgrwt>
</event>
<event>
 6    1  0.1969531E-004  0.3000000E+03  0.7818608E-02  0.1093470E+00
          1   -1    0    0  502    0  0.00000000000E+00  0.00000000000E+00  0.32388810460E+02  0.32388810460E+02  0.00000000000E+00 0.  1.
         13   -1    0    0    0    0 -0.00000000000E+00 -0.00000000000E+00 -0.10000000000E+04  0.10000000000E+04  0.00000000000E+00 0.  1.
    9000005    2    1    2  501    0 -0.13748239206E+02 -0.32189584698E+02 -0.91331417310E+03  0.96778734424E+03  0.31818922268E+03 0.  0.
         13    1    3    3    0    0 -0.84733966369E+02  0.12269721016E+03 -0.45636007829E+03  0.48010308423E+03  0.00000000000E+00 0.  1.
          1    1    3    3  501    0  0.70985727163E+02 -0.15488679486E+03 -0.45695409482E+03  0.48768426000E+03  0.00000000000E+00 0.  1.
         21    1    1    2  502  501  0.13748239206E+02  0.32189584698E+02 -0.54297016436E+02  0.64601466223E+02  0.00000000000E+00 0.  1.
<mgrwt>
<rscale>  1 0.30000000E+03</rscale>
<asrwt>0</asrwt>
<pdfrwt beam="1">  1        1 0.11777774E+00 0.30000000E+03</pdfrwt>
<pdfrwt beam="2">0</pdfrwt>
<totfact> 0.26763067E+01</totfact>
</mgrwt>
</event>
<event>
 6    1  0.1969531E-004  0.3000000E+03  0.7818608E-02  0.1093470E+00
          1   -1    0    0  502    0  0.00000000000E+00  0.00000000000E+00  0.31645634268E+02  0.31645634268E+02  0.00000000000E+00 0.  1.
         13   -1    0    0    0    0 -0.00000000000E+00 -0.00000000000E+00 -0.10000000000E+04  0.10000000000E+04  0.00000000000E+00 0.  1.
    9000005    2    1    2  501    0 -0.58205881152E+01 -0.98414440052E+01 -0.96339522104E+03  0.10191826337E+04  0.33237351839E+03 0.  0.
         13    1    3    3    0    0  0.15666271695E+03 -0.23415928942E+02 -0.34454514904E+03  0.37921349177E+03  0.00000000000E+00 0.  1.
          3    1    3    3  501    0 -0.16248330506E+03  0.13574484937E+02 -0.61885007199E+03  0.63996914197E+03  0.00000000000E+00 0.  1.
         21    1    1    2  502  501  0.58205881152E+01  0.98414440052E+01 -0.49591446943E+01  0.12463000530E+02  0.00000000000E+00 0.  1.
<mgrwt>
<rscale>  1 0.30000000E+03</rscale>
<asrwt>0</asrwt>
<pdfrwt beam="1">  1        1 0.11507528E+00 0.30000000E+03</pdfrwt>
<pdfrwt beam="2">0</pdfrwt>
<totfact> 0.27738263E+01</totfact>
</mgrwt>
</event>
<event>
 6    1  0.1969531E-004  0.3000000E+03  0.7818608E-02  0.1093470E+00
          1   -1    0    0  502    0  0.00000000000E+00  0.00000000000E+00  0.38859306975E+02  0.38859306975E+02  0.00000000000E+00 0.  1.
         13   -1    0    0    0    0 -0.00000000000E+00 -0.00000000000E+00 -0.10000000000E+04  0.10000000000E+04  0.00000000000E+00 0.  1.
    9000005    2    1    2  501    0  0.48330928701E-01 -0.31778612878E+02 -0.94812474373E+03  0.10045184056E+04  0.33031320729E+03 0.  0.
         13    1    3    3    0    0 -0.16083153543E+03 -0.35009600510E+02 -0.57684116310E+03  0.59986513682E+03  0.00000000000E+00 0.  1.
          1    1    3    3  501    0  0.16087986636E+03  0.32309876323E+01 -0.37128358063E+03  0.40465326877E+03  0.00000000000E+00 0.  1.
         21    1    1    2  502  501 -0.48330928701E-01  0.31778612878E+02 -0.13015949293E+02  0.34340901391E+02  0.00000000000E+00 0.  1.
<mgrwt>
<rscale>  1 0.30000000E+03</rscale>
<asrwt>0</asrwt>
<pdfrwt beam="1">  1        1 0.14130687E+00 0.30000000E+03</pdfrwt>
<pdfrwt beam="2">0</pdfrwt>
<totfact> 0.19916165E+01</totfact>
</mgrwt>
</event>
<event>
 6    1  0.1969531E-004  0.3000000E+03  0.7818608E-02  0.1093470E+00
          1   -1    0    0  502    0  0.00000000000E+00  0.00000000000E+00  0.38787392529E+02  0.38787392529E+02  0.00000000000E+00 0.  1.
         13   -1    0    0    0    0 -0.00000000000E+00 -0.00000000000E+00 -0.10000000000E+04  0.10000000000E+04  0.00000000000E+00 0.  1.
    9000005    2    1    2  501    0 -0.12270444448E+02 -0.42610565139E+02 -0.91454996785E+03  0.97441638970E+03  0.33334581557E+03 0.  0.
         13    1    3    3    0    0  0.59405766736E+02 -0.11675048753E+03 -0.13512065217E+03  0.18819487799E+03  0.00000000000E+00 0.  1.
          3    1    3    3  501    0 -0.71676211185E+02  0.74139922386E+02 -0.77942931567E+03  0.78622151171E+03  0.00000000000E+00 0.  1.
         21    1    1    2  502  501  0.12270444448E+02  0.42610565139E+02 -0.46662639624E+02  0.64371002828E+02  0.00000000000E+00 0. -1.
<mgrwt>
<rscale>  1 0.30000000E+03</rscale>
<asrwt>0</asrwt>
<pdfrwt beam="1">  1        1 0.14104536E+00 0.30000000E+03</pdfrwt>
<pdfrwt beam="2">0</pdfrwt>
<totfact> 0.19978906E+01</totfact>
</mgrwt>
</event>
<event>
 6    1  0.1969531E-004  0.3000000E+03  0.7818608E-02  0.1093470E+00
          1   -1    0    0  502    0  0.00000000000E+00  0.00000000000E+00  0.26310497806E+02  0.26310497806E+02  0.00000000000E+00 0.  1.
         13   -1    0    0    0    0 -0.00000000000E+00 -0.00000000000E+00 -0.10000000000E+04  0.10000000000E+04  0.00000000000E+00 0.  1.
    9000005    2    1    2  501    0  0.14510472425E+02  0.85866142300E+01 -0.96244635290E+03  0.10060449566E+04  0.29247083403E+03 0.  0.
         13    1    3    3    0    0  0.55335557674E+02 -0.10800406608E+03 -0.75431581480E+03  0.76401521627E+03  0.00000000000E+00 0.  1.
          1    1    3    3  501    0 -0.40825085249E+02  0.11659068031E+03 -0.20813053810E+03  0.24202974034E+03  0.00000000000E+00 0.  1.
         21    1    1    2  502  501 -0.14510472425E+02 -0.85866142300E+01 -0.11243149297E+02  0.20265541198E+02  0.00000000000E+00 0.  1.
<mgrwt>
<rscale>  1 0.30000000E+03</rscale>
<asrwt>0</asrwt>
<pdfrwt beam="1">  1        1 0.95674739E-01 0.30000000E+03</pdfrwt>
<pdfrwt beam="2">0</pdfrwt>
<totfact> 0.36496924E+01</totfact>
</mgrwt>
</event>
<event>
 6    1  0.1969531E-004  0.3000000E+03  0.7818608E-02  0.1093470E+00
          1   -1    0    0  502    0  0.00000000000E+00  0.00000000000E+00  0.29406242571E+02  0.29406242571E+02  0.00000000000E+00 0.  1.
         13   -1    0    0    0    0 -0.00000000000E+00 -0.00000000000E+00 -0.10000000000E+04  0.10000000000E+04  0.00000000000E+00 0.  1.
    9000005    2    1    2  501    0  0.28732626418E+01  0.14487940039E+02 -0.95547407745E+03  0.10082695265E+04  0.32164976184E+03 0.  0.
         13    1    3    3    0    0  0.11544151698E+03  0.11978440156E+03 -0.44735605471E+03  0.47728658727E+03  0.00000000000E+00 0.  1.
          3    1    3    3  501    0 -0.11256825434E+03 -0.10529646152E+03 -0.50811802273E+03  0.53098293920E+03  0.00000000000E+00 0.  1.
         21    1    1    2  502  501 -0.28732626418E+01 -0.14487940039E+02 -0.15119679984E+02  0.21136716102E+02  0.00000000000E+00 0.  1.
<mgrwt>
<rscale>  1 0.30000000E+03</rscale>
<asrwt>0</asrwt>
<pdfrwt beam="1">  1        1 0.10693202E+00 0.30000000E+03</pdfrwt>
<pdfrwt beam="2">0</pdfrwt>
<totfact> 0.30999128E+01</totfact>
</mgrwt>
</event>
<event>
 6    1  0.1969531E-004  0.3000000E+03  0.7818608E-02  0.1093470E+00
          1   -1    0    0  502    0  0.00000000000E+00  0.00000000000E+00  0.28042921517E+02  0.28042921517E+02  0.00000000000E+00 0.  1.
         13   -1    0    0    0    0 -0.00000000000E+00 -0.00000000000E+00 -0.10000000000E+04  0.10000000000E+04  0.00000000000E+00 0.  1.
    9000005    2    1    2  501    0  0.53828027302E+00  0.95715427997E+01 -0.95816260052E+03  0.10112443561E+04  0.32318365455E+03 0.  0.
         13    1    3    3    0    0 -0.88152939796E+02 -0.17436172522E+02 -0.59413947821E+02  0.10772640393E+03  0.00000000000E+00 0.  1.
          1    1    3    3  501    0  0.88691220069E+02  0.27007715321E+02 -0.89874865270E+03  0.90351795220E+03  0.00000000000E+00 0.  1.
         21    1    1    2  502  501 -0.53828027302E+00 -0.95715427997E+01 -0.13794477959E+02  0.16798565397E+02  0.00000000000E+00 0. -1.
<mgrwt>
<rscale>  1 0.30000000E+03</rscale>
<asrwt>0</asrwt>
<pdfrwt beam="1">  1        1 0.10197448E+00 0.30000000E+03</pdfrwt>
<pdfrwt beam="2">0</pdfrwt>
<totfact> 0.33259437E+01</totfact>
</mgrwt>
</event>
<event>
 6    1  0.1969531E-004  0.3000000E+03  0.7818608E-02  0.1093470E+00
          1   -1    0    0  502    0  0.00000000000E+00  0.00000000000E+00  0.30081211348E+02  0.30081211348E+02  0.00000000000E+00 0.  1.
         13   -1    0    0    0    0 -0.00000000000E+00 -0.00000000000E+00 -0.10000000000E+04  0.10000000000E+04  0.00000000000E+00 0.  1.
    9000005    2    1    2  501    0 -0.11115814429E+02  0.77834775472E+01 -0.96468656198E+03  0.10155374825E+04  0.31703638849E+03 0.  0.
         13    1    3    3    0    0  0.12263411373E+02  0.70525206377E+02 -0.94218671151E+03  0.94490210887E+03  0.00000000000E+00 0.  1.
          3    1    3    3  501    0 -0.23379225803E+02 -0.62741728830E+02 -0.22499850465E+02  0.70635373621E+02  0.00000000000E+00 0.  1.
         21    1    1    2  502  501  0.11115814429E+02 -0.77834775472E+01 -0.52322266751E+01  0.14543728859E+02  0.00000000000E+00 0.  1.
<mgrwt>
<rscale>  1 0.30000000E+03</rscale>
<asrwt>0</asrwt>
<pdfrwt beam="1">  1        1 0.10938645E+00 0.30000000E+03</pdfrwt>
<pdfrwt beam="2">0</pdfrwt>
<totfact> 0.29961315E+01</totfact>
</mgrwt>
</event>
<event>
 6    1  0.1969531E-004  0.3000000E+03  0.7818608E-02  0.1093470E+00
          3   -1    0    0  502    0  0.00000000000E+00  0.00000000000E+00  0.49878800641E+02  0.49878800641E+02  0.00000000000E+00 0.  1.
         13   -1    0    0    0    0 -0.00000000000E+00 -0.00000000000E+00 -0.10000000000E+04  0.10000000000E+04  0.00000000000E+00 0.  1.
    9000005    2    1    2  501    0 -0.22456787889E+02 -0.43586565507E+02 -0.95107985038E+03  0.10008378481E+04  0.30776520330E+03 0.  0.
         13    1    3    3    0    0 -0.77995495307E+02  0.11603985121E+03 -0.36454309787E+03  0.39043592888E+03  0.00000000000E+00 0.  1.
          1    1    3    3  501    0  0.55538707418E+02 -0.15962641671E+03 -0.58653675251E+03  0.61040191921E+03  0.00000000000E+00 0.  1.
         21    1    1    2  502  501  0.22456787889E+02  0.43586565507E+02  0.95865102029E+00  0.49040952547E+02  0.00000000000E+00 0.  1.
<mgrwt>
<rscale>  1 0.30000000E+03</rscale>
<asrwt>0</asrwt>
<pdfrwt beam="1">  1        3 0.18137784E+00 0.30000000E+03</pdfrwt>
<pdfrwt beam="2">0</pdfrwt>
<totfact> 0.30920902E-01</totfact>
</mgrwt>
</event>
<event>
 6    1  0.1969531E-004  0.3000000E+03  0.7818608E-02  0.1093470E+00
          1   -1    0    0  502    0  0.00000000000E+00  0.00000000000E+00  0.32479827238E+02  0.32479827238E+02  0.00000000000E+00 0.  1.
         13   -1    0    0    0    0 -0.00000000000E+00 -0.00000000000E+00 -0.10000000000E+04  0.10000000000E+04  0.00000000000E+00 0.  1.
    9000005    2    1    2  501    0 -0.17961673038E+02  0.16184286125E+01 -0.95740576337E+03  0.10118027315E+04  0.32679310090E+03 0.  0.
         13    1    3    3    0    0  0.44389289146E+02 -0.58577144297E+02 -0.28446147171E+02  0.78809099181E+02  0.00000000000E+00 0.  1.
          1    1    3    3  501    0 -0.62350962184E+02  0.60195572909E+02 -0.92895961619E+03  0.93299363235E+03  0.00000000000E+00 0.  1.
         21    1    1    2  502  501  0.17961673038E+02 -0.16184286125E+01 -0.10114409396E+02  0.20677095708E+02  0.00000000000E+00 0. -1.
<mgrwt>
<rscale>  1 0.30000000E+03</rscale>
<asrwt>0</asrwt>
<pdfrwt beam="1">  1        1 0.11810871E+00 0.30000000E+03</pdfrwt>
<pdfrwt beam="2">0</pdfrwt>
<totfact> 0.26646898E+01</totfact>
</mgrwt>
</event>
<event>
 6    1  0.1969531E-004  0.3000000E+03  0.7818608E-02  0.1093470E+00
          1   -1    0    0  502    0  0.00000000000E+00  0.00000000000E+00  0.44972041051E+02  0.44972041051E+02  0.00000000000E+00 0.  1.
         13   -1    0    0    0    0 -0.00000000000E+00 -0.00000000000E+00 -0.10000000000E+04  0.10000000000E+04  0.00000000000E+00 0.  1.
    9000005    2    1    2  501    0  0.15442996707E+02  0.16600764815E+02 -0.96651076648E+03  0.10195569587E+04  0.32378891096E+03 0.  0.
         13    1    3    3    0    0 -0.41226782658E+02  0.11034560113E+03 -0.12812620875E+03  0.17404632908E+03  0.00000000000E+00 0.  1.
          3    1    3    3  501    0  0.56669779366E+02 -0.93744836319E+02 -0.83838455774E+03  0.84551062967E+03  0.00000000000E+00 0.  1.
         21    1    1    2  502  501 -0.15442996707E+02 -0.16600764815E+02  0.11482807533E+02  0.25415082305E+02  0.00000000000E+00 0.  1.
<mgrwt>
<rscale>  1 0.30000000E+03</rscale>
<asrwt>0</asrwt>
<pdfrwt beam="1">  1        1 0.16353504E+00 0.30000000E+03</pdfrwt>
<pdfrwt beam="2">0</pdfrwt>
<totfact> 0.15370837E+01</totfact>
</mgrwt>
</event>
<event>
 6    1  0.1969531E-004  0.3000000E+03  0.7818608E-02  0.1093470E+00
          1   -1    0    0  502    0  0.00000000000E+00  0.00000000000E+00  0.32541505971E+02  0.32541505971E+02  0.00000000000E+00 0.  1.
         13   -1    0    0    0    0 -0.00000000000E+00 -0.00000000000E+00 -0.10000000000E+04  0.10000000000E+04  0.00000000000E+00 0.  1.
    9000005    2    1    2  501    0  0.11947481630E+02 -0.69896397919E+01 -0.96160291629E+03  0.10175120292E+04  0.33235367237E+03 0.  0.
         13    1    3    3    0    0  0.43673948833E+02  0.17335757501E+02 -0.97440216686E+03  0.97553448174E+03  0.00000000000E+00 0.  1.
          3    1    3    3  501    0 -0.31726467203E+02 -0.24325397293E+02  0.12799250562E+02  0.41977547446E+02  0.00000000000E+00 0.  1.
         21    1    1    2  502  501 -0.11947481630E+02  0.69896397919E+01 -0.58555777349E+01  0.15029476782E+02  0.00000000000E+00 0.  1.
<mgrwt>
<rscale>  1 0.30000000E+03</rscale>
<asrwt>0</asrwt>
<pdfrwt beam="1">  1        1 0.11833300E+00 0.30000000E+03</pdfrwt>
<pdfrwt beam="2">0</pdfrwt>
<totfact> 0.26568565E+01</totfact>
</mgrwt>
</event>
<event>
 6    1  0.1969531E-004  0.3000000E+03  0.7818608E-02  0.1093470E+00
          1   -1    0    0  502    0  0.00000000000E+00  0.00000000000E+00  0.36161785254E+02  0.36161785254E+02  0.00000000000E+00 0.  1.
         13   -1    0    0    0    0 -0.00000000000E+00 -0.00000000000E+00 -0.10000000000E+04  0.10000000000E+04  0.00000000000E+00 0.  1.
    9000005    2    1    2  501    0 -0.16737596125E+02 -0.13779644757E+02 -0.94903060175E+03  0.10099074306E+04  0.34465041661E+03 0.  0.
         13    1    3    3    0    0 -0.89513266221E+02 -0.18344595610E+02 -0.43067676973E+02  0.10101472080E+03  0.00000000000E+00 0.  1.
          3    1    3    3  501    0  0.72775670096E+02  0.45649508538E+01 -0.90596292478E+03  0.90889270984E+03  0.00000000000E+00 0.  1.
         21    1    1    2  502  501  0.16737596125E+02  0.13779644757E+02 -0.14807612995E+02  0.26254354616E+02  0.00000000000E+00 0. -1.
<mgrwt>
<rscale>  1 0.30000000E+03</rscale>
<asrwt>0</asrwt>
<pdfrwt beam="1">  1        1 0.13149768E+00 0.30000000E+03</pdfrwt>
<pdfrwt beam="2">0</pdfrwt>
<totfact> 0.22455375E+01</totfact>
</mgrwt>
</event>
<event>
 6    1  0.1969531E-004  0.3000000E+03  0.7818608E-02  0.1093470E+00
          1   -1    0    0  502    0  0.00000000000E+00  0.00000000000E+00  0.58643637340E+02  0.58643637340E+02  0.00000000000E+00 0.  1.
         13   -1    0    0    0    0 -0.00000000000E+00 -0.00000000000E+00 -0.10000000000E+04  0.10000000000E+04  0.00000000000E+00 0.  1.
    9000005    2    1    2  501    0 -0.28847279070E+02 -0.27780088639E+02 -0.96046120319E+03  0.10142714189E+04  0.32350717087E+03 0.  0.
         13    1    3    3    0    0 -0.39964861496E+00  0.14179760265E+03 -0.57450739028E+03  0.59174780213E+03  0.00000000000E+00 0.  1.
          1    1    3    3  501    0 -0.28447630455E+02 -0.16957769129E+03 -0.38595381291E+03  0.42252361681E+03  0.00000000000E+00 0.  1.
         21    1    1    2  502  501  0.28847279070E+02  0.27780088639E+02  0.19104840528E+02  0.44372218405E+02  0.00000000000E+00 0.  1.
<mgrwt>
<rscale>  1 0.30000000E+03</rscale>
<asrwt>0</asrwt>
<pdfrwt beam="1">  1        1 0.21325004E+00 0.30000000E+03</pdfrwt>
<pdfrwt beam="2">0</pdfrwt>
<totfact> 0.88673329E+00</totfact>
</mgrwt>
</event>
<event>
 6    1  0.1969531E-004  0.3000000E+03  0.7818608E-02  0.1093470E+00
          3   -1    0    0  502    0  0.00000000000E+00  0.00000000000E+00  0.28719210811E+02  0.28719210811E+02  0.00000000000E+00 0.  1.
         13   -1    0    0    0    0 -0.00000000000E+00 -0.00000000000E+00 -0.10000000000E+04  0.10000000000E+04  0.00000000000E+00 0.  1.
    9000005    2    1    2  501    0 -0.72637902983E+01 -0.68536512365E+01 -0.96026716928E+03  0.10138519647E+04  0.32508927182E+03 0.  0.
         13    1    3    3    0    0  0.11975667778E+03  0.30690530007E+02 -0.15746658251E+03  0.20019813963E+03  0.00000000000E+00 0.  1.
          1    1    3    3  501    0 -0.12702046808E+03 -0.37544181243E+02 -0.80280058677E+03  0.81365382503E+03  0.00000000000E+00 0.  1.
         21    1    1    2  502  501  0.72637902983E+01  0.68536512365E+01 -0.11013619907E+02  0.14867246155E+02  0.00000000000E+00 0. -1.
<mgrwt>
<rscale>  1 0.30000000E+03</rscale>
<asrwt>0</asrwt>
<pdfrwt beam="1">  1        3 0.10443371E+00 0.30000000E+03</pdfrwt>
<pdfrwt beam="2">0</pdfrwt>
<totfact> 0.34871678E+00</totfact>
</mgrwt>
</event>
<event>
 6    1  0.1969531E-004  0.3000000E+03  0.7818608E-02  0.1093470E+00
          1   -1    0    0  502    0  0.00000000000E+00  0.00000000000E+00  0.35603727161E+02  0.35603727161E+02  0.00000000000E+00 0.  1.
         13   -1    0    0    0    0 -0.00000000000E+00 -0.00000000000E+00 -0.10000000000E+04  0.10000000000E+04  0.00000000000E+00 0.  1.
    9000005    2    1    2  501    0  0.17228678955E+02 -0.18359146257E+01 -0.95736430390E+03  0.10169048890E+04  0.34241633277E+03 0.  0.
         13    1    3    3    0    0  0.14051892816E+03 -0.10131399809E+03 -0.62747886976E+03  0.65095301472E+03  0.00000000000E+00 0.  1.
          3    1    3    3  501    0 -0.12329024920E+03  0.99478083464E+02 -0.32988543414E+03  0.36595187429E+03  0.00000000000E+00 0.  1.
         21    1    1    2  502  501 -0.17228678955E+02  0.18359146257E+01 -0.70319689384E+01  0.18698838151E+02  0.00000000000E+00 0.  1.
<mgrwt>
<rscale>  1 0.30000000E+03</rscale>
<asrwt>0</asrwt>
<pdfrwt beam="1">  1        1 0.12946837E+00 0.30000000E+03</pdfrwt>
<pdfrwt beam="2">0</pdfrwt>
<totfact> 0.23032939E+01</totfact>
</mgrwt>
</event>
<event>
 6    1  0.1969531E-004  0.3000000E+03  0.7818608E-02  0.1093470E+00
          1   -1    0    0  502    0  0.00000000000E+00  0.00000000000E+00  0.29640445087E+02  0.29640445087E+02  0.00000000000E+00 0.  1.
         13   -1    0    0    0    0 -0.00000000000E+00 -0.00000000000E+00 -0.10000000000E+04  0.10000000000E+04  0.00000000000E+00 0.  1.
    9000005    2    1    2  501    0 -0.85309221044E+01  0.53877035628E+01 -0.96314666283E+03  0.10172376311E+04  0.32713773874E+03 0.  0.
         13    1    3    3    0    0  0.10904466409E+03  0.76408848997E+02 -0.76274152715E+03  0.77427623508E+03  0.00000000000E+00 0.  1.
          3    1    3    3  501    0 -0.11757558620E+03 -0.71021145434E+02 -0.20040513567E+03  0.24296139605E+03  0.00000000000E+00 0.  1.
         21    1    1    2  502  501  0.85309221044E+01 -0.53877035628E+01 -0.72128920870E+01  0.12402813950E+02  0.00000000000E+00 0. -1.
<mgrwt>
<rscale>  1 0.30000000E+03</rscale>
<asrwt>0</asrwt>
<pdfrwt beam="1">  1        1 0.10778366E+00 0.30000000E+03</pdfrwt>
<pdfrwt beam="2">0</pdfrwt>
<totfact> 0.30633279E+01</totfact>
</mgrwt>
</event>
<event>
 6    1  0.1969531E-004  0.3000000E+03  0.7818608E-02  0.1093470E+00
          1   -1    0    0  502    0  0.00000000000E+00  0.00000000000E+00  0.37180663820E+02  0.37180663820E+02  0.00000000000E+00 0.  1.
         13   -1    0    0    0    0 -0.00000000000E+00 -0.00000000000E+00 -0.10000000000E+04  0.10000000000E+04  0.00000000000E+00 0.  1.
    9000005    2    1    2  501    0 -0.78968376802E+00  0.12484916065E+02 -0.96196277574E+03  0.10246415081E+04  0.35264903453E+03 0.  0.
         13    1    3    3    0    0  0.14209208977E+03 -0.97632571246E+02 -0.45932951068E+03  0.49061785569E+03  0.00000000000E+00 0.  1.
          1    1    3    3  501    0 -0.14288177354E+03  0.11011748731E+03 -0.50263326505E+03  0.53402365244E+03  0.00000000000E+00 0.  1.
         21    1    1    2  502  501  0.78968376802E+00 -0.12484916065E+02 -0.85656044457E+00  0.12539155689E+02  0.00000000000E+00 0.  1.
<mgrwt>
<rscale>  1 0.30000000E+03</rscale>
<asrwt>0</asrwt>
<pdfrwt beam="1">  1        1 0.13520270E+00 0.30000000E+03</pdfrwt>
<pdfrwt beam="2">0</pdfrwt>
<totfact> 0.21449016E+01</totfact>
</mgrwt>
</event>
<event>
 6    1  0.1969531E-004  0.3000000E+03  0.7818608E-02  0.1093470E+00
          1   -1    0    0  502    0  0.00000000000E+00  0.00000000000E+00  0.36668406841E+02  0.36668406841E+02  0.00000000000E+00 0.  1.
         13   -1    0    0    0    0 -0.00000000000E+00 -0.00000000000E+00 -0.10000000000E+04  0.10000000000E+04  0.00000000000E+00 0.  1.
    9000005    2    1    2  501    0 -0.14924240385E+02  0.16357174333E+02 -0.95342375265E+03  0.10124103070E+04  0.33980507287E+03 0.  0.
         13    1    3    3    0    0  0.27981113381E+02  0.12712597030E+03 -0.83353807119E+03  0.84364072398E+03  0.00000000000E+00 0.  1.
          1    1    3    3  501    0 -0.42905353766E+02 -0.11076879597E+03 -0.11988568146E+03  0.16876958304E+03  0.00000000000E+00 0.  1.
         21    1    1    2  502  501  0.14924240385E+02 -0.16357174333E+02 -0.99078405103E+01  0.24258099819E+02  0.00000000000E+00 0. -1.
<mgrwt>
<rscale>  1 0.30000000E+03</rscale>
<asrwt>0</asrwt>
<pdfrwt beam="1">  1        1 0.13333994E+00 0.30000000E+03</pdfrwt>
<pdfrwt beam="2">0</pdfrwt>
<totfact> 0.21947358E+01</totfact>
</mgrwt>
</event>
<event>
 6    1  0.1969531E-004  0.3000000E+03  0.7818608E-02  0.1093470E+00
          1   -1    0    0  502    0  0.00000000000E+00  0.00000000000E+00  0.29257162517E+02  0.29257162517E+02  0.00000000000E+00 0.  1.
         13   -1    0    0    0    0 -0.00000000000E+00 -0.00000000000E+00 -0.10000000000E+04  0.10000000000E+04  0.00000000000E+00 0.  1.
    9000005    2    1    2  501    0  0.15581225679E+02 -0.16347799851E+02 -0.91670245683E+03  0.97068764916E+03  0.31840397724E+03 0.  0.
         13    1    3    3    0    0  0.92491381960E+02 -0.14312826027E+03 -0.51733906952E+03  0.54468345622E+03  0.00000000000E+00 0.  1.
          3    1    3    3  501    0 -0.76910156281E+02  0.12678046042E+03 -0.39936338731E+03  0.42600419295E+03  0.00000000000E+00 0.  1.
         21    1    1    2  502  501 -0.15581225679E+02  0.16347799851E+02 -0.54040380650E+02  0.58569513353E+02  0.00000000000E+00 0. -1.
<mgrwt>
<rscale>  1 0.30000000E+03</rscale>
<asrwt>0</asrwt>
<pdfrwt beam="1">  1        1 0.10638991E+00 0.30000000E+03</pdfrwt>
<pdfrwt beam="2">0</pdfrwt>
<totfact> 0.31235282E+01</totfact>
</mgrwt>
</event>
<event>
 6    1  0.1969531E-004  0.3000000E+03  0.7818608E-02  0.1093470E+00
          1   -1    0    0  502    0  0.00000000000E+00  0.00000000000E+00  0.32214876628E+02  0.32214876628E+02  0.00000000000E+00 0.  1.
         13   -1    0    0    0    0 -0.00000000000E+00 -0.00000000000E+00 -0.10000000000E+04  0.10000000000E+04  0.00000000000E+00 0.  1.
    9000005    2    1    2  501    0 -0.81527382024E+01  0.17488593304E+02 -0.96757590754E+03  0.10129181980E+04  0.29904484761E+03 0.  0.
         13    1    3    3    0    0  0.11960901946E+03  0.89931712142E+02 -0.56145222027E+03  0.58105303203E+03  0.00000000000E+00 0.  1.
          1    1    3    3  501    0 -0.12776175766E+03 -0.72443118839E+02 -0.40612368728E+03  0.43186516594E+03  0.00000000000E+00 0.  1.
         21    1    1    2  502  501  0.81527382024E+01 -0.17488593304E+02 -0.20921582773E+00  0.19296678657E+02  0.00000000000E+00 0. -1.
<mgrwt>
<rscale>  1 0.30000000E+03</rscale>
<asrwt>0</asrwt>
<pdfrwt beam="1">  1        1 0.11714525E+00 0.30000000E+03</pdfrwt>
<pdfrwt beam="2">0</pdfrwt>
<totfact> 0.26987004E+01</totfact>
</mgrwt>
</event>
<event>
 6    1  0.1969531E-004  0.3000000E+03  0.7818608E-02  0.1093470E+00
          3   -1    0    0  502    0  0.00000000000E+00  0.00000000000E+00  0.42432363407E+02  0.42432363407E+02  0.00000000000E+00 0.  1.
         13   -1    0    0    0    0 -0.00000000000E+00 -0.00000000000E+00 -0.10000000000E+04  0.10000000000E+04  0.00000000000E+00 0.  1.
    9000005    2    1    2  501    0 -0.63570820805E+02  0.20962277612E+02 -0.88104842751E+03  0.94076695287E+03  0.32297904214E+03 0.  0.
         13    1    3    3    0    0  0.72390021984E+02  0.13277589989E+03 -0.34907940931E+03  0.38042895379E+03  0.00000000000E+00 0.  1.
          3    1    3    3  501    0 -0.13596084279E+03 -0.11181362227E+03 -0.53196901820E+03  0.56033799908E+03  0.00000000000E+00 0.  1.
         21    1    1    2  502  501  0.63570820805E+02 -0.20962277612E+02 -0.76519209086E+02  0.10166541054E+03  0.00000000000E+00 0.  1.
<mgrwt>
<rscale>  1 0.30000000E+03</rscale>
<asrwt>0</asrwt>
<pdfrwt beam="1">  1        3 0.15429983E+00 0.30000000E+03</pdfrwt>
<pdfrwt beam="2">0</pdfrwt>
<totfact> 0.86071865E-01</totfact>
</mgrwt>
</event>
<event>
 6    1  0.1969531E-004  0.3000000E+03  0.7818608E-02  0.1093470E+00
          1   -1    0    0  502    0  0.00000000000E+00  0.00000000000E+00  0.42305569039E+02  0.42305569039E+02  0.00000000000E+00 0.  1.
         13   -1    0    0    0    0 -0.00000000000E+00 -0.00000000000E+00 -0.10000000000E+04  0.10000000000E+04  0.00000000000E+00 0.  1.
    9000005    2    1    2  501    0 -0.26724661375E+02  0.26820455349E+02 -0.94268761082E+03  0.10015778266E+04  0.33625089868E+03 0.  0.
         13    1    3    3    0    0 -0.68200444272E+02 -0.13181162446E+03 -0.25903362685E+03  0.29853647145E+03  0.00000000000E+00 0.  1.
          1    1    3    3  501    0  0.41475782897E+02  0.15863207981E+03 -0.68365398396E+03  0.70304135519E+03  0.00000000000E+00 0.  1.
         21    1    1    2  502  501  0.26724661375E+02 -0.26820455349E+02 -0.15006820145E+02  0.40727742407E+02  0.00000000000E+00 0.  1.
<mgrwt>
<rscale>  1 0.30000000E+03</rscale>
<asrwt>0</asrwt>
<pdfrwt beam="1">  1        1 0.15383876E+00 0.30000000E+03</pdfrwt>
<pdfrwt beam="2">0</pdfrwt>
<totfact> 0.17179326E+01</totfact>
</mgrwt>
</event>
<event>
 6    1  0.1969531E-004  0.3000000E+03  0.7818608E-02  0.1093470E+00
          1   -1    0    0  502    0  0.00000000000E+00  0.00000000000E+00  0.28810936173E+02  0.28810936173E+02  0.00000000000E+00 0.  1.
         13   -1    0    0    0    0 -0.00000000000E+00 -0.00000000000E+00 -0.10000000000E+04  0.10000000000E+04  0.00000000000E+00 0.  1.
    9000005    2    1    2  501    0 -0.75410285650E+01 -0.14062878827E+02 -0.95765544010E+03  0.10078874889E+04  0.31381302833E+03 0.  0.
         13    1    3    3    0    0 -0.15938139877E+03  0.11949504910E+02 -0.46427904422E+03  0.49101960434E+03  0.00000000000E+00 0.  1.
          3    1    3    3  501    0  0.15184037020E+03 -0.26012383737E+02 -0.49337639587E+03  0.51686788461E+03  0.00000000000E+00 0.  1.
         21    1    1    2  502  501  0.75410285650E+01  0.14062878827E+02 -0.13533623729E+02  0.20923447230E+02  0.00000000000E+00 0.  1.
<mgrwt>
<rscale>  1 0.30000000E+03</rscale>
<asrwt>0</asrwt>
<pdfrwt beam="1">  1        1 0.10476726E+00 0.30000000E+03</pdfrwt>
<pdfrwt beam="2">0</pdfrwt>
<totfact> 0.31957838E+01</totfact>
</mgrwt>
</event>
<event>
 6    1  0.1969531E-004  0.3000000E+03  0.7818608E-02  0.1093470E+00
          1   -1    0    0  502    0  0.00000000000E+00  0.00000000000E+00  0.33091405961E+02  0.33091405961E+02  0.00000000000E+00 0.  1.
         13   -1    0    0    0    0 -0.00000000000E+00 -0.00000000000E+00 -0.10000000000E+04  0.10000000000E+04  0.00000000000E+00 0.  1.
    9000005    2    1    2  501    0 -0.21810724384E+02 -0.22342113487E+01 -0.95535355817E+03  0.10083079790E+04  0.32172015788E+03 0.  0.
         13    1    3    3    0    0 -0.16156543409E+03 -0.41431702919E+02 -0.38122521128E+03  0.41611613429E+03  0.00000000000E+00 0.  1.
          3    1    3    3  501    0  0.13975470970E+03  0.39197491571E+02 -0.57412834689E+03  0.59219184470E+03  0.00000000000E+00 0.  1.
         21    1    1    2  502  501  0.21810724384E+02  0.22342113487E+01 -0.11555035869E+02  0.24783426971E+02  0.00000000000E+00 0.  1.
<mgrwt>
<rscale>  1 0.30000000E+03</rscale>
<asrwt>0</asrwt>
<pdfrwt beam="1">  1        1 0.12033264E+00 0.30000000E+03</pdfrwt>
<pdfrwt beam="2">0</pdfrwt>
<totfact> 0.25883765E+01</totfact>
</mgrwt>
</event>
<event>
 6    1  0.1969531E-004  0.3000000E+03  0.7818608E-02  0.1093470E+00
          1   -1    0    0  502    0  0.00000000000E+00  0.00000000000E+00  0.17428364073E+02  0.17428364073E+02  0.00000000000E+00 0.  1.
         13   -1    0    0    0    0 -0.00000000000E+00 -0.00000000000E+00 -0.10000000000E+04  0.10000000000E+04  0.00000000000E+00 0.  1.
    9000005    2    1    2  501    0  0.14563060605E+02  0.49629287645E+01 -0.96445249604E+03  0.99365828569E+03  0.23864504647E+03 0.  0.
         13    1    3    3    0    0  0.36853568362E+02  0.76840450560E+02 -0.12767851809E+03  0.15350714747E+03  0.00000000000E+00 0.  1.
          3    1    3    3  501    0 -0.22290507758E+02 -0.71877521796E+02 -0.83677397795E+03  0.84015113821E+03  0.00000000000E+00 0.  1.
         21    1    1    2  502  501 -0.14563060605E+02 -0.49629287645E+01 -0.18119139887E+02  0.23770078384E+02  0.00000000000E+00 0.  1.
<mgrwt>
<rscale>  1 0.30000000E+03</rscale>
<asrwt>0</asrwt>
<pdfrwt beam="1">  1        1 0.63376003E-01 0.30000000E+03</pdfrwt>
<pdfrwt beam="2">0</pdfrwt>
<totfact> 0.64463019E+01</totfact>
</mgrwt>
</event>
<event>
 6    1  0.1969531E-004  0.3000000E+03  0.7818608E-02  0.1093470E+00
          1   -1    0    0  502    0  0.00000000000E+00  0.00000000000E+00  0.44775692619E+02  0.44775692619E+02  0.00000000000E+00 0.  1.
         13   -1    0    0    0    0 -0.00000000000E+00 -0.00000000000E+00 -0.10000000000E+04  0.10000000000E+04  0.00000000000E+00 0.  1.
    9000005    2    1    2  501    0 -0.38460295885E+02  0.29077667753E+02 -0.93590421100E+03  0.99283369376E+03  0.32783737764E+03 0.  0.
         13    1    3    3    0    0  0.68505271905E+02  0.73091230003E+02 -0.77456627688E+02  0.12662870668E+03  0.00000000000E+00 0.  1.
          3    1    3    3  501    0 -0.10696556779E+03 -0.44013562250E+02 -0.85844758331E+03  0.86620498708E+03  0.00000000000E+00 0.  1.
         21    1    1    2  502  501  0.38460295885E+02 -0.29077667753E+02 -0.19320096386E+02  0.51941998862E+02  0.00000000000E+00 0. -1.
<mgrwt>
<rscale>  1 0.30000000E+03</rscale>
<asrwt>0</asrwt>
<pdfrwt beam="1">  1        1 0.16282104E+00 0.30000000E+03</pdfrwt>
<pdfrwt beam="2">0</pdfrwt>
<totfact> 0.15496170E+01</totfact>
</mgrwt>
</event>
<event>
 6    1  0.1969531E-004  0.3000000E+03  0.7818608E-02  0.1093470E+00
          1   -1    0    0  502    0  0.00000000000E+00  0.00000000000E+00  0.32502543847E+02  0.32502543847E+02  0.00000000000E+00 0.  1.
         13   -1    0    0    0    0 -0.00000000000E+00 -0.00000000000E+00 -0.10000000000E+04  0.10000000000E+04  0.00000000000E+00 0.  1.
    9000005    2    1    2  501    0  0.29380708180E+01 -0.14696207406E+02 -0.93217409895E+03  0.99413132629E+03  0.34514335051E+03 0.  0.
         13    1    3    3    0    0  0.98483917625E+02  0.13544853923E+03 -0.45883568512E+03  0.48844198709E+03  0.00000000000E+00 0.  1.
          1    1    3    3  501    0 -0.95545846807E+02 -0.15014474663E+03 -0.47333841383E+03  0.50568933921E+03  0.00000000000E+00 0.  1.
         21    1    1    2  502  501 -0.29380708180E+01  0.14696207406E+02 -0.35323357207E+02  0.38371217555E+02  0.00000000000E+00 0.  1.
<mgrwt>
<rscale>  1 0.30000000E+03</rscale>
<asrwt>0</asrwt>
<pdfrwt beam="1">  1        1 0.11819132E+00 0.30000000E+03</pdfrwt>
<pdfrwt beam="2">0</pdfrwt>
<totfact> 0.26618011E+01</totfact>
</mgrwt>
</event>
<event>
 6    1  0.1969531E-004  0.3000000E+03  0.7818608E-02  0.1093470E+00
          1   -1    0    0  502    0  0.00000000000E+00  0.00000000000E+00  0.35158250805E+02  0.35158250805E+02  0.00000000000E+00 0.  1.
         13   -1    0    0    0    0 -0.00000000000E+00 -0.00000000000E+00 -0.10000000000E+04  0.10000000000E+04  0.00000000000E+00 0.  1.
    9000005    2    1    2  501    0 -0.48466373335E+01 -0.14465061283E+02 -0.97049359855E+03  0.10188895295E+04  0.30991179493E+03 0.  0.
         13    1    3    3    0    0 -0.40007273458E+02 -0.32929565453E+02 -0.44250168693E+01  0.52004989999E+02  0.00000000000E+00 0.  1.
          3    1    3    3  501    0  0.35160636125E+02  0.18464504170E+02 -0.96606858168E+03  0.96688453951E+03  0.00000000000E+00 0.  1.
         21    1    1    2  502  501  0.48466373335E+01  0.14465061283E+02  0.56518493525E+01  0.16268721292E+02  0.00000000000E+00 0. -1.
<mgrwt>
<rscale>  1 0.30000000E+03</rscale>
<asrwt>0</asrwt>
<pdfrwt beam="1">  1        1 0.12784845E+00 0.30000000E+03</pdfrwt>
<pdfrwt beam="2">0</pdfrwt>
<totfact> 0.23507887E+01</totfact>
</mgrwt>
</event>
<event>
 6    1  0.1969531E-004  0.3000000E+03  0.7818608E-02  0.1093470E+00
          1   -1    0    0  502    0  0.00000000000E+00  0.00000000000E+00  0.30679473612E+02  0.30679473612E+02  0.00000000000E+00 0.  1.
         13   -1    0    0    0    0 -0.00000000000E+00 -0.00000000000E+00 -0.10000000000E+04  0.10000000000E+04  0.00000000000E+00 0.  1.
    9000005    2    1    2  501    0  0.18611677191E+02  0.14456967850E+01 -0.94536554626E+03  0.10003096590E+04  0.32642750076E+03 0.  0.
         13    1    3    3    0    0  0.63680278789E+02 -0.47820273297E+02 -0.34147872290E+02  0.86648910130E+02  0.00000000000E+00 0.  1.
          1    1    3    3  501    0 -0.45068601598E+02  0.49265970082E+02 -0.91121767397E+03  0.91366074886E+03  0.00000000000E+00 0.  1.
         21    1    1    2  502  501 -0.18611677191E+02 -0.14456967850E+01 -0.23954980126E+02  0.30369814617E+02  0.00000000000E+00 0. -1.
<mgrwt>
<rscale>  1 0.30000000E+03</rscale>
<asrwt>0</asrwt>
<pdfrwt beam="1">  1        1 0.11156196E+00 0.30000000E+03</pdfrwt>
<pdfrwt beam="2">0</pdfrwt>
<totfact> 0.29082312E+01</totfact>
</mgrwt>
</event>
<event>
 6    1  0.1969531E-004  0.3000000E+03  0.7818608E-02  0.1093470E+00
          1   -1    0    0  502    0  0.00000000000E+00  0.00000000000E+00  0.30607263261E+02  0.30607263261E+02  0.00000000000E+00 0.  1.
         13   -1    0    0    0    0 -0.00000000000E+00 -0.00000000000E+00 -0.10000000000E+04  0.10000000000E+04  0.00000000000E+00 0.  1.
    9000005    2    1    2  501    0 -0.76634719780E+01  0.99268248776E+01 -0.95866238101E+03  0.10141023795E+04  0.33047360655E+03 0.  0.
         13    1    3    3    0    0 -0.18429857353E+02  0.15318405479E+03 -0.71313062370E+03  0.72963024933E+03  0.00000000000E+00 0.  1.
          1    1    3    3  501    0  0.10766385375E+02 -0.14325722991E+03 -0.24553175731E+03  0.28447213014E+03  0.00000000000E+00 0.  1.
         21    1    1    2  502  501  0.76634719780E+01 -0.99268248776E+01 -0.10730355725E+02  0.16504883789E+02  0.00000000000E+00 0.  1.
<mgrwt>
<rscale>  1 0.30000000E+03</rscale>
<asrwt>0</asrwt>
<pdfrwt beam="1">  1        1 0.11129937E+00 0.30000000E+03</pdfrwt>
<pdfrwt beam="2">0</pdfrwt>
<totfact> 0.29186455E+01</totfact>
</mgrwt>
</event>
<event>
 6    1  0.1969531E-004  0.3000000E+03  0.7818608E-02  0.1093470E+00
          1   -1    0    0  502    0  0.00000000000E+00  0.00000000000E+00  0.30287877513E+02  0.30287877513E+02  0.00000000000E+00 0.  1.
         13   -1    0    0    0    0 -0.00000000000E+00 -0.00000000000E+00 -0.10000000000E+04  0.10000000000E+04  0.00000000000E+00 0.  1.
    9000005    2    1    2  501    0  0.83425942289E+00 -0.11733403143E+02 -0.95837183963E+03  0.10139486378E+04  0.33087291884E+03 0.  0.
         13    1    3    3    0    0 -0.13041562734E+02 -0.81738844054E+02 -0.93528414017E+03  0.93893969127E+03  0.00000000000E+00 0.  1.
          3    1    3    3  501    0  0.13875822157E+02  0.70005440911E+02 -0.23087699457E+02  0.75008946559E+02  0.00000000000E+00 0.  1.
         21    1    1    2  502  501 -0.83425942289E+00  0.11733403143E+02 -0.11340282856E+02  0.16339239681E+02  0.00000000000E+00 0.  1.
<mgrwt>
<rscale>  1 0.30000000E+03</rscale>
<asrwt>0</asrwt>
<pdfrwt beam="1">  1        1 0.11013797E+00 0.30000000E+03</pdfrwt>
<pdfrwt beam="2">0</pdfrwt>
<totfact> 0.29653461E+01</totfact>
</mgrwt>
</event>
<event>
 6    1  0.1969531E-004  0.3000000E+03  0.7818608E-02  0.1093470E+00
          1   -1    0    0  502    0  0.00000000000E+00  0.00000000000E+00  0.41391629308E+02  0.41391629308E+02  0.00000000000E+00 0.  1.
         13   -1    0    0    0    0 -0.00000000000E+00 -0.00000000000E+00 -0.10000000000E+04  0.10000000000E+04  0.00000000000E+00 0.  1.
    9000005    2    1    2  501    0 -0.32035129133E+01  0.11310355783E+02 -0.96271917846E+03  0.10289383011E+04  0.36297055564E+03 0.  0.
         13    1    3    3    0    0 -0.11029741327E+03  0.14397984459E+03 -0.62254175321E+03  0.64842420491E+03  0.00000000000E+00 0.  1.
          3    1    3    3  501    0  0.10709390036E+03 -0.13266948881E+03 -0.34017742524E+03  0.38051409619E+03  0.00000000000E+00 0.  1.
         21    1    1    2  502  501  0.32035129133E+01 -0.11310355783E+02  0.41108077648E+01  0.12453328206E+02  0.00000000000E+00 0.  1.
<mgrwt>
<rscale>  1 0.30000000E+03</rscale>
<asrwt>0</asrwt>
<pdfrwt beam="1">  1        1 0.15051533E+00 0.30000000E+03</pdfrwt>
<pdfrwt beam="2">0</pdfrwt>
<totfact> 0.17856964E+01</totfact>
</mgrwt>
</event>
<event>
 6    1  0.1969531E-004  0.3000000E+03  0.7818608E-02  0.1093470E+00
          1   -1    0    0  502    0  0.00000000000E+00  0.00000000000E+00  0.25347739698E+02  0.25347739698E+02  0.00000000000E+00 0.  1.
         13   -1    0    0    0    0 -0.00000000000E+00 -0.00000000000E+00 -0.10000000000E+04  0.10000000000E+04  0.00000000000E+00 0.  1.
    9000005    2    1    2  501    0 -0.29890356666E+02  0.12559146806E+02 -0.94969277778E+03  0.98443146717E+03  0.25717265754E+03 0.  0.
         13    1    3    3    0    0 -0.11374785067E+03  0.86822318403E+02 -0.61743344043E+03  0.63379866036E+03  0.00000000000E+00 0.  1.
          1    1    3    3  501    0  0.83857494003E+02 -0.74263171597E+02 -0.33225933735E+03  0.35063280681E+03  0.00000000000E+00 0.  1.
         21    1    1    2  502  501  0.29890356666E+02 -0.12559146806E+02 -0.24959482519E+02  0.40916272530E+02  0.00000000000E+00 0. -1.
<mgrwt>
<rscale>  1 0.30000000E+03</rscale>
<asrwt>0</asrwt>
<pdfrwt beam="1">  1        1 0.92173793E-01 0.30000000E+03</pdfrwt>
<pdfrwt beam="2">0</pdfrwt>
<totfact> 0.38502317E+01</totfact>
</mgrwt>
</event>
<event>
 6    1  0.1969531E-004  0.3000000E+03  0.7818608E-02  0.1093470E+00
          1   -1    0    0  502    0  0.00000000000E+00  0.00000000000E+00  0.41573644628E+02  0.41573644628E+02  0.00000000000E+00 0.  1.
         13   -1    0    0    0    0 -0.00000000000E+00 -0.00000000000E+00 -0.10000000000E+04  0.10000000000E+04  0.00000000000E+00 0.  1.
    9000005    2    1    2  501    0  0.97761325760E+01  0.18138911325E+02 -0.96531380967E+03  0.10198473956E+04  0.32837991137E+03 0.  0.
         13    1    3    3    0    0 -0.28543611236E+02 -0.57300524262E+02 -0.14968872967E+02  0.65743098353E+02  0.00000000000E+00 0.  1.
          1    1    3    3  501    0  0.38319743812E+02  0.75439435587E+02 -0.95034493671E+03  0.95410429720E+03  0.00000000000E+00 0.  1.
         21    1    1    2  502  501 -0.97761325760E+01 -0.18138911325E+02  0.68874543028E+01  0.21726249077E+02  0.00000000000E+00 0. -1.
<mgrwt>
<rscale>  1 0.30000000E+03</rscale>
<asrwt>0</asrwt>
<pdfrwt beam="1">  1        1 0.15117721E+00 0.30000000E+03</pdfrwt>
<pdfrwt beam="2">0</pdfrwt>
<totfact> 0.17719436E+01</totfact>
</mgrwt>
</event>
<event>
 6    1  0.1969531E-004  0.3000000E+03  0.7818608E-02  0.1093470E+00
          1   -1    0    0  502    0  0.00000000000E+00  0.00000000000E+00  0.12792328222E+03  0.12792328222E+03  0.00000000000E+00 0.  1.
         13   -1    0    0    0    0 -0.00000000000E+00 -0.00000000000E+00 -0.10000000000E+04  0.10000000000E+04  0.00000000000E+00 0.  1.
    9000005    2    1    2  501    0 -0.31777523670E+02  0.62079371755E+02 -0.95279848583E+03  0.10212477778E+04  0.36091329932E+03 0.  0.
         13    1    3    3    0    0 -0.10695527514E+03 -0.83177649296E+02 -0.15074316910E+03  0.20268560692E+03  0.00000000000E+00 0.  1.
          3    1    3    3  501    0  0.75177751467E+02  0.14525702105E+03 -0.80205531674E+03  0.81856217087E+03  0.00000000000E+00 0.  1.
         21    1    1    2  502  501  0.31777523670E+02 -0.62079371755E+02  0.80721768056E+02  0.10667550443E+03  0.00000000000E+00 0.  1.
<mgrwt>
<rscale>  1 0.30000000E+03</rscale>
<asrwt>0</asrwt>
<pdfrwt beam="1">  1        1 0.46517655E+00 0.30000000E+03</pdfrwt>
<pdfrwt beam="2">0</pdfrwt>
<totfact> 0.40624260E-01</totfact>
</mgrwt>
</event>
<event>
 6    1  0.1969531E-004  0.3000000E+03  0.7818608E-02  0.1093470E+00
          1   -1    0    0  502    0  0.00000000000E+00  0.00000000000E+00  0.32721249732E+02  0.32721249732E+02  0.00000000000E+00 0.  1.
         13   -1    0    0    0    0 -0.00000000000E+00 -0.00000000000E+00 -0.10000000000E+04  0.10000000000E+04  0.00000000000E+00 0.  1.
    9000005    2    1    2  501    0  0.10049226214E+02 -0.58052783260E+01 -0.96825618967E+03  0.10210746368E+04  0.32394239761E+03 0.  0.
         13    1    3    3    0    0  0.14414628666E+03  0.19410484416E+02 -0.24387109943E+03  0.28395075629E+03  0.00000000000E+00 0.  1.
          3    1    3    3  501    0 -0.13409706045E+03 -0.25215762742E+02 -0.72438509025E+03  0.73712388055E+03  0.00000000000E+00 0.  1.
         21    1    1    2  502  501 -0.10049226214E+02  0.58052783260E+01  0.97743940376E+00  0.11646612887E+02  0.00000000000E+00 0. -1.
<mgrwt>
<rscale>  1 0.30000000E+03</rscale>
<asrwt>0</asrwt>
<pdfrwt beam="1">  1        1 0.11898661E+00 0.30000000E+03</pdfrwt>
<pdfrwt beam="2">0</pdfrwt>
<totfact> 0.26342064E+01</totfact>
</mgrwt>
</event>
<event>
 6    1  0.1969531E-004  0.3000000E+03  0.7818608E-02  0.1093470E+00
          3   -1    0    0  502    0  0.00000000000E+00  0.00000000000E+00  0.30676893829E+02  0.30676893829E+02  0.00000000000E+00 0.  1.
         13   -1    0    0    0    0 -0.00000000000E+00 -0.00000000000E+00 -0.10000000000E+04  0.10000000000E+04  0.00000000000E+00 0.  1.
    9000005    2    1    2  501    0  0.19399632958E+02 -0.22027615926E+02 -0.85829060251E+03  0.91583013292E+03  0.31815171284E+03 0.  0.
         13    1    3    3    0    0 -0.13357472589E+03 -0.34444839184E+02 -0.59761328029E+03  0.61332722679E+03  0.00000000000E+00 0.  1.
          1    1    3    3  501    0  0.15297435884E+03  0.12417223258E+02 -0.26067732222E+03  0.30250290613E+03  0.00000000000E+00 0.  1.
         21    1    1    2  502  501 -0.19399632958E+02  0.22027615926E+02 -0.11103250366E+03  0.11484676091E+03  0.00000000000E+00 0. -1.
<mgrwt>
<rscale>  1 0.30000000E+03</rscale>
<asrwt>0</asrwt>
<pdfrwt beam="1">  1        3 0.11155258E+00 0.30000000E+03</pdfrwt>
<pdfrwt beam="2">0</pdfrwt>
<totfact> 0.28932307E+00</totfact>
</mgrwt>
</event>
<event>
 6    1  0.1969531E-004  0.3000000E+03  0.7818608E-02  0.1093470E+00
          1   -1    0    0  502    0  0.00000000000E+00  0.00000000000E+00  0.31999633464E+02  0.31999633464E+02  0.00000000000E+00 0.  1.
         13   -1    0    0    0    0 -0.00000000000E+00 -0.00000000000E+00 -0.10000000000E+04  0.10000000000E+04  0.00000000000E+00 0.  1.
    9000005    2    1    2  501    0  0.19229998814E+02 -0.11284918786E+02 -0.95276598270E+03  0.10049953987E+04  0.31899152229E+03 0.  0.
         13    1    3    3    0    0  0.15881657522E+03  0.29846640532E+02 -0.63916047685E+03  0.65927205438E+03  0.00000000000E+00 0.  1.
          3    1    3    3  501    0 -0.13958657640E+03 -0.41131559318E+02 -0.31360550585E+03  0.34572334428E+03  0.00000000000E+00 0.  1.
         21    1    1    2  502  501 -0.19229998814E+02  0.11284918786E+02 -0.15234383836E+02  0.27004234803E+02  0.00000000000E+00 0. -1.
<mgrwt>
<rscale>  1 0.30000000E+03</rscale>
<asrwt>0</asrwt>
<pdfrwt beam="1">  1        1 0.11636255E+00 0.30000000E+03</pdfrwt>
<pdfrwt beam="2">0</pdfrwt>
<totfact> 0.27267713E+01</totfact>
</mgrwt>
</event>
<event>
 6    1  0.1969531E-004  0.3000000E+03  0.7818608E-02  0.1093470E+00
          1   -1    0    0  502    0  0.00000000000E+00  0.00000000000E+00  0.30573458884E+02  0.30573458884E+02  0.00000000000E+00 0.  1.
         13   -1    0    0    0    0 -0.00000000000E+00 -0.00000000000E+00 -0.10000000000E+04  0.10000000000E+04  0.00000000000E+00 0.  1.
    9000005    2    1    2  501    0  0.16623390476E+02 -0.14102306662E+01 -0.91867464511E+03  0.97714986101E+03  0.33253634605E+03 0.  0.
         13    1    3    3    0    0 -0.67824608240E+02 -0.50883053329E+02 -0.85760712869E+03  0.86178840198E+03  0.00000000000E+00 0.  1.
          3    1    3    3  501    0  0.84447998716E+02  0.49472822663E+02 -0.61067516420E+02  0.11536145904E+03  0.00000000000E+00 0.  1.
         21    1    1    2  502  501 -0.16623390476E+02  0.14102306662E+01 -0.50751896003E+02  0.53423597869E+02  0.00000000000E+00 0. -1.
<mgrwt>
<rscale>  1 0.30000000E+03</rscale>
<asrwt>0</asrwt>
<pdfrwt beam="1">  1        1 0.11117645E+00 0.30000000E+03</pdfrwt>
<pdfrwt beam="2">0</pdfrwt>
<totfact> 0.29235389E+01</totfact>
</mgrwt>
</event>
<event>
 6    1  0.1969531E-004  0.3000000E+03  0.7818608E-02  0.1093470E+00
          1   -1    0    0  502    0  0.00000000000E+00  0.00000000000E+00  0.43969148509E+02  0.43969148509E+02  0.00000000000E+00 0.  1.
         13   -1    0    0    0    0 -0.00000000000E+00 -0.00000000000E+00 -0.10000000000E+04  0.10000000000E+04  0.00000000000E+00 0.  1.
    9000005    2    1    2  501    0 -0.42244344501E+02 -0.24785100580E+02 -0.92938372245E+03  0.98821114156E+03  0.33227740050E+03 0.  0.
         13    1    3    3    0    0  0.29423395680E+02  0.10354308995E+03 -0.74342408220E+03  0.75117659287E+03  0.00000000000E+00 0.  1.
          3    1    3    3  501    0 -0.71667740182E+02 -0.12832819053E+03 -0.18595964026E+03  0.23703454869E+03  0.00000000000E+00 0.  1.
         21    1    1    2  502  501  0.42244344501E+02  0.24785100580E+02 -0.26647129037E+02  0.55758006950E+02  0.00000000000E+00 0. -1.
<mgrwt>
<rscale>  1 0.30000000E+03</rscale>
<asrwt>0</asrwt>
<pdfrwt beam="1">  1        1 0.15988815E+00 0.30000000E+03</pdfrwt>
<pdfrwt beam="2">0</pdfrwt>
<totfact> 0.16023536E+01</totfact>
</mgrwt>
</event>
<event>
 6    1  0.1969531E-004  0.3000000E+03  0.7818608E-02  0.1093470E+00
          1   -1    0    0  502    0  0.00000000000E+00  0.00000000000E+00  0.52141619071E+02  0.52141619071E+02  0.00000000000E+00 0.  1.
         13   -1    0    0    0    0 -0.00000000000E+00 -0.00000000000E+00 -0.10000000000E+04  0.10000000000E+04  0.00000000000E+00 0.  1.
    9000005    2    1    2  501    0 -0.48821413105E+01 -0.11063119583E+02 -0.97168030704E+03  0.10254262287E+04  0.32739899744E+03 0.  0.
         13    1    3    3    0    0 -0.97750712890E+02 -0.19660758968E+02 -0.90572268400E+03  0.91119445105E+03  0.00000000000E+00 0.  1.
          1    1    3    3  501    0  0.92868571580E+02  0.85976393850E+01 -0.65957623037E+02  0.11423177766E+03  0.00000000000E+00 0.  1.
         21    1    1    2  502  501  0.48821413105E+01  0.11063119583E+02  0.23821926108E+02  0.26715390362E+02  0.00000000000E+00 0.  1.
<mgrwt>
<rscale>  1 0.30000000E+03</rscale>
<asrwt>0</asrwt>
<pdfrwt beam="1">  1        1 0.18960629E+00 0.30000000E+03</pdfrwt>
<pdfrwt beam="2">0</pdfrwt>
<totfact> 0.11483852E+01</totfact>
</mgrwt>
</event>
<event>
 6    1  0.1969531E-004  0.3000000E+03  0.7818608E-02  0.1093470E+00
          1   -1    0    0  502    0  0.00000000000E+00  0.00000000000E+00  0.32477165070E+02  0.32477165070E+02  0.00000000000E+00 0.  1.
         13   -1    0    0    0    0 -0.00000000000E+00 -0.00000000000E+00 -0.10000000000E+04  0.10000000000E+04  0.00000000000E+00 0.  1.
    9000005    2    1    2  501    0  0.12287092836E+02  0.12321883152E+02 -0.92672801639E+03  0.98812608082E+03  0.34244055509E+03 0.  0.
         13    1    3    3    0    0 -0.11787943021E+03  0.49293940117E+02 -0.77231394638E+03  0.78281178094E+03  0.00000000000E+00 0.  1.
          1    1    3    3  501    0  0.13016652305E+03 -0.36972056965E+02 -0.15441407001E+03  0.20531429988E+03  0.00000000000E+00 0.  1.
         21    1    1    2  502  501 -0.12287092836E+02 -0.12321883152E+02 -0.40794818536E+02  0.44351084250E+02  0.00000000000E+00 0. -1.
<mgrwt>
<rscale>  1 0.30000000E+03</rscale>
<asrwt>0</asrwt>
<pdfrwt beam="1">  1        1 0.11809903E+00 0.30000000E+03</pdfrwt>
<pdfrwt beam="2">0</pdfrwt>
<totfact> 0.26650286E+01</totfact>
</mgrwt>
</event>
<event>
 6    1  0.1969531E-004  0.3000000E+03  0.7818608E-02  0.1093470E+00
          1   -1    0    0  502    0  0.00000000000E+00  0.00000000000E+00  0.34916978272E+02  0.34916978272E+02  0.00000000000E+00 0.  1.
         13   -1    0    0    0    0 -0.00000000000E+00 -0.00000000000E+00 -0.10000000000E+04  0.10000000000E+04  0.00000000000E+00 0.  1.
    9000005    2    1    2  501    0 -0.63053188270E+01  0.89334384311E+01 -0.95375596592E+03  0.10191732315E+04  0.35908783049E+03 0.  0.
         13    1    3    3    0    0  0.12278069751E+02  0.15611581271E+03 -0.75549357243E+03  0.77155261386E+03  0.00000000000E+00 0.  1.
          3    1    3    3  501    0 -0.18583388578E+02 -0.14718237428E+03 -0.19826239349E+03  0.24762061768E+03  0.00000000000E+00 0.  1.
         21    1    1    2  502  501  0.63053188270E+01 -0.89334384311E+01 -0.11327055810E+02  0.15743746728E+02  0.00000000000E+00 0.  1.
<mgrwt>
<rscale>  1 0.30000000E+03</rscale>
<asrwt>0</asrwt>
<pdfrwt beam="1">  1        1 0.12697110E+00 0.30000000E+03</pdfrwt>
<pdfrwt beam="2">0</pdfrwt>
<totfact> 0.23770391E+01</totfact>
</mgrwt>
</event>
<event>
 6    1  0.1969531E-004  0.3000000E+03  0.7818608E-02  0.1093470E+00
          1   -1    0    0  502    0  0.00000000000E+00  0.00000000000E+00  0.42312065640E+02  0.42312065640E+02  0.00000000000E+00 0.  1.
         13   -1    0    0    0    0 -0.00000000000E+00 -0.00000000000E+00 -0.10000000000E+04  0.10000000000E+04  0.00000000000E+00 0.  1.
    9000005    2    1    2  501    0  0.30121316096E+02  0.38159264065E+02 -0.92259596549E+03  0.98235483591E+03  0.33387764973E+03 0.  0.
         13    1    3    3    0    0  0.17990468794E+03  0.44313702216E+02 -0.56511902709E+03  0.59471750918E+03  0.00000000000E+00 0.  1.
          1    1    3    3  501    0 -0.14978337184E+03 -0.61544381512E+01 -0.35747693840E+03  0.38763732673E+03  0.00000000000E+00 0.  1.
         21    1    1    2  502  501 -0.30121316096E+02 -0.38159264065E+02 -0.35091968871E+02  0.59957229727E+02  0.00000000000E+00 0.  1.
<mgrwt>
<rscale>  1 0.30000000E+03</rscale>
<asrwt>0</asrwt>
<pdfrwt beam="1">  1        1 0.15386238E+00 0.30000000E+03</pdfrwt>
<pdfrwt beam="2">0</pdfrwt>
<totfact> 0.17174622E+01</totfact>
</mgrwt>
</event>
<event>
 6    1  0.1969531E-004  0.3000000E+03  0.7818608E-02  0.1093470E+00
          1   -1    0    0  502    0  0.00000000000E+00  0.00000000000E+00  0.25539718963E+02  0.25539718963E+02  0.00000000000E+00 0.  1.
         13   -1    0    0    0    0 -0.00000000000E+00 -0.00000000000E+00 -0.10000000000E+04  0.10000000000E+04  0.00000000000E+00 0.  1.
    9000005    2    1    2  501    0 -0.12034009722E+02 -0.10935901299E+01 -0.97272370138E+03  0.10133319740E+04  0.28373275609E+03 0.  0.
         13    1    3    3    0    0  0.25936826466E+02 -0.21644249050E+02  0.54392406787E+01  0.34216630799E+02  0.00000000000E+00 0.  1.
          3    1    3    3  501    0 -0.37970836189E+02  0.20550658920E+02 -0.97816294206E+03  0.97911534315E+03  0.00000000000E+00 0.  1.
         21    1    1    2  502  501  0.12034009722E+02  0.10935901299E+01 -0.17365796590E+01  0.12207745012E+02  0.00000000000E+00 0.  1.
<mgrwt>
<rscale>  1 0.30000000E+03</rscale>
<asrwt>0</asrwt>
<pdfrwt beam="1">  1        1 0.92871901E-01 0.30000000E+03</pdfrwt>
<pdfrwt beam="2">0</pdfrwt>
<totfact> 0.38089476E+01</totfact>
</mgrwt>
</event>
<event>
 6    1  0.1969531E-004  0.3000000E+03  0.7818608E-02  0.1093470E+00
          1   -1    0    0  502    0  0.00000000000E+00  0.00000000000E+00  0.31679486535E+02  0.31679486535E+02  0.00000000000E+00 0.  1.
         13   -1    0    0    0    0 -0.00000000000E+00 -0.00000000000E+00 -0.10000000000E+04  0.10000000000E+04  0.00000000000E+00 0.  1.
    9000005    2    1    2  501    0  0.15551591336E+02 -0.13635372599E+02 -0.94990743603E+03  0.10039880294E+04  0.32440722977E+03 0.  0.
         13    1    3    3    0    0  0.12089939754E+03  0.10538731323E+03 -0.57087894174E+03  0.59298053613E+03  0.00000000000E+00 0.  1.
          1    1    3    3  501    0 -0.10534780620E+03 -0.11902268583E+03 -0.37902849430E+03  0.41100749324E+03  0.00000000000E+00 0.  1.
         21    1    1    2  502  501 -0.15551591336E+02  0.13635372599E+02 -0.18413077433E+02  0.27691457158E+02  0.00000000000E+00 0. -1.
<mgrwt>
<rscale>  1 0.30000000E+03</rscale>
<asrwt>0</asrwt>
<pdfrwt beam="1">  1        1 0.11519838E+00 0.30000000E+03</pdfrwt>
<pdfrwt beam="2">0</pdfrwt>
<totfact> 0.27692777E+01</totfact>
</mgrwt>
</event>
<event>
 6    1  0.1969531E-004  0.3000000E+03  0.7818608E-02  0.1093470E+00
          1   -1    0    0  502    0  0.00000000000E+00  0.00000000000E+00  0.26599151662E+02  0.26599151662E+02  0.00000000000E+00 0.  1.
         13   -1    0    0    0    0 -0.00000000000E+00 -0.00000000000E+00 -0.10000000000E+04  0.10000000000E+04  0.00000000000E+00 0.  1.
    9000005    2    1    2  501    0 -0.66941687145E+01 -0.63282390839E+01 -0.95748009227E+03  0.10082054305E+04  0.31563460596E+03 0.  0.
         13    1    3    3    0    0 -0.49461894567E+02 -0.81395942478E+01 -0.96365360844E+03  0.96495648040E+03  0.00000000000E+00 0.  1.
          3    1    3    3  501    0  0.42767725853E+02  0.18113551639E+01  0.61735161710E+01  0.43248950092E+02  0.00000000000E+00 0.  1.
         21    1    1    2  502  501  0.66941687145E+01  0.63282390839E+01 -0.15920756072E+02  0.18393721173E+02  0.00000000000E+00 0.  1.
<mgrwt>
<rscale>  1 0.30000000E+03</rscale>
<asrwt>0</asrwt>
<pdfrwt beam="1">  1        1 0.96724392E-01 0.30000000E+03</pdfrwt>
<pdfrwt beam="2">0</pdfrwt>
<totfact> 0.35925988E+01</totfact>
</mgrwt>
</event>
<event>
 6    1  0.1969531E-004  0.3000000E+03  0.7818608E-02  0.1093470E+00
          1   -1    0    0  502    0  0.00000000000E+00  0.00000000000E+00  0.38564042750E+02  0.38564042750E+02  0.00000000000E+00 0.  1.
         13   -1    0    0    0    0 -0.00000000000E+00 -0.00000000000E+00 -0.10000000000E+04  0.10000000000E+04  0.00000000000E+00 0.  1.
    9000005    2    1    2  501    0 -0.81979480267E+01 -0.21907215559E+01 -0.94449940529E+03  0.10196206427E+04  0.38402489872E+03 0.  0.
         13    1    3    3    0    0 -0.12725860416E+03 -0.12615298947E+03 -0.68731293232E+03  0.71028754460E+03  0.00000000000E+00 0.  1.
          1    1    3    3  501    0  0.11906065614E+03  0.12396226791E+03 -0.25718647297E+03  0.30933309811E+03  0.00000000000E+00 0.  1.
         21    1    1    2  502  501  0.81979480267E+01  0.21907215559E+01 -0.16936551962E+02  0.18943400042E+02  0.00000000000E+00 0. -1.
<mgrwt>
<rscale>  1 0.30000000E+03</rscale>
<asrwt>0</asrwt>
<pdfrwt beam="1">  1        1 0.14023318E+00 0.30000000E+03</pdfrwt>
<pdfrwt beam="2">0</pdfrwt>
<totfact> 0.20175373E+01</totfact>
</mgrwt>
</event>
<event>
 6    1  0.1969531E-004  0.3000000E+03  0.7818608E-02  0.1093470E+00
          1   -1    0    0  502    0  0.00000000000E+00  0.00000000000E+00  0.12770061886E+02  0.12770061886E+02  0.00000000000E+00 0.  1.
         13   -1    0    0    0    0 -0.00000000000E+00 -0.00000000000E+00 -0.10000000000E+04  0.10000000000E+04  0.00000000000E+00 0.  1.
    9000005    2    1    2  501    0 -0.47526565330E+01 -0.99358959052E+01 -0.98150095638E+03  0.10003551111E+04  0.19298940681E+03 0.  0.
         13    1    3    3    0    0 -0.59539335808E+02 -0.56914322367E+02 -0.21138905356E+03  0.22686891494E+03  0.00000000000E+00 0.  1.
          1    1    3    3  501    0  0.54786679275E+02  0.46978426462E+02 -0.77011190281E+03  0.77348619615E+03  0.00000000000E+00 0.  1.
         21    1    1    2  502  501  0.47526565330E+01  0.99358959052E+01 -0.57289817364E+01  0.12414950797E+02  0.00000000000E+00 0. -1.
<mgrwt>
<rscale>  1 0.30000000E+03</rscale>
<asrwt>0</asrwt>
<pdfrwt beam="1">  1        1 0.46436687E-01 0.30000000E+03</pdfrwt>
<pdfrwt beam="2">0</pdfrwt>
<totfact> 0.97235587E+01</totfact>
</mgrwt>
</event>
<event>
 6    1  0.1969531E-004  0.3000000E+03  0.7818608E-02  0.1093470E+00
          1   -1    0    0  502    0  0.00000000000E+00  0.00000000000E+00  0.34238743744E+02  0.34238743744E+02  0.00000000000E+00 0.  1.
         13   -1    0    0    0    0 -0.00000000000E+00 -0.00000000000E+00 -0.10000000000E+04  0.10000000000E+04  0.00000000000E+00 0.  1.
    9000005    2    1    2  501    0 -0.20247843099E+02  0.26036471765E+01 -0.95954763554E+03  0.10128995026E+04  0.32375451106E+03 0.  0.
         13    1    3    3    0    0  0.10727398591E+03  0.38231156971E+02 -0.78805464551E+03  0.79624082647E+03  0.00000000000E+00 0.  1.
          3    1    3    3  501    0 -0.12752182901E+03 -0.35627509795E+02 -0.17149299003E+03  0.21665867617E+03  0.00000000000E+00 0.  1.
         21    1    1    2  502  501  0.20247843099E+02 -0.26036471765E+01 -0.62136207109E+01  0.21339241110E+02  0.00000000000E+00 0.  1.
<mgrwt>
<rscale>  1 0.30000000E+03</rscale>
<asrwt>0</asrwt>
<pdfrwt beam="1">  1        1 0.12450479E+00 0.30000000E+03</pdfrwt>
<pdfrwt beam="2">0</pdfrwt>
<totfact> 0.24528630E+01</totfact>
</mgrwt>
</event>
<event>
 6    1  0.1969531E-004  0.3000000E+03  0.7818608E-02  0.1093470E+00
          1   -1    0    0  502    0  0.00000000000E+00  0.00000000000E+00  0.46966995407E+02  0.46966995407E+02  0.00000000000E+00 0.  1.
         13   -1    0    0    0    0 -0.00000000000E+00 -0.00000000000E+00 -0.10000000000E+04  0.10000000000E+04  0.00000000000E+00 0.  1.
    9000005    2    1    2  501    0 -0.32840641320E+01  0.29844985441E+02 -0.95039895220E+03  0.10168265497E+04  0.36024513275E+03 0.  0.
         13    1    3    3    0    0  0.75602603488E+02 -0.12779447821E+03 -0.21973291213E+03  0.26519753956E+03  0.00000000000E+00 0.  1.
          3    1    3    3  501    0 -0.78886667620E+02  0.15763946365E+03 -0.73066604007E+03  0.75162901018E+03  0.00000000000E+00 0.  1.
         21    1    1    2  502  501  0.32840641320E+01 -0.29844985441E+02 -0.26340523909E+01  0.30140445670E+02  0.00000000000E+00 0.  1.
<mgrwt>
<rscale>  1 0.30000000E+03</rscale>
<asrwt>0</asrwt>
<pdfrwt beam="1">  1        1 0.17078943E+00 0.30000000E+03</pdfrwt>
<pdfrwt beam="2">0</pdfrwt>
<totfact> 0.14160895E+01</totfact>
</mgrwt>
</event>
<event>
 6    1  0.1969531E-004  0.3000000E+03  0.7818608E-02  0.1093470E+00
          1   -1    0    0  502    0  0.00000000000E+00  0.00000000000E+00  0.31615501491E+02  0.31615501491E+02  0.00000000000E+00 0.  1.
         13   -1    0    0    0    0 -0.00000000000E+00 -0.00000000000E+00 -0.10000000000E+04  0.10000000000E+04  0.00000000000E+00 0.  1.
    9000005    2    1    2  501    0  0.12274294895E+02 -0.18992027814E+02 -0.93494174324E+03  0.99124505047E+03  0.32854121719E+03 0.  0.
         13    1    3    3    0    0 -0.19405067075E+02 -0.15530502347E+03 -0.27310061360E+03  0.31476999872E+03  0.00000000000E+00 0.  1.
          1    1    3    3  501    0  0.31679361970E+02  0.13631299566E+03 -0.66184112964E+03  0.67647505175E+03  0.00000000000E+00 0.  1.
         21    1    1    2  502  501 -0.12274294895E+02  0.18992027814E+02 -0.33442755265E+02  0.40370451018E+02  0.00000000000E+00 0.  1.
<mgrwt>
<rscale>  1 0.30000000E+03</rscale>
<asrwt>0</asrwt>
<pdfrwt beam="1">  1        1 0.11496570E+00 0.30000000E+03</pdfrwt>
<pdfrwt beam="2">0</pdfrwt>
<totfact> 0.27778839E+01</totfact>
</mgrwt>
</event>
<event>
 6    1  0.1969531E-004  0.3000000E+03  0.7818608E-02  0.1093470E+00
          1   -1    0    0  502    0  0.00000000000E+00  0.00000000000E+00  0.33696467957E+02  0.33696467957E+02  0.00000000000E+00 0.  1.
         13   -1    0    0    0    0 -0.00000000000E+00 -0.00000000000E+00 -0.10000000000E+04  0.10000000000E+04  0.00000000000E+00 0.  1.
    9000005    2    1    2  501    0  0.37942249190E+01 -0.19294933924E+02 -0.94787008933E+03  0.10067431300E+04  0.33865518289E+03 0.  0.
         13    1    3    3    0    0  0.44695893610E+02  0.12675613031E+03 -0.18342633347E+03  0.22739845929E+03  0.00000000000E+00 0.  1.
          3    1    3    3  501    0 -0.40901668691E+02 -0.14605106423E+03 -0.76444375586E+03  0.77934467069E+03  0.00000000000E+00 0.  1.
         21    1    1    2  502  501 -0.37942249190E+01  0.19294933924E+02 -0.18433442717E+02  0.26953337980E+02  0.00000000000E+00 0. -1.
<mgrwt>
<rscale>  1 0.30000000E+03</rscale>
<asrwt>0</asrwt>
<pdfrwt beam="1">  1        1 0.12253287E+00 0.30000000E+03</pdfrwt>
<pdfrwt beam="2">0</pdfrwt>
<totfact> 0.25157234E+01</totfact>
</mgrwt>
</event>
<event>
 6    1  0.1969531E-004  0.3000000E+03  0.7818608E-02  0.1093470E+00
          1   -1    0    0  502    0  0.00000000000E+00  0.00000000000E+00  0.32309674887E+02  0.32309674887E+02  0.00000000000E+00 0.  1.
         13   -1    0    0    0    0 -0.00000000000E+00 -0.00000000000E+00 -0.10000000000E+04  0.10000000000E+04  0.00000000000E+00 0.  1.
    9000005    2    1    2  501    0 -0.22474318013E+02  0.40798553527E+02 -0.88901351648E+03  0.94087851413E+03  0.30452869969E+03 0.  0.
         13    1    3    3    0    0  0.38823068168E+02 -0.10507414649E+03 -0.16271873567E+03  0.19754795322E+03  0.00000000000E+00 0.  1.
          3    1    3    3  501    0 -0.61297386181E+02  0.14587270001E+03 -0.72629478081E+03  0.74333056092E+03  0.00000000000E+00 0.  1.
         21    1    1    2  502  501  0.22474318013E+02 -0.40798553527E+02 -0.78676808634E+02  0.91431160754E+02  0.00000000000E+00 0.  1.
<mgrwt>
<rscale>  1 0.30000000E+03</rscale>
<asrwt>0</asrwt>
<pdfrwt beam="1">  1        1 0.11748997E+00 0.30000000E+03</pdfrwt>
<pdfrwt beam="2">0</pdfrwt>
<totfact> 0.26864636E+01</totfact>
</mgrwt>
</event>
<event>
 6    1  0.1969531E-004  0.3000000E+03  0.7818608E-02  0.1093470E+00
          1   -1    0    0  502    0  0.00000000000E+00  0.00000000000E+00  0.32987037394E+02  0.32987037394E+02  0.00000000000E+00 0.  1.
         13   -1    0    0    0    0 -0.00000000000E+00 -0.00000000000E+00 -0.10000000000E+04  0.10000000000E+04  0.00000000000E+00 0.  1.
    9000005    2    1    2  501    0  0.48504189718E+01 -0.40606382449E+02 -0.88168527325E+03  0.93836558406E+03  0.31857282280E+03 0.  0.
         13    1    3    3    0    0  0.54644857549E+02 -0.16800594273E+03 -0.39272778434E+03  0.43063577399E+03  0.00000000000E+00 0.  1.
          3    1    3    3  501    0 -0.49794438577E+02  0.12739956028E+03 -0.48895748891E+03  0.50772981007E+03  0.00000000000E+00 0.  1.
         21    1    1    2  502  501 -0.48504189718E+01  0.40606382449E+02 -0.85327689358E+02  0.94621453333E+02  0.00000000000E+00 0.  1.
<mgrwt>
<rscale>  1 0.30000000E+03</rscale>
<asrwt>0</asrwt>
<pdfrwt beam="1">  1        1 0.11995312E+00 0.30000000E+03</pdfrwt>
<pdfrwt beam="2">0</pdfrwt>
<totfact> 0.26011895E+01</totfact>
</mgrwt>
</event>
<event>
 6    1  0.1969531E-004  0.3000000E+03  0.7818608E-02  0.1093470E+00
          1   -1    0    0  502    0  0.00000000000E+00  0.00000000000E+00  0.70126748508E+02  0.70126748508E+02  0.00000000000E+00 0.  1.
         13   -1    0    0    0    0 -0.00000000000E+00 -0.00000000000E+00 -0.10000000000E+04  0.10000000000E+04  0.00000000000E+00 0.  1.
    9000005    2    1    2  501    0 -0.19793883233E+02 -0.91471012573E+01 -0.95814340560E+03  0.10344242432E+04  0.38925475191E+03 0.  0.
         13    1    3    3    0    0  0.78061458695E+01  0.16962449529E+03 -0.69268020546E+03  0.71318950662E+03  0.00000000000E+00 0.  1.
          1    1    3    3  501    0 -0.27600029102E+02 -0.17877159654E+03 -0.26546320014E+03  0.32123473654E+03  0.00000000000E+00 0.  1.
         21    1    1    2  502  501  0.19793883233E+02  0.91471012573E+01  0.28270154104E+02  0.35702505345E+02  0.00000000000E+00 0.  1.
<mgrwt>
<rscale>  1 0.30000000E+03</rscale>
<asrwt>0</asrwt>
<pdfrwt beam="1">  1        1 0.25500690E+00 0.30000000E+03</pdfrwt>
<pdfrwt beam="2">0</pdfrwt>
<totfact> 0.56542042E+00</totfact>
</mgrwt>
</event>
<event>
 6    1  0.1969531E-004  0.3000000E+03  0.7818608E-02  0.1093470E+00
          1   -1    0    0  502    0  0.00000000000E+00  0.00000000000E+00  0.51521520030E+02  0.51521520030E+02  0.00000000000E+00 0.  1.
         13   -1    0    0    0    0 -0.00000000000E+00 -0.00000000000E+00 -0.10000000000E+04  0.10000000000E+04  0.00000000000E+00 0.  1.
    9000005    2    1    2  501    0 -0.30175727662E+02  0.18537163401E+02 -0.95946737230E+03  0.10144411112E+04  0.32750408936E+03 0.  0.
         13    1    3    3    0    0 -0.24748309191E+02 -0.15291087716E+03 -0.52369936679E+03  0.54612749604E+03  0.00000000000E+00 0.  1.
          1    1    3    3  501    0 -0.54274184711E+01  0.17144804056E+03 -0.43576800551E+03  0.46831361512E+03  0.00000000000E+00 0.  1.
         21    1    1    2  502  501  0.30175727662E+02 -0.18537163401E+02  0.10988892329E+02  0.37080408864E+02  0.00000000000E+00 0. -1.
<mgrwt>
<rscale>  1 0.30000000E+03</rscale>
<asrwt>0</asrwt>
<pdfrwt beam="1">  1        1 0.18735138E+00 0.30000000E+03</pdfrwt>
<pdfrwt beam="2">0</pdfrwt>
<totfact> 0.11773867E+01</totfact>
</mgrwt>
</event>
<event>
 6    1  0.1969531E-004  0.3000000E+03  0.7818608E-02  0.1093470E+00
          1   -1    0    0  502    0  0.00000000000E+00  0.00000000000E+00  0.79854826293E+01  0.79854826293E+01  0.00000000000E+00 0.  1.
         13   -1    0    0    0    0 -0.00000000000E+00 -0.00000000000E+00 -0.10000000000E+04  0.10000000000E+04  0.00000000000E+00 0.  1.
    9000005    2    1    2  501    0 -0.19783593213E+02 -0.61281536885E+01 -0.95473752208E+03  0.96534138332E+03  0.14117827543E+03 0.  0.
         13    1    3    3    0    0 -0.79125877224E+02 -0.20226379838E+02 -0.55550854215E+03  0.56147996518E+03  0.00000000000E+00 0.  1.
          1    1    3    3  501    0  0.59342284010E+02  0.14098226150E+02 -0.39922897993E+03  0.40386141814E+03  0.00000000000E+00 0.  1.
         21    1    1    2  502  501  0.19783593213E+02  0.61281536885E+01 -0.37276995290E+02  0.42644099309E+02  0.00000000000E+00 0.  1.
<mgrwt>
<rscale>  1 0.30000000E+03</rscale>
<asrwt>0</asrwt>
<pdfrwt beam="1">  1        1 0.29038180E-01 0.30000000E+03</pdfrwt>
<pdfrwt beam="2">0</pdfrwt>
<totfact> 0.17974029E+02</totfact>
</mgrwt>
</event>
<event>
 6    1  0.1969531E-004  0.3000000E+03  0.7818608E-02  0.1093470E+00
          1   -1    0    0  502    0  0.00000000000E+00  0.00000000000E+00  0.71861678479E+02  0.71861678479E+02  0.00000000000E+00 0.  1.
         13   -1    0    0    0    0 -0.00000000000E+00 -0.00000000000E+00 -0.10000000000E+04  0.10000000000E+04  0.00000000000E+00 0.  1.
    9000005    2    1    2  501    0 -0.19263959139E+02  0.10965480971E+03 -0.85564307943E+03  0.93900522383E+03  0.37041929431E+03 0.  0.
         13    1    3    3    0    0 -0.91233639882E+02  0.34482406458E+02 -0.82467934923E+03  0.83042678332E+03  0.00000000000E+00 0.  1.
          1    1    3    3  501    0  0.71969680743E+02  0.75172403254E+02 -0.30963730196E+02  0.10857844052E+03  0.00000000000E+00 0.  1.
         21    1    1    2  502  501  0.19263959139E+02 -0.10965480971E+03 -0.72495242093E+02  0.13285645465E+03  0.00000000000E+00 0.  1.
<mgrwt>
<rscale>  1 0.30000000E+03</rscale>
<asrwt>0</asrwt>
<pdfrwt beam="1">  1        1 0.26131575E+00 0.30000000E+03</pdfrwt>
<pdfrwt beam="2">0</pdfrwt>
<totfact> 0.52825710E+00</totfact>
</mgrwt>
</event>
<event>
 6    1  0.1969531E-004  0.3000000E+03  0.7818608E-02  0.1093470E+00
          1   -1    0    0  502    0  0.00000000000E+00  0.00000000000E+00  0.29969743649E+02  0.29969743649E+02  0.00000000000E+00 0.  1.
         13   -1    0    0    0    0 -0.00000000000E+00 -0.00000000000E+00 -0.10000000000E+04  0.10000000000E+04  0.00000000000E+00 0.  1.
    9000005    2    1    2  501    0 -0.13597346795E+02 -0.91261729582E-02 -0.95832872112E+03  0.10120305728E+04  0.32500316104E+03 0.  0.
         13    1    3    3    0    0  0.78322361030E+02 -0.77187500416E+02 -0.82636126570E+03  0.83364575445E+03  0.00000000000E+00 0.  1.
          3    1    3    3  501    0 -0.91919707824E+02  0.77178374243E+02 -0.13196745542E+03  0.17838481837E+03  0.00000000000E+00 0.  1.
         21    1    1    2  502  501  0.13597346795E+02  0.91261729582E-02 -0.11701535235E+02  0.17939170828E+02  0.00000000000E+00 0.  1.
<mgrwt>
<rscale>  1 0.30000000E+03</rscale>
<asrwt>0</asrwt>
<pdfrwt beam="1">  1        1 0.10898112E+00 0.30000000E+03</pdfrwt>
<pdfrwt beam="2">0</pdfrwt>
<totfact> 0.30129250E+01</totfact>
</mgrwt>
</event>
<event>
 6    1  0.1969531E-004  0.3000000E+03  0.7818608E-02  0.1093470E+00
          1   -1    0    0  502    0  0.00000000000E+00  0.00000000000E+00  0.26790799147E+02  0.26790799147E+02  0.00000000000E+00 0.  1.
         13   -1    0    0    0    0 -0.00000000000E+00 -0.00000000000E+00 -0.10000000000E+04  0.10000000000E+04  0.00000000000E+00 0.  1.
    9000005    2    1    2  501    0  0.52095456694E+01 -0.59125929887E+01 -0.95381994100E+03  0.10058613577E+04  0.31925302337E+03 0.  0.
         13    1    3    3    0    0  0.83008919647E+02 -0.97025545469E+02 -0.80376167074E+03  0.81384105362E+03  0.00000000000E+00 0.  1.
          1    1    3    3  501    0 -0.77799373978E+02  0.91112952480E+02 -0.15005827026E+03  0.19202030407E+03  0.00000000000E+00 0.  1.
         21    1    1    2  502  501 -0.52095456694E+01  0.59125929887E+01 -0.19389259857E+02  0.20929441458E+02  0.00000000000E+00 0.  1.
<mgrwt>
<rscale>  1 0.30000000E+03</rscale>
<asrwt>0</asrwt>
<pdfrwt beam="1">  1        1 0.97421293E-01 0.30000000E+03</pdfrwt>
<pdfrwt beam="2">0</pdfrwt>
<totfact> 0.35554219E+01</totfact>
</mgrwt>
</event>
<event>
 6    1  0.1969531E-004  0.3000000E+03  0.7818608E-02  0.1093470E+00
          1   -1    0    0  502    0  0.00000000000E+00  0.00000000000E+00  0.35875633310E+02  0.35875633310E+02  0.00000000000E+00 0.  1.
         13   -1    0    0    0    0 -0.00000000000E+00 -0.00000000000E+00 -0.10000000000E+04  0.10000000000E+04  0.00000000000E+00 0.  1.
    9000005    2    1    2  501    0  0.13060089919E+02 -0.11938472859E+02 -0.96527816862E+03  0.10181436187E+04  0.32332861366E+03 0.  0.
         13    1    3    3    0    0 -0.12120300274E+03  0.64527480785E+02 -0.23921482148E+03  0.27582185277E+03  0.00000000000E+00 0.  1.
          3    1    3    3  501    0  0.13426309266E+03 -0.76465953644E+02 -0.72606334715E+03  0.74232176594E+03  0.00000000000E+00 0.  1.
         21    1    1    2  502  501 -0.13060089919E+02  0.11938472859E+02  0.11538019338E+01  0.17732014601E+02  0.00000000000E+00 0. -1.
<mgrwt>
<rscale>  1 0.30000000E+03</rscale>
<asrwt>0</asrwt>
<pdfrwt beam="1">  1        1 0.13045712E+00 0.30000000E+03</pdfrwt>
<pdfrwt beam="2">0</pdfrwt>
<totfact> 0.22749141E+01</totfact>
</mgrwt>
</event>
<event>
 6    1  0.1969531E-004  0.3000000E+03  0.7818608E-02  0.1093470E+00
          1   -1    0    0  502    0  0.00000000000E+00  0.00000000000E+00  0.46969427348E+02  0.46969427348E+02  0.00000000000E+00 0.  1.
         13   -1    0    0    0    0 -0.00000000000E+00 -0.00000000000E+00 -0.10000000000E+04  0.10000000000E+04  0.00000000000E+00 0.  1.
    9000005    2    1    2  501    0  0.41529853066E+02  0.24235628665E+02 -0.94304777633E+03  0.99785984972E+03  0.32260359089E+03 0.  0.
         13    1    3    3    0    0 -0.12959276863E+03 -0.69141577788E+01 -0.59233179791E+03  0.60638193416E+03  0.00000000000E+00 0.  1.
          1    1    3    3  501    0  0.17112262170E+03  0.31149786444E+02 -0.35071597841E+03  0.39147791556E+03  0.00000000000E+00 0.  1.
         21    1    1    2  502  501 -0.41529853066E+02 -0.24235628665E+02 -0.99827963253E+01  0.49109577629E+02  0.00000000000E+00 0.  1.
<mgrwt>
<rscale>  1 0.30000000E+03</rscale>
<asrwt>0</asrwt>
<pdfrwt beam="1">  1        1 0.17079828E+00 0.30000000E+03</pdfrwt>
<pdfrwt beam="2">0</pdfrwt>
<totfact> 0.14159487E+01</totfact>
</mgrwt>
</event>
<event>
 6    1  0.1969531E-004  0.3000000E+03  0.7818608E-02  0.1093470E+00
          1   -1    0    0  502    0  0.00000000000E+00  0.00000000000E+00  0.68035962494E+02  0.68035962494E+02  0.00000000000E+00 0.  1.
         13   -1    0    0    0    0 -0.00000000000E+00 -0.00000000000E+00 -0.10000000000E+04  0.10000000000E+04  0.00000000000E+00 0.  1.
    9000005    2    1    2  501    0  0.91256699649E+02  0.43993623463E+02 -0.89745647319E+03  0.96101261863E+03  0.32841118702E+03 0.  0.
         13    1    3    3    0    0  0.18508584827E+03  0.90482748302E+02 -0.76449258550E+03  0.79176562962E+03  0.00000000000E+00 0.  1.
          1    1    3    3  501    0 -0.93829148619E+02 -0.46489124839E+02 -0.13296388770E+03  0.16924698901E+03  0.00000000000E+00 0.  1.
         21    1    1    2  502  501 -0.91256699649E+02 -0.43993623463E+02 -0.34507564313E+02  0.10702334386E+03  0.00000000000E+00 0.  1.
<mgrwt>
<rscale>  1 0.30000000E+03</rscale>
<asrwt>0</asrwt>
<pdfrwt beam="1">  1        1 0.24740402E+00 0.30000000E+03</pdfrwt>
<pdfrwt beam="2">0</pdfrwt>
<totfact> 0.61345561E+00</totfact>
</mgrwt>
</event>
<event>
 6    1  0.1969531E-004  0.3000000E+03  0.7818608E-02  0.1093470E+00
          3   -1    0    0  502    0  0.00000000000E+00  0.00000000000E+00  0.27081269652E+02  0.27081269652E+02  0.00000000000E+00 0.  1.
         13   -1    0    0    0    0 -0.00000000000E+00 -0.00000000000E+00 -0.10000000000E+04  0.10000000000E+04  0.00000000000E+00 0.  1.
    9000005    2    1    2  501    0 -0.82556507084E+01  0.77544443795E+01 -0.96161154773E+03  0.10110769092E+04  0.31217216454E+03 0.  0.
         13    1    3    3    0    0  0.94807481861E+02  0.52834083542E+02 -0.83370936966E+03  0.84074443921E+03  0.00000000000E+00 0.  1.
          3    1    3    3  501    0 -0.10306313257E+03 -0.45079639163E+02 -0.12790217807E+03  0.17033246994E+03  0.00000000000E+00 0.  1.
         21    1    1    2  502  501  0.82556507084E+01 -0.77544443795E+01 -0.11307182615E+02  0.16004360497E+02  0.00000000000E+00 0.  1.
<mgrwt>
<rscale>  1 0.30000000E+03</rscale>
<asrwt>0</asrwt>
<pdfrwt beam="1">  1        3 0.98477552E-01 0.30000000E+03</pdfrwt>
<pdfrwt beam="2">0</pdfrwt>
<totfact> 0.40767706E+00</totfact>
</mgrwt>
</event>
<event>
 6    1  0.1969531E-004  0.3000000E+03  0.7818608E-02  0.1093470E+00
          1   -1    0    0  502    0  0.00000000000E+00  0.00000000000E+00  0.28953634077E+02  0.28953634077E+02  0.00000000000E+00 0.  1.
         13   -1    0    0    0    0 -0.00000000000E+00 -0.00000000000E+00 -0.10000000000E+04  0.10000000000E+04  0.00000000000E+00 0.  1.
    9000005    2    1    2  501    0  0.10738299324E+02  0.26695174015E+01 -0.96505735255E+03  0.10163716757E+04  0.31867420989E+03 0.  0.
         13    1    3    3    0    0 -0.75840241731E+02  0.95062497241E+02 -0.15768562900E+03  0.19913156013E+03  0.00000000000E+00 0.  1.
          3    1    3    3  501    0  0.86578541056E+02 -0.92392979839E+02 -0.80737172356E+03  0.81724011557E+03  0.00000000000E+00 0.  1.
         21    1    1    2  502  501 -0.10738299324E+02 -0.26695174015E+01 -0.59890133729E+01  0.12581958382E+02  0.00000000000E+00 0.  1.
<mgrwt>
<rscale>  1 0.30000000E+03</rscale>
<asrwt>0</asrwt>
<pdfrwt beam="1">  1        1 0.10528616E+00 0.30000000E+03</pdfrwt>
<pdfrwt beam="2">0</pdfrwt>
<totfact> 0.31724171E+01</totfact>
</mgrwt>
</event>
<event>
 6    1  0.1969531E-004  0.3000000E+03  0.7818608E-02  0.1093470E+00
          3   -1    0    0  502    0  0.00000000000E+00  0.00000000000E+00  0.31756051389E+02  0.31756051389E+02  0.00000000000E+00 0.  1.
         13   -1    0    0    0    0 -0.00000000000E+00 -0.00000000000E+00 -0.10000000000E+04  0.10000000000E+04  0.00000000000E+00 0.  1.
    9000005    2    1    2  501    0  0.49152085749E+01  0.10359046256E+02 -0.96883257241E+03  0.10202749542E+04  0.31967633583E+03 0.  0.
         13    1    3    3    0    0 -0.34538431014E+02  0.12876724239E+03 -0.19362202351E+03  0.23508167499E+03  0.00000000000E+00 0.  1.
          1    1    3    3  501    0  0.39453639589E+02 -0.11840819613E+03 -0.77521054891E+03  0.78519327921E+03  0.00000000000E+00 0.  1.
         21    1    1    2  502  501 -0.49152085749E+01 -0.10359046256E+02  0.58862379959E+00  0.11481097188E+02  0.00000000000E+00 0. -1.
<mgrwt>
<rscale>  1 0.30000000E+03</rscale>
<asrwt>0</asrwt>
<pdfrwt beam="1">  1        3 0.11547679E+00 0.30000000E+03</pdfrwt>
<pdfrwt beam="2">0</pdfrwt>
<totfact> 0.26087449E+00</totfact>
</mgrwt>
</event>
<event>
 6    1  0.1969531E-004  0.3000000E+03  0.7818608E-02  0.1093470E+00
          1   -1    0    0  502    0  0.00000000000E+00  0.00000000000E+00  0.29418829229E+02  0.29418829229E+02  0.00000000000E+00 0.  1.
         13   -1    0    0    0    0 -0.00000000000E+00 -0.00000000000E+00 -0.10000000000E+04  0.10000000000E+04  0.00000000000E+00 0.  1.
    9000005    2    1    2  501    0  0.12177765426E+02 -0.74692611402E+01 -0.91431781952E+03  0.97137012101E+03  0.32768696808E+03 0.  0.
         13    1    3    3    0    0  0.77724694090E+02  0.76338009569E+02 -0.82583331064E+03  0.83298816122E+03  0.00000000000E+00 0.  1.
          3    1    3    3  501    0 -0.65546928664E+02 -0.83807270709E+02 -0.88484508887E+02  0.13838195978E+03  0.00000000000E+00 0.  1.
         21    1    1    2  502  501 -0.12177765426E+02  0.74692611402E+01 -0.56263351248E+02  0.58048708223E+02  0.00000000000E+00 0.  1.
<mgrwt>
<rscale>  1 0.30000000E+03</rscale>
<asrwt>0</asrwt>
<pdfrwt beam="1">  1        1 0.10697779E+00 0.30000000E+03</pdfrwt>
<pdfrwt beam="2">0</pdfrwt>
<totfact> 0.30979307E+01</totfact>
</mgrwt>
</event>
<event>
 6    1  0.1969531E-004  0.3000000E+03  0.7818608E-02  0.1093470E+00
          1   -1    0    0  502    0  0.00000000000E+00  0.00000000000E+00  0.73755408100E+02  0.73755408100E+02  0.00000000000E+00 0.  1.
         13   -1    0    0    0    0 -0.00000000000E+00 -0.00000000000E+00 -0.10000000000E+04  0.10000000000E+04  0.00000000000E+00 0.  1.
    9000005    2    1    2  501    0 -0.14110228483E+02 -0.20717258948E+02 -0.96922581613E+03  0.10239991120E+04  0.32946501382E+03 0.  0.
         13    1    3    3    0    0 -0.99768685622E+02  0.70032364359E+02 -0.14082867903E+03  0.18625530737E+03  0.00000000000E+00 0.  1.
          3    1    3    3  501    0  0.85658457138E+02 -0.90749623307E+02 -0.82839713710E+03  0.83774380462E+03  0.00000000000E+00 0.  1.
         21    1    1    2  502  501  0.14110228483E+02  0.20717258948E+02  0.42981224232E+02  0.49756296110E+02  0.00000000000E+00 0.  1.
<mgrwt>
<rscale>  1 0.30000000E+03</rscale>
<asrwt>0</asrwt>
<pdfrwt beam="1">  1        1 0.26820205E+00 0.30000000E+03</pdfrwt>
<pdfrwt beam="2">0</pdfrwt>
<totfact> 0.49024964E+00</totfact>
</mgrwt>
</event>
<event>
 6    1  0.1969531E-004  0.3000000E+03  0.7818608E-02  0.1093470E+00
          1   -1    0    0  502    0  0.00000000000E+00  0.00000000000E+00  0.31288187164E+02  0.31288187164E+02  0.00000000000E+00 0.  1.
         13   -1    0    0    0    0 -0.00000000000E+00 -0.00000000000E+00 -0.10000000000E+04  0.10000000000E+04  0.00000000000E+00 0.  1.
    9000005    2    1    2  501    0 -0.14093681433E+02  0.27506886010E+01 -0.96004584534E+03  0.10145162720E+04  0.32764163799E+03 0.  0.
         13    1    3    3    0    0  0.45545066829E+01  0.80075494782E+02 -0.37483987317E+02  0.88531789211E+02  0.00000000000E+00 0.  1.
          3    1    3    3  501    0 -0.18648188116E+02 -0.77324806181E+02 -0.92256185802E+03  0.92598448283E+03  0.00000000000E+00 0.  1.
         21    1    1    2  502  501  0.14093681433E+02 -0.27506886010E+01 -0.86659674952E+01  0.16771915118E+02  0.00000000000E+00 0. -1.
<mgrwt>
<rscale>  1 0.30000000E+03</rscale>
<asrwt>0</asrwt>
<pdfrwt beam="1">  1        1 0.11377547E+00 0.30000000E+03</pdfrwt>
<pdfrwt beam="2">0</pdfrwt>
<totfact> 0.28225028E+01</totfact>
</mgrwt>
</event>
<event>
 6    1  0.1969531E-004  0.3000000E+03  0.7818608E-02  0.1093470E+00
          1   -1    0    0  502    0  0.00000000000E+00  0.00000000000E+00  0.27240383857E+02  0.27240383857E+02  0.00000000000E+00 0.  1.
         13   -1    0    0    0    0 -0.00000000000E+00 -0.00000000000E+00 -0.10000000000E+04  0.10000000000E+04  0.00000000000E+00 0.  1.
    9000005    2    1    2  501    0 -0.61068145443E+01 -0.15518055463E+02 -0.89657583389E+03  0.94925274440E+03  0.31137508509E+03 0.  0.
         13    1    3    3    0    0  0.17501020558E+02 -0.14435207156E+03 -0.24716732849E+03  0.28676731780E+03  0.00000000000E+00 0.  1.
          3    1    3    3  501    0 -0.23607835102E+02  0.12883401609E+03 -0.64940850540E+03  0.66248542661E+03  0.00000000000E+00 0.  1.
         21    1    1    2  502  501  0.61068145443E+01  0.15518055463E+02 -0.76183782255E+02  0.77987639455E+02  0.00000000000E+00 0.  1.
<mgrwt>
<rscale>  1 0.30000000E+03</rscale>
<asrwt>0</asrwt>
<pdfrwt beam="1">  1        1 0.99056150E-01 0.30000000E+03</pdfrwt>
<pdfrwt beam="2">0</pdfrwt>
<totfact> 0.34704132E+01</totfact>
</mgrwt>
</event>
<event>
 6    1  0.1969531E-004  0.3000000E+03  0.7818608E-02  0.1093470E+00
          1   -1    0    0  502    0  0.00000000000E+00  0.00000000000E+00  0.39243343826E+02  0.39243343826E+02  0.00000000000E+00 0.  1.
         13   -1    0    0    0    0 -0.00000000000E+00 -0.00000000000E+00 -0.10000000000E+04  0.10000000000E+04  0.00000000000E+00 0.  1.
    9000005    2    1    2  501    0  0.10411781274E+02 -0.49905724099E+01 -0.96920994526E+03  0.10249335885E+04  0.33314806283E+03 0.  0.
         13    1    3    3    0    0  0.69204156151E+02 -0.93812147195E+02 -0.11378235006E+03  0.16289983848E+03  0.00000000000E+00 0.  1.
          1    1    3    3  501    0 -0.58792374876E+02  0.88821574785E+02 -0.85542759519E+03  0.86203374998E+03  0.00000000000E+00 0.  1.
         21    1    1    2  502  501 -0.10411781274E+02  0.49905724099E+01  0.84532890840E+01  0.14309755365E+02  0.00000000000E+00 0.  1.
<mgrwt>
<rscale>  1 0.30000000E+03</rscale>
<asrwt>0</asrwt>
<pdfrwt beam="1">  1        1 0.14270337E+00 0.30000000E+03</pdfrwt>
<pdfrwt beam="2">0</pdfrwt>
<totfact> 0.19585319E+01</totfact>
</mgrwt>
</event>
<event>
 6    1  0.1969531E-004  0.3000000E+03  0.7818608E-02  0.1093470E+00
          1   -1    0    0  502    0  0.00000000000E+00  0.00000000000E+00  0.37608182312E+02  0.37608182312E+02  0.00000000000E+00 0.  1.
         13   -1    0    0    0    0 -0.00000000000E+00 -0.00000000000E+00 -0.10000000000E+04  0.10000000000E+04  0.00000000000E+00 0.  1.
    9000005    2    1    2  501    0  0.31426585486E+02  0.98370113729E+01 -0.95394714591E+03  0.10036124539E+04  0.31006193476E+03 0.  0.
         13    1    3    3    0    0  0.21665709164E+02 -0.94727183787E+02 -0.87310748416E+02  0.13063617068E+03  0.00000000000E+00 0.  1.
          3    1    3    3  501    0  0.97608763228E+01  0.10456419516E+03 -0.86663639750E+03  0.87297628323E+03  0.00000000000E+00 0.  1.
         21    1    1    2  502  501 -0.31426585486E+02 -0.98370113729E+01 -0.84446717776E+01  0.33995728401E+02  0.00000000000E+00 0.  1.
<mgrwt>
<rscale>  1 0.30000000E+03</rscale>
<asrwt>0</asrwt>
<pdfrwt beam="1">  1        1 0.13675731E+00 0.30000000E+03</pdfrwt>
<pdfrwt beam="2">0</pdfrwt>
<totfact> 0.21044582E+01</totfact>
</mgrwt>
</event>
<event>
 6    1  0.1969531E-004  0.3000000E+03  0.7818608E-02  0.1093470E+00
          1   -1    0    0  502    0  0.00000000000E+00  0.00000000000E+00  0.30359252040E+02  0.30359252040E+02  0.00000000000E+00 0.  1.
         13   -1    0    0    0    0 -0.00000000000E+00 -0.00000000000E+00 -0.10000000000E+04  0.10000000000E+04  0.00000000000E+00 0.  1.
    9000005    2    1    2  501    0 -0.15235566084E+02 -0.65732062589E+01 -0.95343535095E+03  0.10071656235E+04  0.32414239945E+03 0.  0.
         13    1    3    3    0    0  0.27172358089E+01 -0.46611712471E+02 -0.96143083293E+03  0.96256391041E+03  0.00000000000E+00 0.  1.
          1    1    3    3  501    0 -0.17952801892E+02  0.40038506212E+02  0.79954819767E+01  0.44601713056E+02  0.00000000000E+00 0.  1.
         21    1    1    2  502  501  0.15235566084E+02  0.65732062589E+01 -0.16205397006E+02  0.23193628576E+02  0.00000000000E+00 0. -1.
<mgrwt>
<rscale>  1 0.30000000E+03</rscale>
<asrwt>0</asrwt>
<pdfrwt beam="1">  1        1 0.11039751E+00 0.30000000E+03</pdfrwt>
<pdfrwt beam="2">0</pdfrwt>
<totfact> 0.29548184E+01</totfact>
</mgrwt>
</event>
<event>
 6    1  0.1969531E-004  0.3000000E+03  0.7818608E-02  0.1093470E+00
          1   -1    0    0  502    0  0.00000000000E+00  0.00000000000E+00  0.38298542293E+02  0.38298542293E+02  0.00000000000E+00 0.  1.
         13   -1    0    0    0    0 -0.00000000000E+00 -0.00000000000E+00 -0.10000000000E+04  0.10000000000E+04  0.00000000000E+00 0.  1.
    9000005    2    1    2  501    0  0.61033046294E+02  0.35340382140E+02 -0.79279992953E+03  0.85526384184E+03  0.31300245294E+03 0.  0.
         13    1    3    3    0    0  0.16081159535E+03 -0.59632453234E+02 -0.32335817394E+03  0.36602856082E+03  0.00000000000E+00 0.  1.
          1    1    3    3  501    0 -0.99778549054E+02  0.94972835374E+02 -0.46944175559E+03  0.48923528103E+03  0.00000000000E+00 0.  1.
         21    1    1    2  502  501 -0.61033046294E+02 -0.35340382140E+02 -0.16890152817E+03  0.18303470045E+03  0.00000000000E+00 0.  1.
<mgrwt>
<rscale>  1 0.30000000E+03</rscale>
<asrwt>0</asrwt>
<pdfrwt beam="1">  1        1 0.13926772E+00 0.30000000E+03</pdfrwt>
<pdfrwt beam="2">0</pdfrwt>
<totfact> 0.20412129E+01</totfact>
</mgrwt>
</event>
<event>
 6    1  0.1969531E-004  0.3000000E+03  0.7818608E-02  0.1093470E+00
          1   -1    0    0  502    0  0.00000000000E+00  0.00000000000E+00  0.42473052503E+02  0.42473052503E+02  0.00000000000E+00 0.  1.
         13   -1    0    0    0    0 -0.00000000000E+00 -0.00000000000E+00 -0.10000000000E+04  0.10000000000E+04  0.00000000000E+00 0.  1.
    9000005    2    1    2  501    0  0.27997702915E+02  0.21289736837E+02 -0.95048174684E+03  0.10066016277E+04  0.32953628269E+03 0.  0.
         13    1    3    3    0    0  0.15533226358E+03 -0.35039264136E+02 -0.71940793957E+03  0.73681995471E+03  0.00000000000E+00 0.  1.
          1    1    3    3  501    0 -0.12733456067E+03  0.56329000974E+02 -0.23107380727E+03  0.26978167302E+03  0.00000000000E+00 0.  1.
         21    1    1    2  502  501 -0.27997702915E+02 -0.21289736837E+02 -0.70452006598E+01  0.35871424776E+02  0.00000000000E+00 0.  1.
<mgrwt>
<rscale>  1 0.30000000E+03</rscale>
<asrwt>0</asrwt>
<pdfrwt beam="1">  1        1 0.15444779E+00 0.30000000E+03</pdfrwt>
<pdfrwt beam="2">0</pdfrwt>
<totfact> 0.17058559E+01</totfact>
</mgrwt>
</event>
<event>
 6    1  0.1969531E-004  0.3000000E+03  0.7818608E-02  0.1093470E+00
          1   -1    0    0  502    0  0.00000000000E+00  0.00000000000E+00  0.57588503835E+02  0.57588503835E+02  0.00000000000E+00 0.  1.
         13   -1    0    0    0    0 -0.00000000000E+00 -0.00000000000E+00 -0.10000000000E+04  0.10000000000E+04  0.00000000000E+00 0.  1.
    9000005    2    1    2  501    0 -0.11286814017E+02  0.99049082829E+00 -0.97238231270E+03  0.10255475443E+04  0.32571771577E+03 0.  0.
         13    1    3    3    0    0 -0.68850248583E+02  0.94259410280E+02 -0.12469509577E+03  0.17080415705E+03  0.00000000000E+00 0.  1.
          1    1    3    3  501    0  0.57563434566E+02 -0.93268919451E+02 -0.84768721693E+03  0.85474338727E+03  0.00000000000E+00 0.  1.
         21    1    1    2  502  501  0.11286814017E+02 -0.99049082829E+00  0.29970816536E+02  0.32040959514E+02  0.00000000000E+00 0.  1.
<mgrwt>
<rscale>  1 0.30000000E+03</rscale>
<asrwt>0</asrwt>
<pdfrwt beam="1">  1        1 0.20941318E+00 0.30000000E+03</pdfrwt>
<pdfrwt beam="2">0</pdfrwt>
<totfact> 0.92440035E+00</totfact>
</mgrwt>
</event>
<event>
 6    1  0.1969531E-004  0.3000000E+03  0.7818608E-02  0.1093470E+00
          1   -1    0    0  502    0  0.00000000000E+00  0.00000000000E+00  0.38733525132E+02  0.38733525132E+02  0.00000000000E+00 0.  1.
         13   -1    0    0    0    0 -0.00000000000E+00 -0.00000000000E+00 -0.10000000000E+04  0.10000000000E+04  0.00000000000E+00 0.  1.
    9000005    2    1    2  501    0 -0.34857986777E+02 -0.38637718720E+02 -0.90438570106E+03  0.96164023762E+03  0.32269257473E+03 0.  0.
         13    1    3    3    0    0 -0.41350191294E+02  0.13917631673E+03 -0.47957454376E+03  0.50107048255E+03  0.00000000000E+00 0.  1.
          3    1    3    3  501    0  0.64922045162E+01 -0.17781403545E+03 -0.42481115730E+03  0.46056975507E+03  0.00000000000E+00 0.  1.
         21    1    1    2  502  501  0.34857986777E+02  0.38637718720E+02 -0.56880773810E+02  0.77093287511E+02  0.00000000000E+00 0.  1.
<mgrwt>
<rscale>  1 0.30000000E+03</rscale>
<asrwt>0</asrwt>
<pdfrwt beam="1">  1        1 0.14084948E+00 0.30000000E+03</pdfrwt>
<pdfrwt beam="2">0</pdfrwt>
<totfact> 0.20026066E+01</totfact>
</mgrwt>
</event>
<event>
 6    1  0.1969531E-004  0.3000000E+03  0.7818608E-02  0.1093470E+00
          1   -1    0    0  502    0  0.00000000000E+00  0.00000000000E+00  0.42585145839E+02  0.42585145839E+02  0.00000000000E+00 0.  1.
         13   -1    0    0    0    0 -0.00000000000E+00 -0.00000000000E+00 -0.10000000000E+04  0.10000000000E+04  0.00000000000E+00 0.  1.
    9000005    2    1    2  501    0  0.95665319795E+01  0.62854181363E+01 -0.97092616096E+03  0.10248769436E+04  0.32793919324E+03 0.  0.
         13    1    3    3    0    0  0.10191344188E+03 -0.88933974244E+02 -0.78451028617E+03  0.79608541660E+03  0.00000000000E+00 0.  1.
          3    1    3    3  501    0 -0.92346909899E+02  0.95219392381E+02 -0.18641587479E+03  0.22879152700E+03  0.00000000000E+00 0.  1.
         21    1    1    2  502  501 -0.95665319795E+01 -0.62854181363E+01  0.13511306799E+02  0.17708202243E+02  0.00000000000E+00 0.  1.
<mgrwt>
<rscale>  1 0.30000000E+03</rscale>
<asrwt>0</asrwt>
<pdfrwt beam="1">  1        1 0.15485540E+00 0.30000000E+03</pdfrwt>
<pdfrwt beam="2">0</pdfrwt>
<totfact> 0.16978304E+01</totfact>
</mgrwt>
</event>
<event>
 6    1  0.1969531E-004  0.3000000E+03  0.7818608E-02  0.1093470E+00
          1   -1    0    0  502    0  0.00000000000E+00  0.00000000000E+00  0.34438052442E+02  0.34438052442E+02  0.00000000000E+00 0.  1.
         13   -1    0    0    0    0 -0.00000000000E+00 -0.00000000000E+00 -0.10000000000E+04  0.10000000000E+04  0.00000000000E+00 0.  1.
    9000005    2    1    2  501    0  0.17489506021E+01 -0.99765407600E+01 -0.97057533852E+03  0.10231365356E+04  0.32355724775E+03 0.  0.
         13    1    3    3    0    0 -0.12486896473E+03  0.96806932158E+02 -0.48533355452E+03  0.51040425116E+03  0.00000000000E+00 0.  1.
          3    1    3    3  501    0  0.12661791534E+03 -0.10678347292E+03 -0.48524178400E+03  0.51273228445E+03  0.00000000000E+00 0.  1.
         21    1    1    2  502  501 -0.17489506021E+01  0.99765407600E+01  0.50133909598E+01  0.11301516830E+02  0.00000000000E+00 0.  1.
<mgrwt>
<rscale>  1 0.30000000E+03</rscale>
<asrwt>0</asrwt>
<pdfrwt beam="1">  1        1 0.12522955E+00 0.30000000E+03</pdfrwt>
<pdfrwt beam="2">0</pdfrwt>
<totfact> 0.24302661E+01</totfact>
</mgrwt>
</event>
<event>
 6    1  0.1969531E-004  0.3000000E+03  0.7818608E-02  0.1093470E+00
          1   -1    0    0  502    0  0.00000000000E+00  0.00000000000E+00  0.45272809042E+02  0.45272809042E+02  0.00000000000E+00 0.  1.
         13   -1    0    0    0    0 -0.00000000000E+00 -0.00000000000E+00 -0.10000000000E+04  0.10000000000E+04  0.00000000000E+00 0.  1.
    9000005    2    1    2  501    0 -0.38857212043E+02 -0.14405151142E+02 -0.94702193377E+03  0.10031211508E+04  0.32815256933E+03 0.  0.
         13    1    3    3    0    0 -0.11962349480E+03 -0.13544020724E+03 -0.44079529743E+03  0.47639723391E+03  0.00000000000E+00 0.  1.
          1    1    3    3  501    0  0.80766282760E+02  0.12103505610E+03 -0.50622663635E+03  0.52672391685E+03  0.00000000000E+00 0.  1.
         21    1    1    2  502  501  0.38857212043E+02  0.14405151142E+02 -0.77052571838E+01  0.42151658277E+02  0.00000000000E+00 0.  1.
<mgrwt>
<rscale>  1 0.30000000E+03</rscale>
<asrwt>0</asrwt>
<pdfrwt beam="1">  1        1 0.16462874E+00 0.30000000E+03</pdfrwt>
<pdfrwt beam="2">0</pdfrwt>
<totfact> 0.15181103E+01</totfact>
</mgrwt>
</event>
<event>
 6    1  0.1969531E-004  0.3000000E+03  0.7818608E-02  0.1093470E+00
          1   -1    0    0  502    0  0.00000000000E+00  0.00000000000E+00  0.23757212013E+02  0.23757212013E+02  0.00000000000E+00 0.  1.
         13   -1    0    0    0    0 -0.00000000000E+00 -0.00000000000E+00 -0.10000000000E+04  0.10000000000E+04  0.00000000000E+00 0.  1.
    9000005    2    1    2  501    0 -0.87495513250E+01  0.76324936637E+01 -0.95544823604E+03  0.99994076815E+03  0.29472936473E+03 0.  0.
         13    1    3    3    0    0 -0.15093180224E+03 -0.18495287019E+01 -0.54194931060E+03  0.56257700357E+03  0.00000000000E+00 0.  1.
          3    1    3    3  501    0  0.14218225092E+03  0.94820223656E+01 -0.41349892544E+03  0.43736376458E+03  0.00000000000E+00 0.  1.
         21    1    1    2  502  501  0.87495513250E+01 -0.76324936637E+01 -0.20794551945E+02  0.23816443867E+02  0.00000000000E+00 0. -1.
<mgrwt>
<rscale>  1 0.30000000E+03</rscale>
<asrwt>0</asrwt>
<pdfrwt beam="1">  1        1 0.86390044E-01 0.30000000E+03</pdfrwt>
<pdfrwt beam="2">0</pdfrwt>
<totfact> 0.42199132E+01</totfact>
</mgrwt>
</event>
<event>
 6    1  0.1969531E-004  0.3000000E+03  0.7818608E-02  0.1093470E+00
          3   -1    0    0  502    0  0.00000000000E+00  0.00000000000E+00  0.27898785843E+02  0.27898785843E+02  0.00000000000E+00 0.  1.
         13   -1    0    0    0    0 -0.00000000000E+00 -0.00000000000E+00 -0.10000000000E+04  0.10000000000E+04  0.00000000000E+00 0.  1.
    9000005    2    1    2  501    0 -0.70880011746E+01 -0.12775161728E+02 -0.94038455494E+03  0.99297900649E+03  0.31854474042E+03 0.  0.
         13    1    3    3    0    0  0.12982632800E+03  0.78061286363E+02 -0.38263164980E+03  0.41152815128E+03  0.00000000000E+00 0.  1.
          1    1    3    3  501    0 -0.13691432917E+03 -0.90836448090E+02 -0.55775290514E+03  0.58145085521E+03  0.00000000000E+00 0.  1.
         21    1    1    2  502  501  0.70880011746E+01  0.12775161728E+02 -0.31716659220E+02  0.34919779351E+02  0.00000000000E+00 0. -1.
<mgrwt>
<rscale>  1 0.30000000E+03</rscale>
<asrwt>0</asrwt>
<pdfrwt beam="1">  1        3 0.10145034E+00 0.30000000E+03</pdfrwt>
<pdfrwt beam="2">0</pdfrwt>
<totfact> 0.37708333E+00</totfact>
</mgrwt>
</event>
<event>
 6    1  0.1969531E-004  0.3000000E+03  0.7818608E-02  0.1093470E+00
          1   -1    0    0  502    0  0.00000000000E+00  0.00000000000E+00  0.29928302064E+02  0.29928302064E+02  0.00000000000E+00 0.  1.
         13   -1    0    0    0    0 -0.00000000000E+00 -0.00000000000E+00 -0.10000000000E+04  0.10000000000E+04  0.00000000000E+00 0.  1.
    9000005    2    1    2  501    0 -0.12504405865E+02 -0.91069364791E+01 -0.95168056299E+03  0.10058964419E+04  0.32541121894E+03 0.  0.
         13    1    3    3    0    0 -0.67399760442E+02  0.96122178882E+02 -0.12790289329E+03  0.17361264669E+03  0.00000000000E+00 0.  1.
          1    1    3    3  501    0  0.54895354578E+02 -0.10522911536E+03 -0.82377766970E+03  0.83228379521E+03  0.00000000000E+00 0.  1.
         21    1    1    2  502  501  0.12504405865E+02  0.91069364791E+01 -0.18391134946E+02  0.24031860158E+02  0.00000000000E+00 0. -1.
<mgrwt>
<rscale>  1 0.30000000E+03</rscale>
<asrwt>0</asrwt>
<pdfrwt beam="1">  1        1 0.10883042E+00 0.30000000E+03</pdfrwt>
<pdfrwt beam="2">0</pdfrwt>
<totfact> 0.30192026E+01</totfact>
</mgrwt>
</event>
<event>
 6    1  0.1969531E-004  0.3000000E+03  0.7818608E-02  0.1093470E+00
          1   -1    0    0  502    0  0.00000000000E+00  0.00000000000E+00  0.31278866650E+02  0.31278866650E+02  0.00000000000E+00 0.  1.
         13   -1    0    0    0    0 -0.00000000000E+00 -0.00000000000E+00 -0.10000000000E+04  0.10000000000E+04  0.00000000000E+00 0.  1.
    9000005    2    1    2  501    0  0.95042100663E+01  0.19654799944E+02 -0.93294354479E+03  0.98936613573E+03  0.32861079045E+03 0.  0.
         13    1    3    3    0    0  0.13978281757E+01 -0.13025841639E+03 -0.70150624306E+03  0.71349857604E+03  0.00000000000E+00 0.  1.
          3    1    3    3  501    0  0.81063818906E+01  0.14991321633E+03 -0.23143730173E+03  0.27586755969E+03  0.00000000000E+00 0.  1.
         21    1    1    2  502  501 -0.95042100663E+01 -0.19654799944E+02 -0.35777588563E+02  0.41912730920E+02  0.00000000000E+00 0.  1.
<mgrwt>
<rscale>  1 0.30000000E+03</rscale>
<asrwt>0</asrwt>
<pdfrwt beam="1">  1        1 0.11374157E+00 0.30000000E+03</pdfrwt>
<pdfrwt beam="2">0</pdfrwt>
<totfact> 0.28237881E+01</totfact>
</mgrwt>
</event>
<event>
 6    1  0.1969531E-004  0.3000000E+03  0.7818608E-02  0.1093470E+00
          1   -1    0    0  502    0  0.00000000000E+00  0.00000000000E+00  0.47567152581E+02  0.47567152581E+02  0.00000000000E+00 0.  1.
         13   -1    0    0    0    0 -0.00000000000E+00 -0.00000000000E+00 -0.10000000000E+04  0.10000000000E+04  0.00000000000E+00 0.  1.
    9000005    2    1    2  501    0 -0.42501926396E+02 -0.24810904687E+02 -0.88254453912E+03  0.96208984345E+03  0.37988157182E+03 0.  0.
         13    1    3    3    0    0  0.16280609142E+03 -0.18299728763E+02 -0.26783877927E+03  0.31397183816E+03  0.00000000000E+00 0.  1.
          3    1    3    3  501    0 -0.20530801782E+03 -0.65111759238E+01 -0.61470575985E+03  0.64811800529E+03  0.00000000000E+00 0.  1.
         21    1    1    2  502  501  0.42501926396E+02  0.24810904687E+02 -0.69888308302E+02  0.85477309130E+02  0.00000000000E+00 0.  1.
<mgrwt>
<rscale>  1 0.30000000E+03</rscale>
<asrwt>0</asrwt>
<pdfrwt beam="1">  1        1 0.17297183E+00 0.30000000E+03</pdfrwt>
<pdfrwt beam="2">0</pdfrwt>
<totfact> 0.13818199E+01</totfact>
</mgrwt>
</event>
<event>
 6    1  0.1969531E-004  0.3000000E+03  0.7818608E-02  0.1093470E+00
          1   -1    0    0  502    0  0.00000000000E+00  0.00000000000E+00  0.62827367713E+02  0.62827367713E+02  0.00000000000E+00 0.  1.
         13   -1    0    0    0    0 -0.00000000000E+00 -0.00000000000E+00 -0.10000000000E+04  0.10000000000E+04  0.00000000000E+00 0.  1.
    9000005    2    1    2  501    0 -0.44651507381E+01  0.12100957842E+02 -0.95555097956E+03  0.10403744303E+04  0.41126014861E+03 0.  0.
         13    1    3    3    0    0  0.39623295765E+02  0.20302188700E+03 -0.59632695496E+03  0.63118438620E+03  0.00000000000E+00 0.  1.
          3    1    3    3  501    0 -0.44088446503E+02 -0.19092092916E+03 -0.35922402460E+03  0.40919004406E+03  0.00000000000E+00 0.  1.
         21    1    1    2  502  501  0.44651507381E+01 -0.12100957842E+02  0.18378347276E+02  0.22452937455E+02  0.00000000000E+00 0.  1.
<mgrwt>
<rscale>  1 0.30000000E+03</rscale>
<asrwt>0</asrwt>
<pdfrwt beam="1">  1        1 0.22846364E+00 0.30000000E+03</pdfrwt>
<pdfrwt beam="2">0</pdfrwt>
<totfact> 0.75240150E+00</totfact>
</mgrwt>
</event>
<event>
 6    1  0.1969531E-004  0.3000000E+03  0.7818608E-02  0.1093470E+00
          1   -1    0    0  502    0  0.00000000000E+00  0.00000000000E+00  0.28573338691E+02  0.28573338691E+02  0.00000000000E+00 0.  1.
         13   -1    0    0    0    0 -0.00000000000E+00 -0.00000000000E+00 -0.10000000000E+04  0.10000000000E+04  0.00000000000E+00 0.  1.
    9000005    2    1    2  501    0 -0.40504857180E+01 -0.13852076837E+02 -0.94040045541E+03  0.99435474843E+03  0.32276936459E+03 0.  0.
         13    1    3    3    0    0 -0.16076849613E+03 -0.24279974612E+02 -0.55046023068E+03  0.57397081117E+03  0.00000000000E+00 0.  1.
          1    1    3    3  501    0  0.15671801041E+03  0.10427897775E+02 -0.38994022473E+03  0.42038393726E+03  0.00000000000E+00 0.  1.
         21    1    1    2  502  501  0.40504857180E+01  0.13852076837E+02 -0.31026205895E+02  0.34218590262E+02  0.00000000000E+00 0. -1.
<mgrwt>
<rscale>  1 0.30000000E+03</rscale>
<asrwt>0</asrwt>
<pdfrwt beam="1">  1        1 0.10390327E+00 0.30000000E+03</pdfrwt>
<pdfrwt beam="2">0</pdfrwt>
<totfact> 0.32352472E+01</totfact>
</mgrwt>
</event>
<event>
 6    1  0.1969531E-004  0.3000000E+03  0.7818608E-02  0.1093470E+00
          1   -1    0    0  502    0  0.00000000000E+00  0.00000000000E+00  0.30924104919E+02  0.30924104919E+02  0.00000000000E+00 0.  1.
         13   -1    0    0    0    0 -0.00000000000E+00 -0.00000000000E+00 -0.10000000000E+04  0.10000000000E+04  0.00000000000E+00 0.  1.
    9000005    2    1    2  501    0 -0.57106259238E+01 -0.13347756339E+02 -0.95250952663E+03  0.10088964312E+04  0.33224514538E+03 0.  0.
         13    1    3    3    0    0  0.11927793420E+03 -0.65990527586E+02 -0.76744498531E+03  0.77945736304E+03  0.00000000000E+00 0.  1.
          3    1    3    3  501    0 -0.12498856012E+03  0.52642771248E+02 -0.18506454133E+03  0.22943906812E+03  0.00000000000E+00 0.  1.
         21    1    1    2  502  501  0.57106259238E+01  0.13347756339E+02 -0.16566368448E+02  0.22027673760E+02  0.00000000000E+00 0. -1.
<mgrwt>
<rscale>  1 0.30000000E+03</rscale>
<asrwt>0</asrwt>
<pdfrwt beam="1">  1        1 0.11245153E+00 0.30000000E+03</pdfrwt>
<pdfrwt beam="2">0</pdfrwt>
<totfact> 0.28733377E+01</totfact>
</mgrwt>
</event>
<event>
 6    1  0.1969531E-004  0.3000000E+03  0.7818608E-02  0.1093470E+00
          1   -1    0    0  502    0  0.00000000000E+00  0.00000000000E+00  0.31473132822E+02  0.31473132822E+02  0.00000000000E+00 0.  1.
         13   -1    0    0    0    0 -0.00000000000E+00 -0.00000000000E+00 -0.10000000000E+04  0.10000000000E+04  0.00000000000E+00 0.  1.
    9000005    2    1    2  501    0 -0.17624919149E+02  0.73030616159E+01 -0.94301869371E+03  0.99961972802E+03  0.33104587518E+03 0.  0.
         13    1    3    3    0    0  0.77985529980E+02  0.14400606495E+03 -0.50612232896E+03  0.53195798847E+03  0.00000000000E+00 0.  1.
          1    1    3    3  501    0 -0.95610449129E+02 -0.13670300333E+03 -0.43689636475E+03  0.46766173955E+03  0.00000000000E+00 0.  1.
         21    1    1    2  502  501  0.17624919149E+02 -0.73030616159E+01 -0.25508173468E+02  0.31853404805E+02  0.00000000000E+00 0. -1.
<mgrwt>
<rscale>  1 0.30000000E+03</rscale>
<asrwt>0</asrwt>
<pdfrwt beam="1">  1        1 0.11444800E+00 0.30000000E+03</pdfrwt>
<pdfrwt beam="2">0</pdfrwt>
<totfact> 0.27971682E+01</totfact>
</mgrwt>
</event>
<event>
 6    1  0.1969531E-004  0.3000000E+03  0.7818608E-02  0.1093470E+00
          1   -1    0    0  502    0  0.00000000000E+00  0.00000000000E+00  0.47820355685E+02  0.47820355685E+02  0.00000000000E+00 0.  1.
         13   -1    0    0    0    0 -0.00000000000E+00 -0.00000000000E+00 -0.10000000000E+04  0.10000000000E+04  0.00000000000E+00 0.  1.
    9000005    2    1    2  501    0  0.11835472049E+02 -0.39952193199E+02 -0.95651554921E+03  0.10059269647E+04  0.30859489013E+03 0.  0.
         13    1    3    3    0    0  0.68460030763E+02  0.42393784507E+02 -0.87007687086E+03  0.87379503889E+03  0.00000000000E+00 0.  1.
          1    1    3    3  501    0 -0.56624558714E+02 -0.82345977706E+02 -0.86438678347E+02  0.13213192577E+03  0.00000000000E+00 0.  1.
         21    1    1    2  502  501 -0.11835472049E+02  0.39952193199E+02  0.43359048957E+01  0.41893391022E+02  0.00000000000E+00 0.  1.
<mgrwt>
<rscale>  1 0.30000000E+03</rscale>
<asrwt>0</asrwt>
<pdfrwt beam="1">  1        1 0.17389257E+00 0.30000000E+03</pdfrwt>
<pdfrwt beam="2">0</pdfrwt>
<totfact> 0.13676369E+01</totfact>
</mgrwt>
</event>
<event>
 6    1  0.1969531E-004  0.3000000E+03  0.7818608E-02  0.1093470E+00
          1   -1    0    0  502    0  0.00000000000E+00  0.00000000000E+00  0.92902066750E+02  0.92902066750E+02  0.00000000000E+00 0.  1.
         13   -1    0    0    0    0 -0.00000000000E+00 -0.00000000000E+00 -0.10000000000E+04  0.10000000000E+04  0.00000000000E+00 0.  1.
    9000005    2    1    2  501    0  0.41830745686E+02  0.17746137274E+02 -0.96415297512E+03  0.10199636374E+04  0.32965152136E+03 0.  0.
         13    1    3    3    0    0 -0.76212173388E+02 -0.31364775095E+00 -0.36226129053E+02  0.84384395321E+02  0.00000000000E+00 0.  1.
          3    1    3    3  501    0  0.11804291907E+03  0.18059785025E+02 -0.92792684606E+03  0.93557924209E+03  0.00000000000E+00 0.  1.
         21    1    1    2  502  501 -0.41830745686E+02 -0.17746137274E+02  0.57055041865E+02  0.72938429343E+02  0.00000000000E+00 0.  1.
<mgrwt>
<rscale>  1 0.30000000E+03</rscale>
<asrwt>0</asrwt>
<pdfrwt beam="1">  1        1 0.33782641E+00 0.30000000E+03</pdfrwt>
<pdfrwt beam="2">0</pdfrwt>
<totfact> 0.22711581E+00</totfact>
</mgrwt>
</event>
<event>
 6    1  0.1969531E-004  0.3000000E+03  0.7818608E-02  0.1093470E+00
          1   -1    0    0  502    0  0.00000000000E+00  0.00000000000E+00  0.33505323892E+02  0.33505323892E+02  0.00000000000E+00 0.  1.
         13   -1    0    0    0    0 -0.00000000000E+00 -0.00000000000E+00 -0.10000000000E+04  0.10000000000E+04  0.00000000000E+00 0.  1.
    9000005    2    1    2  501    0 -0.28150862914E+02  0.26307905884E+02 -0.84766634032E+03  0.90858634862E+03  0.32481741241E+03 0.  0.
         13    1    3    3    0    0 -0.82231133977E+02 -0.56771056932E+02 -0.63973242257E+02  0.11864859049E+03  0.00000000000E+00 0.  1.
          1    1    3    3  501    0  0.54080271063E+02  0.83078962816E+02 -0.78369309806E+03  0.78993775813E+03  0.00000000000E+00 0.  1.
         21    1    1    2  502  501  0.28150862914E+02 -0.26307905884E+02 -0.11882833579E+03  0.12491897527E+03  0.00000000000E+00 0.  1.
<mgrwt>
<rscale>  1 0.30000000E+03</rscale>
<asrwt>0</asrwt>
<pdfrwt beam="1">  1        1 0.12183780E+00 0.30000000E+03</pdfrwt>
<pdfrwt beam="2">0</pdfrwt>
<totfact> 0.25383808E+01</totfact>
</mgrwt>
</event>
<event>
 6    1  0.1969531E-004  0.3000000E+03  0.7818608E-02  0.1093470E+00
          1   -1    0    0  502    0  0.00000000000E+00  0.00000000000E+00  0.51633271478E+02  0.51633271478E+02  0.00000000000E+00 0.  1.
         13   -1    0    0    0    0 -0.00000000000E+00 -0.00000000000E+00 -0.10000000000E+04  0.10000000000E+04  0.00000000000E+00 0.  1.
    9000005    2    1    2  501    0 -0.41045007513E+01  0.98673180072E+01 -0.97213895931E+03  0.10255693146E+04  0.32653338568E+03 0.  0.
         13    1    3    3    0    0 -0.59378463990E+01  0.13882945710E+03 -0.79154071500E+03  0.80364518270E+03  0.00000000000E+00 0.  1.
          1    1    3    3  501    0  0.18333456477E+01 -0.12896213909E+03 -0.18059824431E+03  0.22192413191E+03  0.00000000000E+00 0.  1.
         21    1    1    2  502  501  0.41045007513E+01 -0.98673180072E+01  0.23772230788E+02  0.26063956870E+02  0.00000000000E+00 0.  1.
<mgrwt>
<rscale>  1 0.30000000E+03</rscale>
<asrwt>0</asrwt>
<pdfrwt beam="1">  1        1 0.18775775E+00 0.30000000E+03</pdfrwt>
<pdfrwt beam="2">0</pdfrwt>
<totfact> 0.11721042E+01</totfact>
</mgrwt>
</event>
<event>
 6    1  0.1969531E-004  0.3000000E+03  0.7818608E-02  0.1093470E+00
          1   -1    0    0  502    0  0.00000000000E+00  0.00000000000E+00  0.40358089174E+02  0.40358089174E+02  0.00000000000E+00 0.  1.
         13   -1    0    0    0    0 -0.00000000000E+00 -0.00000000000E+00 -0.10000000000E+04  0.10000000000E+04  0.00000000000E+00 0.  1.
    9000005    2    1    2  501    0  0.10534873232E+02  0.12687920331E+02 -0.96857360629E+03  0.10216033015E+04  0.32444800504E+03 0.  0.
         13    1    3    3    0    0  0.62270347237E+01 -0.11226140123E+02  0.24803652907E+02  0.27928898672E+02  0.00000000000E+00 0.  1.
          3    1    3    3  501    0  0.43078385086E+01  0.23914060455E+02 -0.99337725920E+03  0.99367440284E+03  0.00000000000E+00 0.  1.
         21    1    1    2  502  501 -0.10534873232E+02 -0.12687920331E+02  0.89316954673E+01  0.18754787663E+02  0.00000000000E+00 0. -1.
<mgrwt>
<rscale>  1 0.30000000E+03</rscale>
<asrwt>0</asrwt>
<pdfrwt beam="1">  1        1 0.14675700E+00 0.30000000E+03</pdfrwt>
<pdfrwt beam="2">0</pdfrwt>
<totfact> 0.18663510E+01</totfact>
</mgrwt>
</event>
<event>
 6    1  0.1969531E-004  0.3000000E+03  0.7818608E-02  0.1093470E+00
          1   -1    0    0  502    0  0.00000000000E+00  0.00000000000E+00  0.25000294799E+02  0.25000294799E+02  0.00000000000E+00 0.  1.
         13   -1    0    0    0    0 -0.00000000000E+00 -0.00000000000E+00 -0.10000000000E+04  0.10000000000E+04  0.00000000000E+00 0.  1.
    9000005    2    1    2  501    0 -0.82674163220E+01  0.20226575197E+02 -0.93371911749E+03  0.97829321355E+03  0.29111639734E+03 0.  0.
         13    1    3    3    0    0  0.78125764218E+02  0.83239673374E+02 -0.15628364607E+03  0.19353825535E+03  0.00000000000E+00 0.  1.
          1    1    3    3  501    0 -0.86393180540E+02 -0.63013098177E+02 -0.77743547143E+03  0.78475495820E+03  0.00000000000E+00 0.  1.
         21    1    1    2  502  501  0.82674163220E+01 -0.20226575197E+02 -0.41280587710E+02  0.46707081246E+02  0.00000000000E+00 0.  1.
<mgrwt>
<rscale>  1 0.30000000E+03</rscale>
<asrwt>0</asrwt>
<pdfrwt beam="1">  1        1 0.90910355E-01 0.30000000E+03</pdfrwt>
<pdfrwt beam="2">0</pdfrwt>
<totfact> 0.39266775E+01</totfact>
</mgrwt>
</event>
<event>
 6    1  0.1969531E-004  0.3000000E+03  0.7818608E-02  0.1093470E+00
          1   -1    0    0  502    0  0.00000000000E+00  0.00000000000E+00  0.29903774538E+02  0.29903774538E+02  0.00000000000E+00 0.  1.
         13   -1    0    0    0    0 -0.00000000000E+00 -0.00000000000E+00 -0.10000000000E+04  0.10000000000E+04  0.00000000000E+00 0.  1.
    9000005    2    1    2  501    0 -0.16949409025E+02 -0.42812198641E+00 -0.95615193553E+03  0.10079513492E+04  0.31851520037E+03 0.  0.
         13    1    3    3    0    0 -0.10130948494E+03  0.12927076667E+03 -0.49552990708E+03  0.52203872621E+03  0.00000000000E+00 0.  1.
          3    1    3    3  501    0  0.84360075910E+02 -0.12969888866E+03 -0.46062202845E+03  0.48591262303E+03  0.00000000000E+00 0.  1.
         21    1    1    2  502  501  0.16949409025E+02  0.42812198641E+00 -0.13944289935E+02  0.21952425300E+02  0.00000000000E+00 0.  1.
<mgrwt>
<rscale>  1 0.30000000E+03</rscale>
<asrwt>0</asrwt>
<pdfrwt beam="1">  1        1 0.10874123E+00 0.30000000E+03</pdfrwt>
<pdfrwt beam="2">0</pdfrwt>
<totfact> 0.30229269E+01</totfact>
</mgrwt>
</event>
<event>
 6    1  0.1969531E-004  0.3000000E+03  0.7818608E-02  0.1093470E+00
          1   -1    0    0  502    0  0.00000000000E+00  0.00000000000E+00  0.33123403160E+02  0.33123403160E+02  0.00000000000E+00 0.  1.
         13   -1    0    0    0    0 -0.00000000000E+00 -0.00000000000E+00 -0.10000000000E+04  0.10000000000E+04  0.00000000000E+00 0.  1.
    9000005    2    1    2  501    0  0.51111704289E+01 -0.10365443496E+02 -0.96682328842E+03  0.10215661836E+04  0.32972204958E+03 0.  0.
         13    1    3    3    0    0  0.13876096068E+03 -0.92742765385E+02 -0.40052143101E+03  0.43390464556E+03  0.00000000000E+00 0.  1.
          3    1    3    3  501    0 -0.13364979025E+03  0.82377321889E+02 -0.56630185741E+03  0.58766153804E+03  0.00000000000E+00 0.  1.
         21    1    1    2  502  501 -0.51111704289E+01  0.10365443496E+02 -0.53308423403E-01  0.11557219553E+02  0.00000000000E+00 0. -1.
<mgrwt>
<rscale>  1 0.30000000E+03</rscale>
<asrwt>0</asrwt>
<pdfrwt beam="1">  1        1 0.12044899E+00 0.30000000E+03</pdfrwt>
<pdfrwt beam="2">0</pdfrwt>
<totfact> 0.25844653E+01</totfact>
</mgrwt>
</event>
<event>
 6    1  0.1969531E-004  0.3000000E+03  0.7818608E-02  0.1093470E+00
          3   -1    0    0  502    0  0.00000000000E+00  0.00000000000E+00  0.31009311537E+02  0.31009311537E+02  0.00000000000E+00 0.  1.
         13   -1    0    0    0    0 -0.00000000000E+00 -0.00000000000E+00 -0.10000000000E+04  0.10000000000E+04  0.00000000000E+00 0.  1.
    9000005    2    1    2  501    0 -0.10100018120E+02  0.16034327658E+01 -0.96644960065E+03  0.10204718313E+04  0.32746503096E+03 0.  0.
         13    1    3    3    0    0  0.63612517311E+02 -0.10276191999E+03 -0.14328154604E+03  0.18744643500E+03  0.00000000000E+00 0.  1.
          1    1    3    3  501    0 -0.73712535432E+02  0.10436535276E+03 -0.82316805461E+03  0.83302539629E+03  0.00000000000E+00 0.  1.
         21    1    1    2  502  501  0.10100018120E+02 -0.16034327658E+01 -0.25410878133E+01  0.10537480246E+02  0.00000000000E+00 0. -1.
<mgrwt>
<rscale>  1 0.30000000E+03</rscale>
<asrwt>0</asrwt>
<pdfrwt beam="1">  1        3 0.11276137E+00 0.30000000E+03</pdfrwt>
<pdfrwt beam="2">0</pdfrwt>
<totfact> 0.28027260E+00</totfact>
</mgrwt>
</event>
<event>
 6    1  0.1969531E-004  0.3000000E+03  0.7818608E-02  0.1093470E+00
          1   -1    0    0  502    0  0.00000000000E+00  0.00000000000E+00  0.32384265108E+02  0.32384265108E+02  0.00000000000E+00 0.  1.
         13   -1    0    0    0    0 -0.00000000000E+00 -0.00000000000E+00 -0.10000000000E+04  0.10000000000E+04  0.00000000000E+00 0.  1.
    9000005    2    1    2  501    0  0.15800561538E+02 -0.13916009820E+01 -0.96183437926E+03  0.10155017780E+04  0.32537193132E+03 0.  0.
         13    1    3    3    0    0 -0.89743772619E+02 -0.17558973922E+02 -0.64661014940E+02  0.11199691577E+03  0.00000000000E+00 0.  1.
          1    1    3    3  501    0  0.10554433416E+03  0.16167372940E+02 -0.89717336432E+03  0.90350486222E+03  0.00000000000E+00 0.  1.
         21    1    1    2  502  501 -0.15800561538E+02  0.13916009820E+01 -0.57813556335E+01  0.16882487114E+02  0.00000000000E+00 0. -1.
<mgrwt>
<rscale>  1 0.30000000E+03</rscale>
<asrwt>0</asrwt>
<pdfrwt beam="1">  1        1 0.11776121E+00 0.30000000E+03</pdfrwt>
<pdfrwt beam="2">0</pdfrwt>
<totfact> 0.26768887E+01</totfact>
</mgrwt>
</event>
<event>
 6    1  0.1969531E-004  0.3000000E+03  0.7818608E-02  0.1093470E+00
          1   -1    0    0  502    0  0.00000000000E+00  0.00000000000E+00  0.28769696840E+02  0.28769696840E+02  0.00000000000E+00 0.  1.
         13   -1    0    0    0    0 -0.00000000000E+00 -0.00000000000E+00 -0.10000000000E+04  0.10000000000E+04  0.00000000000E+00 0.  1.
    9000005    2    1    2  501    0  0.68901167103E+01 -0.81392256715E+01 -0.92535731594E+03  0.98167350104E+03  0.32754080626E+03 0.  0.
         13    1    3    3    0    0 -0.74481321505E+02  0.52123477530E+02 -0.56714178245E+02  0.10714859858E+03  0.00000000000E+00 0.  1.
          1    1    3    3  501    0  0.81371438216E+02 -0.60262703201E+02 -0.86864313770E+03  0.87452490246E+03  0.00000000000E+00 0.  1.
         21    1    1    2  502  501 -0.68901167103E+01  0.81392256715E+01 -0.45872987215E+02  0.47096195800E+02  0.00000000000E+00 0. -1.
<mgrwt>
<rscale>  1 0.30000000E+03</rscale>
<asrwt>0</asrwt>
<pdfrwt beam="1">  1        1 0.10461730E+00 0.30000000E+03</pdfrwt>
<pdfrwt beam="2">0</pdfrwt>
<totfact> 0.32025832E+01</totfact>
</mgrwt>
</event>
<event>
 6    1  0.1969531E-004  0.3000000E+03  0.7818608E-02  0.1093470E+00
          1   -1    0    0  502    0  0.00000000000E+00  0.00000000000E+00  0.30873038984E+02  0.30873038984E+02  0.00000000000E+00 0.  1.
         13   -1    0    0    0    0 -0.00000000000E+00 -0.00000000000E+00 -0.10000000000E+04  0.10000000000E+04  0.00000000000E+00 0.  1.
    9000005    2    1    2  501    0 -0.20543903373E+01 -0.12472442987E+02 -0.95899637693E+03  0.10146739314E+04  0.33125421307E+03 0.  0.
         13    1    3    3    0    0 -0.11442686278E+03 -0.11380132393E+03 -0.32488528841E+03  0.36275983636E+03  0.00000000000E+00 0.  1.
          3    1    3    3  501    0  0.11237247244E+03  0.10132888094E+03 -0.63411108852E+03  0.65191409500E+03  0.00000000000E+00 0.  1.
         21    1    1    2  502  501  0.20543903373E+01  0.12472442987E+02 -0.10130584086E+02  0.16199107619E+02  0.00000000000E+00 0. -1.
<mgrwt>
<rscale>  1 0.30000000E+03</rscale>
<asrwt>0</asrwt>
<pdfrwt beam="1">  1        1 0.11226583E+00 0.30000000E+03</pdfrwt>
<pdfrwt beam="2">0</pdfrwt>
<totfact> 0.28805723E+01</totfact>
</mgrwt>
</event>
<event>
 6    1  0.1969531E-004  0.3000000E+03  0.7818608E-02  0.1093470E+00
          1   -1    0    0  502    0  0.00000000000E+00  0.00000000000E+00  0.30878472891E+02  0.30878472891E+02  0.00000000000E+00 0.  1.
         13   -1    0    0    0    0 -0.00000000000E+00 -0.00000000000E+00 -0.10000000000E+04  0.10000000000E+04  0.00000000000E+00 0.  1.
    9000005    2    1    2  501    0  0.20819430025E+02  0.81942142350E+01 -0.90065186499E+03  0.95884592161E+03  0.32819373191E+03 0.  0.
         13    1    3    3    0    0 -0.16327989956E+01  0.11787868232E+03 -0.79891884139E+03  0.80757003715E+03  0.00000000000E+00 0.  1.
          1    1    3    3  501    0  0.22452229021E+02 -0.10968446809E+03 -0.10173302360E+03  0.15127588446E+03  0.00000000000E+00 0.  1.
         21    1    1    2  502  501 -0.20819430025E+02 -0.81942142350E+01 -0.68469662120E+02  0.72032551283E+02  0.00000000000E+00 0.  1.
<mgrwt>
<rscale>  1 0.30000000E+03</rscale>
<asrwt>0</asrwt>
<pdfrwt beam="1">  1        1 0.11228559E+00 0.30000000E+03</pdfrwt>
<pdfrwt beam="2">0</pdfrwt>
<totfact> 0.28798012E+01</totfact>
</mgrwt>
</event>
<event>
 6    1  0.1969531E-004  0.3000000E+03  0.7818608E-02  0.1093470E+00
          1   -1    0    0  502    0  0.00000000000E+00  0.00000000000E+00  0.41482572214E+02  0.41482572214E+02  0.00000000000E+00 0.  1.
         13   -1    0    0    0    0 -0.00000000000E+00 -0.00000000000E+00 -0.10000000000E+04  0.10000000000E+04  0.00000000000E+00 0.  1.
    9000005    2    1    2  501    0  0.13912157705E+02  0.60422338587E+01 -0.97087489894E+03  0.10219182216E+04  0.31857295160E+03 0.  0.
         13    1    3    3    0    0 -0.65287318370E+02 -0.13282613791E+03 -0.33468523350E+03  0.36595002716E+03  0.00000000000E+00 0.  1.
          3    1    3    3  501    0  0.79199476075E+02  0.13886837177E+03 -0.63618966544E+03  0.65596819443E+03  0.00000000000E+00 0.  1.
         21    1    1    2  502  501 -0.13912157705E+02 -0.60422338587E+01  0.12357471157E+02  0.19564350626E+02  0.00000000000E+00 0.  1.
<mgrwt>
<rscale>  1 0.30000000E+03</rscale>
<asrwt>0</asrwt>
<pdfrwt beam="1">  1        1 0.15084604E+00 0.30000000E+03</pdfrwt>
<pdfrwt beam="2">0</pdfrwt>
<totfact> 0.17788085E+01</totfact>
</mgrwt>
</event>
<event>
 6    1  0.1969531E-004  0.3000000E+03  0.7818608E-02  0.1093470E+00
          1   -1    0    0  502    0  0.00000000000E+00  0.00000000000E+00  0.27620291876E+02  0.27620291876E+02  0.00000000000E+00 0.  1.
         13   -1    0    0    0    0 -0.00000000000E+00 -0.00000000000E+00 -0.10000000000E+04  0.10000000000E+04  0.00000000000E+00 0.  1.
    9000005    2    1    2  501    0 -0.19472588164E+02  0.10676965107E+02 -0.89104346389E+03  0.94330680601E+03  0.30883020649E+03 0.  0.
         13    1    3    3    0    0 -0.52871400328E+02 -0.13572150708E+03 -0.57861277796E+03  0.59666444445E+03  0.00000000000E+00 0.  1.
          1    1    3    3  501    0  0.33398812164E+02  0.14639847218E+03 -0.31243068593E+03  0.34664236155E+03  0.00000000000E+00 0.  1.
         21    1    1    2  502  501  0.19472588164E+02 -0.10676965107E+02 -0.81336244229E+02  0.84313485867E+02  0.00000000000E+00 0. -1.
<mgrwt>
<rscale>  1 0.30000000E+03</rscale>
<asrwt>0</asrwt>
<pdfrwt beam="1">  1        1 0.10043764E+00 0.30000000E+03</pdfrwt>
<pdfrwt beam="2">0</pdfrwt>
<totfact> 0.34008967E+01</totfact>
</mgrwt>
</event>
<event>
 6    1  0.1969531E-004  0.3000000E+03  0.7818608E-02  0.1093470E+00
          1   -1    0    0  502    0  0.00000000000E+00  0.00000000000E+00  0.34518098710E+02  0.34518098710E+02  0.00000000000E+00 0.  1.
         13   -1    0    0    0    0 -0.00000000000E+00 -0.00000000000E+00 -0.10000000000E+04  0.10000000000E+04  0.00000000000E+00 0.  1.
    9000005    2    1    2  501    0  0.13887590995E+02 -0.25061737689E+01 -0.96496416737E+03  0.10203966916E+04  0.33144293297E+03 0.  0.
         13    1    3    3    0    0 -0.12742879274E+03  0.88161722978E+02 -0.34693661737E+03  0.37996789745E+03  0.00000000000E+00 0.  1.
          3    1    3    3  501    0  0.14131638374E+03 -0.90667896747E+02 -0.61802755000E+03  0.64042879415E+03  0.00000000000E+00 0.  1.
         21    1    1    2  502  501 -0.13887590995E+02  0.25061737689E+01 -0.51773392246E+00  0.14121407119E+02  0.00000000000E+00 0.  1.
<mgrwt>
<rscale>  1 0.30000000E+03</rscale>
<asrwt>0</asrwt>
<pdfrwt beam="1">  1        1 0.12552062E+00 0.30000000E+03</pdfrwt>
<pdfrwt beam="2">0</pdfrwt>
<totfact> 0.24212651E+01</totfact>
</mgrwt>
</event>
<event>
 6    1  0.1969531E-004  0.3000000E+03  0.7818608E-02  0.1093470E+00
          1   -1    0    0  502    0  0.00000000000E+00  0.00000000000E+00  0.34520464330E+02  0.34520464330E+02  0.00000000000E+00 0.  1.
         13   -1    0    0    0    0 -0.00000000000E+00 -0.00000000000E+00 -0.10000000000E+04  0.10000000000E+04  0.00000000000E+00 0.  1.
    9000005    2    1    2  501    0 -0.28096339012E+02  0.97849873825E+01 -0.93608841960E+03  0.99269956109E+03  0.32909837288E+03 0.  0.
         13    1    3    3    0    0  0.33429390215E+02 -0.12582345595E+01  0.17026695599E+02  0.37536857186E+02  0.00000000000E+00 0.  1.
          3    1    3    3  501    0 -0.61525729227E+02  0.11043221942E+02 -0.95311511520E+03  0.95516270391E+03  0.00000000000E+00 0.  1.
         21    1    1    2  502  501  0.28096339012E+02 -0.97849873825E+01 -0.29391116066E+02  0.41820903237E+02  0.00000000000E+00 0. -1.
<mgrwt>
<rscale>  1 0.30000000E+03</rscale>
<asrwt>0</asrwt>
<pdfrwt beam="1">  1        1 0.12552923E+00 0.30000000E+03</pdfrwt>
<pdfrwt beam="2">0</pdfrwt>
<totfact> 0.24209997E+01</totfact>
</mgrwt>
</event>
<event>
 6    1  0.1969531E-004  0.3000000E+03  0.7818608E-02  0.1093470E+00
          1   -1    0    0  502    0  0.00000000000E+00  0.00000000000E+00  0.65000216314E+02  0.65000216314E+02  0.00000000000E+00 0.  1.
         13   -1    0    0    0    0 -0.00000000000E+00 -0.00000000000E+00 -0.10000000000E+04  0.10000000000E+04  0.00000000000E+00 0.  1.
    9000005    2    1    2  501    0 -0.35147758178E+02 -0.23470668968E+02 -0.92474090766E+03  0.10215090477E+04  0.43191289759E+03 0.  0.
         13    1    3    3    0    0 -0.86775647821E+01  0.18243869424E+03 -0.21539618769E+03  0.28240873740E+03  0.00000000000E+00 0.  1.
          3    1    3    3  501    0 -0.26470193396E+02 -0.20590936321E+03 -0.70934471997E+03  0.73910031034E+03  0.00000000000E+00 0.  1.
         21    1    1    2  502  501  0.35147758178E+02  0.23470668968E+02 -0.10258876025E+02  0.43491168575E+02  0.00000000000E+00 0.  1.
<mgrwt>
<rscale>  1 0.30000000E+03</rscale>
<asrwt>0</asrwt>
<pdfrwt beam="1">  1        1 0.23636492E+00 0.30000000E+03</pdfrwt>
<pdfrwt beam="2">0</pdfrwt>
<totfact> 0.69097382E+00</totfact>
</mgrwt>
</event>
<event>
 6    1  0.1969531E-004  0.3000000E+03  0.7818608E-02  0.1093470E+00
          1   -1    0    0  502    0  0.00000000000E+00  0.00000000000E+00  0.58476002786E+02  0.58476002786E+02  0.00000000000E+00 0.  1.
         13   -1    0    0    0    0 -0.00000000000E+00 -0.00000000000E+00 -0.10000000000E+04  0.10000000000E+04  0.00000000000E+00 0.  1.
    9000005    2    1    2  501    0 -0.99272540785E+02  0.73751793297E+02 -0.80399931155E+03  0.87352356691E+03  0.31833027599E+03 0.  0.
         13    1    3    3    0    0  0.23071235497E+02  0.28978188018E+02  0.18057205629E+02  0.41207765813E+02  0.00000000000E+00 0.  1.
          1    1    3    3  501    0 -0.12234377628E+03  0.44773605279E+02 -0.82205651718E+03  0.83231580110E+03  0.00000000000E+00 0.  1.
         21    1    1    2  502  501  0.99272540785E+02 -0.73751793297E+02 -0.13752468566E+03  0.18495243587E+03  0.00000000000E+00 0.  1.
<mgrwt>
<rscale>  1 0.30000000E+03</rscale>
<asrwt>0</asrwt>
<pdfrwt beam="1">  1        1 0.21264046E+00 0.30000000E+03</pdfrwt>
<pdfrwt beam="2">0</pdfrwt>
<totfact> 0.89260768E+00</totfact>
</mgrwt>
</event>
<event>
 6    1  0.1969531E-004  0.3000000E+03  0.7818608E-02  0.1093470E+00
          1   -1    0    0  502    0  0.00000000000E+00  0.00000000000E+00  0.38648356404E+02  0.38648356404E+02  0.00000000000E+00 0.  1.
         13   -1    0    0    0    0 -0.00000000000E+00 -0.00000000000E+00 -0.10000000000E+04  0.10000000000E+04  0.00000000000E+00 0.  1.
    9000005    2    1    2  501    0  0.48953151848E+02  0.29365635855E+02 -0.75041168556E+03  0.82012051483E+03  0.32591595448E+03 0.  0.
         13    1    3    3    0    0  0.14970019627E+03  0.66115572921E+02 -0.19556005188E+03  0.25500029733E+03  0.00000000000E+00 0.  1.
          3    1    3    3  501    0 -0.10074704442E+03 -0.36749937066E+02 -0.55485163368E+03  0.56512021751E+03  0.00000000000E+00 0.  1.
         21    1    1    2  502  501 -0.48953151848E+02 -0.29365635855E+02 -0.21093995804E+03  0.21852784157E+03  0.00000000000E+00 0.  1.
<mgrwt>
<rscale>  1 0.30000000E+03</rscale>
<asrwt>0</asrwt>
<pdfrwt beam="1">  1        1 0.14053977E+00 0.30000000E+03</pdfrwt>
<pdfrwt beam="2">0</pdfrwt>
<totfact> 0.20100919E+01</totfact>
</mgrwt>
</event>
<event>
 6    1  0.1969531E-004  0.3000000E+03  0.7818608E-02  0.1093470E+00
          1   -1    0    0  502    0  0.00000000000E+00  0.00000000000E+00  0.30536992302E+02  0.30536992302E+02  0.00000000000E+00 0.  1.
         13   -1    0    0    0    0 -0.00000000000E+00 -0.00000000000E+00 -0.10000000000E+04  0.10000000000E+04  0.00000000000E+00 0.  1.
    9000005    2    1    2  501    0 -0.30159503535E+01 -0.15724028236E+02 -0.95541440160E+03  0.10092366554E+04  0.32478547800E+03 0.  0.
         13    1    3    3    0    0 -0.12035096199E+02 -0.10597269464E+03 -0.89250885641E+03  0.89885878441E+03  0.00000000000E+00 0.  1.
          3    1    3    3  501    0  0.90191458460E+01  0.90248666402E+02 -0.62905545193E+02  0.11037787095E+03  0.00000000000E+00 0.  1.
         21    1    1    2  502  501  0.30159503535E+01  0.15724028236E+02 -0.14048606097E+02  0.21300336940E+02  0.00000000000E+00 0.  1.
<mgrwt>
<rscale>  1 0.30000000E+03</rscale>
<asrwt>0</asrwt>
<pdfrwt beam="1">  1        1 0.11104384E+00 0.30000000E+03</pdfrwt>
<pdfrwt beam="2">0</pdfrwt>
<totfact> 0.29288308E+01</totfact>
</mgrwt>
</event>
<event>
 6    1  0.1969531E-004  0.3000000E+03  0.7818608E-02  0.1093470E+00
          3   -1    0    0  502    0  0.00000000000E+00  0.00000000000E+00  0.32270708503E+02  0.32270708503E+02  0.00000000000E+00 0.  1.
         13   -1    0    0    0    0 -0.00000000000E+00 -0.00000000000E+00 -0.10000000000E+04  0.10000000000E+04  0.00000000000E+00 0.  1.
    9000005    2    1    2  501    0  0.88453090627E+01 -0.50564448146E+01 -0.96297617125E+03  0.10210279651E+04  0.33922144986E+03 0.  0.
         13    1    3    3    0    0  0.16834325334E+03  0.27845837030E+02 -0.39767221422E+03  0.43273321059E+03  0.00000000000E+00 0.  1.
          3    1    3    3  501    0 -0.15949794427E+03 -0.32902281845E+02 -0.56530395704E+03  0.58829475454E+03  0.00000000000E+00 0.  1.
         21    1    1    2  502  501 -0.88453090627E+01  0.50564448146E+01 -0.47531202419E+01  0.11242743376E+02  0.00000000000E+00 0. -1.
<mgrwt>
<rscale>  1 0.30000000E+03</rscale>
<asrwt>0</asrwt>
<pdfrwt beam="1">  1        3 0.11734828E+00 0.30000000E+03</pdfrwt>
<pdfrwt beam="2">0</pdfrwt>
<totfact> 0.24823198E+00</totfact>
</mgrwt>
</event>
<event>
 6    1  0.1969531E-004  0.3000000E+03  0.7818608E-02  0.1093470E+00
          1   -1    0    0  502    0  0.00000000000E+00  0.00000000000E+00  0.33165059877E+02  0.33165059877E+02  0.00000000000E+00 0.  1.
         13   -1    0    0    0    0 -0.00000000000E+00 -0.00000000000E+00 -0.10000000000E+04  0.10000000000E+04  0.00000000000E+00 0.  1.
    9000005    2    1    2  501    0 -0.15394519511E+02  0.48030842135E+01 -0.96174315608E+03  0.10162539063E+04  0.32796652734E+03 0.  0.
         13    1    3    3    0    0  0.93093167809E+02  0.67293767660E+02 -0.81631828222E+03  0.82436055640E+03  0.00000000000E+00 0.  1.
          1    1    3    3  501    0 -0.10848768732E+03 -0.62490683446E+02 -0.14542487386E+03  0.19189334995E+03  0.00000000000E+00 0.  1.
         21    1    1    2  502  501  0.15394519511E+02 -0.48030842135E+01 -0.50917840431E+01  0.16911153529E+02  0.00000000000E+00 0. -1.
<mgrwt>
<rscale>  1 0.30000000E+03</rscale>
<asrwt>0</asrwt>
<pdfrwt beam="1">  1        1 0.12060047E+00 0.30000000E+03</pdfrwt>
<pdfrwt beam="2">0</pdfrwt>
<totfact> 0.25793850E+01</totfact>
</mgrwt>
</event>
<event>
 6    1  0.1969531E-004  0.3000000E+03  0.7818608E-02  0.1093470E+00
          1   -1    0    0  502    0  0.00000000000E+00  0.00000000000E+00  0.46932892471E+02  0.46932892471E+02  0.00000000000E+00 0.  1.
         13   -1    0    0    0    0 -0.00000000000E+00 -0.00000000000E+00 -0.10000000000E+04  0.10000000000E+04  0.00000000000E+00 0.  1.
    9000005    2    1    2  501    0  0.14807945608E+02 -0.19444563450E+02 -0.96860159140E+03  0.10179728080E+04  0.31222144184E+03 0.  0.
         13    1    3    3    0    0 -0.13460599660E+03 -0.27142060369E+02 -0.26305515234E+03  0.29673806452E+03  0.00000000000E+00 0.  1.
          1    1    3    3  501    0  0.14941394221E+03  0.76974969188E+01 -0.70554643907E+03  0.72123474352E+03  0.00000000000E+00 0.  1.
         21    1    1    2  502  501 -0.14807945608E+02  0.19444563450E+02  0.15534483874E+02  0.28960084429E+02  0.00000000000E+00 0.  1.
<mgrwt>
<rscale>  1 0.30000000E+03</rscale>
<asrwt>0</asrwt>
<pdfrwt beam="1">  1        1 0.17066542E+00 0.30000000E+03</pdfrwt>
<pdfrwt beam="2">0</pdfrwt>
<totfact> 0.14180652E+01</totfact>
</mgrwt>
</event>
<event>
 6    1  0.1969531E-004  0.3000000E+03  0.7818608E-02  0.1093470E+00
          3   -1    0    0  502    0  0.00000000000E+00  0.00000000000E+00  0.34842916388E+02  0.34842916388E+02  0.00000000000E+00 0.  1.
         13   -1    0    0    0    0 -0.00000000000E+00 -0.00000000000E+00 -0.10000000000E+04  0.10000000000E+04  0.00000000000E+00 0.  1.
    9000005    2    1    2  501    0  0.14056482781E+02 -0.83101909551E+00 -0.96856086961E+03  0.10203563343E+04  0.32065341966E+03 0.  0.
         13    1    3    3    0    0  0.15454343465E+03 -0.59813665656E+02 -0.57238800793E+03  0.59589376521E+03  0.00000000000E+00 0.  1.
          1    1    3    3  501    0 -0.14048695187E+03  0.58982646561E+02 -0.39617286168E+03  0.42446256911E+03  0.00000000000E+00 0.  1.
         21    1    1    2  502  501 -0.14056482781E+02  0.83101909551E+00  0.34037859994E+01  0.14486582069E+02  0.00000000000E+00 0.  1.
<mgrwt>
<rscale>  1 0.30000000E+03</rscale>
<asrwt>0</asrwt>
<pdfrwt beam="1">  1        3 0.12670178E+00 0.30000000E+03</pdfrwt>
<pdfrwt beam="2">0</pdfrwt>
<totfact> 0.19333249E+00</totfact>
</mgrwt>
</event>
<event>
 6    1  0.1969531E-004  0.3000000E+03  0.7818608E-02  0.1093470E+00
          3   -1    0    0  502    0  0.00000000000E+00  0.00000000000E+00  0.28533080713E+02  0.28533080713E+02  0.00000000000E+00 0.  1.
         13   -1    0    0    0    0 -0.00000000000E+00 -0.00000000000E+00 -0.10000000000E+04  0.10000000000E+04  0.00000000000E+00 0.  1.
    9000005    2    1    2  501    0  0.81646672808E+01 -0.38532189444E+01 -0.91984017831E+03  0.97612287682E+03  0.32654005563E+03 0.  0.
         13    1    3    3    0    0  0.37684605008E+02  0.10697953920E+03 -0.80800812261E+03  0.81593006898E+03  0.00000000000E+00 0.  1.
          1    1    3    3  501    0 -0.29519937728E+02 -0.11083275815E+03 -0.11183205570E+03  0.16019280784E+03  0.00000000000E+00 0.  1.
         21    1    1    2  502  501 -0.81646672808E+01  0.38532189444E+01 -0.51626740980E+02  0.52410203894E+02  0.00000000000E+00 0. -1.
<mgrwt>
<rscale>  1 0.30000000E+03</rscale>
<asrwt>0</asrwt>
<pdfrwt beam="1">  1        3 0.10375688E+00 0.30000000E+03</pdfrwt>
<pdfrwt beam="2">0</pdfrwt>
<totfact> 0.35495793E+00</totfact>
</mgrwt>
</event>
<event>
 6    1  0.1969531E-004  0.3000000E+03  0.7818608E-02  0.1093470E+00
          1   -1    0    0  502    0  0.00000000000E+00  0.00000000000E+00  0.50779249487E+02  0.50779249487E+02  0.00000000000E+00 0.  1.
         13   -1    0    0    0    0 -0.00000000000E+00 -0.00000000000E+00 -0.10000000000E+04  0.10000000000E+04  0.00000000000E+00 0.  1.
    9000005    2    1    2  501    0 -0.61471663892E+01 -0.13903850782E+02 -0.97058761861E+03  0.10245562105E+04  0.32778651339E+03 0.  0.
         13    1    3    3    0    0  0.31916636868E+02  0.43563093416E+02 -0.95150164740E+03  0.95303294792E+03  0.00000000000E+00 0.  1.
          3    1    3    3  501    0 -0.38063803258E+02 -0.57466944198E+02 -0.19085971212E+02  0.71523262586E+02  0.00000000000E+00 0.  1.
         21    1    1    2  502  501  0.61471663892E+01  0.13903850782E+02  0.21366868098E+02  0.26223038983E+02  0.00000000000E+00 0.  1.
<mgrwt>
<rscale>  1 0.30000000E+03</rscale>
<asrwt>0</asrwt>
<pdfrwt beam="1">  1        1 0.18465221E+00 0.30000000E+03</pdfrwt>
<pdfrwt beam="2">0</pdfrwt>
<totfact> 0.12131020E+01</totfact>
</mgrwt>
</event>
<event>
 6    1  0.1969531E-004  0.3000000E+03  0.7818608E-02  0.1093470E+00
          1   -1    0    0  502    0  0.00000000000E+00  0.00000000000E+00  0.54266252677E+02  0.54266252677E+02  0.00000000000E+00 0.  1.
         13   -1    0    0    0    0 -0.00000000000E+00 -0.00000000000E+00 -0.10000000000E+04  0.10000000000E+04  0.00000000000E+00 0.  1.
    9000005    2    1    2  501    0  0.15022536064E+02 -0.44264679377E+01 -0.97143972264E+03  0.10241652996E+04  0.32399715433E+03 0.  0.
         13    1    3    3    0    0  0.10373307488E+03 -0.11202868490E+03 -0.72593732896E+03  0.74181937332E+03  0.00000000000E+00 0.  1.
          3    1    3    3  501    0 -0.88710538816E+02  0.10760221696E+03 -0.24550239368E+03  0.28234592629E+03  0.00000000000E+00 0.  1.
         21    1    1    2  502  501 -0.15022536064E+02  0.44264679377E+01  0.25705975315E+02  0.30100953059E+02  0.00000000000E+00 0.  1.
<mgrwt>
<rscale>  1 0.30000000E+03</rscale>
<asrwt>0</asrwt>
<pdfrwt beam="1">  1        1 0.19733224E+00 0.30000000E+03</pdfrwt>
<pdfrwt beam="2">0</pdfrwt>
<totfact> 0.10547163E+01</totfact>
</mgrwt>
</event>
<event>
 6    1  0.1969531E-004  0.3000000E+03  0.7818608E-02  0.1093470E+00
          1   -1    0    0  502    0  0.00000000000E+00  0.00000000000E+00  0.32885949320E+02  0.32885949320E+02  0.00000000000E+00 0.  1.
         13   -1    0    0    0    0 -0.00000000000E+00 -0.00000000000E+00 -0.10000000000E+04  0.10000000000E+04  0.00000000000E+00 0.  1.
    9000005    2    1    2  501    0 -0.12949623890E+02  0.17717828193E+01 -0.96992650212E+03  0.10195165119E+04  0.31382426067E+03 0.  0.
         13    1    3    3    0    0  0.92209604569E+02 -0.11933338263E+03 -0.53936397419E+03  0.56005050133E+03  0.00000000000E+00 0.  1.
          1    1    3    3  501    0 -0.10515922846E+03  0.12110516545E+03 -0.43056252793E+03  0.45946601059E+03  0.00000000000E+00 0.  1.
         21    1    1    2  502  501  0.12949623890E+02 -0.17717828193E+01  0.28124514438E+01  0.13369437399E+02  0.00000000000E+00 0. -1.
<mgrwt>
<rscale>  1 0.30000000E+03</rscale>
<asrwt>0</asrwt>
<pdfrwt beam="1">  1        1 0.11958552E+00 0.30000000E+03</pdfrwt>
<pdfrwt beam="2">0</pdfrwt>
<totfact> 0.26136810E+01</totfact>
</mgrwt>
</event>
<event>
 6    1  0.1969531E-004  0.3000000E+03  0.7818608E-02  0.1093470E+00
          1   -1    0    0  502    0  0.00000000000E+00  0.00000000000E+00  0.54961156847E+02  0.54961156847E+02  0.00000000000E+00 0.  1.
         13   -1    0    0    0    0 -0.00000000000E+00 -0.00000000000E+00 -0.10000000000E+04  0.10000000000E+04  0.00000000000E+00 0.  1.
    9000005    2    1    2  501    0 -0.81276034093E+02 -0.50076807394E+02 -0.88718139808E+03  0.94333246740E+03  0.30605854114E+03 0.  0.
         13    1    3    3    0    0  0.42282754388E+01  0.11161137971E+03 -0.17161573500E+03  0.20476068689E+03  0.00000000000E+00 0.  1.
          3    1    3    3  501    0 -0.85504309532E+02 -0.16168818711E+03 -0.71556566308E+03  0.73857178052E+03  0.00000000000E+00 0.  1.
         21    1    1    2  502  501  0.81276034093E+02  0.50076807394E+02 -0.57857445077E+02  0.11162868945E+03  0.00000000000E+00 0.  1.
<mgrwt>
<rscale>  1 0.30000000E+03</rscale>
<asrwt>0</asrwt>
<pdfrwt beam="1">  1        1 0.19985917E+00 0.30000000E+03</pdfrwt>
<pdfrwt beam="2">0</pdfrwt>
<totfact> 0.10259220E+01</totfact>
</mgrwt>
</event>
<event>
 6    1  0.1969531E-004  0.3000000E+03  0.7818608E-02  0.1093470E+00
          1   -1    0    0  502    0  0.00000000000E+00  0.00000000000E+00  0.33091286706E+02  0.33091286706E+02  0.00000000000E+00 0.  1.
         13   -1    0    0    0    0 -0.00000000000E+00 -0.00000000000E+00 -0.10000000000E+04  0.10000000000E+04  0.00000000000E+00 0.  1.
    9000005    2    1    2  501    0 -0.12940726563E+02 -0.22292634330E+02 -0.94104406302E+03  0.99657548077E+03  0.32700815950E+03 0.  0.
         13    1    3    3    0    0  0.20285450201E+02  0.16045295964E+01  0.23544288032E+02  0.31119246520E+02  0.00000000000E+00 0.  1.
          1    1    3    3  501    0 -0.33226176764E+02 -0.23897163926E+02 -0.96458835105E+03  0.96545623425E+03  0.00000000000E+00 0.  1.
         21    1    1    2  502  501  0.12940726563E+02  0.22292634330E+02 -0.25864650272E+02  0.36515805935E+02  0.00000000000E+00 0.  1.
<mgrwt>
<rscale>  1 0.30000000E+03</rscale>
<asrwt>0</asrwt>
<pdfrwt beam="1">  1        1 0.12033221E+00 0.30000000E+03</pdfrwt>
<pdfrwt beam="2">0</pdfrwt>
<totfact> 0.25883911E+01</totfact>
</mgrwt>
</event>
<event>
 6    1  0.1969531E-004  0.3000000E+03  0.7818608E-02  0.1093470E+00
          1   -1    0    0  502    0  0.00000000000E+00  0.00000000000E+00  0.33008464320E+02  0.33008464320E+02  0.00000000000E+00 0.  1.
         13   -1    0    0    0    0 -0.00000000000E+00 -0.00000000000E+00 -0.10000000000E+04  0.10000000000E+04  0.00000000000E+00 0.  1.
    9000005    2    1    2  501    0  0.62888289897E+01 -0.99636070972E+01 -0.95993301667E+03  0.10192736353E+04  0.34250332023E+03 0.  0.
         13    1    3    3    0    0 -0.15311608548E+03 -0.51508572868E+02 -0.31983096997E+03  0.35831483093E+03  0.00000000000E+00 0.  1.
          1    1    3    3  501    0  0.15940491447E+03  0.41544965771E+02 -0.64010204670E+03  0.66095880441E+03  0.00000000000E+00 0.  1.
         21    1    1    2  502  501 -0.62888289897E+01  0.99636070972E+01 -0.70585190078E+01  0.13734828977E+02  0.00000000000E+00 0. -1.
<mgrwt>
<rscale>  1 0.30000000E+03</rscale>
<asrwt>0</asrwt>
<pdfrwt beam="1">  1        1 0.12003103E+00 0.30000000E+03</pdfrwt>
<pdfrwt beam="2">0</pdfrwt>
<totfact> 0.25985521E+01</totfact>
</mgrwt>
</event>
<event>
 6    1  0.1969531E-004  0.3000000E+03  0.7818608E-02  0.1093470E+00
          1   -1    0    0  502    0  0.00000000000E+00  0.00000000000E+00  0.26261013867E+02  0.26261013867E+02  0.00000000000E+00 0.  1.
         13   -1    0    0    0    0 -0.00000000000E+00 -0.00000000000E+00 -0.10000000000E+04  0.10000000000E+04  0.00000000000E+00 0.  1.
    9000005    2    1    2  501    0 -0.91621849773E+00 -0.14015609853E+02 -0.95132036719E+03  0.99980593399E+03  0.30725264497E+03 0.  0.
         13    1    3    3    0    0  0.13461629519E+03  0.31904822902E+02 -0.26732719501E+03  0.30100381035E+03  0.00000000000E+00 0.  1.
          1    1    3    3  501    0 -0.13553251369E+03 -0.45920432756E+02 -0.68399317218E+03  0.69880212364E+03  0.00000000000E+00 0.  1.
         21    1    1    2  502  501  0.91621849773E+00  0.14015609853E+02 -0.22418618946E+02  0.26455079878E+02  0.00000000000E+00 0.  1.
<mgrwt>
<rscale>  1 0.30000000E+03</rscale>
<asrwt>0</asrwt>
<pdfrwt beam="1">  1        1 0.95494797E-01 0.30000000E+03</pdfrwt>
<pdfrwt beam="2">0</pdfrwt>
<totfact> 0.36596153E+01</totfact>
</mgrwt>
</event>
<event>
 6    1  0.1969531E-004  0.3000000E+03  0.7818608E-02  0.1093470E+00
          1   -1    0    0  502    0  0.00000000000E+00  0.00000000000E+00  0.33748418223E+02  0.33748418223E+02  0.00000000000E+00 0.  1.
         13   -1    0    0    0    0 -0.00000000000E+00 -0.00000000000E+00 -0.10000000000E+04  0.10000000000E+04  0.00000000000E+00 0.  1.
    9000005    2    1    2  501    0 -0.93682691997E+01  0.10759233765E+02 -0.97093002745E+03  0.10187346435E+04  0.30807731171E+03 0.  0.
         13    1    3    3    0    0 -0.68157230459E+02 -0.93947190603E+02 -0.80822085602E+03  0.81651236046E+03  0.00000000000E+00 0.  1.
          3    1    3    3  501    0  0.58788961260E+02  0.10470642437E+03 -0.16270917143E+03  0.20222228299E+03  0.00000000000E+00 0.  1.
         21    1    1    2  502  501  0.93682691997E+01 -0.10759233765E+02  0.46784456704E+01  0.15013774772E+02  0.00000000000E+00 0.  1.
<mgrwt>
<rscale>  1 0.30000000E+03</rscale>
<asrwt>0</asrwt>
<pdfrwt beam="1">  1        1 0.12272178E+00 0.30000000E+03</pdfrwt>
<pdfrwt beam="2">0</pdfrwt>
<totfact> 0.25096113E+01</totfact>
</mgrwt>
</event>
<event>
 6    1  0.1969531E-004  0.3000000E+03  0.7818608E-02  0.1093470E+00
          1   -1    0    0  502    0  0.00000000000E+00  0.00000000000E+00  0.30041249418E+02  0.30041249418E+02  0.00000000000E+00 0.  1.
         13   -1    0    0    0    0 -0.00000000000E+00 -0.00000000000E+00 -0.10000000000E+04  0.10000000000E+04  0.00000000000E+00 0.  1.
    9000005    2    1    2  501    0  0.13290170915E+02 -0.46200742804E+01 -0.91517180677E+03  0.97347639335E+03  0.33154016164E+03 0.  0.
         13    1    3    3    0    0  0.10954567387E+03 -0.10460725304E+03 -0.70861305155E+03  0.72462085871E+03  0.00000000000E+00 0.  1.
          3    1    3    3  501    0 -0.96255502955E+02  0.99987178755E+02 -0.20655875521E+03  0.24885553464E+03  0.00000000000E+00 0.  1.
         21    1    1    2  502  501 -0.13290170915E+02  0.46200742804E+01 -0.54786943816E+02  0.56564856068E+02  0.00000000000E+00 0. -1.
<mgrwt>
<rscale>  1 0.30000000E+03</rscale>
<asrwt>0</asrwt>
<pdfrwt beam="1">  1        1 0.10924114E+00 0.30000000E+03</pdfrwt>
<pdfrwt beam="2">0</pdfrwt>
<totfact> 0.30021367E+01</totfact>
</mgrwt>
</event>
<event>
 6    1  0.1969531E-004  0.3000000E+03  0.7818608E-02  0.1093470E+00
          1   -1    0    0  502    0  0.00000000000E+00  0.00000000000E+00  0.29109605586E+02  0.29109605586E+02  0.00000000000E+00 0.  1.
         13   -1    0    0    0    0 -0.00000000000E+00 -0.00000000000E+00 -0.10000000000E+04  0.10000000000E+04  0.00000000000E+00 0.  1.
    9000005    2    1    2  501    0 -0.46995851439E+01 -0.11410433016E+02 -0.91733188551E+03  0.97414781924E+03  0.32758800570E+03 0.  0.
         13    1    3    3    0    0  0.12962986256E+03  0.16423041004E+02 -0.17044771246E+03  0.21476973768E+03  0.00000000000E+00 0.  1.
          1    1    3    3  501    0 -0.13432944770E+03 -0.27833474020E+02 -0.74688417305E+03  0.75937808156E+03  0.00000000000E+00 0.  1.
         21    1    1    2  502  501  0.46995851439E+01  0.11410433016E+02 -0.53558508906E+02  0.54961786346E+02  0.00000000000E+00 0.  1.
<mgrwt>
<rscale>  1 0.30000000E+03</rscale>
<asrwt>0</asrwt>
<pdfrwt beam="1">  1        1 0.10585333E+00 0.30000000E+03</pdfrwt>
<pdfrwt beam="2">0</pdfrwt>
<totfact> 0.31471582E+01</totfact>
</mgrwt>
</event>
<event>
 6    1  0.1969531E-004  0.3000000E+03  0.7818608E-02  0.1093470E+00
          1   -1    0    0  502    0  0.00000000000E+00  0.00000000000E+00  0.40342242488E+02  0.40342242488E+02  0.00000000000E+00 0.  1.
         13   -1    0    0    0    0 -0.00000000000E+00 -0.00000000000E+00 -0.10000000000E+04  0.10000000000E+04  0.00000000000E+00 0.  1.
    9000005    2    1    2  501    0 -0.84026032698E+01 -0.88565672797E+01 -0.95722290332E+03  0.10278935060E+04  0.37435321619E+03 0.  0.
         13    1    3    3    0    0  0.12318860298E+03 -0.43272935892E+02 -0.11267723548E+03  0.17246488999E+03  0.00000000000E+00 0.  1.
          3    1    3    3  501    0 -0.13159120625E+03  0.34416368612E+02 -0.84454566784E+03  0.85542861599E+03  0.00000000000E+00 0.  1.
         21    1    1    2  502  501  0.84026032698E+01  0.88565672797E+01 -0.24348541915E+01  0.12448736507E+02  0.00000000000E+00 0. -1.
<mgrwt>
<rscale>  1 0.30000000E+03</rscale>
<asrwt>0</asrwt>
<pdfrwt beam="1">  1        1 0.14669937E+00 0.30000000E+03</pdfrwt>
<pdfrwt beam="2">0</pdfrwt>
<totfact> 0.18676227E+01</totfact>
</mgrwt>
</event>
<event>
 6    1  0.1969531E-004  0.3000000E+03  0.7818608E-02  0.1093470E+00
          1   -1    0    0  502    0  0.00000000000E+00  0.00000000000E+00  0.32318673163E+02  0.32318673163E+02  0.00000000000E+00 0.  1.
         13   -1    0    0    0    0 -0.00000000000E+00 -0.00000000000E+00 -0.10000000000E+04  0.10000000000E+04  0.00000000000E+00 0.  1.
    9000005    2    1    2  501    0 -0.12436143089E+02  0.74471858626E+01 -0.96517536990E+03  0.10176081989E+04  0.32210686676E+03 0.  0.
         13    1    3    3    0    0 -0.92139000187E+02  0.13596205184E+03 -0.39653297629E+03  0.42920120711E+03  0.00000000000E+00 0.  1.
          3    1    3    3  501    0  0.79702857098E+02 -0.12851486598E+03 -0.56864239361E+03  0.58840699181E+03  0.00000000000E+00 0.  1.
         21    1    1    2  502  501  0.12436143089E+02 -0.74471858626E+01 -0.25059569362E+01  0.14710474240E+02  0.00000000000E+00 0.  1.
<mgrwt>
<rscale>  1 0.30000000E+03</rscale>
<asrwt>0</asrwt>
<pdfrwt beam="1">  1        1 0.11752270E+00 0.30000000E+03</pdfrwt>
<pdfrwt beam="2">0</pdfrwt>
<totfact> 0.26853060E+01</totfact>
</mgrwt>
</event>
<event>
 6    1  0.1969531E-004  0.3000000E+03  0.7818608E-02  0.1093470E+00
          1   -1    0    0  502    0  0.00000000000E+00  0.00000000000E+00  0.32237265100E+02  0.32237265100E+02  0.00000000000E+00 0.  1.
         13   -1    0    0    0    0 -0.00000000000E+00 -0.00000000000E+00 -0.10000000000E+04  0.10000000000E+04  0.00000000000E+00 0.  1.
    9000005    2    1    2  501    0 -0.14312820315E+02 -0.20204033876E+01 -0.96973363358E+03  0.10176488006E+04  0.30824798844E+03 0.  0.
         13    1    3    3    0    0  0.76044543838E+02  0.11202519135E+03 -0.25987372461E+03  0.29303032076E+03  0.00000000000E+00 0.  1.
          1    1    3    3  501    0 -0.90357364153E+02 -0.11404559474E+03 -0.70985990897E+03  0.72461847982E+03  0.00000000000E+00 0.  1.
         21    1    1    2  502  501  0.14312820315E+02  0.20204033876E+01  0.19708986825E+01  0.14588464513E+02  0.00000000000E+00 0.  1.
<mgrwt>
<rscale>  1 0.30000000E+03</rscale>
<asrwt>0</asrwt>
<pdfrwt beam="1">  1        1 0.11722667E+00 0.30000000E+03</pdfrwt>
<pdfrwt beam="2">0</pdfrwt>
<totfact> 0.26958036E+01</totfact>
</mgrwt>
</event>
<event>
 6    1  0.1969531E-004  0.3000000E+03  0.7818608E-02  0.1093470E+00
          1   -1    0    0  502    0  0.00000000000E+00  0.00000000000E+00  0.27206009825E+02  0.27206009825E+02  0.00000000000E+00 0.  1.
         13   -1    0    0    0    0 -0.00000000000E+00 -0.00000000000E+00 -0.10000000000E+04  0.10000000000E+04  0.00000000000E+00 0.  1.
    9000005    2    1    2  501    0  0.37242364007E+02  0.35925630236E+02 -0.71977374284E+03  0.76894859919E+03  0.26557496632E+03 0.  0.
         13    1    3    3    0    0  0.47271859525E+02  0.12788062565E+03 -0.61162969961E+03  0.62664102368E+03  0.00000000000E+00 0.  1.
          3    1    3    3  501    0 -0.10029495518E+02 -0.91954995409E+02 -0.10814404323E+03  0.14230757551E+03  0.00000000000E+00 0.  1.
         21    1    1    2  502  501 -0.37242364007E+02 -0.35925630236E+02 -0.25302024734E+03  0.25825741063E+03  0.00000000000E+00 0. -1.
<mgrwt>
<rscale>  1 0.30000000E+03</rscale>
<asrwt>0</asrwt>
<pdfrwt beam="1">  1        1 0.98931153E-01 0.30000000E+03</pdfrwt>
<pdfrwt beam="2">0</pdfrwt>
<totfact> 0.34768061E+01</totfact>
</mgrwt>
</event>
<event>
 6    1  0.1969531E-004  0.3000000E+03  0.7818608E-02  0.1093470E+00
          3   -1    0    0  502    0  0.00000000000E+00  0.00000000000E+00  0.24493682587E+02  0.24493682587E+02  0.00000000000E+00 0.  1.
         13   -1    0    0    0    0 -0.00000000000E+00 -0.00000000000E+00 -0.10000000000E+04  0.10000000000E+04  0.00000000000E+00 0.  1.
    9000005    2    1    2  501    0  0.77842966742E+01  0.13897410094E+02 -0.93189052261E+03  0.97806017272E+03  0.29652659586E+03 0.  0.
         13    1    3    3    0    0 -0.57718354692E+02 -0.12412481229E+02 -0.18389198202E+02  0.61835594678E+02  0.00000000000E+00 0.  1.
          1    1    3    3  501    0  0.65502651366E+02  0.26309891323E+02 -0.91350132441E+03  0.91622457804E+03  0.00000000000E+00 0.  1.
         21    1    1    2  502  501 -0.77842966742E+01 -0.13897410094E+02 -0.43615794805E+02  0.46433509867E+02  0.00000000000E+00 0. -1.
<mgrwt>
<rscale>  1 0.30000000E+03</rscale>
<asrwt>0</asrwt>
<pdfrwt beam="1">  1        3 0.89068124E-01 0.30000000E+03</pdfrwt>
<pdfrwt beam="2">0</pdfrwt>
<totfact> 0.52314050E+00</totfact>
</mgrwt>
</event>
<event>
 6    1  0.1969531E-004  0.3000000E+03  0.7818608E-02  0.1093470E+00
          1   -1    0    0  502    0  0.00000000000E+00  0.00000000000E+00  0.79608607845E+02  0.79608607845E+02  0.00000000000E+00 0.  1.
         13   -1    0    0    0    0 -0.00000000000E+00 -0.00000000000E+00 -0.10000000000E+04  0.10000000000E+04  0.00000000000E+00 0.  1.
    9000005    2    1    2  501    0 -0.81589413637E+01 -0.69397547895E+01 -0.96981685488E+03  0.10290358396E+04  0.34388268156E+03 0.  0.
         13    1    3    3    0    0 -0.78773984859E+02 -0.15825767787E+03 -0.47771506876E+03  0.50937463641E+03  0.00000000000E+00 0.  1.
          3    1    3    3  501    0  0.70615043496E+02  0.15131792308E+03 -0.49210178612E+03  0.51966120321E+03  0.00000000000E+00 0.  1.
         21    1    1    2  502  501  0.81589413637E+01  0.69397547895E+01  0.49425462727E+02  0.50572768230E+02  0.00000000000E+00 0.  1.
<mgrwt>
<rscale>  1 0.30000000E+03</rscale>
<asrwt>0</asrwt>
<pdfrwt beam="1">  1        1 0.28948646E+00 0.30000000E+03</pdfrwt>
<pdfrwt beam="2">0</pdfrwt>
<totfact> 0.38963126E+00</totfact>
</mgrwt>
</event>
<event>
 6    1  0.1969531E-004  0.3000000E+03  0.7818608E-02  0.1093470E+00
          1   -1    0    0  502    0  0.00000000000E+00  0.00000000000E+00  0.37511239358E+02  0.37511239358E+02  0.00000000000E+00 0.  1.
         13   -1    0    0    0    0 -0.00000000000E+00 -0.00000000000E+00 -0.10000000000E+04  0.10000000000E+04  0.00000000000E+00 0.  1.
    9000005    2    1    2  501    0 -0.45271466307E+02  0.20714997813E+02 -0.89465313061E+03  0.95336678322E+03  0.32561539038E+03 0.  0.
         13    1    3    3    0    0 -0.17769668868E+03  0.55268487966E+02 -0.60567375605E+03  0.63361772205E+03  0.00000000000E+00 0.  1.
          1    1    3    3  501    0  0.13242522237E+03 -0.34553490153E+02 -0.28897937455E+03  0.31974906117E+03  0.00000000000E+00 0.  1.
         21    1    1    2  502  501  0.45271466307E+02 -0.20714997813E+02 -0.67835630037E+02  0.84144456137E+02  0.00000000000E+00 0.  1.
<mgrwt>
<rscale>  1 0.30000000E+03</rscale>
<asrwt>0</asrwt>
<pdfrwt beam="1">  1        1 0.13640479E+00 0.30000000E+03</pdfrwt>
<pdfrwt beam="2">0</pdfrwt>
<totfact> 0.21135395E+01</totfact>
</mgrwt>
</event>
<event>
 6    1  0.1969531E-004  0.3000000E+03  0.7818608E-02  0.1093470E+00
          1   -1    0    0  502    0  0.00000000000E+00  0.00000000000E+00  0.37210752211E+02  0.37210752211E+02  0.00000000000E+00 0.  1.
         13   -1    0    0    0    0 -0.00000000000E+00 -0.00000000000E+00 -0.10000000000E+04  0.10000000000E+04  0.00000000000E+00 0.  1.
    9000005    2    1    2  501    0  0.14323121083E+02  0.44100924891E+02 -0.92220414421E+03  0.97558937600E+03  0.31490332420E+03 0.  0.
         13    1    3    3    0    0  0.82849801154E+02 -0.60102311315E+02 -0.77897833320E+03  0.78567399153E+03  0.00000000000E+00 0.  1.
          3    1    3    3  501    0 -0.68526680071E+02  0.10420323621E+03 -0.14322581101E+03  0.18991538447E+03  0.00000000000E+00 0.  1.
         21    1    1    2  502  501 -0.14323121083E+02 -0.44100924891E+02 -0.40585103580E+02  0.61621376213E+02  0.00000000000E+00 0. -1.
<mgrwt>
<rscale>  1 0.30000000E+03</rscale>
<asrwt>0</asrwt>
<pdfrwt beam="1">  1        1 0.13531211E+00 0.30000000E+03</pdfrwt>
<pdfrwt beam="2">0</pdfrwt>
<totfact> 0.21420214E+01</totfact>
</mgrwt>
</event>
<event>
 6    1  0.1969531E-004  0.3000000E+03  0.7818608E-02  0.1093470E+00
          1   -1    0    0  502    0  0.00000000000E+00  0.00000000000E+00  0.33077797179E+02  0.33077797179E+02  0.00000000000E+00 0.  1.
         13   -1    0    0    0    0 -0.00000000000E+00 -0.00000000000E+00 -0.10000000000E+04  0.10000000000E+04  0.00000000000E+00 0.  1.
    9000005    2    1    2  501    0  0.63841696748E+01 -0.23117828579E+02 -0.93168527879E+03  0.99045347976E+03  0.33523938496E+03 0.  0.
         13    1    3    3    0    0  0.47201890751E+02 -0.95609673048E+02 -0.89187369990E+03  0.89822487420E+03  0.00000000000E+00 0.  1.
          3    1    3    3  501    0 -0.40817721076E+02  0.72491844469E+02 -0.39811578896E+02  0.92228605555E+02  0.00000000000E+00 0.  1.
         21    1    1    2  502  501 -0.63841696748E+01  0.23117828579E+02 -0.35236924030E+02  0.42624317422E+02  0.00000000000E+00 0. -1.
<mgrwt>
<rscale>  1 0.30000000E+03</rscale>
<asrwt>0</asrwt>
<pdfrwt beam="1">  1        1 0.12028315E+00 0.30000000E+03</pdfrwt>
<pdfrwt beam="2">0</pdfrwt>
<totfact> 0.25900425E+01</totfact>
</mgrwt>
</event>
<event>
 6    1  0.1969531E-004  0.3000000E+03  0.7818608E-02  0.1093470E+00
          1   -1    0    0  502    0  0.00000000000E+00  0.00000000000E+00  0.29642402530E+02  0.29642402530E+02  0.00000000000E+00 0.  1.
         13   -1    0    0    0    0 -0.00000000000E+00 -0.00000000000E+00 -0.10000000000E+04  0.10000000000E+04  0.00000000000E+00 0.  1.
    9000005    2    1    2  501    0  0.13069851419E+02  0.13546762459E+02 -0.94479558835E+03  0.99789729110E+03  0.32063369136E+03 0.  0.
         13    1    3    3    0    0 -0.67291915602E+02  0.19697404548E+02 -0.24791178778E+02  0.74369296060E+02  0.00000000000E+00 0.  1.
          3    1    3    3  501    0  0.80361767021E+02 -0.61506420891E+01 -0.92000440957E+03  0.92352799504E+03  0.00000000000E+00 0.  1.
         21    1    1    2  502  501 -0.13069851419E+02 -0.13546762459E+02 -0.25562009121E+02  0.31745111427E+02  0.00000000000E+00 0. -1.
<mgrwt>
<rscale>  1 0.30000000E+03</rscale>
<asrwt>0</asrwt>
<pdfrwt beam="1">  1        1 0.10779078E+00 0.30000000E+03</pdfrwt>
<pdfrwt beam="2">0</pdfrwt>
<totfact> 0.30630247E+01</totfact>
</mgrwt>
</event>
<event>
 6    1  0.1969531E-004  0.3000000E+03  0.7818608E-02  0.1093470E+00
          1   -1    0    0  502    0  0.00000000000E+00  0.00000000000E+00  0.29933212694E+02  0.29933212694E+02  0.00000000000E+00 0.  1.
         13   -1    0    0    0    0 -0.00000000000E+00 -0.00000000000E+00 -0.10000000000E+04  0.10000000000E+04  0.00000000000E+00 0.  1.
    9000005    2    1    2  501    0 -0.81265857873E+01 -0.54921913034E+01 -0.95851033550E+03  0.10147754708E+04  0.33306303796E+03 0.  0.
         13    1    3    3    0    0  0.50571919128E+00  0.16040868907E+03 -0.57221631883E+03  0.59427495220E+03  0.00000000000E+00 0.  1.
          3    1    3    3  501    0 -0.86323049786E+01 -0.16590088038E+03 -0.38629401667E+03  0.42050051857E+03  0.00000000000E+00 0.  1.
         21    1    1    2  502  501  0.81265857873E+01  0.54921913034E+01 -0.11556451806E+02  0.15157741923E+02  0.00000000000E+00 0. -1.
<mgrwt>
<rscale>  1 0.30000000E+03</rscale>
<asrwt>0</asrwt>
<pdfrwt beam="1">  1        1 0.10884828E+00 0.30000000E+03</pdfrwt>
<pdfrwt beam="2">0</pdfrwt>
<totfact> 0.30184578E+01</totfact>
</mgrwt>
</event>
<event>
 6    1  0.1969531E-004  0.3000000E+03  0.7818608E-02  0.1093470E+00
          1   -1    0    0  502    0  0.00000000000E+00  0.00000000000E+00  0.71773579972E+02  0.71773579972E+02  0.00000000000E+00 0.  1.
         13   -1    0    0    0    0 -0.00000000000E+00 -0.00000000000E+00 -0.10000000000E+04  0.10000000000E+04  0.00000000000E+00 0.  1.
    9000005    2    1    2  501    0 -0.65510792200E+02 -0.91843470987E+02 -0.88853368294E+03  0.95218093624E+03  0.32315560116E+03 0.  0.
         13    1    3    3    0    0  0.26949967568E+01 -0.15516506823E+03 -0.18043421447E+03  0.23799152749E+03  0.00000000000E+00 0.  1.
          1    1    3    3  501    0 -0.68205788957E+02  0.63321597241E+02 -0.70809946847E+03  0.71418940875E+03  0.00000000000E+00 0.  1.
         21    1    1    2  502  501  0.65510792200E+02  0.91843470987E+02 -0.39692737089E+02  0.11959264373E+03  0.00000000000E+00 0.  1.
<mgrwt>
<rscale>  1 0.30000000E+03</rscale>
<asrwt>0</asrwt>
<pdfrwt beam="1">  1        1 0.26099539E+00 0.30000000E+03</pdfrwt>
<pdfrwt beam="2">0</pdfrwt>
<totfact> 0.53009265E+00</totfact>
</mgrwt>
</event>
<event>
 6    1  0.1969531E-004  0.3000000E+03  0.7818608E-02  0.1093470E+00
          1   -1    0    0  502    0  0.00000000000E+00  0.00000000000E+00  0.29124931222E+02  0.29124931222E+02  0.00000000000E+00 0.  1.
         13   -1    0    0    0    0 -0.00000000000E+00 -0.00000000000E+00 -0.10000000000E+04  0.10000000000E+04  0.00000000000E+00 0.  1.
    9000005    2    1    2  501    0 -0.37232811287E+01 -0.94317181057E+01 -0.96368788594E+03  0.10166961048E+04  0.32384225774E+03 0.  0.
         13    1    3    3    0    0  0.14458822271E+03 -0.73025684035E+02 -0.51486895010E+03  0.53974859004E+03  0.00000000000E+00 0.  1.
          1    1    3    3  501    0 -0.14831150384E+03  0.63593965929E+02 -0.44881893584E+03  0.47694751477E+03  0.00000000000E+00 0.  1.
         21    1    1    2  502  501  0.37232811287E+01  0.94317181057E+01 -0.71871828337E+01  0.12428826408E+02  0.00000000000E+00 0. -1.
<mgrwt>
<rscale>  1 0.30000000E+03</rscale>
<asrwt>0</asrwt>
<pdfrwt beam="1">  1        1 0.10590906E+00 0.30000000E+03</pdfrwt>
<pdfrwt beam="2">0</pdfrwt>
<totfact> 0.31446920E+01</totfact>
</mgrwt>
</event>
<event>
 6    1  0.1969531E-004  0.3000000E+03  0.7818608E-02  0.1093470E+00
          1   -1    0    0  502    0  0.00000000000E+00  0.00000000000E+00  0.28656668937E+02  0.28656668937E+02  0.00000000000E+00 0.  1.
         13   -1    0    0    0    0 -0.00000000000E+00 -0.00000000000E+00 -0.10000000000E+04  0.10000000000E+04  0.00000000000E+00 0.  1.
    9000005    2    1    2  501    0  0.11671798935E+02  0.11704222967E+01 -0.96192869919E+03  0.10136155230E+04  0.31933055805E+03 0.  0.
         13    1    3    3    0    0  0.13847523621E+03 -0.67042174652E+02 -0.67832952510E+03  0.69555804132E+03  0.00000000000E+00 0.  1.
          3    1    3    3  501    0 -0.12680343728E+03  0.68212596948E+02 -0.28359917408E+03  0.31805748164E+03  0.00000000000E+00 0.  1.
         21    1    1    2  502  501 -0.11671798935E+02 -0.11704222967E+01 -0.94146318775E+01  0.15041145971E+02  0.00000000000E+00 0.  1.
<mgrwt>
<rscale>  1 0.30000000E+03</rscale>
<asrwt>0</asrwt>
<pdfrwt beam="1">  1        1 0.10420629E+00 0.30000000E+03</pdfrwt>
<pdfrwt beam="2">0</pdfrwt>
<totfact> 0.32213265E+01</totfact>
</mgrwt>
</event>
<event>
 6    1  0.1969531E-004  0.3000000E+03  0.7818608E-02  0.1093470E+00
          1   -1    0    0  502    0  0.00000000000E+00  0.00000000000E+00  0.72687287711E+02  0.72687287711E+02  0.00000000000E+00 0.  1.
         13   -1    0    0    0    0 -0.00000000000E+00 -0.00000000000E+00 -0.10000000000E+04  0.10000000000E+04  0.00000000000E+00 0.  1.
    9000005    2    1    2  501    0 -0.43036682098E+01 -0.12526917715E+03 -0.87152594677E+03  0.93549016125E+03  0.31602765319E+03 0.  0.
         13    1    3    3    0    0  0.20390598152E+01 -0.16842524041E+03 -0.87562492185E+03  0.89167831820E+03  0.00000000000E+00 0.  1.
          3    1    3    3  501    0 -0.63427280250E+01  0.43156063259E+02  0.40989750773E+01  0.43811843050E+02  0.00000000000E+00 0.  1.
         21    1    1    2  502  501  0.43036682098E+01  0.12526917715E+03 -0.55786765514E+02  0.13719712647E+03  0.00000000000E+00 0. -1.
<mgrwt>
<rscale>  1 0.30000000E+03</rscale>
<asrwt>0</asrwt>
<pdfrwt beam="1">  1        1 0.26431797E+00 0.30000000E+03</pdfrwt>
<pdfrwt beam="2">0</pdfrwt>
<totfact> 0.51133732E+00</totfact>
</mgrwt>
</event>
<event>
 6    1  0.1969531E-004  0.3000000E+03  0.7818608E-02  0.1093470E+00
          1   -1    0    0  502    0  0.00000000000E+00  0.00000000000E+00  0.37811033633E+02  0.37811033633E+02  0.00000000000E+00 0.  1.
         13   -1    0    0    0    0 -0.00000000000E+00 -0.00000000000E+00 -0.10000000000E+04  0.10000000000E+04  0.00000000000E+00 0.  1.
    9000005    2    1    2  501    0 -0.36575552418E+02  0.17815092080E+01 -0.93622053289E+03  0.99291889237E+03  0.32869149033E+03 0.  0.
         13    1    3    3    0    0 -0.52674951075E+02  0.15830447356E+03 -0.57946373001E+03  0.60300345871E+03  0.00000000000E+00 0.  1.
          3    1    3    3  501    0  0.16099398658E+02 -0.15652296435E+03 -0.35675680288E+03  0.38991543366E+03  0.00000000000E+00 0.  1.
         21    1    1    2  502  501  0.36575552418E+02 -0.17815092080E+01 -0.25968433476E+02  0.44892141260E+02  0.00000000000E+00 0. -1.
<mgrwt>
<rscale>  1 0.30000000E+03</rscale>
<asrwt>0</asrwt>
<pdfrwt beam="1">  1        1 0.13749496E+00 0.30000000E+03</pdfrwt>
<pdfrwt beam="2">0</pdfrwt>
<totfact> 0.20856174E+01</totfact>
</mgrwt>
</event>
<event>
 6    1  0.1969531E-004  0.3000000E+03  0.7818608E-02  0.1093470E+00
          1   -1    0    0  502    0  0.00000000000E+00  0.00000000000E+00  0.27174452727E+02  0.27174452727E+02  0.00000000000E+00 0.  1.
         13   -1    0    0    0    0 -0.00000000000E+00 -0.00000000000E+00 -0.10000000000E+04  0.10000000000E+04  0.00000000000E+00 0.  1.
    9000005    2    1    2  501    0 -0.92516318262E+01 -0.45891290724E+01 -0.94590946396E+03  0.99834515621E+03  0.31912643906E+03 0.  0.
         13    1    3    3    0    0  0.12069138881E+02 -0.15926310282E+03 -0.55124767331E+03  0.57392020121E+03  0.00000000000E+00 0.  1.
          3    1    3    3  501    0 -0.21320770707E+02  0.15467397375E+03 -0.39466179066E+03  0.42442495500E+03  0.00000000000E+00 0.  1.
         21    1    1    2  502  501  0.92516318262E+01  0.45891290724E+01 -0.26916083309E+02  0.28829296519E+02  0.00000000000E+00 0. -1.
<mgrwt>
<rscale>  1 0.30000000E+03</rscale>
<asrwt>0</asrwt>
<pdfrwt beam="1">  1        1 0.98816400E-01 0.30000000E+03</pdfrwt>
<pdfrwt beam="2">0</pdfrwt>
<totfact> 0.34826905E+01</totfact>
</mgrwt>
</event>
<event>
 6    1  0.1969531E-004  0.3000000E+03  0.7818608E-02  0.1093470E+00
          1   -1    0    0  502    0  0.00000000000E+00  0.00000000000E+00  0.33491400660E+02  0.33491400660E+02  0.00000000000E+00 0.  1.
         13   -1    0    0    0    0 -0.00000000000E+00 -0.00000000000E+00 -0.10000000000E+04  0.10000000000E+04  0.00000000000E+00 0.  1.
    9000005    2    1    2  501    0 -0.17357523127E+02 -0.15780310614E+02 -0.93840225331E+03  0.99688172298E+03  0.33559511140E+03 0.  0.
         13    1    3    3    0    0  0.87351712141E+02  0.11243572369E+03 -0.63991800097E+03  0.65556629073E+03  0.00000000000E+00 0.  1.
          1    1    3    3  501    0 -0.10470923527E+03 -0.12821603430E+03 -0.29848425233E+03  0.34131543225E+03  0.00000000000E+00 0.  1.
         21    1    1    2  502  501  0.17357523127E+02  0.15780310614E+02 -0.28106346034E+02  0.36609677677E+02  0.00000000000E+00 0.  1.
<mgrwt>
<rscale>  1 0.30000000E+03</rscale>
<asrwt>0</asrwt>
<pdfrwt beam="1">  1        1 0.12178717E+00 0.30000000E+03</pdfrwt>
<pdfrwt beam="2">0</pdfrwt>
<totfact> 0.25400416E+01</totfact>
</mgrwt>
</event>
<event>
 6    1  0.1969531E-004  0.3000000E+03  0.7818608E-02  0.1093470E+00
          1   -1    0    0  502    0  0.00000000000E+00  0.00000000000E+00  0.29715702616E+02  0.29715702616E+02  0.00000000000E+00 0.  1.
         13   -1    0    0    0    0 -0.00000000000E+00 -0.00000000000E+00 -0.10000000000E+04  0.10000000000E+04  0.00000000000E+00 0.  1.
    9000005    2    1    2  501    0 -0.96683261899E+01 -0.19918941297E+02 -0.93761394268E+03  0.99024935201E+03  0.31777922036E+03 0.  0.
         13    1    3    3    0    0 -0.10362376294E+03  0.10961373497E+03 -0.34754373148E+03  0.37886633584E+03  0.00000000000E+00 0.  1.
          1    1    3    3  501    0  0.93955436750E+02 -0.12953267627E+03 -0.59007021120E+03  0.61138301617E+03  0.00000000000E+00 0.  1.
         21    1    1    2  502  501  0.96683261899E+01  0.19918941297E+02 -0.32670354699E+02  0.39466350602E+02  0.00000000000E+00 0. -1.
<mgrwt>
<rscale>  1 0.30000000E+03</rscale>
<asrwt>0</asrwt>
<pdfrwt beam="1">  1        1 0.10805733E+00 0.30000000E+03</pdfrwt>
<pdfrwt beam="2">0</pdfrwt>
<totfact> 0.30517032E+01</totfact>
</mgrwt>
</event>
<event>
 6    1  0.1969531E-004  0.3000000E+03  0.7818608E-02  0.1093470E+00
          1   -1    0    0  502    0  0.00000000000E+00  0.00000000000E+00  0.36181100195E+02  0.36181100195E+02  0.00000000000E+00 0.  1.
         13   -1    0    0    0    0 -0.00000000000E+00 -0.00000000000E+00 -0.10000000000E+04  0.10000000000E+04  0.00000000000E+00 0.  1.
    9000005    2    1    2  501    0 -0.75037538381E+01 -0.10519142187E+02 -0.96273519726E+03  0.10232144859E+04  0.34632624145E+03 0.  0.
         13    1    3    3    0    0  0.12198047051E+03  0.11299915423E+03 -0.41890717263E+03  0.45070085792E+03  0.00000000000E+00 0.  1.
          3    1    3    3  501    0 -0.12948422435E+03 -0.12351829642E+03 -0.54382802463E+03  0.57251362802E+03  0.00000000000E+00 0.  1.
         21    1    1    2  502  501  0.75037538381E+01  0.10519142187E+02 -0.10837025432E+01  0.12966614254E+02  0.00000000000E+00 0. -1.
<mgrwt>
<rscale>  1 0.30000000E+03</rscale>
<asrwt>0</asrwt>
<pdfrwt beam="1">  1        1 0.13156791E+00 0.30000000E+03</pdfrwt>
<pdfrwt beam="2">0</pdfrwt>
<totfact> 0.22435725E+01</totfact>
</mgrwt>
</event>
<event>
 6    1  0.1969531E-004  0.3000000E+03  0.7818608E-02  0.1093470E+00
          1   -1    0    0  502    0  0.00000000000E+00  0.00000000000E+00  0.36083802607E+02  0.36083802607E+02  0.00000000000E+00 0.  1.
         13   -1    0    0    0    0 -0.00000000000E+00 -0.00000000000E+00 -0.10000000000E+04  0.10000000000E+04  0.00000000000E+00 0.  1.
    9000005    2    1    2  501    0 -0.10128764998E+02 -0.67099173962E+01 -0.96955512479E+03  0.10226893122E+04  0.32512870429E+03 0.  0.
         13    1    3    3    0    0 -0.28227757475E+01  0.12614290619E+03 -0.78555019807E+03  0.79561869921E+03  0.00000000000E+00 0.  1.
          1    1    3    3  501    0 -0.73059892509E+01 -0.13285282358E+03 -0.18400492672E+03  0.22707061296E+03  0.00000000000E+00 0.  1.
         21    1    1    2  502  501  0.10128764998E+02  0.67099173962E+01  0.56389273961E+01  0.13394490436E+02  0.00000000000E+00 0. -1.
<mgrwt>
<rscale>  1 0.30000000E+03</rscale>
<asrwt>0</asrwt>
<pdfrwt beam="1">  1        1 0.13121410E+00 0.30000000E+03</pdfrwt>
<pdfrwt beam="2">0</pdfrwt>
<totfact> 0.22534939E+01</totfact>
</mgrwt>
</event>
<event>
 6    1  0.1969531E-004  0.3000000E+03  0.7818608E-02  0.1093470E+00
          1   -1    0    0  502    0  0.00000000000E+00  0.00000000000E+00  0.39733470694E+02  0.39733470694E+02  0.00000000000E+00 0.  1.
         13   -1    0    0    0    0 -0.00000000000E+00 -0.00000000000E+00 -0.10000000000E+04  0.10000000000E+04  0.00000000000E+00 0.  1.
    9000005    2    1    2  501    0 -0.16648765267E+02  0.62783452302E+02 -0.85819135281E+03  0.91874469054E+03  0.32152832702E+03 0.  0.
         13    1    3    3    0    0  0.12074296792E+03 -0.31476348177E+02 -0.17126000726E+03  0.21189529227E+03  0.00000000000E+00 0.  1.
          3    1    3    3  501    0 -0.13739173319E+03  0.94259800479E+02 -0.68693134555E+03  0.70684939827E+03  0.00000000000E+00 0.  1.
         21    1    1    2  502  501  0.16648765267E+02 -0.62783452302E+02 -0.10207517649E+03  0.12098878016E+03  0.00000000000E+00 0. -1.
<mgrwt>
<rscale>  1 0.30000000E+03</rscale>
<asrwt>0</asrwt>
<pdfrwt beam="1">  1        1 0.14448565E+00 0.30000000E+03</pdfrwt>
<pdfrwt beam="2">0</pdfrwt>
<totfact> 0.19173112E+01</totfact>
</mgrwt>
</event>
<event>
 6    1  0.1969531E-004  0.3000000E+03  0.7818608E-02  0.1093470E+00
          1   -1    0    0  502    0  0.00000000000E+00  0.00000000000E+00  0.13109792849E+02  0.13109792849E+02  0.00000000000E+00 0.  1.
         13   -1    0    0    0    0 -0.00000000000E+00 -0.00000000000E+00 -0.10000000000E+04  0.10000000000E+04  0.00000000000E+00 0.  1.
    9000005    2    1    2  501    0  0.59413979434E+01  0.70421292850E+01 -0.94434071307E+03  0.96957416099E+03  0.21956725510E+03 0.  0.
         13    1    3    3    0    0 -0.94992531847E+02  0.39262881557E+02 -0.31412746090E+03  0.33051659061E+03  0.00000000000E+00 0.  1.
          1    1    3    3  501    0  0.10093392979E+03 -0.32220752272E+02 -0.63021325216E+03  0.63905757038E+03  0.00000000000E+00 0.  1.
         21    1    1    2  502  501 -0.59413979434E+01 -0.70421292850E+01 -0.42549494085E+02  0.43535631858E+02  0.00000000000E+00 0. -1.
<mgrwt>
<rscale>  1 0.30000000E+03</rscale>
<asrwt>0</asrwt>
<pdfrwt beam="1">  1        1 0.47672075E-01 0.30000000E+03</pdfrwt>
<pdfrwt beam="2">0</pdfrwt>
<totfact> 0.93947578E+01</totfact>
</mgrwt>
</event>
<event>
 6    1  0.1969531E-004  0.3000000E+03  0.7818608E-02  0.1093470E+00
          1   -1    0    0  502    0  0.00000000000E+00  0.00000000000E+00  0.41551732159E+02  0.41551732159E+02  0.00000000000E+00 0.  1.
         13   -1    0    0    0    0 -0.00000000000E+00 -0.00000000000E+00 -0.10000000000E+04  0.10000000000E+04  0.00000000000E+00 0.  1.
    9000005    2    1    2  501    0  0.30197745294E+01  0.14852382289E+02 -0.97272595077E+03  0.10207295198E+04  0.30897130124E+03 0.  0.
         13    1    3    3    0    0  0.71665681656E+02  0.96880418731E+02 -0.15647338283E+03  0.19749862024E+03  0.00000000000E+00 0.  1.
          1    1    3    3  501    0 -0.68645907126E+02 -0.82028036442E+02 -0.81625256794E+03  0.82323089956E+03  0.00000000000E+00 0.  1.
         21    1    1    2  502  501 -0.30197745294E+01 -0.14852382289E+02  0.14277682927E+02  0.20822212362E+02  0.00000000000E+00 0.  1.
<mgrwt>
<rscale>  1 0.30000000E+03</rscale>
<asrwt>0</asrwt>
<pdfrwt beam="1">  1        1 0.15109753E+00 0.30000000E+03</pdfrwt>
<pdfrwt beam="2">0</pdfrwt>
<totfact> 0.17735923E+01</totfact>
</mgrwt>
</event>
<event>
 6    1  0.1969531E-004  0.3000000E+03  0.7818608E-02  0.1093470E+00
          1   -1    0    0  502    0  0.00000000000E+00  0.00000000000E+00  0.34562194682E+02  0.34562194682E+02  0.00000000000E+00 0.  1.
         13   -1    0    0    0    0 -0.00000000000E+00 -0.00000000000E+00 -0.10000000000E+04  0.10000000000E+04  0.00000000000E+00 0.  1.
    9000005    2    1    2  501    0  0.35913230065E+02 -0.31811624284E+02 -0.89759565150E+03  0.95147009297E+03  0.31195455547E+03 0.  0.
         13    1    3    3    0    0  0.72978729431E+02 -0.68669312874E+01 -0.90344272100E+03  0.90641149586E+03  0.00000000000E+00 0.  1.
          1    1    3    3  501    0 -0.37065499366E+02 -0.24944692996E+02  0.58470694952E+01  0.45058597111E+02  0.00000000000E+00 0.  1.
         21    1    1    2  502  501 -0.35913230065E+02  0.31811624284E+02 -0.67842153815E+02  0.83092101716E+02  0.00000000000E+00 0.  1.
<mgrwt>
<rscale>  1 0.30000000E+03</rscale>
<asrwt>0</asrwt>
<pdfrwt beam="1">  1        1 0.12568097E+00 0.30000000E+03</pdfrwt>
<pdfrwt beam="2">0</pdfrwt>
<totfact> 0.24163246E+01</totfact>
</mgrwt>
</event>
<event>
 6    1  0.1969531E-004  0.3000000E+03  0.7818608E-02  0.1093470E+00
          1   -1    0    0  502    0  0.00000000000E+00  0.00000000000E+00  0.31673101626E+02  0.31673101626E+02  0.00000000000E+00 0.  1.
         13   -1    0    0    0    0 -0.00000000000E+00 -0.00000000000E+00 -0.10000000000E+04  0.10000000000E+04  0.00000000000E+00 0.  1.
    9000005    2    1    2  501    0  0.19065359148E+02 -0.27038076502E+01 -0.96657468688E+03  0.10123374160E+04  0.30031586692E+03 0.  0.
         13    1    3    3    0    0 -0.47808955177E+02  0.11034130488E+03 -0.19088157876E+03  0.22560291857E+03  0.00000000000E+00 0.  1.
          3    1    3    3  501    0  0.66874314326E+02 -0.11304511253E+03 -0.77569310813E+03  0.78673449739E+03  0.00000000000E+00 0.  1.
         21    1    1    2  502  501 -0.19065359148E+02  0.27038076502E+01 -0.17522114902E+01  0.19335685671E+02  0.00000000000E+00 0.  1.
<mgrwt>
<rscale>  1 0.30000000E+03</rscale>
<asrwt>0</asrwt>
<pdfrwt beam="1">  1        1 0.11517516E+00 0.30000000E+03</pdfrwt>
<pdfrwt beam="2">0</pdfrwt>
<totfact> 0.27701348E+01</totfact>
</mgrwt>
</event>
<event>
 6    1  0.1969531E-004  0.3000000E+03  0.7818608E-02  0.1093470E+00
          1   -1    0    0  502    0  0.00000000000E+00  0.00000000000E+00  0.30609000448E+02  0.30609000448E+02  0.00000000000E+00 0.  1.
         13   -1    0    0    0    0 -0.00000000000E+00 -0.00000000000E+00 -0.10000000000E+04  0.10000000000E+04  0.00000000000E+00 0.  1.
    9000005    2    1    2  501    0  0.16242838153E+02 -0.62130897905E+01 -0.93014480475E+03  0.98768236440E+03  0.33172980401E+03 0.  0.
         13    1    3    3    0    0  0.16725405910E+03 -0.41521208793E+02 -0.57215184086E+03  0.59754134591E+03  0.00000000000E+00 0.  1.
          3    1    3    3  501    0 -0.15101122095E+03  0.35308119002E+02 -0.35799296388E+03  0.39014101849E+03  0.00000000000E+00 0.  1.
         21    1    1    2  502  501 -0.16242838153E+02  0.62130897905E+01 -0.39246194806E+02  0.42926636052E+02  0.00000000000E+00 0.  1.
<mgrwt>
<rscale>  1 0.30000000E+03</rscale>
<asrwt>0</asrwt>
<pdfrwt beam="1">  1        1 0.11130569E+00 0.30000000E+03</pdfrwt>
<pdfrwt beam="2">0</pdfrwt>
<totfact> 0.29183944E+01</totfact>
</mgrwt>
</event>
<event>
 6    1  0.1969531E-004  0.3000000E+03  0.7818608E-02  0.1093470E+00
          1   -1    0    0  502    0  0.00000000000E+00  0.00000000000E+00  0.34222477078E+02  0.34222477078E+02  0.00000000000E+00 0.  1.
         13   -1    0    0    0    0 -0.00000000000E+00 -0.00000000000E+00 -0.10000000000E+04  0.10000000000E+04  0.00000000000E+00 0.  1.
    9000005    2    1    2  501    0  0.28055266788E+02 -0.14740420879E+02 -0.93635129083E+03  0.99097572995E+03  0.32291605644E+03 0.  0.
         13    1    3    3    0    0  0.11281704800E+02  0.13281540470E+03 -0.69445036604E+03  0.70712694722E+03  0.00000000000E+00 0.  1.
          3    1    3    3  501    0  0.16773561988E+02 -0.14755582558E+03 -0.24190092478E+03  0.28384878273E+03  0.00000000000E+00 0.  1.
         21    1    1    2  502  501 -0.28055266788E+02  0.14740420879E+02 -0.29426232093E+02  0.43246747131E+02  0.00000000000E+00 0. -1.
<mgrwt>
<rscale>  1 0.30000000E+03</rscale>
<asrwt>0</asrwt>
<pdfrwt beam="1">  1        1 0.12444563E+00 0.30000000E+03</pdfrwt>
<pdfrwt beam="2">0</pdfrwt>
<totfact> 0.24547190E+01</totfact>
</mgrwt>
</event>
<event>
 6    1  0.1969531E-004  0.3000000E+03  0.7818608E-02  0.1093470E+00
          3   -1    0    0  502    0  0.00000000000E+00  0.00000000000E+00  0.24565029941E+02  0.24565029941E+02  0.00000000000E+00 0.  1.
         13   -1    0    0    0    0 -0.00000000000E+00 -0.00000000000E+00 -0.10000000000E+04  0.10000000000E+04  0.00000000000E+00 0.  1.
    9000005    2    1    2  501    0 -0.61020662956E+01  0.10187139742E+02 -0.95044070891E+03  0.99689327323E+03  0.30052894041E+03 0.  0.
         13    1    3    3    0    0 -0.12844982985E+03  0.16886843433E+02 -0.21272720607E+03  0.24907305850E+03  0.00000000000E+00 0.  1.
          1    1    3    3  501    0  0.12234776356E+03 -0.66997036913E+01 -0.73771350285E+03  0.74782021473E+03  0.00000000000E+00 0.  1.
         21    1    1    2  502  501  0.61020662956E+01 -0.10187139742E+02 -0.24994261146E+02  0.27671756710E+02  0.00000000000E+00 0.  1.
<mgrwt>
<rscale>  1 0.30000000E+03</rscale>
<asrwt>0</asrwt>
<pdfrwt beam="1">  1        3 0.89327570E-01 0.30000000E+03</pdfrwt>
<pdfrwt beam="2">0</pdfrwt>
<totfact> 0.51950721E+00</totfact>
</mgrwt>
</event>
<event>
 6    1  0.1969531E-004  0.3000000E+03  0.7818608E-02  0.1093470E+00
          1   -1    0    0  502    0  0.00000000000E+00  0.00000000000E+00  0.29420291559E+02  0.29420291559E+02  0.00000000000E+00 0.  1.
         13   -1    0    0    0    0 -0.00000000000E+00 -0.00000000000E+00 -0.10000000000E+04  0.10000000000E+04  0.00000000000E+00 0.  1.
    9000005    2    1    2  501    0 -0.35356475571E+01  0.12939826255E+02 -0.90780774915E+03  0.96523104962E+03  0.32768297153E+03 0.  0.
         13    1    3    3    0    0 -0.11838918754E+03 -0.21920405216E+01 -0.79418789811E+03  0.80296651379E+03  0.00000000000E+00 0.  1.
          3    1    3    3  501    0  0.11485353998E+03  0.15131866776E+02 -0.11361985104E+03  0.16226453583E+03  0.00000000000E+00 0.  1.
         21    1    1    2  502  501  0.35356475571E+01 -0.12939826255E+02 -0.62771959294E+02  0.64189241939E+02  0.00000000000E+00 0. -1.
<mgrwt>
<rscale>  1 0.30000000E+03</rscale>
<asrwt>0</asrwt>
<pdfrwt beam="1">  1        1 0.10698310E+00 0.30000000E+03</pdfrwt>
<pdfrwt beam="2">0</pdfrwt>
<totfact> 0.30977005E+01</totfact>
</mgrwt>
</event>
<event>
 6    1  0.1969531E-004  0.3000000E+03  0.7818608E-02  0.1093470E+00
          1   -1    0    0  502    0  0.00000000000E+00  0.00000000000E+00  0.41232904086E+02  0.41232904086E+02  0.00000000000E+00 0.  1.
         13   -1    0    0    0    0 -0.00000000000E+00 -0.00000000000E+00 -0.10000000000E+04  0.10000000000E+04  0.00000000000E+00 0.  1.
    9000005    2    1    2  501    0  0.12163208608E+02 -0.43289980531E+01 -0.97173418778E+03  0.10229345616E+04  0.31931348493E+03 0.  0.
         13    1    3    3    0    0  0.51299527608E+02  0.13563675564E+03 -0.27174098760E+03  0.30801320646E+03  0.00000000000E+00 0.  1.
          3    1    3    3  501    0 -0.39136319000E+02 -0.13996575369E+03 -0.69999320018E+03  0.71492135509E+03  0.00000000000E+00 0.  1.
         21    1    1    2  502  501 -0.12163208608E+02  0.43289980531E+01  0.12967091868E+02  0.18298342529E+02  0.00000000000E+00 0.  1.
<mgrwt>
<rscale>  1 0.30000000E+03</rscale>
<asrwt>0</asrwt>
<pdfrwt beam="1">  1        1 0.14993815E+00 0.30000000E+03</pdfrwt>
<pdfrwt beam="2">0</pdfrwt>
<totfact> 0.17977970E+01</totfact>
</mgrwt>
</event>
<event>
 6    1  0.1969531E-004  0.3000000E+03  0.7818608E-02  0.1093470E+00
          1   -1    0    0  502    0  0.00000000000E+00  0.00000000000E+00  0.28835008835E+02  0.28835008835E+02  0.00000000000E+00 0.  1.
         13   -1    0    0    0    0 -0.00000000000E+00 -0.00000000000E+00 -0.10000000000E+04  0.10000000000E+04  0.00000000000E+00 0.  1.
    9000005    2    1    2  501    0  0.16615040039E+02  0.77937698371E+01 -0.90497075870E+03  0.96014382443E+03  0.32026127939E+03 0.  0.
         13    1    3    3    0    0  0.59244533154E+02  0.10982492507E+03 -0.79305990685E+03  0.80281719259E+03  0.00000000000E+00 0.  1.
          3    1    3    3  501    0 -0.42629493115E+02 -0.10203115523E+03 -0.11191085185E+03  0.15732663183E+03  0.00000000000E+00 0.  1.
         21    1    1    2  502  501 -0.16615040039E+02 -0.77937698371E+01 -0.66194232465E+02  0.68691184409E+02  0.00000000000E+00 0.  1.
<mgrwt>
<rscale>  1 0.30000000E+03</rscale>
<asrwt>0</asrwt>
<pdfrwt beam="1">  1        1 0.10485480E+00 0.30000000E+03</pdfrwt>
<pdfrwt beam="2">0</pdfrwt>
<totfact> 0.31918245E+01</totfact>
</mgrwt>
</event>
<event>
 6    1  0.1969531E-004  0.3000000E+03  0.7818608E-02  0.1093470E+00
          1   -1    0    0  502    0  0.00000000000E+00  0.00000000000E+00  0.30407765699E+02  0.30407765699E+02  0.00000000000E+00 0.  1.
         13   -1    0    0    0    0 -0.00000000000E+00 -0.00000000000E+00 -0.10000000000E+04  0.10000000000E+04  0.00000000000E+00 0.  1.
    9000005    2    1    2  501    0 -0.15664288153E+02 -0.49000501794E+01 -0.95630032906E+03  0.10092877477E+04  0.32230739659E+03 0.  0.
         13    1    3    3    0    0 -0.44026599163E+02  0.12764283550E+03 -0.75257776827E+03  0.76459422715E+03  0.00000000000E+00 0.  1.
          3    1    3    3  501    0  0.28362311010E+02 -0.13254288568E+03 -0.20372256078E+03  0.24469352056E+03  0.00000000000E+00 0.  1.
         21    1    1    2  502  501  0.15664288153E+02  0.49000501794E+01 -0.13291905244E+02  0.21120017995E+02  0.00000000000E+00 0. -1.
<mgrwt>
<rscale>  1 0.30000000E+03</rscale>
<asrwt>0</asrwt>
<pdfrwt beam="1">  1        1 0.11057393E+00 0.30000000E+03</pdfrwt>
<pdfrwt beam="2">0</pdfrwt>
<totfact> 0.29476928E+01</totfact>
</mgrwt>
</event>
<event>
 6    1  0.1969531E-004  0.3000000E+03  0.7818608E-02  0.1093470E+00
          3   -1    0    0  502    0  0.00000000000E+00  0.00000000000E+00  0.26643083991E+02  0.26643083991E+02  0.00000000000E+00 0.  1.
         13   -1    0    0    0    0 -0.00000000000E+00 -0.00000000000E+00 -0.10000000000E+04  0.10000000000E+04  0.00000000000E+00 0.  1.
    9000005    2    1    2  501    0  0.41837548402E+01  0.57550264294E+01 -0.95228092054E+03  0.10043984955E+04  0.31925970922E+03 0.  0.
         13    1    3    3    0    0 -0.16712880843E+02  0.14994371432E+03 -0.29709122826E+03  0.33320509563E+03  0.00000000000E+00 0.  1.
          1    1    3    3  501    0  0.20896635683E+02 -0.14418868789E+03 -0.65518969229E+03  0.67119339983E+03  0.00000000000E+00 0.  1.
         21    1    1    2  502  501 -0.41837548402E+01 -0.57550264294E+01 -0.21075995465E+02  0.22244588524E+02  0.00000000000E+00 0. -1.
<mgrwt>
<rscale>  1 0.30000000E+03</rscale>
<asrwt>0</asrwt>
<pdfrwt beam="1">  1        3 0.96884146E-01 0.30000000E+03</pdfrwt>
<pdfrwt beam="2">0</pdfrwt>
<totfact> 0.42511450E+00</totfact>
</mgrwt>
</event>
<event>
 6    1  0.1969531E-004  0.3000000E+03  0.7818608E-02  0.1093470E+00
          1   -1    0    0  502    0  0.00000000000E+00  0.00000000000E+00  0.55748727168E+02  0.55748727168E+02  0.00000000000E+00 0.  1.
         13   -1    0    0    0    0 -0.00000000000E+00 -0.00000000000E+00 -0.10000000000E+04  0.10000000000E+04  0.00000000000E+00 0.  1.
    9000005    2    1    2  501    0 -0.16612841687E+02 -0.84967684833E+02 -0.89005259746E+03  0.95360671629E+03  0.33117465048E+03 0.  0.
         13    1    3    3    0    0  0.96149053214E+02  0.82090011121E+02 -0.21827479800E+03  0.25224451986E+03  0.00000000000E+00 0.  1.
          3    1    3    3  501    0 -0.11276189490E+03 -0.16705769595E+03 -0.67177779947E+03  0.70136219643E+03  0.00000000000E+00 0.  1.
         21    1    1    2  502  501  0.16612841687E+02  0.84967684833E+02 -0.54198675368E+02  0.10214201088E+03  0.00000000000E+00 0. -1.
<mgrwt>
<rscale>  1 0.30000000E+03</rscale>
<asrwt>0</asrwt>
<pdfrwt beam="1">  1        1 0.20272307E+00 0.30000000E+03</pdfrwt>
<pdfrwt beam="2">0</pdfrwt>
<totfact> 0.99428552E+00</totfact>
</mgrwt>
</event>
<event>
 6    1  0.1969531E-004  0.3000000E+03  0.7818608E-02  0.1093470E+00
          3   -1    0    0  502    0  0.00000000000E+00  0.00000000000E+00  0.41447513293E+02  0.41447513293E+02  0.00000000000E+00 0.  1.
         13   -1    0    0    0    0 -0.00000000000E+00 -0.00000000000E+00 -0.10000000000E+04  0.10000000000E+04  0.00000000000E+00 0.  1.
    9000005    2    1    2  501    0  0.35548311542E+02  0.36190005962E+02 -0.89363040790E+03  0.95905652288E+03  0.34444260649E+03 0.  0.
         13    1    3    3    0    0  0.18433030637E+03  0.19382311809E+02 -0.62034623496E+03  0.64744326940E+03  0.00000000000E+00 0.  1.
          1    1    3    3  501    0 -0.14878199482E+03  0.16807694153E+02 -0.27328417294E+03  0.31161325348E+03  0.00000000000E+00 0.  1.
         21    1    1    2  502  501 -0.35548311542E+02 -0.36190005962E+02 -0.64922078807E+02  0.82390990416E+02  0.00000000000E+00 0.  1.
<mgrwt>
<rscale>  1 0.30000000E+03</rscale>
<asrwt>0</asrwt>
<pdfrwt beam="1">  1        3 0.15071855E+00 0.30000000E+03</pdfrwt>
<pdfrwt beam="2">0</pdfrwt>
<totfact> 0.96759004E-01</totfact>
</mgrwt>
</event>
<event>
 6    1  0.1969531E-004  0.3000000E+03  0.7818608E-02  0.1093470E+00
          1   -1    0    0  502    0  0.00000000000E+00  0.00000000000E+00  0.26409079981E+02  0.26409079981E+02  0.00000000000E+00 0.  1.
         13   -1    0    0    0    0 -0.00000000000E+00 -0.00000000000E+00 -0.10000000000E+04  0.10000000000E+04  0.00000000000E+00 0.  1.
    9000005    2    1    2  501    0 -0.24303876861E+02 -0.24173726612E+00 -0.94803254052E+03  0.99113915469E+03  0.28809788129E+03 0.  0.
         13    1    3    3    0    0 -0.76608052751E+01  0.43004939605E+02 -0.94357618877E+03  0.94458675451E+03  0.00000000000E+00 0.  1.
          1    1    3    3  501    0 -0.16643071586E+02 -0.43246676871E+02 -0.44563517501E+01  0.46552400186E+02  0.00000000000E+00 0.  1.
         21    1    1    2  502  501  0.24303876861E+02  0.24173726612E+00 -0.25558379495E+02  0.35269925288E+02  0.00000000000E+00 0. -1.
<mgrwt>
<rscale>  1 0.30000000E+03</rscale>
<asrwt>0</asrwt>
<pdfrwt beam="1">  1        1 0.96033221E-01 0.30000000E+03</pdfrwt>
<pdfrwt beam="2">0</pdfrwt>
<totfact> 0.36300428E+01</totfact>
</mgrwt>
</event>
<event>
 6    1  0.1969531E-004  0.3000000E+03  0.7818608E-02  0.1093470E+00
          1   -1    0    0  502    0  0.00000000000E+00  0.00000000000E+00  0.28613449852E+02  0.28613449852E+02  0.00000000000E+00 0.  1.
         13   -1    0    0    0    0 -0.00000000000E+00 -0.00000000000E+00 -0.10000000000E+04  0.10000000000E+04  0.00000000000E+00 0.  1.
    9000005    2    1    2  501    0  0.94930272128E+01  0.95660078731E+01 -0.94736472679E+03  0.10010694111E+04  0.32320026956E+03 0.  0.
         13    1    3    3    0    0  0.12483599395E+03  0.41055898119E+02 -0.17157102020E+03  0.21611623522E+03  0.00000000000E+00 0.  1.
          1    1    3    3  501    0 -0.11534296673E+03 -0.31489890246E+02 -0.77579370659E+03  0.78495317589E+03  0.00000000000E+00 0.  1.
         21    1    1    2  502  501 -0.94930272128E+01 -0.95660078731E+01 -0.24021823363E+02  0.27544038737E+02  0.00000000000E+00 0. -1.
<mgrwt>
<rscale>  1 0.30000000E+03</rscale>
<asrwt>0</asrwt>
<pdfrwt beam="1">  1        1 0.10404913E+00 0.30000000E+03</pdfrwt>
<pdfrwt beam="2">0</pdfrwt>
<totfact> 0.32285356E+01</totfact>
</mgrwt>
</event>
<event>
 6    1  0.1969531E-004  0.3000000E+03  0.7818608E-02  0.1093470E+00
          1   -1    0    0  502    0  0.00000000000E+00  0.00000000000E+00  0.40358788059E+02  0.40358788059E+02  0.00000000000E+00 0.  1.
         13   -1    0    0    0    0 -0.00000000000E+00 -0.00000000000E+00 -0.10000000000E+04  0.10000000000E+04  0.00000000000E+00 0.  1.
    9000005    2    1    2  501    0 -0.94549956805E+00  0.10153024204E+02 -0.96659250451E+03  0.10280178668E+04  0.34987953178E+03 0.  0.
         13    1    3    3    0    0  0.63667030865E+02  0.68229087373E+02 -0.92846425082E+03  0.93314230653E+03  0.00000000000E+00 0.  1.
          1    1    3    3  501    0 -0.64612530433E+02 -0.58076063169E+02 -0.38128253689E+02  0.94875560244E+02  0.00000000000E+00 0.  1.
         21    1    1    2  502  501  0.94549956805E+00 -0.10153024204E+02  0.69512925661E+01  0.12340921289E+02  0.00000000000E+00 0.  1.
<mgrwt>
<rscale>  1 0.30000000E+03</rscale>
<asrwt>0</asrwt>
<pdfrwt beam="1">  1        1 0.14675954E+00 0.30000000E+03</pdfrwt>
<pdfrwt beam="2">0</pdfrwt>
<totfact> 0.18662950E+01</totfact>
</mgrwt>
</event>
<event>
 6    1  0.1969531E-004  0.3000000E+03  0.7818608E-02  0.1093470E+00
          1   -1    0    0  502    0  0.00000000000E+00  0.00000000000E+00  0.32461802015E+02  0.32461802015E+02  0.00000000000E+00 0.  1.
         13   -1    0    0    0    0 -0.00000000000E+00 -0.00000000000E+00 -0.10000000000E+04  0.10000000000E+04  0.00000000000E+00 0.  1.
    9000005    2    1    2  501    0 -0.95961044882E+01  0.35930752382E+01 -0.95347877966E+03  0.10150645995E+04  0.34803643850E+03 0.  0.
         13    1    3    3    0    0  0.62798484870E+02  0.23599112025E+02 -0.90963537935E+01  0.67700158365E+02  0.00000000000E+00 0.  1.
          1    1    3    3  501    0 -0.72394589358E+02 -0.20006036787E+02 -0.94438242587E+03  0.94736444116E+03  0.00000000000E+00 0.  1.
         21    1    1    2  502  501  0.95961044882E+01 -0.35930752382E+01 -0.14059418322E+02  0.17397202493E+02  0.00000000000E+00 0. -1.
<mgrwt>
<rscale>  1 0.30000000E+03</rscale>
<asrwt>0</asrwt>
<pdfrwt beam="1">  1        1 0.11804317E+00 0.30000000E+03</pdfrwt>
<pdfrwt beam="2">0</pdfrwt>
<totfact> 0.26669849E+01</totfact>
</mgrwt>
</event>
<event>
 6    1  0.1969531E-004  0.3000000E+03  0.7818608E-02  0.1093470E+00
          1   -1    0    0  502    0  0.00000000000E+00  0.00000000000E+00  0.25040060415E+02  0.25040060415E+02  0.00000000000E+00 0.  1.
         13   -1    0    0    0    0 -0.00000000000E+00 -0.00000000000E+00 -0.10000000000E+04  0.10000000000E+04  0.00000000000E+00 0.  1.
    9000005    2    1    2  501    0  0.68441811004E+01 -0.87180172817E+01 -0.95914752998E+03  0.10057299869E+04  0.30233421195E+03 0.  0.
         13    1    3    3    0    0  0.54750676895E+02 -0.12402190407E+03 -0.23843276052E+03  0.27427951181E+03  0.00000000000E+00 0.  1.
          1    1    3    3  501    0 -0.47906495795E+02  0.11530388678E+03 -0.72071476946E+03  0.73145047513E+03  0.00000000000E+00 0.  1.
         21    1    1    2  502  501 -0.68441811004E+01  0.87180172817E+01 -0.15812409609E+02  0.19310073482E+02  0.00000000000E+00 0. -1.
<mgrwt>
<rscale>  1 0.30000000E+03</rscale>
<asrwt>0</asrwt>
<pdfrwt beam="1">  1        1 0.91054957E-01 0.30000000E+03</pdfrwt>
<pdfrwt beam="2">0</pdfrwt>
<totfact> 0.39178129E+01</totfact>
</mgrwt>
</event>
<event>
 6    1  0.1969531E-004  0.3000000E+03  0.7818608E-02  0.1093470E+00
          1   -1    0    0  502    0  0.00000000000E+00  0.00000000000E+00  0.34215857043E+02  0.34215857043E+02  0.00000000000E+00 0.  1.
         13   -1    0    0    0    0 -0.00000000000E+00 -0.00000000000E+00 -0.10000000000E+04  0.10000000000E+04  0.00000000000E+00 0.  1.
    9000005    2    1    2  501    0  0.19705142921E+02  0.74539937750E+01 -0.95557341953E+03  0.10108040320E+04  0.32887744867E+03 0.  0.
         13    1    3    3    0    0 -0.11479103934E+03 -0.10386810285E+03 -0.46448707916E+03  0.48960577224E+03  0.00000000000E+00 0.  1.
          3    1    3    3  501    0  0.13449618227E+03  0.11132209663E+03 -0.49108634036E+03  0.52119825972E+03  0.00000000000E+00 0.  1.
         21    1    1    2  502  501 -0.19705142921E+02 -0.74539937750E+01 -0.10210723431E+02  0.23411825083E+02  0.00000000000E+00 0.  1.
<mgrwt>
<rscale>  1 0.30000000E+03</rscale>
<asrwt>0</asrwt>
<pdfrwt beam="1">  1        1 0.12442156E+00 0.30000000E+03</pdfrwt>
<pdfrwt beam="2">0</pdfrwt>
<totfact> 0.24554748E+01</totfact>
</mgrwt>
</event>
<event>
 6    1  0.1969531E-004  0.3000000E+03  0.7818608E-02  0.1093470E+00
          1   -1    0    0  502    0  0.00000000000E+00  0.00000000000E+00  0.35721656418E+02  0.35721656418E+02  0.00000000000E+00 0.  1.
         13   -1    0    0    0    0 -0.00000000000E+00 -0.00000000000E+00 -0.10000000000E+04  0.10000000000E+04  0.00000000000E+00 0.  1.
    9000005    2    1    2  501    0  0.19635550570E+02 -0.26419217243E+02 -0.93512999239E+03  0.99175398349E+03  0.32867055117E+03 0.  0.
         13    1    3    3    0    0 -0.10869672709E+03 -0.12578591549E+03 -0.42190982217E+03  0.45348095115E+03  0.00000000000E+00 0.  1.
          1    1    3    3  501    0  0.12833227766E+03  0.99366698252E+02 -0.51322017023E+03  0.53827303233E+03  0.00000000000E+00 0.  1.
         21    1    1    2  502  501 -0.19635550570E+02  0.26419217243E+02 -0.29148351192E+02  0.43967672932E+02  0.00000000000E+00 0. -1.
<mgrwt>
<rscale>  1 0.30000000E+03</rscale>
<asrwt>0</asrwt>
<pdfrwt beam="1">  1        1 0.12989721E+00 0.30000000E+03</pdfrwt>
<pdfrwt beam="2">0</pdfrwt>
<totfact> 0.22909290E+01</totfact>
</mgrwt>
</event>
<event>
 6    1  0.1969531E-004  0.3000000E+03  0.7818608E-02  0.1093470E+00
          1   -1    0    0  502    0  0.00000000000E+00  0.00000000000E+00  0.47183232279E+02  0.47183232279E+02  0.00000000000E+00 0.  1.
         13   -1    0    0    0    0 -0.00000000000E+00 -0.00000000000E+00 -0.10000000000E+04  0.10000000000E+04  0.00000000000E+00 0.  1.
    9000005    2    1    2  501    0 -0.42466079852E+01 -0.99276392703E+01 -0.97052112541E+03  0.10264459233E+04  0.33401105814E+03 0.  0.
         13    1    3    3    0    0 -0.12363020403E+03  0.42975305599E+02 -0.80523181219E+03  0.81579996053E+03  0.00000000000E+00 0.  1.
          1    1    3    3  501    0  0.11938359605E+03 -0.52902944869E+02 -0.16528931323E+03  0.21064596281E+03  0.00000000000E+00 0.  1.
         21    1    1    2  502  501  0.42466079852E+01  0.99276392703E+01  0.17704357692E+02  0.20737308942E+02  0.00000000000E+00 0.  1.
<mgrwt>
<rscale>  1 0.30000000E+03</rscale>
<asrwt>0</asrwt>
<pdfrwt beam="1">  1        1 0.17157575E+00 0.30000000E+03</pdfrwt>
<pdfrwt beam="2">0</pdfrwt>
<totfact> 0.14036339E+01</totfact>
</mgrwt>
</event>
<event>
 6    1  0.1969531E-004  0.3000000E+03  0.7818608E-02  0.1093470E+00
          1   -1    0    0  502    0  0.00000000000E+00  0.00000000000E+00  0.42036046869E+02  0.42036046869E+02  0.00000000000E+00 0.  1.
         13   -1    0    0    0    0 -0.00000000000E+00 -0.00000000000E+00 -0.10000000000E+04  0.10000000000E+04  0.00000000000E+00 0.  1.
    9000005    2    1    2  501    0  0.19525572698E+02  0.81448371065E+01 -0.96597170062E+03  0.10194150305E+04  0.32505090631E+03 0.  0.
         13    1    3    3    0    0  0.14015734432E+03 -0.89829855862E+02 -0.42102273072E+03  0.45274012850E+03  0.00000000000E+00 0.  1.
          3    1    3    3  501    0 -0.12063177162E+03  0.97974692968E+02 -0.54494896990E+03  0.56667490202E+03  0.00000000000E+00 0.  1.
         21    1    1    2  502  501 -0.19525572698E+02 -0.81448371065E+01  0.80077474909E+01  0.22621016347E+02  0.00000000000E+00 0.  1.
<mgrwt>
<rscale>  1 0.30000000E+03</rscale>
<asrwt>0</asrwt>
<pdfrwt beam="1">  1        1 0.15285867E+00 0.30000000E+03</pdfrwt>
<pdfrwt beam="2">0</pdfrwt>
<totfact> 0.17375850E+01</totfact>
</mgrwt>
</event>
<event>
 6    1  0.1969531E-004  0.3000000E+03  0.7818608E-02  0.1093470E+00
          1   -1    0    0  502    0  0.00000000000E+00  0.00000000000E+00  0.30268342176E+02  0.30268342176E+02  0.00000000000E+00 0.  1.
         13   -1    0    0    0    0 -0.00000000000E+00 -0.00000000000E+00 -0.10000000000E+04  0.10000000000E+04  0.00000000000E+00 0.  1.
    9000005    2    1    2  501    0  0.20841615695E+02  0.15660790886E+02 -0.90870169518E+03  0.96390351975E+03  0.32045528742E+03 0.  0.
         13    1    3    3    0    0 -0.49065997757E+02 -0.12687250688E+03 -0.61682449647E+03  0.63164591709E+03  0.00000000000E+00 0.  1.
          3    1    3    3  501    0  0.69907613452E+02  0.14253329777E+03 -0.29187719872E+03  0.33225760265E+03  0.00000000000E+00 0.  1.
         21    1    1    2  502  501 -0.20841615695E+02 -0.15660790886E+02 -0.61029962640E+02  0.66364822427E+02  0.00000000000E+00 0.  1.
<mgrwt>
<rscale>  1 0.30000000E+03</rscale>
<asrwt>0</asrwt>
<pdfrwt beam="1">  1        1 0.11006693E+00 0.30000000E+03</pdfrwt>
<pdfrwt beam="2">0</pdfrwt>
<totfact> 0.29682369E+01</totfact>
</mgrwt>
</event>
<event>
 6    1  0.1969531E-004  0.3000000E+03  0.7818608E-02  0.1093470E+00
          1   -1    0    0  502    0  0.00000000000E+00  0.00000000000E+00  0.32905523434E+02  0.32905523434E+02  0.00000000000E+00 0.  1.
         13   -1    0    0    0    0 -0.00000000000E+00 -0.00000000000E+00 -0.10000000000E+04  0.10000000000E+04  0.00000000000E+00 0.  1.
    9000005    2    1    2  501    0 -0.18525365371E+02 -0.52427328429E+00 -0.94934393721E+03  0.10072433787E+04  0.33606822046E+03 0.  0.
         13    1    3    3    0    0 -0.14180475517E+03  0.87330665071E+02 -0.66004845129E+03  0.68073430331E+03  0.00000000000E+00 0.  1.
          1    1    3    3  501    0  0.12327938980E+03 -0.87854938355E+02 -0.28929548592E+03  0.32650907539E+03  0.00000000000E+00 0.  1.
         21    1    1    2  502  501  0.18525365371E+02  0.52427328429E+00 -0.17750539356E+02  0.25662144728E+02  0.00000000000E+00 0.  1.
<mgrwt>
<rscale>  1 0.30000000E+03</rscale>
<asrwt>0</asrwt>
<pdfrwt beam="1">  1        1 0.11965670E+00 0.30000000E+03</pdfrwt>
<pdfrwt beam="2">0</pdfrwt>
<totfact> 0.26112559E+01</totfact>
</mgrwt>
</event>
<event>
 6    1  0.1969531E-004  0.3000000E+03  0.7818608E-02  0.1093470E+00
          1   -1    0    0  502    0  0.00000000000E+00  0.00000000000E+00  0.30347659732E+02  0.30347659732E+02  0.00000000000E+00 0.  1.
         13   -1    0    0    0    0 -0.00000000000E+00 -0.00000000000E+00 -0.10000000000E+04  0.10000000000E+04  0.00000000000E+00 0.  1.
    9000005    2    1    2  501    0 -0.14225472269E+02  0.50979111088E+01 -0.96885745493E+03  0.10152154226E+04  0.30290135932E+03 0.  0.
         13    1    3    3    0    0 -0.69461065639E+02 -0.12437588999E+03 -0.30542790184E+03  0.33701692075E+03  0.00000000000E+00 0.  1.
          1    1    3    3  501    0  0.55235593370E+02  0.12947380110E+03 -0.66342955310E+03  0.67819850182E+03  0.00000000000E+00 0.  1.
         21    1    1    2  502  501  0.14225472269E+02 -0.50979111088E+01 -0.79488533360E+00  0.15132237166E+02  0.00000000000E+00 0.  1.
<mgrwt>
<rscale>  1 0.30000000E+03</rscale>
<asrwt>0</asrwt>
<pdfrwt beam="1">  1        1 0.11035536E+00 0.30000000E+03</pdfrwt>
<pdfrwt beam="2">0</pdfrwt>
<totfact> 0.29565246E+01</totfact>
</mgrwt>
</event>
<event>
 6    1  0.1969531E-004  0.3000000E+03  0.7818608E-02  0.1093470E+00
          1   -1    0    0  502    0  0.00000000000E+00  0.00000000000E+00  0.46630968078E+02  0.46630968078E+02  0.00000000000E+00 0.  1.
         13   -1    0    0    0    0 -0.00000000000E+00 -0.00000000000E+00 -0.10000000000E+04  0.10000000000E+04  0.00000000000E+00 0.  1.
    9000005    2    1    2  501    0 -0.57492957371E+01 -0.42331373872E+02 -0.94905722699E+03  0.10036939063E+04  0.32383149593E+03 0.  0.
         13    1    3    3    0    0  0.11386502203E+03  0.76760417279E+02 -0.25741292695E+03  0.29175129796E+03  0.00000000000E+00 0.  1.
          3    1    3    3  501    0 -0.11961431777E+03 -0.11909179115E+03 -0.69164430004E+03  0.71194260830E+03  0.00000000000E+00 0.  1.
         21    1    1    2  502  501  0.57492957371E+01  0.42331373872E+02 -0.43118049320E+01  0.42937061813E+02  0.00000000000E+00 0.  1.
<mgrwt>
<rscale>  1 0.30000000E+03</rscale>
<asrwt>0</asrwt>
<pdfrwt beam="1">  1        1 0.16956751E+00 0.30000000E+03</pdfrwt>
<pdfrwt beam="2">0</pdfrwt>
<totfact> 0.14356921E+01</totfact>
</mgrwt>
</event>
<event>
 6    1  0.1969531E-004  0.3000000E+03  0.7818608E-02  0.1093470E+00
          1   -1    0    0  502    0  0.00000000000E+00  0.00000000000E+00  0.42090772303E+02  0.42090772303E+02  0.00000000000E+00 0.  1.
         13   -1    0    0    0    0 -0.00000000000E+00 -0.00000000000E+00 -0.10000000000E+04  0.10000000000E+04  0.00000000000E+00 0.  1.
    9000005    2    1    2  501    0 -0.16904604725E+02  0.34482405743E+02 -0.94996601849E+03  0.10028747483E+04  0.31913558640E+03 0.  0.
         13    1    3    3    0    0  0.77949440335E+02  0.62520056142E+02 -0.81921296727E+02  0.12921289226E+03  0.00000000000E+00 0.  1.
          1    1    3    3  501    0 -0.94854045061E+02 -0.28037650399E+02 -0.86804472176E+03  0.87366185603E+03  0.00000000000E+00 0.  1.
         21    1    1    2  502  501  0.16904604725E+02 -0.34482405743E+02 -0.79432092069E+01  0.39216024012E+02  0.00000000000E+00 0.  1.
<mgrwt>
<rscale>  1 0.30000000E+03</rscale>
<asrwt>0</asrwt>
<pdfrwt beam="1">  1        1 0.15305768E+00 0.30000000E+03</pdfrwt>
<pdfrwt beam="2">0</pdfrwt>
<totfact> 0.17335727E+01</totfact>
</mgrwt>
</event>
<event>
 6    1  0.1969531E-004  0.3000000E+03  0.7818608E-02  0.1093470E+00
          1   -1    0    0  502    0  0.00000000000E+00  0.00000000000E+00  0.31329225387E+02  0.31329225387E+02  0.00000000000E+00 0.  1.
         13   -1    0    0    0    0 -0.00000000000E+00 -0.00000000000E+00 -0.10000000000E+04  0.10000000000E+04  0.00000000000E+00 0.  1.
    9000005    2    1    2  501    0 -0.17344372184E+02  0.96775251339E+01 -0.94062389702E+03  0.99696195779E+03  0.32979591857E+03 0.  0.
         13    1    3    3    0    0  0.12412041296E+03  0.25739583498E+02 -0.74102339387E+03  0.75178725271E+03  0.00000000000E+00 0.  1.
          1    1    3    3  501    0 -0.14146478515E+03 -0.16062058364E+02 -0.19960050314E+03  0.24517470508E+03  0.00000000000E+00 0.  1.
         21    1    1    2  502  501  0.17344372184E+02 -0.96775251339E+01 -0.28046877597E+02  0.34367267597E+02  0.00000000000E+00 0.  1.
<mgrwt>
<rscale>  1 0.30000000E+03</rscale>
<asrwt>0</asrwt>
<pdfrwt beam="1">  1        1 0.11392470E+00 0.30000000E+03</pdfrwt>
<pdfrwt beam="2">0</pdfrwt>
<totfact> 0.28168532E+01</totfact>
</mgrwt>
</event>
<event>
 6    1  0.1969531E-004  0.3000000E+03  0.7818608E-02  0.1093470E+00
          1   -1    0    0  502    0  0.00000000000E+00  0.00000000000E+00  0.31890998551E+02  0.31890998551E+02  0.00000000000E+00 0.  1.
         13   -1    0    0    0    0 -0.00000000000E+00 -0.00000000000E+00 -0.10000000000E+04  0.10000000000E+04  0.00000000000E+00 0.  1.
    9000005    2    1    2  501    0  0.11938508928E+02 -0.54550130670E+01 -0.96150240397E+03  0.10171963637E+04  0.33170662389E+03 0.  0.
         13    1    3    3    0    0 -0.14862066678E+03  0.57346705144E+02 -0.48193510880E+03  0.50758072883E+03  0.00000000000E+00 0.  1.
          1    1    3    3  501    0  0.16055917571E+03 -0.62801718211E+02 -0.47956729517E+03  0.50961563488E+03  0.00000000000E+00 0.  1.
         21    1    1    2  502  501 -0.11938508928E+02  0.54550130670E+01 -0.66065974784E+01  0.14694634845E+02  0.00000000000E+00 0. -1.
<mgrwt>
<rscale>  1 0.30000000E+03</rscale>
<asrwt>0</asrwt>
<pdfrwt beam="1">  1        1 0.11596751E+00 0.30000000E+03</pdfrwt>
<pdfrwt beam="2">0</pdfrwt>
<totfact> 0.27410925E+01</totfact>
</mgrwt>
</event>
<event>
 6    1  0.1969531E-004  0.3000000E+03  0.7818608E-02  0.1093470E+00
          1   -1    0    0  502    0  0.00000000000E+00  0.00000000000E+00  0.23046893808E+02  0.23046893808E+02  0.00000000000E+00 0.  1.
         13   -1    0    0    0    0 -0.00000000000E+00 -0.00000000000E+00 -0.10000000000E+04  0.10000000000E+04  0.00000000000E+00 0.  1.
    9000005    2    1    2  501    0 -0.18476096004E+02 -0.39915101167E+01 -0.93994174694E+03  0.98148803205E+03  0.28190596153E+03 0.  0.
         13    1    3    3    0    0 -0.61939149562E+02 -0.45924328601E+02 -0.91145913967E+03  0.91471485475E+03  0.00000000000E+00 0.  1.
          1    1    3    3  501    0  0.43463053558E+02  0.41932818485E+02 -0.28482607267E+02  0.66773177305E+02  0.00000000000E+00 0.  1.
         21    1    1    2  502  501  0.18476096004E+02  0.39915101167E+01 -0.37011359256E+02  0.41558861757E+02  0.00000000000E+00 0. -1.
<mgrwt>
<rscale>  1 0.30000000E+03</rscale>
<asrwt>0</asrwt>
<pdfrwt beam="1">  1        1 0.83807063E-01 0.30000000E+03</pdfrwt>
<pdfrwt beam="2">0</pdfrwt>
<totfact> 0.44029855E+01</totfact>
</mgrwt>
</event>
<event>
 6    1  0.1969531E-004  0.3000000E+03  0.7818608E-02  0.1093470E+00
          1   -1    0    0  502    0  0.00000000000E+00  0.00000000000E+00  0.48882242772E+02  0.48882242772E+02  0.00000000000E+00 0.  1.
         13   -1    0    0    0    0 -0.00000000000E+00 -0.00000000000E+00 -0.10000000000E+04  0.10000000000E+04  0.00000000000E+00 0.  1.
    9000005    2    1    2  501    0  0.13483461566E+02 -0.65761805994E+01 -0.96990172886E+03  0.10248429525E+04  0.33070933420E+03 0.  0.
         13    1    3    3    0    0  0.14046825960E+03  0.14455126475E+02 -0.20341890632E+03  0.24762781364E+03  0.00000000000E+00 0.  1.
          1    1    3    3  501    0 -0.12698479804E+03 -0.21031307075E+02 -0.76648282254E+03  0.77721513885E+03  0.00000000000E+00 0.  1.
         21    1    1    2  502  501 -0.13483461566E+02  0.65761805994E+01  0.18783971634E+02  0.24039290285E+02  0.00000000000E+00 0.  1.
<mgrwt>
<rscale>  1 0.30000000E+03</rscale>
<asrwt>0</asrwt>
<pdfrwt beam="1">  1        1 0.17775398E+00 0.30000000E+03</pdfrwt>
<pdfrwt beam="2">0</pdfrwt>
<totfact> 0.13098402E+01</totfact>
</mgrwt>
</event>
<event>
 6    1  0.1969531E-004  0.3000000E+03  0.7818608E-02  0.1093470E+00
          1   -1    0    0  502    0  0.00000000000E+00  0.00000000000E+00  0.68900775346E+02  0.68900775346E+02  0.00000000000E+00 0.  1.
         13   -1    0    0    0    0 -0.00000000000E+00 -0.00000000000E+00 -0.10000000000E+04  0.10000000000E+04  0.00000000000E+00 0.  1.
    9000005    2    1    2  501    0  0.61749456929E+02  0.14840180474E+03 -0.69280065646E+03  0.78145982717E+03  0.32383733698E+03 0.  0.
         13    1    3    3    0    0 -0.86231665445E+02 -0.38578137073E+02 -0.35910286889E+03  0.37132067439E+03  0.00000000000E+00 0.  1.
          1    1    3    3  501    0  0.14798112237E+03  0.18697994181E+03 -0.33369778757E+03  0.41013915279E+03  0.00000000000E+00 0.  1.
         21    1    1    2  502  501 -0.61749456929E+02 -0.14840180474E+03 -0.23829856820E+03  0.28744094817E+03  0.00000000000E+00 0.  1.
<mgrwt>
<rscale>  1 0.30000000E+03</rscale>
<asrwt>0</asrwt>
<pdfrwt beam="1">  1        1 0.25054880E+00 0.30000000E+03</pdfrwt>
<pdfrwt beam="2">0</pdfrwt>
<totfact> 0.59310757E+00</totfact>
</mgrwt>
</event>
<event>
 6    1  0.1969531E-004  0.3000000E+03  0.7818608E-02  0.1093470E+00
          1   -1    0    0  502    0  0.00000000000E+00  0.00000000000E+00  0.39386609808E+02  0.39386609808E+02  0.00000000000E+00 0.  1.
         13   -1    0    0    0    0 -0.00000000000E+00 -0.00000000000E+00 -0.10000000000E+04  0.10000000000E+04  0.00000000000E+00 0.  1.
    9000005    2    1    2  501    0 -0.17198860304E+02 -0.19893202089E+02 -0.95557556274E+03  0.10126112482E+04  0.33401398705E+03 0.  0.
         13    1    3    3    0    0 -0.15715224459E+02  0.78620317859E+02 -0.89146769998E+03  0.89506579801E+03  0.00000000000E+00 0.  1.
          3    1    3    3  501    0 -0.14836358452E+01 -0.98513519948E+02 -0.64107862761E+02  0.11754545017E+03  0.00000000000E+00 0.  1.
         21    1    1    2  502  501  0.17198860304E+02  0.19893202089E+02 -0.50378274564E+01  0.26775361633E+02  0.00000000000E+00 0. -1.
<mgrwt>
<rscale>  1 0.30000000E+03</rscale>
<asrwt>0</asrwt>
<pdfrwt beam="1">  1        1 0.14322434E+00 0.30000000E+03</pdfrwt>
<pdfrwt beam="2">0</pdfrwt>
<totfact> 0.19463680E+01</totfact>
</mgrwt>
</event>
<event>
 6    1  0.1969531E-004  0.3000000E+03  0.7818608E-02  0.1093470E+00
          1   -1    0    0  502    0  0.00000000000E+00  0.00000000000E+00  0.32046026472E+02  0.32046026472E+02  0.00000000000E+00 0.  1.
         13   -1    0    0    0    0 -0.00000000000E+00 -0.00000000000E+00 -0.10000000000E+04  0.10000000000E+04  0.00000000000E+00 0.  1.
    9000005    2    1    2  501    0  0.81169594898E+01 -0.64620286860E+01 -0.96810535432E+03  0.10216698151E+04  0.32630291325E+03 0.  0.
         13    1    3    3    0    0  0.99033250294E+02  0.75463367930E+02 -0.15221208413E+03  0.19664898454E+03  0.00000000000E+00 0.  1.
          1    1    3    3  501    0 -0.90916290804E+02 -0.81925396616E+02 -0.81589327019E+03  0.82502083057E+03  0.00000000000E+00 0.  1.
         21    1    1    2  502  501 -0.81169594898E+01  0.64620286860E+01  0.15138079198E+00  0.10376211363E+02  0.00000000000E+00 0.  1.
<mgrwt>
<rscale>  1 0.30000000E+03</rscale>
<asrwt>0</asrwt>
<pdfrwt beam="1">  1        1 0.11653125E+00 0.30000000E+03</pdfrwt>
<pdfrwt beam="2">0</pdfrwt>
<totfact> 0.27206870E+01</totfact>
</mgrwt>
</event>
<event>
 6    1  0.1969531E-004  0.3000000E+03  0.7818608E-02  0.1093470E+00
          1   -1    0    0  502    0  0.00000000000E+00  0.00000000000E+00  0.34981836724E+02  0.34981836724E+02  0.00000000000E+00 0.  1.
         13   -1    0    0    0    0 -0.00000000000E+00 -0.00000000000E+00 -0.10000000000E+04  0.10000000000E+04  0.00000000000E+00 0.  1.
    9000005    2    1    2  501    0  0.34025267335E+01  0.27880644257E+02 -0.94440518049E+03  0.10001421672E+04  0.32801570417E+03 0.  0.
         13    1    3    3    0    0 -0.26332531034E+02  0.11778865330E+03 -0.11959396644E+03  0.16991258295E+03  0.00000000000E+00 0.  1.
          3    1    3    3  501    0  0.29735057767E+02 -0.89908009044E+02 -0.82481121406E+03  0.83022958426E+03  0.00000000000E+00 0.  1.
         21    1    1    2  502  501 -0.34025267335E+01 -0.27880644257E+02 -0.20612982783E+02  0.34839669510E+02  0.00000000000E+00 0.  1.
<mgrwt>
<rscale>  1 0.30000000E+03</rscale>
<asrwt>0</asrwt>
<pdfrwt beam="1">  1        1 0.12720695E+00 0.30000000E+03</pdfrwt>
<pdfrwt beam="2">0</pdfrwt>
<totfact> 0.23699457E+01</totfact>
</mgrwt>
</event>
<event>
 6    1  0.1969531E-004  0.3000000E+03  0.7818608E-02  0.1093470E+00
          1   -1    0    0  502    0  0.00000000000E+00  0.00000000000E+00  0.30322646258E+02  0.30322646258E+02  0.00000000000E+00 0.  1.
         13   -1    0    0    0    0 -0.00000000000E+00 -0.00000000000E+00 -0.10000000000E+04  0.10000000000E+04  0.00000000000E+00 0.  1.
    9000005    2    1    2  501    0  0.49486566261E+01 -0.92164134662E+01 -0.96654722896E+03  0.10194034356E+04  0.32382153616E+03 0.  0.
         13    1    3    3    0    0 -0.53607127931E+02  0.33261982897E+02 -0.14656758769E+02  0.64768080478E+02  0.00000000000E+00 0.  1.
          3    1    3    3  501    0  0.58555784557E+02 -0.42478396363E+02 -0.95189047019E+03  0.95463535515E+03  0.00000000000E+00 0.  1.
         21    1    1    2  502  501 -0.49486566261E+01  0.92164134662E+01 -0.31301247808E+01  0.10919210627E+02  0.00000000000E+00 0.  1.
<mgrwt>
<rscale>  1 0.30000000E+03</rscale>
<asrwt>0</asrwt>
<pdfrwt beam="1">  1        1 0.11026440E+00 0.30000000E+03</pdfrwt>
<pdfrwt beam="2">0</pdfrwt>
<totfact> 0.29602111E+01</totfact>
</mgrwt>
</event>
<event>
 6    1  0.1969531E-004  0.3000000E+03  0.7818608E-02  0.1093470E+00
          1   -1    0    0  502    0  0.00000000000E+00  0.00000000000E+00  0.40145551097E+02  0.40145551097E+02  0.00000000000E+00 0.  1.
         13   -1    0    0    0    0 -0.00000000000E+00 -0.00000000000E+00 -0.10000000000E+04  0.10000000000E+04  0.00000000000E+00 0.  1.
    9000005    2    1    2  501    0 -0.28097483195E+02  0.54025214069E+02 -0.87313765994E+03  0.93418332290E+03  0.32652858260E+03 0.  0.
         13    1    3    3    0    0  0.32363599767E+02  0.16994981806E+03 -0.67483801996E+03  0.69666110587E+03  0.00000000000E+00 0.  1.
          1    1    3    3  501    0 -0.60461082962E+02 -0.11592460399E+03 -0.19829963998E+03  0.23752221703E+03  0.00000000000E+00 0.  1.
         21    1    1    2  502  501  0.28097483195E+02 -0.54025214069E+02 -0.86716788961E+02  0.10596222820E+03  0.00000000000E+00 0.  1.
<mgrwt>
<rscale>  1 0.30000000E+03</rscale>
<asrwt>0</asrwt>
<pdfrwt beam="1">  1        1 0.14598413E+00 0.30000000E+03</pdfrwt>
<pdfrwt beam="2">0</pdfrwt>
<totfact> 0.18834979E+01</totfact>
</mgrwt>
</event>
<event>
 6    1  0.1969531E-004  0.3000000E+03  0.7818608E-02  0.1093470E+00
          1   -1    0    0  502    0  0.00000000000E+00  0.00000000000E+00  0.40338066297E+02  0.40338066297E+02  0.00000000000E+00 0.  1.
         13   -1    0    0    0    0 -0.00000000000E+00 -0.00000000000E+00 -0.10000000000E+04  0.10000000000E+04  0.00000000000E+00 0.  1.
    9000005    2    1    2  501    0  0.17016703592E+02  0.16435679494E+02 -0.95076645640E+03  0.10150629940E+04  0.35473416452E+03 0.  0.
         13    1    3    3    0    0  0.13262962944E+03  0.63843521999E+02 -0.82407410278E+03  0.83711692181E+03  0.00000000000E+00 0.  1.
          1    1    3    3  501    0 -0.11561292585E+03 -0.47407842505E+02 -0.12669235362E+03  0.17794607222E+03  0.00000000000E+00 0.  1.
         21    1    1    2  502  501 -0.17016703592E+02 -0.16435679494E+02 -0.88954773041E+01  0.25275072265E+02  0.00000000000E+00 0.  1.
<mgrwt>
<rscale>  1 0.30000000E+03</rscale>
<asrwt>0</asrwt>
<pdfrwt beam="1">  1        1 0.14668419E+00 0.30000000E+03</pdfrwt>
<pdfrwt beam="2">0</pdfrwt>
<totfact> 0.18679580E+01</totfact>
</mgrwt>
</event>
<event>
 6    1  0.1969531E-004  0.3000000E+03  0.7818608E-02  0.1093470E+00
          1   -1    0    0  502    0  0.00000000000E+00  0.00000000000E+00  0.29284668088E+02  0.29284668088E+02  0.00000000000E+00 0.  1.
         13   -1    0    0    0    0 -0.00000000000E+00 -0.00000000000E+00 -0.10000000000E+04  0.10000000000E+04  0.00000000000E+00 0.  1.
    9000005    2    1    2  501    0  0.19749522572E+01  0.14265842910E+02 -0.96183634875E+03  0.10123657127E+04  0.31551190106E+03 0.  0.
         13    1    3    3    0    0 -0.96760108541E+02 -0.11680650344E+03 -0.47210631059E+03  0.49587361933E+03  0.00000000000E+00 0.  1.
          1    1    3    3  501    0  0.98735060798E+02  0.13107234635E+03 -0.48973003816E+03  0.51649209334E+03  0.00000000000E+00 0.  1.
         21    1    1    2  502  501 -0.19749522572E+01 -0.14265842910E+02 -0.88789831644E+01  0.16918955416E+02  0.00000000000E+00 0. -1.
<mgrwt>
<rscale>  1 0.30000000E+03</rscale>
<asrwt>0</asrwt>
<pdfrwt beam="1">  1        1 0.10648993E+00 0.30000000E+03</pdfrwt>
<pdfrwt beam="2">0</pdfrwt>
<totfact> 0.31191517E+01</totfact>
</mgrwt>
</event>
<event>
 6    1  0.1969531E-004  0.3000000E+03  0.7818608E-02  0.1093470E+00
          1   -1    0    0  502    0  0.00000000000E+00  0.00000000000E+00  0.28456921004E+02  0.28456921004E+02  0.00000000000E+00 0.  1.
         13   -1    0    0    0    0 -0.00000000000E+00 -0.00000000000E+00 -0.10000000000E+04  0.10000000000E+04  0.00000000000E+00 0.  1.
    9000005    2    1    2  501    0 -0.96329148533E+01 -0.19266894762E+02 -0.93488746673E+03  0.98594056894E+03  0.31241034513E+03 0.  0.
         13    1    3    3    0    0 -0.11769340501E+03 -0.11794224517E+03 -0.48023258669E+03  0.50831628746E+03  0.00000000000E+00 0.  1.
          1    1    3    3  501    0  0.10806049016E+03  0.98675350409E+02 -0.45465488004E+03  0.47762428148E+03  0.00000000000E+00 0.  1.
         21    1    1    2  502  501  0.96329148533E+01  0.19266894762E+02 -0.36655612266E+02  0.42516352065E+02  0.00000000000E+00 0. -1.
<mgrwt>
<rscale>  1 0.30000000E+03</rscale>
<asrwt>0</asrwt>
<pdfrwt beam="1">  1        1 0.10347993E+00 0.30000000E+03</pdfrwt>
<pdfrwt beam="2">0</pdfrwt>
<totfact> 0.32548421E+01</totfact>
</mgrwt>
</event>
<event>
 6    1  0.1969531E-004  0.3000000E+03  0.7818608E-02  0.1093470E+00
          3   -1    0    0  502    0  0.00000000000E+00  0.00000000000E+00  0.22549841836E+02  0.22549841836E+02  0.00000000000E+00 0.  1.
         13   -1    0    0    0    0 -0.00000000000E+00 -0.00000000000E+00 -0.10000000000E+04  0.10000000000E+04  0.00000000000E+00 0.  1.
    9000005    2    1    2  501    0 -0.11713652162E+02  0.54579805943E+01 -0.96676786556E+03  0.10057834894E+04  0.27711608117E+03 0.  0.
         13    1    3    3    0    0  0.92897658010E+02 -0.90179996430E+02 -0.56816992790E+03  0.58273447950E+03  0.00000000000E+00 0.  1.
          1    1    3    3  501    0 -0.10461131017E+03  0.95637977024E+02 -0.39859793766E+03  0.42304900989E+03  0.00000000000E+00 0.  1.
         21    1    1    2  502  501  0.11713652162E+02 -0.54579805943E+01 -0.10682292602E+02  0.16766352447E+02  0.00000000000E+00 0.  1.
<mgrwt>
<rscale>  1 0.30000000E+03</rscale>
<asrwt>0</asrwt>
<pdfrwt beam="1">  1        3 0.81999598E-01 0.30000000E+03</pdfrwt>
<pdfrwt beam="2">0</pdfrwt>
<totfact> 0.63372548E+00</totfact>
</mgrwt>
</event>
<event>
 6    1  0.1969531E-004  0.3000000E+03  0.7818608E-02  0.1093470E+00
          1   -1    0    0  502    0  0.00000000000E+00  0.00000000000E+00  0.34935804773E+02  0.34935804773E+02  0.00000000000E+00 0.  1.
         13   -1    0    0    0    0 -0.00000000000E+00 -0.00000000000E+00 -0.10000000000E+04  0.10000000000E+04  0.00000000000E+00 0.  1.
    9000005    2    1    2  501    0  0.14118596949E+02 -0.28003940122E+01 -0.97169189587E+03  0.10190895622E+04  0.30684070525E+03 0.  0.
         13    1    3    3    0    0 -0.13892973470E+03 -0.10977045582E+02 -0.31009818831E+03  0.33997478304E+03  0.00000000000E+00 0.  1.
          3    1    3    3  501    0  0.15304833165E+03  0.81766515702E+01 -0.66159370756E+03  0.67911477920E+03  0.00000000000E+00 0.  1.
         21    1    1    2  502  501 -0.14118596949E+02  0.28003940122E+01  0.66277006406E+01  0.15846242527E+02  0.00000000000E+00 0. -1.
<mgrwt>
<rscale>  1 0.30000000E+03</rscale>
<asrwt>0</asrwt>
<pdfrwt beam="1">  1        1 0.12703956E+00 0.30000000E+03</pdfrwt>
<pdfrwt beam="2">0</pdfrwt>
<totfact> 0.23749773E+01</totfact>
</mgrwt>
</event>
<event>
 6    1  0.1969531E-004  0.3000000E+03  0.7818608E-02  0.1093470E+00
          1   -1    0    0  502    0  0.00000000000E+00  0.00000000000E+00  0.29817232521E+02  0.29817232521E+02  0.00000000000E+00 0.  1.
         13   -1    0    0    0    0 -0.00000000000E+00 -0.00000000000E+00 -0.10000000000E+04  0.10000000000E+04  0.00000000000E+00 0.  1.
    9000005    2    1    2  501    0  0.99299945680E+01 -0.87437375764E+01 -0.95064801792E+03  0.10062235007E+04  0.32951331040E+03 0.  0.
         13    1    3    3    0    0 -0.42723033934E+01  0.16018530452E+03 -0.46615643932E+03  0.49292941714E+03  0.00000000000E+00 0.  1.
          1    1    3    3  501    0  0.14202297961E+02 -0.16892904209E+03 -0.48449157859E+03  0.51329408360E+03  0.00000000000E+00 0.  1.
         21    1    1    2  502  501 -0.99299945680E+01  0.87437375764E+01 -0.19534749563E+02  0.23593731782E+02  0.00000000000E+00 0.  1.
<mgrwt>
<rscale>  1 0.30000000E+03</rscale>
<asrwt>0</asrwt>
<pdfrwt beam="1">  1        1 0.10842653E+00 0.30000000E+03</pdfrwt>
<pdfrwt beam="2">0</pdfrwt>
<totfact> 0.30361201E+01</totfact>
</mgrwt>
</event>
<event>
 6    1  0.1969531E-004  0.3000000E+03  0.7818608E-02  0.1093470E+00
          1   -1    0    0  502    0  0.00000000000E+00  0.00000000000E+00  0.42707539773E+02  0.42707539773E+02  0.00000000000E+00 0.  1.
         13   -1    0    0    0    0 -0.00000000000E+00 -0.00000000000E+00 -0.10000000000E+04  0.10000000000E+04  0.00000000000E+00 0.  1.
    9000005    2    1    2  501    0  0.49692369756E+01  0.25019198971E+02 -0.95619487004E+03  0.10171760232E+04  0.34595921593E+03 0.  0.
         13    1    3    3    0    0  0.15059969830E+03 -0.75003616387E+02 -0.52084228721E+03  0.54734130097E+03  0.00000000000E+00 0.  1.
          1    1    3    3  501    0 -0.14563046132E+03  0.10002281536E+03 -0.43535258283E+03  0.46983472225E+03  0.00000000000E+00 0.  1.
         21    1    1    2  502  501 -0.49692369756E+01 -0.25019198971E+02 -0.10975901856E+01  0.25531516553E+02  0.00000000000E+00 0.  1.
<mgrwt>
<rscale>  1 0.30000000E+03</rscale>
<asrwt>0</asrwt>
<pdfrwt beam="1">  1        1 0.15530047E+00 0.30000000E+03</pdfrwt>
<pdfrwt beam="2">0</pdfrwt>
<totfact> 0.16891192E+01</totfact>
</mgrwt>
</event>
<event>
 6    1  0.1969531E-004  0.3000000E+03  0.7818608E-02  0.1093470E+00
          1   -1    0    0  502    0  0.00000000000E+00  0.00000000000E+00  0.34408133203E+02  0.34408133203E+02  0.00000000000E+00 0.  1.
         13   -1    0    0    0    0 -0.00000000000E+00 -0.00000000000E+00 -0.10000000000E+04  0.10000000000E+04  0.00000000000E+00 0.  1.
    9000005    2    1    2  501    0 -0.36604746630E+02  0.13504302796E+02 -0.89402208445E+03  0.95289428521E+03  0.32742901158E+03 0.  0.
         13    1    3    3    0    0 -0.42426442802E+02  0.16165343175E+03 -0.33265756154E+03  0.37228065797E+03  0.00000000000E+00 0.  1.
          1    1    3    3  501    0  0.58216961724E+01 -0.14814912896E+03 -0.56136452291E+03  0.58061362724E+03  0.00000000000E+00 0.  1.
         21    1    1    2  502  501  0.36604746630E+02 -0.13504302796E+02 -0.71569782346E+02  0.81513847995E+02  0.00000000000E+00 0.  1.
<mgrwt>
<rscale>  1 0.30000000E+03</rscale>
<asrwt>0</asrwt>
<pdfrwt beam="1">  1        1 0.12512075E+00 0.30000000E+03</pdfrwt>
<pdfrwt beam="2">0</pdfrwt>
<totfact> 0.24336414E+01</totfact>
</mgrwt>
</event>
<event>
 6    1  0.1969531E-004  0.3000000E+03  0.7818608E-02  0.1093470E+00
          1   -1    0    0  502    0  0.00000000000E+00  0.00000000000E+00  0.29710185803E+02  0.29710185803E+02  0.00000000000E+00 0.  1.
         13   -1    0    0    0    0 -0.00000000000E+00 -0.00000000000E+00 -0.10000000000E+04  0.10000000000E+04  0.00000000000E+00 0.  1.
    9000005    2    1    2  501    0  0.63378460592E+01  0.11950777617E+02 -0.94688088175E+03  0.10026737752E+04  0.32952739785E+03 0.  0.
         13    1    3    3    0    0 -0.68751870670E+01  0.14867915473E+03 -0.73670637118E+03  0.75159100353E+03  0.00000000000E+00 0.  1.
          3    1    3    3  501    0  0.13213033126E+02 -0.13672837711E+03 -0.21017451057E+03  0.25108277170E+03  0.00000000000E+00 0.  1.
         21    1    1    2  502  501 -0.63378460592E+01 -0.11950777617E+02 -0.23408932446E+02  0.27036410572E+02  0.00000000000E+00 0.  1.
<mgrwt>
<rscale>  1 0.30000000E+03</rscale>
<asrwt>0</asrwt>
<pdfrwt beam="1">  1        1 0.10803727E+00 0.30000000E+03</pdfrwt>
<pdfrwt beam="2">0</pdfrwt>
<totfact> 0.30525532E+01</totfact>
</mgrwt>
</event>
<event>
 6    1  0.1969531E-004  0.3000000E+03  0.7818608E-02  0.1093470E+00
          1   -1    0    0  502    0  0.00000000000E+00  0.00000000000E+00  0.35703015867E+02  0.35703015867E+02  0.00000000000E+00 0.  1.
         13   -1    0    0    0    0 -0.00000000000E+00 -0.00000000000E+00 -0.10000000000E+04  0.10000000000E+04  0.00000000000E+00 0.  1.
    9000005    2    1    2  501    0  0.18649334679E+02 -0.34534329765E+02 -0.83517763784E+03  0.90075034563E+03  0.33509562933E+03 0.  0.
         13    1    3    3    0    0 -0.67258549446E+02 -0.14328894429E+03 -0.22544329502E+03  0.27546345184E+03  0.00000000000E+00 0.  1.
          3    1    3    3  501    0  0.85907884125E+02  0.10875461453E+03 -0.60973434282E+03  0.62528689379E+03  0.00000000000E+00 0.  1.
         21    1    1    2  502  501 -0.18649334679E+02  0.34534329765E+02 -0.12911934629E+03  0.13495267024E+03  0.00000000000E+00 0.  1.
<mgrwt>
<rscale>  1 0.30000000E+03</rscale>
<asrwt>0</asrwt>
<pdfrwt beam="1">  1        1 0.12982942E+00 0.30000000E+03</pdfrwt>
<pdfrwt beam="2">0</pdfrwt>
<totfact> 0.22928777E+01</totfact>
</mgrwt>
</event>
<event>
 6    1  0.1969531E-004  0.3000000E+03  0.7818608E-02  0.1093470E+00
          1   -1    0    0  502    0  0.00000000000E+00  0.00000000000E+00  0.57071556904E+02  0.57071556904E+02  0.00000000000E+00 0.  1.
         13   -1    0    0    0    0 -0.00000000000E+00 -0.00000000000E+00 -0.10000000000E+04  0.10000000000E+04  0.00000000000E+00 0.  1.
    9000005    2    1    2  501    0 -0.62121208693E+02  0.10671200567E+03 -0.66081848589E+03  0.74912265744E+03  0.33054075071E+03 0.  0.
         13    1    3    3    0    0 -0.10491217555E+03  0.14221056432E+03 -0.66987288741E+03  0.69279152309E+03  0.00000000000E+00 0.  1.
          3    1    3    3  501    0  0.42790966854E+02 -0.35498558648E+02  0.90544015203E+01  0.56331134351E+02  0.00000000000E+00 0.  1.
         21    1    1    2  502  501  0.62121208693E+02 -0.10671200567E+03 -0.28210995721E+03  0.30794889946E+03  0.00000000000E+00 0.  1.
<mgrwt>
<rscale>  1 0.30000000E+03</rscale>
<asrwt>0</asrwt>
<pdfrwt beam="1">  1        1 0.20753337E+00 0.30000000E+03</pdfrwt>
<pdfrwt beam="2">0</pdfrwt>
<totfact> 0.94347898E+00</totfact>
</mgrwt>
</event>
<event>
 6    1  0.1969531E-004  0.3000000E+03  0.7818608E-02  0.1093470E+00
          1   -1    0    0  502    0  0.00000000000E+00  0.00000000000E+00  0.37137756594E+02  0.37137756594E+02  0.00000000000E+00 0.  1.
         13   -1    0    0    0    0 -0.00000000000E+00 -0.00000000000E+00 -0.10000000000E+04  0.10000000000E+04  0.00000000000E+00 0.  1.
    9000005    2    1    2  501    0  0.38820002207E+01 -0.15424040285E+02 -0.96599743670E+03  0.10209266375E+04  0.32998057604E+03 0.  0.
         13    1    3    3    0    0 -0.15624647190E+03  0.10039407228E+02 -0.60951103906E+03  0.62929917879E+03  0.00000000000E+00 0.  1.
          1    1    3    3  501    0  0.16012847212E+03 -0.25463447513E+02 -0.35648639763E+03  0.39162745874E+03  0.00000000000E+00 0.  1.
         21    1    1    2  502  501 -0.38820002207E+01  0.15424040285E+02  0.31351932902E+01  0.16211119066E+02  0.00000000000E+00 0.  1.
<mgrwt>
<rscale>  1 0.30000000E+03</rscale>
<asrwt>0</asrwt>
<pdfrwt beam="1">  1        1 0.13504667E+00 0.30000000E+03</pdfrwt>
<pdfrwt beam="2">0</pdfrwt>
<totfact> 0.21490177E+01</totfact>
</mgrwt>
</event>
<event>
 6    1  0.1969531E-004  0.3000000E+03  0.7818608E-02  0.1093470E+00
          1   -1    0    0  502    0  0.00000000000E+00  0.00000000000E+00  0.29429461356E+02  0.29429461356E+02  0.00000000000E+00 0.  1.
         13   -1    0    0    0    0 -0.00000000000E+00 -0.00000000000E+00 -0.10000000000E+04  0.10000000000E+04  0.00000000000E+00 0.  1.
    9000005    2    1    2  501    0  0.27699179099E+02 -0.75235321632E+01 -0.94333293318E+03  0.98986008923E+03  0.29853329023E+03 0.  0.
         13    1    3    3    0    0  0.16040918317E+02 -0.79755497885E+02 -0.90232527376E+03  0.90598518209E+03  0.00000000000E+00 0.  1.
          3    1    3    3  501    0  0.11658260782E+02  0.72231965722E+02 -0.41007659417E+02  0.83874907138E+02  0.00000000000E+00 0.  1.
         21    1    1    2  502  501 -0.27699179099E+02  0.75235321632E+01 -0.27237605468E+02  0.39569372128E+02  0.00000000000E+00 0.  1.
<mgrwt>
<rscale>  1 0.30000000E+03</rscale>
<asrwt>0</asrwt>
<pdfrwt beam="1">  1        1 0.10701645E+00 0.30000000E+03</pdfrwt>
<pdfrwt beam="2">0</pdfrwt>
<totfact> 0.30962578E+01</totfact>
</mgrwt>
</event>
<event>
 6    1  0.1969531E-004  0.3000000E+03  0.7818608E-02  0.1093470E+00
          1   -1    0    0  502    0  0.00000000000E+00  0.00000000000E+00  0.59211797588E+02  0.59211797588E+02  0.00000000000E+00 0.  1.
         13   -1    0    0    0    0 -0.00000000000E+00 -0.00000000000E+00 -0.10000000000E+04  0.10000000000E+04  0.00000000000E+00 0.  1.
    9000005    2    1    2  501    0 -0.41562369135E+02 -0.82131106192E+02 -0.89375252131E+03  0.95584205139E+03  0.32614032061E+03 0.  0.
         13    1    3    3    0    0 -0.91637786251E+02  0.10564677107E+03 -0.45421240562E+03  0.47525533508E+03  0.00000000000E+00 0.  1.
          3    1    3    3  501    0  0.50075417116E+02 -0.18777787726E+03 -0.43954011569E+03  0.48058671630E+03  0.00000000000E+00 0.  1.
         21    1    1    2  502  501  0.41562369135E+02  0.82131106192E+02 -0.47035681106E+02  0.10336974620E+03  0.00000000000E+00 0.  1.
<mgrwt>
<rscale>  1 0.30000000E+03</rscale>
<asrwt>0</asrwt>
<pdfrwt beam="1">  1        1 0.21531608E+00 0.30000000E+03</pdfrwt>
<pdfrwt beam="2">0</pdfrwt>
<totfact> 0.86712376E+00</totfact>
</mgrwt>
</event>
<event>
 6    1  0.1969531E-004  0.3000000E+03  0.7818608E-02  0.1093470E+00
          1   -1    0    0  502    0  0.00000000000E+00  0.00000000000E+00  0.44557550285E+02  0.44557550285E+02  0.00000000000E+00 0.  1.
         13   -1    0    0    0    0 -0.00000000000E+00 -0.00000000000E+00 -0.10000000000E+04  0.10000000000E+04  0.00000000000E+00 0.  1.
    9000005    2    1    2  501    0  0.53797786066E+00  0.10077454212E+02 -0.96839139145E+03  0.10281404983E+04  0.34523782052E+03 0.  0.
         13    1    3    3    0    0  0.11207427063E+03  0.12038896216E+03 -0.68247696525E+03  0.70201777217E+03  0.00000000000E+00 0.  1.
          3    1    3    3  501    0 -0.11153629277E+03 -0.11031150795E+03 -0.28591442620E+03  0.32612272613E+03  0.00000000000E+00 0.  1.
         21    1    1    2  502  501 -0.53797786066E+00 -0.10077454212E+02  0.12948941736E+02  0.16417051978E+02  0.00000000000E+00 0. -1.
<mgrwt>
<rscale>  1 0.30000000E+03</rscale>
<asrwt>0</asrwt>
<pdfrwt beam="1">  1        1 0.16202780E+00 0.30000000E+03</pdfrwt>
<pdfrwt beam="2">0</pdfrwt>
<totfact> 0.15636797E+01</totfact>
</mgrwt>
</event>
<event>
 6    1  0.1969531E-004  0.3000000E+03  0.7818608E-02  0.1093470E+00
          1   -1    0    0  502    0  0.00000000000E+00  0.00000000000E+00  0.31154194293E+02  0.31154194293E+02  0.00000000000E+00 0.  1.
         13   -1    0    0    0    0 -0.00000000000E+00 -0.00000000000E+00 -0.10000000000E+04  0.10000000000E+04  0.00000000000E+00 0.  1.
    9000005    2    1    2  501    0 -0.88113412902E+01 -0.90038022847E+01 -0.98172429516E+03  0.10131385433E+04  0.25001681540E+03 0.  0.
         13    1    3    3    0    0 -0.87761292552E+02  0.87636895361E+02 -0.43365508918E+03  0.45104213359E+03  0.00000000000E+00 0.  1.
          3    1    3    3  501    0  0.78949951262E+02 -0.96640697646E+02 -0.54806920598E+03  0.56209640969E+03  0.00000000000E+00 0.  1.
         21    1    1    2  502  501  0.88113412902E+01  0.90038022847E+01  0.12878489452E+02  0.18015651014E+02  0.00000000000E+00 0.  1.
<mgrwt>
<rscale>  1 0.30000000E+03</rscale>
<asrwt>0</asrwt>
<pdfrwt beam="1">  1        1 0.11328822E+00 0.30000000E+03</pdfrwt>
<pdfrwt beam="2">0</pdfrwt>
<totfact> 0.28410613E+01</totfact>
</mgrwt>
</event>
<event>
 6    1  0.1969531E-004  0.3000000E+03  0.7818608E-02  0.1093470E+00
          1   -1    0    0  502    0  0.00000000000E+00  0.00000000000E+00  0.33151579646E+02  0.33151579646E+02  0.00000000000E+00 0.  1.
         13   -1    0    0    0    0 -0.00000000000E+00 -0.00000000000E+00 -0.10000000000E+04  0.10000000000E+04  0.00000000000E+00 0.  1.
    9000005    2    1    2  501    0 -0.37808304235E+01 -0.29541248961E+02 -0.94738827037E+03  0.99757521803E+03  0.31100611040E+03 0.  0.
         13    1    3    3    0    0  0.35794607455E+02  0.13294849824E+03 -0.53814851934E+03  0.55548212030E+03  0.00000000000E+00 0.  1.
          1    1    3    3  501    0 -0.39575437879E+02 -0.16248974720E+03 -0.40923975103E+03  0.44209309772E+03  0.00000000000E+00 0.  1.
         21    1    1    2  502  501  0.37808304235E+01  0.29541248961E+02 -0.19460149980E+02  0.35576361620E+02  0.00000000000E+00 0.  1.
<mgrwt>
<rscale>  1 0.30000000E+03</rscale>
<asrwt>0</asrwt>
<pdfrwt beam="1">  1        1 0.12055145E+00 0.30000000E+03</pdfrwt>
<pdfrwt beam="2">0</pdfrwt>
<totfact> 0.25810276E+01</totfact>
</mgrwt>
</event>
<event>
 6    1  0.1969531E-004  0.3000000E+03  0.7818608E-02  0.1093470E+00
          1   -1    0    0  502    0  0.00000000000E+00  0.00000000000E+00  0.63958110493E+02  0.63958110493E+02  0.00000000000E+00 0.  1.
         13   -1    0    0    0    0 -0.00000000000E+00 -0.00000000000E+00 -0.10000000000E+04  0.10000000000E+04  0.00000000000E+00 0.  1.
    9000005    2    1    2  501    0 -0.14027899637E+03 -0.12219941603E+02 -0.74995872044E+03  0.83060329566E+03  0.32807960712E+03 0.  0.
         13    1    3    3    0    0 -0.95208972179E+02 -0.16871804632E+03 -0.42775574224E+03  0.46958013433E+03  0.00000000000E+00 0.  1.
          3    1    3    3  501    0 -0.45070024188E+02  0.15649810471E+03 -0.32220297820E+03  0.36102316133E+03  0.00000000000E+00 0.  1.
         21    1    1    2  502  501  0.14027899637E+03  0.12219941603E+02 -0.18608316907E+03  0.23335481483E+03  0.00000000000E+00 0.  1.
<mgrwt>
<rscale>  1 0.30000000E+03</rscale>
<asrwt>0</asrwt>
<pdfrwt beam="1">  1        1 0.23257544E+00 0.30000000E+03</pdfrwt>
<pdfrwt beam="2">0</pdfrwt>
<totfact> 0.71978364E+00</totfact>
</mgrwt>
</event>
<event>
 6    1  0.1969531E-004  0.3000000E+03  0.7818608E-02  0.1093470E+00
          1   -1    0    0  502    0  0.00000000000E+00  0.00000000000E+00  0.40822247882E+02  0.40822247882E+02  0.00000000000E+00 0.  1.
         13   -1    0    0    0    0 -0.00000000000E+00 -0.00000000000E+00 -0.10000000000E+04  0.10000000000E+04  0.00000000000E+00 0.  1.
    9000005    2    1    2  501    0  0.13059910159E+01  0.21542600987E+02 -0.96669521630E+03  0.10179683305E+04  0.31826732712E+03 0.  0.
         13    1    3    3    0    0  0.89888708374E+02  0.90601926768E+02 -0.83579675352E+03  0.84548501005E+03  0.00000000000E+00 0.  1.
          1    1    3    3  501    0 -0.88582717358E+02 -0.69059325781E+02 -0.13089846278E+03  0.17248332050E+03  0.00000000000E+00 0.  1.
         21    1    1    2  502  501 -0.13059910159E+01 -0.21542600987E+02  0.75174641800E+01  0.22853917334E+02  0.00000000000E+00 0. -1.
<mgrwt>
<rscale>  1 0.30000000E+03</rscale>
<asrwt>0</asrwt>
<pdfrwt beam="1">  1        1 0.14844485E+00 0.30000000E+03</pdfrwt>
<pdfrwt beam="2">0</pdfrwt>
<totfact> 0.18295791E+01</totfact>
</mgrwt>
</event>
<event>
 6    1  0.1969531E-004  0.3000000E+03  0.7818608E-02  0.1093470E+00
          1   -1    0    0  502    0  0.00000000000E+00  0.00000000000E+00  0.45247682657E+02  0.45247682657E+02  0.00000000000E+00 0.  1.
         13   -1    0    0    0    0 -0.00000000000E+00 -0.00000000000E+00 -0.10000000000E+04  0.10000000000E+04  0.00000000000E+00 0.  1.
    9000005    2    1    2  501    0 -0.76693226800E+02  0.16094277924E+02 -0.83645693850E+03  0.90335098265E+03  0.33202697339E+03 0.  0.
         13    1    3    3    0    0  0.33023027042E+02  0.71296765002E+02 -0.24713065999E+02  0.82367983136E+02  0.00000000000E+00 0.  1.
          3    1    3    3  501    0 -0.10971625384E+03 -0.55202487078E+02 -0.81174387251E+03  0.82098299951E+03  0.00000000000E+00 0.  1.
         21    1    1    2  502  501  0.76693226800E+02 -0.16094277924E+02 -0.11829537884E+03  0.14189670001E+03  0.00000000000E+00 0. -1.
<mgrwt>
<rscale>  1 0.30000000E+03</rscale>
<asrwt>0</asrwt>
<pdfrwt beam="1">  1        1 0.16453737E+00 0.30000000E+03</pdfrwt>
<pdfrwt beam="2">0</pdfrwt>
<totfact> 0.15196850E+01</totfact>
</mgrwt>
</event>
<event>
 6    1  0.1969531E-004  0.3000000E+03  0.7818608E-02  0.1093470E+00
          1   -1    0    0  502    0  0.00000000000E+00  0.00000000000E+00  0.49599449672E+02  0.49599449672E+02  0.00000000000E+00 0.  1.
         13   -1    0    0    0    0 -0.00000000000E+00 -0.00000000000E+00 -0.10000000000E+04  0.10000000000E+04  0.00000000000E+00 0.  1.
    9000005    2    1    2  501    0  0.30129929610E+02 -0.39236151844E+01 -0.96127210675E+03  0.10173287485E+04  0.33164817490E+03 0.  0.
         13    1    3    3    0    0 -0.14368691634E+03 -0.44685037792E+02 -0.51924499386E+03  0.54060895866E+03  0.00000000000E+00 0.  1.
          1    1    3    3  501    0  0.17381684595E+03  0.40761422607E+02 -0.44202711289E+03  0.47671978985E+03  0.00000000000E+00 0.  1.
         21    1    1    2  502  501 -0.30129929610E+02  0.39236151844E+01  0.10871556423E+02  0.32270701162E+02  0.00000000000E+00 0.  1.
<mgrwt>
<rscale>  1 0.30000000E+03</rscale>
<asrwt>0</asrwt>
<pdfrwt beam="1">  1        1 0.18036202E+00 0.30000000E+03</pdfrwt>
<pdfrwt beam="2">0</pdfrwt>
<totfact> 0.12723058E+01</totfact>
</mgrwt>
</event>
<event>
 6    1  0.1969531E-004  0.3000000E+03  0.7818608E-02  0.1093470E+00
          1   -1    0    0  502    0  0.00000000000E+00  0.00000000000E+00  0.29781301755E+02  0.29781301755E+02  0.00000000000E+00 0.  1.
         13   -1    0    0    0    0 -0.00000000000E+00 -0.00000000000E+00 -0.10000000000E+04  0.10000000000E+04  0.00000000000E+00 0.  1.
    9000005    2    1    2  501    0  0.79444125005E+01 -0.92372157302E+01 -0.95602080091E+03  0.10110724767E+04  0.32885154952E+03 0.  0.
         13    1    3    3    0    0  0.23688291831E+02  0.80444538169E+02 -0.44348264865E+02  0.94864258220E+02  0.00000000000E+00 0.  1.
          1    1    3    3  501    0 -0.15743879331E+02 -0.89681753899E+02 -0.91167253604E+03  0.91620821852E+03  0.00000000000E+00 0.  1.
         21    1    1    2  502  501 -0.79444125005E+01  0.92372157302E+01 -0.14197897340E+02  0.18708825011E+02  0.00000000000E+00 0.  1.
<mgrwt>
<rscale>  1 0.30000000E+03</rscale>
<asrwt>0</asrwt>
<pdfrwt beam="1">  1        1 0.10829587E+00 0.30000000E+03</pdfrwt>
<pdfrwt beam="2">0</pdfrwt>
<totfact> 0.30416218E+01</totfact>
</mgrwt>
</event>
<event>
 6    1  0.1969531E-004  0.3000000E+03  0.7818608E-02  0.1093470E+00
          1   -1    0    0  502    0  0.00000000000E+00  0.00000000000E+00  0.31055030911E+02  0.31055030911E+02  0.00000000000E+00 0.  1.
         13   -1    0    0    0    0 -0.00000000000E+00 -0.00000000000E+00 -0.10000000000E+04  0.10000000000E+04  0.00000000000E+00 0.  1.
    9000005    2    1    2  501    0  0.32186839824E+02  0.10642300909E+02 -0.87486139991E+03  0.93105018495E+03  0.31673763056E+03 0.  0.
         13    1    3    3    0    0  0.34760828726E+02 -0.91193947191E+02 -0.79668775894E+03  0.80264315637E+03  0.00000000000E+00 0.  1.
          3    1    3    3  501    0 -0.25739889025E+01  0.10183624810E+03 -0.78173640964E+02  0.12840702858E+03  0.00000000000E+00 0.  1.
         21    1    1    2  502  501 -0.32186839824E+02 -0.10642300909E+02 -0.94083569180E+02  0.10000484596E+03  0.00000000000E+00 0. -1.
<mgrwt>
<rscale>  1 0.30000000E+03</rscale>
<asrwt>0</asrwt>
<pdfrwt beam="1">  1        1 0.11292762E+00 0.30000000E+03</pdfrwt>
<pdfrwt beam="2">0</pdfrwt>
<totfact> 0.28549078E+01</totfact>
</mgrwt>
</event>
<event>
 6    1  0.1969531E-004  0.3000000E+03  0.7818608E-02  0.1093470E+00
          1   -1    0    0  502    0  0.00000000000E+00  0.00000000000E+00  0.35381142305E+02  0.35381142305E+02  0.00000000000E+00 0.  1.
         13   -1    0    0    0    0 -0.00000000000E+00 -0.00000000000E+00 -0.10000000000E+04  0.10000000000E+04  0.00000000000E+00 0.  1.
    9000005    2    1    2  501    0 -0.35724240831E+02 -0.25918468425E+02 -0.87654413475E+03  0.93686644690E+03  0.32778213920E+03 0.  0.
         13    1    3    3    0    0  0.90807271528E+02 -0.11557139469E+03 -0.61924565263E+03  0.63644943722E+03  0.00000000000E+00 0.  1.
          3    1    3    3  501    0 -0.12653151236E+03  0.89652926261E+02 -0.25729848211E+03  0.30041700968E+03  0.00000000000E+00 0.  1.
         21    1    1    2  502  501  0.35724240831E+02  0.25918468425E+02 -0.88074722948E+02  0.98514695405E+02  0.00000000000E+00 0. -1.
<mgrwt>
<rscale>  1 0.30000000E+03</rscale>
<asrwt>0</asrwt>
<pdfrwt beam="1">  1        1 0.12865897E+00 0.30000000E+03</pdfrwt>
<pdfrwt beam="2">0</pdfrwt>
<totfact> 0.23268685E+01</totfact>
</mgrwt>
</event>
<event>
 6    1  0.1969531E-004  0.3000000E+03  0.7818608E-02  0.1093470E+00
          1   -1    0    0  502    0  0.00000000000E+00  0.00000000000E+00  0.37447574080E+02  0.37447574080E+02  0.00000000000E+00 0.  1.
         13   -1    0    0    0    0 -0.00000000000E+00 -0.00000000000E+00 -0.10000000000E+04  0.10000000000E+04  0.00000000000E+00 0.  1.
    9000005    2    1    2  501    0 -0.26861475591E+02  0.11045139258E+02 -0.94684275577E+03  0.10044274634E+04  0.33394579071E+03 0.  0.
         13    1    3    3    0    0 -0.31092403256E+02 -0.11667022250E+03 -0.12911268770E+03  0.17677320069E+03  0.00000000000E+00 0.  1.
          3    1    3    3  501    0  0.42309276647E+01  0.12771536175E+03 -0.81773006807E+03  0.82765426272E+03  0.00000000000E+00 0.  1.
         21    1    1    2  502  501  0.26861475591E+02 -0.11045139258E+02 -0.15709670152E+02  0.33020110667E+02  0.00000000000E+00 0.  1.
<mgrwt>
<rscale>  1 0.30000000E+03</rscale>
<asrwt>0</asrwt>
<pdfrwt beam="1">  1        1 0.13617328E+00 0.30000000E+03</pdfrwt>
<pdfrwt beam="2">0</pdfrwt>
<totfact> 0.21195316E+01</totfact>
</mgrwt>
</event>
<event>
 6    1  0.1969531E-004  0.3000000E+03  0.7818608E-02  0.1093470E+00
          1   -1    0    0  502    0  0.00000000000E+00  0.00000000000E+00  0.39879420543E+02  0.39879420543E+02  0.00000000000E+00 0.  1.
         13   -1    0    0    0    0 -0.00000000000E+00 -0.00000000000E+00 -0.10000000000E+04  0.10000000000E+04  0.00000000000E+00 0.  1.
    9000005    2    1    2  501    0  0.15919927712E+01  0.49327738302E+02 -0.89894441863E+03  0.96127736675E+03  0.33692335602E+03 0.  0.
         13    1    3    3    0    0  0.68722415643E+02  0.13865834504E+03 -0.79070507001E+03  0.80570677966E+03  0.00000000000E+00 0.  1.
          3    1    3    3  501    0 -0.67130422871E+02 -0.89330606742E+02 -0.10823934862E+03  0.15557058708E+03  0.00000000000E+00 0.  1.
         21    1    1    2  502  501 -0.15919927712E+01 -0.49327738302E+02 -0.61176160831E+02  0.78602053796E+02  0.00000000000E+00 0.  1.
<mgrwt>
<rscale>  1 0.30000000E+03</rscale>
<asrwt>0</asrwt>
<pdfrwt beam="1">  1        1 0.14501638E+00 0.30000000E+03</pdfrwt>
<pdfrwt beam="2">0</pdfrwt>
<totfact> 0.19052485E+01</totfact>
</mgrwt>
</event>
<event>
 6    1  0.1969531E-004  0.3000000E+03  0.7818608E-02  0.1093470E+00
          1   -1    0    0  502    0  0.00000000000E+00  0.00000000000E+00  0.30370767689E+02  0.30370767689E+02  0.00000000000E+00 0.  1.
         13   -1    0    0    0    0 -0.00000000000E+00 -0.00000000000E+00 -0.10000000000E+04  0.10000000000E+04  0.00000000000E+00 0.  1.
    9000005    2    1    2  501    0 -0.59994531903E+01 -0.10109845851E+02 -0.96194101523E+03  0.10163240206E+04  0.32778925495E+03 0.  0.
         13    1    3    3    0    0  0.12859432181E+03 -0.10242480184E+03 -0.50748513212E+03  0.53344962176E+03  0.00000000000E+00 0.  1.
          1    1    3    3  501    0 -0.13459377500E+03  0.92314955988E+02 -0.45445588311E+03  0.48287439884E+03  0.00000000000E+00 0.  1.
         21    1    1    2  502  501  0.59994531903E+01  0.10109845851E+02 -0.76882170820E+01  0.14046747083E+02  0.00000000000E+00 0. -1.
<mgrwt>
<rscale>  1 0.30000000E+03</rscale>
<asrwt>0</asrwt>
<pdfrwt beam="1">  1        1 0.11043939E+00 0.30000000E+03</pdfrwt>
<pdfrwt beam="2">0</pdfrwt>
<totfact> 0.29531248E+01</totfact>
</mgrwt>
</event>
<event>
 6    1  0.1969531E-004  0.3000000E+03  0.7818608E-02  0.1093470E+00
          1   -1    0    0  502    0  0.00000000000E+00  0.00000000000E+00  0.96040219159E+01  0.96040219159E+01  0.00000000000E+00 0.  1.
         13   -1    0    0    0    0 -0.00000000000E+00 -0.00000000000E+00 -0.10000000000E+04  0.10000000000E+04  0.00000000000E+00 0.  1.
    9000005    2    1    2  501    0  0.30016607463E+02 -0.52023307570E+01 -0.82374147083E+03  0.84018800805E+03  0.16259710060E+03 0.  0.
         13    1    3    3    0    0 -0.20074310650E+02 -0.55538226627E+02 -0.12956498628E+03  0.14238875741E+03  0.00000000000E+00 0.  1.
          3    1    3    3  501    0  0.50090918113E+02  0.50335895870E+02 -0.69417648455E+03  0.69779925064E+03  0.00000000000E+00 0.  1.
         21    1    1    2  502  501 -0.30016607463E+02  0.52023307570E+01 -0.16665450725E+03  0.16941601387E+03  0.00000000000E+00 0.  1.
<mgrwt>
<rscale>  1 0.30000000E+03</rscale>
<asrwt>0</asrwt>
<pdfrwt beam="1">  1        1 0.34923790E-01 0.30000000E+03</pdfrwt>
<pdfrwt beam="2">0</pdfrwt>
<totfact> 0.14112342E+02</totfact>
</mgrwt>
</event>
<event>
 6    1  0.1969531E-004  0.3000000E+03  0.7818608E-02  0.1093470E+00
          1   -1    0    0  502    0  0.00000000000E+00  0.00000000000E+00  0.46946689183E+02  0.46946689183E+02  0.00000000000E+00 0.  1.
         13   -1    0    0    0    0 -0.00000000000E+00 -0.00000000000E+00 -0.10000000000E+04  0.10000000000E+04  0.00000000000E+00 0.  1.
    9000005    2    1    2  501    0 -0.37582475109E+02  0.21912441270E+01 -0.95024595637E+03  0.10091958584E+04  0.33777456833E+03 0.  0.
         13    1    3    3    0    0  0.10753339836E+03  0.25324033242E+02 -0.10894289526E+03  0.15515570518E+03  0.00000000000E+00 0.  1.
          1    1    3    3  501    0 -0.14511587347E+03 -0.23132789116E+02 -0.84130306112E+03  0.85404015322E+03  0.00000000000E+00 0.  1.
         21    1    1    2  502  501  0.37582475109E+02 -0.21912441270E+01 -0.28073544441E+01  0.37750830788E+02  0.00000000000E+00 0.  1.
<mgrwt>
<rscale>  1 0.30000000E+03</rscale>
<asrwt>0</asrwt>
<pdfrwt beam="1">  1        1 0.17071559E+00 0.30000000E+03</pdfrwt>
<pdfrwt beam="2">0</pdfrwt>
<totfact> 0.14172655E+01</totfact>
</mgrwt>
</event>
<event>
 6    1  0.1969531E-004  0.3000000E+03  0.7818608E-02  0.1093470E+00
          1   -1    0    0  502    0  0.00000000000E+00  0.00000000000E+00  0.37774413859E+02  0.37774413859E+02  0.00000000000E+00 0.  1.
         13   -1    0    0    0    0 -0.00000000000E+00 -0.00000000000E+00 -0.10000000000E+04  0.10000000000E+04  0.00000000000E+00 0.  1.
    9000005    2    1    2  501    0 -0.17352335512E+02  0.16181476154E+02 -0.95923107991E+03  0.10138597576E+04  0.32745136986E+03 0.  0.
         13    1    3    3    0    0  0.62052819436E+02  0.32240718540E+02 -0.92209180746E+03  0.92473959454E+03  0.00000000000E+00 0.  1.
          1    1    3    3  501    0 -0.79405154948E+02 -0.16059242386E+02 -0.37139272450E+02  0.89120163019E+02  0.00000000000E+00 0.  1.
         21    1    1    2  502  501  0.17352335512E+02 -0.16181476154E+02 -0.29945062317E+01  0.23914656297E+02  0.00000000000E+00 0.  1.
<mgrwt>
<rscale>  1 0.30000000E+03</rscale>
<asrwt>0</asrwt>
<pdfrwt beam="1">  1        1 0.13736179E+00 0.30000000E+03</pdfrwt>
<pdfrwt beam="2">0</pdfrwt>
<totfact> 0.20890026E+01</totfact>
</mgrwt>
</event>
<event>
 6    1  0.1969531E-004  0.3000000E+03  0.7818608E-02  0.1093470E+00
          1   -1    0    0  502    0  0.00000000000E+00  0.00000000000E+00  0.56176876269E+02  0.56176876269E+02  0.00000000000E+00 0.  1.
         13   -1    0    0    0    0 -0.00000000000E+00 -0.00000000000E+00 -0.10000000000E+04  0.10000000000E+04  0.00000000000E+00 0.  1.
    9000005    2    1    2  501    0  0.40630737182E+01  0.14495035334E+02 -0.96981596965E+03  0.10261395219E+04  0.33495177089E+03 0.  0.
         13    1    3    3    0    0  0.13256947907E+03 -0.97424339797E+02 -0.50019612007E+03  0.52655705038E+03  0.00000000000E+00 0.  1.
          3    1    3    3  501    0 -0.12850640536E+03  0.11191937513E+03 -0.46961984958E+03  0.49958247154E+03  0.00000000000E+00 0.  1.
         21    1    1    2  502  501 -0.40630737182E+01 -0.14495035334E+02  0.25992845923E+02  0.30037354353E+02  0.00000000000E+00 0.  1.
<mgrwt>
<rscale>  1 0.30000000E+03</rscale>
<asrwt>0</asrwt>
<pdfrwt beam="1">  1        1 0.20427998E+00 0.30000000E+03</pdfrwt>
<pdfrwt beam="2">0</pdfrwt>
<totfact> 0.97752486E+00</totfact>
</mgrwt>
</event>
<event>
 6    1  0.1969531E-004  0.3000000E+03  0.7818608E-02  0.1093470E+00
          1   -1    0    0  502    0  0.00000000000E+00  0.00000000000E+00  0.32653688350E+02  0.32653688350E+02  0.00000000000E+00 0.  1.
         13   -1    0    0    0    0 -0.00000000000E+00 -0.00000000000E+00 -0.10000000000E+04  0.10000000000E+04  0.00000000000E+00 0.  1.
    9000005    2    1    2  501    0  0.12639630456E+02 -0.41108107023E+02 -0.86731498303E+03  0.92376887111E+03  0.31506191568E+03 0.  0.
         13    1    3    3    0    0 -0.64246059973E+02  0.75064900173E+02 -0.88664519486E+02  0.13275425596E+03  0.00000000000E+00 0.  1.
          1    1    3    3  501    0  0.76885690429E+02 -0.11617300720E+03 -0.77865046354E+03  0.79101461514E+03  0.00000000000E+00 0.  1.
         21    1    1    2  502  501 -0.12639630456E+02  0.41108107023E+02 -0.10003132862E+03  0.10888481725E+03  0.00000000000E+00 0. -1.
<mgrwt>
<rscale>  1 0.30000000E+03</rscale>
<asrwt>0</asrwt>
<pdfrwt beam="1">  1        1 0.11874094E+00 0.30000000E+03</pdfrwt>
<pdfrwt beam="2">0</pdfrwt>
<totfact> 0.26426892E+01</totfact>
</mgrwt>
</event>
<event>
 6    1  0.1969531E-004  0.3000000E+03  0.7818608E-02  0.1093470E+00
          1   -1    0    0  502    0  0.00000000000E+00  0.00000000000E+00  0.44297171646E+02  0.44297171646E+02  0.00000000000E+00 0.  1.
         13   -1    0    0    0    0 -0.00000000000E+00 -0.00000000000E+00 -0.10000000000E+04  0.10000000000E+04  0.00000000000E+00 0.  1.
    9000005    2    1    2  501    0 -0.38115767076E+02 -0.81532736347E+00 -0.92295661481E+03  0.99403992381E+03  0.36716887239E+03 0.  0.
         13    1    3    3    0    0 -0.99914083050E+02 -0.16535721149E+03 -0.46777432697E+03  0.50610142497E+03  0.00000000000E+00 0.  1.
          1    1    3    3  501    0  0.61798315974E+02  0.16454188413E+03 -0.45518228783E+03  0.48793849884E+03  0.00000000000E+00 0.  1.
         21    1    1    2  502  501  0.38115767076E+02  0.81532736347E+00 -0.32746213548E+02  0.50257247838E+02  0.00000000000E+00 0.  1.
<mgrwt>
<rscale>  1 0.30000000E+03</rscale>
<asrwt>0</asrwt>
<pdfrwt beam="1">  1        1 0.16108096E+00 0.30000000E+03</pdfrwt>
<pdfrwt beam="2">0</pdfrwt>
<totfact> 0.15806585E+01</totfact>
</mgrwt>
</event>
<event>
 6    1  0.1969531E-004  0.3000000E+03  0.7818608E-02  0.1093470E+00
          1   -1    0    0  502    0  0.00000000000E+00  0.00000000000E+00  0.68421702975E+02  0.68421702975E+02  0.00000000000E+00 0.  1.
         13   -1    0    0    0    0 -0.00000000000E+00 -0.00000000000E+00 -0.10000000000E+04  0.10000000000E+04  0.00000000000E+00 0.  1.
    9000005    2    1    2  501    0 -0.10733633707E+03 -0.53420856205E+01 -0.89319623444E+03  0.95430417644E+03  0.31835093971E+03 0.  0.
         13    1    3    3    0    0 -0.17706519930E+03  0.71513840392E+02 -0.32699293843E+03  0.37866963959E+03  0.00000000000E+00 0.  1.
          3    1    3    3  501    0  0.69728862226E+02 -0.76855926012E+02 -0.56620329601E+03  0.57563453684E+03  0.00000000000E+00 0.  1.
         21    1    1    2  502  501  0.10733633707E+03  0.53420856205E+01 -0.38382062588E+02  0.11411752654E+03  0.00000000000E+00 0.  1.
<mgrwt>
<rscale>  1 0.30000000E+03</rscale>
<asrwt>0</asrwt>
<pdfrwt beam="1">  1        1 0.24880672E+00 0.30000000E+03</pdfrwt>
<pdfrwt beam="2">0</pdfrwt>
<totfact> 0.60429094E+00</totfact>
</mgrwt>
</event>
<event>
 6    1  0.1969531E-004  0.3000000E+03  0.7818608E-02  0.1093470E+00
          1   -1    0    0  502    0  0.00000000000E+00  0.00000000000E+00  0.36624457099E+02  0.36624457099E+02  0.00000000000E+00 0.  1.
         13   -1    0    0    0    0 -0.00000000000E+00 -0.00000000000E+00 -0.10000000000E+04  0.10000000000E+04  0.00000000000E+00 0.  1.
    9000005    2    1    2  501    0  0.85946531941E+01  0.92684752105E+01 -0.96913588472E+03  0.10227336604E+04  0.32649656091E+03 0.  0.
         13    1    3    3    0    0  0.65099496607E+02 -0.53562352095E+02 -0.46578117279E+02  0.96314023016E+02  0.00000000000E+00 0.  1.
          3    1    3    3  501    0 -0.56504843413E+02  0.62830827305E+02 -0.92255776744E+03  0.92641963734E+03  0.00000000000E+00 0.  1.
         21    1    1    2  502  501 -0.85946531941E+01 -0.92684752105E+01  0.57603418171E+01  0.13890796741E+02  0.00000000000E+00 0.  1.
<mgrwt>
<rscale>  1 0.30000000E+03</rscale>
<asrwt>0</asrwt>
<pdfrwt beam="1">  1        1 0.13318012E+00 0.30000000E+03</pdfrwt>
<pdfrwt beam="2">0</pdfrwt>
<totfact> 0.21990825E+01</totfact>
</mgrwt>
</event>
<event>
 6    1  0.1969531E-004  0.3000000E+03  0.7818608E-02  0.1093470E+00
          1   -1    0    0  502    0  0.00000000000E+00  0.00000000000E+00  0.41103056692E+02  0.41103056692E+02  0.00000000000E+00 0.  1.
         13   -1    0    0    0    0 -0.00000000000E+00 -0.00000000000E+00 -0.10000000000E+04  0.10000000000E+04  0.00000000000E+00 0.  1.
    9000005    2    1    2  501    0  0.26529653256E+01 -0.99888539692E+01 -0.97044774838E+03  0.10256034913E+04  0.33164268974E+03 0.  0.
         13    1    3    3    0    0  0.15430596629E+03  0.53798884731E+01 -0.68306650312E+03  0.70029930895E+03  0.00000000000E+00 0.  1.
          1    1    3    3  501    0 -0.15165300096E+03 -0.15368742442E+02 -0.28738124526E+03  0.32530418238E+03  0.00000000000E+00 0.  1.
         21    1    1    2  502  501 -0.26529653256E+01  0.99888539692E+01  0.11550805072E+02  0.15499565363E+02  0.00000000000E+00 0. -1.
<mgrwt>
<rscale>  1 0.30000000E+03</rscale>
<asrwt>0</asrwt>
<pdfrwt beam="1">  1        1 0.14946598E+00 0.30000000E+03</pdfrwt>
<pdfrwt beam="2">0</pdfrwt>
<totfact> 0.18077717E+01</totfact>
</mgrwt>
</event>
<event>
 6    1  0.1969531E-004  0.3000000E+03  0.7818608E-02  0.1093470E+00
          1   -1    0    0  502    0  0.00000000000E+00  0.00000000000E+00  0.30686345668E+02  0.30686345668E+02  0.00000000000E+00 0.  1.
         13   -1    0    0    0    0 -0.00000000000E+00 -0.00000000000E+00 -0.10000000000E+04  0.10000000000E+04  0.00000000000E+00 0.  1.
    9000005    2    1    2  501    0 -0.98275722997E+01 -0.27313805722E+01 -0.94822508637E+03  0.10072605198E+04  0.33961581056E+03 0.  0.
         13    1    3    3    0    0  0.35372789391E+02 -0.13176236956E+03 -0.77331420404E+03  0.78525627309E+03  0.00000000000E+00 0.  1.
          3    1    3    3  501    0 -0.45200361691E+02  0.12903098898E+03 -0.17491088233E+03  0.22200424674E+03  0.00000000000E+00 0.  1.
         21    1    1    2  502  501  0.98275722997E+01  0.27313805722E+01 -0.21088567964E+02  0.23425825832E+02  0.00000000000E+00 0. -1.
<mgrwt>
<rscale>  1 0.30000000E+03</rscale>
<asrwt>0</asrwt>
<pdfrwt beam="1">  1        1 0.11158695E+00 0.30000000E+03</pdfrwt>
<pdfrwt beam="2">0</pdfrwt>
<totfact> 0.29072429E+01</totfact>
</mgrwt>
</event>
<event>
 6    1  0.1969531E-004  0.3000000E+03  0.7818608E-02  0.1093470E+00
          1   -1    0    0  502    0  0.00000000000E+00  0.00000000000E+00  0.32316681060E+02  0.32316681060E+02  0.00000000000E+00 0.  1.
         13   -1    0    0    0    0 -0.00000000000E+00 -0.00000000000E+00 -0.10000000000E+04  0.10000000000E+04  0.00000000000E+00 0.  1.
    9000005    2    1    2  501    0  0.28306345258E+02 -0.45165244106E+01 -0.84552389228E+03  0.90683929786E+03  0.32653516126E+03 0.  0.
         13    1    3    3    0    0 -0.13774415538E+03  0.19963768441E+02 -0.22993997477E+03  0.26878317728E+03  0.00000000000E+00 0.  1.
          1    1    3    3  501    0  0.16605050064E+03 -0.24480292851E+02 -0.61558391752E+03  0.63805612058E+03  0.00000000000E+00 0.  1.
         21    1    1    2  502  501 -0.28306345258E+02  0.45165244106E+01 -0.12215942666E+03  0.12547738320E+03  0.00000000000E+00 0.  1.
<mgrwt>
<rscale>  1 0.30000000E+03</rscale>
<asrwt>0</asrwt>
<pdfrwt beam="1">  1        1 0.11751545E+00 0.30000000E+03</pdfrwt>
<pdfrwt beam="2">0</pdfrwt>
<totfact> 0.26855622E+01</totfact>
</mgrwt>
</event>
<event>
 6    1  0.1969531E-004  0.3000000E+03  0.7818608E-02  0.1093470E+00
          1   -1    0    0  502    0  0.00000000000E+00  0.00000000000E+00  0.29277820592E+02  0.29277820592E+02  0.00000000000E+00 0.  1.
         13   -1    0    0    0    0 -0.00000000000E+00 -0.00000000000E+00 -0.10000000000E+04  0.10000000000E+04  0.00000000000E+00 0.  1.
    9000005    2    1    2  501    0  0.10526211829E+02 -0.51551088503E+01 -0.95754193943E+03  0.10116399350E+04  0.32617697039E+03 0.  0.
         13    1    3    3    0    0  0.12060320950E+03  0.76790229031E+02 -0.74535457886E+03  0.75894355630E+03  0.00000000000E+00 0.  1.
          1    1    3    3  501    0 -0.11007699767E+03 -0.81945337881E+02 -0.21218736057E+03  0.25269637869E+03  0.00000000000E+00 0.  1.
         21    1    1    2  502  501 -0.10526211829E+02  0.51551088503E+01 -0.13180239978E+02  0.17637885605E+02  0.00000000000E+00 0. -1.
<mgrwt>
<rscale>  1 0.30000000E+03</rscale>
<asrwt>0</asrwt>
<pdfrwt beam="1">  1        1 0.10646503E+00 0.30000000E+03</pdfrwt>
<pdfrwt beam="2">0</pdfrwt>
<totfact> 0.31202404E+01</totfact>
</mgrwt>
</event>
<event>
 6    1  0.1969531E-004  0.3000000E+03  0.7818608E-02  0.1093470E+00
          1   -1    0    0  502    0  0.00000000000E+00  0.00000000000E+00  0.34226664883E+02  0.34226664883E+02  0.00000000000E+00 0.  1.
         13   -1    0    0    0    0 -0.00000000000E+00 -0.00000000000E+00 -0.10000000000E+04  0.10000000000E+04  0.00000000000E+00 0.  1.
    9000005    2    1    2  501    0 -0.33965294079E+01  0.11534342624E+02 -0.96784182344E+03  0.10220260044E+04  0.32813835656E+03 0.  0.
         13    1    3    3    0    0  0.88015350652E+02  0.13931339411E+03 -0.39416823157E+03  0.42722771271E+03  0.00000000000E+00 0.  1.
          3    1    3    3  501    0 -0.91411880060E+02 -0.12777905149E+03 -0.57367359187E+03  0.59479829171E+03  0.00000000000E+00 0.  1.
         21    1    1    2  502  501  0.33965294079E+01 -0.11534342624E+02  0.20684883187E+01  0.12200660462E+02  0.00000000000E+00 0.  1.
<mgrwt>
<rscale>  1 0.30000000E+03</rscale>
<asrwt>0</asrwt>
<pdfrwt beam="1">  1        1 0.12446086E+00 0.30000000E+03</pdfrwt>
<pdfrwt beam="2">0</pdfrwt>
<totfact> 0.24542410E+01</totfact>
</mgrwt>
</event>
<event>
 6    1  0.1969531E-004  0.3000000E+03  0.7818608E-02  0.1093470E+00
          3   -1    0    0  502    0  0.00000000000E+00  0.00000000000E+00  0.45748297122E+02  0.45748297122E+02  0.00000000000E+00 0.  1.
         13   -1    0    0    0    0 -0.00000000000E+00 -0.00000000000E+00 -0.10000000000E+04  0.10000000000E+04  0.00000000000E+00 0.  1.
    9000005    2    1    2  501    0  0.70186060750E+02  0.13971536212E+02 -0.88269797449E+03  0.94454936929E+03  0.32847604161E+03 0.  0.
         13    1    3    3    0    0  0.17113600718E+03 -0.19333596811E+02 -0.25371881114E+03  0.30665054385E+03  0.00000000000E+00 0.  1.
          1    1    3    3  501    0 -0.10094994643E+03  0.33305133023E+02 -0.62897916335E+03  0.63789882544E+03  0.00000000000E+00 0.  1.
         21    1    1    2  502  501 -0.70186060750E+02 -0.13971536212E+02 -0.71553728391E+02  0.10119892783E+03  0.00000000000E+00 0.  1.
<mgrwt>
<rscale>  1 0.30000000E+03</rscale>
<asrwt>0</asrwt>
<pdfrwt beam="1">  1        3 0.16635779E+00 0.30000000E+03</pdfrwt>
<pdfrwt beam="2">0</pdfrwt>
<totfact> 0.56255967E-01</totfact>
</mgrwt>
</event>
<event>
 6    1  0.1969531E-004  0.3000000E+03  0.7818608E-02  0.1093470E+00
          1   -1    0    0  502    0  0.00000000000E+00  0.00000000000E+00  0.50508243254E+02  0.50508243254E+02  0.00000000000E+00 0.  1.
         13   -1    0    0    0    0 -0.00000000000E+00 -0.00000000000E+00 -0.10000000000E+04  0.10000000000E+04  0.00000000000E+00 0.  1.
    9000005    2    1    2  501    0  0.23228539272E+02  0.27532500544E+02 -0.95748415852E+03  0.10136099762E+04  0.33065339327E+03 0.  0.
         13    1    3    3    0    0  0.84232399635E+02  0.48928086269E+02 -0.94214570941E+03  0.94716819654E+03  0.00000000000E+00 0.  1.
          1    1    3    3  501    0 -0.61003860362E+02 -0.21395585725E+02 -0.15338449108E+02  0.66441779692E+02  0.00000000000E+00 0.  1.
         21    1    1    2  502  501 -0.23228539272E+02 -0.27532500544E+02  0.79924017749E+01  0.36898267020E+02  0.00000000000E+00 0. -1.
<mgrwt>
<rscale>  1 0.30000000E+03</rscale>
<asrwt>0</asrwt>
<pdfrwt beam="1">  1        1 0.18366673E+00 0.30000000E+03</pdfrwt>
<pdfrwt beam="2">0</pdfrwt>
<totfact> 0.12264277E+01</totfact>
</mgrwt>
</event>
<event>
 6    1  0.1969531E-004  0.3000000E+03  0.7818608E-02  0.1093470E+00
          1   -1    0    0  502    0  0.00000000000E+00  0.00000000000E+00  0.71950992191E+02  0.71950992191E+02  0.00000000000E+00 0.  1.
         13   -1    0    0    0    0 -0.00000000000E+00 -0.00000000000E+00 -0.10000000000E+04  0.10000000000E+04  0.00000000000E+00 0.  1.
    9000005    2    1    2  501    0  0.13263189775E+02  0.35764804146E+01 -0.94145562547E+03  0.10527561801E+04  0.47092268638E+03 0.  0.
         13    1    3    3    0    0  0.63409209345E+01  0.22865241253E+03 -0.33322378515E+03  0.40417845566E+03  0.00000000000E+00 0.  1.
          1    1    3    3  501    0  0.69222688400E+01 -0.22507593212E+03 -0.60823184032E+03  0.64857772441E+03  0.00000000000E+00 0.  1.
         21    1    1    2  502  501 -0.13263189775E+02 -0.35764804146E+01  0.13406617657E+02  0.19194812116E+02  0.00000000000E+00 0. -1.
<mgrwt>
<rscale>  1 0.30000000E+03</rscale>
<asrwt>0</asrwt>
<pdfrwt beam="1">  1        1 0.26164052E+00 0.30000000E+03</pdfrwt>
<pdfrwt beam="2">0</pdfrwt>
<totfact> 0.52640201E+00</totfact>
</mgrwt>
</event>
<event>
 6    1  0.1969531E-004  0.3000000E+03  0.7818608E-02  0.1093470E+00
          1   -1    0    0  502    0  0.00000000000E+00  0.00000000000E+00  0.30432026859E+02  0.30432026859E+02  0.00000000000E+00 0.  1.
         13   -1    0    0    0    0 -0.00000000000E+00 -0.00000000000E+00 -0.10000000000E+04  0.10000000000E+04  0.00000000000E+00 0.  1.
    9000005    2    1    2  501    0  0.84088138694E+01  0.27462981444E+02 -0.82763382981E+03  0.88562103093E+03  0.31388203304E+03 0.  0.
         13    1    3    3    0    0 -0.10094732952E+03  0.34091608199E+02 -0.88778895469E+02  0.13868775493E+03  0.00000000000E+00 0.  1.
          3    1    3    3  501    0  0.10935614339E+03 -0.66286267556E+01 -0.73885493434E+03  0.74693327600E+03  0.00000000000E+00 0.  1.
         21    1    1    2  502  501 -0.84088138694E+01 -0.27462981444E+02 -0.14193414333E+03  0.14481099593E+03  0.00000000000E+00 0. -1.
<mgrwt>
<rscale>  1 0.30000000E+03</rscale>
<asrwt>0</asrwt>
<pdfrwt beam="1">  1        1 0.11066215E+00 0.30000000E+03</pdfrwt>
<pdfrwt beam="2">0</pdfrwt>
<totfact> 0.29441386E+01</totfact>
</mgrwt>
</event>
<event>
 6    1  0.1969531E-004  0.3000000E+03  0.7818608E-02  0.1093470E+00
          1   -1    0    0  502    0  0.00000000000E+00  0.00000000000E+00  0.33533976440E+02  0.33533976440E+02  0.00000000000E+00 0.  1.
         13   -1    0    0    0    0 -0.00000000000E+00 -0.00000000000E+00 -0.10000000000E+04  0.10000000000E+04  0.00000000000E+00 0.  1.
    9000005    2    1    2  501    0  0.96898933273E+01  0.18710143822E+02 -0.95513987644E+03  0.10096123309E+04  0.32646732106E+03 0.  0.
         13    1    3    3    0    0 -0.41375495616E+02  0.15205345185E+03 -0.29758292552E+03  0.33673102235E+03  0.00000000000E+00 0.  1.
          3    1    3    3  501    0  0.51065388944E+02 -0.13334330803E+03 -0.65755695092E+03  0.67288130859E+03  0.00000000000E+00 0.  1.
         21    1    1    2  502  501 -0.96898933273E+01 -0.18710143822E+02 -0.11326147121E+02  0.23921645494E+02  0.00000000000E+00 0.  1.
<mgrwt>
<rscale>  1 0.30000000E+03</rscale>
<asrwt>0</asrwt>
<pdfrwt beam="1">  1        1 0.12194199E+00 0.30000000E+03</pdfrwt>
<pdfrwt beam="2">0</pdfrwt>
<totfact> 0.25349674E+01</totfact>
</mgrwt>
</event>
<event>
 6    1  0.1969531E-004  0.3000000E+03  0.7818608E-02  0.1093470E+00
          1   -1    0    0  502    0  0.00000000000E+00  0.00000000000E+00  0.11043028270E+03  0.11043028270E+03  0.00000000000E+00 0.  1.
         13   -1    0    0    0    0 -0.00000000000E+00 -0.00000000000E+00 -0.10000000000E+04  0.10000000000E+04  0.00000000000E+00 0.  1.
    9000005    2    1    2  501    0  0.17895362855E+03 -0.52971891651E+02 -0.49397643324E+03  0.67302375683E+03  0.41727429609E+03 0.  0.
         13    1    3    3    0    0  0.14644275856E+03  0.48086039109E+02 -0.53684667837E+03  0.55853567904E+03  0.00000000000E+00 0.  1.
          1    1    3    3  501    0  0.32510869995E+02 -0.10105793076E+03  0.42870245128E+02  0.11448807778E+03  0.00000000000E+00 0.  1.
         21    1    1    2  502  501 -0.17895362855E+03  0.52971891651E+02 -0.39559328407E+03  0.43740652587E+03  0.00000000000E+00 0.  1.
<mgrwt>
<rscale>  1 0.30000000E+03</rscale>
<asrwt>0</asrwt>
<pdfrwt beam="1">  1        1 0.40156551E+00 0.30000000E+03</pdfrwt>
<pdfrwt beam="2">0</pdfrwt>
<totfact> 0.10316918E+00</totfact>
</mgrwt>
</event>
<event>
 6    1  0.1969531E-004  0.3000000E+03  0.7818608E-02  0.1093470E+00
          1   -1    0    0  502    0  0.00000000000E+00  0.00000000000E+00  0.11674209174E+02  0.11674209174E+02  0.00000000000E+00 0.  1.
         13   -1    0    0    0    0 -0.00000000000E+00 -0.00000000000E+00 -0.10000000000E+04  0.10000000000E+04  0.00000000000E+00 0.  1.
    9000005    2    1    2  501    0  0.19740429138E+01 -0.10976099647E+02 -0.98996751356E+03  0.10004018154E+04  0.14367930488E+03 0.  0.
         13    1    3    3    0    0  0.11151188351E+02  0.54931920834E+02 -0.72655849605E+03  0.72871744394E+03  0.00000000000E+00 0.  1.
          1    1    3    3  501    0 -0.91771454369E+01 -0.65908020480E+02 -0.26340901751E+03  0.27168437141E+03  0.00000000000E+00 0.  1.
         21    1    1    2  502  501 -0.19740429138E+01  0.10976099647E+02  0.16417227348E+01  0.11272393819E+02  0.00000000000E+00 0.  1.
<mgrwt>
<rscale>  1 0.30000000E+03</rscale>
<asrwt>0</asrwt>
<pdfrwt beam="1">  1        1 0.42451759E-01 0.30000000E+03</pdfrwt>
<pdfrwt beam="2">0</pdfrwt>
<totfact> 0.10935493E+02</totfact>
</mgrwt>
</event>
<event>
 6    1  0.1969531E-004  0.3000000E+03  0.7818608E-02  0.1093470E+00
          1   -1    0    0  502    0  0.00000000000E+00  0.00000000000E+00  0.34480600898E+02  0.34480600898E+02  0.00000000000E+00 0.  1.
         13   -1    0    0    0    0 -0.00000000000E+00 -0.00000000000E+00 -0.10000000000E+04  0.10000000000E+04  0.00000000000E+00 0.  1.
    9000005    2    1    2  501    0  0.11809214902E+02  0.11840507687E+02 -0.96750883386E+03  0.10176397865E+04  0.31502021570E+03 0.  0.
         13    1    3    3    0    0  0.36313637041E+02  0.32398397004E+02 -0.98151576056E+03  0.98272148882E+03  0.00000000000E+00 0.  1.
          1    1    3    3  501    0 -0.24504422139E+02 -0.20557889317E+02  0.14006926700E+02  0.34918297684E+02  0.00000000000E+00 0.  1.
         21    1    1    2  502  501 -0.11809214902E+02 -0.11840507687E+02  0.19894347557E+01  0.16840814396E+02  0.00000000000E+00 0.  1.
<mgrwt>
<rscale>  1 0.30000000E+03</rscale>
<asrwt>0</asrwt>
<pdfrwt beam="1">  1        1 0.12538427E+00 0.30000000E+03</pdfrwt>
<pdfrwt beam="2">0</pdfrwt>
<totfact> 0.24254764E+01</totfact>
</mgrwt>
</event>
<event>
 6    1  0.1969531E-004  0.3000000E+03  0.7818608E-02  0.1093470E+00
          1   -1    0    0  502    0  0.00000000000E+00  0.00000000000E+00  0.33837442347E+02  0.33837442347E+02  0.00000000000E+00 0.  1.
         13   -1    0    0    0    0 -0.00000000000E+00 -0.00000000000E+00 -0.10000000000E+04  0.10000000000E+04  0.00000000000E+00 0.  1.
    9000005    2    1    2  501    0 -0.13293533881E+02 -0.24397144040E+02 -0.93606717397E+03  0.99287806247E+03  0.32986838903E+03 0.  0.
         13    1    3    3    0    0  0.62318599186E+02 -0.70652648392E+02 -0.58604887870E+02  0.11095015733E+03  0.00000000000E+00 0.  1.
          1    1    3    3  501    0 -0.75612133067E+02  0.46255504352E+02 -0.87746228610E+03  0.88192790514E+03  0.00000000000E+00 0.  1.
         21    1    1    2  502  501  0.13293533881E+02  0.24397144040E+02 -0.30095383687E+02  0.40959379873E+02  0.00000000000E+00 0. -1.
<mgrwt>
<rscale>  1 0.30000000E+03</rscale>
<asrwt>0</asrwt>
<pdfrwt beam="1">  1        1 0.12304550E+00 0.30000000E+03</pdfrwt>
<pdfrwt beam="2">0</pdfrwt>
<totfact> 0.24991824E+01</totfact>
</mgrwt>
</event>
<event>
 6    1  0.1969531E-004  0.3000000E+03  0.7818608E-02  0.1093470E+00
          1   -1    0    0  502    0  0.00000000000E+00  0.00000000000E+00  0.40558970215E+02  0.40558970215E+02  0.00000000000E+00 0.  1.
         13   -1    0    0    0    0 -0.00000000000E+00 -0.00000000000E+00 -0.10000000000E+04  0.10000000000E+04  0.00000000000E+00 0.  1.
    9000005    2    1    2  501    0  0.13920971577E+02  0.66379034117E+00 -0.96952193503E+03  0.10233584261E+04  0.32725441431E+03 0.  0.
         13    1    3    3    0    0  0.57051790079E+02 -0.10679234750E+03 -0.84379094165E+03  0.85243337889E+03  0.00000000000E+00 0.  1.
          3    1    3    3  501    0 -0.43130818502E+02  0.10745613784E+03 -0.12573099338E+03  0.17092504720E+03  0.00000000000E+00 0.  1.
         21    1    1    2  502  501 -0.13920971577E+02 -0.66379034117E+00  0.10080905250E+02  0.17200544117E+02  0.00000000000E+00 0.  1.
<mgrwt>
<rscale>  1 0.30000000E+03</rscale>
<asrwt>0</asrwt>
<pdfrwt beam="1">  1        1 0.14748748E+00 0.30000000E+03</pdfrwt>
<pdfrwt beam="2">0</pdfrwt>
<totfact> 0.18503242E+01</totfact>
</mgrwt>
</event>
<event>
 6    1  0.1969531E-004  0.3000000E+03  0.7818608E-02  0.1093470E+00
          1   -1    0    0  502    0  0.00000000000E+00  0.00000000000E+00  0.47501652349E+02  0.47501652349E+02  0.00000000000E+00 0.  1.
         13   -1    0    0    0    0 -0.00000000000E+00 -0.00000000000E+00 -0.10000000000E+04  0.10000000000E+04  0.00000000000E+00 0.  1.
    9000005    2    1    2  501    0  0.34099060637E+02 -0.32196200235E+02 -0.94691899331E+03  0.10002737957E+04  0.31889299975E+03 0.  0.
         13    1    3    3    0    0  0.13978767244E+03  0.19217599680E+02 -0.79891561187E+03  0.81128050906E+03  0.00000000000E+00 0.  1.
          3    1    3    3  501    0 -0.10568861180E+03 -0.51413799915E+02 -0.14800338144E+03  0.18899328667E+03  0.00000000000E+00 0.  1.
         21    1    1    2  502  501 -0.34099060637E+02  0.32196200235E+02 -0.55793543430E+01  0.47227856619E+02  0.00000000000E+00 0. -1.
<mgrwt>
<rscale>  1 0.30000000E+03</rscale>
<asrwt>0</asrwt>
<pdfrwt beam="1">  1        1 0.17273365E+00 0.30000000E+03</pdfrwt>
<pdfrwt beam="2">0</pdfrwt>
<totfact> 0.13855147E+01</totfact>
</mgrwt>
</event>
