<event>
 6    1  0.6513574E-002  0.3000000E+03  0.7818608E-02  0.1093470E+00
         21   -1    0    0  501  502  0.00000000000E+00  0.00000000000E+00  0.11840382762E+01  0.11840382762E+01  0.00000000000E+00 0. -1.
         13   -1    0    0    0    0 -0.00000000000E+00 -0.00000000000E+00 -0.10000000000E+04  0.10000000000E+04  0.00000000000E+00 0.  1.
    9000005    2    1    2  501    0  0.51032168478E+01 -0.33924613820E+02 -0.52845153992E+03  0.52957020096E+03  0.25778791040E+01 0.  0.
         13    1    3    3    0    0  0.18115395998E+01 -0.66639138346E+01 -0.11659937142E+03  0.11680369360E+03  0.00000000000E+00 0.  1.
          3    1    3    3  501    0  0.32916772480E+01 -0.27260699985E+02 -0.41185216850E+03  0.41276650736E+03  0.00000000000E+00 0.  1.
         -3    1    1    2    0  502 -0.51032168478E+01  0.33924613820E+02 -0.47036442180E+03  0.47161383731E+03  0.00000000000E+00 0. -1.
<mgrwt>
<rscale>  1 0.30000000E+03</rscale>
<asrwt>0</asrwt>
<pdfrwt beam="1">  1       21 0.43056028E-02 0.30000000E+03</pdfrwt>
<pdfrwt beam="2">0</pdfrwt>
<totfact> 0.37134873E+04</totfact>
</mgrwt>
</event>
<event>
 6    1  0.6513574E-002  0.3000000E+03  0.7818608E-02  0.1093470E+00
         21   -1    0    0  501  502  0.00000000000E+00  0.00000000000E+00  0.23402187906E+01  0.23402187906E+01  0.00000000000E+00 0. -1.
         13   -1    0    0    0    0 -0.00000000000E+00 -0.00000000000E+00 -0.10000000000E+04  0.10000000000E+04  0.00000000000E+00 0.  1.
    9000005    2    1    2  501    0  0.38797660962E+02  0.65745580346E+01 -0.20979564175E+03  0.21349398184E+03  0.41213679756E+01 0.  0.
         13    1    3    3    0    0  0.24392875743E+02  0.25474374666E+01 -0.12349257148E+03  0.12590439641E+03  0.00000000000E+00 0.  1.
          3    1    3    3  501    0  0.14404785219E+02  0.40271205680E+01 -0.86303070276E+02  0.87589585433E+02  0.00000000000E+00 0.  1.
         -1    1    1    2    0  502 -0.38797660962E+02 -0.65745580346E+01 -0.78786413946E+03  0.78884623695E+03  0.00000000000E+00 0. -1.
<mgrwt>
<rscale>  1 0.30000000E+03</rscale>
<asrwt>0</asrwt>
<pdfrwt beam="1">  1       21 0.85099045E-02 0.30000000E+03</pdfrwt>
<pdfrwt beam="2">0</pdfrwt>
<totfact> 0.11457708E+04</totfact>
</mgrwt>
</event>
<event>
 6    1  0.6513574E-002  0.3000000E+03  0.7818608E-02  0.1093470E+00
         21   -1    0    0  501  502  0.00000000000E+00  0.00000000000E+00  0.15733115182E+01  0.15733115182E+01  0.00000000000E+00 0. -1.
         13   -1    0    0    0    0 -0.00000000000E+00 -0.00000000000E+00 -0.10000000000E+04  0.10000000000E+04  0.00000000000E+00 0.  1.
    9000005    2    1    2  501    0  0.36660337466E+02  0.10288764560E+02 -0.36134223685E+03  0.36335200388E+03  0.25744064588E+01 0.  0.
         13    1    3    3    0    0  0.63308781415E+01  0.78397982654E+00 -0.59686581504E+02  0.60026516258E+02  0.00000000000E+00 0.  1.
          3    1    3    3  501    0  0.30329459325E+02  0.95047847337E+01 -0.30165565535E+03  0.30332548762E+03  0.00000000000E+00 0.  1.
         -1    1    1    2    0  502 -0.36660337466E+02 -0.10288764560E+02 -0.63708445163E+03  0.63822130764E+03  0.00000000000E+00 0. -1.
<mgrwt>
<rscale>  1 0.30000000E+03</rscale>
<asrwt>0</asrwt>
<pdfrwt beam="1">  1       21 0.57211449E-02 0.30000000E+03</pdfrwt>
<pdfrwt beam="2">0</pdfrwt>
<totfact> 0.22872145E+04</totfact>
</mgrwt>
</event>
<event>
 6    1  0.6513574E-002  0.3000000E+03  0.7818608E-02  0.1093470E+00
         21   -1    0    0  501  502  0.00000000000E+00  0.00000000000E+00  0.36701255248E+01  0.36701255248E+01  0.00000000000E+00 0. -1.
         13   -1    0    0    0    0 -0.00000000000E+00 -0.00000000000E+00 -0.10000000000E+04  0.10000000000E+04  0.00000000000E+00 0.  1.
    9000005    2    1    2  501    0  0.39561183376E+02 -0.45257650135E+02 -0.55800905676E+03  0.56124670688E+03  0.32274491190E+01 0.  0.
         13    1    3    3    0    0  0.36196968073E+02 -0.42637754159E+02 -0.51693537054E+03  0.51995228233E+03  0.00000000000E+00 0.  1.
          3    1    3    3  501    0  0.33642153026E+01 -0.26198959762E+01 -0.41073686216E+02  0.41294424550E+02  0.00000000000E+00 0.  1.
         -3    1    1    2    0  502 -0.39561183376E+02  0.45257650135E+02 -0.43832081771E+03  0.44242341865E+03  0.00000000000E+00 0. -1.
<mgrwt>
<rscale>  1 0.30000000E+03</rscale>
<asrwt>0</asrwt>
<pdfrwt beam="1">  1       21 0.13345939E-01 0.30000000E+03</pdfrwt>
<pdfrwt beam="2">0</pdfrwt>
<totfact> 0.51054519E+03</totfact>
</mgrwt>
</event>
<event>
 6    1  0.6513574E-002  0.3000000E+03  0.7818608E-02  0.1093470E+00
         21   -1    0    0  501  502  0.00000000000E+00  0.00000000000E+00  0.96770143256E+00  0.96770143256E+00  0.00000000000E+00 0. -1.
         13   -1    0    0    0    0 -0.00000000000E+00 -0.00000000000E+00 -0.10000000000E+04  0.10000000000E+04  0.00000000000E+00 0.  1.
    9000005    2    1    2  501    0  0.25811368108E+02  0.17061117684E+02 -0.48595543396E+03  0.48695877402E+03  0.43422739988E+01 0.  0.
         13    1    3    3    0    0  0.16336265885E+01  0.20026437309E+01 -0.57107537516E+02  0.57165987780E+02  0.00000000000E+00 0.  1.
          1    1    3    3  501    0  0.24177741520E+02  0.15058473953E+02 -0.42884789644E+03  0.42979278624E+03  0.00000000000E+00 0.  1.
         -1    1    1    2    0  502 -0.25811368108E+02 -0.17061117684E+02 -0.51307686461E+03  0.51400892741E+03  0.00000000000E+00 0. -1.
<mgrwt>
<rscale>  1 0.30000000E+03</rscale>
<asrwt>0</asrwt>
<pdfrwt beam="1">  1       21 0.35189217E-02 0.30000000E+03</pdfrwt>
<pdfrwt beam="2">0</pdfrwt>
<totfact> 0.52143820E+04</totfact>
</mgrwt>
</event>
<event>
 6    1  0.6513574E-002  0.3000000E+03  0.7818608E-02  0.1093470E+00
         21   -1    0    0  501  502  0.00000000000E+00  0.00000000000E+00  0.14231718726E+01  0.14231718726E+01  0.00000000000E+00 0. -1.
         13   -1    0    0    0    0 -0.00000000000E+00 -0.00000000000E+00 -0.10000000000E+04  0.10000000000E+04  0.00000000000E+00 0.  1.
    9000005    2    1    2  501    0  0.10666030205E+02  0.35233355878E+02 -0.59780009495E+03  0.59895933073E+03  0.56721059233E+01 0.  0.
         13    1    3    3    0    0  0.35794531424E+01  0.75989005994E+01 -0.17162982339E+03  0.17183524683E+03  0.00000000000E+00 0.  1.
          1    1    3    3  501    0  0.70865770630E+01  0.27634455279E+02 -0.42617027155E+03  0.42712408390E+03  0.00000000000E+00 0.  1.
         -3    1    1    2    0  502 -0.10666030205E+02 -0.35233355878E+02 -0.40077673318E+03  0.40246384114E+03  0.00000000000E+00 0. -1.
<mgrwt>
<rscale>  1 0.30000000E+03</rscale>
<asrwt>0</asrwt>
<pdfrwt beam="1">  1       21 0.51751814E-02 0.30000000E+03</pdfrwt>
<pdfrwt beam="2">0</pdfrwt>
<totfact> 0.27160936E+04</totfact>
</mgrwt>
</event>
<event>
 6    1  0.6513574E-002  0.3000000E+03  0.7818608E-02  0.1093470E+00
         21   -1    0    0  501  502  0.00000000000E+00  0.00000000000E+00  0.16046421872E+01  0.16046421872E+01  0.00000000000E+00 0. -1.
         13   -1    0    0    0    0 -0.00000000000E+00 -0.00000000000E+00 -0.10000000000E+04  0.10000000000E+04  0.00000000000E+00 0.  1.
    9000005    2    1    2  501    0  0.32095626755E+02  0.19923475949E+02 -0.66394000017E+03  0.66502261592E+03  0.34178513312E+01 0.  0.
         13    1    3    3    0    0  0.13252171443E+02  0.62689126328E+01 -0.25756357479E+03  0.25798045347E+03  0.00000000000E+00 0.  1.
          3    1    3    3  501    0  0.18843455311E+02  0.13654563317E+02 -0.40637642537E+03  0.40704216244E+03  0.00000000000E+00 0.  1.
         -3    1    1    2    0  502 -0.32095626755E+02 -0.19923475949E+02 -0.33445535765E+03  0.33658202627E+03  0.00000000000E+00 0. -1.
<mgrwt>
<rscale>  1 0.30000000E+03</rscale>
<asrwt>0</asrwt>
<pdfrwt beam="1">  1       21 0.58350748E-02 0.30000000E+03</pdfrwt>
<pdfrwt beam="2">0</pdfrwt>
<totfact> 0.22108760E+04</totfact>
</mgrwt>
</event>
<event>
 6    1  0.6513574E-002  0.3000000E+03  0.7818608E-02  0.1093470E+00
         21   -1    0    0  501  502  0.00000000000E+00  0.00000000000E+00  0.13158684823E+01  0.13158684823E+01  0.00000000000E+00 0. -1.
         13   -1    0    0    0    0 -0.00000000000E+00 -0.00000000000E+00 -0.10000000000E+04  0.10000000000E+04  0.00000000000E+00 0.  1.
    9000005    2    1    2  501    0  0.44370404864E+01  0.32216637412E+02 -0.71969643176E+03  0.72043914166E+03  0.34646634628E+01 0.  0.
         13    1    3    3    0    0  0.31011381984E+01  0.28691241467E+02 -0.61946071570E+03  0.62013255252E+03  0.00000000000E+00 0.  1.
          1    1    3    3  501    0  0.13359022880E+01  0.35253959453E+01 -0.10023571606E+03  0.10030658914E+03  0.00000000000E+00 0.  1.
         -3    1    1    2    0  502 -0.44370404864E+01 -0.32216637412E+02 -0.27898769976E+03  0.28087672682E+03  0.00000000000E+00 0. -1.
<mgrwt>
<rscale>  1 0.30000000E+03</rscale>
<asrwt>0</asrwt>
<pdfrwt beam="1">  1       21 0.47849864E-02 0.30000000E+03</pdfrwt>
<pdfrwt beam="2">0</pdfrwt>
<totfact> 0.31043574E+04</totfact>
</mgrwt>
</event>
<event>
 6    1  0.6513574E-002  0.3000000E+03  0.7818608E-02  0.1093470E+00
         21   -1    0    0  501  502  0.00000000000E+00  0.00000000000E+00  0.26228485079E+01  0.26228485079E+01  0.00000000000E+00 0. -1.
         13   -1    0    0    0    0 -0.00000000000E+00 -0.00000000000E+00 -0.10000000000E+04  0.10000000000E+04  0.00000000000E+00 0.  1.
    9000005    2    1    2  501    0 -0.18006739291E+02 -0.40291502262E+02 -0.24610673962E+03  0.25005731676E+03  0.35336336042E+01 0.  0.
         13    1    3    3    0    0 -0.11068020468E+01 -0.52995296572E+01 -0.30354419709E+02  0.30833436740E+02  0.00000000000E+00 0.  1.
          1    1    3    3  501    0 -0.16899937244E+02 -0.34991972604E+02 -0.21575231991E+03  0.21922388002E+03  0.00000000000E+00 0.  1.
         -3    1    1    2    0  502  0.18006739291E+02  0.40291502262E+02 -0.75127041187E+03  0.75256553174E+03  0.00000000000E+00 0. -1.
<mgrwt>
<rscale>  1 0.30000000E+03</rscale>
<asrwt>0</asrwt>
<pdfrwt beam="1">  1       21 0.95376511E-02 0.30000000E+03</pdfrwt>
<pdfrwt beam="2">0</pdfrwt>
<totfact> 0.93615145E+03</totfact>
</mgrwt>
</event>
<event>
 6    1  0.6513574E-002  0.3000000E+03  0.7818608E-02  0.1093470E+00
         21   -1    0    0  501  502  0.00000000000E+00  0.00000000000E+00  0.50080781357E+01  0.50080781357E+01  0.00000000000E+00 0. -1.
         13   -1    0    0    0    0 -0.00000000000E+00 -0.00000000000E+00 -0.10000000000E+04  0.10000000000E+04  0.00000000000E+00 0.  1.
    9000005    2    1    2  501    0  0.70128207553E+02 -0.70986443905E+01 -0.53922520794E+03  0.54382302442E+03  0.33616614240E+01 0.  0.
         13    1    3    3    0    0  0.49442462282E+02 -0.45405233447E+01 -0.36828582057E+03  0.37161757098E+03  0.00000000000E+00 0.  1.
          1    1    3    3  501    0  0.20685745272E+02 -0.25581210458E+01 -0.17093938737E+03  0.17220545344E+03  0.00000000000E+00 0.  1.
         -1    1    1    2    0  502 -0.70128207553E+02  0.70986443905E+01 -0.45576671392E+03  0.46118505371E+03  0.00000000000E+00 0. -1.
<mgrwt>
<rscale>  1 0.30000000E+03</rscale>
<asrwt>0</asrwt>
<pdfrwt beam="1">  1       21 0.18211232E-01 0.30000000E+03</pdfrwt>
<pdfrwt beam="2">0</pdfrwt>
<totfact> 0.28658423E+03</totfact>
</mgrwt>
</event>
<event>
 6    1  0.6513574E-002  0.3000000E+03  0.7818608E-02  0.1093470E+00
         21   -1    0    0  501  502  0.00000000000E+00  0.00000000000E+00  0.15449780825E+01  0.15449780825E+01  0.00000000000E+00 0. -1.
         13   -1    0    0    0    0 -0.00000000000E+00 -0.00000000000E+00 -0.10000000000E+04  0.10000000000E+04  0.00000000000E+00 0.  1.
    9000005    2    1    2  501    0  0.38410341175E+01  0.36516194927E+02 -0.32383042863E+03  0.32592191165E+03  0.32802359832E+01 0.  0.
         13    1    3    3    0    0  0.31974869136E+01  0.35471948446E+02 -0.31086852691E+03  0.31290209982E+03  0.00000000000E+00 0.  1.
          1    1    3    3  501    0  0.64354720396E+00  0.10442464814E+01 -0.12961901728E+02  0.13019811831E+02  0.00000000000E+00 0.  1.
         -3    1    1    2    0  502 -0.38410341175E+01 -0.36516194927E+02 -0.67462459328E+03  0.67562306643E+03  0.00000000000E+00 0. -1.
<mgrwt>
<rscale>  1 0.30000000E+03</rscale>
<asrwt>0</asrwt>
<pdfrwt beam="1">  1       21 0.56181140E-02 0.30000000E+03</pdfrwt>
<pdfrwt beam="2">0</pdfrwt>
<totfact> 0.23597830E+04</totfact>
</mgrwt>
</event>
<event>
 6    1  0.6513574E-002  0.3000000E+03  0.7818608E-02  0.1093470E+00
         21   -1    0    0  501  502  0.00000000000E+00  0.00000000000E+00  0.10147081942E+01  0.10147081942E+01  0.00000000000E+00 0. -1.
         13   -1    0    0    0    0 -0.00000000000E+00 -0.00000000000E+00 -0.10000000000E+04  0.10000000000E+04  0.00000000000E+00 0.  1.
    9000005    2    1    2  501    0 -0.19304907064E+02 -0.24658156946E+02 -0.58199105213E+03  0.58284620141E+03  0.39249970318E+01 0.  0.
         13    1    3    3    0    0 -0.18964988011E+02 -0.22943397286E+02 -0.55620369970E+03  0.55699966410E+03  0.00000000000E+00 0.  1.
          3    1    3    3  501    0 -0.33991905251E+00 -0.17147596592E+01 -0.25787352433E+02  0.25846537315E+02  0.00000000000E+00 0.  1.
         -1    1    1    2    0  502  0.19304907064E+02  0.24658156946E+02 -0.41699423968E+03  0.41816850678E+03  0.00000000000E+00 0. -1.
<mgrwt>
<rscale>  1 0.30000000E+03</rscale>
<asrwt>0</asrwt>
<pdfrwt beam="1">  1       21 0.36898558E-02 0.30000000E+03</pdfrwt>
<pdfrwt beam="2">0</pdfrwt>
<totfact> 0.48156830E+04</totfact>
</mgrwt>
</event>
<event>
 6    1  0.6513574E-002  0.3000000E+03  0.7818608E-02  0.1093470E+00
         21   -1    0    0  501  502  0.00000000000E+00  0.00000000000E+00  0.14044155832E+01  0.14044155832E+01  0.00000000000E+00 0. -1.
         13   -1    0    0    0    0 -0.00000000000E+00 -0.00000000000E+00 -0.10000000000E+04  0.10000000000E+04  0.00000000000E+00 0.  1.
    9000005    2    1    2  501    0 -0.30726498928E+02  0.59933642311E+01 -0.22665314004E+03  0.22882744493E+03  0.32117771852E+01 0.  0.
         13    1    3    3    0    0 -0.22737151741E+02  0.50634787149E+01 -0.15884240294E+03  0.16054135248E+03  0.00000000000E+00 0.  1.
          3    1    3    3  501    0 -0.79893471868E+01  0.92988551620E+00 -0.67810737099E+02  0.68286092445E+02  0.00000000000E+00 0.  1.
         -1    1    1    2    0  502  0.30726498928E+02 -0.59933642311E+01 -0.77194244438E+03  0.77257697065E+03  0.00000000000E+00 0. -1.
<mgrwt>
<rscale>  1 0.30000000E+03</rscale>
<asrwt>0</asrwt>
<pdfrwt beam="1">  1       21 0.51069765E-02 0.30000000E+03</pdfrwt>
<pdfrwt beam="2">0</pdfrwt>
<totfact> 0.27783134E+04</totfact>
</mgrwt>
</event>
<event>
 6    1  0.6513574E-002  0.3000000E+03  0.7818608E-02  0.1093470E+00
         21   -1    0    0  501  502  0.00000000000E+00  0.00000000000E+00  0.10583052625E+01  0.10583052625E+01  0.00000000000E+00 0. -1.
         13   -1    0    0    0    0 -0.00000000000E+00 -0.00000000000E+00 -0.10000000000E+04  0.10000000000E+04  0.00000000000E+00 0.  1.
    9000005    2    1    2  501    0  0.31892364462E+02  0.59003954593E+01 -0.51804166579E+03  0.51906579970E+03  0.31936413799E+01 0.  0.
         13    1    3    3    0    0  0.30739346766E+01  0.13666176062E+01 -0.45156064444E+02  0.45281197799E+02  0.00000000000E+00 0.  1.
          3    1    3    3  501    0  0.28818429785E+02  0.45337778531E+01 -0.47288560135E+03  0.47378460190E+03  0.00000000000E+00 0.  1.
         -1    1    1    2    0  502 -0.31892364462E+02 -0.59003954593E+01 -0.48090002895E+03  0.48199250556E+03  0.00000000000E+00 0. -1.
<mgrwt>
<rscale>  1 0.30000000E+03</rscale>
<asrwt>0</asrwt>
<pdfrwt beam="1">  1       21 0.38483909E-02 0.30000000E+03</pdfrwt>
<pdfrwt beam="2">0</pdfrwt>
<totfact> 0.44871620E+04</totfact>
</mgrwt>
</event>
<event>
 6    1  0.6513574E-002  0.3000000E+03  0.7818608E-02  0.1093470E+00
         21   -1    0    0  501  502  0.00000000000E+00  0.00000000000E+00  0.40083603840E+01  0.40083603840E+01  0.00000000000E+00 0. -1.
         13   -1    0    0    0    0 -0.00000000000E+00 -0.00000000000E+00 -0.10000000000E+04  0.10000000000E+04  0.00000000000E+00 0.  1.
    9000005    2    1    2  501    0  0.31255654718E+02 -0.38946079871E+02 -0.19192713256E+03  0.19839465358E+03  0.55408723009E+01 0.  0.
         13    1    3    3    0    0  0.30788999104E+02 -0.38931961222E+02 -0.18807899694E+03  0.19451830032E+03  0.00000000000E+00 0.  1.
          3    1    3    3  501    0  0.46665561433E+00 -0.14118649194E-01 -0.38481356267E+01  0.38763532605E+01  0.00000000000E+00 0.  1.
         -1    1    1    2    0  502 -0.31255654718E+02  0.38946079871E+02 -0.80406450705E+03  0.80561370680E+03  0.00000000000E+00 0. -1.
<mgrwt>
<rscale>  1 0.30000000E+03</rscale>
<asrwt>0</asrwt>
<pdfrwt beam="1">  1       21 0.14575887E-01 0.30000000E+03</pdfrwt>
<pdfrwt beam="2">0</pdfrwt>
<totfact> 0.43421723E+03</totfact>
</mgrwt>
</event>
<event>
 6    1  0.6513574E-002  0.3000000E+03  0.7818608E-02  0.1093470E+00
         21   -1    0    0  501  502  0.00000000000E+00  0.00000000000E+00  0.15433025943E+01  0.15433025943E+01  0.00000000000E+00 0. -1.
         13   -1    0    0    0    0 -0.00000000000E+00 -0.00000000000E+00 -0.10000000000E+04  0.10000000000E+04  0.00000000000E+00 0.  1.
    9000005    2    1    2  501    0 -0.28330449715E+02  0.25901880865E+02 -0.39671115728E+03  0.39857463270E+03  0.29109633792E+01 0.  0.
         13    1    3    3    0    0 -0.37693765422E+01  0.26008636733E+01 -0.40425575880E+02  0.40684147731E+02  0.00000000000E+00 0.  1.
          1    1    3    3  501    0 -0.24561073172E+02  0.23301017192E+02 -0.35628558140E+03  0.35789048497E+03  0.00000000000E+00 0.  1.
         -1    1    1    2    0  502  0.28330449715E+02 -0.25901880865E+02 -0.60174554012E+03  0.60296866989E+03  0.00000000000E+00 0. -1.
<mgrwt>
<rscale>  1 0.30000000E+03</rscale>
<asrwt>0</asrwt>
<pdfrwt beam="1">  1       21 0.56120213E-02 0.30000000E+03</pdfrwt>
<pdfrwt beam="2">0</pdfrwt>
<totfact> 0.23641845E+04</totfact>
</mgrwt>
</event>
<event>
 6    1  0.6513574E-002  0.3000000E+03  0.7818608E-02  0.1093470E+00
         21   -1    0    0  501  502  0.00000000000E+00  0.00000000000E+00  0.12872749371E+01  0.12872749371E+01  0.00000000000E+00 0. -1.
         13   -1    0    0    0    0 -0.00000000000E+00 -0.00000000000E+00 -0.10000000000E+04  0.10000000000E+04  0.00000000000E+00 0.  1.
    9000005    2    1    2  501    0  0.18973990327E+01 -0.34877394716E+02 -0.60983349471E+03  0.61084254314E+03  0.34188388054E+01 0.  0.
         13    1    3    3    0    0  0.61726098797E+00 -0.30739224641E+02 -0.52769533641E+03  0.52859024680E+03  0.00000000000E+00 0.  1.
          3    1    3    3  501    0  0.12801380447E+01 -0.41381700754E+01 -0.82138158298E+02  0.82252296342E+02  0.00000000000E+00 0.  1.
         -1    1    1    2    0  502 -0.18973990327E+01  0.34877394716E+02 -0.38887923036E+03  0.39044473180E+03  0.00000000000E+00 0. -1.
<mgrwt>
<rscale>  1 0.30000000E+03</rscale>
<asrwt>0</asrwt>
<pdfrwt beam="1">  1       21 0.46810096E-02 0.30000000E+03</pdfrwt>
<pdfrwt beam="2">0</pdfrwt>
<totfact> 0.32225384E+04</totfact>
</mgrwt>
</event>
<event>
 6    1  0.6513574E-002  0.3000000E+03  0.7818608E-02  0.1093470E+00
         21   -1    0    0  501  502  0.00000000000E+00  0.00000000000E+00  0.44809732807E+01  0.44809732807E+01  0.00000000000E+00 0. -1.
         13   -1    0    0    0    0 -0.00000000000E+00 -0.00000000000E+00 -0.10000000000E+04  0.10000000000E+04  0.00000000000E+00 0.  1.
    9000005    2    1    2  501    0  0.53075980637E+02 -0.15935596449E+02 -0.21683090726E+03  0.22382343611E+03  0.32070631604E+01 0.  0.
         13    1    3    3    0    0  0.17449697192E+02 -0.68200907408E+01 -0.72869741242E+02  0.75239648847E+02  0.00000000000E+00 0.  1.
          1    1    3    3  501    0  0.35626283445E+02 -0.91155057082E+01 -0.14396116602E+03  0.14858378726E+03  0.00000000000E+00 0.  1.
         -1    1    1    2    0  502 -0.53075980637E+02  0.15935596449E+02 -0.77868811946E+03  0.78065753717E+03  0.00000000000E+00 0. -1.
<mgrwt>
<rscale>  1 0.30000000E+03</rscale>
<asrwt>0</asrwt>
<pdfrwt beam="1">  1       21 0.16294483E-01 0.30000000E+03</pdfrwt>
<pdfrwt beam="2">0</pdfrwt>
<totfact> 0.35305033E+03</totfact>
</mgrwt>
</event>
<event>
 6    1  0.6513574E-002  0.3000000E+03  0.7818608E-02  0.1093470E+00
         21   -1    0    0  501  502  0.00000000000E+00  0.00000000000E+00  0.30401233852E+01  0.30401233852E+01  0.00000000000E+00 0. -1.
         13   -1    0    0    0    0 -0.00000000000E+00 -0.00000000000E+00 -0.10000000000E+04  0.10000000000E+04  0.00000000000E+00 0.  1.
    9000005    2    1    2  501    0  0.46799799478E+02  0.98012390344E+01 -0.74779326891E+03  0.74932712822E+03  0.31759328974E+01 0.  0.
         13    1    3    3    0    0  0.58225956650E+01  0.28048372008E+00 -0.98771907331E+02  0.98943776809E+02  0.00000000000E+00 0.  1.
          3    1    3    3  501    0  0.40977203813E+02  0.95207553143E+01 -0.64902136158E+03  0.65038335142E+03  0.00000000000E+00 0.  1.
         -1    1    1    2    0  502 -0.46799799478E+02 -0.98012390344E+01 -0.24916660771E+03  0.25371299516E+03  0.00000000000E+00 0. -1.
<mgrwt>
<rscale>  1 0.30000000E+03</rscale>
<asrwt>0</asrwt>
<pdfrwt beam="1">  1       21 0.11055017E-01 0.30000000E+03</pdfrwt>
<pdfrwt beam="2">0</pdfrwt>
<totfact> 0.71872054E+03</totfact>
</mgrwt>
</event>
<event>
 6    1  0.6513574E-002  0.3000000E+03  0.7818608E-02  0.1093470E+00
         21   -1    0    0  501  502  0.00000000000E+00  0.00000000000E+00  0.92005233262E+00  0.92005233262E+00  0.00000000000E+00 0. -1.
         13   -1    0    0    0    0 -0.00000000000E+00 -0.00000000000E+00 -0.10000000000E+04  0.10000000000E+04  0.00000000000E+00 0.  1.
    9000005    2    1    2  501    0  0.13692848176E+02 -0.26809365883E+02 -0.55082064335E+03  0.55165104594E+03  0.30428876836E+01 0.  0.
         13    1    3    3    0    0  0.69814549990E+01 -0.16007778479E+02 -0.29916555061E+03  0.29967485106E+03  0.00000000000E+00 0.  1.
          3    1    3    3  501    0  0.67113931765E+01 -0.10801587404E+02 -0.25165509274E+03  0.25197619489E+03  0.00000000000E+00 0.  1.
         -1    1    1    2    0  502 -0.13692848176E+02  0.26809365883E+02 -0.44825930432E+03  0.44926900639E+03  0.00000000000E+00 0. -1.
<mgrwt>
<rscale>  1 0.30000000E+03</rscale>
<asrwt>0</asrwt>
<pdfrwt beam="1">  1       21 0.33456519E-02 0.30000000E+03</pdfrwt>
<pdfrwt beam="2">0</pdfrwt>
<totfact> 0.56737698E+04</totfact>
</mgrwt>
</event>
<event>
 6    1  0.6908128E-002  0.3000000E+03  0.7818608E-02  0.1093470E+00
         21   -1    0    0  501  502  0.00000000000E+00  0.00000000000E+00  0.12233571028E+01  0.12233571028E+01  0.00000000000E+00 0. -1.
         13   -1    0    0    0    0 -0.00000000000E+00 -0.00000000000E+00 -0.10000000000E+04  0.10000000000E+04  0.00000000000E+00 0.  1.
    9000005    2    1    2  501    0  0.26479449453E+02 -0.21284251277E+02 -0.54884786348E+03  0.55001377482E+03  0.11269190288E+02 0.  0.
         13    1    3    3    0    0  0.26051029045E+02 -0.22332953676E+02 -0.54067876879E+03  0.54176650686E+03  0.00000000000E+00 0.  1.
          1    1    3    3  501    0  0.42842040739E+00  0.10487023989E+01 -0.81690946919E+01  0.82472679629E+01  0.00000000000E+00 0.  1.
         -3    1    1    2    0  502 -0.26479449453E+02  0.21284251277E+02 -0.44992877941E+03  0.45120958228E+03  0.00000000000E+00 0. -1.
<mgrwt>
<rscale>  1 0.30000000E+03</rscale>
<asrwt>0</asrwt>
<pdfrwt beam="1">  1       21 0.44485807E-02 0.30000000E+03</pdfrwt>
<pdfrwt beam="2">0</pdfrwt>
<totfact> 0.35136452E+04</totfact>
</mgrwt>
</event>
<event>
 6    1  0.6513574E-002  0.3000000E+03  0.7818608E-02  0.1093470E+00
         21   -1    0    0  501  502  0.00000000000E+00  0.00000000000E+00  0.15242624590E+01  0.15242624590E+01  0.00000000000E+00 0. -1.
         13   -1    0    0    0    0 -0.00000000000E+00 -0.00000000000E+00 -0.10000000000E+04  0.10000000000E+04  0.00000000000E+00 0.  1.
    9000005    2    1    2  501    0  0.11288224992E+02  0.36404505269E+02 -0.60459524043E+03  0.60580395968E+03  0.32125979561E+01 0.  0.
         13    1    3    3    0    0  0.77120139160E+01  0.21141260798E+02 -0.33825836828E+03  0.33900612351E+03  0.00000000000E+00 0.  1.
          1    1    3    3  501    0  0.35762110761E+01  0.15263244471E+02 -0.26633687215E+03  0.26679783617E+03  0.00000000000E+00 0.  1.
         -1    1    1    2    0  502 -0.11288224992E+02 -0.36404505269E+02 -0.39388049711E+03  0.39572030278E+03  0.00000000000E+00 0. -1.
<mgrwt>
<rscale>  1 0.30000000E+03</rscale>
<asrwt>0</asrwt>
<pdfrwt beam="1">  1       21 0.55427843E-02 0.30000000E+03</pdfrwt>
<pdfrwt beam="2">0</pdfrwt>
<totfact> 0.24151025E+04</totfact>
</mgrwt>
</event>
<event>
 6    1  0.6513574E-002  0.3000000E+03  0.7818608E-02  0.1093470E+00
         21   -1    0    0  501  502  0.00000000000E+00  0.00000000000E+00  0.19156334186E+01  0.19156334186E+01  0.00000000000E+00 0. -1.
         13   -1    0    0    0    0 -0.00000000000E+00 -0.00000000000E+00 -0.10000000000E+04  0.10000000000E+04  0.00000000000E+00 0.  1.
    9000005    2    1    2  501    0  0.15429015283E+02  0.34041945068E+02 -0.24042950196E+03  0.24333946558E+03  0.32926519265E+01 0.  0.
         13    1    3    3    0    0  0.44245373913E+01  0.13165402850E+02 -0.93955960320E+02  0.94976980595E+02  0.00000000000E+00 0.  1.
          1    1    3    3  501    0  0.11004477892E+02  0.20876542218E+02 -0.14647354164E+03  0.14836248498E+03  0.00000000000E+00 0.  1.
         -3    1    1    2    0  502 -0.15429015283E+02 -0.34041945068E+02 -0.75765486462E+03  0.75857616784E+03  0.00000000000E+00 0. -1.
<mgrwt>
<rscale>  1 0.30000000E+03</rscale>
<asrwt>0</asrwt>
<pdfrwt beam="1">  1       21 0.69659544E-02 0.30000000E+03</pdfrwt>
<pdfrwt beam="2">0</pdfrwt>
<totfact> 0.16272751E+04</totfact>
</mgrwt>
</event>
<event>
 6    1  0.6513574E-002  0.3000000E+03  0.7818608E-02  0.1093470E+00
         21   -1    0    0  501  502  0.00000000000E+00  0.00000000000E+00  0.15945030389E+01  0.15945030389E+01  0.00000000000E+00 0. -1.
         13   -1    0    0    0    0 -0.00000000000E+00 -0.00000000000E+00 -0.10000000000E+04  0.10000000000E+04  0.00000000000E+00 0.  1.
    9000005    2    1    2  501    0  0.30771342538E+02 -0.17356550957E+01 -0.81712274985E+03  0.81771051129E+03  0.33172182347E+01 0.  0.
         13    1    3    3    0    0  0.27234402037E+02 -0.46793255526E+00 -0.72145553725E+03  0.72196954496E+03  0.00000000000E+00 0.  1.
          3    1    3    3  501    0  0.35369405011E+01 -0.12677225404E+01 -0.95667212597E+02  0.95740966334E+02  0.00000000000E+00 0.  1.
         -1    1    1    2    0  502 -0.30771342538E+02  0.17356550957E+01 -0.18128274711E+03  0.18388399175E+03  0.00000000000E+00 0. -1.
<mgrwt>
<rscale>  1 0.30000000E+03</rscale>
<asrwt>0</asrwt>
<pdfrwt beam="1">  1       21 0.57982051E-02 0.30000000E+03</pdfrwt>
<pdfrwt beam="2">0</pdfrwt>
<totfact> 0.22351483E+04</totfact>
</mgrwt>
</event>
<event>
 6    1  0.6513574E-002  0.3000000E+03  0.7818608E-02  0.1093470E+00
         21   -1    0    0  501  502  0.00000000000E+00  0.00000000000E+00  0.18412618775E+01  0.18412618775E+01  0.00000000000E+00 0. -1.
         13   -1    0    0    0    0 -0.00000000000E+00 -0.00000000000E+00 -0.10000000000E+04  0.10000000000E+04  0.00000000000E+00 0.  1.
    9000005    2    1    2  501    0 -0.36462097420E+02  0.85169825434E+01 -0.25659242551E+03  0.25933023870E+03  0.32367166475E+01 0.  0.
         13    1    3    3    0    0 -0.35044712300E+02  0.75084326529E+01 -0.24544834373E+03  0.24805120008E+03  0.00000000000E+00 0.  1.
          3    1    3    3  501    0 -0.14173851199E+01  0.10085498904E+01 -0.11144081783E+02  0.11279038622E+02  0.00000000000E+00 0.  1.
         -3    1    1    2    0  502  0.36462097420E+02 -0.85169825434E+01 -0.74156631261E+03  0.74251102318E+03  0.00000000000E+00 0. -1.
<mgrwt>
<rscale>  1 0.30000000E+03</rscale>
<asrwt>0</asrwt>
<pdfrwt beam="1">  1       21 0.66955119E-02 0.30000000E+03</pdfrwt>
<pdfrwt beam="2">0</pdfrwt>
<totfact> 0.17431431E+04</totfact>
</mgrwt>
</event>
<event>
 6    1  0.6513574E-002  0.3000000E+03  0.7818608E-02  0.1093470E+00
         21   -1    0    0  501  502  0.00000000000E+00  0.00000000000E+00  0.23664380186E+01  0.23664380186E+01  0.00000000000E+00 0. -1.
         13   -1    0    0    0    0 -0.00000000000E+00 -0.00000000000E+00 -0.10000000000E+04  0.10000000000E+04  0.00000000000E+00 0.  1.
    9000005    2    1    2  501    0  0.89136187942E+01  0.45197748388E+02 -0.65901026874E+03  0.66062381003E+03  0.26448087719E+01 0.  0.
         13    1    3    3    0    0  0.85882658661E+01  0.44718463745E+02 -0.65297384347E+03  0.65455965317E+03  0.00000000000E+00 0.  1.
          1    1    3    3  501    0  0.32535292813E+00  0.47928464310E+00 -0.60364252722E+01  0.60641568552E+01  0.00000000000E+00 0.  1.
         -3    1    1    2    0  502 -0.89136187942E+01 -0.45197748388E+02 -0.33862329324E+03  0.34174262799E+03  0.00000000000E+00 0. -1.
<mgrwt>
<rscale>  1 0.30000000E+03</rscale>
<asrwt>0</asrwt>
<pdfrwt beam="1">  1       21 0.86052473E-02 0.30000000E+03</pdfrwt>
<pdfrwt beam="2">0</pdfrwt>
<totfact> 0.11234690E+04</totfact>
</mgrwt>
</event>
<event>
 6    1  0.6513574E-002  0.3000000E+03  0.7818608E-02  0.1093470E+00
         21   -1    0    0  501  502  0.00000000000E+00  0.00000000000E+00  0.14715671952E+01  0.14715671952E+01  0.00000000000E+00 0. -1.
         13   -1    0    0    0    0 -0.00000000000E+00 -0.00000000000E+00 -0.10000000000E+04  0.10000000000E+04  0.00000000000E+00 0.  1.
    9000005    2    1    2  501    0 -0.34695107794E+02 -0.14964725458E+02 -0.42065333970E+03  0.42236249566E+03  0.36265713581E+01 0.  0.
         13    1    3    3    0    0 -0.91103636087E+01 -0.35473023940E+01 -0.92441714266E+02  0.92957262308E+02  0.00000000000E+00 0.  1.
          3    1    3    3  501    0 -0.25584744185E+02 -0.11417423064E+02 -0.32821162544E+03  0.32940523335E+03  0.00000000000E+00 0.  1.
         -3    1    1    2    0  502  0.34695107794E+02  0.14964725458E+02 -0.57787509310E+03  0.57910907154E+03  0.00000000000E+00 0. -1.
<mgrwt>
<rscale>  1 0.30000000E+03</rscale>
<asrwt>0</asrwt>
<pdfrwt beam="1">  1       21 0.53511647E-02 0.30000000E+03</pdfrwt>
<pdfrwt beam="2">0</pdfrwt>
<totfact> 0.25651746E+04</totfact>
</mgrwt>
</event>
<event>
 6    1  0.6513574E-002  0.3000000E+03  0.7818608E-02  0.1093470E+00
         21   -1    0    0  501  502  0.00000000000E+00  0.00000000000E+00  0.27360806780E+01  0.27360806780E+01  0.00000000000E+00 0. -1.
         13   -1    0    0    0    0 -0.00000000000E+00 -0.00000000000E+00 -0.10000000000E+04  0.10000000000E+04  0.00000000000E+00 0.  1.
    9000005    2    1    2  501    0  0.23717945441E+02 -0.39025481797E+02 -0.74288787062E+03  0.74429323725E+03  0.21226252244E+01 0.  0.
         13    1    3    3    0    0  0.17328782513E+02 -0.27490916310E+02 -0.51516307142E+03  0.51618700811E+03  0.00000000000E+00 0.  1.
          3    1    3    3  501    0  0.63891629275E+01 -0.11534565487E+02 -0.22772479919E+03  0.22810622914E+03  0.00000000000E+00 0.  1.
         -1    1    1    2    0  502 -0.23717945441E+02  0.39025481797E+02 -0.25437604870E+03  0.25844284343E+03  0.00000000000E+00 0. -1.
<mgrwt>
<rscale>  1 0.30000000E+03</rscale>
<asrwt>0</asrwt>
<pdfrwt beam="1">  1       21 0.99494053E-02 0.30000000E+03</pdfrwt>
<pdfrwt beam="2">0</pdfrwt>
<totfact> 0.86815145E+03</totfact>
</mgrwt>
</event>
<event>
 6    1  0.6513574E-002  0.3000000E+03  0.7818608E-02  0.1093470E+00
         21   -1    0    0  501  502  0.00000000000E+00  0.00000000000E+00  0.19801932569E+01  0.19801932569E+01  0.00000000000E+00 0. -1.
         13   -1    0    0    0    0 -0.00000000000E+00 -0.00000000000E+00 -0.10000000000E+04  0.10000000000E+04  0.00000000000E+00 0.  1.
    9000005    2    1    2  501    0  0.29272004264E+02  0.24272892256E+02 -0.75853994888E+03  0.75950003767E+03  0.33807749373E+01 0.  0.
         13    1    3    3    0    0  0.21897685928E+02  0.16515646595E+02 -0.52848564515E+03  0.52919689375E+03  0.00000000000E+00 0.  1.
          3    1    3    3  501    0  0.73743183359E+01  0.77572456615E+01 -0.23005430373E+03  0.23030314392E+03  0.00000000000E+00 0.  1.
         -3    1    1    2    0  502 -0.29272004264E+02 -0.24272892256E+02 -0.23947985786E+03  0.24248015559E+03  0.00000000000E+00 0. -1.
<mgrwt>
<rscale>  1 0.30000000E+03</rscale>
<asrwt>0</asrwt>
<pdfrwt beam="1">  1       21 0.72007179E-02 0.30000000E+03</pdfrwt>
<pdfrwt beam="2">0</pdfrwt>
<totfact> 0.15359742E+04</totfact>
</mgrwt>
</event>
<event>
 6    1  0.6513574E-002  0.3000000E+03  0.7818608E-02  0.1093470E+00
         21   -1    0    0  501  502  0.00000000000E+00  0.00000000000E+00  0.48451372718E+01  0.48451372718E+01  0.00000000000E+00 0. -1.
         13   -1    0    0    0    0 -0.00000000000E+00 -0.00000000000E+00 -0.10000000000E+04  0.10000000000E+04  0.00000000000E+00 0.  1.
    9000005    2    1    2  501    0 -0.49443806158E+02  0.21360889118E+02 -0.18216040733E+03  0.19006850404E+03  0.65302892976E+01 0.  0.
         13    1    3    3    0    0 -0.28459902898E+02  0.15704112693E+02 -0.11148971478E+03  0.11613157077E+03  0.00000000000E+00 0.  1.
          1    1    3    3  501    0 -0.20983903260E+02  0.56567764247E+01 -0.70670692551E+02  0.73936933269E+02  0.00000000000E+00 0.  1.
         -1    1    1    2    0  502  0.49443806158E+02 -0.21360889118E+02 -0.81299445540E+03  0.81477663323E+03  0.00000000000E+00 0. -1.
<mgrwt>
<rscale>  1 0.30000000E+03</rscale>
<asrwt>0</asrwt>
<pdfrwt beam="1">  1       21 0.17618718E-01 0.30000000E+03</pdfrwt>
<pdfrwt beam="2">0</pdfrwt>
<totfact> 0.30499590E+03</totfact>
</mgrwt>
</event>
<event>
 6    1  0.6513574E-002  0.3000000E+03  0.7818608E-02  0.1093470E+00
         21   -1    0    0  501  502  0.00000000000E+00  0.00000000000E+00  0.21472399162E+01  0.21472399162E+01  0.00000000000E+00 0. -1.
         13   -1    0    0    0    0 -0.00000000000E+00 -0.00000000000E+00 -0.10000000000E+04  0.10000000000E+04  0.00000000000E+00 0.  1.
    9000005    2    1    2  501    0  0.43998958332E+02 -0.34396837559E+01 -0.34861302823E+03  0.35140922107E+03  0.31076422494E+01 0.  0.
         13    1    3    3    0    0  0.39612011114E+02 -0.40272733738E+01 -0.31346007593E+03  0.31597871694E+03  0.00000000000E+00 0.  1.
          3    1    3    3  501    0  0.43869472181E+01  0.58758961795E+00 -0.35152952299E+02  0.35430504129E+02  0.00000000000E+00 0.  1.
         -1    1    1    2    0  502 -0.43998958332E+02  0.34396837559E+01 -0.64923973185E+03  0.65073801885E+03  0.00000000000E+00 0. -1.
<mgrwt>
<rscale>  1 0.30000000E+03</rscale>
<asrwt>0</asrwt>
<pdfrwt beam="1">  1       21 0.78081616E-02 0.30000000E+03</pdfrwt>
<pdfrwt beam="2">0</pdfrwt>
<totfact> 0.13329851E+04</totfact>
</mgrwt>
</event>
<event>
 6    1  0.6513574E-002  0.3000000E+03  0.7818608E-02  0.1093470E+00
         21   -1    0    0  501  502  0.00000000000E+00  0.00000000000E+00  0.13771150766E+01  0.13771150766E+01  0.00000000000E+00 0. -1.
         13   -1    0    0    0    0 -0.00000000000E+00 -0.00000000000E+00 -0.10000000000E+04  0.10000000000E+04  0.00000000000E+00 0.  1.
    9000005    2    1    2  501    0 -0.12577375125E+02 -0.28635297287E+02 -0.76799968748E+03  0.76864286789E+03  0.31886939111E+01 0.  0.
         13    1    3    3    0    0 -0.10867767122E+02 -0.25202903079E+02 -0.69629589973E+03  0.69683661978E+03  0.00000000000E+00 0.  1.
          1    1    3    3  501    0 -0.17096080033E+01 -0.34323942089E+01 -0.71703787752E+02  0.71806248109E+02  0.00000000000E+00 0.  1.
         -3    1    1    2    0  502  0.12577375125E+02  0.28635297287E+02 -0.23062319744E+03  0.23273424719E+03  0.00000000000E+00 0. -1.
<mgrwt>
<rscale>  1 0.30000000E+03</rscale>
<asrwt>0</asrwt>
<pdfrwt beam="1">  1       21 0.50077017E-02 0.30000000E+03</pdfrwt>
<pdfrwt beam="2">0</pdfrwt>
<totfact> 0.28729172E+04</totfact>
</mgrwt>
</event>
<event>
 6    1  0.6513574E-002  0.3000000E+03  0.7818608E-02  0.1093470E+00
         21   -1    0    0  501  502  0.00000000000E+00  0.00000000000E+00  0.96513300144E+00  0.96513300144E+00  0.00000000000E+00 0. -1.
         13   -1    0    0    0    0 -0.00000000000E+00 -0.00000000000E+00 -0.10000000000E+04  0.10000000000E+04  0.00000000000E+00 0.  1.
    9000005    2    1    2  501    0  0.27750862151E+02 -0.13850821170E+02 -0.49136544916E+03  0.49234917434E+03  0.23977587816E+01 0.  0.
         13    1    3    3    0    0  0.94183898929E+01 -0.54942407819E+01 -0.18702446257E+03  0.18734204640E+03  0.00000000000E+00 0.  1.
          3    1    3    3  501    0  0.18332472258E+02 -0.83565803886E+01 -0.30434098659E+03  0.30500712794E+03  0.00000000000E+00 0.  1.
         -1    1    1    2    0  502 -0.27750862151E+02  0.13850821170E+02 -0.50766941784E+03  0.50861595866E+03  0.00000000000E+00 0. -1.
<mgrwt>
<rscale>  1 0.30000000E+03</rscale>
<asrwt>0</asrwt>
<pdfrwt beam="1">  1       21 0.35095820E-02 0.30000000E+03</pdfrwt>
<pdfrwt beam="2">0</pdfrwt>
<totfact> 0.52376458E+04</totfact>
</mgrwt>
</event>
<event>
 6    1  0.6513574E-002  0.3000000E+03  0.7818608E-02  0.1093470E+00
         21   -1    0    0  501  502  0.00000000000E+00  0.00000000000E+00  0.11143362134E+01  0.11143362134E+01  0.00000000000E+00 0. -1.
         13   -1    0    0    0    0 -0.00000000000E+00 -0.00000000000E+00 -0.10000000000E+04  0.10000000000E+04  0.00000000000E+00 0.  1.
    9000005    2    1    2  501    0 -0.31409123510E+02 -0.32681718065E+01 -0.34166452671E+03  0.34313497711E+03  0.31224537362E+01 0.  0.
         13    1    3    3    0    0 -0.56765541791E+00 -0.33301960475E+00 -0.11957403778E+02  0.11975501653E+02  0.00000000000E+00 0.  1.
          3    1    3    3  501    0 -0.30841468092E+02 -0.29351522018E+01 -0.32970712293E+03  0.33115947546E+03  0.00000000000E+00 0.  1.
         -1    1    1    2    0  502  0.31409123510E+02  0.32681718065E+01 -0.65722113707E+03  0.65797935910E+03  0.00000000000E+00 0. -1.
<mgrwt>
<rscale>  1 0.30000000E+03</rscale>
<asrwt>0</asrwt>
<pdfrwt beam="1">  1       21 0.40521402E-02 0.30000000E+03</pdfrwt>
<pdfrwt beam="2">0</pdfrwt>
<totfact> 0.41139917E+04</totfact>
</mgrwt>
</event>
<event>
 6    1  0.6513574E-002  0.3000000E+03  0.7818608E-02  0.1093470E+00
         21   -1    0    0  501  502  0.00000000000E+00  0.00000000000E+00  0.12858628274E+01  0.12858628274E+01  0.00000000000E+00 0. -1.
         13   -1    0    0    0    0 -0.00000000000E+00 -0.00000000000E+00 -0.10000000000E+04  0.10000000000E+04  0.00000000000E+00 0.  1.
    9000005    2    1    2  501    0  0.42454542178E+01 -0.34415194489E+02 -0.62347483890E+03  0.62444775374E+03  0.34194904491E+01 0.  0.
         13    1    3    3    0    0  0.31236226184E+01 -0.27623538720E+02 -0.47402187402E+03  0.47483634440E+03  0.00000000000E+00 0.  1.
          1    1    3    3  501    0  0.11218315994E+01 -0.67916557693E+01 -0.14945296488E+03  0.14961140934E+03  0.00000000000E+00 0.  1.
         -1    1    1    2    0  502 -0.42454542178E+01  0.34415194489E+02 -0.37523929827E+03  0.37683810909E+03  0.00000000000E+00 0. -1.
<mgrwt>
<rscale>  1 0.30000000E+03</rscale>
<asrwt>0</asrwt>
<pdfrwt beam="1">  1       21 0.46758747E-02 0.30000000E+03</pdfrwt>
<pdfrwt beam="2">0</pdfrwt>
<totfact> 0.32285567E+04</totfact>
</mgrwt>
</event>
<event>
 6    1  0.6513574E-002  0.3000000E+03  0.7818608E-02  0.1093470E+00
         21   -1    0    0  501  502  0.00000000000E+00  0.00000000000E+00  0.95325467461E+00  0.95325467461E+00  0.00000000000E+00 0. -1.
         13   -1    0    0    0    0 -0.00000000000E+00 -0.00000000000E+00 -0.10000000000E+04  0.10000000000E+04  0.00000000000E+00 0.  1.
    9000005    2    1    2  501    0  0.26522009289E+02  0.14460667853E+02 -0.55225005598E+03  0.55313654049E+03  0.82085446827E+01 0.  0.
         13    1    3    3    0    0  0.60483665454E+01 -0.30238951210E+00 -0.11133590393E+03  0.11150048287E+03  0.00000000000E+00 0.  1.
          3    1    3    3  501    0  0.20473642744E+02  0.14763057365E+02 -0.44091415205E+03  0.44163605762E+03  0.00000000000E+00 0.  1.
         -3    1    1    2    0  502 -0.26522009289E+02 -0.14460667853E+02 -0.44679668935E+03  0.44781671418E+03  0.00000000000E+00 0. -1.
<mgrwt>
<rscale>  1 0.30000000E+03</rscale>
<asrwt>0</asrwt>
<pdfrwt beam="1">  1       21 0.34663879E-02 0.30000000E+03</pdfrwt>
<pdfrwt beam="2">0</pdfrwt>
<totfact> 0.53473615E+04</totfact>
</mgrwt>
</event>
<event>
 6    1  0.6513574E-002  0.3000000E+03  0.7818608E-02  0.1093470E+00
         21   -1    0    0  501  502  0.00000000000E+00  0.00000000000E+00  0.97537496635E+00  0.97537496635E+00  0.00000000000E+00 0. -1.
         13   -1    0    0    0    0 -0.00000000000E+00 -0.00000000000E+00 -0.10000000000E+04  0.10000000000E+04  0.00000000000E+00 0.  1.
    9000005    2    1    2  501    0  0.16409912140E+02  0.26459863701E+02 -0.50692424152E+03  0.50789100383E+03  0.34169472496E+01 0.  0.
         13    1    3    3    0    0  0.32891029910E+01  0.68933391979E+01 -0.14473885109E+03  0.14494023368E+03  0.00000000000E+00 0.  1.
          3    1    3    3  501    0  0.13120809149E+02  0.19566524503E+02 -0.36218539043E+03  0.36295077015E+03  0.00000000000E+00 0.  1.
         -1    1    1    2    0  502 -0.16409912140E+02 -0.26459863701E+02 -0.49210038352E+03  0.49308437114E+03  0.00000000000E+00 0. -1.
<mgrwt>
<rscale>  1 0.30000000E+03</rscale>
<asrwt>0</asrwt>
<pdfrwt beam="1">  1       21 0.35468255E-02 0.30000000E+03</pdfrwt>
<pdfrwt beam="2">0</pdfrwt>
<totfact> 0.51458257E+04</totfact>
</mgrwt>
</event>
<event>
 6    1  0.6513574E-002  0.3000000E+03  0.7818608E-02  0.1093470E+00
         21   -1    0    0  501  502  0.00000000000E+00  0.00000000000E+00  0.11763617582E+01  0.11763617582E+01  0.00000000000E+00 0. -1.
         13   -1    0    0    0    0 -0.00000000000E+00 -0.00000000000E+00 -0.10000000000E+04  0.10000000000E+04  0.00000000000E+00 0.  1.
    9000005    2    1    2  501    0 -0.16370454340E+02 -0.30064376123E+02 -0.49975403985E+03  0.50093409792E+03  0.30019376236E+01 0.  0.
         13    1    3    3    0    0 -0.11367550758E+02 -0.18403730879E+02 -0.30261583318E+03  0.30338797111E+03  0.00000000000E+00 0.  1.
          1    1    3    3  501    0 -0.50029035821E+01 -0.11660645244E+02 -0.19713820667E+03  0.19754612681E+03  0.00000000000E+00 0.  1.
         -3    1    1    2    0  502  0.16370454340E+02  0.30064376123E+02 -0.49906959839E+03  0.50024226383E+03  0.00000000000E+00 0. -1.
<mgrwt>
<rscale>  1 0.30000000E+03</rscale>
<asrwt>0</asrwt>
<pdfrwt beam="1">  1       21 0.42776881E-02 0.30000000E+03</pdfrwt>
<pdfrwt beam="2">0</pdfrwt>
<totfact> 0.37545571E+04</totfact>
</mgrwt>
</event>
<event>
 6    1  0.6513574E-002  0.3000000E+03  0.7818608E-02  0.1093470E+00
         21   -1    0    0  501  502  0.00000000000E+00  0.00000000000E+00  0.34490148354E+01  0.34490148354E+01  0.00000000000E+00 0. -1.
         13   -1    0    0    0    0 -0.00000000000E+00 -0.00000000000E+00 -0.10000000000E+04  0.10000000000E+04  0.00000000000E+00 0.  1.
    9000005    2    1    2  501    0 -0.14173591957E+02 -0.54710750648E+02 -0.36335121772E+03  0.36773201613E+03  0.29276827692E+01 0.  0.
         13    1    3    3    0    0 -0.12937983660E+02 -0.45746741424E+02 -0.30657703641E+03  0.31024125294E+03  0.00000000000E+00 0.  1.
          3    1    3    3  501    0 -0.12356082967E+01 -0.89640092235E+01 -0.56774181308E+02  0.57490763192E+02  0.00000000000E+00 0.  1.
         -3    1    1    2    0  502  0.14173591957E+02  0.54710750648E+02 -0.63319976745E+03  0.63571699870E+03  0.00000000000E+00 0. -1.
<mgrwt>
<rscale>  1 0.30000000E+03</rscale>
<asrwt>0</asrwt>
<pdfrwt beam="1">  1       21 0.12541899E-01 0.30000000E+03</pdfrwt>
<pdfrwt beam="2">0</pdfrwt>
<totfact> 0.57187294E+03</totfact>
</mgrwt>
</event>
<event>
 6    1  0.6513574E-002  0.3000000E+03  0.7818608E-02  0.1093470E+00
         21   -1    0    0  501  502  0.00000000000E+00  0.00000000000E+00  0.17947911597E+01  0.17947911597E+01  0.00000000000E+00 0. -1.
         13   -1    0    0    0    0 -0.00000000000E+00 -0.00000000000E+00 -0.10000000000E+04  0.10000000000E+04  0.00000000000E+00 0.  1.
    9000005    2    1    2  501    0  0.29933453204E+02 -0.28139044420E+02 -0.61871116610E+03  0.62008345269E+03  0.34876640644E+01 0.  0.
         13    1    3    3    0    0  0.81457124512E+01 -0.56848313080E+01 -0.14327074633E+03  0.14361468133E+03  0.00000000000E+00 0.  1.
          3    1    3    3  501    0  0.21787740752E+02 -0.22454213112E+02 -0.47544041977E+03  0.47646877136E+03  0.00000000000E+00 0.  1.
         -1    1    1    2    0  502 -0.29933453204E+02  0.28139044420E+02 -0.37949404274E+03  0.38171133847E+03  0.00000000000E+00 0. -1.
<mgrwt>
<rscale>  1 0.30000000E+03</rscale>
<asrwt>0</asrwt>
<pdfrwt beam="1">  1       21 0.65265271E-02 0.30000000E+03</pdfrwt>
<pdfrwt beam="2">0</pdfrwt>
<totfact> 0.18221088E+04</totfact>
</mgrwt>
</event>
<event>
 6    1  0.6513574E-002  0.3000000E+03  0.7818608E-02  0.1093470E+00
         21   -1    0    0  501  502  0.00000000000E+00  0.00000000000E+00  0.34017884893E+01  0.34017884893E+01  0.00000000000E+00 0. -1.
         13   -1    0    0    0    0 -0.00000000000E+00 -0.00000000000E+00 -0.10000000000E+04  0.10000000000E+04  0.00000000000E+00 0.  1.
    9000005    2    1    2  501    0  0.11388560122E+02  0.50799335288E+02 -0.72295255607E+03  0.72484799385E+03  0.58261557179E+01 0.  0.
         13    1    3    3    0    0  0.99249231303E+01  0.32922802149E+02 -0.49167419008E+03  0.49287516086E+03  0.00000000000E+00 0.  1.
          3    1    3    3  501    0  0.14636369914E+01  0.17876533139E+02 -0.23127836599E+03  0.23197283299E+03  0.00000000000E+00 0.  1.
         -1    1    1    2    0  502 -0.11388560122E+02 -0.50799335288E+02 -0.27364565544E+03  0.27855379464E+03  0.00000000000E+00 0. -1.
<mgrwt>
<rscale>  1 0.30000000E+03</rscale>
<asrwt>0</asrwt>
<pdfrwt beam="1">  1       21 0.12370166E-01 0.30000000E+03</pdfrwt>
<pdfrwt beam="2">0</pdfrwt>
<totfact> 0.58641240E+03</totfact>
</mgrwt>
</event>
<event>
 6    1  0.6513574E-002  0.3000000E+03  0.7818608E-02  0.1093470E+00
         21   -1    0    0  501  502  0.00000000000E+00  0.00000000000E+00  0.10069213144E+01  0.10069213144E+01  0.00000000000E+00 0. -1.
         13   -1    0    0    0    0 -0.00000000000E+00 -0.00000000000E+00 -0.10000000000E+04  0.10000000000E+04  0.00000000000E+00 0.  1.
    9000005    2    1    2  501    0  0.26542306837E+02  0.16412326066E+02 -0.57946868328E+03  0.58032345736E+03  0.41835114461E+01 0.  0.
         13    1    3    3    0    0  0.11331354401E+02  0.50825143203E+01 -0.25228927726E+03  0.25259475641E+03  0.00000000000E+00 0.  1.
          1    1    3    3  501    0  0.15210952436E+02  0.11329811746E+02 -0.32717940602E+03  0.32772870096E+03  0.00000000000E+00 0.  1.
         -3    1    1    2    0  502 -0.26542306837E+02 -0.16412326066E+02 -0.41952439541E+03  0.42068346395E+03  0.00000000000E+00 0. -1.
<mgrwt>
<rscale>  1 0.30000000E+03</rscale>
<asrwt>0</asrwt>
<pdfrwt beam="1">  1       21 0.36615398E-02 0.30000000E+03</pdfrwt>
<pdfrwt beam="2">0</pdfrwt>
<totfact> 0.48783407E+04</totfact>
</mgrwt>
</event>
<event>
 6    1  0.6513574E-002  0.3000000E+03  0.7818608E-02  0.1093470E+00
         21   -1    0    0  501  502  0.00000000000E+00  0.00000000000E+00  0.95867137573E+00  0.95867137573E+00  0.00000000000E+00 0. -1.
         13   -1    0    0    0    0 -0.00000000000E+00 -0.00000000000E+00 -0.10000000000E+04  0.10000000000E+04  0.00000000000E+00 0.  1.
    9000005    2    1    2  501    0  0.27118096274E+02 -0.13581126614E+02 -0.42422896938E+03  0.42534674787E+03  0.54588748016E+01 0.  0.
         13    1    3    3    0    0  0.19835948460E+02 -0.71572559572E+01 -0.28364727671E+03  0.28443007708E+03  0.00000000000E+00 0.  1.
          1    1    3    3  501    0  0.72821478134E+01 -0.64238706568E+01 -0.14058169267E+03  0.14091667079E+03  0.00000000000E+00 0.  1.
         -1    1    1    2    0  502 -0.27118096274E+02  0.13581126614E+02 -0.57481235924E+03  0.57561192350E+03  0.00000000000E+00 0. -1.
<mgrwt>
<rscale>  1 0.30000000E+03</rscale>
<asrwt>0</asrwt>
<pdfrwt beam="1">  1       21 0.34860851E-02 0.30000000E+03</pdfrwt>
<pdfrwt beam="2">0</pdfrwt>
<totfact> 0.52968906E+04</totfact>
</mgrwt>
</event>
<event>
 6    1  0.6513574E-002  0.3000000E+03  0.7818608E-02  0.1093470E+00
         21   -1    0    0  501  502  0.00000000000E+00  0.00000000000E+00  0.27597064344E+01  0.27597064344E+01  0.00000000000E+00 0. -1.
         13   -1    0    0    0    0 -0.00000000000E+00 -0.00000000000E+00 -0.10000000000E+04  0.10000000000E+04  0.00000000000E+00 0.  1.
    9000005    2    1    2  501    0 -0.13811848393E+02  0.40800100161E+02 -0.21276671777E+03  0.21710443442E+03  0.30403820817E+01 0.  0.
         13    1    3    3    0    0 -0.41283946318E+01  0.13540185076E+02 -0.63223420342E+02  0.64788742339E+02  0.00000000000E+00 0.  1.
          3    1    3    3  501    0 -0.96834537614E+01  0.27259915085E+02 -0.14954329743E+03  0.15231569208E+03  0.00000000000E+00 0.  1.
         -1    1    1    2    0  502  0.13811848393E+02 -0.40800100161E+02 -0.78447357579E+03  0.78565527201E+03  0.00000000000E+00 0. -1.
<mgrwt>
<rscale>  1 0.30000000E+03</rscale>
<asrwt>0</asrwt>
<pdfrwt beam="1">  1       21 0.10035317E-01 0.30000000E+03</pdfrwt>
<pdfrwt beam="2">0</pdfrwt>
<totfact> 0.85491665E+03</totfact>
</mgrwt>
</event>
<event>
 6    1  0.6513574E-002  0.3000000E+03  0.7818608E-02  0.1093470E+00
         21   -1    0    0  501  502  0.00000000000E+00  0.00000000000E+00  0.33508674266E+01  0.33508674266E+01  0.00000000000E+00 0. -1.
         13   -1    0    0    0    0 -0.00000000000E+00 -0.00000000000E+00 -0.10000000000E+04  0.10000000000E+04  0.00000000000E+00 0.  1.
    9000005    2    1    2  501    0 -0.36672332815E+02 -0.21677465715E+02 -0.83778917349E+03  0.83887819761E+03  0.33404653175E+01 0.  0.
         13    1    3    3    0    0 -0.78334278503E+01 -0.51818963023E+01 -0.16034149631E+03  0.16061634437E+03  0.00000000000E+00 0.  1.
          1    1    3    3  501    0 -0.28838904965E+02 -0.16495569412E+02 -0.67744767718E+03  0.67826185324E+03  0.00000000000E+00 0.  1.
         -3    1    1    2    0  502  0.36672332815E+02  0.21677465715E+02 -0.15885995909E+03  0.16447266981E+03  0.00000000000E+00 0. -1.
<mgrwt>
<rscale>  1 0.30000000E+03</rscale>
<asrwt>0</asrwt>
<pdfrwt beam="1">  1       21 0.12184998E-01 0.30000000E+03</pdfrwt>
<pdfrwt beam="2">0</pdfrwt>
<totfact> 0.60272640E+03</totfact>
</mgrwt>
</event>
<event>
 6    1  0.6513574E-002  0.3000000E+03  0.7818608E-02  0.1093470E+00
         21   -1    0    0  501  502  0.00000000000E+00  0.00000000000E+00  0.18582019499E+01  0.18582019499E+01  0.00000000000E+00 0. -1.
         13   -1    0    0    0    0 -0.00000000000E+00 -0.00000000000E+00 -0.10000000000E+04  0.10000000000E+04  0.00000000000E+00 0.  1.
    9000005    2    1    2  501    0 -0.22789257087E+02 -0.33661416236E+02 -0.33533913638E+03  0.33781015437E+03  0.33049695767E+01 0.  0.
         13    1    3    3    0    0 -0.18526204738E+02 -0.29417838964E+02 -0.28751062316E+03  0.28960488245E+03  0.00000000000E+00 0.  1.
          3    1    3    3  501    0 -0.42630523492E+01 -0.42435772717E+01 -0.47828513227E+02  0.48205271920E+02  0.00000000000E+00 0.  1.
         -1    1    1    2    0  502  0.22789257087E+02  0.33661416236E+02 -0.66280266167E+03  0.66404804758E+03  0.00000000000E+00 0. -1.
<mgrwt>
<rscale>  1 0.30000000E+03</rscale>
<asrwt>0</asrwt>
<pdfrwt beam="1">  1       21 0.67571122E-02 0.30000000E+03</pdfrwt>
<pdfrwt beam="2">0</pdfrwt>
<totfact> 0.17156618E+04</totfact>
</mgrwt>
</event>
<event>
 6    1  0.6513574E-002  0.3000000E+03  0.7818608E-02  0.1093470E+00
         21   -1    0    0  501  502  0.00000000000E+00  0.00000000000E+00  0.13396546924E+01  0.13396546924E+01  0.00000000000E+00 0. -1.
         13   -1    0    0    0    0 -0.00000000000E+00 -0.00000000000E+00 -0.10000000000E+04  0.10000000000E+04  0.00000000000E+00 0.  1.
    9000005    2    1    2  501    0 -0.32644030987E+02 -0.10677084776E+02 -0.67114171038E+03  0.67202507997E+03  0.26229375171E+01 0.  0.
         13    1    3    3    0    0 -0.29304208307E+02 -0.89218008917E+01 -0.60713042954E+03  0.60790270079E+03  0.00000000000E+00 0.  1.
          1    1    3    3  501    0 -0.33398226806E+01 -0.17552838842E+01 -0.64011280835E+02  0.64122379176E+02  0.00000000000E+00 0.  1.
         -3    1    1    2    0  502  0.32644030987E+02  0.10677084776E+02 -0.32751863493E+03  0.32931457472E+03  0.00000000000E+00 0. -1.
<mgrwt>
<rscale>  1 0.30000000E+03</rscale>
<asrwt>0</asrwt>
<pdfrwt beam="1">  1       21 0.48714819E-02 0.30000000E+03</pdfrwt>
<pdfrwt beam="2">0</pdfrwt>
<totfact> 0.30111291E+04</totfact>
</mgrwt>
</event>
<event>
 6    1  0.6513574E-002  0.3000000E+03  0.7818608E-02  0.1093470E+00
         21   -1    0    0  501  502  0.00000000000E+00  0.00000000000E+00  0.18270046003E+01  0.18270046003E+01  0.00000000000E+00 0. -1.
         13   -1    0    0    0    0 -0.00000000000E+00 -0.00000000000E+00 -0.10000000000E+04  0.10000000000E+04  0.00000000000E+00 0.  1.
    9000005    2    1    2  501    0  0.18660280262E+02  0.29201172541E+02 -0.20776638336E+03  0.21066107580E+03  0.32100258194E+01 0.  0.
         13    1    3    3    0    0  0.76425855764E+01  0.12607728255E+02 -0.97871378665E+02  0.98975606529E+02  0.00000000000E+00 0.  1.
          1    1    3    3  501    0  0.11017694686E+02  0.16593444286E+02 -0.10989500470E+03  0.11168546927E+03  0.00000000000E+00 0.  1.
         -3    1    1    2    0  502 -0.18660280262E+02 -0.29201172541E+02 -0.79040661204E+03  0.79116592880E+03  0.00000000000E+00 0. -1.
<mgrwt>
<rscale>  1 0.30000000E+03</rscale>
<asrwt>0</asrwt>
<pdfrwt beam="1">  1       21 0.66436671E-02 0.30000000E+03</pdfrwt>
<pdfrwt beam="2">0</pdfrwt>
<totfact> 0.17668004E+04</totfact>
</mgrwt>
</event>
<event>
 6    1  0.6513574E-002  0.3000000E+03  0.7818608E-02  0.1093470E+00
         21   -1    0    0  501  502  0.00000000000E+00  0.00000000000E+00  0.11393838430E+01  0.11393838430E+01  0.00000000000E+00 0. -1.
         13   -1    0    0    0    0 -0.00000000000E+00 -0.00000000000E+00 -0.10000000000E+04  0.10000000000E+04  0.00000000000E+00 0.  1.
    9000005    2    1    2  501    0  0.21209702499E+02  0.23007236414E+02 -0.31471655511E+03  0.31628006934E+03  0.27180486385E+01 0.  0.
         13    1    3    3    0    0  0.12100453955E+02  0.14673915323E+02 -0.19894028378E+03  0.19984739499E+03  0.00000000000E+00 0.  1.
          1    1    3    3  501    0  0.91092485442E+01  0.83333210915E+01 -0.11577627134E+03  0.11643267434E+03  0.00000000000E+00 0.  1.
         -1    1    1    2    0  502 -0.21209702499E+02 -0.23007236414E+02 -0.68414406104E+03  0.68485931451E+03  0.00000000000E+00 0. -1.
<mgrwt>
<rscale>  1 0.30000000E+03</rscale>
<asrwt>0</asrwt>
<pdfrwt beam="1">  1       21 0.41432227E-02 0.30000000E+03</pdfrwt>
<pdfrwt beam="2">0</pdfrwt>
<totfact> 0.39626454E+04</totfact>
</mgrwt>
</event>
<event>
 6    1  0.6513574E-002  0.3000000E+03  0.7818608E-02  0.1093470E+00
         21   -1    0    0  501  502  0.00000000000E+00  0.00000000000E+00  0.11196039222E+01  0.11196039222E+01  0.00000000000E+00 0. -1.
         13   -1    0    0    0    0 -0.00000000000E+00 -0.00000000000E+00 -0.10000000000E+04  0.10000000000E+04  0.00000000000E+00 0.  1.
    9000005    2    1    2  501    0  0.60778196328E+00  0.32629310517E+02 -0.39653783658E+03  0.39789360955E+03  0.34680509808E+01 0.  0.
         13    1    3    3    0    0  0.18367079107E+01  0.10828003160E+02 -0.13216687259E+03  0.13262240142E+03  0.00000000000E+00 0.  1.
          3    1    3    3  501    0 -0.12289259474E+01  0.21801307357E+02 -0.26437096400E+03  0.26527120814E+03  0.00000000000E+00 0.  1.
         -3    1    1    2    0  502 -0.60778196328E+00 -0.32629310517E+02 -0.60234255949E+03  0.60322599437E+03  0.00000000000E+00 0. -1.
<mgrwt>
<rscale>  1 0.30000000E+03</rscale>
<asrwt>0</asrwt>
<pdfrwt beam="1">  1       21 0.40712956E-02 0.30000000E+03</pdfrwt>
<pdfrwt beam="2">0</pdfrwt>
<totfact> 0.40814218E+04</totfact>
</mgrwt>
</event>
<event>
 6    1  0.6513574E-002  0.3000000E+03  0.7818608E-02  0.1093470E+00
         21   -1    0    0  501  502  0.00000000000E+00  0.00000000000E+00  0.24891772155E+01  0.24891772155E+01  0.00000000000E+00 0. -1.
         13   -1    0    0    0    0 -0.00000000000E+00 -0.00000000000E+00 -0.10000000000E+04  0.10000000000E+04  0.00000000000E+00 0.  1.
    9000005    2    1    2  501    0  0.45248479646E+02  0.14818178664E+02 -0.64720847818E+03  0.64896585979E+03  0.32969097133E+01 0.  0.
         13    1    3    3    0    0  0.20659634715E+02  0.79431628963E+01 -0.31697702393E+03  0.31774887575E+03  0.00000000000E+00 0.  1.
          1    1    3    3  501    0  0.24588844931E+02  0.68750157674E+01 -0.33023145426E+03  0.33121698404E+03  0.00000000000E+00 0.  1.
         -1    1    1    2    0  502 -0.45248479646E+02 -0.14818178664E+02 -0.35030234460E+03  0.35352331742E+03  0.00000000000E+00 0. -1.
<mgrwt>
<rscale>  1 0.30000000E+03</rscale>
<asrwt>0</asrwt>
<pdfrwt beam="1">  1       21 0.90515726E-02 0.30000000E+03</pdfrwt>
<pdfrwt beam="2">0</pdfrwt>
<totfact> 0.10273533E+04</totfact>
</mgrwt>
</event>
<event>
 6    1  0.6513574E-002  0.3000000E+03  0.7818608E-02  0.1093470E+00
         21   -1    0    0  501  502  0.00000000000E+00  0.00000000000E+00  0.25676824910E+01  0.25676824910E+01  0.00000000000E+00 0. -1.
         13   -1    0    0    0    0 -0.00000000000E+00 -0.00000000000E+00 -0.10000000000E+04  0.10000000000E+04  0.00000000000E+00 0.  1.
    9000005    2    1    2  501    0  0.50363964000E+02 -0.39171179419E+00 -0.44978059508E+03  0.45260487340E+03  0.34504207837E+01 0.  0.
         13    1    3    3    0    0  0.96618223474E+01 -0.13056087188E+01 -0.81802270682E+02  0.82381229136E+02  0.00000000000E+00 0.  1.
          1    1    3    3  501    0  0.40702141653E+02  0.91389692463E+00 -0.36797832440E+03  0.37022364426E+03  0.00000000000E+00 0.  1.
         -3    1    1    2    0  502 -0.50363964000E+02  0.39171179419E+00 -0.54765172243E+03  0.54996280909E+03  0.00000000000E+00 0. -1.
<mgrwt>
<rscale>  1 0.30000000E+03</rscale>
<asrwt>0</asrwt>
<pdfrwt beam="1">  1       21 0.93370469E-02 0.30000000E+03</pdfrwt>
<pdfrwt beam="2">0</pdfrwt>
<totfact> 0.97225349E+03</totfact>
</mgrwt>
</event>
<event>
 6    1  0.6513574E-002  0.3000000E+03  0.7818608E-02  0.1093470E+00
         21   -1    0    0  501  502  0.00000000000E+00  0.00000000000E+00  0.18853909127E+01  0.18853909127E+01  0.00000000000E+00 0. -1.
         13   -1    0    0    0    0 -0.00000000000E+00 -0.00000000000E+00 -0.10000000000E+04  0.10000000000E+04  0.00000000000E+00 0.  1.
    9000005    2    1    2  501    0 -0.20596698069E+02  0.32166927896E+02 -0.73617004269E+03  0.73717065561E+03  0.39126098578E+01 0.  0.
         13    1    3    3    0    0 -0.18761998528E+02  0.30951148586E+02 -0.69260178768E+03  0.69354684231E+03  0.00000000000E+00 0.  1.
          1    1    3    3  501    0 -0.18346995407E+01  0.12157793098E+01 -0.43568255015E+02  0.43623813300E+02  0.00000000000E+00 0.  1.
         -1    1    1    2    0  502  0.20596698069E+02 -0.32166927896E+02 -0.26194456640E+03  0.26471473530E+03  0.00000000000E+00 0. -1.
<mgrwt>
<rscale>  1 0.30000000E+03</rscale>
<asrwt>0</asrwt>
<pdfrwt beam="1">  1       21 0.68559814E-02 0.30000000E+03</pdfrwt>
<pdfrwt beam="2">0</pdfrwt>
<totfact> 0.16729243E+04</totfact>
</mgrwt>
</event>
<event>
 6    1  0.6513574E-002  0.3000000E+03  0.7818608E-02  0.1093470E+00
         21   -1    0    0  501  502  0.00000000000E+00  0.00000000000E+00  0.99300556788E+00  0.99300556788E+00  0.00000000000E+00 0. -1.
         13   -1    0    0    0    0 -0.00000000000E+00 -0.00000000000E+00 -0.10000000000E+04  0.10000000000E+04  0.00000000000E+00 0.  1.
    9000005    2    1    2  501    0 -0.46562252757E+01 -0.30669719824E+02 -0.58338238428E+03  0.58421233338E+03  0.25946162586E+01 0.  0.
         13    1    3    3    0    0 -0.35831028476E+01 -0.27623899982E+02 -0.51252503823E+03  0.51328143673E+03  0.00000000000E+00 0.  1.
          1    1    3    3  501    0 -0.10731224280E+01 -0.30458198422E+01 -0.70857346049E+02  0.70930896649E+02  0.00000000000E+00 0.  1.
         -1    1    1    2    0  502  0.46562252757E+01  0.30669719824E+02 -0.41562461015E+03  0.41678067219E+03  0.00000000000E+00 0. -1.
<mgrwt>
<rscale>  1 0.30000000E+03</rscale>
<asrwt>0</asrwt>
<pdfrwt beam="1">  1       21 0.36109370E-02 0.30000000E+03</pdfrwt>
<pdfrwt beam="2">0</pdfrwt>
<totfact> 0.49935633E+04</totfact>
</mgrwt>
</event>
<event>
 6    1  0.6513574E-002  0.3000000E+03  0.7818608E-02  0.1093470E+00
         21   -1    0    0  501  502  0.00000000000E+00  0.00000000000E+00  0.27992984922E+01  0.27992984922E+01  0.00000000000E+00 0. -1.
         13   -1    0    0    0    0 -0.00000000000E+00 -0.00000000000E+00 -0.10000000000E+04  0.10000000000E+04  0.00000000000E+00 0.  1.
    9000005    2    1    2  501    0 -0.39518682841E+02 -0.28058618877E+02 -0.69894965250E+03  0.70063593106E+03  0.33284784314E+01 0.  0.
         13    1    3    3    0    0 -0.14239801091E+02 -0.85988094926E+01 -0.25400085483E+03  0.25454497778E+03  0.00000000000E+00 0.  1.
          1    1    3    3  501    0 -0.25278881750E+02 -0.19459809384E+02 -0.44494879768E+03  0.44609095328E+03  0.00000000000E+00 0.  1.
         -1    1    1    2    0  502  0.39518682841E+02  0.28058618877E+02 -0.29825104900E+03  0.30216336743E+03  0.00000000000E+00 0. -1.
<mgrwt>
<rscale>  1 0.30000000E+03</rscale>
<asrwt>0</asrwt>
<pdfrwt beam="1">  1       21 0.10179289E-01 0.30000000E+03</pdfrwt>
<pdfrwt beam="2">0</pdfrwt>
<totfact> 0.83341756E+03</totfact>
</mgrwt>
</event>
<event>
 6    1  0.6513574E-002  0.3000000E+03  0.7818608E-02  0.1093470E+00
         21   -1    0    0  501  502  0.00000000000E+00  0.00000000000E+00  0.10189741946E+01  0.10189741946E+01  0.00000000000E+00 0. -1.
         13   -1    0    0    0    0 -0.00000000000E+00 -0.00000000000E+00 -0.10000000000E+04  0.10000000000E+04  0.00000000000E+00 0.  1.
    9000005    2    1    2  501    0 -0.17916172831E+02  0.25203202927E+02 -0.38285773494E+03  0.38412019787E+03  0.34771424931E+01 0.  0.
         13    1    3    3    0    0 -0.44209874777E+01  0.45813849558E+01 -0.66575408660E+02  0.66879139174E+02  0.00000000000E+00 0.  1.
          3    1    3    3  501    0 -0.13495185353E+02  0.20621817971E+02 -0.31628232628E+03  0.31724105869E+03  0.00000000000E+00 0.  1.
         -3    1    1    2    0  502  0.17916172831E+02 -0.25203202927E+02 -0.61612329087E+03  0.61689877633E+03  0.00000000000E+00 0. -1.
<mgrwt>
<rscale>  1 0.30000000E+03</rscale>
<asrwt>0</asrwt>
<pdfrwt beam="1">  1       21 0.37053685E-02 0.30000000E+03</pdfrwt>
<pdfrwt beam="2">0</pdfrwt>
<totfact> 0.47818922E+04</totfact>
</mgrwt>
</event>
<event>
 6    1  0.6513574E-002  0.3000000E+03  0.7818608E-02  0.1093470E+00
         21   -1    0    0  501  502  0.00000000000E+00  0.00000000000E+00  0.16713628765E+01  0.16713628765E+01  0.00000000000E+00 0. -1.
         13   -1    0    0    0    0 -0.00000000000E+00 -0.00000000000E+00 -0.10000000000E+04  0.10000000000E+04  0.00000000000E+00 0.  1.
    9000005    2    1    2  501    0  0.40626181637E+02 -0.33939708217E+01 -0.47522846883E+03  0.47698498823E+03  0.32520357919E+01 0.  0.
         13    1    3    3    0    0  0.47345063746E+01  0.32592666166E+00 -0.64643433086E+02  0.64817399053E+02  0.00000000000E+00 0.  1.
          1    1    3    3  501    0  0.35891675262E+02 -0.37198974833E+01 -0.41058503574E+03  0.41216758918E+03  0.00000000000E+00 0.  1.
         -3    1    1    2    0  502 -0.40626181637E+02  0.33939708217E+01 -0.52310016829E+03  0.52468637465E+03  0.00000000000E+00 0. -1.
<mgrwt>
<rscale>  1 0.30000000E+03</rscale>
<asrwt>0</asrwt>
<pdfrwt beam="1">  1       21 0.60776960E-02 0.30000000E+03</pdfrwt>
<pdfrwt beam="2">0</pdfrwt>
<totfact> 0.20609124E+04</totfact>
</mgrwt>
</event>
<event>
 6    1  0.6513574E-002  0.3000000E+03  0.7818608E-02  0.1093470E+00
         21   -1    0    0  501  502  0.00000000000E+00  0.00000000000E+00  0.10938201826E+01  0.10938201826E+01  0.00000000000E+00 0. -1.
         13   -1    0    0    0    0 -0.00000000000E+00 -0.00000000000E+00 -0.10000000000E+04  0.10000000000E+04  0.00000000000E+00 0.  1.
    9000005    2    1    2  501    0  0.16511449447E+02 -0.28140556771E+02 -0.42595829952E+03  0.42721770774E+03  0.31587934343E+01 0.  0.
         13    1    3    3    0    0  0.96307101992E+00 -0.33838377363E+01 -0.40660264464E+02  0.40812191437E+02  0.00000000000E+00 0.  1.
          3    1    3    3  501    0  0.15548378428E+02 -0.24756719035E+02 -0.38529803506E+03  0.38640551630E+03  0.00000000000E+00 0.  1.
         -3    1    1    2    0  502 -0.16511449447E+02  0.28140556771E+02 -0.57294788029E+03  0.57387611244E+03  0.00000000000E+00 0. -1.
<mgrwt>
<rscale>  1 0.30000000E+03</rscale>
<asrwt>0</asrwt>
<pdfrwt beam="1">  1       21 0.39775363E-02 0.30000000E+03</pdfrwt>
<pdfrwt beam="2">0</pdfrwt>
<totfact> 0.42447942E+04</totfact>
</mgrwt>
</event>
<event>
 6    1  0.6513574E-002  0.3000000E+03  0.7818608E-02  0.1093470E+00
         21   -1    0    0  501  502  0.00000000000E+00  0.00000000000E+00  0.12226957147E+01  0.12226957147E+01  0.00000000000E+00 0. -1.
         13   -1    0    0    0    0 -0.00000000000E+00 -0.00000000000E+00 -0.10000000000E+04  0.10000000000E+04  0.00000000000E+00 0.  1.
    9000005    2    1    2  501    0  0.21867250960E+02  0.22516159245E+02 -0.71888599889E+03  0.71957700175E+03  0.29711881735E+01 0.  0.
         13    1    3    3    0    0  0.63344038969E+01  0.58522143380E+01 -0.22702908407E+03  0.22719282141E+03  0.00000000000E+00 0.  1.
          1    1    3    3  501    0  0.15532847063E+02  0.16663944907E+02 -0.49185691482E+03  0.49238418034E+03  0.00000000000E+00 0.  1.
         -3    1    1    2    0  502 -0.21867250960E+02 -0.22516159245E+02 -0.27989130539E+03  0.28164569396E+03  0.00000000000E+00 0. -1.
<mgrwt>
<rscale>  1 0.30000000E+03</rscale>
<asrwt>0</asrwt>
<pdfrwt beam="1">  1       21 0.44461756E-02 0.30000000E+03</pdfrwt>
<pdfrwt beam="2">0</pdfrwt>
<totfact> 0.35168680E+04</totfact>
</mgrwt>
</event>
<event>
 6    1  0.6513574E-002  0.3000000E+03  0.7818608E-02  0.1093470E+00
         21   -1    0    0  501  502  0.00000000000E+00  0.00000000000E+00  0.12955604559E+01  0.12955604559E+01  0.00000000000E+00 0. -1.
         13   -1    0    0    0    0 -0.00000000000E+00 -0.00000000000E+00 -0.10000000000E+04  0.10000000000E+04  0.00000000000E+00 0.  1.
    9000005    2    1    2  501    0  0.31584089519E+02 -0.15863588593E+02 -0.41319128778E+03  0.41471661518E+03  0.36908609086E+01 0.  0.
         13    1    3    3    0    0  0.22092274436E+02 -0.12932076809E+02 -0.29517488433E+03  0.29628283706E+03  0.00000000000E+00 0.  1.
          1    1    3    3  501    0  0.94918150826E+01 -0.29315117836E+01 -0.11801640345E+03  0.11843377812E+03  0.00000000000E+00 0.  1.
         -1    1    1    2    0  502 -0.31584089519E+02  0.15863588593E+02 -0.58551315176E+03  0.58657894528E+03  0.00000000000E+00 0. -1.
<mgrwt>
<rscale>  1 0.30000000E+03</rscale>
<asrwt>0</asrwt>
<pdfrwt beam="1">  1       21 0.47111389E-02 0.30000000E+03</pdfrwt>
<pdfrwt beam="2">0</pdfrwt>
<totfact> 0.31875778E+04</totfact>
</mgrwt>
</event>
<event>
 6    1  0.6513574E-002  0.3000000E+03  0.7818608E-02  0.1093470E+00
         21   -1    0    0  501  502  0.00000000000E+00  0.00000000000E+00  0.37052498005E+01  0.37052498005E+01  0.00000000000E+00 0. -1.
         13   -1    0    0    0    0 -0.00000000000E+00 -0.00000000000E+00 -0.10000000000E+04  0.10000000000E+04  0.00000000000E+00 0.  1.
    9000005    2    1    2  501    0 -0.25862538457E+02 -0.54955885505E+02 -0.52433276037E+03  0.52785113341E+03  0.35993322046E+01 0.  0.
         13    1    3    3    0    0 -0.19561816947E+02 -0.37982150711E+02 -0.36289364475E+03  0.36539992591E+03  0.00000000000E+00 0.  1.
          1    1    3    3  501    0 -0.63007215100E+01 -0.16973734793E+02 -0.16143911562E+03  0.16245120749E+03  0.00000000000E+00 0.  1.
         -1    1    1    2    0  502  0.25862538457E+02  0.54955885505E+02 -0.47196198983E+03  0.47585411639E+03  0.00000000000E+00 0. -1.
<mgrwt>
<rscale>  1 0.30000000E+03</rscale>
<asrwt>0</asrwt>
<pdfrwt beam="1">  1       21 0.13473664E-01 0.30000000E+03</pdfrwt>
<pdfrwt beam="2">0</pdfrwt>
<totfact> 0.50172110E+03</totfact>
</mgrwt>
</event>
<event>
 6    1  0.6513574E-002  0.3000000E+03  0.7818608E-02  0.1093470E+00
         21   -1    0    0  501  502  0.00000000000E+00  0.00000000000E+00  0.33854008013E+01  0.33854008013E+01  0.00000000000E+00 0. -1.
         13   -1    0    0    0    0 -0.00000000000E+00 -0.00000000000E+00 -0.10000000000E+04  0.10000000000E+04  0.00000000000E+00 0.  1.
    9000005    2    1    2  501    0  0.42461028166E+02  0.39358795181E+02 -0.54229227325E+03  0.54538886203E+03  0.40059366652E+01 0.  0.
         13    1    3    3    0    0  0.15309407080E+02  0.11651158727E+02 -0.18252931875E+03  0.18354040331E+03  0.00000000000E+00 0.  1.
          3    1    3    3  501    0  0.27151621086E+02  0.27707636455E+02 -0.35976295450E+03  0.36184845872E+03  0.00000000000E+00 0.  1.
         -1    1    1    2    0  502 -0.42461028166E+02 -0.39358795181E+02 -0.45432232595E+03  0.45799653877E+03  0.00000000000E+00 0. -1.
<mgrwt>
<rscale>  1 0.30000000E+03</rscale>
<asrwt>0</asrwt>
<pdfrwt beam="1">  1       21 0.12310574E-01 0.30000000E+03</pdfrwt>
<pdfrwt beam="2">0</pdfrwt>
<totfact> 0.59158889E+03</totfact>
</mgrwt>
</event>
<event>
 6    1  0.6513574E-002  0.3000000E+03  0.7818608E-02  0.1093470E+00
         21   -1    0    0  501  502  0.00000000000E+00  0.00000000000E+00  0.14109745555E+01  0.14109745555E+01  0.00000000000E+00 0. -1.
         13   -1    0    0    0    0 -0.00000000000E+00 -0.00000000000E+00 -0.10000000000E+04  0.10000000000E+04  0.00000000000E+00 0.  1.
    9000005    2    1    2  501    0 -0.36307069513E+02  0.78495388682E+01 -0.56899830741E+03  0.57021727843E+03  0.29752693295E+01 0.  0.
         13    1    3    3    0    0 -0.32909833362E+02  0.75929126085E+01 -0.50475970723E+03  0.50588839827E+03  0.00000000000E+00 0.  1.
          1    1    3    3  501    0 -0.33972361512E+01  0.25662625979E+00 -0.64238600174E+02  0.64328880162E+02  0.00000000000E+00 0.  1.
         -3    1    1    2    0  502  0.36307069513E+02 -0.78495388682E+01 -0.42959071804E+03  0.43119369613E+03  0.00000000000E+00 0. -1.
<mgrwt>
<rscale>  1 0.30000000E+03</rscale>
<asrwt>0</asrwt>
<pdfrwt beam="1">  1       21 0.51308274E-02 0.30000000E+03</pdfrwt>
<pdfrwt beam="2">0</pdfrwt>
<totfact> 0.27563060E+04</totfact>
</mgrwt>
</event>
<event>
 6    1  0.6513574E-002  0.3000000E+03  0.7818608E-02  0.1093470E+00
         21   -1    0    0  501  502  0.00000000000E+00  0.00000000000E+00  0.18643361174E+01  0.18643361174E+01  0.00000000000E+00 0. -1.
         13   -1    0    0    0    0 -0.00000000000E+00 -0.00000000000E+00 -0.10000000000E+04  0.10000000000E+04  0.00000000000E+00 0.  1.
    9000005    2    1    2  501    0  0.83091655139E+01 -0.36154090220E+02 -0.24618387013E+03  0.24899803949E+03  0.41671676245E+01 0.  0.
         13    1    3    3    0    0  0.68328447873E+01 -0.31801491364E+02 -0.22335934987E+03  0.22571535569E+03  0.00000000000E+00 0.  1.
          1    1    3    3  501    0  0.14763207266E+01 -0.43525988563E+01 -0.22824520265E+02  0.23282683802E+02  0.00000000000E+00 0.  1.
         -1    1    1    2    0  502 -0.83091655139E+01  0.36154090220E+02 -0.75195179375E+03  0.75286629663E+03  0.00000000000E+00 0. -1.
<mgrwt>
<rscale>  1 0.30000000E+03</rscale>
<asrwt>0</asrwt>
<pdfrwt beam="1">  1       21 0.67794184E-02 0.30000000E+03</pdfrwt>
<pdfrwt beam="2">0</pdfrwt>
<totfact> 0.17058745E+04</totfact>
</mgrwt>
</event>
<event>
 6    1  0.6513574E-002  0.3000000E+03  0.7818608E-02  0.1093470E+00
         21   -1    0    0  501  502  0.00000000000E+00  0.00000000000E+00  0.55688137764E+01  0.55688137764E+01  0.00000000000E+00 0. -1.
         13   -1    0    0    0    0 -0.00000000000E+00 -0.00000000000E+00 -0.10000000000E+04  0.10000000000E+04  0.00000000000E+00 0.  1.
    9000005    2    1    2  501    0 -0.22171428364E+02 -0.21772014686E+02 -0.40698688247E+02  0.51330232207E+02  0.35800354985E+01 0.  0.
         13    1    3    3    0    0 -0.11044234679E+02 -0.12603193185E+02 -0.19782161539E+02  0.25925846433E+02  0.00000000000E+00 0.  1.
          3    1    3    3  501    0 -0.11127193685E+02 -0.91688215016E+01 -0.20916526708E+02  0.25404385774E+02  0.00000000000E+00 0.  1.
         -3    1    1    2    0  502  0.22171428364E+02  0.21772014686E+02 -0.95373249798E+03  0.95423858157E+03  0.00000000000E+00 0. -1.
<mgrwt>
<rscale>  1 0.30000000E+03</rscale>
<asrwt>0</asrwt>
<pdfrwt beam="1">  1       21 0.20250275E-01 0.30000000E+03</pdfrwt>
<pdfrwt beam="2">0</pdfrwt>
<totfact> 0.23428993E+03</totfact>
</mgrwt>
</event>
<event>
 6    1  0.6513574E-002  0.3000000E+03  0.7818608E-02  0.1093470E+00
         21   -1    0    0  501  502  0.00000000000E+00  0.00000000000E+00  0.11482624708E+01  0.11482624708E+01  0.00000000000E+00 0. -1.
         13   -1    0    0    0    0 -0.00000000000E+00 -0.00000000000E+00 -0.10000000000E+04  0.10000000000E+04  0.00000000000E+00 0.  1.
    9000005    2    1    2  501    0  0.21152452770E+02  0.24870944004E+02 -0.63041201305E+03  0.63126473933E+03  0.31424217892E+01 0.  0.
         13    1    3    3    0    0  0.13454530092E+02  0.13471706337E+02 -0.37175363559E+03  0.37224088549E+03  0.00000000000E+00 0.  1.
          3    1    3    3  501    0  0.76979226784E+01  0.11399237667E+02 -0.25865837745E+03  0.25902385384E+03  0.00000000000E+00 0.  1.
         -3    1    1    2    0  502 -0.21152452770E+02 -0.24870944004E+02 -0.36843972448E+03  0.36988352314E+03  0.00000000000E+00 0. -1.
<mgrwt>
<rscale>  1 0.30000000E+03</rscale>
<asrwt>0</asrwt>
<pdfrwt beam="1">  1       21 0.41755087E-02 0.30000000E+03</pdfrwt>
<pdfrwt beam="2">0</pdfrwt>
<totfact> 0.39110735E+04</totfact>
</mgrwt>
</event>
<event>
 6    1  0.6513574E-002  0.3000000E+03  0.7818608E-02  0.1093470E+00
         21   -1    0    0  501  502  0.00000000000E+00  0.00000000000E+00  0.21337038726E+01  0.21337038726E+01  0.00000000000E+00 0. -1.
         13   -1    0    0    0    0 -0.00000000000E+00 -0.00000000000E+00 -0.10000000000E+04  0.10000000000E+04  0.00000000000E+00 0.  1.
    9000005    2    1    2  501    0  0.42798842198E+02 -0.33325943840E+01 -0.31543208292E+03  0.31835062246E+03  0.26216030492E+01 0.  0.
         13    1    3    3    0    0  0.27971759014E+02 -0.19859276266E+01 -0.19673753356E+03  0.19872599307E+03  0.00000000000E+00 0.  1.
          1    1    3    3  501    0  0.14827083184E+02 -0.13466667574E+01 -0.11869454937E+03  0.11962462939E+03  0.00000000000E+00 0.  1.
         -1    1    1    2    0  502 -0.42798842198E+02  0.33325943840E+01 -0.68243421320E+03  0.68378308141E+03  0.00000000000E+00 0. -1.
<mgrwt>
<rscale>  1 0.30000000E+03</rscale>
<asrwt>0</asrwt>
<pdfrwt beam="1">  1       21 0.77589395E-02 0.30000000E+03</pdfrwt>
<pdfrwt beam="2">0</pdfrwt>
<totfact> 0.13478520E+04</totfact>
</mgrwt>
</event>
<event>
 6    1  0.6513574E-002  0.3000000E+03  0.7818608E-02  0.1093470E+00
         21   -1    0    0  501  502  0.00000000000E+00  0.00000000000E+00  0.13827129901E+01  0.13827129901E+01  0.00000000000E+00 0. -1.
         13   -1    0    0    0    0 -0.00000000000E+00 -0.00000000000E+00 -0.10000000000E+04  0.10000000000E+04  0.00000000000E+00 0.  1.
    9000005    2    1    2  501    0  0.90709962633E+01  0.31844753354E+02 -0.72554662713E+03  0.72631189197E+03  0.38320996864E+01 0.  0.
         13    1    3    3    0    0  0.60335623145E-01  0.67836946678E+00 -0.69516669117E+01  0.69849479864E+01  0.00000000000E+00 0.  1.
          1    1    3    3  501    0  0.90106606402E+01  0.31166383887E+02 -0.71859496022E+03  0.71932694399E+03  0.00000000000E+00 0.  1.
         -3    1    1    2    0  502 -0.90709962633E+01 -0.31844753354E+02 -0.27307065988E+03  0.27507082102E+03  0.00000000000E+00 0. -1.
<mgrwt>
<rscale>  1 0.30000000E+03</rscale>
<asrwt>0</asrwt>
<pdfrwt beam="1">  1       21 0.50280578E-02 0.30000000E+03</pdfrwt>
<pdfrwt beam="2">0</pdfrwt>
<totfact> 0.28531144E+04</totfact>
</mgrwt>
</event>
<event>
 6    1  0.6513574E-002  0.3000000E+03  0.7818608E-02  0.1093470E+00
         21   -1    0    0  501  502  0.00000000000E+00  0.00000000000E+00  0.14201081608E+01  0.14201081608E+01  0.00000000000E+00 0. -1.
         13   -1    0    0    0    0 -0.00000000000E+00 -0.00000000000E+00 -0.10000000000E+04  0.10000000000E+04  0.00000000000E+00 0.  1.
    9000005    2    1    2  501    0 -0.28492264080E+01 -0.36256314769E+02 -0.37282606240E+03  0.37461033358E+03  0.33152328411E+01 0.  0.
         13    1    3    3    0    0 -0.13541278805E+01 -0.27457551323E+02 -0.26880669526E+03  0.27020879002E+03  0.00000000000E+00 0.  1.
          1    1    3    3  501    0 -0.14950985275E+01 -0.87987634462E+01 -0.10401936714E+03  0.10440154356E+03  0.00000000000E+00 0.  1.
         -3    1    1    2    0  502  0.28492264080E+01  0.36256314769E+02 -0.62575382944E+03  0.62680977459E+03  0.00000000000E+00 0. -1.
<mgrwt>
<rscale>  1 0.30000000E+03</rscale>
<asrwt>0</asrwt>
<pdfrwt beam="1">  1       21 0.51640406E-02 0.30000000E+03</pdfrwt>
<pdfrwt beam="2">0</pdfrwt>
<totfact> 0.27261081E+04</totfact>
</mgrwt>
</event>
<event>
 6    1  0.6513574E-002  0.3000000E+03  0.7818608E-02  0.1093470E+00
         21   -1    0    0  501  502  0.00000000000E+00  0.00000000000E+00  0.91862053293E+00  0.91862053293E+00  0.00000000000E+00 0. -1.
         13   -1    0    0    0    0 -0.00000000000E+00 -0.00000000000E+00 -0.10000000000E+04  0.10000000000E+04  0.00000000000E+00 0.  1.
    9000005    2    1    2  501    0  0.70957614607E+01 -0.29334506054E+02 -0.51993215632E+03  0.52081983787E+03  0.36046168652E+01 0.  0.
         13    1    3    3    0    0  0.65119333725E+01 -0.20002023282E+02 -0.36569885634E+03  0.36630334388E+03  0.00000000000E+00 0.  1.
          1    1    3    3  501    0  0.58382808817E+00 -0.93324827714E+01 -0.15423329998E+03  0.15451649398E+03  0.00000000000E+00 0.  1.
         -3    1    1    2    0  502 -0.70957614607E+01  0.29334506054E+02 -0.47914922314E+03  0.48009878266E+03  0.00000000000E+00 0. -1.
<mgrwt>
<rscale>  1 0.30000000E+03</rscale>
<asrwt>0</asrwt>
<pdfrwt beam="1">  1       21 0.33404453E-02 0.30000000E+03</pdfrwt>
<pdfrwt beam="2">0</pdfrwt>
<totfact> 0.56885399E+04</totfact>
</mgrwt>
</event>
<event>
 6    1  0.6513574E-002  0.3000000E+03  0.7818608E-02  0.1093470E+00
         21   -1    0    0  501  502  0.00000000000E+00  0.00000000000E+00  0.41203552774E+01  0.41203552774E+01  0.00000000000E+00 0. -1.
         13   -1    0    0    0    0 -0.00000000000E+00 -0.00000000000E+00 -0.10000000000E+04  0.10000000000E+04  0.00000000000E+00 0.  1.
    9000005    2    1    2  501    0 -0.15866631454E+01  0.62442365920E+02 -0.61255261347E+03  0.61573758088E+03  0.32400114446E+01 0.  0.
         13    1    3    3    0    0 -0.52778007688E+00  0.27084264815E+01 -0.22684717961E+02  0.22851926719E+02  0.00000000000E+00 0.  1.
          3    1    3    3  501    0 -0.10588830685E+01  0.59733939439E+02 -0.58986789551E+03  0.59288565416E+03  0.00000000000E+00 0.  1.
         -3    1    1    2    0  502  0.15866631454E+01 -0.62442365920E+02 -0.38332703125E+03  0.38838277440E+03  0.00000000000E+00 0. -1.
<mgrwt>
<rscale>  1 0.30000000E+03</rscale>
<asrwt>0</asrwt>
<pdfrwt beam="1">  1       21 0.14983142E-01 0.30000000E+03</pdfrwt>
<pdfrwt beam="2">0</pdfrwt>
<totfact> 0.41266155E+03</totfact>
</mgrwt>
</event>
<event>
 6    1  0.6513574E-002  0.3000000E+03  0.7818608E-02  0.1093470E+00
         21   -1    0    0  501  502  0.00000000000E+00  0.00000000000E+00  0.73454327371E+01  0.73454327371E+01  0.00000000000E+00 0. -1.
         13   -1    0    0    0    0 -0.00000000000E+00 -0.00000000000E+00 -0.10000000000E+04  0.10000000000E+04  0.00000000000E+00 0.  1.
    9000005    2    1    2  501    0 -0.70564702454E+02 -0.44284228382E+02 -0.61398238508E+03  0.61961731708E+03  0.32833389740E+01 0.  0.
         13    1    3    3    0    0 -0.32276497974E+01 -0.13423904345E+01 -0.28150264861E+02  0.28366479285E+02  0.00000000000E+00 0.  1.
          1    1    3    3  501    0 -0.67337052656E+02 -0.42941837947E+02 -0.58583212022E+03  0.59125083779E+03  0.00000000000E+00 0.  1.
         -3    1    1    2    0  502  0.70564702454E+02  0.44284228382E+02 -0.37867218218E+03  0.38772811566E+03  0.00000000000E+00 0. -1.
<mgrwt>
<rscale>  1 0.30000000E+03</rscale>
<asrwt>0</asrwt>
<pdfrwt beam="1">  1       21 0.26710721E-01 0.30000000E+03</pdfrwt>
<pdfrwt beam="2">0</pdfrwt>
<totfact> 0.13692857E+03</totfact>
</mgrwt>
</event>
<event>
 6    1  0.6513574E-002  0.3000000E+03  0.7818608E-02  0.1093470E+00
         21   -1    0    0  501  502  0.00000000000E+00  0.00000000000E+00  0.42633490408E+01  0.42633490408E+01  0.00000000000E+00 0. -1.
         13   -1    0    0    0    0 -0.00000000000E+00 -0.00000000000E+00 -0.10000000000E+04  0.10000000000E+04  0.00000000000E+00 0.  1.
    9000005    2    1    2  501    0 -0.29094829978E+02  0.58017006765E+02 -0.54946137847E+03  0.55329317149E+03  0.36117836464E+01 0.  0.
         13    1    3    3    0    0 -0.33576480157E+01  0.60131456135E+01 -0.68039135449E+02  0.68386809204E+02  0.00000000000E+00 0.  1.
          1    1    3    3  501    0 -0.25737181962E+02  0.52003861152E+02 -0.48142224303E+03  0.48490636229E+03  0.00000000000E+00 0.  1.
         -3    1    1    2    0  502  0.29094829978E+02 -0.58017006765E+02 -0.44627527248E+03  0.45097017755E+03  0.00000000000E+00 0. -1.
<mgrwt>
<rscale>  1 0.30000000E+03</rscale>
<asrwt>0</asrwt>
<pdfrwt beam="1">  1       21 0.15503120E-01 0.30000000E+03</pdfrwt>
<pdfrwt beam="2">0</pdfrwt>
<totfact> 0.38736146E+03</totfact>
</mgrwt>
</event>
<event>
 6    1  0.6513574E-002  0.3000000E+03  0.7818608E-02  0.1093470E+00
         21   -1    0    0  501  502  0.00000000000E+00  0.00000000000E+00  0.15541866200E+01  0.15541866200E+01  0.00000000000E+00 0. -1.
         13   -1    0    0    0    0 -0.00000000000E+00 -0.00000000000E+00 -0.10000000000E+04  0.10000000000E+04  0.00000000000E+00 0.  1.
    9000005    2    1    2  501    0 -0.39426090886E+01 -0.32411453572E+02 -0.22044703962E+03  0.22287059333E+03  0.28909521549E+01 0.  0.
         13    1    3    3    0    0 -0.42450915269E+01 -0.29619213552E+02 -0.19788997521E+03  0.20013935371E+03  0.00000000000E+00 0.  1.
          3    1    3    3  501    0  0.30248243828E+00 -0.27922400206E+01 -0.22557064411E+02  0.22731239624E+02  0.00000000000E+00 0.  1.
         -3    1    1    2    0  502  0.39426090886E+01  0.32411453572E+02 -0.77799877376E+03  0.77868359329E+03  0.00000000000E+00 0. -1.
<mgrwt>
<rscale>  1 0.30000000E+03</rscale>
<asrwt>0</asrwt>
<pdfrwt beam="1">  1       21 0.56515996E-02 0.30000000E+03</pdfrwt>
<pdfrwt beam="2">0</pdfrwt>
<totfact> 0.23358150E+04</totfact>
</mgrwt>
</event>
<event>
 6    1  0.6513574E-002  0.3000000E+03  0.7818608E-02  0.1093470E+00
         21   -1    0    0  501  502  0.00000000000E+00  0.00000000000E+00  0.30983274510E+01  0.30983274510E+01  0.00000000000E+00 0. -1.
         13   -1    0    0    0    0 -0.00000000000E+00 -0.00000000000E+00 -0.10000000000E+04  0.10000000000E+04  0.00000000000E+00 0.  1.
    9000005    2    1    2  501    0  0.11251854364E+02  0.51530619167E+02 -0.65785457027E+03  0.65997306388E+03  0.31305719690E+01 0.  0.
         13    1    3    3    0    0  0.93106619453E+01  0.45291351479E+02 -0.56500881128E+03  0.56689765546E+03  0.00000000000E+00 0.  1.
          1    1    3    3  501    0  0.19411924186E+01  0.62392676879E+01 -0.92845758993E+02  0.93075408418E+02  0.00000000000E+00 0.  1.
         -3    1    1    2    0  502 -0.11251854364E+02 -0.51530619167E+02 -0.33904710227E+03  0.34312526357E+03  0.00000000000E+00 0. -1.
<mgrwt>
<rscale>  1 0.30000000E+03</rscale>
<asrwt>0</asrwt>
<pdfrwt beam="1">  1       21 0.11266669E-01 0.30000000E+03</pdfrwt>
<pdfrwt beam="2">0</pdfrwt>
<totfact> 0.69458161E+03</totfact>
</mgrwt>
</event>
<event>
 6    1  0.6513574E-002  0.3000000E+03  0.7818608E-02  0.1093470E+00
         21   -1    0    0  501  502  0.00000000000E+00  0.00000000000E+00  0.12309438409E+01  0.12309438409E+01  0.00000000000E+00 0. -1.
         13   -1    0    0    0    0 -0.00000000000E+00 -0.00000000000E+00 -0.10000000000E+04  0.10000000000E+04  0.00000000000E+00 0.  1.
    9000005    2    1    2  501    0 -0.21363686553E+02  0.24401056907E+02 -0.35409415792E+03  0.35574078660E+03  0.10817388461E+02 0.  0.
         13    1    3    3    0    0 -0.91700810637E+01  0.18328943789E+02 -0.20130338280E+03  0.20234399544E+03  0.00000000000E+00 0.  1.
          3    1    3    3  501    0 -0.12193605489E+02  0.60721131182E+01 -0.15279077513E+03  0.15339679115E+03  0.00000000000E+00 0.  1.
         -3    1    1    2    0  502  0.21363686553E+02 -0.24401056907E+02 -0.64467489824E+03  0.64549015724E+03  0.00000000000E+00 0. -1.
<mgrwt>
<rscale>  1 0.30000000E+03</rscale>
<asrwt>0</asrwt>
<pdfrwt beam="1">  1       21 0.44761689E-02 0.30000000E+03</pdfrwt>
<pdfrwt beam="2">0</pdfrwt>
<totfact> 0.34770006E+04</totfact>
</mgrwt>
</event>
<event>
 6    1  0.6513574E-002  0.3000000E+03  0.7818608E-02  0.1093470E+00
         21   -1    0    0  501  502  0.00000000000E+00  0.00000000000E+00  0.13099060700E+01  0.13099060700E+01  0.00000000000E+00 0. -1.
         13   -1    0    0    0    0 -0.00000000000E+00 -0.00000000000E+00 -0.10000000000E+04  0.10000000000E+04  0.00000000000E+00 0.  1.
    9000005    2    1    2  501    0  0.23250219866E+02  0.23123386379E+02 -0.29248768347E+03  0.29434660557E+03  0.39516457920E+01 0.  0.
         13    1    3    3    0    0  0.22469858603E+02  0.21466858596E+02 -0.26940317068E+03  0.27118958118E+03  0.00000000000E+00 0.  1.
          3    1    3    3  501    0  0.78036126307E+00  0.16565277828E+01 -0.23084512789E+02  0.23157024392E+02  0.00000000000E+00 0.  1.
         -3    1    1    2    0  502 -0.23250219866E+02 -0.23123386379E+02 -0.70620241046E+03  0.70696330050E+03  0.00000000000E+00 0. -1.
<mgrwt>
<rscale>  1 0.30000000E+03</rscale>
<asrwt>0</asrwt>
<pdfrwt beam="1">  1       21 0.47633048E-02 0.30000000E+03</pdfrwt>
<pdfrwt beam="2">0</pdfrwt>
<totfact> 0.31284349E+04</totfact>
</mgrwt>
</event>
<event>
 6    1  0.6513574E-002  0.3000000E+03  0.7818608E-02  0.1093470E+00
         21   -1    0    0  501  502  0.00000000000E+00  0.00000000000E+00  0.14917033339E+01  0.14917033339E+01  0.00000000000E+00 0. -1.
         13   -1    0    0    0    0 -0.00000000000E+00 -0.00000000000E+00 -0.10000000000E+04  0.10000000000E+04  0.00000000000E+00 0.  1.
    9000005    2    1    2  501    0  0.12481869021E+02  0.35994846195E+02 -0.57636980859E+03  0.57763756672E+03  0.34023857466E+01 0.  0.
         13    1    3    3    0    0  0.33775999376E+01  0.13380060207E+02 -0.22550955182E+03  0.22593138816E+03  0.00000000000E+00 0.  1.
          1    1    3    3  501    0  0.91042690830E+01  0.22614785988E+02 -0.35086025677E+03  0.35170617856E+03  0.00000000000E+00 0.  1.
         -3    1    1    2    0  502 -0.12481869021E+02 -0.35994846195E+02 -0.42213848807E+03  0.42385413661E+03  0.00000000000E+00 0. -1.
<mgrwt>
<rscale>  1 0.30000000E+03</rscale>
<asrwt>0</asrwt>
<pdfrwt beam="1">  1       21 0.54243872E-02 0.30000000E+03</pdfrwt>
<pdfrwt beam="2">0</pdfrwt>
<totfact> 0.25061731E+04</totfact>
</mgrwt>
</event>
<event>
 6    1  0.6513574E-002  0.3000000E+03  0.7818608E-02  0.1093470E+00
         21   -1    0    0  501  502  0.00000000000E+00  0.00000000000E+00  0.10876584363E+01  0.10876584363E+01  0.00000000000E+00 0. -1.
         13   -1    0    0    0    0 -0.00000000000E+00 -0.00000000000E+00 -0.10000000000E+04  0.10000000000E+04  0.00000000000E+00 0.  1.
    9000005    2    1    2  501    0  0.23717959017E+02  0.18924565080E+02 -0.69386392776E+03  0.69453388581E+03  0.30801878329E+01 0.  0.
         13    1    3    3    0    0  0.86263702600E+01  0.71377175753E+01 -0.22336987175E+03  0.22365030937E+03  0.00000000000E+00 0.  1.
          1    1    3    3  501    0  0.15091588757E+02  0.11786847505E+02 -0.47049405600E+03  0.47088357644E+03  0.00000000000E+00 0.  1.
         -3    1    1    2    0  502 -0.23717959017E+02 -0.18924565080E+02 -0.30504841381E+03  0.30655377262E+03  0.00000000000E+00 0. -1.
<mgrwt>
<rscale>  1 0.30000000E+03</rscale>
<asrwt>0</asrwt>
<pdfrwt beam="1">  1       21 0.39551299E-02 0.30000000E+03</pdfrwt>
<pdfrwt beam="2">0</pdfrwt>
<totfact> 0.42853521E+04</totfact>
</mgrwt>
</event>
<event>
 6    1  0.6513574E-002  0.3000000E+03  0.7818608E-02  0.1093470E+00
         21   -1    0    0  501  502  0.00000000000E+00  0.00000000000E+00  0.12152042953E+01  0.12152042953E+01  0.00000000000E+00 0. -1.
         13   -1    0    0    0    0 -0.00000000000E+00 -0.00000000000E+00 -0.10000000000E+04  0.10000000000E+04  0.00000000000E+00 0.  1.
    9000005    2    1    2  501    0 -0.19137488419E+02 -0.27821140213E+02 -0.40339264807E+03  0.40486625546E+03  0.71272008314E+01 0.  0.
         13    1    3    3    0    0 -0.61116851884E+01 -0.15163640812E+02 -0.19126864267E+03  0.19196609692E+03  0.00000000000E+00 0.  1.
          3    1    3    3  501    0 -0.13025803230E+02 -0.12657499401E+02 -0.21212400540E+03  0.21290015854E+03  0.00000000000E+00 0.  1.
         -1    1    1    2    0  502  0.19137488419E+02  0.27821140213E+02 -0.59539214764E+03  0.59634894883E+03  0.00000000000E+00 0. -1.
<mgrwt>
<rscale>  1 0.30000000E+03</rscale>
<asrwt>0</asrwt>
<pdfrwt beam="1">  1       21 0.44189340E-02 0.30000000E+03</pdfrwt>
<pdfrwt beam="2">0</pdfrwt>
<totfact> 0.35536931E+04</totfact>
</mgrwt>
</event>
<event>
 6    1  0.6513574E-002  0.3000000E+03  0.7818608E-02  0.1093470E+00
         21   -1    0    0  501  502  0.00000000000E+00  0.00000000000E+00  0.31648412775E+01  0.31648412775E+01  0.00000000000E+00 0. -1.
         13   -1    0    0    0    0 -0.00000000000E+00 -0.00000000000E+00 -0.10000000000E+04  0.10000000000E+04  0.00000000000E+00 0.  1.
    9000005    2    1    2  501    0  0.24618118112E+02  0.42880586709E+02 -0.26080525649E+03  0.26547600888E+03  0.36514414731E+01 0.  0.
         13    1    3    3    0    0  0.67193050028E+01  0.13717777602E+02 -0.73404157849E+02  0.74976642173E+02  0.00000000000E+00 0.  1.
          1    1    3    3  501    0  0.17898813109E+02  0.29162809107E+02 -0.18740109864E+03  0.19049936671E+03  0.00000000000E+00 0.  1.
         -3    1    1    2    0  502 -0.24618118112E+02 -0.42880586709E+02 -0.73602990224E+03  0.73768883240E+03  0.00000000000E+00 0. -1.
<mgrwt>
<rscale>  1 0.30000000E+03</rscale>
<asrwt>0</asrwt>
<pdfrwt beam="1">  1       21 0.11508538E-01 0.30000000E+03</pdfrwt>
<pdfrwt beam="2">0</pdfrwt>
<totfact> 0.66845848E+03</totfact>
</mgrwt>
</event>
<event>
 6    1  0.6513574E-002  0.3000000E+03  0.7818608E-02  0.1093470E+00
         21   -1    0    0  501  502  0.00000000000E+00  0.00000000000E+00  0.10887285627E+01  0.10887285627E+01  0.00000000000E+00 0. -1.
         13   -1    0    0    0    0 -0.00000000000E+00 -0.00000000000E+00 -0.10000000000E+04  0.10000000000E+04  0.00000000000E+00 0.  1.
    9000005    2    1    2  501    0  0.32109595032E+02  0.31771828773E+01 -0.40128839726E+03  0.40259543677E+03  0.30963440025E+01 0.  0.
         13    1    3    3    0    0  0.55988190259E+01 -0.40657311411E+00 -0.61596596038E+02  0.61851861084E+02  0.00000000000E+00 0.  1.
          3    1    3    3  501    0  0.26510776007E+02  0.35837559914E+01 -0.33969180122E+03  0.34074357568E+03  0.00000000000E+00 0.  1.
         -3    1    1    2    0  502 -0.32109595032E+02 -0.31771828773E+01 -0.59762287418E+03  0.59849329180E+03  0.00000000000E+00 0. -1.
<mgrwt>
<rscale>  1 0.30000000E+03</rscale>
<asrwt>0</asrwt>
<pdfrwt beam="1">  1       21 0.39590213E-02 0.30000000E+03</pdfrwt>
<pdfrwt beam="2">0</pdfrwt>
<totfact> 0.42782649E+04</totfact>
</mgrwt>
</event>
<event>
 6    1  0.6513574E-002  0.3000000E+03  0.7818608E-02  0.1093470E+00
         21   -1    0    0  501  502  0.00000000000E+00  0.00000000000E+00  0.21650551430E+01  0.21650551430E+01  0.00000000000E+00 0. -1.
         13   -1    0    0    0    0 -0.00000000000E+00 -0.00000000000E+00 -0.10000000000E+04  0.10000000000E+04  0.00000000000E+00 0.  1.
    9000005    2    1    2  501    0 -0.34356312454E+02  0.28124188344E+02 -0.64679011235E+03  0.64832356435E+03  0.38299457989E+01 0.  0.
         13    1    3    3    0    0 -0.18403516207E+02  0.15605727284E+02 -0.32416486760E+03  0.32506167033E+03  0.00000000000E+00 0.  1.
          1    1    3    3  501    0 -0.15952796246E+02  0.12518461059E+02 -0.32262524475E+03  0.32326189402E+03  0.00000000000E+00 0.  1.
         -3    1    1    2    0  502  0.34356312454E+02 -0.28124188344E+02 -0.35104483251E+03  0.35384149079E+03  0.00000000000E+00 0. -1.
<mgrwt>
<rscale>  1 0.30000000E+03</rscale>
<asrwt>0</asrwt>
<pdfrwt beam="1">  1       21 0.78729444E-02 0.30000000E+03</pdfrwt>
<pdfrwt beam="2">0</pdfrwt>
<totfact> 0.13138002E+04</totfact>
</mgrwt>
</event>
<event>
 6    1  0.6513574E-002  0.3000000E+03  0.7818608E-02  0.1093470E+00
         21   -1    0    0  501  502  0.00000000000E+00  0.00000000000E+00  0.12357813012E+01  0.12357813012E+01  0.00000000000E+00 0. -1.
         13   -1    0    0    0    0 -0.00000000000E+00 -0.00000000000E+00 -0.10000000000E+04  0.10000000000E+04  0.00000000000E+00 0.  1.
    9000005    2    1    2  501    0 -0.24669296946E+02  0.22478130891E+02 -0.65409109360E+03  0.65495063327E+03  0.33664100418E+01 0.  0.
         13    1    3    3    0    0 -0.59695731420E+01  0.74935698244E+01 -0.18756190415E+03  0.18780643568E+03  0.00000000000E+00 0.  1.
          1    1    3    3  501    0 -0.18699723804E+02  0.14984561067E+02 -0.46652918945E+03  0.46714419759E+03  0.00000000000E+00 0.  1.
         -3    1    1    2    0  502  0.24669296946E+02 -0.22478130891E+02 -0.34467312510E+03  0.34628514803E+03  0.00000000000E+00 0. -1.
<mgrwt>
<rscale>  1 0.30000000E+03</rscale>
<asrwt>0</asrwt>
<pdfrwt beam="1">  1       21 0.44937597E-02 0.30000000E+03</pdfrwt>
<pdfrwt beam="2">0</pdfrwt>
<totfact> 0.34539422E+04</totfact>
</mgrwt>
</event>
<event>
 6    1  0.6513574E-002  0.3000000E+03  0.7818608E-02  0.1093470E+00
         21   -1    0    0  501  502  0.00000000000E+00  0.00000000000E+00  0.28350342722E+01  0.28350342722E+01  0.00000000000E+00 0. -1.
         13   -1    0    0    0    0 -0.00000000000E+00 -0.00000000000E+00 -0.10000000000E+04  0.10000000000E+04  0.00000000000E+00 0.  1.
    9000005    2    1    2  501    0  0.35800628820E+02  0.39286027246E+02 -0.50397139775E+03  0.50678566934E+03  0.44122479342E+01 0.  0.
         13    1    3    3    0    0  0.11097480531E+02  0.93891352384E+01 -0.13203648489E+03  0.13283426997E+03  0.00000000000E+00 0.  1.
          3    1    3    3  501    0  0.24703148289E+02  0.29896892007E+02 -0.37193491286E+03  0.37395139937E+03  0.00000000000E+00 0.  1.
         -1    1    1    2    0  502 -0.35800628820E+02 -0.39286027246E+02 -0.49319356798E+03  0.49604936494E+03  0.00000000000E+00 0. -1.
<mgrwt>
<rscale>  1 0.30000000E+03</rscale>
<asrwt>0</asrwt>
<pdfrwt beam="1">  1       21 0.10309237E-01 0.30000000E+03</pdfrwt>
<pdfrwt beam="2">0</pdfrwt>
<totfact> 0.81471167E+03</totfact>
</mgrwt>
</event>
<event>
 6    1  0.6513574E-002  0.3000000E+03  0.7818608E-02  0.1093470E+00
         21   -1    0    0  501  502  0.00000000000E+00  0.00000000000E+00  0.16259062054E+01  0.16259062054E+01  0.00000000000E+00 0. -1.
         13   -1    0    0    0    0 -0.00000000000E+00 -0.00000000000E+00 -0.10000000000E+04  0.10000000000E+04  0.00000000000E+00 0.  1.
    9000005    2    1    2  501    0 -0.36287171677E+02 -0.15420105878E+02 -0.60146031799E+03  0.60275865521E+03  0.29906219594E+01 0.  0.
         13    1    3    3    0    0 -0.24545144794E+01 -0.27203413324E+00 -0.39179235161E+02  0.39256988062E+02  0.00000000000E+00 0.  1.
          1    1    3    3  501    0 -0.33832657197E+02 -0.15148071744E+02 -0.56228108282E+03  0.56350166714E+03  0.00000000000E+00 0.  1.
         -1    1    1    2    0  502  0.36287171677E+02  0.15420105878E+02 -0.39691377581E+03  0.39886725100E+03  0.00000000000E+00 0. -1.
<mgrwt>
<rscale>  1 0.30000000E+03</rscale>
<asrwt>0</asrwt>
<pdfrwt beam="1">  1       21 0.59123987E-02 0.30000000E+03</pdfrwt>
<pdfrwt beam="2">0</pdfrwt>
<totfact> 0.21612846E+04</totfact>
</mgrwt>
</event>
<event>
 6    1  0.6513574E-002  0.3000000E+03  0.7818608E-02  0.1093470E+00
         21   -1    0    0  501  502  0.00000000000E+00  0.00000000000E+00  0.33511630912E+01  0.33511630912E+01  0.00000000000E+00 0. -1.
         13   -1    0    0    0    0 -0.00000000000E+00 -0.00000000000E+00 -0.10000000000E+04  0.10000000000E+04  0.00000000000E+00 0.  1.
    9000005    2    1    2  501    0 -0.36615051354E+02 -0.43739988449E+02 -0.41964339967E+03  0.42353298196E+03  0.50749719636E+01 0.  0.
         13    1    3    3    0    0 -0.67195262562E+00 -0.30132078005E+00 -0.28572695682E+01  0.29506446633E+01  0.00000000000E+00 0.  1.
          3    1    3    3  501    0 -0.35943098728E+02 -0.43438667669E+02 -0.41678613010E+03  0.42058233729E+03  0.00000000000E+00 0.  1.
         -1    1    1    2    0  502  0.36615051354E+02  0.43739988449E+02 -0.57700543724E+03  0.57981818114E+03  0.00000000000E+00 0. -1.
<mgrwt>
<rscale>  1 0.30000000E+03</rscale>
<asrwt>0</asrwt>
<pdfrwt beam="1">  1       21 0.12186073E-01 0.30000000E+03</pdfrwt>
<pdfrwt beam="2">0</pdfrwt>
<totfact> 0.60262972E+03</totfact>
</mgrwt>
</event>
<event>
 6    1  0.6513574E-002  0.3000000E+03  0.7818608E-02  0.1093470E+00
         21   -1    0    0  501  502  0.00000000000E+00  0.00000000000E+00  0.11704121661E+01  0.11704121661E+01  0.00000000000E+00 0. -1.
         13   -1    0    0    0    0 -0.00000000000E+00 -0.00000000000E+00 -0.10000000000E+04  0.10000000000E+04  0.00000000000E+00 0.  1.
    9000005    2    1    2  501    0  0.28958132031E+02  0.17314289967E+02 -0.52649036029E+03  0.52762769612E+03  0.77799859942E+01 0.  0.
         13    1    3    3    0    0  0.32093330177E+00 -0.29959082662E+00 -0.15273194559E+01  0.15891688292E+01  0.00000000000E+00 0.  1.
          3    1    3    3  501    0  0.28637198729E+02  0.17613880794E+02 -0.52496304084E+03  0.52603852729E+03  0.00000000000E+00 0.  1.
         -3    1    1    2    0  502 -0.28958132031E+02 -0.17314289967E+02 -0.47233922754E+03  0.47354271605E+03  0.00000000000E+00 0. -1.
<mgrwt>
<rscale>  1 0.30000000E+03</rscale>
<asrwt>0</asrwt>
<pdfrwt beam="1">  1       21 0.42560532E-02 0.30000000E+03</pdfrwt>
<pdfrwt beam="2">0</pdfrwt>
<totfact> 0.37868749E+04</totfact>
</mgrwt>
</event>
<event>
 6    1  0.6513574E-002  0.3000000E+03  0.7818608E-02  0.1093470E+00
         21   -1    0    0  501  502  0.00000000000E+00  0.00000000000E+00  0.14959226589E+01  0.14959226589E+01  0.00000000000E+00 0. -1.
         13   -1    0    0    0    0 -0.00000000000E+00 -0.00000000000E+00 -0.10000000000E+04  0.10000000000E+04  0.00000000000E+00 0.  1.
    9000005    2    1    2  501    0  0.18366251404E+01 -0.38502203354E+02 -0.47876547785E+03  0.48032991776E+03  0.38280889779E+01 0.  0.
         13    1    3    3    0    0 -0.36220731487E+00 -0.20834363429E+02 -0.27474900051E+03  0.27553804669E+03  0.00000000000E+00 0.  1.
          3    1    3    3  501    0  0.21988324553E+01 -0.17667839925E+02 -0.20401647734E+03  0.20479187107E+03  0.00000000000E+00 0.  1.
         -3    1    1    2    0  502 -0.18366251404E+01  0.38502203354E+02 -0.51973859949E+03  0.52116600490E+03  0.00000000000E+00 0. -1.
<mgrwt>
<rscale>  1 0.30000000E+03</rscale>
<asrwt>0</asrwt>
<pdfrwt beam="1">  1       21 0.54397302E-02 0.30000000E+03</pdfrwt>
<pdfrwt beam="2">0</pdfrwt>
<totfact> 0.24940755E+04</totfact>
</mgrwt>
</event>
<event>
 6    1  0.6531493E-002  0.3000000E+03  0.7818608E-02  0.1093470E+00
         21   -1    0    0  501  502  0.00000000000E+00  0.00000000000E+00  0.18482783254E+01  0.18482783254E+01  0.00000000000E+00 0. -1.
         13   -1    0    0    0    0 -0.00000000000E+00 -0.00000000000E+00 -0.10000000000E+04  0.10000000000E+04  0.00000000000E+00 0.  1.
    9000005    2    1    2  501    0  0.47971396298E+01  0.30356876484E+02 -0.84632804609E+03  0.84694514418E+03  0.10018141634E+02 0.  0.
         13    1    3    3    0    0 -0.21595761350E+01  0.10142264764E+02 -0.20671124103E+03  0.20697117304E+03  0.00000000000E+00 0.  1.
          3    1    3    3  501    0  0.69567157648E+01  0.20214611719E+02 -0.63961680506E+03  0.63997397114E+03  0.00000000000E+00 0.  1.
         -3    1    1    2    0  502 -0.47971396298E+01 -0.30356876484E+02 -0.15182367559E+03  0.15490313414E+03  0.00000000000E+00 0. -1.
<mgrwt>
<rscale>  1 0.30000000E+03</rscale>
<asrwt>0</asrwt>
<pdfrwt beam="1">  1       21 0.67210263E-02 0.30000000E+03</pdfrwt>
<pdfrwt beam="2">0</pdfrwt>
<totfact> 0.17316791E+04</totfact>
</mgrwt>
</event>
<event>
 6    1  0.6513574E-002  0.3000000E+03  0.7818608E-02  0.1093470E+00
         21   -1    0    0  501  502  0.00000000000E+00  0.00000000000E+00  0.13860754359E+01  0.13860754359E+01  0.00000000000E+00 0. -1.
         13   -1    0    0    0    0 -0.00000000000E+00 -0.00000000000E+00 -0.10000000000E+04  0.10000000000E+04  0.00000000000E+00 0.  1.
    9000005    2    1    2  501    0 -0.34726985871E+02  0.12797949930E+02 -0.52582440006E+03  0.52715017891E+03  0.51244862625E+01 0.  0.
         13    1    3    3    0    0 -0.23785334047E+02  0.62532089930E+01 -0.35438810945E+03  0.35524044935E+03  0.00000000000E+00 0.  1.
          1    1    3    3  501    0 -0.10941651824E+02  0.65447409367E+01 -0.17143629061E+03  0.17190972956E+03  0.00000000000E+00 0.  1.
         -1    1    1    2    0  502  0.34726985871E+02 -0.12797949930E+02 -0.47278952451E+03  0.47423589653E+03  0.00000000000E+00 0. -1.
<mgrwt>
<rscale>  1 0.30000000E+03</rscale>
<asrwt>0</asrwt>
<pdfrwt beam="1">  1       21 0.50402849E-02 0.30000000E+03</pdfrwt>
<pdfrwt beam="2">0</pdfrwt>
<totfact> 0.28413215E+04</totfact>
</mgrwt>
</event>
<event>
 6    1  0.6513574E-002  0.3000000E+03  0.7818608E-02  0.1093470E+00
         21   -1    0    0  501  502  0.00000000000E+00  0.00000000000E+00  0.15650544485E+01  0.15650544485E+01  0.00000000000E+00 0. -1.
         13   -1    0    0    0    0 -0.00000000000E+00 -0.00000000000E+00 -0.10000000000E+04  0.10000000000E+04  0.00000000000E+00 0.  1.
    9000005    2    1    2  501    0  0.19793212266E+02 -0.24262050167E+02 -0.19575143132E+03  0.19827105948E+03  0.35173618218E+01 0.  0.
         13    1    3    3    0    0  0.16742299471E+02 -0.22244205417E+02 -0.17137481328E+03  0.17362153062E+03  0.00000000000E+00 0.  1.
          1    1    3    3  501    0  0.30509127946E+01 -0.20178447499E+01 -0.24376618036E+02  0.24649528863E+02  0.00000000000E+00 0.  1.
         -1    1    1    2    0  502 -0.19793212266E+02  0.24262050167E+02 -0.80268351423E+03  0.80329399497E+03  0.00000000000E+00 0. -1.
<mgrwt>
<rscale>  1 0.30000000E+03</rscale>
<asrwt>0</asrwt>
<pdfrwt beam="1">  1       21 0.56911191E-02 0.30000000E+03</pdfrwt>
<pdfrwt beam="2">0</pdfrwt>
<totfact> 0.23080056E+04</totfact>
</mgrwt>
</event>
<event>
 6    1  0.6513574E-002  0.3000000E+03  0.7818608E-02  0.1093470E+00
         21   -1    0    0  501  502  0.00000000000E+00  0.00000000000E+00  0.97386221672E+00  0.97386221672E+00  0.00000000000E+00 0. -1.
         13   -1    0    0    0    0 -0.00000000000E+00 -0.00000000000E+00 -0.10000000000E+04  0.10000000000E+04  0.00000000000E+00 0.  1.
    9000005    2    1    2  501    0 -0.27554983851E+02 -0.12160364220E+02 -0.61881090858E+03  0.61956755379E+03  0.54645707230E+01 0.  0.
         13    1    3    3    0    0 -0.22518762991E+02 -0.76336414028E+01 -0.46461682560E+03  0.46522485080E+03  0.00000000000E+00 0.  1.
          1    1    3    3  501    0 -0.50362208601E+01 -0.45267228172E+01 -0.15419408298E+03  0.15434270299E+03  0.00000000000E+00 0.  1.
         -1    1    1    2    0  502  0.27554983851E+02  0.12160364220E+02 -0.38021522920E+03  0.38140630843E+03  0.00000000000E+00 0. -1.
<mgrwt>
<rscale>  1 0.30000000E+03</rscale>
<asrwt>0</asrwt>
<pdfrwt beam="1">  1       21 0.35413246E-02 0.30000000E+03</pdfrwt>
<pdfrwt beam="2">0</pdfrwt>
<totfact> 0.51592297E+04</totfact>
</mgrwt>
</event>
<event>
 6    1  0.6513574E-002  0.3000000E+03  0.7818608E-02  0.1093470E+00
         21   -1    0    0  501  502  0.00000000000E+00  0.00000000000E+00  0.97611327861E+00  0.97611327861E+00  0.00000000000E+00 0. -1.
         13   -1    0    0    0    0 -0.00000000000E+00 -0.00000000000E+00 -0.10000000000E+04  0.10000000000E+04  0.00000000000E+00 0.  1.
    9000005    2    1    2  501    0  0.20558428232E+02  0.23296746782E+02 -0.45867620922E+03  0.45973587090E+03  0.27961959148E+01 0.  0.
         13    1    3    3    0    0  0.13600293392E+02  0.15110403089E+02 -0.28014438917E+03  0.28088106210E+03  0.00000000000E+00 0.  1.
          3    1    3    3  501    0  0.69581348408E+01  0.81863436929E+01 -0.17853182005E+03  0.17885480881E+03  0.00000000000E+00 0.  1.
         -1    1    1    2    0  502 -0.20558428232E+02 -0.23296746782E+02 -0.54034767751E+03  0.54124024238E+03  0.00000000000E+00 0. -1.
<mgrwt>
<rscale>  1 0.30000000E+03</rscale>
<asrwt>0</asrwt>
<pdfrwt beam="1">  1       21 0.35495103E-02 0.30000000E+03</pdfrwt>
<pdfrwt beam="2">0</pdfrwt>
<totfact> 0.51393034E+04</totfact>
</mgrwt>
</event>
<event>
 6    1  0.6513574E-002  0.3000000E+03  0.7818608E-02  0.1093470E+00
         21   -1    0    0  501  502  0.00000000000E+00  0.00000000000E+00  0.92299285138E+00  0.92299285138E+00  0.00000000000E+00 0. -1.
         13   -1    0    0    0    0 -0.00000000000E+00 -0.00000000000E+00 -0.10000000000E+04  0.10000000000E+04  0.00000000000E+00 0.  1.
    9000005    2    1    2  501    0  0.36596933789E+01 -0.29885565153E+02 -0.44961471487E+03  0.45063638480E+03  0.36358109811E+01 0.  0.
         13    1    3    3    0    0  0.33927174905E+01 -0.27816331309E+02 -0.40167720823E+03  0.40265349673E+03  0.00000000000E+00 0.  1.
          3    1    3    3  501    0  0.26697588839E+00 -0.20692338439E+01 -0.47937506643E+02  0.47982888074E+02  0.00000000000E+00 0.  1.
         -1    1    1    2    0  502 -0.36596933789E+01  0.29885565153E+02 -0.54946229228E+03  0.55028660805E+03  0.00000000000E+00 0. -1.
<mgrwt>
<rscale>  1 0.30000000E+03</rscale>
<asrwt>0</asrwt>
<pdfrwt beam="1">  1       21 0.33563447E-02 0.30000000E+03</pdfrwt>
<pdfrwt beam="2">0</pdfrwt>
<totfact> 0.56436234E+04</totfact>
</mgrwt>
</event>
<event>
 6    1  0.6513574E-002  0.3000000E+03  0.7818608E-02  0.1093470E+00
         21   -1    0    0  501  502  0.00000000000E+00  0.00000000000E+00  0.16710449541E+01  0.16710449541E+01  0.00000000000E+00 0. -1.
         13   -1    0    0    0    0 -0.00000000000E+00 -0.00000000000E+00 -0.10000000000E+04  0.10000000000E+04  0.00000000000E+00 0.  1.
    9000005    2    1    2  501    0 -0.28030595536E+02  0.19426822581E+02 -0.77458848014E+03  0.77534624333E+03  0.33716093610E+01 0.  0.
         13    1    3    3    0    0 -0.16650338835E+02  0.13082937160E+02 -0.45575955415E+03  0.45625121176E+03  0.00000000000E+00 0.  1.
          1    1    3    3  501    0 -0.11380256702E+02  0.63438854210E+01 -0.31882892599E+03  0.31909503157E+03  0.00000000000E+00 0.  1.
         -1    1    1    2    0  502  0.28030595536E+02 -0.19426822581E+02 -0.22374047490E+03  0.22632480163E+03  0.00000000000E+00 0. -1.
<mgrwt>
<rscale>  1 0.30000000E+03</rscale>
<asrwt>0</asrwt>
<pdfrwt beam="1">  1       21 0.60765399E-02 0.30000000E+03</pdfrwt>
<pdfrwt beam="2">0</pdfrwt>
<totfact> 0.20615890E+04</totfact>
</mgrwt>
</event>
<event>
 6    1  0.6513574E-002  0.3000000E+03  0.7818608E-02  0.1093470E+00
         21   -1    0    0  501  502  0.00000000000E+00  0.00000000000E+00  0.97046347141E+00  0.97046347141E+00  0.00000000000E+00 0. -1.
         13   -1    0    0    0    0 -0.00000000000E+00 -0.00000000000E+00 -0.10000000000E+04  0.10000000000E+04  0.00000000000E+00 0.  1.
    9000005    2    1    2  501    0  0.21434250613E+02  0.22098465060E+02 -0.46835826886E+03  0.46940695495E+03  0.59709373769E+01 0.  0.
         13    1    3    3    0    0  0.47099362880E+01  0.88132023374E+01 -0.15423057142E+03  0.15455395562E+03  0.00000000000E+00 0.  1.
          1    1    3    3  501    0  0.16724314325E+02  0.13285262723E+02 -0.31412769744E+03  0.31485299934E+03  0.00000000000E+00 0.  1.
         -1    1    1    2    0  502 -0.21434250613E+02 -0.22098465060E+02 -0.53067126767E+03  0.53156350852E+03  0.00000000000E+00 0. -1.
<mgrwt>
<rscale>  1 0.30000000E+03</rscale>
<asrwt>0</asrwt>
<pdfrwt beam="1">  1       21 0.35289655E-02 0.30000000E+03</pdfrwt>
<pdfrwt beam="2">0</pdfrwt>
<totfact> 0.51895432E+04</totfact>
</mgrwt>
</event>
<event>
 6    1  0.6513574E-002  0.3000000E+03  0.7818608E-02  0.1093470E+00
         21   -1    0    0  501  502  0.00000000000E+00  0.00000000000E+00  0.14659208433E+01  0.14659208433E+01  0.00000000000E+00 0. -1.
         13   -1    0    0    0    0 -0.00000000000E+00 -0.00000000000E+00 -0.10000000000E+04  0.10000000000E+04  0.00000000000E+00 0.  1.
    9000005    2    1    2  501    0  0.16729354448E+02 -0.33823010978E+02 -0.57673142443E+03  0.57797879364E+03  0.40598770033E+01 0.  0.
         13    1    3    3    0    0  0.15294253475E+02 -0.32649331175E+02 -0.54189282199E+03  0.54309089805E+03  0.00000000000E+00 0.  1.
          3    1    3    3  501    0  0.14351009732E+01 -0.11736798027E+01 -0.34838602432E+02  0.34887895587E+02  0.00000000000E+00 0.  1.
         -3    1    1    2    0  502 -0.16729354448E+02  0.33823010978E+02 -0.42180265473E+03  0.42348712721E+03  0.00000000000E+00 0. -1.
<mgrwt>
<rscale>  1 0.30000000E+03</rscale>
<asrwt>0</asrwt>
<pdfrwt beam="1">  1       21 0.53306325E-02 0.30000000E+03</pdfrwt>
<pdfrwt beam="2">0</pdfrwt>
<totfact> 0.25821048E+04</totfact>
</mgrwt>
</event>
<event>
 6    1  0.6513574E-002  0.3000000E+03  0.7818608E-02  0.1093470E+00
         21   -1    0    0  501  502  0.00000000000E+00  0.00000000000E+00  0.19092961054E+01  0.19092961054E+01  0.00000000000E+00 0. -1.
         13   -1    0    0    0    0 -0.00000000000E+00 -0.00000000000E+00 -0.10000000000E+04  0.10000000000E+04  0.00000000000E+00 0.  1.
    9000005    2    1    2  501    0 -0.20707700123E+02  0.26610572202E+02 -0.18218995586E+03  0.18531211141E+03  0.32353090000E+01 0.  0.
         13    1    3    3    0    0 -0.10632966205E+02  0.11505712911E+02 -0.79377780930E+02  0.80909044644E+02  0.00000000000E+00 0.  1.
          1    1    3    3  501    0 -0.10074733918E+02  0.15104859290E+02 -0.10281217493E+03  0.10440306677E+03  0.00000000000E+00 0.  1.
         -1    1    1    2    0  502  0.20707700123E+02 -0.26610572202E+02 -0.81590074804E+03  0.81659718469E+03  0.00000000000E+00 0. -1.
<mgrwt>
<rscale>  1 0.30000000E+03</rscale>
<asrwt>0</asrwt>
<pdfrwt beam="1">  1       21 0.69429096E-02 0.30000000E+03</pdfrwt>
<pdfrwt beam="2">0</pdfrwt>
<totfact> 0.16366816E+04</totfact>
</mgrwt>
</event>
<event>
 6    1  0.6513574E-002  0.3000000E+03  0.7818608E-02  0.1093470E+00
         21   -1    0    0  501  502  0.00000000000E+00  0.00000000000E+00  0.10610620830E+01  0.10610620830E+01  0.00000000000E+00 0. -1.
         13   -1    0    0    0    0 -0.00000000000E+00 -0.00000000000E+00 -0.10000000000E+04  0.10000000000E+04  0.00000000000E+00 0.  1.
    9000005    2    1    2  501    0  0.32327350020E+02  0.22370157483E+01 -0.46563730679E+03  0.46677584653E+03  0.33952360388E+01 0.  0.
         13    1    3    3    0    0  0.10760372013E+02  0.19618210522E+01 -0.14201398473E+03  0.14243456816E+03  0.00000000000E+00 0.  1.
          1    1    3    3  501    0  0.21566978007E+02  0.27519469604E+00 -0.32362332206E+03  0.32434127837E+03  0.00000000000E+00 0.  1.
         -3    1    1    2    0  502 -0.32327350020E+02 -0.22370157483E+01 -0.53330163112E+03  0.53428521555E+03  0.00000000000E+00 0. -1.
<mgrwt>
<rscale>  1 0.30000000E+03</rscale>
<asrwt>0</asrwt>
<pdfrwt beam="1">  1       21 0.38584157E-02 0.30000000E+03</pdfrwt>
<pdfrwt beam="2">0</pdfrwt>
<totfact> 0.44675802E+04</totfact>
</mgrwt>
</event>
<event>
 6    1  0.6513574E-002  0.3000000E+03  0.7818608E-02  0.1093470E+00
         21   -1    0    0  501  502  0.00000000000E+00  0.00000000000E+00  0.41065948245E+01  0.41065948245E+01  0.00000000000E+00 0. -1.
         13   -1    0    0    0    0 -0.00000000000E+00 -0.00000000000E+00 -0.10000000000E+04  0.10000000000E+04  0.00000000000E+00 0.  1.
    9000005    2    1    2  501    0 -0.49965563481E+02  0.34675221020E+02 -0.65491715673E+03  0.65774878779E+03  0.42493739123E+01 0.  0.
         13    1    3    3    0    0 -0.23647048542E+02  0.16338801848E+02 -0.28671758493E+03  0.28815466830E+03  0.00000000000E+00 0.  1.
          3    1    3    3  501    0 -0.26318514940E+02  0.18336419172E+02 -0.36819957179E+03  0.36959411950E+03  0.00000000000E+00 0.  1.
         -1    1    1    2    0  502  0.49965563481E+02 -0.34675221020E+02 -0.34097624845E+03  0.34635780703E+03  0.00000000000E+00 0. -1.
<mgrwt>
<rscale>  1 0.30000000E+03</rscale>
<asrwt>0</asrwt>
<pdfrwt beam="1">  1       21 0.14933104E-01 0.30000000E+03</pdfrwt>
<pdfrwt beam="2">0</pdfrwt>
<totfact> 0.41522366E+03</totfact>
</mgrwt>
</event>
<event>
 6    1  0.7242476E-002  0.3000000E+03  0.7818608E-02  0.1093470E+00
         21   -1    0    0  501  502  0.00000000000E+00  0.00000000000E+00  0.17538176652E+01  0.17538176652E+01  0.00000000000E+00 0. -1.
         13   -1    0    0    0    0 -0.00000000000E+00 -0.00000000000E+00 -0.10000000000E+04  0.10000000000E+04  0.00000000000E+00 0.  1.
    9000005    2    1    2  501    0 -0.11827787093E+02 -0.31146858143E+02 -0.79791751668E+03  0.79867354388E+03  0.98510375688E+01 0.  0.
         13    1    3    3    0    0 -0.41769418696E+01 -0.23566998646E+02 -0.53251802495E+03  0.53305562295E+03  0.00000000000E+00 0.  1.
          3    1    3    3  501    0 -0.76508452237E+01 -0.75798594976E+01 -0.26539949173E+03  0.26561792092E+03  0.00000000000E+00 0.  1.
         -1    1    1    2    0  502  0.11827787093E+02  0.31146858143E+02 -0.20032866565E+03  0.20308027379E+03  0.00000000000E+00 0. -1.
<mgrwt>
<rscale>  1 0.30000000E+03</rscale>
<asrwt>0</asrwt>
<pdfrwt beam="1">  1       21 0.63775322E-02 0.30000000E+03</pdfrwt>
<pdfrwt beam="2">0</pdfrwt>
<totfact> 0.18964084E+04</totfact>
</mgrwt>
</event>
<event>
 6    1  0.6513574E-002  0.3000000E+03  0.7818608E-02  0.1093470E+00
         21   -1    0    0  501  502  0.00000000000E+00  0.00000000000E+00  0.17531508923E+01  0.17531508923E+01  0.00000000000E+00 0. -1.
         13   -1    0    0    0    0 -0.00000000000E+00 -0.00000000000E+00 -0.10000000000E+04  0.10000000000E+04  0.00000000000E+00 0.  1.
    9000005    2    1    2  501    0  0.91080520277E+01  0.40064282292E+02 -0.58586554987E+03  0.58733013116E+03  0.54897277232E+01 0.  0.
         13    1    3    3    0    0  0.75012241652E+01  0.38442866891E+02 -0.55454329522E+03  0.55592480486E+03  0.00000000000E+00 0.  1.
          3    1    3    3  501    0  0.16068278625E+01  0.16214154011E+01 -0.31322254650E+02  0.31405326300E+02  0.00000000000E+00 0.  1.
         -1    1    1    2    0  502 -0.91080520277E+01 -0.40064282292E+02 -0.41238129924E+03  0.41442301973E+03  0.00000000000E+00 0. -1.
<mgrwt>
<rscale>  1 0.30000000E+03</rscale>
<asrwt>0</asrwt>
<pdfrwt beam="1">  1       21 0.63751076E-02 0.30000000E+03</pdfrwt>
<pdfrwt beam="2">0</pdfrwt>
<totfact> 0.18976560E+04</totfact>
</mgrwt>
</event>
<event>
 6    1  0.6513574E-002  0.3000000E+03  0.7818608E-02  0.1093470E+00
         21   -1    0    0  501  502  0.00000000000E+00  0.00000000000E+00  0.10141021113E+01  0.10141021113E+01  0.00000000000E+00 0. -1.
         13   -1    0    0    0    0 -0.00000000000E+00 -0.00000000000E+00 -0.10000000000E+04  0.10000000000E+04  0.00000000000E+00 0.  1.
    9000005    2    1    2  501    0 -0.27340745760E+02  0.15482906689E+02 -0.42697698989E+03  0.42814288831E+03  0.31218795964E+01 0.  0.
         13    1    3    3    0    0 -0.82834442105E+01  0.50558317190E+01 -0.11351203947E+03  0.11392611635E+03  0.00000000000E+00 0.  1.
          3    1    3    3  501    0 -0.19057301550E+02  0.10427074971E+02 -0.31346495042E+03  0.31421677196E+03  0.00000000000E+00 0.  1.
         -1    1    1    2    0  502  0.27340745760E+02 -0.15482906689E+02 -0.57200890800E+03  0.57287121380E+03  0.00000000000E+00 0. -1.
<mgrwt>
<rscale>  1 0.30000000E+03</rscale>
<asrwt>0</asrwt>
<pdfrwt beam="1">  1       21 0.36876518E-02 0.30000000E+03</pdfrwt>
<pdfrwt beam="2">0</pdfrwt>
<totfact> 0.48205143E+04</totfact>
</mgrwt>
</event>
<event>
 6    1  0.6513574E-002  0.3000000E+03  0.7818608E-02  0.1093470E+00
         21   -1    0    0  501  502  0.00000000000E+00  0.00000000000E+00  0.22755020495E+01  0.22755020495E+01  0.00000000000E+00 0. -1.
         13   -1    0    0    0    0 -0.00000000000E+00 -0.00000000000E+00 -0.10000000000E+04  0.10000000000E+04  0.00000000000E+00 0.  1.
    9000005    2    1    2  501    0  0.52763655723E+01  0.34182181074E+02 -0.15568727107E+03  0.15952823686E+03  0.38040037915E+01 0.  0.
         13    1    3    3    0    0  0.69508594524E+00  0.91199726787E+01 -0.34500847954E+02  0.35692654086E+02  0.00000000000E+00 0.  1.
          1    1    3    3  501    0  0.45812796271E+01  0.25062208396E+02 -0.12118642312E+03  0.12383558277E+03  0.00000000000E+00 0.  1.
         -1    1    1    2    0  502 -0.52763655723E+01 -0.34182181074E+02 -0.84203722688E+03  0.84274726519E+03  0.00000000000E+00 0. -1.
<mgrwt>
<rscale>  1 0.30000000E+03</rscale>
<asrwt>0</asrwt>
<pdfrwt beam="1">  1       21 0.82745704E-02 0.30000000E+03</pdfrwt>
<pdfrwt beam="2">0</pdfrwt>
<totfact> 0.12038012E+04</totfact>
</mgrwt>
</event>
<event>
 6    1  0.6513574E-002  0.3000000E+03  0.7818608E-02  0.1093470E+00
         21   -1    0    0  501  502  0.00000000000E+00  0.00000000000E+00  0.10963945523E+01  0.10963945523E+01  0.00000000000E+00 0. -1.
         13   -1    0    0    0    0 -0.00000000000E+00 -0.00000000000E+00 -0.10000000000E+04  0.10000000000E+04  0.00000000000E+00 0.  1.
    9000005    2    1    2  501    0  0.12320176223E+02  0.30540627519E+02 -0.47663789862E+03  0.47779343717E+03  0.42855029266E+01 0.  0.
         13    1    3    3    0    0  0.89060503168E+01  0.20307438410E+02 -0.29208024027E+03  0.29292076837E+03  0.00000000000E+00 0.  1.
          3    1    3    3  501    0  0.34141259065E+01  0.10233189109E+02 -0.18455765834E+03  0.18487266880E+03  0.00000000000E+00 0.  1.
         -3    1    1    2    0  502 -0.12320176223E+02 -0.30540627519E+02 -0.52226570683E+03  0.52330295738E+03  0.00000000000E+00 0. -1.
<mgrwt>
<rscale>  1 0.30000000E+03</rscale>
<asrwt>0</asrwt>
<pdfrwt beam="1">  1       21 0.39868977E-02 0.30000000E+03</pdfrwt>
<pdfrwt beam="2">0</pdfrwt>
<totfact> 0.42280268E+04</totfact>
</mgrwt>
</event>
<event>
 6    1  0.6513574E-002  0.3000000E+03  0.7818608E-02  0.1093470E+00
         21   -1    0    0  501  502  0.00000000000E+00  0.00000000000E+00  0.10709013655E+01  0.10709013655E+01  0.00000000000E+00 0. -1.
         13   -1    0    0    0    0 -0.00000000000E+00 -0.00000000000E+00 -0.10000000000E+04  0.10000000000E+04  0.00000000000E+00 0.  1.
    9000005    2    1    2  501    0  0.14415628943E+02 -0.29211556056E+02 -0.51113295383E+03  0.51218829352E+03  0.43389129530E+01 0.  0.
         13    1    3    3    0    0  0.42222602856E+01 -0.12192730204E+02 -0.22334385897E+03  0.22371627007E+03  0.00000000000E+00 0.  1.
          1    1    3    3  501    0  0.10193368658E+02 -0.17018825852E+02 -0.28778909485E+03  0.28847202345E+03  0.00000000000E+00 0.  1.
         -3    1    1    2    0  502 -0.14415628943E+02  0.29211556056E+02 -0.48779614481E+03  0.48888260785E+03  0.00000000000E+00 0. -1.
<mgrwt>
<rscale>  1 0.30000000E+03</rscale>
<asrwt>0</asrwt>
<pdfrwt beam="1">  1       21 0.38941950E-02 0.30000000E+03</pdfrwt>
<pdfrwt beam="2">0</pdfrwt>
<totfact> 0.43987735E+04</totfact>
</mgrwt>
</event>
<event>
 6    1  0.6513574E-002  0.3000000E+03  0.7818608E-02  0.1093470E+00
         21   -1    0    0  501  502  0.00000000000E+00  0.00000000000E+00  0.48364000222E+01  0.48364000222E+01  0.00000000000E+00 0. -1.
         13   -1    0    0    0    0 -0.00000000000E+00 -0.00000000000E+00 -0.10000000000E+04  0.10000000000E+04  0.00000000000E+00 0.  1.
    9000005    2    1    2  501    0 -0.27364633520E+02  0.37661518864E+02 -0.87048780711E+03  0.87175271771E+03  0.60469276962E+01 0.  0.
         13    1    3    3    0    0 -0.90915468290E+01  0.93653014020E+01 -0.20795484239E+03  0.20836406016E+03  0.00000000000E+00 0.  1.
          1    1    3    3  501    0 -0.18273086691E+02  0.28296217462E+02 -0.66253296472E+03  0.66338865755E+03  0.00000000000E+00 0.  1.
         -3    1    1    2    0  502  0.27364633520E+02 -0.37661518864E+02 -0.12467579286E+03  0.13308368231E+03  0.00000000000E+00 0. -1.
<mgrwt>
<rscale>  1 0.30000000E+03</rscale>
<asrwt>0</asrwt>
<pdfrwt beam="1">  1       21 0.17586946E-01 0.30000000E+03</pdfrwt>
<pdfrwt beam="2">0</pdfrwt>
<totfact> 0.30603208E+03</totfact>
</mgrwt>
</event>
<event>
 6    1  0.6513574E-002  0.3000000E+03  0.7818608E-02  0.1093470E+00
         21   -1    0    0  501  502  0.00000000000E+00  0.00000000000E+00  0.31413548843E+01  0.31413548843E+01  0.00000000000E+00 0. -1.
         13   -1    0    0    0    0 -0.00000000000E+00 -0.00000000000E+00 -0.10000000000E+04  0.10000000000E+04  0.00000000000E+00 0.  1.
    9000005    2    1    2  501    0 -0.25942599911E+02  0.30552990907E+02 -0.14833774904E+03  0.15367433679E+03  0.22825984750E+01 0.  0.
         13    1    3    3    0    0 -0.84006581115E+01  0.95613369034E+01 -0.43200319771E+02  0.45036183769E+02  0.00000000000E+00 0.  1.
          3    1    3    3  501    0 -0.17541941799E+02  0.20991654003E+02 -0.10513742927E+03  0.10863815303E+03  0.00000000000E+00 0.  1.
         -1    1    1    2    0  502  0.25942599911E+02 -0.30552990907E+02 -0.84852089608E+03  0.84946701809E+03  0.00000000000E+00 0. -1.
<mgrwt>
<rscale>  1 0.30000000E+03</rscale>
<asrwt>0</asrwt>
<pdfrwt beam="1">  1       21 0.11423133E-01 0.30000000E+03</pdfrwt>
<pdfrwt beam="2">0</pdfrwt>
<totfact> 0.67751178E+03</totfact>
</mgrwt>
</event>
<event>
 6    1  0.6513574E-002  0.3000000E+03  0.7818608E-02  0.1093470E+00
         21   -1    0    0  501  502  0.00000000000E+00  0.00000000000E+00  0.28264099386E+01  0.28264099386E+01  0.00000000000E+00 0. -1.
         13   -1    0    0    0    0 -0.00000000000E+00 -0.00000000000E+00 -0.10000000000E+04  0.10000000000E+04  0.00000000000E+00 0.  1.
    9000005    2    1    2  501    0  0.11865469413E+01 -0.52944650242E+02 -0.46117075598E+03  0.46421376431E+03  0.33777100394E+01 0.  0.
         13    1    3    3    0    0  0.18353457359E+01 -0.15285868984E+02 -0.13079146159E+03  0.13169446727E+03  0.00000000000E+00 0.  1.
          1    1    3    3  501    0 -0.64879879455E+00 -0.37658781257E+02 -0.33037929439E+03  0.33251929705E+03  0.00000000000E+00 0.  1.
         -1    1    1    2    0  502 -0.11865469413E+01  0.52944650242E+02 -0.53600283408E+03  0.53861264563E+03  0.00000000000E+00 0. -1.
<mgrwt>
<rscale>  1 0.30000000E+03</rscale>
<asrwt>0</asrwt>
<pdfrwt beam="1">  1       21 0.10277876E-01 0.30000000E+03</pdfrwt>
<pdfrwt beam="2">0</pdfrwt>
<totfact> 0.81916715E+03</totfact>
</mgrwt>
</event>
<event>
 6    1  0.6513574E-002  0.3000000E+03  0.7818608E-02  0.1093470E+00
         21   -1    0    0  501  502  0.00000000000E+00  0.00000000000E+00  0.80076553222E+01  0.80076553222E+01  0.00000000000E+00 0. -1.
         13   -1    0    0    0    0 -0.00000000000E+00 -0.00000000000E+00 -0.10000000000E+04  0.10000000000E+04  0.00000000000E+00 0.  1.
    9000005    2    1    2  501    0 -0.67314900648E+02 -0.19966356660E+02 -0.18843068773E+03  0.20138426875E+03  0.10933817914E+02 0.  0.
         13    1    3    3    0    0 -0.35884980844E+02 -0.16261126437E+02 -0.10653461119E+03  0.11358600031E+03  0.00000000000E+00 0.  1.
          1    1    3    3  501    0 -0.31429919804E+02 -0.37052302227E+01 -0.81896076533E+02  0.87798268442E+02  0.00000000000E+00 0.  1.
         -1    1    1    2    0  502  0.67314900648E+02  0.19966356660E+02 -0.80356165695E+03  0.80662338658E+03  0.00000000000E+00 0. -1.
<mgrwt>
<rscale>  1 0.30000000E+03</rscale>
<asrwt>0</asrwt>
<pdfrwt beam="1">  1       21 0.29118808E-01 0.30000000E+03</pdfrwt>
<pdfrwt beam="2">0</pdfrwt>
<totfact> 0.11539542E+03</totfact>
</mgrwt>
</event>
<event>
 6    1  0.6513574E-002  0.3000000E+03  0.7818608E-02  0.1093470E+00
         21   -1    0    0  501  502  0.00000000000E+00  0.00000000000E+00  0.22843439782E+01  0.22843439782E+01  0.00000000000E+00 0. -1.
         13   -1    0    0    0    0 -0.00000000000E+00 -0.00000000000E+00 -0.10000000000E+04  0.10000000000E+04  0.00000000000E+00 0.  1.
    9000005    2    1    2  501    0 -0.38940557778E+02 -0.17969517419E+02 -0.28006767514E+03  0.28335604779E+03  0.36710440494E+01 0.  0.
         13    1    3    3    0    0 -0.21561599897E+02 -0.87725040230E+01 -0.14199771164E+03  0.14389304892E+03  0.00000000000E+00 0.  1.
          1    1    3    3  501    0 -0.17378957881E+02 -0.91970133964E+01 -0.13806996350E+03  0.13946299887E+03  0.00000000000E+00 0.  1.
         -1    1    1    2    0  502  0.38940557778E+02  0.17969517419E+02 -0.71764798088E+03  0.71892829619E+03  0.00000000000E+00 0. -1.
<mgrwt>
<rscale>  1 0.30000000E+03</rscale>
<asrwt>0</asrwt>
<pdfrwt beam="1">  1       21 0.83067229E-02 0.30000000E+03</pdfrwt>
<pdfrwt beam="2">0</pdfrwt>
<totfact> 0.11956111E+04</totfact>
</mgrwt>
</event>
<event>
 6    1  0.6513574E-002  0.3000000E+03  0.7818608E-02  0.1093470E+00
         21   -1    0    0  501  502  0.00000000000E+00  0.00000000000E+00  0.10418787015E+01  0.10418787015E+01  0.00000000000E+00 0. -1.
         13   -1    0    0    0    0 -0.00000000000E+00 -0.00000000000E+00 -0.10000000000E+04  0.10000000000E+04  0.00000000000E+00 0.  1.
    9000005    2    1    2  501    0 -0.25151895551E+02 -0.18940777866E+02 -0.60552895664E+03  0.60635481466E+03  0.30778269436E+01 0.  0.
         13    1    3    3    0    0 -0.21012988716E+02 -0.15684923154E+02 -0.48037607464E+03  0.48109119260E+03  0.00000000000E+00 0.  1.
          1    1    3    3  501    0 -0.41389068347E+01 -0.32558547120E+01 -0.12515288200E+03  0.12526362206E+03  0.00000000000E+00 0.  1.
         -1    1    1    2    0  502  0.25151895551E+02  0.18940777866E+02 -0.39342916466E+03  0.39468706404E+03  0.00000000000E+00 0. -1.
<mgrwt>
<rscale>  1 0.30000000E+03</rscale>
<asrwt>0</asrwt>
<pdfrwt beam="1">  1       21 0.37886578E-02 0.30000000E+03</pdfrwt>
<pdfrwt beam="2">0</pdfrwt>
<totfact> 0.46066852E+04</totfact>
</mgrwt>
</event>
<event>
 6    1  0.6513574E-002  0.3000000E+03  0.7818608E-02  0.1093470E+00
         21   -1    0    0  501  502  0.00000000000E+00  0.00000000000E+00  0.10162637401E+01  0.10162637401E+01  0.00000000000E+00 0. -1.
         13   -1    0    0    0    0 -0.00000000000E+00 -0.00000000000E+00 -0.10000000000E+04  0.10000000000E+04  0.00000000000E+00 0.  1.
    9000005    2    1    2  501    0 -0.23722437366E+02 -0.19875911122E+02 -0.60696375428E+03  0.60777655040E+03  0.54341813687E+01 0.  0.
         13    1    3    3    0    0 -0.12599648859E+02 -0.13731295435E+02 -0.38171382875E+03  0.38216847945E+03  0.00000000000E+00 0.  1.
          1    1    3    3  501    0 -0.11122788507E+02 -0.61446156873E+01 -0.22524992553E+03  0.22560807095E+03  0.00000000000E+00 0.  1.
         -1    1    1    2    0  502  0.23722437366E+02  0.19875911122E+02 -0.39201998198E+03  0.39323971334E+03  0.00000000000E+00 0. -1.
<mgrwt>
<rscale>  1 0.30000000E+03</rscale>
<asrwt>0</asrwt>
<pdfrwt beam="1">  1       21 0.36955123E-02 0.30000000E+03</pdfrwt>
<pdfrwt beam="2">0</pdfrwt>
<totfact> 0.48033181E+04</totfact>
</mgrwt>
</event>
<event>
 6    1  0.6513574E-002  0.3000000E+03  0.7818608E-02  0.1093470E+00
         21   -1    0    0  501  502  0.00000000000E+00  0.00000000000E+00  0.15051936979E+01  0.15051936979E+01  0.00000000000E+00 0. -1.
         13   -1    0    0    0    0 -0.00000000000E+00 -0.00000000000E+00 -0.10000000000E+04  0.10000000000E+04  0.00000000000E+00 0.  1.
    9000005    2    1    2  501    0 -0.17507386402E+02  0.30556769873E+02 -0.31877411241E+03  0.32087280653E+03  0.10109325429E+02 0.  0.
         13    1    3    3    0    0 -0.14260397470E+02  0.15052035321E+02 -0.18999037571E+03  0.19111845951E+03  0.00000000000E+00 0.  1.
          3    1    3    3  501    0 -0.32469889318E+01  0.15504734552E+02 -0.12878373671E+03  0.12975434702E+03  0.00000000000E+00 0.  1.
         -1    1    1    2    0  502  0.17507386402E+02 -0.30556769873E+02 -0.67972069389E+03  0.68063238717E+03  0.00000000000E+00 0. -1.
<mgrwt>
<rscale>  1 0.30000000E+03</rscale>
<asrwt>0</asrwt>
<pdfrwt beam="1">  1       21 0.54734432E-02 0.30000000E+03</pdfrwt>
<pdfrwt beam="2">0</pdfrwt>
<totfact> 0.24678078E+04</totfact>
</mgrwt>
</event>
<event>
 6    1  0.6513574E-002  0.3000000E+03  0.7818608E-02  0.1093470E+00
         21   -1    0    0  501  502  0.00000000000E+00  0.00000000000E+00  0.10499114846E+01  0.10499114846E+01  0.00000000000E+00 0. -1.
         13   -1    0    0    0    0 -0.00000000000E+00 -0.00000000000E+00 -0.10000000000E+04  0.10000000000E+04  0.00000000000E+00 0.  1.
    9000005    2    1    2  501    0  0.28833897651E+01 -0.31393458214E+02 -0.60973861605E+03  0.61056376134E+03  0.36143609757E+01 0.  0.
         13    1    3    3    0    0  0.27314317495E+01 -0.24359178209E+02 -0.49922227744E+03  0.49982368148E+03  0.00000000000E+00 0.  1.
          3    1    3    3  501    0  0.15195801559E+00 -0.70342800050E+01 -0.11051633861E+03  0.11074007986E+03  0.00000000000E+00 0.  1.
         -1    1    1    2    0  502 -0.28833897651E+01  0.31393458214E+02 -0.38921147247E+03  0.39048615014E+03  0.00000000000E+00 0. -1.
<mgrwt>
<rscale>  1 0.30000000E+03</rscale>
<asrwt>0</asrwt>
<pdfrwt beam="1">  1       21 0.38178680E-02 0.30000000E+03</pdfrwt>
<pdfrwt beam="2">0</pdfrwt>
<totfact> 0.45476202E+04</totfact>
</mgrwt>
</event>
<event>
 6    1  0.6513574E-002  0.3000000E+03  0.7818608E-02  0.1093470E+00
         21   -1    0    0  501  502  0.00000000000E+00  0.00000000000E+00  0.10530176606E+01  0.10530176606E+01  0.00000000000E+00 0. -1.
         13   -1    0    0    0    0 -0.00000000000E+00 -0.00000000000E+00 -0.10000000000E+04  0.10000000000E+04  0.00000000000E+00 0.  1.
    9000005    2    1    2  501    0 -0.78940068228E+01  0.29217138297E+02 -0.67559440341E+03  0.67628718385E+03  0.45387883199E+01 0.  0.
         13    1    3    3    0    0 -0.58913089220E+01  0.13232545987E+02 -0.32801760352E+03  0.32833725955E+03  0.00000000000E+00 0.  1.
          1    1    3    3  501    0 -0.20026979008E+01  0.15984592310E+02 -0.34757679989E+03  0.34794992429E+03  0.00000000000E+00 0.  1.
         -3    1    1    2    0  502  0.78940068228E+01 -0.29217138297E+02 -0.32335257893E+03  0.32476583381E+03  0.00000000000E+00 0. -1.
<mgrwt>
<rscale>  1 0.30000000E+03</rscale>
<asrwt>0</asrwt>
<pdfrwt beam="1">  1       21 0.38291632E-02 0.30000000E+03</pdfrwt>
<pdfrwt beam="2">0</pdfrwt>
<totfact> 0.45250989E+04</totfact>
</mgrwt>
</event>
<event>
 6    1  0.6513574E-002  0.3000000E+03  0.7818608E-02  0.1093470E+00
         21   -1    0    0  501  502  0.00000000000E+00  0.00000000000E+00  0.11081286420E+01  0.11081286420E+01  0.00000000000E+00 0. -1.
         13   -1    0    0    0    0 -0.00000000000E+00 -0.00000000000E+00 -0.10000000000E+04  0.10000000000E+04  0.00000000000E+00 0.  1.
    9000005    2    1    2  501    0 -0.32664999801E+02  0.82615493626E+00 -0.41492498443E+03  0.41622779065E+03  0.38918195212E+01 0.  0.
         13    1    3    3    0    0 -0.21102556932E+02  0.16031199529E+01 -0.24827209030E+03  0.24917246783E+03  0.00000000000E+00 0.  1.
          1    1    3    3  501    0 -0.11562442869E+02 -0.77696501667E+00 -0.16665289413E+03  0.16705532281E+03  0.00000000000E+00 0.  1.
         -3    1    1    2    0  502  0.32664999801E+02 -0.82615493626E+00 -0.58396688693E+03  0.58488033799E+03  0.00000000000E+00 0. -1.
<mgrwt>
<rscale>  1 0.30000000E+03</rscale>
<asrwt>0</asrwt>
<pdfrwt beam="1">  1       21 0.40295672E-02 0.30000000E+03</pdfrwt>
<pdfrwt beam="2">0</pdfrwt>
<totfact> 0.41528966E+04</totfact>
</mgrwt>
</event>
<event>
 6    1  0.6513574E-002  0.3000000E+03  0.7818608E-02  0.1093470E+00
         21   -1    0    0  501  502  0.00000000000E+00  0.00000000000E+00  0.21187461801E+01  0.21187461801E+01  0.00000000000E+00 0. -1.
         13   -1    0    0    0    0 -0.00000000000E+00 -0.00000000000E+00 -0.10000000000E+04  0.10000000000E+04  0.00000000000E+00 0.  1.
    9000005    2    1    2  501    0  0.17026024309E+02 -0.32209128579E+02 -0.19421585847E+03  0.19762798729E+03  0.31157998707E+01 0.  0.
         13    1    3    3    0    0  0.13610062939E+02 -0.24443564003E+02 -0.14241469174E+03  0.14513671506E+03  0.00000000000E+00 0.  1.
          3    1    3    3  501    0  0.34159613701E+01 -0.77655645756E+01 -0.51801166730E+02  0.52491272226E+02  0.00000000000E+00 0.  1.
         -3    1    1    2    0  502 -0.17026024309E+02  0.32209128579E+02 -0.80366539535E+03  0.80449075889E+03  0.00000000000E+00 0. -1.
<mgrwt>
<rscale>  1 0.30000000E+03</rscale>
<asrwt>0</asrwt>
<pdfrwt beam="1">  1       21 0.77045478E-02 0.30000000E+03</pdfrwt>
<pdfrwt beam="2">0</pdfrwt>
<totfact> 0.13645797E+04</totfact>
</mgrwt>
</event>
<event>
 6    1  0.6513574E-002  0.3000000E+03  0.7818608E-02  0.1093470E+00
         21   -1    0    0  501  502  0.00000000000E+00  0.00000000000E+00  0.12262307239E+01  0.12262307239E+01  0.00000000000E+00 0. -1.
         13   -1    0    0    0    0 -0.00000000000E+00 -0.00000000000E+00 -0.10000000000E+04  0.10000000000E+04  0.00000000000E+00 0.  1.
    9000005    2    1    2  501    0 -0.31786951786E+02 -0.14465847814E+02 -0.48387334223E+03  0.48514278705E+03  0.32313238701E+01 0.  0.
         13    1    3    3    0    0 -0.18480658946E+02 -0.95799767691E+01 -0.27137387905E+03  0.27217107293E+03  0.00000000000E+00 0.  1.
          1    1    3    3  501    0 -0.13306292839E+02 -0.48858710445E+01 -0.21249946318E+03  0.21297171413E+03  0.00000000000E+00 0.  1.
         -1    1    1    2    0  502  0.31786951786E+02  0.14465847814E+02 -0.51490042705E+03  0.51608344367E+03  0.00000000000E+00 0. -1.
<mgrwt>
<rscale>  1 0.30000000E+03</rscale>
<asrwt>0</asrwt>
<pdfrwt beam="1">  1       21 0.44590302E-02 0.30000000E+03</pdfrwt>
<pdfrwt beam="2">0</pdfrwt>
<totfact> 0.34996955E+04</totfact>
</mgrwt>
</event>
<event>
 6    1  0.6513574E-002  0.3000000E+03  0.7818608E-02  0.1093470E+00
         21   -1    0    0  501  502  0.00000000000E+00  0.00000000000E+00  0.11798002064E+01  0.11798002064E+01  0.00000000000E+00 0. -1.
         13   -1    0    0    0    0 -0.00000000000E+00 -0.00000000000E+00 -0.10000000000E+04  0.10000000000E+04  0.00000000000E+00 0.  1.
    9000005    2    1    2  501    0  0.30672069519E+02 -0.14453071268E+02 -0.49076694956E+03  0.49199636353E+03  0.76521777235E+01 0.  0.
         13    1    3    3    0    0  0.24340720247E+01 -0.39306689842E+01 -0.66802253074E+02  0.66962048065E+02  0.00000000000E+00 0.  1.
          3    1    3    3  501    0  0.28237997494E+02 -0.10522402284E+02 -0.42396469649E+03  0.42503431546E+03  0.00000000000E+00 0.  1.
         -3    1    1    2    0  502 -0.30672069519E+02  0.14453071268E+02 -0.50805325023E+03  0.50918343668E+03  0.00000000000E+00 0. -1.
<mgrwt>
<rscale>  1 0.30000000E+03</rscale>
<asrwt>0</asrwt>
<pdfrwt beam="1">  1       21 0.42901916E-02 0.30000000E+03</pdfrwt>
<pdfrwt beam="2">0</pdfrwt>
<totfact> 0.37360745E+04</totfact>
</mgrwt>
</event>
<event>
 6    1  0.6513574E-002  0.3000000E+03  0.7818608E-02  0.1093470E+00
         21   -1    0    0  501  502  0.00000000000E+00  0.00000000000E+00  0.13991851392E+01  0.13991851392E+01  0.00000000000E+00 0. -1.
         13   -1    0    0    0    0 -0.00000000000E+00 -0.00000000000E+00 -0.10000000000E+04  0.10000000000E+04  0.00000000000E+00 0.  1.
    9000005    2    1    2  501    0 -0.32341781786E+02 -0.58956591510E+01 -0.73648658165E+03  0.73723139585E+03  0.41105269066E+01 0.  0.
         13    1    3    3    0    0 -0.31199350840E+02 -0.58940888172E+01 -0.72286673409E+03  0.72356371871E+03  0.00000000000E+00 0.  1.
          1    1    3    3  501    0 -0.11424309459E+01 -0.15703337905E-02 -0.13619847558E+02  0.13667677141E+02  0.00000000000E+00 0.  1.
         -1    1    1    2    0  502  0.32341781786E+02  0.58956591510E+01 -0.26211423321E+03  0.26416778929E+03  0.00000000000E+00 0. -1.
<mgrwt>
<rscale>  1 0.30000000E+03</rscale>
<asrwt>0</asrwt>
<pdfrwt beam="1">  1       21 0.50879567E-02 0.30000000E+03</pdfrwt>
<pdfrwt beam="2">0</pdfrwt>
<totfact> 0.27960596E+04</totfact>
</mgrwt>
</event>
<event>
 6    1  0.6513574E-002  0.3000000E+03  0.7818608E-02  0.1093470E+00
         21   -1    0    0  501  502  0.00000000000E+00  0.00000000000E+00  0.26993437062E+01  0.26993437062E+01  0.00000000000E+00 0. -1.
         13   -1    0    0    0    0 -0.00000000000E+00 -0.00000000000E+00 -0.10000000000E+04  0.10000000000E+04  0.00000000000E+00 0.  1.
    9000005    2    1    2  501    0 -0.94327980621E+01  0.48724957937E+02 -0.64511699698E+03  0.64703597886E+03  0.40643502793E+01 0.  0.
         13    1    3    3    0    0 -0.94331836957E+01  0.41606180174E+02 -0.55825706415E+03  0.55988481749E+03  0.00000000000E+00 0.  1.
          1    1    3    3  501    0  0.38563355135E-03  0.71187777635E+01 -0.86859932827E+02  0.87151161367E+02  0.00000000000E+00 0.  1.
         -1    1    1    2    0  502  0.94327980621E+01 -0.48724957937E+02 -0.35218365932E+03  0.35566336485E+03  0.00000000000E+00 0. -1.
<mgrwt>
<rscale>  1 0.30000000E+03</rscale>
<asrwt>0</asrwt>
<pdfrwt beam="1">  1       21 0.98158160E-02 0.30000000E+03</pdfrwt>
<pdfrwt beam="2">0</pdfrwt>
<totfact> 0.88936145E+03</totfact>
</mgrwt>
</event>
<event>
 6    1  0.6513574E-002  0.3000000E+03  0.7818608E-02  0.1093470E+00
         21   -1    0    0  501  502  0.00000000000E+00  0.00000000000E+00  0.17629423909E+01  0.17629423909E+01  0.00000000000E+00 0. -1.
         13   -1    0    0    0    0 -0.00000000000E+00 -0.00000000000E+00 -0.10000000000E+04  0.10000000000E+04  0.00000000000E+00 0.  1.
    9000005    2    1    2  501    0  0.32402504999E+02  0.24415760301E+02 -0.62600963467E+03  0.62733096449E+03  0.31661706055E+01 0.  0.
         13    1    3    3    0    0  0.90117298590E+01  0.66009118457E+01 -0.19488855015E+03  0.19520842782E+03  0.00000000000E+00 0.  1.
          1    1    3    3  501    0  0.23390775140E+02  0.17814848455E+02 -0.43112108452E+03  0.43212253668E+03  0.00000000000E+00 0.  1.
         -1    1    1    2    0  502 -0.32402504999E+02 -0.24415760301E+02 -0.37222742294E+03  0.37443197790E+03  0.00000000000E+00 0. -1.
<mgrwt>
<rscale>  1 0.30000000E+03</rscale>
<asrwt>0</asrwt>
<pdfrwt beam="1">  1       21 0.64107131E-02 0.30000000E+03</pdfrwt>
<pdfrwt beam="2">0</pdfrwt>
<totfact> 0.18794618E+04</totfact>
</mgrwt>
</event>
<event>
 6    1  0.6513574E-002  0.3000000E+03  0.7818608E-02  0.1093470E+00
         21   -1    0    0  501  502  0.00000000000E+00  0.00000000000E+00  0.29165767229E+01  0.29165767229E+01  0.00000000000E+00 0. -1.
         13   -1    0    0    0    0 -0.00000000000E+00 -0.00000000000E+00 -0.10000000000E+04  0.10000000000E+04  0.00000000000E+00 0.  1.
    9000005    2    1    2  501    0 -0.40308065739E+02  0.20386748035E+02 -0.77300656767E+03  0.77433224463E+03  0.33032946465E+01 0.  0.
         13    1    3    3    0    0 -0.31653571997E+02  0.15003062268E+02 -0.58020603323E+03  0.58126248933E+03  0.00000000000E+00 0.  1.
          3    1    3    3  501    0 -0.86544937416E+01  0.53836857676E+01 -0.19280053444E+03  0.19306975531E+03  0.00000000000E+00 0.  1.
         -1    1    1    2    0  502  0.40308065739E+02 -0.20386748035E+02 -0.22407685561E+03  0.22858433209E+03  0.00000000000E+00 0. -1.
<mgrwt>
<rscale>  1 0.30000000E+03</rscale>
<asrwt>0</asrwt>
<pdfrwt beam="1">  1       21 0.10605756E-01 0.30000000E+03</pdfrwt>
<pdfrwt beam="2">0</pdfrwt>
<totfact> 0.77434539E+03</totfact>
</mgrwt>
</event>
<event>
 6    1  0.6513574E-002  0.3000000E+03  0.7818608E-02  0.1093470E+00
         21   -1    0    0  501  502  0.00000000000E+00  0.00000000000E+00  0.95276035170E+00  0.95276035170E+00  0.00000000000E+00 0. -1.
         13   -1    0    0    0    0 -0.00000000000E+00 -0.00000000000E+00 -0.10000000000E+04  0.10000000000E+04  0.00000000000E+00 0.  1.
    9000005    2    1    2  501    0  0.27374262820E+02 -0.13742947049E+02 -0.46228146721E+03  0.46331374269E+03  0.41533570180E+01 0.  0.
         13    1    3    3    0    0  0.20968269623E+02 -0.11410141584E+02 -0.33467035621E+03  0.33552065061E+03  0.00000000000E+00 0.  1.
          1    1    3    3  501    0  0.64059931976E+01 -0.23328054645E+01 -0.12761111101E+03  0.12779309208E+03  0.00000000000E+00 0.  1.
         -3    1    1    2    0  502 -0.27374262820E+02  0.13742947049E+02 -0.53676577243E+03  0.53763901767E+03  0.00000000000E+00 0. -1.
<mgrwt>
<rscale>  1 0.30000000E+03</rscale>
<asrwt>0</asrwt>
<pdfrwt beam="1">  1       21 0.34645904E-02 0.30000000E+03</pdfrwt>
<pdfrwt beam="2">0</pdfrwt>
<totfact> 0.53520046E+04</totfact>
</mgrwt>
</event>
<event>
 6    1  0.6513574E-002  0.3000000E+03  0.7818608E-02  0.1093470E+00
         21   -1    0    0  501  502  0.00000000000E+00  0.00000000000E+00  0.19396504103E+01  0.19396504103E+01  0.00000000000E+00 0. -1.
         13   -1    0    0    0    0 -0.00000000000E+00 -0.00000000000E+00 -0.10000000000E+04  0.10000000000E+04  0.00000000000E+00 0.  1.
    9000005    2    1    2  501    0  0.10097652675E+01 -0.40594216988E+02 -0.69164499804E+03  0.69284536424E+03  0.36035197084E+01 0.  0.
         13    1    3    3    0    0  0.16605074095E+01 -0.33352388734E+02 -0.58563891905E+03  0.58659021695E+03  0.00000000000E+00 0.  1.
          3    1    3    3  501    0 -0.65074214200E+00 -0.72418282543E+01 -0.10600607900E+03  0.10625514729E+03  0.00000000000E+00 0.  1.
         -1    1    1    2    0  502 -0.10097652675E+01  0.40594216988E+02 -0.30641535155E+03  0.30909428617E+03  0.00000000000E+00 0. -1.
<mgrwt>
<rscale>  1 0.30000000E+03</rscale>
<asrwt>0</asrwt>
<pdfrwt beam="1">  1       21 0.70532891E-02 0.30000000E+03</pdfrwt>
<pdfrwt beam="2">0</pdfrwt>
<totfact> 0.15923659E+04</totfact>
</mgrwt>
</event>
<event>
 6    1  0.6513574E-002  0.3000000E+03  0.7818608E-02  0.1093470E+00
         21   -1    0    0  501  502  0.00000000000E+00  0.00000000000E+00  0.14515951734E+01  0.14515951734E+01  0.00000000000E+00 0. -1.
         13   -1    0    0    0    0 -0.00000000000E+00 -0.00000000000E+00 -0.10000000000E+04  0.10000000000E+04  0.00000000000E+00 0.  1.
    9000005    2    1    2  501    0 -0.29268629209E+02 -0.23779793936E+02 -0.56510768344E+03  0.56637345253E+03  0.31721578154E+01 0.  0.
         13    1    3    3    0    0 -0.41326004481E+01 -0.24172390943E+01 -0.83803412770E+02  0.83940058513E+02  0.00000000000E+00 0.  1.
          3    1    3    3  501    0 -0.25136028761E+02 -0.21362554842E+02 -0.48130427067E+03  0.48243339401E+03  0.00000000000E+00 0.  1.
         -1    1    1    2    0  502  0.29268629209E+02  0.23779793936E+02 -0.43344072138E+03  0.43507814265E+03  0.00000000000E+00 0. -1.
<mgrwt>
<rscale>  1 0.30000000E+03</rscale>
<asrwt>0</asrwt>
<pdfrwt beam="1">  1       21 0.52785390E-02 0.30000000E+03</pdfrwt>
<pdfrwt beam="2">0</pdfrwt>
<totfact> 0.26258432E+04</totfact>
</mgrwt>
</event>
<event>
 6    1  0.6513574E-002  0.3000000E+03  0.7818608E-02  0.1093470E+00
         21   -1    0    0  501  502  0.00000000000E+00  0.00000000000E+00  0.12983126085E+01  0.12983126085E+01  0.00000000000E+00 0. -1.
         13   -1    0    0    0    0 -0.00000000000E+00 -0.00000000000E+00 -0.10000000000E+04  0.10000000000E+04  0.00000000000E+00 0.  1.
    9000005    2    1    2  501    0  0.12155794831E+02 -0.27552609194E+02 -0.22760691966E+03  0.22961570269E+03  0.33987387710E+01 0.  0.
         13    1    3    3    0    0  0.12297093673E+02 -0.27042315216E+02 -0.22101406485E+03  0.22300161924E+03  0.00000000000E+00 0.  1.
          3    1    3    3  501    0 -0.14129884129E+00 -0.51029397786E+00 -0.65928548131E+01  0.66140834507E+01  0.00000000000E+00 0.  1.
         -1    1    1    2    0  502 -0.12155794831E+02  0.27552609194E+02 -0.77109476773E+03  0.77168260992E+03  0.00000000000E+00 0. -1.
<mgrwt>
<rscale>  1 0.30000000E+03</rscale>
<asrwt>0</asrwt>
<pdfrwt beam="1">  1       21 0.47211467E-02 0.30000000E+03</pdfrwt>
<pdfrwt beam="2">0</pdfrwt>
<totfact> 0.31760964E+04</totfact>
</mgrwt>
</event>
<event>
 6    1  0.6513574E-002  0.3000000E+03  0.7818608E-02  0.1093470E+00
         21   -1    0    0  501  502  0.00000000000E+00  0.00000000000E+00  0.16012722205E+01  0.16012722205E+01  0.00000000000E+00 0. -1.
         13   -1    0    0    0    0 -0.00000000000E+00 -0.00000000000E+00 -0.10000000000E+04  0.10000000000E+04  0.00000000000E+00 0.  1.
    9000005    2    1    2  501    0  0.33783640202E+02 -0.17888591776E+02 -0.35793112144E+03  0.35999384487E+03  0.44209261482E+01 0.  0.
         13    1    3    3    0    0  0.29617235031E+02 -0.15412274872E+02 -0.32452786113E+03  0.32624078758E+03  0.00000000000E+00 0.  1.
          1    1    3    3  501    0  0.41664051711E+01 -0.24763169042E+01 -0.33403260304E+02  0.33753057289E+02  0.00000000000E+00 0.  1.
         -1    1    1    2    0  502 -0.33783640202E+02  0.17888591776E+02 -0.64046760634E+03  0.64160742735E+03  0.00000000000E+00 0. -1.
<mgrwt>
<rscale>  1 0.30000000E+03</rscale>
<asrwt>0</asrwt>
<pdfrwt beam="1">  1       21 0.58228204E-02 0.30000000E+03</pdfrwt>
<pdfrwt beam="2">0</pdfrwt>
<totfact> 0.22188982E+04</totfact>
</mgrwt>
</event>
<event>
 6    1  0.6513574E-002  0.3000000E+03  0.7818608E-02  0.1093470E+00
         21   -1    0    0  501  502  0.00000000000E+00  0.00000000000E+00  0.11902748331E+01  0.11902748331E+01  0.00000000000E+00 0. -1.
         13   -1    0    0    0    0 -0.00000000000E+00 -0.00000000000E+00 -0.10000000000E+04  0.10000000000E+04  0.00000000000E+00 0.  1.
    9000005    2    1    2  501    0 -0.25316403381E+02 -0.21463482233E+02 -0.36903712114E+03  0.37054367480E+03  0.35520143178E+01 0.  0.
         13    1    3    3    0    0 -0.22944664729E+02 -0.18933277605E+02 -0.34039007486E+03  0.34168747373E+03  0.00000000000E+00 0.  1.
          3    1    3    3  501    0 -0.23717386514E+01 -0.25302046276E+01 -0.28647046280E+02  0.28856201071E+02  0.00000000000E+00 0.  1.
         -3    1    1    2    0  502  0.25316403381E+02  0.21463482233E+02 -0.62977260403E+03  0.63064660003E+03  0.00000000000E+00 0. -1.
<mgrwt>
<rscale>  1 0.30000000E+03</rscale>
<asrwt>0</asrwt>
<pdfrwt beam="1">  1       21 0.43282812E-02 0.30000000E+03</pdfrwt>
<pdfrwt beam="2">0</pdfrwt>
<totfact> 0.36806319E+04</totfact>
</mgrwt>
</event>
<event>
 6    1  0.6513574E-002  0.3000000E+03  0.7818608E-02  0.1093470E+00
         21   -1    0    0  501  502  0.00000000000E+00  0.00000000000E+00  0.19924383304E+01  0.19924383304E+01  0.00000000000E+00 0. -1.
         13   -1    0    0    0    0 -0.00000000000E+00 -0.00000000000E+00 -0.10000000000E+04  0.10000000000E+04  0.00000000000E+00 0.  1.
    9000005    2    1    2  501    0  0.27781434943E+02 -0.31591191117E+02 -0.33427719141E+03  0.33693017366E+03  0.32999608742E+01 0.  0.
         13    1    3    3    0    0  0.38432790491E+01 -0.27985210171E+01 -0.37941392613E+02  0.38238093404E+02  0.00000000000E+00 0.  1.
          1    1    3    3  501    0  0.23938155894E+02 -0.28792670100E+02 -0.29633579880E+03  0.29869208026E+03  0.00000000000E+00 0.  1.
         -3    1    1    2    0  502 -0.27781434943E+02  0.31591191117E+02 -0.66373037026E+03  0.66506226467E+03  0.00000000000E+00 0. -1.
<mgrwt>
<rscale>  1 0.30000000E+03</rscale>
<asrwt>0</asrwt>
<pdfrwt beam="1">  1       21 0.72452456E-02 0.30000000E+03</pdfrwt>
<pdfrwt beam="2">0</pdfrwt>
<totfact> 0.15195392E+04</totfact>
</mgrwt>
</event>
<event>
 6    1  0.6513574E-002  0.3000000E+03  0.7818608E-02  0.1093470E+00
         21   -1    0    0  501  502  0.00000000000E+00  0.00000000000E+00  0.16360613375E+01  0.16360613375E+01  0.00000000000E+00 0. -1.
         13   -1    0    0    0    0 -0.00000000000E+00 -0.00000000000E+00 -0.10000000000E+04  0.10000000000E+04  0.00000000000E+00 0.  1.
    9000005    2    1    2  501    0  0.24488823865E+02 -0.18588771586E+02 -0.17666632962E+03  0.17936347537E+03  0.38754809939E+01 0.  0.
         13    1    3    3    0    0  0.17627152345E+02 -0.14677841269E+02 -0.12323647488E+03  0.12535303851E+03  0.00000000000E+00 0.  1.
          1    1    3    3  501    0  0.68616715202E+01 -0.39109303168E+01 -0.53429854739E+02  0.54010436857E+02  0.00000000000E+00 0.  1.
         -3    1    1    2    0  502 -0.24488823865E+02  0.18588771586E+02 -0.82169760905E+03  0.82227258597E+03  0.00000000000E+00 0. -1.
<mgrwt>
<rscale>  1 0.30000000E+03</rscale>
<asrwt>0</asrwt>
<pdfrwt beam="1">  1       21 0.59493265E-02 0.30000000E+03</pdfrwt>
<pdfrwt beam="2">0</pdfrwt>
<totfact> 0.21382104E+04</totfact>
</mgrwt>
</event>
<event>
 6    1  0.6513574E-002  0.3000000E+03  0.7818608E-02  0.1093470E+00
         21   -1    0    0  501  502  0.00000000000E+00  0.00000000000E+00  0.12791254287E+01  0.12791254287E+01  0.00000000000E+00 0. -1.
         13   -1    0    0    0    0 -0.00000000000E+00 -0.00000000000E+00 -0.10000000000E+04  0.10000000000E+04  0.00000000000E+00 0.  1.
    9000005    2    1    2  501    0 -0.24037828512E+02 -0.25782822075E+02 -0.57775367587E+03  0.57883865211E+03  0.35077177236E+01 0.  0.
         13    1    3    3    0    0 -0.22610030814E+02 -0.24945580615E+02 -0.53980035307E+03  0.54084925503E+03  0.00000000000E+00 0.  1.
          1    1    3    3  501    0 -0.14277976985E+01 -0.83724145995E+00 -0.37953322800E+02  0.37989397087E+02  0.00000000000E+00 0.  1.
         -3    1    1    2    0  502  0.24037828512E+02  0.25782822075E+02 -0.42096719870E+03  0.42244047332E+03  0.00000000000E+00 0. -1.
<mgrwt>
<rscale>  1 0.30000000E+03</rscale>
<asrwt>0</asrwt>
<pdfrwt beam="1">  1       21 0.46513750E-02 0.30000000E+03</pdfrwt>
<pdfrwt beam="2">0</pdfrwt>
<totfact> 0.32575150E+04</totfact>
</mgrwt>
</event>
<event>
 6    1  0.6513574E-002  0.3000000E+03  0.7818608E-02  0.1093470E+00
         21   -1    0    0  501  502  0.00000000000E+00  0.00000000000E+00  0.20705002502E+01  0.20705002502E+01  0.00000000000E+00 0. -1.
         13   -1    0    0    0    0 -0.00000000000E+00 -0.00000000000E+00 -0.10000000000E+04  0.10000000000E+04  0.00000000000E+00 0.  1.
    9000005    2    1    2  501    0  0.24167659419E+01 -0.30188620663E+02 -0.12642684015E+03  0.13004178554E+03  0.31506353433E+01 0.  0.
         13    1    3    3    0    0  0.11610999517E+01 -0.23472442918E+02 -0.10241157981E+03  0.10507347624E+03  0.00000000000E+00 0.  1.
          3    1    3    3  501    0  0.12556659902E+01 -0.67161777458E+01 -0.24015260333E+02  0.24968309303E+02  0.00000000000E+00 0.  1.
         -3    1    1    2    0  502 -0.24167659419E+01  0.30188620663E+02 -0.87150265960E+03  0.87202871471E+03  0.00000000000E+00 0. -1.
<mgrwt>
<rscale>  1 0.30000000E+03</rscale>
<asrwt>0</asrwt>
<pdfrwt beam="1">  1       21 0.75291077E-02 0.30000000E+03</pdfrwt>
<pdfrwt beam="2">0</pdfrwt>
<totfact> 0.14207770E+04</totfact>
</mgrwt>
</event>
<event>
 6    1  0.6513574E-002  0.3000000E+03  0.7818608E-02  0.1093470E+00
         21   -1    0    0  501  502  0.00000000000E+00  0.00000000000E+00  0.20101448693E+01  0.20101448693E+01  0.00000000000E+00 0. -1.
         13   -1    0    0    0    0 -0.00000000000E+00 -0.00000000000E+00 -0.10000000000E+04  0.10000000000E+04  0.00000000000E+00 0.  1.
    9000005    2    1    2  501    0 -0.29416573053E+02  0.33756338122E+02 -0.49629513495E+03  0.49832133480E+03  0.32352135165E+01 0.  0.
         13    1    3    3    0    0 -0.26993224731E+02  0.29501916273E+02 -0.44507971497E+03  0.44687240900E+03  0.00000000000E+00 0.  1.
          1    1    3    3  501    0 -0.24233483219E+01  0.42544218488E+01 -0.51215419979E+02  0.51448925800E+02  0.00000000000E+00 0.  1.
         -1    1    1    2    0  502  0.29416573053E+02 -0.33756338122E+02 -0.50169472018E+03  0.50368881007E+03  0.00000000000E+00 0. -1.
<mgrwt>
<rscale>  1 0.30000000E+03</rscale>
<asrwt>0</asrwt>
<pdfrwt beam="1">  1       21 0.73096331E-02 0.30000000E+03</pdfrwt>
<pdfrwt beam="2">0</pdfrwt>
<totfact> 0.14962424E+04</totfact>
</mgrwt>
</event>
<event>
 6    1  0.6513574E-002  0.3000000E+03  0.7818608E-02  0.1093470E+00
         21   -1    0    0  501  502  0.00000000000E+00  0.00000000000E+00  0.16492087960E+01  0.16492087960E+01  0.00000000000E+00 0. -1.
         13   -1    0    0    0    0 -0.00000000000E+00 -0.00000000000E+00 -0.10000000000E+04  0.10000000000E+04  0.00000000000E+00 0.  1.
    9000005    2    1    2  501    0  0.39945254362E+02  0.22258344180E+01 -0.42790704211E+03  0.42980425729E+03  0.51657729860E+01 0.  0.
         13    1    3    3    0    0  0.34158993321E+02  0.16096788467E+01 -0.38256201498E+03  0.38408739005E+03  0.00000000000E+00 0.  1.
          3    1    3    3  501    0  0.57862610415E+01  0.61615557131E+00 -0.45345027127E+02  0.45716867234E+02  0.00000000000E+00 0.  1.
         -1    1    1    2    0  502 -0.39945254362E+02 -0.22258344180E+01 -0.57044374909E+03  0.57184495151E+03  0.00000000000E+00 0. -1.
<mgrwt>
<rscale>  1 0.30000000E+03</rscale>
<asrwt>0</asrwt>
<pdfrwt beam="1">  1       21 0.59971355E-02 0.30000000E+03</pdfrwt>
<pdfrwt beam="2">0</pdfrwt>
<totfact> 0.21089026E+04</totfact>
</mgrwt>
</event>
<event>
 6    1  0.6513574E-002  0.3000000E+03  0.7818608E-02  0.1093470E+00
         21   -1    0    0  501  502  0.00000000000E+00  0.00000000000E+00  0.12654861272E+01  0.12654861272E+01  0.00000000000E+00 0. -1.
         13   -1    0    0    0    0 -0.00000000000E+00 -0.00000000000E+00 -0.10000000000E+04  0.10000000000E+04  0.00000000000E+00 0.  1.
    9000005    2    1    2  501    0 -0.29346049191E+02  0.15247825883E+02 -0.31869870176E+03  0.32042600978E+03  0.32060010229E+01 0.  0.
         13    1    3    3    0    0 -0.93683718910E+01  0.35900508995E+01 -0.87592337175E+02  0.88165029287E+02  0.00000000000E+00 0.  1.
          3    1    3    3  501    0 -0.19977677300E+02  0.11657774984E+02 -0.23110636459E+03  0.23226098050E+03  0.00000000000E+00 0.  1.
         -1    1    1    2    0  502  0.29346049191E+02 -0.15247825883E+02 -0.68003581211E+03  0.68083947634E+03  0.00000000000E+00 0. -1.
<mgrwt>
<rscale>  1 0.30000000E+03</rscale>
<asrwt>0</asrwt>
<pdfrwt beam="1">  1       21 0.46017774E-02 0.30000000E+03</pdfrwt>
<pdfrwt beam="2">0</pdfrwt>
<totfact> 0.33174003E+04</totfact>
</mgrwt>
</event>
<event>
 6    1  0.6513574E-002  0.3000000E+03  0.7818608E-02  0.1093470E+00
         21   -1    0    0  501  502  0.00000000000E+00  0.00000000000E+00  0.10824049758E+01  0.10824049758E+01  0.00000000000E+00 0. -1.
         13   -1    0    0    0    0 -0.00000000000E+00 -0.00000000000E+00 -0.10000000000E+04  0.10000000000E+04  0.00000000000E+00 0.  1.
    9000005    2    1    2  501    0 -0.14242121615E+02  0.28857707461E+02 -0.57878417002E+03  0.57971831050E+03  0.68263280594E+01 0.  0.
         13    1    3    3    0    0 -0.28782259245E+01  0.11518737174E+02 -0.24932845608E+03  0.24961098634E+03  0.00000000000E+00 0.  1.
          3    1    3    3  501    0 -0.11363895690E+02  0.17338970287E+02 -0.32945571393E+03  0.33010732415E+03  0.00000000000E+00 0.  1.
         -3    1    1    2    0  502  0.14242121615E+02 -0.28857707461E+02 -0.42013342501E+03  0.42136409448E+03  0.00000000000E+00 0. -1.
<mgrwt>
<rscale>  1 0.30000000E+03</rscale>
<asrwt>0</asrwt>
<pdfrwt beam="1">  1       21 0.39360264E-02 0.30000000E+03</pdfrwt>
<pdfrwt beam="2">0</pdfrwt>
<totfact> 0.43204128E+04</totfact>
</mgrwt>
</event>
<event>
 6    1  0.6513574E-002  0.3000000E+03  0.7818608E-02  0.1093470E+00
         21   -1    0    0  501  502  0.00000000000E+00  0.00000000000E+00  0.34847297511E+01  0.34847297511E+01  0.00000000000E+00 0. -1.
         13   -1    0    0    0    0 -0.00000000000E+00 -0.00000000000E+00 -0.10000000000E+04  0.10000000000E+04  0.00000000000E+00 0.  1.
    9000005    2    1    2  501    0 -0.54660560394E+02 -0.28964205234E+01 -0.31168631521E+03  0.31647172858E+03  0.31352493752E+01 0.  0.
         13    1    3    3    0    0 -0.90015440339E+01  0.60908704233E+00 -0.53742763612E+02  0.54494801795E+02  0.00000000000E+00 0.  1.
          3    1    3    3  501    0 -0.45659016360E+02 -0.35055075657E+01 -0.25794355160E+03  0.26197692679E+03  0.00000000000E+00 0.  1.
         -3    1    1    2    0  502  0.54660560394E+02  0.28964205234E+01 -0.68482895504E+03  0.68701300117E+03  0.00000000000E+00 0. -1.
<mgrwt>
<rscale>  1 0.30000000E+03</rscale>
<asrwt>0</asrwt>
<pdfrwt beam="1">  1       21 0.12671771E-01 0.30000000E+03</pdfrwt>
<pdfrwt beam="2">0</pdfrwt>
<totfact> 0.56123697E+03</totfact>
</mgrwt>
</event>
<event>
 6    1  0.6513574E-002  0.3000000E+03  0.7818608E-02  0.1093470E+00
         21   -1    0    0  501  502  0.00000000000E+00  0.00000000000E+00  0.11660207873E+01  0.11660207873E+01  0.00000000000E+00 0. -1.
         13   -1    0    0    0    0 -0.00000000000E+00 -0.00000000000E+00 -0.10000000000E+04  0.10000000000E+04  0.00000000000E+00 0.  1.
    9000005    2    1    2  501    0 -0.50315843813E+01 -0.32729839046E+02 -0.40019347963E+03  0.40161034619E+03  0.62840926434E+01 0.  0.
         13    1    3    3    0    0 -0.55357317873E+01 -0.32422255371E+02 -0.39717736715E+03  0.39853695933E+03  0.00000000000E+00 0.  1.
          3    1    3    3  501    0  0.50414740599E+00 -0.30758367457E+00 -0.30161124747E+01  0.30733868588E+01  0.00000000000E+00 0.  1.
         -3    1    1    2    0  502  0.50315843813E+01  0.32729839046E+02 -0.59864049958E+03  0.59955567460E+03  0.00000000000E+00 0. -1.
<mgrwt>
<rscale>  1 0.30000000E+03</rscale>
<asrwt>0</asrwt>
<pdfrwt beam="1">  1       21 0.42400845E-02 0.30000000E+03</pdfrwt>
<pdfrwt beam="2">0</pdfrwt>
<totfact> 0.38110066E+04</totfact>
</mgrwt>
</event>
<event>
 6    1  0.6513574E-002  0.3000000E+03  0.7818608E-02  0.1093470E+00
         21   -1    0    0  501  502  0.00000000000E+00  0.00000000000E+00  0.11057646072E+01  0.11057646072E+01  0.00000000000E+00 0. -1.
         13   -1    0    0    0    0 -0.00000000000E+00 -0.00000000000E+00 -0.10000000000E+04  0.10000000000E+04  0.00000000000E+00 0.  1.
    9000005    2    1    2  501    0 -0.15887981933E+00 -0.31384642104E+02 -0.34216923803E+03  0.34363124559E+03  0.41981526040E+01 0.  0.
         13    1    3    3    0    0 -0.11500937576E+01 -0.29485414412E+02 -0.32148175132E+03  0.32283312843E+03  0.00000000000E+00 0.  1.
          3    1    3    3  501    0  0.99121393824E+00 -0.18992276918E+01 -0.20687486713E+02  0.20798117160E+02  0.00000000000E+00 0.  1.
         -3    1    1    2    0  502  0.15887981933E+00  0.31384642104E+02 -0.65672499736E+03  0.65747451902E+03  0.00000000000E+00 0. -1.
<mgrwt>
<rscale>  1 0.30000000E+03</rscale>
<asrwt>0</asrwt>
<pdfrwt beam="1">  1       21 0.40209707E-02 0.30000000E+03</pdfrwt>
<pdfrwt beam="2">0</pdfrwt>
<totfact> 0.41678641E+04</totfact>
</mgrwt>
</event>
<event>
 6    1  0.6513574E-002  0.3000000E+03  0.7818608E-02  0.1093470E+00
         21   -1    0    0  501  502  0.00000000000E+00  0.00000000000E+00  0.16544389601E+01  0.16544389601E+01  0.00000000000E+00 0. -1.
         13   -1    0    0    0    0 -0.00000000000E+00 -0.00000000000E+00 -0.10000000000E+04  0.10000000000E+04  0.00000000000E+00 0.  1.
    9000005    2    1    2  501    0  0.38726756837E+02  0.10710798910E+02 -0.42706168524E+03  0.42895927602E+03  0.31455640972E+01 0.  0.
         13    1    3    3    0    0  0.20671583429E+02  0.56128480467E+01 -0.24424401957E+03  0.24518148283E+03  0.00000000000E+00 0.  1.
          3    1    3    3  501    0  0.18055173408E+02  0.50979508636E+01 -0.18281766567E+03  0.18377779319E+03  0.00000000000E+00 0.  1.
         -1    1    1    2    0  502 -0.38726756837E+02 -0.10710798910E+02 -0.57128387580E+03  0.57269516294E+03  0.00000000000E+00 0. -1.
<mgrwt>
<rscale>  1 0.30000000E+03</rscale>
<asrwt>0</asrwt>
<pdfrwt beam="1">  1       21 0.60161544E-02 0.30000000E+03</pdfrwt>
<pdfrwt beam="2">0</pdfrwt>
<totfact> 0.20974173E+04</totfact>
</mgrwt>
</event>
<event>
 6    1  0.6513574E-002  0.3000000E+03  0.7818608E-02  0.1093470E+00
         21   -1    0    0  501  502  0.00000000000E+00  0.00000000000E+00  0.12712131210E+01  0.12712131210E+01  0.00000000000E+00 0. -1.
         13   -1    0    0    0    0 -0.00000000000E+00 -0.00000000000E+00 -0.10000000000E+04  0.10000000000E+04  0.00000000000E+00 0.  1.
    9000005    2    1    2  501    0  0.15914338906E+02  0.28865493771E+02 -0.68873988789E+03  0.68953478533E+03  0.30173002060E+01 0.  0.
         13    1    3    3    0    0  0.15635261399E+02  0.28307921525E+02 -0.68194602809E+03  0.68271237359E+03  0.00000000000E+00 0.  1.
          3    1    3    3  501    0  0.27907750684E+00  0.55757224610E+00 -0.67938597943E+01  0.68224117414E+01  0.00000000000E+00 0.  1.
         -3    1    1    2    0  502 -0.15914338906E+02 -0.28865493771E+02 -0.30998889899E+03  0.31173642779E+03  0.00000000000E+00 0. -1.
<mgrwt>
<rscale>  1 0.30000000E+03</rscale>
<asrwt>0</asrwt>
<pdfrwt beam="1">  1       21 0.46226029E-02 0.30000000E+03</pdfrwt>
<pdfrwt beam="2">0</pdfrwt>
<totfact> 0.32920465E+04</totfact>
</mgrwt>
</event>
<event>
 6    1  0.6513574E-002  0.3000000E+03  0.7818608E-02  0.1093470E+00
         21   -1    0    0  501  502  0.00000000000E+00  0.00000000000E+00  0.12039412706E+01  0.12039412706E+01  0.00000000000E+00 0. -1.
         13   -1    0    0    0    0 -0.00000000000E+00 -0.00000000000E+00 -0.10000000000E+04  0.10000000000E+04  0.00000000000E+00 0.  1.
    9000005    2    1    2  501    0 -0.17988191852E+02 -0.28544650471E+02 -0.38899656385E+03  0.39047176096E+03  0.33907669261E+01 0.  0.
         13    1    3    3    0    0 -0.13353205851E+02 -0.20360902940E+02 -0.26305179547E+03  0.26417630775E+03  0.00000000000E+00 0.  1.
          1    1    3    3  501    0 -0.46349860007E+01 -0.81837475305E+01 -0.12594476838E+03  0.12629545321E+03  0.00000000000E+00 0.  1.
         -3    1    1    2    0  502  0.17988191852E+02  0.28544650471E+02 -0.60979949488E+03  0.61073218031E+03  0.00000000000E+00 0. -1.
<mgrwt>
<rscale>  1 0.30000000E+03</rscale>
<asrwt>0</asrwt>
<pdfrwt beam="1">  1       21 0.43779775E-02 0.30000000E+03</pdfrwt>
<pdfrwt beam="2">0</pdfrwt>
<totfact> 0.36101906E+04</totfact>
</mgrwt>
</event>
<event>
 6    1  0.6513574E-002  0.3000000E+03  0.7818608E-02  0.1093470E+00
         21   -1    0    0  501  502  0.00000000000E+00  0.00000000000E+00  0.17855055762E+01  0.17855055762E+01  0.00000000000E+00 0. -1.
         13   -1    0    0    0    0 -0.00000000000E+00 -0.00000000000E+00 -0.10000000000E+04  0.10000000000E+04  0.00000000000E+00 0.  1.
    9000005    2    1    2  501    0 -0.92965194621E+01  0.38309135745E+02 -0.32591490157E+03  0.32833115842E+03  0.51779693596E+01 0.  0.
         13    1    3    3    0    0 -0.90286461102E+01  0.27490279251E+02 -0.23555803609E+03  0.23732850707E+03  0.00000000000E+00 0.  1.
          3    1    3    3  501    0 -0.26787335190E+00  0.10818856495E+02 -0.90356865483E+02  0.91002651346E+02  0.00000000000E+00 0.  1.
         -1    1    1    2    0  502  0.92965194621E+01 -0.38309135745E+02 -0.67229959285E+03  0.67345434716E+03  0.00000000000E+00 0. -1.
<mgrwt>
<rscale>  1 0.30000000E+03</rscale>
<asrwt>0</asrwt>
<pdfrwt beam="1">  1       21 0.64927612E-02 0.30000000E+03</pdfrwt>
<pdfrwt beam="2">0</pdfrwt>
<totfact> 0.18385480E+04</totfact>
</mgrwt>
</event>
<event>
 6    1  0.6513574E-002  0.3000000E+03  0.7818608E-02  0.1093470E+00
         21   -1    0    0  501  502  0.00000000000E+00  0.00000000000E+00  0.25638872694E+01  0.25638872694E+01  0.00000000000E+00 0. -1.
         13   -1    0    0    0    0 -0.00000000000E+00 -0.00000000000E+00 -0.10000000000E+04  0.10000000000E+04  0.00000000000E+00 0.  1.
    9000005    2    1    2  501    0 -0.19168456664E+02  0.45649069974E+02 -0.60246286687E+03  0.60449965594E+03  0.26572073139E+01 0.  0.
         13    1    3    3    0    0 -0.14266035230E+02  0.35259982308E+02 -0.47460148544E+03  0.47612325725E+03  0.00000000000E+00 0.  1.
          3    1    3    3  501    0 -0.49024214335E+01  0.10389087666E+02 -0.12786138144E+03  0.12837639869E+03  0.00000000000E+00 0.  1.
         -3    1    1    2    0  502  0.19168456664E+02 -0.45649069974E+02 -0.39497324586E+03  0.39806423133E+03  0.00000000000E+00 0. -1.
<mgrwt>
<rscale>  1 0.30000000E+03</rscale>
<asrwt>0</asrwt>
<pdfrwt beam="1">  1       21 0.93232461E-02 0.30000000E+03</pdfrwt>
<pdfrwt beam="2">0</pdfrwt>
<totfact> 0.97481370E+03</totfact>
</mgrwt>
</event>
<event>
 6    1  0.6513574E-002  0.3000000E+03  0.7818608E-02  0.1093470E+00
         21   -1    0    0  501  502  0.00000000000E+00  0.00000000000E+00  0.33201570946E+01  0.33201570946E+01  0.00000000000E+00 0. -1.
         13   -1    0    0    0    0 -0.00000000000E+00 -0.00000000000E+00 -0.10000000000E+04  0.10000000000E+04  0.00000000000E+00 0.  1.
    9000005    2    1    2  501    0  0.39123127218E+02 -0.41336454489E+02 -0.42322504933E+03  0.42704789346E+03  0.33375710164E+01 0.  0.
         13    1    3    3    0    0  0.36067928499E+02 -0.36937571516E+02 -0.37916869123E+03  0.38266718708E+03  0.00000000000E+00 0.  1.
          1    1    3    3  501    0  0.30551987192E+01 -0.43988829733E+01 -0.44056358095E+02  0.44380706385E+02  0.00000000000E+00 0.  1.
         -3    1    1    2    0  502 -0.39123127218E+02  0.41336454489E+02 -0.57345479358E+03  0.57627226363E+03  0.00000000000E+00 0. -1.
<mgrwt>
<rscale>  1 0.30000000E+03</rscale>
<asrwt>0</asrwt>
<pdfrwt beam="1">  1       21 0.12073324E-01 0.30000000E+03</pdfrwt>
<pdfrwt beam="2">0</pdfrwt>
<totfact> 0.61289575E+03</totfact>
</mgrwt>
</event>
<event>
 6    1  0.6513574E-002  0.3000000E+03  0.7818608E-02  0.1093470E+00
         21   -1    0    0  501  502  0.00000000000E+00  0.00000000000E+00  0.22201037410E+01  0.22201037410E+01  0.00000000000E+00 0. -1.
         13   -1    0    0    0    0 -0.00000000000E+00 -0.00000000000E+00 -0.10000000000E+04  0.10000000000E+04  0.00000000000E+00 0.  1.
    9000005    2    1    2  501    0  0.25812658315E+02 -0.28790848085E+02 -0.78480996055E+03  0.78576826203E+03  0.31434340920E+01 0.  0.
         13    1    3    3    0    0  0.45653563501E+01 -0.36431690425E+01 -0.13026746378E+03  0.13039834079E+03  0.00000000000E+00 0.  1.
          1    1    3    3  501    0  0.21247301965E+02 -0.25147679042E+02 -0.65454249676E+03  0.65536992124E+03  0.00000000000E+00 0.  1.
         -3    1    1    2    0  502 -0.25812658315E+02  0.28790848085E+02 -0.21296993571E+03  0.21645184171E+03  0.00000000000E+00 0. -1.
<mgrwt>
<rscale>  1 0.30000000E+03</rscale>
<asrwt>0</asrwt>
<pdfrwt beam="1">  1       21 0.80731215E-02 0.30000000E+03</pdfrwt>
<pdfrwt beam="2">0</pdfrwt>
<totfact> 0.12571294E+04</totfact>
</mgrwt>
</event>
<event>
 6    1  0.6513574E-002  0.3000000E+03  0.7818608E-02  0.1093470E+00
         21   -1    0    0  501  502  0.00000000000E+00  0.00000000000E+00  0.10705334037E+01  0.10705334037E+01  0.00000000000E+00 0. -1.
         13   -1    0    0    0    0 -0.00000000000E+00 -0.00000000000E+00 -0.10000000000E+04  0.10000000000E+04  0.00000000000E+00 0.  1.
    9000005    2    1    2  501    0  0.24173964263E+02  0.19614826661E+02 -0.65055167295E+03  0.65130459870E+03  0.33285337457E+01 0.  0.
         13    1    3    3    0    0  0.70803974442E+01  0.77647676337E+01 -0.21657733046E+03  0.21683210951E+03  0.00000000000E+00 0.  1.
          3    1    3    3  501    0  0.17093566818E+02  0.11850059027E+02 -0.43397434249E+03  0.43447248919E+03  0.00000000000E+00 0.  1.
         -3    1    1    2    0  502 -0.24173964263E+02 -0.19614826661E+02 -0.34837779364E+03  0.34976593470E+03  0.00000000000E+00 0. -1.
<mgrwt>
<rscale>  1 0.30000000E+03</rscale>
<asrwt>0</asrwt>
<pdfrwt beam="1">  1       21 0.38928569E-02 0.30000000E+03</pdfrwt>
<pdfrwt beam="2">0</pdfrwt>
<totfact> 0.44013167E+04</totfact>
</mgrwt>
</event>
<event>
 6    1  0.6513574E-002  0.3000000E+03  0.7818608E-02  0.1093470E+00
         21   -1    0    0  501  502  0.00000000000E+00  0.00000000000E+00  0.13048793166E+01  0.13048793166E+01  0.00000000000E+00 0. -1.
         13   -1    0    0    0    0 -0.00000000000E+00 -0.00000000000E+00 -0.10000000000E+04  0.10000000000E+04  0.00000000000E+00 0.  1.
    9000005    2    1    2  501    0 -0.30371528890E+02  0.16324003166E+02 -0.35775346973E+03  0.35943643269E+03  0.42545499626E+01 0.  0.
         13    1    3    3    0    0 -0.27264522233E+02  0.13294679742E+02 -0.30491237315E+03  0.30641745704E+03  0.00000000000E+00 0.  1.
          1    1    3    3  501    0 -0.31070066570E+01  0.30293234242E+01 -0.52841096576E+02  0.53018975642E+02  0.00000000000E+00 0.  1.
         -3    1    1    2    0  502  0.30371528890E+02 -0.16324003166E+02 -0.64094165096E+03  0.64186844663E+03  0.00000000000E+00 0. -1.
<mgrwt>
<rscale>  1 0.30000000E+03</rscale>
<asrwt>0</asrwt>
<pdfrwt beam="1">  1       21 0.47450257E-02 0.30000000E+03</pdfrwt>
<pdfrwt beam="2">0</pdfrwt>
<totfact> 0.31489618E+04</totfact>
</mgrwt>
</event>
<event>
 6    1  0.6513574E-002  0.3000000E+03  0.7818608E-02  0.1093470E+00
         21   -1    0    0  501  502  0.00000000000E+00  0.00000000000E+00  0.92392754489E+00  0.92392754489E+00  0.00000000000E+00 0. -1.
         13   -1    0    0    0    0 -0.00000000000E+00 -0.00000000000E+00 -0.10000000000E+04  0.10000000000E+04  0.00000000000E+00 0.  1.
    9000005    2    1    2  501    0 -0.48585040238E+01 -0.29919337968E+02 -0.51552480640E+03  0.51642356764E+03  0.29501445811E+01 0.  0.
         13    1    3    3    0    0 -0.26423302580E+01 -0.22204706931E+02 -0.39386801849E+03  0.39450227744E+03  0.00000000000E+00 0.  1.
          3    1    3    3  501    0 -0.22161737658E+01 -0.77146310373E+01 -0.12165678791E+03  0.12192129020E+03  0.00000000000E+00 0.  1.
         -3    1    1    2    0  502  0.48585040238E+01  0.29919337968E+02 -0.48355126605E+03  0.48450035990E+03  0.00000000000E+00 0. -1.
<mgrwt>
<rscale>  1 0.30000000E+03</rscale>
<asrwt>0</asrwt>
<pdfrwt beam="1">  1       21 0.33597436E-02 0.30000000E+03</pdfrwt>
<pdfrwt beam="2">0</pdfrwt>
<totfact> 0.56340932E+04</totfact>
</mgrwt>
</event>
<event>
 6    1  0.6513574E-002  0.3000000E+03  0.7818608E-02  0.1093470E+00
         21   -1    0    0  501  502  0.00000000000E+00  0.00000000000E+00  0.10142425537E+01  0.10142425537E+01  0.00000000000E+00 0. -1.
         13   -1    0    0    0    0 -0.00000000000E+00 -0.00000000000E+00 -0.10000000000E+04  0.10000000000E+04  0.00000000000E+00 0.  1.
    9000005    2    1    2  501    0  0.12816637972E+02 -0.27704566625E+02 -0.36466203454E+03  0.36595645411E+03  0.37306365992E+01 0.  0.
         13    1    3    3    0    0  0.22638534629E+01 -0.27115259220E+01 -0.51845807863E+02  0.51966000407E+02  0.00000000000E+00 0.  1.
          1    1    3    3  501    0  0.10552784509E+02 -0.24993040703E+02 -0.31281622667E+03  0.31399045370E+03  0.00000000000E+00 0.  1.
         -1    1    1    2    0  502 -0.12816637972E+02  0.27704566625E+02 -0.63432372291E+03  0.63505778845E+03  0.00000000000E+00 0. -1.
<mgrwt>
<rscale>  1 0.30000000E+03</rscale>
<asrwt>0</asrwt>
<pdfrwt beam="1">  1       21 0.36881625E-02 0.30000000E+03</pdfrwt>
<pdfrwt beam="2">0</pdfrwt>
<totfact> 0.48193941E+04</totfact>
</mgrwt>
</event>
<event>
 6    1  0.6513574E-002  0.3000000E+03  0.7818608E-02  0.1093470E+00
         21   -1    0    0  501  502  0.00000000000E+00  0.00000000000E+00  0.33888750941E+01  0.33888750941E+01  0.00000000000E+00 0. -1.
         13   -1    0    0    0    0 -0.00000000000E+00 -0.00000000000E+00 -0.10000000000E+04  0.10000000000E+04  0.00000000000E+00 0.  1.
    9000005    2    1    2  501    0 -0.15800195217E+02 -0.52863369675E+02 -0.65744468447E+03  0.65976399774E+03  0.32920429280E+01 0.  0.
         13    1    3    3    0    0 -0.79674617774E+01 -0.21461336368E+02 -0.28010382373E+03  0.28103775809E+03  0.00000000000E+00 0.  1.
          3    1    3    3  501    0 -0.78327334398E+01 -0.31402033308E+02 -0.37734086074E+03  0.37872623964E+03  0.00000000000E+00 0.  1.
         -3    1    1    2    0  502  0.15800195217E+02  0.52863369675E+02 -0.33916644044E+03  0.34362487736E+03  0.00000000000E+00 0. -1.
<mgrwt>
<rscale>  1 0.30000000E+03</rscale>
<asrwt>0</asrwt>
<pdfrwt beam="1">  1       21 0.12323208E-01 0.30000000E+03</pdfrwt>
<pdfrwt beam="2">0</pdfrwt>
<totfact> 0.59048566E+03</totfact>
</mgrwt>
</event>
<event>
 6    1  0.6513574E-002  0.3000000E+03  0.7818608E-02  0.1093470E+00
         21   -1    0    0  501  502  0.00000000000E+00  0.00000000000E+00  0.51491590673E+01  0.51491590673E+01  0.00000000000E+00 0. -1.
         13   -1    0    0    0    0 -0.00000000000E+00 -0.00000000000E+00 -0.10000000000E+04  0.10000000000E+04  0.00000000000E+00 0.  1.
    9000005    2    1    2  501    0 -0.64258900192E+02 -0.14496452883E+02 -0.30639116943E+03  0.31354517362E+03  0.97812982779E+01 0.  0.
         13    1    3    3    0    0 -0.20604505014E+01 -0.14521803008E+01 -0.21758395848E+02  0.21903928273E+02  0.00000000000E+00 0.  1.
          3    1    3    3  501    0 -0.62198449691E+02 -0.13044272582E+02 -0.28463277358E+03  0.29164124535E+03  0.00000000000E+00 0.  1.
         -1    1    1    2    0  502  0.64258900192E+02  0.14496452883E+02 -0.68845967150E+03  0.69160398544E+03  0.00000000000E+00 0. -1.
<mgrwt>
<rscale>  1 0.30000000E+03</rscale>
<asrwt>0</asrwt>
<pdfrwt beam="1">  1       21 0.18724254E-01 0.30000000E+03</pdfrwt>
<pdfrwt beam="2">0</pdfrwt>
<totfact> 0.27193380E+03</totfact>
</mgrwt>
</event>
<event>
 6    1  0.6513574E-002  0.3000000E+03  0.7818608E-02  0.1093470E+00
         21   -1    0    0  501  502  0.00000000000E+00  0.00000000000E+00  0.14805294077E+01  0.14805294077E+01  0.00000000000E+00 0. -1.
         13   -1    0    0    0    0 -0.00000000000E+00 -0.00000000000E+00 -0.10000000000E+04  0.10000000000E+04  0.00000000000E+00 0.  1.
    9000005    2    1    2  501    0  0.30534902006E+02 -0.13074212472E+02 -0.75108614966E+03  0.75182764322E+03  0.33295093623E+01 0.  0.
         13    1    3    3    0    0  0.61739662793E+00  0.17652288326E+00 -0.11295566433E+02  0.11313803956E+02  0.00000000000E+00 0.  1.
          3    1    3    3  501    0  0.29917505378E+02 -0.13250735355E+02 -0.73979058323E+03  0.74051383927E+03  0.00000000000E+00 0.  1.
         -1    1    1    2    0  502 -0.30534902006E+02  0.13074212472E+02 -0.24743332093E+03  0.24965288618E+03  0.00000000000E+00 0. -1.
<mgrwt>
<rscale>  1 0.30000000E+03</rscale>
<asrwt>0</asrwt>
<pdfrwt beam="1">  1       21 0.53837547E-02 0.30000000E+03</pdfrwt>
<pdfrwt beam="2">0</pdfrwt>
<totfact> 0.25386521E+04</totfact>
</mgrwt>
</event>
<event>
 6    1  0.6513574E-002  0.3000000E+03  0.7818608E-02  0.1093470E+00
         21   -1    0    0  501  502  0.00000000000E+00  0.00000000000E+00  0.15160978102E+01  0.15160978102E+01  0.00000000000E+00 0. -1.
         13   -1    0    0    0    0 -0.00000000000E+00 -0.00000000000E+00 -0.10000000000E+04  0.10000000000E+04  0.00000000000E+00 0.  1.
    9000005    2    1    2  501    0  0.12942527526E+02 -0.35922142127E+02 -0.40798577263E+03  0.40978478182E+03  0.36424478387E+01 0.  0.
         13    1    3    3    0    0  0.17835607221E-01 -0.26026810078E+01 -0.30694643291E+02  0.30804794972E+02  0.00000000000E+00 0.  1.
          1    1    3    3  501    0  0.12924691919E+02 -0.33319461119E+02 -0.37729112934E+03  0.37897998685E+03  0.00000000000E+00 0.  1.
         -3    1    1    2    0  502 -0.12942527526E+02  0.35922142127E+02 -0.59049812956E+03  0.59173131599E+03  0.00000000000E+00 0. -1.
<mgrwt>
<rscale>  1 0.30000000E+03</rscale>
<asrwt>0</asrwt>
<pdfrwt beam="1">  1       21 0.55130946E-02 0.30000000E+03</pdfrwt>
<pdfrwt beam="2">0</pdfrwt>
<totfact> 0.24374550E+04</totfact>
</mgrwt>
</event>
<event>
 6    1  0.6513574E-002  0.3000000E+03  0.7818608E-02  0.1093470E+00
         21   -1    0    0  501  502  0.00000000000E+00  0.00000000000E+00  0.21648493756E+01  0.21648493756E+01  0.00000000000E+00 0. -1.
         13   -1    0    0    0    0 -0.00000000000E+00 -0.00000000000E+00 -0.10000000000E+04  0.10000000000E+04  0.00000000000E+00 0.  1.
    9000005    2    1    2  501    0 -0.37195734516E+02  0.55257494913E+01 -0.20773349558E+03  0.21116884314E+03  0.50018550947E+01 0.  0.
         13    1    3    3    0    0 -0.12592219210E+02 -0.24374737981E+00 -0.75249329499E+02  0.76296035201E+02  0.00000000000E+00 0.  1.
          1    1    3    3  501    0 -0.24603515306E+02  0.57694968711E+01 -0.13248416608E+03  0.13487280794E+03  0.00000000000E+00 0.  1.
         -1    1    1    2    0  502  0.37195734516E+02 -0.55257494913E+01 -0.79010165505E+03  0.79099600624E+03  0.00000000000E+00 0. -1.
<mgrwt>
<rscale>  1 0.30000000E+03</rscale>
<asrwt>0</asrwt>
<pdfrwt beam="1">  1       21 0.78721961E-02 0.30000000E+03</pdfrwt>
<pdfrwt beam="2">0</pdfrwt>
<totfact> 0.13140194E+04</totfact>
</mgrwt>
</event>
<event>
 6    1  0.6513574E-002  0.3000000E+03  0.7818608E-02  0.1093470E+00
         21   -1    0    0  501  502  0.00000000000E+00  0.00000000000E+00  0.11946313270E+01  0.11946313270E+01  0.00000000000E+00 0. -1.
         13   -1    0    0    0    0 -0.00000000000E+00 -0.00000000000E+00 -0.10000000000E+04  0.10000000000E+04  0.00000000000E+00 0.  1.
    9000005    2    1    2  501    0 -0.27250577166E+02 -0.16193831246E+02 -0.69716108826E+03  0.69788932964E+03  0.33315632349E+01 0.  0.
         13    1    3    3    0    0 -0.10666056271E+01 -0.95973188709E+00 -0.48567317846E+02  0.48588507855E+02  0.00000000000E+00 0.  1.
          3    1    3    3  501    0 -0.26183971539E+02 -0.15234099359E+02 -0.64859377041E+03  0.64930082178E+03  0.00000000000E+00 0.  1.
         -3    1    1    2    0  502  0.27250577166E+02  0.16193831246E+02 -0.30164428041E+03  0.30330530169E+03  0.00000000000E+00 0. -1.
<mgrwt>
<rscale>  1 0.30000000E+03</rscale>
<asrwt>0</asrwt>
<pdfrwt beam="1">  1       21 0.43441231E-02 0.30000000E+03</pdfrwt>
<pdfrwt beam="2">0</pdfrwt>
<totfact> 0.36579476E+04</totfact>
</mgrwt>
</event>
<event>
 6    1  0.6513574E-002  0.3000000E+03  0.7818608E-02  0.1093470E+00
         21   -1    0    0  501  502  0.00000000000E+00  0.00000000000E+00  0.19983514307E+01  0.19983514307E+01  0.00000000000E+00 0. -1.
         13   -1    0    0    0    0 -0.00000000000E+00 -0.00000000000E+00 -0.10000000000E+04  0.10000000000E+04  0.00000000000E+00 0.  1.
    9000005    2    1    2  501    0 -0.42413215782E+02 -0.13311473898E+02 -0.45400111250E+03  0.45618459248E+03  0.33609610896E+01 0.  0.
         13    1    3    3    0    0 -0.31306782497E+02 -0.94271422311E+01 -0.31861330212E+03  0.32028646854E+03  0.00000000000E+00 0.  1.
          1    1    3    3  501    0 -0.11106433285E+02 -0.38843316668E+01 -0.13538781038E+03  0.13589812395E+03  0.00000000000E+00 0.  1.
         -3    1    1    2    0  502  0.42413215782E+02  0.13311473898E+02 -0.54400053607E+03  0.54581375895E+03  0.00000000000E+00 0. -1.
<mgrwt>
<rscale>  1 0.30000000E+03</rscale>
<asrwt>0</asrwt>
<pdfrwt beam="1">  1       21 0.72667478E-02 0.30000000E+03</pdfrwt>
<pdfrwt beam="2">0</pdfrwt>
<totfact> 0.15116983E+04</totfact>
</mgrwt>
</event>
<event>
 6    1  0.6513574E-002  0.3000000E+03  0.7818608E-02  0.1093470E+00
         21   -1    0    0  501  502  0.00000000000E+00  0.00000000000E+00  0.10537711327E+01  0.10537711327E+01  0.00000000000E+00 0. -1.
         13   -1    0    0    0    0 -0.00000000000E+00 -0.00000000000E+00 -0.10000000000E+04  0.10000000000E+04  0.00000000000E+00 0.  1.
    9000005    2    1    2  501    0 -0.21954214210E+02  0.23735277699E+02 -0.52000441103E+03  0.52102188074E+03  0.37231413072E+01 0.  0.
         13    1    3    3    0    0 -0.60724588084E+01  0.79754106788E+01 -0.13887908832E+03  0.13924037885E+03  0.00000000000E+00 0.  1.
          3    1    3    3  501    0 -0.15881755401E+02  0.15759867020E+02 -0.38112532272E+03  0.38178150188E+03  0.00000000000E+00 0.  1.
         -1    1    1    2    0  502  0.21954214210E+02 -0.23735277699E+02 -0.47894181783E+03  0.48003189040E+03  0.00000000000E+00 0. -1.
<mgrwt>
<rscale>  1 0.30000000E+03</rscale>
<asrwt>0</asrwt>
<pdfrwt beam="1">  1       21 0.38319031E-02 0.30000000E+03</pdfrwt>
<pdfrwt beam="2">0</pdfrwt>
<totfact> 0.45196623E+04</totfact>
</mgrwt>
</event>
<event>
 6    1  0.6513574E-002  0.3000000E+03  0.7818608E-02  0.1093470E+00
         21   -1    0    0  501  502  0.00000000000E+00  0.00000000000E+00  0.16191513456E+01  0.16191513456E+01  0.00000000000E+00 0. -1.
         13   -1    0    0    0    0 -0.00000000000E+00 -0.00000000000E+00 -0.10000000000E+04  0.10000000000E+04  0.00000000000E+00 0.  1.
    9000005    2    1    2  501    0 -0.15484787076E+02 -0.29390460284E+02 -0.21932609435E+03  0.22185643873E+03  0.35729476842E+01 0.  0.
         13    1    3    3    0    0 -0.81368725487E+01 -0.18946338408E+02 -0.13149151803E+03  0.13309842880E+03  0.00000000000E+00 0.  1.
          3    1    3    3  501    0 -0.73479145274E+01 -0.10444121877E+02 -0.87834576323E+02  0.88758009934E+02  0.00000000000E+00 0.  1.
         -1    1    1    2    0  502  0.15484787076E+02  0.29390460284E+02 -0.77905475430E+03  0.77976271262E+03  0.00000000000E+00 0. -1.
<mgrwt>
<rscale>  1 0.30000000E+03</rscale>
<asrwt>0</asrwt>
<pdfrwt beam="1">  1       21 0.58878355E-02 0.30000000E+03</pdfrwt>
<pdfrwt beam="2">0</pdfrwt>
<totfact> 0.21768485E+04</totfact>
</mgrwt>
</event>
<event>
 6    1  0.6513574E-002  0.3000000E+03  0.7818608E-02  0.1093470E+00
         21   -1    0    0  501  502  0.00000000000E+00  0.00000000000E+00  0.11741396915E+01  0.11741396915E+01  0.00000000000E+00 0. -1.
         13   -1    0    0    0    0 -0.00000000000E+00 -0.00000000000E+00 -0.10000000000E+04  0.10000000000E+04  0.00000000000E+00 0.  1.
    9000005    2    1    2  501    0  0.33797664703E+02  0.46550834960E+01 -0.46892654452E+03  0.47017768319E+03  0.33162742291E+01 0.  0.
         13    1    3    3    0    0  0.80238555121E+01  0.14860320586E+01 -0.94457519384E+02  0.94809353530E+02  0.00000000000E+00 0.  1.
          1    1    3    3  501    0  0.25773809191E+02  0.31690514374E+01 -0.37446902513E+03  0.37536832966E+03  0.00000000000E+00 0.  1.
         -1    1    1    2    0  502 -0.33797664703E+02 -0.46550834960E+01 -0.52989931579E+03  0.53099645650E+03  0.00000000000E+00 0. -1.
<mgrwt>
<rscale>  1 0.30000000E+03</rscale>
<asrwt>0</asrwt>
<pdfrwt beam="1">  1       21 0.42696079E-02 0.30000000E+03</pdfrwt>
<pdfrwt beam="2">0</pdfrwt>
<totfact> 0.37665770E+04</totfact>
</mgrwt>
</event>
<event>
 6    1  0.6513574E-002  0.3000000E+03  0.7818608E-02  0.1093470E+00
         21   -1    0    0  501  502  0.00000000000E+00  0.00000000000E+00  0.19520526594E+01  0.19520526594E+01  0.00000000000E+00 0. -1.
         13   -1    0    0    0    0 -0.00000000000E+00 -0.00000000000E+00 -0.10000000000E+04  0.10000000000E+04  0.00000000000E+00 0.  1.
    9000005    2    1    2  501    0 -0.12813617709E+01  0.43828769405E+02 -0.44435208794E+03  0.44652275236E+03  0.33447573097E+01 0.  0.
         13    1    3    3    0    0  0.36195428540E+00  0.76028708094E+01 -0.89177800407E+02  0.89502037635E+02  0.00000000000E+00 0.  1.
          3    1    3    3  501    0 -0.16433160563E+01  0.36225898595E+02 -0.35517428753E+03  0.35702071472E+03  0.00000000000E+00 0.  1.
         -3    1    1    2    0  502  0.12813617709E+01 -0.43828769405E+02 -0.55369585940E+03  0.55542930030E+03  0.00000000000E+00 0. -1.
<mgrwt>
<rscale>  1 0.30000000E+03</rscale>
<asrwt>0</asrwt>
<pdfrwt beam="1">  1       21 0.70983883E-02 0.30000000E+03</pdfrwt>
<pdfrwt beam="2">0</pdfrwt>
<totfact> 0.15747849E+04</totfact>
</mgrwt>
</event>
<event>
 6    1  0.6513574E-002  0.3000000E+03  0.7818608E-02  0.1093470E+00
         21   -1    0    0  501  502  0.00000000000E+00  0.00000000000E+00  0.16677338087E+01  0.16677338087E+01  0.00000000000E+00 0. -1.
         13   -1    0    0    0    0 -0.00000000000E+00 -0.00000000000E+00 -0.10000000000E+04  0.10000000000E+04  0.00000000000E+00 0.  1.
    9000005    2    1    2  501    0 -0.69428229237E+01 -0.32518385105E+02 -0.23006225195E+03  0.23267848620E+03  0.10246463130E+02 0.  0.
         13    1    3    3    0    0 -0.62923219976E+01 -0.32213303340E+02 -0.20540986044E+03  0.20801562680E+03  0.00000000000E+00 0.  1.
          1    1    3    3  501    0 -0.65050092612E+00 -0.30508176482E+00 -0.24652391508E+02  0.24662859392E+02  0.00000000000E+00 0.  1.
         -3    1    1    2    0  502  0.69428229237E+01  0.32518385105E+02 -0.76827001424E+03  0.76898924761E+03  0.00000000000E+00 0. -1.
<mgrwt>
<rscale>  1 0.30000000E+03</rscale>
<asrwt>0</asrwt>
<pdfrwt beam="1">  1       21 0.60644994E-02 0.30000000E+03</pdfrwt>
<pdfrwt beam="2">0</pdfrwt>
<totfact> 0.20686566E+04</totfact>
</mgrwt>
</event>
<event>
 6    1  0.6513574E-002  0.3000000E+03  0.7818608E-02  0.1093470E+00
         21   -1    0    0  501  502  0.00000000000E+00  0.00000000000E+00  0.17527626800E+01  0.17527626800E+01  0.00000000000E+00 0. -1.
         13   -1    0    0    0    0 -0.00000000000E+00 -0.00000000000E+00 -0.10000000000E+04  0.10000000000E+04  0.00000000000E+00 0.  1.
    9000005    2    1    2  501    0  0.25948747932E+01 -0.41235503267E+02 -0.42257982201E+03  0.42460453808E+03  0.28649060173E+01 0.  0.
         13    1    3    3    0    0  0.21230731875E+01 -0.19933648533E+02 -0.19318619197E+03  0.19422348610E+03  0.00000000000E+00 0.  1.
          3    1    3    3  501    0  0.47180160567E+00 -0.21301854733E+02 -0.22939363004E+03  0.23038105198E+03  0.00000000000E+00 0.  1.
         -1    1    1    2    0  502 -0.25948747932E+01  0.41235503267E+02 -0.57566741531E+03  0.57714822460E+03  0.00000000000E+00 0. -1.
<mgrwt>
<rscale>  1 0.30000000E+03</rscale>
<asrwt>0</asrwt>
<pdfrwt beam="1">  1       21 0.63736959E-02 0.30000000E+03</pdfrwt>
<pdfrwt beam="2">0</pdfrwt>
<totfact> 0.18983830E+04</totfact>
</mgrwt>
</event>
<event>
 6    1  0.6513574E-002  0.3000000E+03  0.7818608E-02  0.1093470E+00
         21   -1    0    0  501  502  0.00000000000E+00  0.00000000000E+00  0.15402892449E+01  0.15402892449E+01  0.00000000000E+00 0. -1.
         13   -1    0    0    0    0 -0.00000000000E+00 -0.00000000000E+00 -0.10000000000E+04  0.10000000000E+04  0.00000000000E+00 0.  1.
    9000005    2    1    2  501    0 -0.73127674228E+01 -0.35096322887E+02 -0.69873609506E+03  0.69968026497E+03  0.59257241527E+01 0.  0.
         13    1    3    3    0    0 -0.43884177492E+01 -0.30915267706E+02 -0.60590736198E+03  0.60671141681E+03  0.00000000000E+00 0.  1.
          1    1    3    3  501    0 -0.29243496736E+01 -0.41810551810E+01 -0.92828733083E+02  0.92968848166E+02  0.00000000000E+00 0.  1.
         -3    1    1    2    0  502  0.73127674228E+01  0.35096322887E+02 -0.29972361569E+03  0.30186002427E+03  0.00000000000E+00 0. -1.
<mgrwt>
<rscale>  1 0.30000000E+03</rscale>
<asrwt>0</asrwt>
<pdfrwt beam="1">  1       21 0.56010636E-02 0.30000000E+03</pdfrwt>
<pdfrwt beam="2">0</pdfrwt>
<totfact> 0.23721324E+04</totfact>
</mgrwt>
</event>
<event>
 6    1  0.6513574E-002  0.3000000E+03  0.7818608E-02  0.1093470E+00
         21   -1    0    0  501  502  0.00000000000E+00  0.00000000000E+00  0.18515507933E+01  0.18515507933E+01  0.00000000000E+00 0. -1.
         13   -1    0    0    0    0 -0.00000000000E+00 -0.00000000000E+00 -0.10000000000E+04  0.10000000000E+04  0.00000000000E+00 0.  1.
    9000005    2    1    2  501    0 -0.33042239929E+02 -0.24086452283E+02 -0.65344601743E+03  0.65473238786E+03  0.32947251617E+01 0.  0.
         13    1    3    3    0    0 -0.17744872348E+02 -0.12952346254E+02 -0.37714656873E+03  0.37778588919E+03  0.00000000000E+00 0.  1.
          3    1    3    3  501    0 -0.15297367581E+02 -0.11134106029E+02 -0.27629944870E+03  0.27694649867E+03  0.00000000000E+00 0.  1.
         -3    1    1    2    0  502  0.33042239929E+02  0.24086452283E+02 -0.34470243177E+03  0.34711916293E+03  0.00000000000E+00 0. -1.
<mgrwt>
<rscale>  1 0.30000000E+03</rscale>
<asrwt>0</asrwt>
<pdfrwt beam="1">  1       21 0.67329262E-02 0.30000000E+03</pdfrwt>
<pdfrwt beam="2">0</pdfrwt>
<totfact> 0.17263718E+04</totfact>
</mgrwt>
</event>
<event>
 6    1  0.6513574E-002  0.3000000E+03  0.7818608E-02  0.1093470E+00
         21   -1    0    0  501  502  0.00000000000E+00  0.00000000000E+00  0.25835745219E+01  0.25835745219E+01  0.00000000000E+00 0. -1.
         13   -1    0    0    0    0 -0.00000000000E+00 -0.00000000000E+00 -0.10000000000E+04  0.10000000000E+04  0.00000000000E+00 0.  1.
    9000005    2    1    2  501    0 -0.20260447473E+02  0.38422967737E+02 -0.24034134690E+03  0.24426340152E+03  0.37196921449E+01 0.  0.
         13    1    3    3    0    0 -0.18670188873E+02  0.35421506208E+02 -0.22645450910E+03  0.22996717972E+03  0.00000000000E+00 0.  1.
          3    1    3    3  501    0 -0.15902586001E+01  0.30014615296E+01 -0.13886837799E+02  0.14296221801E+02  0.00000000000E+00 0.  1.
         -1    1    1    2    0  502  0.20260447473E+02 -0.38422967737E+02 -0.75707507857E+03  0.75832017300E+03  0.00000000000E+00 0. -1.
<mgrwt>
<rscale>  1 0.30000000E+03</rscale>
<asrwt>0</asrwt>
<pdfrwt beam="1">  1       21 0.93948363E-02 0.30000000E+03</pdfrwt>
<pdfrwt beam="2">0</pdfrwt>
<totfact> 0.96164193E+03</totfact>
</mgrwt>
</event>
<event>
 6    1  0.6513574E-002  0.3000000E+03  0.7818608E-02  0.1093470E+00
         21   -1    0    0  501  502  0.00000000000E+00  0.00000000000E+00  0.20236684506E+01  0.20236684506E+01  0.00000000000E+00 0. -1.
         13   -1    0    0    0    0 -0.00000000000E+00 -0.00000000000E+00 -0.10000000000E+04  0.10000000000E+04  0.00000000000E+00 0.  1.
    9000005    2    1    2  501    0 -0.73054186000E+01 -0.31621359316E+02 -0.84573674126E+03  0.84636322917E+03  0.26078086890E+01 0.  0.
         13    1    3    3    0    0 -0.68419905821E+01 -0.26915955868E+02 -0.70366555972E+03  0.70421339199E+03  0.00000000000E+00 0.  1.
          3    1    3    3  501    0 -0.46342801795E+00 -0.47054034475E+01 -0.14207118154E+03  0.14214983719E+03  0.00000000000E+00 0.  1.
         -3    1    1    2    0  502  0.73054186000E+01  0.31621359316E+02 -0.15223959029E+03  0.15566043928E+03  0.00000000000E+00 0. -1.
<mgrwt>
<rscale>  1 0.30000000E+03</rscale>
<asrwt>0</asrwt>
<pdfrwt beam="1">  1       21 0.73588099E-02 0.30000000E+03</pdfrwt>
<pdfrwt beam="2">0</pdfrwt>
<totfact> 0.14788123E+04</totfact>
</mgrwt>
</event>
<event>
 6    1  0.6513574E-002  0.3000000E+03  0.7818608E-02  0.1093470E+00
         21   -1    0    0  501  502  0.00000000000E+00  0.00000000000E+00  0.32174863432E+01  0.32174863432E+01  0.00000000000E+00 0. -1.
         13   -1    0    0    0    0 -0.00000000000E+00 -0.00000000000E+00 -0.10000000000E+04  0.10000000000E+04  0.00000000000E+00 0.  1.
    9000005    2    1    2  501    0 -0.52438251649E+02  0.82721270154E+01 -0.67426344538E+03  0.67635857530E+03  0.33956287757E+01 0.  0.
         13    1    3    3    0    0 -0.45101089357E+02  0.70496144110E+01 -0.59379932474E+03  0.59555137762E+03  0.00000000000E+00 0.  1.
          3    1    3    3  501    0 -0.73371622919E+01  0.12225126045E+01 -0.80464120633E+02  0.80807197679E+02  0.00000000000E+00 0.  1.
         -3    1    1    2    0  502  0.52438251649E+02 -0.82721270154E+01 -0.32251906828E+03  0.32685891104E+03  0.00000000000E+00 0. -1.
<mgrwt>
<rscale>  1 0.30000000E+03</rscale>
<asrwt>0</asrwt>
<pdfrwt beam="1">  1       21 0.11699975E-01 0.30000000E+03</pdfrwt>
<pdfrwt beam="2">0</pdfrwt>
<totfact> 0.64881187E+03</totfact>
</mgrwt>
</event>
<event>
 6    1  0.6513574E-002  0.3000000E+03  0.7818608E-02  0.1093470E+00
         21   -1    0    0  501  502  0.00000000000E+00  0.00000000000E+00  0.10720536597E+01  0.10720536597E+01  0.00000000000E+00 0. -1.
         13   -1    0    0    0    0 -0.00000000000E+00 -0.00000000000E+00 -0.10000000000E+04  0.10000000000E+04  0.00000000000E+00 0.  1.
    9000005    2    1    2  501    0 -0.14656149407E+02 -0.26684301346E+02 -0.32152016398E+03  0.32298049771E+03  0.37856834048E+01 0.  0.
         13    1    3    3    0    0 -0.80286931497E+01 -0.15792426820E+02 -0.16786236925E+03  0.16879465533E+03  0.00000000000E+00 0.  1.
          3    1    3    3  501    0 -0.66274562573E+01 -0.10891874526E+02 -0.15365779473E+03  0.15418584237E+03  0.00000000000E+00 0.  1.
         -3    1    1    2    0  502  0.14656149407E+02  0.26684301346E+02 -0.67740778236E+03  0.67809155595E+03  0.00000000000E+00 0. -1.
<mgrwt>
<rscale>  1 0.30000000E+03</rscale>
<asrwt>0</asrwt>
<pdfrwt beam="1">  1       21 0.38983852E-02 0.30000000E+03</pdfrwt>
<pdfrwt beam="2">0</pdfrwt>
<totfact> 0.43908243E+04</totfact>
</mgrwt>
</event>
<event>
 6    1  0.6513574E-002  0.3000000E+03  0.7818608E-02  0.1093470E+00
         21   -1    0    0  501  502  0.00000000000E+00  0.00000000000E+00  0.13246449732E+01  0.13246449732E+01  0.00000000000E+00 0. -1.
         13   -1    0    0    0    0 -0.00000000000E+00 -0.00000000000E+00 -0.10000000000E+04  0.10000000000E+04  0.00000000000E+00 0.  1.
    9000005    2    1    2  501    0 -0.34272799476E+01  0.35519571817E+02 -0.48272254118E+03  0.48413928908E+03  0.98190244630E+01 0.  0.
         13    1    3    3    0    0 -0.34767838102E+01  0.27015946900E+02 -0.30516934402E+03  0.30638256795E+03  0.00000000000E+00 0.  1.
          1    1    3    3  501    0  0.49503862512E-01  0.85036249167E+01 -0.17755319716E+03  0.17775672113E+03  0.00000000000E+00 0.  1.
         -1    1    1    2    0  502  0.34272799476E+01 -0.35519571817E+02 -0.51595281385E+03  0.51718535589E+03  0.00000000000E+00 0. -1.
<mgrwt>
<rscale>  1 0.30000000E+03</rscale>
<asrwt>0</asrwt>
<pdfrwt beam="1">  1       21 0.48169010E-02 0.30000000E+03</pdfrwt>
<pdfrwt beam="2">0</pdfrwt>
<totfact> 0.30694399E+04</totfact>
</mgrwt>
</event>
<event>
 6    1  0.6513574E-002  0.3000000E+03  0.7818608E-02  0.1093470E+00
         21   -1    0    0  501  502  0.00000000000E+00  0.00000000000E+00  0.12119107137E+01  0.12119107137E+01  0.00000000000E+00 0. -1.
         13   -1    0    0    0    0 -0.00000000000E+00 -0.00000000000E+00 -0.10000000000E+04  0.10000000000E+04  0.00000000000E+00 0.  1.
    9000005    2    1    2  501    0  0.25255076444E+02 -0.20487399564E+02 -0.32468566942E+03  0.32632553146E+03  0.31648272316E+01 0.  0.
         13    1    3    3    0    0  0.23885512918E+02 -0.18537412445E+02 -0.29550871696E+03  0.29705143526E+03  0.00000000000E+00 0.  1.
          1    1    3    3  501    0  0.13695635261E+01 -0.19499871191E+01 -0.29176952454E+02  0.29274096203E+02  0.00000000000E+00 0.  1.
         -1    1    1    2    0  502 -0.25255076444E+02  0.20487399564E+02 -0.67410241987E+03  0.67488637925E+03  0.00000000000E+00 0. -1.
<mgrwt>
<rscale>  1 0.30000000E+03</rscale>
<asrwt>0</asrwt>
<pdfrwt beam="1">  1       21 0.44069573E-02 0.30000000E+03</pdfrwt>
<pdfrwt beam="2">0</pdfrwt>
<totfact> 0.35700721E+04</totfact>
</mgrwt>
</event>
<event>
 6    1  0.6513574E-002  0.3000000E+03  0.7818608E-02  0.1093470E+00
         21   -1    0    0  501  502  0.00000000000E+00  0.00000000000E+00  0.30251318527E+01  0.30251318527E+01  0.00000000000E+00 0. -1.
         13   -1    0    0    0    0 -0.00000000000E+00 -0.00000000000E+00 -0.10000000000E+04  0.10000000000E+04  0.00000000000E+00 0.  1.
    9000005    2    1    2  501    0  0.48476837978E+02  0.23094878377E+02 -0.40664506165E+03  0.41025818130E+03  0.82578406488E+01 0.  0.
         13    1    3    3    0    0  0.11986726709E+02  0.81285037465E+01 -0.88401464215E+02  0.89579981389E+02  0.00000000000E+00 0.  1.
          1    1    3    3  501    0  0.36490111270E+02  0.14966374630E+02 -0.31824359744E+03  0.32067819991E+03  0.00000000000E+00 0.  1.
         -1    1    1    2    0  502 -0.48476837978E+02 -0.23094878377E+02 -0.59032980650E+03  0.59276695055E+03  0.00000000000E+00 0. -1.
<mgrwt>
<rscale>  1 0.30000000E+03</rscale>
<asrwt>0</asrwt>
<pdfrwt beam="1">  1       21 0.11000503E-01 0.30000000E+03</pdfrwt>
<pdfrwt beam="2">0</pdfrwt>
<totfact> 0.72514266E+03</totfact>
</mgrwt>
</event>
<event>
 6    1  0.6513574E-002  0.3000000E+03  0.7818608E-02  0.1093470E+00
         21   -1    0    0  501  502  0.00000000000E+00  0.00000000000E+00  0.11116868841E+01  0.11116868841E+01  0.00000000000E+00 0. -1.
         13   -1    0    0    0    0 -0.00000000000E+00 -0.00000000000E+00 -0.10000000000E+04  0.10000000000E+04  0.00000000000E+00 0.  1.
    9000005    2    1    2  501    0  0.30218023478E+02 -0.11548604965E+02 -0.38709748898E+03  0.38846618440E+03  0.38744324304E+01 0.  0.
         13    1    3    3    0    0  0.36700152154E+01 -0.15100953231E+00 -0.39901258806E+02  0.40069967181E+02  0.00000000000E+00 0.  1.
          3    1    3    3  501    0  0.26548008262E+02 -0.11397595433E+02 -0.34719623018E+03  0.34839621722E+03  0.00000000000E+00 0.  1.
         -1    1    1    2    0  502 -0.30218023478E+02  0.11548604965E+02 -0.61179082413E+03  0.61264550248E+03  0.00000000000E+00 0. -1.
<mgrwt>
<rscale>  1 0.30000000E+03</rscale>
<asrwt>0</asrwt>
<pdfrwt beam="1">  1       21 0.40425063E-02 0.30000000E+03</pdfrwt>
<pdfrwt beam="2">0</pdfrwt>
<totfact> 0.41305260E+04</totfact>
</mgrwt>
</event>
<event>
 6    1  0.6513574E-002  0.3000000E+03  0.7818608E-02  0.1093470E+00
         21   -1    0    0  501  502  0.00000000000E+00  0.00000000000E+00  0.16552371652E+01  0.16552371652E+01  0.00000000000E+00 0. -1.
         13   -1    0    0    0    0 -0.00000000000E+00 -0.00000000000E+00 -0.10000000000E+04  0.10000000000E+04  0.00000000000E+00 0.  1.
    9000005    2    1    2  501    0 -0.11866597763E+02  0.37815179582E+02 -0.39080443793E+03  0.39282352779E+03  0.33780666297E+01 0.  0.
         13    1    3    3    0    0 -0.68121671618E+01  0.26358795430E+02 -0.27470976961E+03  0.27605551840E+03  0.00000000000E+00 0.  1.
          1    1    3    3  501    0 -0.50544306012E+01  0.11456384152E+02 -0.11609466832E+03  0.11676800940E+03  0.00000000000E+00 0.  1.
         -1    1    1    2    0  502  0.11866597763E+02 -0.37815179582E+02 -0.60754032491E+03  0.60883170937E+03  0.00000000000E+00 0. -1.
<mgrwt>
<rscale>  1 0.30000000E+03</rscale>
<asrwt>0</asrwt>
<pdfrwt beam="1">  1       21 0.60190569E-02 0.30000000E+03</pdfrwt>
<pdfrwt beam="2">0</pdfrwt>
<totfact> 0.20956731E+04</totfact>
</mgrwt>
</event>
<event>
 6    1  0.6513574E-002  0.3000000E+03  0.7818608E-02  0.1093470E+00
         21   -1    0    0  501  502  0.00000000000E+00  0.00000000000E+00  0.31317082587E+01  0.31317082587E+01  0.00000000000E+00 0. -1.
         13   -1    0    0    0    0 -0.00000000000E+00 -0.00000000000E+00 -0.10000000000E+04  0.10000000000E+04  0.00000000000E+00 0.  1.
    9000005    2    1    2  501    0  0.34053323431E+02 -0.26896081633E+02 -0.18261617244E+03  0.18772411580E+03  0.29409478458E+01 0.  0.
         13    1    3    3    0    0  0.29721090067E+01 -0.14374560356E+01 -0.15229121775E+02  0.15582870783E+02  0.00000000000E+00 0.  1.
          3    1    3    3  501    0  0.31081214425E+02 -0.25458625598E+02 -0.16738705066E+03  0.17214124502E+03  0.00000000000E+00 0.  1.
         -3    1    1    2    0  502 -0.34053323431E+02  0.26896081633E+02 -0.81425211930E+03  0.81540759246E+03  0.00000000000E+00 0. -1.
<mgrwt>
<rscale>  1 0.30000000E+03</rscale>
<asrwt>0</asrwt>
<pdfrwt beam="1">  1       21 0.11388054E-01 0.30000000E+03</pdfrwt>
<pdfrwt beam="2">0</pdfrwt>
<totfact> 0.68128360E+03</totfact>
</mgrwt>
</event>
<event>
 6    1  0.6513574E-002  0.3000000E+03  0.7818608E-02  0.1093470E+00
         21   -1    0    0  501  502  0.00000000000E+00  0.00000000000E+00  0.96950393473E+00  0.96950393473E+00  0.00000000000E+00 0. -1.
         13   -1    0    0    0    0 -0.00000000000E+00 -0.00000000000E+00 -0.10000000000E+04  0.10000000000E+04  0.00000000000E+00 0.  1.
    9000005    2    1    2  501    0  0.21580997564E+02  0.21206101626E+02 -0.39667404057E+03  0.39785364635E+03  0.46681092678E+01 0.  0.
         13    1    3    3    0    0  0.14536077920E+02  0.17059910489E+02 -0.29787414213E+03  0.29871615734E+03  0.00000000000E+00 0.  1.
          3    1    3    3  501    0  0.70449196442E+01  0.41461911365E+01 -0.98799898446E+02  0.99137489008E+02  0.00000000000E+00 0.  1.
         -3    1    1    2    0  502 -0.21580997564E+02 -0.21206101626E+02 -0.60235645549E+03  0.60311585759E+03  0.00000000000E+00 0. -1.
<mgrwt>
<rscale>  1 0.30000000E+03</rscale>
<asrwt>0</asrwt>
<pdfrwt beam="1">  1       21 0.35254763E-02 0.30000000E+03</pdfrwt>
<pdfrwt beam="2">0</pdfrwt>
<totfact> 0.51981514E+04</totfact>
</mgrwt>
</event>
<event>
 6    1  0.6513574E-002  0.3000000E+03  0.7818608E-02  0.1093470E+00
         21   -1    0    0  501  502  0.00000000000E+00  0.00000000000E+00  0.58051053126E+01  0.58051053126E+01  0.00000000000E+00 0. -1.
         13   -1    0    0    0    0 -0.00000000000E+00 -0.00000000000E+00 -0.10000000000E+04  0.10000000000E+04  0.00000000000E+00 0.  1.
    9000005    2    1    2  501    0  0.60201571960E+02 -0.21500602273E+02 -0.22548707944E+03  0.23444383432E+03  0.57431082048E+01 0.  0.
         13    1    3    3    0    0  0.51229936121E+00 -0.35896538003E+00 -0.86978109359E+00  0.10713663847E+01  0.00000000000E+00 0.  1.
          1    1    3    3  501    0  0.59689272599E+02 -0.21141636893E+02 -0.22461729835E+03  0.23337246793E+03  0.00000000000E+00 0.  1.
         -3    1    1    2    0  502 -0.60201571960E+02  0.21500602273E+02 -0.76870781525E+03  0.77136127099E+03  0.00000000000E+00 0. -1.
<mgrwt>
<rscale>  1 0.30000000E+03</rscale>
<asrwt>0</asrwt>
<pdfrwt beam="1">  1       21 0.21109518E-01 0.30000000E+03</pdfrwt>
<pdfrwt beam="2">0</pdfrwt>
<totfact> 0.21637355E+03</totfact>
</mgrwt>
</event>
<event>
 6    1  0.6513574E-002  0.3000000E+03  0.7818608E-02  0.1093470E+00
         21   -1    0    0  501  502  0.00000000000E+00  0.00000000000E+00  0.32422574518E+01  0.32422574518E+01  0.00000000000E+00 0. -1.
         13   -1    0    0    0    0 -0.00000000000E+00 -0.00000000000E+00 -0.10000000000E+04  0.10000000000E+04  0.00000000000E+00 0.  1.
    9000005    2    1    2  501    0  0.15869691965E+02 -0.27353096556E+02 -0.91543372321E+03  0.91598611076E+03  0.34080053249E+01 0.  0.
         13    1    3    3    0    0  0.15960692994E+02 -0.26869645053E+02 -0.90678978646E+03  0.90732818669E+03  0.00000000000E+00 0.  1.
          1    1    3    3  501    0 -0.91001029222E-01 -0.48345150265E+00 -0.86439367524E+01  0.86579240654E+01  0.00000000000E+00 0.  1.
         -1    1    1    2    0  502 -0.15869691965E+02  0.27353096556E+02 -0.81324019338E+02  0.87256146692E+02  0.00000000000E+00 0. -1.
<mgrwt>
<rscale>  1 0.30000000E+03</rscale>
<asrwt>0</asrwt>
<pdfrwt beam="1">  1       21 0.11790052E-01 0.30000000E+03</pdfrwt>
<pdfrwt beam="2">0</pdfrwt>
<totfact> 0.63986481E+03</totfact>
</mgrwt>
</event>
<event>
 6    1  0.6513574E-002  0.3000000E+03  0.7818608E-02  0.1093470E+00
         21   -1    0    0  501  502  0.00000000000E+00  0.00000000000E+00  0.28239664861E+01  0.28239664861E+01  0.00000000000E+00 0. -1.
         13   -1    0    0    0    0 -0.00000000000E+00 -0.00000000000E+00 -0.10000000000E+04  0.10000000000E+04  0.00000000000E+00 0.  1.
    9000005    2    1    2  501    0 -0.50442414127E+02  0.12005359643E+02 -0.60653222958E+03  0.60875398875E+03  0.33922696460E+01 0.  0.
         13    1    3    3    0    0 -0.80982684659E+01  0.24695135138E+01 -0.11305794981E+03  0.11337451418E+03  0.00000000000E+00 0.  1.
          3    1    3    3  501    0 -0.42344145661E+02  0.95358461288E+01 -0.49347427977E+03  0.49537947457E+03  0.00000000000E+00 0.  1.
         -3    1    1    2    0  502  0.50442414127E+02 -0.12005359643E+02 -0.39064380393E+03  0.39406997774E+03  0.00000000000E+00 0. -1.
<mgrwt>
<rscale>  1 0.30000000E+03</rscale>
<asrwt>0</asrwt>
<pdfrwt beam="1">  1       21 0.10268991E-01 0.30000000E+03</pdfrwt>
<pdfrwt beam="2">0</pdfrwt>
<totfact> 0.82043622E+03</totfact>
</mgrwt>
</event>
<event>
 6    1  0.6513574E-002  0.3000000E+03  0.7818608E-02  0.1093470E+00
         21   -1    0    0  501  502  0.00000000000E+00  0.00000000000E+00  0.10778543613E+01  0.10778543613E+01  0.00000000000E+00 0. -1.
         13   -1    0    0    0    0 -0.00000000000E+00 -0.00000000000E+00 -0.10000000000E+04  0.10000000000E+04  0.00000000000E+00 0.  1.
    9000005    2    1    2  501    0  0.21250610641E+02 -0.23659537610E+02 -0.38072771013E+03  0.38206596250E+03  0.30738033659E+01 0.  0.
         13    1    3    3    0    0  0.81879782044E+01 -0.69992342268E+01 -0.12447894270E+03  0.12494414529E+03  0.00000000000E+00 0.  1.
          1    1    3    3  501    0  0.13062632437E+02 -0.16660303383E+02 -0.25624876743E+03  0.25712181721E+03  0.00000000000E+00 0.  1.
         -1    1    1    2    0  502 -0.21250610641E+02  0.23659537610E+02 -0.61819443550E+03  0.61901189186E+03  0.00000000000E+00 0. -1.
<mgrwt>
<rscale>  1 0.30000000E+03</rscale>
<asrwt>0</asrwt>
<pdfrwt beam="1">  1       21 0.39194787E-02 0.30000000E+03</pdfrwt>
<pdfrwt beam="2">0</pdfrwt>
<totfact> 0.43511473E+04</totfact>
</mgrwt>
</event>
<event>
 6    1  0.6513574E-002  0.3000000E+03  0.7818608E-02  0.1093470E+00
         21   -1    0    0  501  502  0.00000000000E+00  0.00000000000E+00  0.36664439659E+01  0.36664439659E+01  0.00000000000E+00 0. -1.
         13   -1    0    0    0    0 -0.00000000000E+00 -0.00000000000E+00 -0.10000000000E+04  0.10000000000E+04  0.00000000000E+00 0.  1.
    9000005    2    1    2  501    0  0.22780436639E+02  0.45378677217E+02 -0.22578795351E+03  0.23144970094E+03  0.32544547731E+01 0.  0.
         13    1    3    3    0    0  0.17948719422E+02  0.37040482788E+02 -0.18790612230E+03  0.19236128689E+03  0.00000000000E+00 0.  1.
          1    1    3    3  501    0  0.48317172168E+01  0.83381944294E+01 -0.37881831211E+02  0.39088414057E+02  0.00000000000E+00 0.  1.
         -3    1    1    2    0  502 -0.22780436639E+02 -0.45378677217E+02 -0.77054560252E+03  0.77221674302E+03  0.00000000000E+00 0. -1.
<mgrwt>
<rscale>  1 0.30000000E+03</rscale>
<asrwt>0</asrwt>
<pdfrwt beam="1">  1       21 0.13332552E-01 0.30000000E+03</pdfrwt>
<pdfrwt beam="2">0</pdfrwt>
<totfact> 0.51148357E+03</totfact>
</mgrwt>
</event>
<event>
 6    1  0.6513574E-002  0.3000000E+03  0.7818608E-02  0.1093470E+00
         21   -1    0    0  501  502  0.00000000000E+00  0.00000000000E+00  0.12021449508E+01  0.12021449508E+01  0.00000000000E+00 0. -1.
         13   -1    0    0    0    0 -0.00000000000E+00 -0.00000000000E+00 -0.10000000000E+04  0.10000000000E+04  0.00000000000E+00 0.  1.
    9000005    2    1    2  501    0 -0.17722625817E+02 -0.24887084951E+02 -0.73508122017E+03  0.73572159580E+03  0.28996245949E+01 0.  0.
         13    1    3    3    0    0 -0.17408733976E+02 -0.24605229737E+02 -0.73032404625E+03  0.73094575303E+03  0.00000000000E+00 0.  1.
          3    1    3    3  501    0 -0.31389184175E+00 -0.28185521428E+00 -0.47571739241E+01  0.47758427732E+01  0.00000000000E+00 0.  1.
         -1    1    1    2    0  502  0.17722625817E+02  0.24887084951E+02 -0.26371663488E+03  0.26548054915E+03  0.00000000000E+00 0. -1.
<mgrwt>
<rscale>  1 0.30000000E+03</rscale>
<asrwt>0</asrwt>
<pdfrwt beam="1">  1       21 0.43714454E-02 0.30000000E+03</pdfrwt>
<pdfrwt beam="2">0</pdfrwt>
<totfact> 0.36193297E+04</totfact>
</mgrwt>
</event>
<event>
 6    1  0.6513574E-002  0.3000000E+03  0.7818608E-02  0.1093470E+00
         21   -1    0    0  501  502  0.00000000000E+00  0.00000000000E+00  0.64135760661E+01  0.64135760661E+01  0.00000000000E+00 0. -1.
         13   -1    0    0    0    0 -0.00000000000E+00 -0.00000000000E+00 -0.10000000000E+04  0.10000000000E+04  0.00000000000E+00 0.  1.
    9000005    2    1    2  501    0  0.68349925853E+01  0.65382006610E+02 -0.20993457270E+03  0.22000926030E+03  0.31663688194E+01 0.  0.
         13    1    3    3    0    0  0.48652688166E+01  0.53816677442E+02 -0.16922354822E+03  0.17764153480E+03  0.00000000000E+00 0.  1.
          3    1    3    3  501    0  0.19697237687E+01  0.11565329168E+02 -0.40711024481E+02  0.42367725508E+02  0.00000000000E+00 0.  1.
         -3    1    1    2    0  502 -0.68349925853E+01 -0.65382006610E+02 -0.78365185123E+03  0.78640431576E+03  0.00000000000E+00 0. -1.
<mgrwt>
<rscale>  1 0.30000000E+03</rscale>
<asrwt>0</asrwt>
<pdfrwt beam="1">  1       21 0.23322144E-01 0.30000000E+03</pdfrwt>
<pdfrwt beam="2">0</pdfrwt>
<totfact> 0.17855301E+03</totfact>
</mgrwt>
</event>
<event>
 6    1  0.6513574E-002  0.3000000E+03  0.7818608E-02  0.1093470E+00
         21   -1    0    0  501  502  0.00000000000E+00  0.00000000000E+00  0.10867003830E+01  0.10867003830E+01  0.00000000000E+00 0. -1.
         13   -1    0    0    0    0 -0.00000000000E+00 -0.00000000000E+00 -0.10000000000E+04  0.10000000000E+04  0.00000000000E+00 0.  1.
    9000005    2    1    2  501    0  0.30782393524E+02 -0.94082453627E+01 -0.60050412758E+03  0.60137938347E+03  0.39855725212E+01 0.  0.
         13    1    3    3    0    0  0.13703958440E+02 -0.52020323638E+01 -0.30538816562E+03  0.30573974442E+03  0.00000000000E+00 0.  1.
          1    1    3    3  501    0  0.17078435084E+02 -0.42062129990E+01 -0.29511596196E+03  0.29563963905E+03  0.00000000000E+00 0.  1.
         -1    1    1    2    0  502 -0.30782393524E+02  0.94082453627E+01 -0.39840917204E+03  0.39970731691E+03  0.00000000000E+00 0. -1.
<mgrwt>
<rscale>  1 0.30000000E+03</rscale>
<asrwt>0</asrwt>
<pdfrwt beam="1">  1       21 0.39516461E-02 0.30000000E+03</pdfrwt>
<pdfrwt beam="2">0</pdfrwt>
<totfact> 0.42917127E+04</totfact>
</mgrwt>
</event>
<event>
 6    1  0.6513574E-002  0.3000000E+03  0.7818608E-02  0.1093470E+00
         21   -1    0    0  501  502  0.00000000000E+00  0.00000000000E+00  0.25911979357E+01  0.25911979357E+01  0.00000000000E+00 0. -1.
         13   -1    0    0    0    0 -0.00000000000E+00 -0.00000000000E+00 -0.10000000000E+04  0.10000000000E+04  0.00000000000E+00 0.  1.
    9000005    2    1    2  501    0  0.40404808396E+02  0.23801262042E+02 -0.69301775531E+03  0.69460912385E+03  0.30293793166E+01 0.  0.
         13    1    3    3    0    0  0.67876969677E+00  0.39033213811E-01 -0.78125362158E+01  0.78420643976E+01  0.00000000000E+00 0.  1.
          1    1    3    3  501    0  0.39726038699E+02  0.23762228828E+02 -0.68520521909E+03  0.68676705945E+03  0.00000000000E+00 0.  1.
         -3    1    1    2    0  502 -0.40404808396E+02 -0.23801262042E+02 -0.30439104675E+03  0.30798207409E+03  0.00000000000E+00 0. -1.
<mgrwt>
<rscale>  1 0.30000000E+03</rscale>
<asrwt>0</asrwt>
<pdfrwt beam="1">  1       21 0.94225578E-02 0.30000000E+03</pdfrwt>
<pdfrwt beam="2">0</pdfrwt>
<totfact> 0.95661321E+03</totfact>
</mgrwt>
</event>
<event>
 6    1  0.6513574E-002  0.3000000E+03  0.7818608E-02  0.1093470E+00
         21   -1    0    0  501  502  0.00000000000E+00  0.00000000000E+00  0.19668319112E+01  0.19668319112E+01  0.00000000000E+00 0. -1.
         13   -1    0    0    0    0 -0.00000000000E+00 -0.00000000000E+00 -0.10000000000E+04  0.10000000000E+04  0.00000000000E+00 0.  1.
    9000005    2    1    2  501    0 -0.14978501374E+02 -0.36108947374E+02 -0.26524963081E+03  0.26814129127E+03  0.37648184077E+01 0.  0.
         13    1    3    3    0    0 -0.76898600758E+01 -0.17249412041E+02 -0.11574769476E+03  0.11727832283E+03  0.00000000000E+00 0.  1.
          3    1    3    3  501    0 -0.72886412987E+01 -0.18859535333E+02 -0.14950193605E+03  0.15086296844E+03  0.00000000000E+00 0.  1.
         -1    1    1    2    0  502  0.14978501374E+02  0.36108947374E+02 -0.73278353728E+03  0.73382554064E+03  0.00000000000E+00 0. -1.
<mgrwt>
<rscale>  1 0.30000000E+03</rscale>
<asrwt>0</asrwt>
<pdfrwt beam="1">  1       21 0.71521311E-02 0.30000000E+03</pdfrwt>
<pdfrwt beam="2">0</pdfrwt>
<totfact> 0.15542179E+04</totfact>
</mgrwt>
</event>
<event>
 6    1  0.6513574E-002  0.3000000E+03  0.7818608E-02  0.1093470E+00
         21   -1    0    0  501  502  0.00000000000E+00  0.00000000000E+00  0.29403909324E+01  0.29403909324E+01  0.00000000000E+00 0. -1.
         13   -1    0    0    0    0 -0.00000000000E+00 -0.00000000000E+00 -0.10000000000E+04  0.10000000000E+04  0.00000000000E+00 0.  1.
    9000005    2    1    2  501    0 -0.52156064043E+02  0.11521448576E+02 -0.57745675653E+03  0.57995155816E+03  0.58741258393E+01 0.  0.
         13    1    3    3    0    0 -0.31836431145E+02  0.94915846054E+01 -0.37399600955E+03  0.37546859214E+03  0.00000000000E+00 0.  1.
          3    1    3    3  501    0 -0.20319632898E+02  0.20298639709E+01 -0.20346074698E+03  0.20448296601E+03  0.00000000000E+00 0.  1.
         -1    1    1    2    0  502  0.52156064043E+02 -0.11521448576E+02 -0.41960285254E+03  0.42298883278E+03  0.00000000000E+00 0. -1.
<mgrwt>
<rscale>  1 0.30000000E+03</rscale>
<asrwt>0</asrwt>
<pdfrwt beam="1">  1       21 0.10692353E-01 0.30000000E+03</pdfrwt>
<pdfrwt beam="2">0</pdfrwt>
<totfact> 0.76312798E+03</totfact>
</mgrwt>
</event>
<event>
 6    1  0.6513574E-002  0.3000000E+03  0.7818608E-02  0.1093470E+00
         21   -1    0    0  501  502  0.00000000000E+00  0.00000000000E+00  0.18624238457E+01  0.18624238457E+01  0.00000000000E+00 0. -1.
         13   -1    0    0    0    0 -0.00000000000E+00 -0.00000000000E+00 -0.10000000000E+04  0.10000000000E+04  0.00000000000E+00 0.  1.
    9000005    2    1    2  501    0 -0.41320452881E+02  0.72450151105E+01 -0.61401562342E+03  0.61545649139E+03  0.34112916832E+01 0.  0.
         13    1    3    3    0    0 -0.40753863944E+02  0.68078974201E+01 -0.59864089297E+03  0.60006511615E+03  0.00000000000E+00 0.  1.
          3    1    3    3  501    0 -0.56658893641E+00  0.43711769035E+00 -0.15374730456E+02  0.15391375231E+02  0.00000000000E+00 0.  1.
         -1    1    1    2    0  502  0.41320452881E+02 -0.72450151105E+01 -0.38412195273E+03  0.38640593246E+03  0.00000000000E+00 0. -1.
<mgrwt>
<rscale>  1 0.30000000E+03</rscale>
<asrwt>0</asrwt>
<pdfrwt beam="1">  1       21 0.67724646E-02 0.30000000E+03</pdfrwt>
<pdfrwt beam="2">0</pdfrwt>
<totfact> 0.17089164E+04</totfact>
</mgrwt>
</event>
<event>
 6    1  0.6513574E-002  0.3000000E+03  0.7818608E-02  0.1093470E+00
         21   -1    0    0  501  502  0.00000000000E+00  0.00000000000E+00  0.10065284819E+01  0.10065284819E+01  0.00000000000E+00 0. -1.
         13   -1    0    0    0    0 -0.00000000000E+00 -0.00000000000E+00 -0.10000000000E+04  0.10000000000E+04  0.00000000000E+00 0.  1.
    9000005    2    1    2  501    0  0.15188081524E+02 -0.26286817553E+02 -0.64002498285E+03  0.64075654521E+03  0.39111312812E+01 0.  0.
         13    1    3    3    0    0  0.14293879972E+02 -0.23982180107E+02 -0.56287250910E+03  0.56356447854E+03  0.00000000000E+00 0.  1.
          1    1    3    3  501    0  0.89420155212E+00 -0.23046374456E+01 -0.77152473755E+02  0.77192066669E+02  0.00000000000E+00 0.  1.
         -3    1    1    2    0  502 -0.15188081524E+02  0.26286817553E+02 -0.35896848866E+03  0.36024998328E+03  0.00000000000E+00 0. -1.
<mgrwt>
<rscale>  1 0.30000000E+03</rscale>
<asrwt>0</asrwt>
<pdfrwt beam="1">  1       21 0.36601113E-02 0.30000000E+03</pdfrwt>
<pdfrwt beam="2">0</pdfrwt>
<totfact> 0.48815356E+04</totfact>
</mgrwt>
</event>
<event>
 6    1  0.6513574E-002  0.3000000E+03  0.7818608E-02  0.1093470E+00
         21   -1    0    0  501  502  0.00000000000E+00  0.00000000000E+00  0.11741212427E+01  0.11741212427E+01  0.00000000000E+00 0. -1.
         13   -1    0    0    0    0 -0.00000000000E+00 -0.00000000000E+00 -0.10000000000E+04  0.10000000000E+04  0.00000000000E+00 0.  1.
    9000005    2    1    2  501    0  0.10714449021E+01  0.33655836279E+02 -0.58659559488E+03  0.58757084483E+03  0.33529773883E+01 0.  0.
         13    1    3    3    0    0  0.13229233091E+00  0.44566914324E+01 -0.59942798740E+02  0.60108391432E+02  0.00000000000E+00 0.  1.
          3    1    3    3  501    0  0.93915257120E+00  0.29199144846E+02 -0.52665279614E+03  0.52746245340E+03  0.00000000000E+00 0.  1.
         -1    1    1    2    0  502 -0.10714449021E+01 -0.33655836279E+02 -0.41223028388E+03  0.41360327641E+03  0.00000000000E+00 0. -1.
<mgrwt>
<rscale>  1 0.30000000E+03</rscale>
<asrwt>0</asrwt>
<pdfrwt beam="1">  1       21 0.42695408E-02 0.30000000E+03</pdfrwt>
<pdfrwt beam="2">0</pdfrwt>
<totfact> 0.37666770E+04</totfact>
</mgrwt>
</event>
<event>
 6    1  0.6513574E-002  0.3000000E+03  0.7818608E-02  0.1093470E+00
         21   -1    0    0  501  502  0.00000000000E+00  0.00000000000E+00  0.18069207833E+01  0.18069207833E+01  0.00000000000E+00 0. -1.
         13   -1    0    0    0    0 -0.00000000000E+00 -0.00000000000E+00 -0.10000000000E+04  0.10000000000E+04  0.00000000000E+00 0.  1.
    9000005    2    1    2  501    0 -0.20933598875E+01 -0.35853496697E+02 -0.23338895284E+03  0.23616000014E+03  0.33596091028E+01 0.  0.
         13    1    3    3    0    0 -0.88047182062E+00 -0.14303971212E+02 -0.10410258884E+03  0.10508438431E+03  0.00000000000E+00 0.  1.
          3    1    3    3  501    0 -0.12128880669E+01 -0.21549525485E+02 -0.12928636400E+03  0.13107561582E+03  0.00000000000E+00 0.  1.
         -3    1    1    2    0  502  0.20933598875E+01  0.35853496697E+02 -0.76480412637E+03  0.76564692065E+03  0.00000000000E+00 0. -1.
<mgrwt>
<rscale>  1 0.30000000E+03</rscale>
<asrwt>0</asrwt>
<pdfrwt beam="1">  1       21 0.65706349E-02 0.30000000E+03</pdfrwt>
<pdfrwt beam="2">0</pdfrwt>
<totfact> 0.18009738E+04</totfact>
</mgrwt>
</event>
<event>
 6    1  0.6513574E-002  0.3000000E+03  0.7818608E-02  0.1093470E+00
         21   -1    0    0  501  502  0.00000000000E+00  0.00000000000E+00  0.10397192225E+01  0.10397192225E+01  0.00000000000E+00 0. -1.
         13   -1    0    0    0    0 -0.00000000000E+00 -0.00000000000E+00 -0.10000000000E+04  0.10000000000E+04  0.00000000000E+00 0.  1.
    9000005    2    1    2  501    0 -0.11850824594E+02 -0.28348997672E+02 -0.64636151029E+03  0.64710469600E+03  0.41446219667E+01 0.  0.
         13    1    3    3    0    0  0.88423215644E-01 -0.17729328460E+01 -0.26976137801E+02  0.27034480209E+02  0.00000000000E+00 0.  1.
          1    1    3    3  501    0 -0.11939247809E+02 -0.26576064826E+02 -0.61938537248E+03  0.62007021579E+03  0.00000000000E+00 0.  1.
         -3    1    1    2    0  502  0.11850824594E+02  0.28348997672E+02 -0.35259877049E+03  0.35393502323E+03  0.00000000000E+00 0. -1.
<mgrwt>
<rscale>  1 0.30000000E+03</rscale>
<asrwt>0</asrwt>
<pdfrwt beam="1">  1       21 0.37808051E-02 0.30000000E+03</pdfrwt>
<pdfrwt beam="2">0</pdfrwt>
<totfact> 0.46227695E+04</totfact>
</mgrwt>
</event>
<event>
 6    1  0.6513574E-002  0.3000000E+03  0.7818608E-02  0.1093470E+00
         21   -1    0    0  501  502  0.00000000000E+00  0.00000000000E+00  0.14133213778E+01  0.14133213778E+01  0.00000000000E+00 0. -1.
         13   -1    0    0    0    0 -0.00000000000E+00 -0.00000000000E+00 -0.10000000000E+04  0.10000000000E+04  0.00000000000E+00 0.  1.
    9000005    2    1    2  501    0 -0.23420014780E+02 -0.29165879894E+02 -0.45895925312E+03  0.46049104970E+03  0.30438770601E+01 0.  0.
         13    1    3    3    0    0 -0.71883541975E+01 -0.94478233755E+01 -0.16313454848E+03  0.16356593383E+03  0.00000000000E+00 0.  1.
          3    1    3    3  501    0 -0.16231660583E+02 -0.19718056519E+02 -0.29582470465E+03  0.29692511588E+03  0.00000000000E+00 0.  1.
         -3    1    1    2    0  502  0.23420014780E+02  0.29165879894E+02 -0.53962742550E+03  0.54092227167E+03  0.00000000000E+00 0. -1.
<mgrwt>
<rscale>  1 0.30000000E+03</rscale>
<asrwt>0</asrwt>
<pdfrwt beam="1">  1       21 0.51393613E-02 0.30000000E+03</pdfrwt>
<pdfrwt beam="2">0</pdfrwt>
<totfact> 0.27484974E+04</totfact>
</mgrwt>
</event>
<event>
 6    1  0.6513574E-002  0.3000000E+03  0.7818608E-02  0.1093470E+00
         21   -1    0    0  501  502  0.00000000000E+00  0.00000000000E+00  0.15543622856E+01  0.15543622856E+01  0.00000000000E+00 0. -1.
         13   -1    0    0    0    0 -0.00000000000E+00 -0.00000000000E+00 -0.10000000000E+04  0.10000000000E+04  0.00000000000E+00 0.  1.
    9000005    2    1    2  501    0  0.18466385275E+02  0.34723041812E+02 -0.48131351435E+03  0.48292893865E+03  0.33111447147E+01 0.  0.
         13    1    3    3    0    0  0.11045333327E+02  0.22762585260E+02 -0.29326554084E+03  0.29435490843E+03  0.00000000000E+00 0.  1.
          1    1    3    3  501    0  0.74210519479E+01  0.11960456551E+02 -0.18804797351E+03  0.18857403022E+03  0.00000000000E+00 0.  1.
         -3    1    1    2    0  502 -0.18466385275E+02 -0.34723041812E+02 -0.51713212337E+03  0.51862542363E+03  0.00000000000E+00 0. -1.
<mgrwt>
<rscale>  1 0.30000000E+03</rscale>
<asrwt>0</asrwt>
<pdfrwt beam="1">  1       21 0.56522384E-02 0.30000000E+03</pdfrwt>
<pdfrwt beam="2">0</pdfrwt>
<totfact> 0.23353615E+04</totfact>
</mgrwt>
</event>
<event>
 6    1  0.6513574E-002  0.3000000E+03  0.7818608E-02  0.1093470E+00
         21   -1    0    0  501  502  0.00000000000E+00  0.00000000000E+00  0.29436474697E+01  0.29436474697E+01  0.00000000000E+00 0. -1.
         13   -1    0    0    0    0 -0.00000000000E+00 -0.00000000000E+00 -0.10000000000E+04  0.10000000000E+04  0.00000000000E+00 0.  1.
    9000005    2    1    2  501    0  0.41302454560E+02  0.30296269045E+02 -0.33526702647E+03  0.33917496129E+03  0.34523404447E+01 0.  0.
         13    1    3    3    0    0  0.25080833650E+01  0.98340293407E+00 -0.15541667276E+02  0.15773426552E+02  0.00000000000E+00 0.  1.
          1    1    3    3  501    0  0.38794371195E+02  0.29312866111E+02 -0.31972535920E+03  0.32340153474E+03  0.00000000000E+00 0.  1.
         -1    1    1    2    0  502 -0.41302454560E+02 -0.30296269045E+02 -0.66178932606E+03  0.66376868618E+03  0.00000000000E+00 0. -1.
<mgrwt>
<rscale>  1 0.30000000E+03</rscale>
<asrwt>0</asrwt>
<pdfrwt beam="1">  1       21 0.10704195E-01 0.30000000E+03</pdfrwt>
<pdfrwt beam="2">0</pdfrwt>
<totfact> 0.76161318E+03</totfact>
</mgrwt>
</event>
<event>
 6    1  0.6513574E-002  0.3000000E+03  0.7818608E-02  0.1093470E+00
         21   -1    0    0  501  502  0.00000000000E+00  0.00000000000E+00  0.98996024257E+00  0.98996024257E+00  0.00000000000E+00 0. -1.
         13   -1    0    0    0    0 -0.00000000000E+00 -0.00000000000E+00 -0.10000000000E+04  0.10000000000E+04  0.00000000000E+00 0.  1.
    9000005    2    1    2  501    0 -0.14326332011E+02  0.27464829427E+02 -0.58178558225E+03  0.58261714971E+03  0.29527591326E+01 0.  0.
         13    1    3    3    0    0 -0.10239537244E+02  0.18980454077E+02 -0.37915926089E+03  0.37977210387E+03  0.00000000000E+00 0.  1.
          1    1    3    3  501    0 -0.40867947678E+01  0.84843753506E+01 -0.20262632136E+03  0.20284504585E+03  0.00000000000E+00 0.  1.
         -3    1    1    2    0  502  0.14326332011E+02 -0.27464829427E+02 -0.41722445751E+03  0.41837281053E+03  0.00000000000E+00 0. -1.
<mgrwt>
<rscale>  1 0.30000000E+03</rscale>
<asrwt>0</asrwt>
<pdfrwt beam="1">  1       21 0.35998630E-02 0.30000000E+03</pdfrwt>
<pdfrwt beam="2">0</pdfrwt>
<totfact> 0.50193514E+04</totfact>
</mgrwt>
</event>
<event>
 6    1  0.6513574E-002  0.3000000E+03  0.7818608E-02  0.1093470E+00
         21   -1    0    0  501  502  0.00000000000E+00  0.00000000000E+00  0.10545988267E+01  0.10545988267E+01  0.00000000000E+00 0. -1.
         13   -1    0    0    0    0 -0.00000000000E+00 -0.00000000000E+00 -0.10000000000E+04  0.10000000000E+04  0.00000000000E+00 0.  1.
    9000005    2    1    2  501    0  0.22234702517E+01 -0.31115922779E+02 -0.36809489418E+03  0.36943326714E+03  0.37340697043E+01 0.  0.
         13    1    3    3    0    0 -0.95782361810E-01 -0.21479060411E+02 -0.24467732288E+03  0.24561830457E+03  0.00000000000E+00 0.  1.
          3    1    3    3  501    0  0.23192526135E+01 -0.96368623682E+01 -0.12341757130E+03  0.12381496257E+03  0.00000000000E+00 0.  1.
         -1    1    1    2    0  502 -0.22234702517E+01  0.31115922779E+02 -0.63085050699E+03  0.63162133169E+03  0.00000000000E+00 0. -1.
<mgrwt>
<rscale>  1 0.30000000E+03</rscale>
<asrwt>0</asrwt>
<pdfrwt beam="1">  1       21 0.38349129E-02 0.30000000E+03</pdfrwt>
<pdfrwt beam="2">0</pdfrwt>
<totfact> 0.45137019E+04</totfact>
</mgrwt>
</event>
<event>
 6    1  0.6513574E-002  0.3000000E+03  0.7818608E-02  0.1093470E+00
         21   -1    0    0  501  502  0.00000000000E+00  0.00000000000E+00  0.22836625905E+01  0.22836625905E+01  0.00000000000E+00 0. -1.
         13   -1    0    0    0    0 -0.00000000000E+00 -0.00000000000E+00 -0.10000000000E+04  0.10000000000E+04  0.00000000000E+00 0.  1.
    9000005    2    1    2  501    0  0.44853144517E+02  0.15183881425E+02 -0.56299612969E+03  0.56499198210E+03  0.29904783859E+01 0.  0.
         13    1    3    3    0    0  0.35611508358E+02  0.12404112420E+02 -0.46146927548E+03  0.46300748778E+03  0.00000000000E+00 0.  1.
          3    1    3    3  501    0  0.92416361592E+01  0.27797690050E+01 -0.10152685421E+03  0.10198449432E+03  0.00000000000E+00 0.  1.
         -1    1    1    2    0  502 -0.44853144517E+02 -0.15183881425E+02 -0.43472020772E+03  0.43729168049E+03  0.00000000000E+00 0. -1.
<mgrwt>
<rscale>  1 0.30000000E+03</rscale>
<asrwt>0</asrwt>
<pdfrwt beam="1">  1       21 0.83042451E-02 0.30000000E+03</pdfrwt>
<pdfrwt beam="2">0</pdfrwt>
<totfact> 0.11962392E+04</totfact>
</mgrwt>
</event>
<event>
 6    1  0.6513574E-002  0.3000000E+03  0.7818608E-02  0.1093470E+00
         21   -1    0    0  501  502  0.00000000000E+00  0.00000000000E+00  0.17785254632E+01  0.17785254632E+01  0.00000000000E+00 0. -1.
         13   -1    0    0    0    0 -0.00000000000E+00 -0.00000000000E+00 -0.10000000000E+04  0.10000000000E+04  0.00000000000E+00 0.  1.
    9000005    2    1    2  501    0 -0.37706952606E+02 -0.24558432929E-01 -0.72234269229E+03  0.72333478362E+03  0.35255086458E+01 0.  0.
         13    1    3    3    0    0 -0.64510159315E+01 -0.11816934326E+01 -0.13755062565E+03  0.13770688662E+03  0.00000000000E+00 0.  1.
          3    1    3    3  501    0 -0.31255936674E+02  0.11571349996E+01 -0.58479206664E+03  0.58562789700E+03  0.00000000000E+00 0.  1.
         -3    1    1    2    0  502  0.37706952606E+02  0.24558432929E-01 -0.27587878225E+03  0.27844374185E+03  0.00000000000E+00 0. -1.
<mgrwt>
<rscale>  1 0.30000000E+03</rscale>
<asrwt>0</asrwt>
<pdfrwt beam="1">  1       21 0.64673790E-02 0.30000000E+03</pdfrwt>
<pdfrwt beam="2">0</pdfrwt>
<totfact> 0.18510568E+04</totfact>
</mgrwt>
</event>
<event>
 6    1  0.6513574E-002  0.3000000E+03  0.7818608E-02  0.1093470E+00
         21   -1    0    0  501  502  0.00000000000E+00  0.00000000000E+00  0.64407376743E+01  0.64407376743E+01  0.00000000000E+00 0. -1.
         13   -1    0    0    0    0 -0.00000000000E+00 -0.00000000000E+00 -0.10000000000E+04  0.10000000000E+04  0.00000000000E+00 0.  1.
    9000005    2    1    2  501    0  0.46598745398E+02  0.26783278253E+01 -0.87889056146E+02  0.99568564281E+02  0.32857708739E+01 0.  0.
         13    1    3    3    0    0  0.17907600663E+02 -0.55896411142E+00 -0.33249801958E+02  0.37769616528E+02  0.00000000000E+00 0.  1.
          1    1    3    3  501    0  0.28691144735E+02  0.32372919367E+01 -0.54639254188E+02  0.61798947754E+02  0.00000000000E+00 0.  1.
         -1    1    1    2    0  502 -0.46598745398E+02 -0.26783278253E+01 -0.90567020618E+03  0.90687217339E+03  0.00000000000E+00 0. -1.
<mgrwt>
<rscale>  1 0.30000000E+03</rscale>
<asrwt>0</asrwt>
<pdfrwt beam="1">  1       21 0.23420914E-01 0.30000000E+03</pdfrwt>
<pdfrwt beam="2">0</pdfrwt>
<totfact> 0.17709608E+03</totfact>
</mgrwt>
</event>
<event>
 6    1  0.6513574E-002  0.3000000E+03  0.7818608E-02  0.1093470E+00
         21   -1    0    0  501  502  0.00000000000E+00  0.00000000000E+00  0.22635716026E+01  0.22635716026E+01  0.00000000000E+00 0. -1.
         13   -1    0    0    0    0 -0.00000000000E+00 -0.00000000000E+00 -0.10000000000E+04  0.10000000000E+04  0.00000000000E+00 0.  1.
    9000005    2    1    2  501    0 -0.60675250009E+00 -0.47341733047E+02 -0.54357224372E+03  0.54563821699E+03  0.29448012986E+01 0.  0.
         13    1    3    3    0    0 -0.12204525781E+01 -0.43227235297E+02 -0.50129663677E+03  0.50315842576E+03  0.00000000000E+00 0.  1.
          1    1    3    3  501    0  0.61370007801E+00 -0.41144977502E+01 -0.42275606955E+02  0.42479791230E+02  0.00000000000E+00 0.  1.
         -3    1    1    2    0  502  0.60675250009E+00  0.47341733047E+02 -0.45416418468E+03  0.45662535462E+03  0.00000000000E+00 0. -1.
<mgrwt>
<rscale>  1 0.30000000E+03</rscale>
<asrwt>0</asrwt>
<pdfrwt beam="1">  1       21 0.82311868E-02 0.30000000E+03</pdfrwt>
<pdfrwt beam="2">0</pdfrwt>
<totfact> 0.12149890E+04</totfact>
</mgrwt>
</event>
<event>
 6    1  0.6513574E-002  0.3000000E+03  0.7818608E-02  0.1093470E+00
         21   -1    0    0  501  502  0.00000000000E+00  0.00000000000E+00  0.17322550099E+01  0.17322550099E+01  0.00000000000E+00 0. -1.
         13   -1    0    0    0    0 -0.00000000000E+00 -0.00000000000E+00 -0.10000000000E+04  0.10000000000E+04  0.00000000000E+00 0.  1.
    9000005    2    1    2  501    0 -0.41392334261E+02  0.19482608819E+01 -0.53459247278E+03  0.53620902345E+03  0.37261009081E+01 0.  0.
         13    1    3    3    0    0 -0.29121183636E+02  0.19520674366E+01 -0.35496612190E+03  0.35616400941E+03  0.00000000000E+00 0.  1.
          3    1    3    3  501    0 -0.12271150625E+02 -0.38065547226E-02 -0.17962635087E+03  0.18004501404E+03  0.00000000000E+00 0.  1.
         -1    1    1    2    0  502  0.41392334261E+02 -0.19482608819E+01 -0.46367527221E+03  0.46552323156E+03  0.00000000000E+00 0. -1.
<mgrwt>
<rscale>  1 0.30000000E+03</rscale>
<asrwt>0</asrwt>
<pdfrwt beam="1">  1       21 0.62991224E-02 0.30000000E+03</pdfrwt>
<pdfrwt beam="2">0</pdfrwt>
<totfact> 0.19374076E+04</totfact>
</mgrwt>
</event>
<event>
 6    1  0.6513574E-002  0.3000000E+03  0.7818608E-02  0.1093470E+00
         21   -1    0    0  501  502  0.00000000000E+00  0.00000000000E+00  0.15846038338E+01  0.15846038338E+01  0.00000000000E+00 0. -1.
         13   -1    0    0    0    0 -0.00000000000E+00 -0.00000000000E+00 -0.10000000000E+04  0.10000000000E+04  0.00000000000E+00 0.  1.
    9000005    2    1    2  501    0 -0.25089009633E+02  0.22167338008E+02 -0.76907903895E+03  0.76981744909E+03  0.39354143326E+01 0.  0.
         13    1    3    3    0    0 -0.22304272471E+02  0.18020227254E+02 -0.64097807950E+03  0.64161912967E+03  0.00000000000E+00 0.  1.
          3    1    3    3  501    0 -0.27847371618E+01  0.41471107547E+01 -0.12810095945E+03  0.12819831942E+03  0.00000000000E+00 0.  1.
         -3    1    1    2    0  502  0.25089009633E+02 -0.22167338008E+02 -0.22933635721E+03  0.23176715475E+03  0.00000000000E+00 0. -1.
<mgrwt>
<rscale>  1 0.30000000E+03</rscale>
<asrwt>0</asrwt>
<pdfrwt beam="1">  1       21 0.57622079E-02 0.30000000E+03</pdfrwt>
<pdfrwt beam="2">0</pdfrwt>
<totfact> 0.22592419E+04</totfact>
</mgrwt>
</event>
<event>
 6    1  0.6513574E-002  0.3000000E+03  0.7818608E-02  0.1093470E+00
         21   -1    0    0  501  502  0.00000000000E+00  0.00000000000E+00  0.63523072799E+01  0.63523072799E+01  0.00000000000E+00 0. -1.
         13   -1    0    0    0    0 -0.00000000000E+00 -0.00000000000E+00 -0.10000000000E+04  0.10000000000E+04  0.00000000000E+00 0.  1.
    9000005    2    1    2  501    0 -0.43847698480E+02 -0.62128484156E+02 -0.64690740587E+03  0.65137146874E+03  0.36096140964E+01 0.  0.
         13    1    3    3    0    0 -0.25429154780E+02 -0.34709852580E+02 -0.35203976270E+03  0.35465956958E+03  0.00000000000E+00 0.  1.
          1    1    3    3  501    0 -0.18418543700E+02 -0.27418631575E+02 -0.29486764317E+03  0.29671189916E+03  0.00000000000E+00 0.  1.
         -1    1    1    2    0  502  0.43847698480E+02  0.62128484156E+02 -0.34674028685E+03  0.35498083854E+03  0.00000000000E+00 0. -1.
<mgrwt>
<rscale>  1 0.30000000E+03</rscale>
<asrwt>0</asrwt>
<pdfrwt beam="1">  1       21 0.23099348E-01 0.30000000E+03</pdfrwt>
<pdfrwt beam="2">0</pdfrwt>
<totfact> 0.18190400E+03</totfact>
</mgrwt>
</event>
<event>
 6    1  0.6513574E-002  0.3000000E+03  0.7818608E-02  0.1093470E+00
         21   -1    0    0  501  502  0.00000000000E+00  0.00000000000E+00  0.11494773777E+01  0.11494773777E+01  0.00000000000E+00 0. -1.
         13   -1    0    0    0    0 -0.00000000000E+00 -0.00000000000E+00 -0.10000000000E+04  0.10000000000E+04  0.00000000000E+00 0.  1.
    9000005    2    1    2  501    0 -0.20660121798E+01 -0.30299979708E+02 -0.72103097744E+03  0.72167486877E+03  0.25668259131E+01 0.  0.
         13    1    3    3    0    0 -0.14014189986E+01 -0.59192413740E+01 -0.14971017401E+03  0.14983369980E+03  0.00000000000E+00 0.  1.
          3    1    3    3  501    0 -0.66459318115E+00 -0.24380738334E+02 -0.57132080344E+03  0.57184116897E+03  0.00000000000E+00 0.  1.
         -3    1    1    2    0  502  0.20660121798E+01  0.30299979708E+02 -0.27781954518E+03  0.27947460861E+03  0.00000000000E+00 0. -1.
<mgrwt>
<rscale>  1 0.30000000E+03</rscale>
<asrwt>0</asrwt>
<pdfrwt beam="1">  1       21 0.41799266E-02 0.30000000E+03</pdfrwt>
<pdfrwt beam="2">0</pdfrwt>
<totfact> 0.39040980E+04</totfact>
</mgrwt>
</event>
<event>
 6    1  0.6513574E-002  0.3000000E+03  0.7818608E-02  0.1093470E+00
         21   -1    0    0  501  502  0.00000000000E+00  0.00000000000E+00  0.15272269981E+01  0.15272269981E+01  0.00000000000E+00 0. -1.
         13   -1    0    0    0    0 -0.00000000000E+00 -0.00000000000E+00 -0.10000000000E+04  0.10000000000E+04  0.00000000000E+00 0.  1.
    9000005    2    1    2  501    0 -0.31595889426E+02  0.21827963941E+02 -0.58214427343E+03  0.58343132916E+03  0.50398921095E+01 0.  0.
         13    1    3    3    0    0 -0.10754627727E+02  0.63970328439E+01 -0.15775376829E+03  0.15824928264E+03  0.00000000000E+00 0.  1.
          1    1    3    3  501    0 -0.20841261699E+02  0.15430931097E+02 -0.42439050515E+03  0.42518204652E+03  0.00000000000E+00 0.  1.
         -3    1    1    2    0  502  0.31595889426E+02 -0.21827963941E+02 -0.41632849957E+03  0.41809589784E+03  0.00000000000E+00 0. -1.
<mgrwt>
<rscale>  1 0.30000000E+03</rscale>
<asrwt>0</asrwt>
<pdfrwt beam="1">  1       21 0.55535644E-02 0.30000000E+03</pdfrwt>
<pdfrwt beam="2">0</pdfrwt>
<totfact> 0.24070644E+04</totfact>
</mgrwt>
</event>
<event>
 6    1  0.6513574E-002  0.3000000E+03  0.7818608E-02  0.1093470E+00
         21   -1    0    0  501  502  0.00000000000E+00  0.00000000000E+00  0.12887815860E+01  0.12887815860E+01  0.00000000000E+00 0. -1.
         13   -1    0    0    0    0 -0.00000000000E+00 -0.00000000000E+00 -0.10000000000E+04  0.10000000000E+04  0.00000000000E+00 0.  1.
    9000005    2    1    2  501    0 -0.55079294008E+01 -0.32330865027E+02 -0.29884237593E+03  0.30065191501E+03  0.30308795022E+01 0.  0.
         13    1    3    3    0    0 -0.26280659674E+01 -0.90166580871E+01 -0.77842696161E+02  0.78407220327E+02  0.00000000000E+00 0.  1.
          1    1    3    3  501    0 -0.28798634334E+01 -0.23314206940E+02 -0.22099967976E+03  0.22224469468E+03  0.00000000000E+00 0.  1.
         -1    1    1    2    0  502  0.55079294008E+01  0.32330865027E+02 -0.69986884249E+03  0.70063686658E+03  0.00000000000E+00 0. -1.
<mgrwt>
<rscale>  1 0.30000000E+03</rscale>
<asrwt>0</asrwt>
<pdfrwt beam="1">  1       21 0.46864884E-02 0.30000000E+03</pdfrwt>
<pdfrwt beam="2">0</pdfrwt>
<totfact> 0.32161366E+04</totfact>
</mgrwt>
</event>
<event>
 6    1  0.6513574E-002  0.3000000E+03  0.7818608E-02  0.1093470E+00
         21   -1    0    0  501  502  0.00000000000E+00  0.00000000000E+00  0.60682679075E+01  0.60682679075E+01  0.00000000000E+00 0. -1.
         13   -1    0    0    0    0 -0.00000000000E+00 -0.00000000000E+00 -0.10000000000E+04  0.10000000000E+04  0.00000000000E+00 0.  1.
    9000005    2    1    2  501    0  0.50670149817E+02  0.59060177970E+02 -0.47911030877E+03  0.48539882707E+03  0.31248443768E+01 0.  0.
         13    1    3    3    0    0  0.50389285755E+02  0.58940350440E+02 -0.47616330896E+03  0.48243604947E+03  0.00000000000E+00 0.  1.
          3    1    3    3  501    0  0.28086406160E+00  0.11982753070E+00 -0.29469998054E+01  0.29627776007E+01  0.00000000000E+00 0.  1.
         -1    1    1    2    0  502 -0.50670149817E+02 -0.59060177970E+02 -0.51482142332E+03  0.52066944083E+03  0.00000000000E+00 0. -1.
<mgrwt>
<rscale>  1 0.30000000E+03</rscale>
<asrwt>0</asrwt>
<pdfrwt beam="1">  1       21 0.22066475E-01 0.30000000E+03</pdfrwt>
<pdfrwt beam="2">0</pdfrwt>
<totfact> 0.19870153E+03</totfact>
</mgrwt>
</event>
<event>
 6    1  0.6513574E-002  0.3000000E+03  0.7818608E-02  0.1093470E+00
         21   -1    0    0  501  502  0.00000000000E+00  0.00000000000E+00  0.10330348308E+01  0.10330348308E+01  0.00000000000E+00 0. -1.
         13   -1    0    0    0    0 -0.00000000000E+00 -0.00000000000E+00 -0.10000000000E+04  0.10000000000E+04  0.00000000000E+00 0.  1.
    9000005    2    1    2  501    0 -0.26578872428E+02 -0.17458191199E+02 -0.56362432393E+03  0.56453052604E+03  0.33333775618E+01 0.  0.
         13    1    3    3    0    0 -0.13770999965E+02 -0.77270176016E+01 -0.30129964212E+03  0.30171314453E+03  0.00000000000E+00 0.  1.
          1    1    3    3  501    0 -0.12807872463E+02 -0.97311735972E+01 -0.26232468181E+03  0.26281738151E+03  0.00000000000E+00 0.  1.
         -3    1    1    2    0  502  0.26578872428E+02  0.17458191199E+02 -0.43534264124E+03  0.43650250879E+03  0.00000000000E+00 0. -1.
<mgrwt>
<rscale>  1 0.30000000E+03</rscale>
<asrwt>0</asrwt>
<pdfrwt beam="1">  1       21 0.37564982E-02 0.30000000E+03</pdfrwt>
<pdfrwt beam="2">0</pdfrwt>
<totfact> 0.46731204E+04</totfact>
</mgrwt>
</event>
<event>
 6    1  0.6513574E-002  0.3000000E+03  0.7818608E-02  0.1093470E+00
         21   -1    0    0  501  502  0.00000000000E+00  0.00000000000E+00  0.17213554956E+01  0.17213554956E+01  0.00000000000E+00 0. -1.
         13   -1    0    0    0    0 -0.00000000000E+00 -0.00000000000E+00 -0.10000000000E+04  0.10000000000E+04  0.00000000000E+00 0.  1.
    9000005    2    1    2  501    0  0.31469968817E+02 -0.16026180019E+02 -0.23879003862E+03  0.24141211587E+03  0.34539490428E+01 0.  0.
         13    1    3    3    0    0  0.34228505564E+01 -0.80441008372E+00 -0.19917795496E+02  0.20225764730E+02  0.00000000000E+00 0.  1.
          1    1    3    3  501    0  0.28047118261E+02 -0.15221769935E+02 -0.21887224312E+03  0.22118635114E+03  0.00000000000E+00 0.  1.
         -3    1    1    2    0  502 -0.31469968817E+02  0.16026180019E+02 -0.75948860589E+03  0.76030923962E+03  0.00000000000E+00 0. -1.
<mgrwt>
<rscale>  1 0.30000000E+03</rscale>
<asrwt>0</asrwt>
<pdfrwt beam="1">  1       21 0.62594877E-02 0.30000000E+03</pdfrwt>
<pdfrwt beam="2">0</pdfrwt>
<totfact> 0.19586565E+04</totfact>
</mgrwt>
</event>
<event>
 6    1  0.6513574E-002  0.3000000E+03  0.7818608E-02  0.1093470E+00
         21   -1    0    0  501  502  0.00000000000E+00  0.00000000000E+00  0.23636725873E+01  0.23636725873E+01  0.00000000000E+00 0. -1.
         13   -1    0    0    0    0 -0.00000000000E+00 -0.00000000000E+00 -0.10000000000E+04  0.10000000000E+04  0.00000000000E+00 0.  1.
    9000005    2    1    2  501    0  0.44760246012E+02  0.79573999714E+01 -0.32298944206E+03  0.32618675805E+03  0.29701190837E+01 0.  0.
         13    1    3    3    0    0  0.55570740099E+01  0.93405510591E+00 -0.47565334963E+02  0.47897960506E+02  0.00000000000E+00 0.  1.
          1    1    3    3  501    0  0.39203172002E+02  0.70233448655E+01 -0.27542410710E+03  0.27828879754E+03  0.00000000000E+00 0.  1.
         -1    1    1    2    0  502 -0.44760246012E+02 -0.79573999714E+01 -0.67464688535E+03  0.67617691454E+03  0.00000000000E+00 0. -1.
<mgrwt>
<rscale>  1 0.30000000E+03</rscale>
<asrwt>0</asrwt>
<pdfrwt beam="1">  1       21 0.85951912E-02 0.30000000E+03</pdfrwt>
<pdfrwt beam="2">0</pdfrwt>
<totfact> 0.11257899E+04</totfact>
</mgrwt>
</event>
<event>
 6    1  0.6513574E-002  0.3000000E+03  0.7818608E-02  0.1093470E+00
         21   -1    0    0  501  502  0.00000000000E+00  0.00000000000E+00  0.32643037081E+01  0.32643037081E+01  0.00000000000E+00 0. -1.
         13   -1    0    0    0    0 -0.00000000000E+00 -0.00000000000E+00 -0.10000000000E+04  0.10000000000E+04  0.00000000000E+00 0.  1.
    9000005    2    1    2  501    0 -0.31985149461E+02  0.47168482575E+02 -0.52709657631E+03  0.53017993644E+03  0.34711256313E+01 0.  0.
         13    1    3    3    0    0 -0.12937073433E+02  0.16466858988E+02 -0.20095336457E+03  0.20204153050E+03  0.00000000000E+00 0.  1.
          1    1    3    3  501    0 -0.19048076028E+02  0.30701623587E+02 -0.32614321173E+03  0.32813840594E+03  0.00000000000E+00 0.  1.
         -3    1    1    2    0  502  0.31985149461E+02 -0.47168482575E+02 -0.46963911998E+03  0.47308436727E+03  0.00000000000E+00 0. -1.
<mgrwt>
<rscale>  1 0.30000000E+03</rscale>
<asrwt>0</asrwt>
<pdfrwt beam="1">  1       21 0.11870220E-01 0.30000000E+03</pdfrwt>
<pdfrwt beam="2">0</pdfrwt>
<totfact> 0.63205584E+03</totfact>
</mgrwt>
</event>
<event>
 6    1  0.6513574E-002  0.3000000E+03  0.7818608E-02  0.1093470E+00
         21   -1    0    0  501  502  0.00000000000E+00  0.00000000000E+00  0.17241630978E+01  0.17241630978E+01  0.00000000000E+00 0. -1.
         13   -1    0    0    0    0 -0.00000000000E+00 -0.00000000000E+00 -0.10000000000E+04  0.10000000000E+04  0.00000000000E+00 0.  1.
    9000005    2    1    2  501    0 -0.79300991205E+01 -0.35563451183E+02 -0.73835973911E+03  0.73926650285E+03  0.34946191391E+01 0.  0.
         13    1    3    3    0    0 -0.64890954173E+01 -0.32076565122E+02 -0.67746236564E+03  0.67825236546E+03  0.00000000000E+00 0.  1.
          1    1    3    3  501    0 -0.14410037032E+01 -0.34868860613E+01 -0.60897373474E+02  0.61014137396E+02  0.00000000000E+00 0.  1.
         -1    1    1    2    0  502  0.79300991205E+01  0.35563451183E+02 -0.25991609779E+03  0.26245766024E+03  0.00000000000E+00 0. -1.
<mgrwt>
<rscale>  1 0.30000000E+03</rscale>
<asrwt>0</asrwt>
<pdfrwt beam="1">  1       21 0.62696972E-02 0.30000000E+03</pdfrwt>
<pdfrwt beam="2">0</pdfrwt>
<totfact> 0.19531486E+04</totfact>
</mgrwt>
</event>
<event>
 6    1  0.6513574E-002  0.3000000E+03  0.7818608E-02  0.1093470E+00
         21   -1    0    0  501  502  0.00000000000E+00  0.00000000000E+00  0.16713717991E+01  0.16713717991E+01  0.00000000000E+00 0. -1.
         13   -1    0    0    0    0 -0.00000000000E+00 -0.00000000000E+00 -0.10000000000E+04  0.10000000000E+04  0.00000000000E+00 0.  1.
    9000005    2    1    2  501    0  0.15883897255E+01  0.40775108759E+02 -0.51293659724E+03  0.51456711582E+03  0.31986583269E+01 0.  0.
         13    1    3    3    0    0  0.49056806933E+00  0.34985096304E+02 -0.42965725502E+03  0.43107952215E+03  0.00000000000E+00 0.  1.
          1    1    3    3  501    0  0.10978216562E+01  0.57900124549E+01 -0.83279342220E+02  0.83487593673E+02  0.00000000000E+00 0.  1.
         -3    1    1    2    0  502 -0.15883897255E+01 -0.40775108759E+02 -0.48539203096E+03  0.48710425598E+03  0.00000000000E+00 0. -1.
<mgrwt>
<rscale>  1 0.30000000E+03</rscale>
<asrwt>0</asrwt>
<pdfrwt beam="1">  1       21 0.60777284E-02 0.30000000E+03</pdfrwt>
<pdfrwt beam="2">0</pdfrwt>
<totfact> 0.20608934E+04</totfact>
</mgrwt>
</event>
<event>
 6    1  0.6513574E-002  0.3000000E+03  0.7818608E-02  0.1093470E+00
         21   -1    0    0  501  502  0.00000000000E+00  0.00000000000E+00  0.14187169240E+01  0.14187169240E+01  0.00000000000E+00 0. -1.
         13   -1    0    0    0    0 -0.00000000000E+00 -0.00000000000E+00 -0.10000000000E+04  0.10000000000E+04  0.00000000000E+00 0.  1.
    9000005    2    1    2  501    0 -0.34386537592E+02 -0.13452092310E+02 -0.40538945202E+03  0.40707879635E+03  0.30242147077E+01 0.  0.
         13    1    3    3    0    0 -0.67888653974E+01 -0.18201021658E+01 -0.67685362595E+02  0.68049318695E+02  0.00000000000E+00 0.  1.
          1    1    3    3  501    0 -0.27597672194E+02 -0.11631990144E+02 -0.33770408942E+03  0.33902947765E+03  0.00000000000E+00 0.  1.
         -1    1    1    2    0  502  0.34386537592E+02  0.13452092310E+02 -0.59319183106E+03  0.59433992058E+03  0.00000000000E+00 0. -1.
<mgrwt>
<rscale>  1 0.30000000E+03</rscale>
<asrwt>0</asrwt>
<pdfrwt beam="1">  1       21 0.51589815E-02 0.30000000E+03</pdfrwt>
<pdfrwt beam="2">0</pdfrwt>
<totfact> 0.27306746E+04</totfact>
</mgrwt>
</event>
<event>
 6    1  0.6513574E-002  0.3000000E+03  0.7818608E-02  0.1093470E+00
         21   -1    0    0  501  502  0.00000000000E+00  0.00000000000E+00  0.13269265930E+02  0.13269265930E+02  0.00000000000E+00 0. -1.
         13   -1    0    0    0    0 -0.00000000000E+00 -0.00000000000E+00 -0.10000000000E+04  0.10000000000E+04  0.00000000000E+00 0.  1.
    9000005    2    1    2  501    0  0.11043479518E+03 -0.30199031892E+02 -0.54749930290E+03  0.55936170305E+03  0.47119688057E+01 0.  0.
         13    1    3    3    0    0  0.61463981079E+02 -0.19204272025E+02 -0.30938308030E+03  0.31601347346E+03  0.00000000000E+00 0.  1.
          3    1    3    3  501    0  0.48970814097E+02 -0.10994759867E+02 -0.23811622260E+03  0.24334822959E+03  0.00000000000E+00 0.  1.
         -3    1    1    2    0  502 -0.11043479518E+03  0.30199031892E+02 -0.43923143117E+03  0.45390756288E+03  0.00000000000E+00 0. -1.
<mgrwt>
<rscale>  1 0.30000000E+03</rscale>
<asrwt>0</asrwt>
<pdfrwt beam="1">  1       21 0.48251978E-01 0.30000000E+03</pdfrwt>
<pdfrwt beam="2">0</pdfrwt>
<totfact> 0.40574759E+02</totfact>
</mgrwt>
</event>
<event>
 6    1  0.6513574E-002  0.3000000E+03  0.7818608E-02  0.1093470E+00
         21   -1    0    0  501  502  0.00000000000E+00  0.00000000000E+00  0.13151885604E+01  0.13151885604E+01  0.00000000000E+00 0. -1.
         13   -1    0    0    0    0 -0.00000000000E+00 -0.00000000000E+00 -0.10000000000E+04  0.10000000000E+04  0.00000000000E+00 0.  1.
    9000005    2    1    2  501    0  0.23686974717E+02 -0.21276954953E+02 -0.26294455660E+03  0.26488630254E+03  0.33364413727E+01 0.  0.
         13    1    3    3    0    0  0.20003047914E+02 -0.17364245319E+02 -0.22745252068E+03  0.22898971179E+03  0.00000000000E+00 0.  1.
          3    1    3    3  501    0  0.36839268030E+01 -0.39127096332E+01 -0.35492035927E+02  0.35896590751E+02  0.00000000000E+00 0.  1.
         -1    1    1    2    0  502 -0.23686974717E+02  0.21276954953E+02 -0.73574025484E+03  0.73642888602E+03  0.00000000000E+00 0. -1.
<mgrwt>
<rscale>  1 0.30000000E+03</rscale>
<asrwt>0</asrwt>
<pdfrwt beam="1">  1       21 0.47825139E-02 0.30000000E+03</pdfrwt>
<pdfrwt beam="2">0</pdfrwt>
<totfact> 0.31070884E+04</totfact>
</mgrwt>
</event>
<event>
 6    1  0.6513574E-002  0.3000000E+03  0.7818608E-02  0.1093470E+00
         21   -1    0    0  501  502  0.00000000000E+00  0.00000000000E+00  0.26235793036E+01  0.26235793036E+01  0.00000000000E+00 0. -1.
         13   -1    0    0    0    0 -0.00000000000E+00 -0.00000000000E+00 -0.10000000000E+04  0.10000000000E+04  0.00000000000E+00 0.  1.
    9000005    2    1    2  501    0 -0.28204603408E+02  0.15305684249E+02 -0.88926560159E+03  0.88985074201E+03  0.33569715580E+01 0.  0.
         13    1    3    3    0    0 -0.19438499290E+02  0.11065183068E+02 -0.57709851990E+03  0.57753181315E+03  0.00000000000E+00 0.  1.
          1    1    3    3  501    0 -0.87661041183E+01  0.42405011805E+01 -0.31216708169E+03  0.31231892886E+03  0.00000000000E+00 0.  1.
         -3    1    1    2    0  502  0.28204603408E+02 -0.15305684249E+02 -0.10811081910E+03  0.11277283729E+03  0.00000000000E+00 0. -1.
<mgrwt>
<rscale>  1 0.30000000E+03</rscale>
<asrwt>0</asrwt>
<pdfrwt beam="1">  1       21 0.95403085E-02 0.30000000E+03</pdfrwt>
<pdfrwt beam="2">0</pdfrwt>
<totfact> 0.93568677E+03</totfact>
</mgrwt>
</event>
<event>
 6    1  0.6513574E-002  0.3000000E+03  0.7818608E-02  0.1093470E+00
         21   -1    0    0  501  502  0.00000000000E+00  0.00000000000E+00  0.15572386594E+01  0.15572386594E+01  0.00000000000E+00 0. -1.
         13   -1    0    0    0    0 -0.00000000000E+00 -0.00000000000E+00 -0.10000000000E+04  0.10000000000E+04  0.00000000000E+00 0.  1.
    9000005    2    1    2  501    0  0.38129635359E+02  0.59832673789E+01 -0.59590312242E+03  0.59717149524E+03  0.48574512174E+01 0.  0.
         13    1    3    3    0    0  0.25025249626E+02  0.61790815998E+01 -0.40354964233E+03  0.40437205393E+03  0.00000000000E+00 0.  1.
          3    1    3    3  501    0  0.13104385733E+02 -0.19581422091E+00 -0.19235348009E+03  0.19279944131E+03  0.00000000000E+00 0.  1.
         -3    1    1    2    0  502 -0.38129635359E+02 -0.59832673789E+01 -0.40253963892E+03  0.40438574342E+03  0.00000000000E+00 0. -1.
<mgrwt>
<rscale>  1 0.30000000E+03</rscale>
<asrwt>0</asrwt>
<pdfrwt beam="1">  1       21 0.56626980E-02 0.30000000E+03</pdfrwt>
<pdfrwt beam="2">0</pdfrwt>
<totfact> 0.23279536E+04</totfact>
</mgrwt>
</event>
<event>
 6    1  0.6513574E-002  0.3000000E+03  0.7818608E-02  0.1093470E+00
         21   -1    0    0  501  502  0.00000000000E+00  0.00000000000E+00  0.37872134641E+01  0.37872134641E+01  0.00000000000E+00 0. -1.
         13   -1    0    0    0    0 -0.00000000000E+00 -0.00000000000E+00 -0.10000000000E+04  0.10000000000E+04  0.00000000000E+00 0.  1.
    9000005    2    1    2  501    0  0.35678684896E+02  0.24667308988E+02 -0.14325331817E+03  0.14972556501E+03  0.38453818580E+01 0.  0.
         13    1    3    3    0    0  0.46284235253E+01  0.19144091351E+01 -0.18720305134E+02  0.19378779398E+02  0.00000000000E+00 0.  1.
          3    1    3    3  501    0  0.31050261370E+02  0.22752899853E+02 -0.12453301304E+03  0.13034678561E+03  0.00000000000E+00 0.  1.
         -3    1    1    2    0  502 -0.35678684896E+02 -0.24667308988E+02 -0.85295946837E+03  0.85406164846E+03  0.00000000000E+00 0. -1.
<mgrwt>
<rscale>  1 0.30000000E+03</rscale>
<asrwt>0</asrwt>
<pdfrwt beam="1">  1       21 0.13771714E-01 0.30000000E+03</pdfrwt>
<pdfrwt beam="2">0</pdfrwt>
<totfact> 0.48199894E+03</totfact>
</mgrwt>
</event>
<event>
 6    1  0.6513574E-002  0.3000000E+03  0.7818608E-02  0.1093470E+00
         21   -1    0    0  501  502  0.00000000000E+00  0.00000000000E+00  0.18231636086E+01  0.18231636086E+01  0.00000000000E+00 0. -1.
         13   -1    0    0    0    0 -0.00000000000E+00 -0.00000000000E+00 -0.10000000000E+04  0.10000000000E+04  0.00000000000E+00 0.  1.
    9000005    2    1    2  501    0 -0.25056555650E+02  0.28428119614E+02 -0.27029897921E+03  0.27295955227E+03  0.30643180244E+01 0.  0.
         13    1    3    3    0    0 -0.20624684101E-01  0.30034021176E+00 -0.11323034738E+01  0.11716402081E+01  0.00000000000E+00 0.  1.
          3    1    3    3  501    0 -0.25035930966E+02  0.28127779402E+02 -0.26916667574E+03  0.27178791206E+03  0.00000000000E+00 0.  1.
         -1    1    1    2    0  502  0.25056555650E+02 -0.28428119614E+02 -0.72787785718E+03  0.72886361134E+03  0.00000000000E+00 0. -1.
<mgrwt>
<rscale>  1 0.30000000E+03</rscale>
<asrwt>0</asrwt>
<pdfrwt beam="1">  1       21 0.66296998E-02 0.30000000E+03</pdfrwt>
<pdfrwt beam="2">0</pdfrwt>
<totfact> 0.17732583E+04</totfact>
</mgrwt>
</event>
<event>
 6    1  0.6513574E-002  0.3000000E+03  0.7818608E-02  0.1093470E+00
         21   -1    0    0  501  502  0.00000000000E+00  0.00000000000E+00  0.12284785702E+01  0.12284785702E+01  0.00000000000E+00 0. -1.
         13   -1    0    0    0    0 -0.00000000000E+00 -0.00000000000E+00 -0.10000000000E+04  0.10000000000E+04  0.00000000000E+00 0.  1.
    9000005    2    1    2  501    0  0.28688780412E+02 -0.17147653307E+02 -0.64438616269E+03  0.64527051669E+03  0.48399287133E+01 0.  0.
         13    1    3    3    0    0  0.13146622606E+00  0.26901843658E+00 -0.38841517502E+01  0.38956756932E+01  0.00000000000E+00 0.  1.
          1    1    3    3  501    0  0.28557314186E+02 -0.17416671744E+02 -0.64050201094E+03  0.64137484100E+03  0.00000000000E+00 0.  1.
         -3    1    1    2    0  502 -0.28688780412E+02  0.17147653307E+02 -0.35438535874E+03  0.35595796188E+03  0.00000000000E+00 0. -1.
<mgrwt>
<rscale>  1 0.30000000E+03</rscale>
<asrwt>0</asrwt>
<pdfrwt beam="1">  1       21 0.44672042E-02 0.30000000E+03</pdfrwt>
<pdfrwt beam="2">0</pdfrwt>
<totfact> 0.34888431E+04</totfact>
</mgrwt>
</event>
<event>
 6    1  0.6513574E-002  0.3000000E+03  0.7818608E-02  0.1093470E+00
         21   -1    0    0  501  502  0.00000000000E+00  0.00000000000E+00  0.22807470066E+01  0.22807470066E+01  0.00000000000E+00 0. -1.
         13   -1    0    0    0    0 -0.00000000000E+00 -0.00000000000E+00 -0.10000000000E+04  0.10000000000E+04  0.00000000000E+00 0.  1.
    9000005    2    1    2  501    0 -0.12871896887E+02  0.43321818891E+02 -0.34319092463E+03  0.34619401619E+03  0.52745025252E+01 0.  0.
         13    1    3    3    0    0 -0.73066617747E+01  0.26741128366E+02 -0.19094835583E+03  0.19295012269E+03  0.00000000000E+00 0.  1.
          3    1    3    3  501    0 -0.55652351126E+01  0.16580690526E+02 -0.15224256880E+03  0.15324389350E+03  0.00000000000E+00 0.  1.
         -3    1    1    2    0  502  0.12871896887E+02 -0.43321818891E+02 -0.65452832836E+03  0.65608673082E+03  0.00000000000E+00 0. -1.
<mgrwt>
<rscale>  1 0.30000000E+03</rscale>
<asrwt>0</asrwt>
<pdfrwt beam="1">  1       21 0.82936430E-02 0.30000000E+03</pdfrwt>
<pdfrwt beam="2">0</pdfrwt>
<totfact> 0.11989326E+04</totfact>
</mgrwt>
</event>
<event>
 6    1  0.6513574E-002  0.3000000E+03  0.7818608E-02  0.1093470E+00
         21   -1    0    0  501  502  0.00000000000E+00  0.00000000000E+00  0.11123631630E+01  0.11123631630E+01  0.00000000000E+00 0. -1.
         13   -1    0    0    0    0 -0.00000000000E+00 -0.00000000000E+00 -0.10000000000E+04  0.10000000000E+04  0.00000000000E+00 0.  1.
    9000005    2    1    2  501    0  0.27290198136E+00  0.31455353323E+02 -0.66413931609E+03  0.66488929439E+03  0.26886609441E+01 0.  0.
         13    1    3    3    0    0 -0.46656908272E+00  0.32960560011E+01 -0.85380772778E+02  0.85445643728E+02  0.00000000000E+00 0.  1.
          1    1    3    3  501    0  0.73947106408E+00  0.28159297322E+02 -0.57875854331E+03  0.57944365066E+03  0.00000000000E+00 0.  1.
         -1    1    1    2    0  502 -0.27290198136E+00 -0.31455353323E+02 -0.33474832075E+03  0.33622306877E+03  0.00000000000E+00 0. -1.
<mgrwt>
<rscale>  1 0.30000000E+03</rscale>
<asrwt>0</asrwt>
<pdfrwt beam="1">  1       21 0.40449655E-02 0.30000000E+03</pdfrwt>
<pdfrwt beam="2">0</pdfrwt>
<totfact> 0.41262955E+04</totfact>
</mgrwt>
</event>
<event>
 6    1  0.6513574E-002  0.3000000E+03  0.7818608E-02  0.1093470E+00
         21   -1    0    0  501  502  0.00000000000E+00  0.00000000000E+00  0.12514254094E+01  0.12514254094E+01  0.00000000000E+00 0. -1.
         13   -1    0    0    0    0 -0.00000000000E+00 -0.00000000000E+00 -0.10000000000E+04  0.10000000000E+04  0.00000000000E+00 0.  1.
    9000005    2    1    2  501    0  0.16582718705E+02  0.30524395057E+02 -0.58324028285E+03  0.58429355492E+03  0.47964085825E+01 0.  0.
         13    1    3    3    0    0  0.30686302430E+01  0.32618061408E+01 -0.95612401839E+02  0.95717225494E+02  0.00000000000E+00 0.  1.
          3    1    3    3  501    0  0.13514088462E+02  0.27262588916E+02 -0.48762788101E+03  0.48857632943E+03  0.00000000000E+00 0.  1.
         -1    1    1    2    0  502 -0.16582718705E+02 -0.30524395057E+02 -0.41550829174E+03  0.41695787049E+03  0.00000000000E+00 0. -1.
<mgrwt>
<rscale>  1 0.30000000E+03</rscale>
<asrwt>0</asrwt>
<pdfrwt beam="1">  1       21 0.45506474E-02 0.30000000E+03</pdfrwt>
<pdfrwt beam="2">0</pdfrwt>
<totfact> 0.33809645E+04</totfact>
</mgrwt>
</event>
<event>
 6    1  0.6513574E-002  0.3000000E+03  0.7818608E-02  0.1093470E+00
         21   -1    0    0  501  502  0.00000000000E+00  0.00000000000E+00  0.22997568283E+01  0.22997568283E+01  0.00000000000E+00 0. -1.
         13   -1    0    0    0    0 -0.00000000000E+00 -0.00000000000E+00 -0.10000000000E+04  0.10000000000E+04  0.00000000000E+00 0.  1.
    9000005    2    1    2  501    0 -0.11215732041E+02 -0.44286892501E+02 -0.34690953969E+03  0.34990749658E+03  0.13805589005E+01 0.  0.
         13    1    3    3    0    0 -0.96329628358E+01 -0.37880951909E+02 -0.29298603981E+03  0.29558176536E+03  0.00000000000E+00 0.  1.
          3    1    3    3  501    0 -0.15827692053E+01 -0.64059405916E+01 -0.53923499883E+02  0.54325731222E+02  0.00000000000E+00 0.  1.
         -3    1    1    2    0  502  0.11215732041E+02  0.44286892501E+02 -0.65079070348E+03  0.65239226025E+03  0.00000000000E+00 0. -1.
<mgrwt>
<rscale>  1 0.30000000E+03</rscale>
<asrwt>0</asrwt>
<pdfrwt beam="1">  1       21 0.83627697E-02 0.30000000E+03</pdfrwt>
<pdfrwt beam="2">0</pdfrwt>
<totfact> 0.11815368E+04</totfact>
</mgrwt>
</event>
<event>
 6    1  0.6513574E-002  0.3000000E+03  0.7818608E-02  0.1093470E+00
         21   -1    0    0  501  502  0.00000000000E+00  0.00000000000E+00  0.95471290805E+00  0.95471290805E+00  0.00000000000E+00 0. -1.
         13   -1    0    0    0    0 -0.00000000000E+00 -0.00000000000E+00 -0.10000000000E+04  0.10000000000E+04  0.00000000000E+00 0.  1.
    9000005    2    1    2  501    0 -0.12564039312E+02  0.27977962574E+02 -0.54511287963E+03  0.54598740418E+03  0.36840878365E+01 0.  0.
         13    1    3    3    0    0 -0.56541572350E+01  0.16718567930E+02 -0.32370288708E+03  0.32418365028E+03  0.00000000000E+00 0.  1.
          1    1    3    3  501    0 -0.69098820772E+01  0.11259394644E+02 -0.22140999256E+03  0.22180375390E+03  0.00000000000E+00 0.  1.
         -1    1    1    2    0  502  0.12564039312E+02 -0.27977962574E+02 -0.45393240746E+03  0.45496730873E+03  0.00000000000E+00 0. -1.
<mgrwt>
<rscale>  1 0.30000000E+03</rscale>
<asrwt>0</asrwt>
<pdfrwt beam="1">  1       21 0.34716906E-02 0.30000000E+03</pdfrwt>
<pdfrwt beam="2">0</pdfrwt>
<totfact> 0.53337008E+04</totfact>
</mgrwt>
</event>
<event>
 6    1  0.6513574E-002  0.3000000E+03  0.7818608E-02  0.1093470E+00
         21   -1    0    0  501  502  0.00000000000E+00  0.00000000000E+00  0.22925235289E+01  0.22925235289E+01  0.00000000000E+00 0. -1.
         13   -1    0    0    0    0 -0.00000000000E+00 -0.00000000000E+00 -0.10000000000E+04  0.10000000000E+04  0.00000000000E+00 0.  1.
    9000005    2    1    2  501    0  0.38134395069E+02  0.18521029352E+02 -0.26822272372E+03  0.27157693925E+03  0.36529160383E+01 0.  0.
         13    1    3    3    0    0  0.59007964353E+01  0.34101892345E+01 -0.35687441060E+02  0.36332385534E+02  0.00000000000E+00 0.  1.
          1    1    3    3  501    0  0.32233598634E+02  0.15110840118E+02 -0.23253528266E+03  0.23524455371E+03  0.00000000000E+00 0.  1.
         -1    1    1    2    0  502 -0.38134395069E+02 -0.18521029352E+02 -0.72948475275E+03  0.73071558428E+03  0.00000000000E+00 0. -1.
<mgrwt>
<rscale>  1 0.30000000E+03</rscale>
<asrwt>0</asrwt>
<pdfrwt beam="1">  1       21 0.83364668E-02 0.30000000E+03</pdfrwt>
<pdfrwt beam="2">0</pdfrwt>
<totfact> 0.11881102E+04</totfact>
</mgrwt>
</event>
<event>
 6    1  0.6513574E-002  0.3000000E+03  0.7818608E-02  0.1093470E+00
         21   -1    0    0  501  502  0.00000000000E+00  0.00000000000E+00  0.11050446410E+01  0.11050446410E+01  0.00000000000E+00 0. -1.
         13   -1    0    0    0    0 -0.00000000000E+00 -0.00000000000E+00 -0.10000000000E+04  0.10000000000E+04  0.00000000000E+00 0.  1.
    9000005    2    1    2  501    0 -0.30584857507E+02 -0.96969232105E+01 -0.62629357182E+03  0.62712475793E+03  0.35156913180E+01 0.  0.
         13    1    3    3    0    0 -0.11159593450E+01 -0.30083077674E+00 -0.39133415820E+02  0.39150480178E+02  0.00000000000E+00 0.  1.
          3    1    3    3  501    0 -0.29468898162E+02 -0.93960924337E+01 -0.58716015600E+03  0.58797427775E+03  0.00000000000E+00 0.  1.
         -3    1    1    2    0  502  0.30584857507E+02  0.96969232105E+01 -0.37260138354E+03  0.37398028671E+03  0.00000000000E+00 0. -1.
<mgrwt>
<rscale>  1 0.30000000E+03</rscale>
<asrwt>0</asrwt>
<pdfrwt beam="1">  1       21 0.40183526E-02 0.30000000E+03</pdfrwt>
<pdfrwt beam="2">0</pdfrwt>
<totfact> 0.41724393E+04</totfact>
</mgrwt>
</event>
<event>
 6    1  0.6513574E-002  0.3000000E+03  0.7818608E-02  0.1093470E+00
         21   -1    0    0  501  502  0.00000000000E+00  0.00000000000E+00  0.17191882954E+01  0.17191882954E+01  0.00000000000E+00 0. -1.
         13   -1    0    0    0    0 -0.00000000000E+00 -0.00000000000E+00 -0.10000000000E+04  0.10000000000E+04  0.00000000000E+00 0.  1.
    9000005    2    1    2  501    0  0.76397164150E+00 -0.41376097547E+02 -0.48824894528E+03  0.49001119552E+03  0.33725461983E+01 0.  0.
         13    1    3    3    0    0  0.12066900800E+01 -0.40452780996E+02 -0.47859890194E+03  0.48030697739E+03  0.00000000000E+00 0.  1.
          3    1    3    3  501    0 -0.44271843848E+00 -0.92331655047E+00 -0.96500433376E+01  0.97042181285E+01  0.00000000000E+00 0.  1.
         -1    1    1    2    0  502 -0.76397164150E+00  0.41376097547E+02 -0.51003186643E+03  0.51170799278E+03  0.00000000000E+00 0. -1.
<mgrwt>
<rscale>  1 0.30000000E+03</rscale>
<asrwt>0</asrwt>
<pdfrwt beam="1">  1       21 0.62516070E-02 0.30000000E+03</pdfrwt>
<pdfrwt beam="2">0</pdfrwt>
<totfact> 0.19629246E+04</totfact>
</mgrwt>
</event>
<event>
 6    1  0.6513574E-002  0.3000000E+03  0.7818608E-02  0.1093470E+00
         21   -1    0    0  501  502  0.00000000000E+00  0.00000000000E+00  0.39341329221E+01  0.39341329221E+01  0.00000000000E+00 0. -1.
         13   -1    0    0    0    0 -0.00000000000E+00 -0.00000000000E+00 -0.10000000000E+04  0.10000000000E+04  0.00000000000E+00 0.  1.
    9000005    2    1    2  501    0 -0.17220797505E+02  0.59730430808E+02 -0.43406301934E+03  0.43850378257E+03  0.32530509367E+01 0.  0.
         13    1    3    3    0    0 -0.12850834166E+01  0.81764093447E+01 -0.54999944356E+02  0.55619232181E+02  0.00000000000E+00 0.  1.
          3    1    3    3  501    0 -0.15935714088E+02  0.51554021464E+02 -0.37906307498E+03  0.38288455039E+03  0.00000000000E+00 0.  1.
         -3    1    1    2    0  502  0.17220797505E+02 -0.59730430808E+02 -0.56200284774E+03  0.56543035035E+03  0.00000000000E+00 0. -1.
<mgrwt>
<rscale>  1 0.30000000E+03</rscale>
<asrwt>0</asrwt>
<pdfrwt beam="1">  1       21 0.14305968E-01 0.30000000E+03</pdfrwt>
<pdfrwt beam="2">0</pdfrwt>
<totfact> 0.44943632E+03</totfact>
</mgrwt>
</event>
<event>
 6    1  0.6513574E-002  0.3000000E+03  0.7818608E-02  0.1093470E+00
         21   -1    0    0  501  502  0.00000000000E+00  0.00000000000E+00  0.11615806843E+01  0.11615806843E+01  0.00000000000E+00 0. -1.
         13   -1    0    0    0    0 -0.00000000000E+00 -0.00000000000E+00 -0.10000000000E+04  0.10000000000E+04  0.00000000000E+00 0.  1.
    9000005    2    1    2  501    0 -0.24176409880E+02 -0.20426536581E+02 -0.31741159511E+03  0.31900011964E+03  0.30353626922E+01 0.  0.
         13    1    3    3    0    0 -0.22515084789E+02 -0.18302547187E+02 -0.29620494068E+03  0.29762271277E+03  0.00000000000E+00 0.  1.
          1    1    3    3  501    0 -0.16613250915E+01 -0.21239893942E+01 -0.21206654433E+02  0.21377406864E+02  0.00000000000E+00 0.  1.
         -1    1    1    2    0  502  0.24176409880E+02  0.20426536581E+02 -0.68142682421E+03  0.68216146105E+03  0.00000000000E+00 0. -1.
<mgrwt>
<rscale>  1 0.30000000E+03</rscale>
<asrwt>0</asrwt>
<pdfrwt beam="1">  1       21 0.42239387E-02 0.30000000E+03</pdfrwt>
<pdfrwt beam="2">0</pdfrwt>
<totfact> 0.38356499E+04</totfact>
</mgrwt>
</event>
<event>
 6    1  0.6513574E-002  0.3000000E+03  0.7818608E-02  0.1093470E+00
         21   -1    0    0  501  502  0.00000000000E+00  0.00000000000E+00  0.10835485758E+01  0.10835485758E+01  0.00000000000E+00 0. -1.
         13   -1    0    0    0    0 -0.00000000000E+00 -0.00000000000E+00 -0.10000000000E+04  0.10000000000E+04  0.00000000000E+00 0.  1.
    9000005    2    1    2  501    0 -0.25598097112E+02  0.15839520352E+02 -0.69998767153E+03  0.70064292478E+03  0.34080437972E+01 0.  0.
         13    1    3    3    0    0 -0.48595745758E+01  0.35544621503E+01 -0.11253292158E+03  0.11269386898E+03  0.00000000000E+00 0.  1.
          3    1    3    3  501    0 -0.20738522536E+02  0.12285058201E+02 -0.58745474995E+03  0.58794905580E+03  0.00000000000E+00 0.  1.
         -3    1    1    2    0  502  0.25598097112E+02 -0.15839520352E+02 -0.29892877989E+03  0.30044062380E+03  0.00000000000E+00 0. -1.
<mgrwt>
<rscale>  1 0.30000000E+03</rscale>
<asrwt>0</asrwt>
<pdfrwt beam="1">  1       21 0.39401849E-02 0.30000000E+03</pdfrwt>
<pdfrwt beam="2">0</pdfrwt>
<totfact> 0.43127425E+04</totfact>
</mgrwt>
</event>
<event>
 6    1  0.6513574E-002  0.3000000E+03  0.7818608E-02  0.1093470E+00
         21   -1    0    0  501  502  0.00000000000E+00  0.00000000000E+00  0.44212856734E+01  0.44212856734E+01  0.00000000000E+00 0. -1.
         13   -1    0    0    0    0 -0.00000000000E+00 -0.00000000000E+00 -0.10000000000E+04  0.10000000000E+04  0.00000000000E+00 0.  1.
    9000005    2    1    2  501    0  0.18129189528E+02  0.63798539488E+02 -0.52744460294E+03  0.53161216203E+03  0.38419392844E+01 0.  0.
         13    1    3    3    0    0  0.10317260819E+02  0.42406010158E+02 -0.35245418965E+03  0.35514598600E+03  0.00000000000E+00 0.  1.
          3    1    3    3  501    0  0.78119287082E+01  0.21392529330E+02 -0.17499041329E+03  0.17646617603E+03  0.00000000000E+00 0.  1.
         -1    1    1    2    0  502 -0.18129189528E+02 -0.63798539488E+02 -0.46813411139E+03  0.47280912364E+03  0.00000000000E+00 0. -1.
<mgrwt>
<rscale>  1 0.30000000E+03</rscale>
<asrwt>0</asrwt>
<pdfrwt beam="1">  1       21 0.16077436E-01 0.30000000E+03</pdfrwt>
<pdfrwt beam="2">0</pdfrwt>
<totfact> 0.36199354E+03</totfact>
</mgrwt>
</event>
<event>
 6    1  0.6513574E-002  0.3000000E+03  0.7818608E-02  0.1093470E+00
         21   -1    0    0  501  502  0.00000000000E+00  0.00000000000E+00  0.19948022869E+01  0.19948022869E+01  0.00000000000E+00 0. -1.
         13   -1    0    0    0    0 -0.00000000000E+00 -0.00000000000E+00 -0.10000000000E+04  0.10000000000E+04  0.00000000000E+00 0.  1.
    9000005    2    1    2  501    0 -0.32358024884E+02 -0.17093469274E+02 -0.21308618178E+03  0.21622314968E+03  0.27388183586E+01 0.  0.
         13    1    3    3    0    0 -0.19734355585E+02 -0.91604969041E+01 -0.12199728207E+03  0.12392213816E+03  0.00000000000E+00 0.  1.
          1    1    3    3  501    0 -0.12623669299E+02 -0.79329723696E+01 -0.91088899707E+02  0.92301011516E+02  0.00000000000E+00 0.  1.
         -3    1    1    2    0  502  0.32358024884E+02  0.17093469274E+02 -0.78491901594E+03  0.78577165261E+03  0.00000000000E+00 0. -1.
<mgrwt>
<rscale>  1 0.30000000E+03</rscale>
<asrwt>0</asrwt>
<pdfrwt beam="1">  1       21 0.72538418E-02 0.30000000E+03</pdfrwt>
<pdfrwt beam="2">0</pdfrwt>
<totfact> 0.15163971E+04</totfact>
</mgrwt>
</event>
<event>
 6    1  0.6513574E-002  0.3000000E+03  0.7818608E-02  0.1093470E+00
         21   -1    0    0  501  502  0.00000000000E+00  0.00000000000E+00  0.12915396462E+01  0.12915396462E+01  0.00000000000E+00 0. -1.
         13   -1    0    0    0    0 -0.00000000000E+00 -0.00000000000E+00 -0.10000000000E+04  0.10000000000E+04  0.00000000000E+00 0.  1.
    9000005    2    1    2  501    0  0.19376458196E+01  0.33899440358E+02 -0.33896575481E+03  0.34067564213E+03  0.30304589548E+01 0.  0.
         13    1    3    3    0    0  0.19550245615E+01  0.11700138568E+02 -0.12471994940E+03  0.12528280465E+03  0.00000000000E+00 0.  1.
          1    1    3    3  501    0 -0.17378741844E-01  0.22199301790E+02 -0.21424580541E+03  0.21539283748E+03  0.00000000000E+00 0.  1.
         -1    1    1    2    0  502 -0.19376458196E+01 -0.33899440358E+02 -0.65974270555E+03  0.66061589751E+03  0.00000000000E+00 0. -1.
<mgrwt>
<rscale>  1 0.30000000E+03</rscale>
<asrwt>0</asrwt>
<pdfrwt beam="1">  1       21 0.46965177E-02 0.30000000E+03</pdfrwt>
<pdfrwt beam="2">0</pdfrwt>
<totfact> 0.32044689E+04</totfact>
</mgrwt>
</event>
<event>
 6    1  0.6513574E-002  0.3000000E+03  0.7818608E-02  0.1093470E+00
         21   -1    0    0  501  502  0.00000000000E+00  0.00000000000E+00  0.33030467992E+01  0.33030467992E+01  0.00000000000E+00 0. -1.
         13   -1    0    0    0    0 -0.00000000000E+00 -0.00000000000E+00 -0.10000000000E+04  0.10000000000E+04  0.00000000000E+00 0.  1.
    9000005    2    1    2  501    0 -0.13212698827E+02  0.37267947323E+02 -0.86100119599E+03  0.86196368982E+03  0.97400078893E+01 0.  0.
         13    1    3    3    0    0 -0.25343592529E+01  0.13374108676E+01 -0.98557634753E+02  0.98599285052E+02  0.00000000000E+00 0.  1.
          3    1    3    3  501    0 -0.10678339574E+02  0.35930536455E+02 -0.76244356124E+03  0.76336440476E+03  0.00000000000E+00 0.  1.
         -1    1    1    2    0  502  0.13212698827E+02 -0.37267947323E+02 -0.13569575721E+03  0.14133935698E+03  0.00000000000E+00 0. -1.
<mgrwt>
<rscale>  1 0.30000000E+03</rscale>
<asrwt>0</asrwt>
<pdfrwt beam="1">  1       21 0.12011105E-01 0.30000000E+03</pdfrwt>
<pdfrwt beam="2">0</pdfrwt>
<totfact> 0.61867248E+03</totfact>
</mgrwt>
</event>
<event>
 6    1  0.6513574E-002  0.3000000E+03  0.7818608E-02  0.1093470E+00
         21   -1    0    0  501  502  0.00000000000E+00  0.00000000000E+00  0.10094685246E+02  0.10094685246E+02  0.00000000000E+00 0. -1.
         13   -1    0    0    0    0 -0.00000000000E+00 -0.00000000000E+00 -0.10000000000E+04  0.10000000000E+04  0.00000000000E+00 0.  1.
    9000005    2    1    2  501    0 -0.41637223777E+02 -0.91323728770E+02 -0.47530112153E+03  0.48579404866E+03  0.33196002232E+01 0.  0.
         13    1    3    3    0    0 -0.40852933005E+02 -0.89083363316E+02 -0.46607409416E+03  0.47626659446E+03  0.00000000000E+00 0.  1.
          1    1    3    3  501    0 -0.78429077183E+00 -0.22403654539E+01 -0.92270273692E+01  0.95274541959E+01  0.00000000000E+00 0.  1.
         -1    1    1    2    0  502  0.41637223777E+02  0.91323728770E+02 -0.51460419323E+03  0.52430063659E+03  0.00000000000E+00 0. -1.
<mgrwt>
<rscale>  1 0.30000000E+03</rscale>
<asrwt>0</asrwt>
<pdfrwt beam="1">  1       21 0.36708024E-01 0.30000000E+03</pdfrwt>
<pdfrwt beam="2">0</pdfrwt>
<totfact> 0.72168078E+02</totfact>
</mgrwt>
</event>
<event>
 6    1  0.6513574E-002  0.3000000E+03  0.7818608E-02  0.1093470E+00
         21   -1    0    0  501  502  0.00000000000E+00  0.00000000000E+00  0.33996506224E+01  0.33996506224E+01  0.00000000000E+00 0. -1.
         13   -1    0    0    0    0 -0.00000000000E+00 -0.00000000000E+00 -0.10000000000E+04  0.10000000000E+04  0.00000000000E+00 0.  1.
    9000005    2    1    2  501    0  0.44192522879E+01 -0.57178593485E+02 -0.41033756018E+03  0.41433855079E+03  0.32557685079E+01 0.  0.
         13    1    3    3    0    0  0.23085858699E+01 -0.23585673208E+02 -0.15861872368E+03  0.16037927874E+03  0.00000000000E+00 0.  1.
          1    1    3    3  501    0  0.21106664179E+01 -0.33592920277E+02 -0.25171883651E+03  0.25395927204E+03  0.00000000000E+00 0.  1.
         -1    1    1    2    0  502 -0.44192522879E+01  0.57178593485E+02 -0.58626278920E+03  0.58906109984E+03  0.00000000000E+00 0. -1.
<mgrwt>
<rscale>  1 0.30000000E+03</rscale>
<asrwt>0</asrwt>
<pdfrwt beam="1">  1       21 0.12362392E-01 0.30000000E+03</pdfrwt>
<pdfrwt beam="2">0</pdfrwt>
<totfact> 0.58708380E+03</totfact>
</mgrwt>
</event>
<event>
 6    1  0.6513574E-002  0.3000000E+03  0.7818608E-02  0.1093470E+00
         21   -1    0    0  501  502  0.00000000000E+00  0.00000000000E+00  0.20815593684E+01  0.20815593684E+01  0.00000000000E+00 0. -1.
         13   -1    0    0    0    0 -0.00000000000E+00 -0.00000000000E+00 -0.10000000000E+04  0.10000000000E+04  0.00000000000E+00 0.  1.
    9000005    2    1    2  501    0 -0.36097293957E+02 -0.23289327630E+02 -0.66658718402E+03  0.66797707119E+03  0.30799877673E+01 0.  0.
         13    1    3    3    0    0 -0.18394650524E+02 -0.13361702857E+02 -0.36592353879E+03  0.36662915120E+03  0.00000000000E+00 0.  1.
          3    1    3    3  501    0 -0.17702643433E+02 -0.99276247728E+01 -0.30066364523E+03  0.30134791999E+03  0.00000000000E+00 0.  1.
         -1    1    1    2    0  502  0.36097293957E+02  0.23289327630E+02 -0.33133125661E+03  0.33410448818E+03  0.00000000000E+00 0. -1.
<mgrwt>
<rscale>  1 0.30000000E+03</rscale>
<asrwt>0</asrwt>
<pdfrwt beam="1">  1       21 0.75693228E-02 0.30000000E+03</pdfrwt>
<pdfrwt beam="2">0</pdfrwt>
<totfact> 0.14075833E+04</totfact>
</mgrwt>
</event>
<event>
 6    1  0.6513574E-002  0.3000000E+03  0.7818608E-02  0.1093470E+00
         21   -1    0    0  501  502  0.00000000000E+00  0.00000000000E+00  0.17651866522E+01  0.17651866522E+01  0.00000000000E+00 0. -1.
         13   -1    0    0    0    0 -0.00000000000E+00 -0.00000000000E+00 -0.10000000000E+04  0.10000000000E+04  0.00000000000E+00 0.  1.
    9000005    2    1    2  501    0 -0.84071219665E+01  0.39834842042E+02 -0.41921597592E+03  0.42131681820E+03  0.10408289631E+02 0.  0.
         13    1    3    3    0    0 -0.31131126364E+01  0.16837846637E+02 -0.12693538783E+03  0.12808511714E+03  0.00000000000E+00 0.  1.
          1    1    3    3  501    0 -0.52940093300E+01  0.22996995404E+02 -0.29228058809E+03  0.29323170106E+03  0.00000000000E+00 0.  1.
         -1    1    1    2    0  502  0.84071219665E+01 -0.39834842042E+02 -0.57901883743E+03  0.58044836845E+03  0.00000000000E+00 0. -1.
<mgrwt>
<rscale>  1 0.30000000E+03</rscale>
<asrwt>0</asrwt>
<pdfrwt beam="1">  1       21 0.64188741E-02 0.30000000E+03</pdfrwt>
<pdfrwt beam="2">0</pdfrwt>
<totfact> 0.18753296E+04</totfact>
</mgrwt>
</event>
<event>
 6    1  0.6513574E-002  0.3000000E+03  0.7818608E-02  0.1093470E+00
         21   -1    0    0  501  502  0.00000000000E+00  0.00000000000E+00  0.12692504906E+01  0.12692504906E+01  0.00000000000E+00 0. -1.
         13   -1    0    0    0    0 -0.00000000000E+00 -0.00000000000E+00 -0.10000000000E+04  0.10000000000E+04  0.00000000000E+00 0.  1.
    9000005    2    1    2  501    0  0.14503320764E+02 -0.28566582068E+02 -0.28362371287E+03  0.28544492164E+03  0.31617816528E+01 0.  0.
         13    1    3    3    0    0  0.63223388740E+01 -0.14849201776E+02 -0.15274329969E+03  0.15359357526E+03  0.00000000000E+00 0.  1.
          1    1    3    3  501    0  0.81809818904E+01 -0.13717380291E+02 -0.13088041318E+03  0.13185134637E+03  0.00000000000E+00 0.  1.
         -3    1    1    2    0  502 -0.14503320764E+02  0.28566582068E+02 -0.71510703664E+03  0.71582432885E+03  0.00000000000E+00 0. -1.
<mgrwt>
<rscale>  1 0.30000000E+03</rscale>
<asrwt>0</asrwt>
<pdfrwt beam="1">  1       21 0.46154661E-02 0.30000000E+03</pdfrwt>
<pdfrwt beam="2">0</pdfrwt>
<totfact> 0.33007008E+04</totfact>
</mgrwt>
</event>
<event>
 6    1  0.6513574E-002  0.3000000E+03  0.7818608E-02  0.1093470E+00
         21   -1    0    0  501  502  0.00000000000E+00  0.00000000000E+00  0.18723976695E+01  0.18723976695E+01  0.00000000000E+00 0. -1.
         13   -1    0    0    0    0 -0.00000000000E+00 -0.00000000000E+00 -0.10000000000E+04  0.10000000000E+04  0.00000000000E+00 0.  1.
    9000005    2    1    2  501    0  0.31399455194E+02 -0.28898226089E+02 -0.57822728749E+03  0.57980924166E+03  0.33056707021E+01 0.  0.
         13    1    3    3    0    0  0.85492555862E+01 -0.59728179970E+01 -0.13748350568E+03  0.13787849237E+03  0.00000000000E+00 0.  1.
          3    1    3    3  501    0  0.22850199607E+02 -0.22925408092E+02 -0.44074378181E+03  0.44193074929E+03  0.00000000000E+00 0.  1.
         -1    1    1    2    0  502 -0.31399455194E+02  0.28898226089E+02 -0.41990031484E+03  0.42206315601E+03  0.00000000000E+00 0. -1.
<mgrwt>
<rscale>  1 0.30000000E+03</rscale>
<asrwt>0</asrwt>
<pdfrwt beam="1">  1       21 0.68087332E-02 0.30000000E+03</pdfrwt>
<pdfrwt beam="2">0</pdfrwt>
<totfact> 0.16931417E+04</totfact>
</mgrwt>
</event>
<event>
 6    1  0.6958302E-002  0.3000000E+03  0.7818608E-02  0.1093470E+00
         21   -1    0    0  501  502  0.00000000000E+00  0.00000000000E+00  0.43805871091E+01  0.43805871091E+01  0.00000000000E+00 0. -1.
         13   -1    0    0    0    0 -0.00000000000E+00 -0.00000000000E+00 -0.10000000000E+04  0.10000000000E+04  0.00000000000E+00 0.  1.
    9000005    2    1    2  501    0  0.38922606224E+02 -0.43101872637E+02 -0.73634153429E+03  0.73867819903E+03  0.85956907397E+01 0.  0.
         13    1    3    3    0    0  0.30559805823E+02 -0.35780784786E+02 -0.55203152453E+03  0.55403336575E+03  0.00000000000E+00 0.  1.
          1    1    3    3  501    0  0.83628004004E+01 -0.73210878510E+01 -0.18431000976E+03  0.18464483328E+03  0.00000000000E+00 0.  1.
         -1    1    1    2    0  502 -0.38922606224E+02  0.43101872637E+02 -0.25927787860E+03  0.26570238808E+03  0.00000000000E+00 0. -1.
<mgrwt>
<rscale>  1 0.30000000E+03</rscale>
<asrwt>0</asrwt>
<pdfrwt beam="1">  1       21 0.15929441E-01 0.30000000E+03</pdfrwt>
<pdfrwt beam="2">0</pdfrwt>
<totfact> 0.36828741E+03</totfact>
</mgrwt>
</event>
<event>
 6    1  0.6513574E-002  0.3000000E+03  0.7818608E-02  0.1093470E+00
         21   -1    0    0  501  502  0.00000000000E+00  0.00000000000E+00  0.17997613369E+01  0.17997613369E+01  0.00000000000E+00 0. -1.
         13   -1    0    0    0    0 -0.00000000000E+00 -0.00000000000E+00 -0.10000000000E+04  0.10000000000E+04  0.00000000000E+00 0.  1.
    9000005    2    1    2  501    0 -0.73436893075E+01 -0.40487579330E+02 -0.61834619187E+03  0.61972349838E+03  0.34680812160E+01 0.  0.
         13    1    3    3    0    0 -0.43626518606E+01 -0.22568416473E+02 -0.37068060157E+03  0.37139261508E+03  0.00000000000E+00 0.  1.
          3    1    3    3  501    0 -0.29810374469E+01 -0.17919162856E+02 -0.24766559030E+03  0.24833088330E+03  0.00000000000E+00 0.  1.
         -1    1    1    2    0  502  0.73436893075E+01  0.40487579330E+02 -0.37985404679E+03  0.38207626296E+03  0.00000000000E+00 0. -1.
<mgrwt>
<rscale>  1 0.30000000E+03</rscale>
<asrwt>0</asrwt>
<pdfrwt beam="1">  1       21 0.65446005E-02 0.30000000E+03</pdfrwt>
<pdfrwt beam="2">0</pdfrwt>
<totfact> 0.18134026E+04</totfact>
</mgrwt>
</event>
<event>
 6    1  0.6513574E-002  0.3000000E+03  0.7818608E-02  0.1093470E+00
         21   -1    0    0  501  502  0.00000000000E+00  0.00000000000E+00  0.10537893158E+01  0.10537893158E+01  0.00000000000E+00 0. -1.
         13   -1    0    0    0    0 -0.00000000000E+00 -0.00000000000E+00 -0.10000000000E+04  0.10000000000E+04  0.00000000000E+00 0.  1.
    9000005    2    1    2  501    0 -0.90831303386E+01  0.31025795413E+02 -0.51911812791E+03  0.52013790036E+03  0.38342432662E+01 0.  0.
         13    1    3    3    0    0 -0.72542548693E+01  0.20400046509E+02 -0.32476694574E+03  0.32548787252E+03  0.00000000000E+00 0.  1.
          3    1    3    3  501    0 -0.18288754693E+01  0.10625748904E+02 -0.19435118217E+03  0.19465002784E+03  0.00000000000E+00 0.  1.
         -3    1    1    2    0  502  0.90831303386E+01 -0.31025795413E+02 -0.47982808277E+03  0.48091588896E+03  0.00000000000E+00 0. -1.
<mgrwt>
<rscale>  1 0.30000000E+03</rscale>
<asrwt>0</asrwt>
<pdfrwt beam="1">  1       21 0.38319692E-02 0.30000000E+03</pdfrwt>
<pdfrwt beam="2">0</pdfrwt>
<totfact> 0.45195312E+04</totfact>
</mgrwt>
</event>
<event>
 6    1  0.6513574E-002  0.3000000E+03  0.7818608E-02  0.1093470E+00
         21   -1    0    0  501  502  0.00000000000E+00  0.00000000000E+00  0.26796322780E+02  0.26796322780E+02  0.00000000000E+00 0. -1.
         13   -1    0    0    0    0 -0.00000000000E+00 -0.00000000000E+00 -0.10000000000E+04  0.10000000000E+04  0.00000000000E+00 0.  1.
    9000005    2    1    2  501    0  0.14733599269E+03  0.66995498739E+02 -0.56307025686E+03  0.58588168922E+03  0.35983336896E+01 0.  0.
         13    1    3    3    0    0  0.47821996683E+02  0.21160732783E+02 -0.17618996183E+03  0.18378689460E+03  0.00000000000E+00 0.  1.
          3    1    3    3  501    0  0.99513996009E+02  0.45834765955E+02 -0.38688029503E+03  0.40209479462E+03  0.00000000000E+00 0.  1.
         -3    1    1    2    0  502 -0.14733599269E+03 -0.66995498739E+02 -0.41013342036E+03  0.44091463356E+03  0.00000000000E+00 0. -1.
<mgrwt>
<rscale>  1 0.30000000E+03</rscale>
<asrwt>0</asrwt>
<pdfrwt beam="1">  1       21 0.97441379E-01 0.30000000E+03</pdfrwt>
<pdfrwt beam="2">0</pdfrwt>
<totfact> 0.78755932E+01</totfact>
</mgrwt>
</event>
<event>
 6    1  0.6513574E-002  0.3000000E+03  0.7818608E-02  0.1093470E+00
         21   -1    0    0  501  502  0.00000000000E+00  0.00000000000E+00  0.10421121867E+01  0.10421121867E+01  0.00000000000E+00 0. -1.
         13   -1    0    0    0    0 -0.00000000000E+00 -0.00000000000E+00 -0.10000000000E+04  0.10000000000E+04  0.00000000000E+00 0.  1.
    9000005    2    1    2  501    0 -0.31632377314E+02  0.19934031082E+01 -0.58778550089E+03  0.58864992904E+03  0.35160993313E+01 0.  0.
         13    1    3    3    0    0 -0.39610128714E+01 -0.41078867197E+00 -0.57728835092E+02  0.57866024326E+02  0.00000000000E+00 0.  1.
          1    1    3    3  501    0 -0.27671364443E+02  0.24041917801E+01 -0.53005666580E+03  0.53078390472E+03  0.00000000000E+00 0.  1.
         -1    1    1    2    0  502  0.31632377314E+02 -0.19934031082E+01 -0.41117238692E+03  0.41239218314E+03  0.00000000000E+00 0. -1.
<mgrwt>
<rscale>  1 0.30000000E+03</rscale>
<asrwt>0</asrwt>
<pdfrwt beam="1">  1       21 0.37895069E-02 0.30000000E+03</pdfrwt>
<pdfrwt beam="2">0</pdfrwt>
<totfact> 0.46049514E+04</totfact>
</mgrwt>
</event>
<event>
 6    1  0.6513574E-002  0.3000000E+03  0.7818608E-02  0.1093470E+00
         21   -1    0    0  501  502  0.00000000000E+00  0.00000000000E+00  0.14360328941E+01  0.14360328941E+01  0.00000000000E+00 0. -1.
         13   -1    0    0    0    0 -0.00000000000E+00 -0.00000000000E+00 -0.10000000000E+04  0.10000000000E+04  0.00000000000E+00 0.  1.
    9000005    2    1    2  501    0  0.12853149534E+02 -0.33158419095E+02 -0.67030103951E+03  0.67125239635E+03  0.34076125137E+01 0.  0.
         13    1    3    3    0    0  0.82115402853E+00 -0.46062920259E+01 -0.10224934069E+03  0.10235633782E+03  0.00000000000E+00 0.  1.
          1    1    3    3  501    0  0.12031995505E+02 -0.28552127069E+02 -0.56805169882E+03  0.56889605853E+03  0.00000000000E+00 0.  1.
         -3    1    1    2    0  502 -0.12853149534E+02  0.33158419095E+02 -0.32826292759E+03  0.33018363655E+03  0.00000000000E+00 0. -1.
<mgrwt>
<rscale>  1 0.30000000E+03</rscale>
<asrwt>0</asrwt>
<pdfrwt beam="1">  1       21 0.52219488E-02 0.30000000E+03</pdfrwt>
<pdfrwt beam="2">0</pdfrwt>
<totfact> 0.26746707E+04</totfact>
</mgrwt>
</event>
<event>
 6    1  0.6513574E-002  0.3000000E+03  0.7818608E-02  0.1093470E+00
         21   -1    0    0  501  502  0.00000000000E+00  0.00000000000E+00  0.15225677692E+01  0.15225677692E+01  0.00000000000E+00 0. -1.
         13   -1    0    0    0    0 -0.00000000000E+00 -0.00000000000E+00 -0.10000000000E+04  0.10000000000E+04  0.00000000000E+00 0.  1.
    9000005    2    1    2  501    0 -0.17807797435E+02  0.32942835390E+02 -0.36287419641E+03  0.36481712454E+03  0.33917375541E+01 0.  0.
         13    1    3    3    0    0 -0.13359332230E+02  0.23366431463E+02 -0.27354378052E+03  0.27486480630E+03  0.00000000000E+00 0.  1.
          3    1    3    3  501    0 -0.44484652047E+01  0.95764039278E+01 -0.89330415883E+02  0.89952318239E+02  0.00000000000E+00 0.  1.
         -3    1    1    2    0  502  0.17807797435E+02 -0.32942835390E+02 -0.63560323582E+03  0.63670544323E+03  0.00000000000E+00 0. -1.
<mgrwt>
<rscale>  1 0.30000000E+03</rscale>
<asrwt>0</asrwt>
<pdfrwt beam="1">  1       21 0.55366217E-02 0.30000000E+03</pdfrwt>
<pdfrwt beam="2">0</pdfrwt>
<totfact> 0.24197161E+04</totfact>
</mgrwt>
</event>
<event>
 6    1  0.6513574E-002  0.3000000E+03  0.7818608E-02  0.1093470E+00
         21   -1    0    0  501  502  0.00000000000E+00  0.00000000000E+00  0.47235439693E+01  0.47235439693E+01  0.00000000000E+00 0. -1.
         13   -1    0    0    0    0 -0.00000000000E+00 -0.00000000000E+00 -0.10000000000E+04  0.10000000000E+04  0.00000000000E+00 0.  1.
    9000005    2    1    2  501    0 -0.60291938521E+02  0.32824610405E+02 -0.48078814875E+03  0.48567557776E+03  0.33090714453E+01 0.  0.
         13    1    3    3    0    0 -0.24250582453E+02  0.13237205572E+02 -0.20507247966E+03  0.20692519488E+03  0.00000000000E+00 0.  1.
          3    1    3    3  501    0 -0.36041356069E+02  0.19587404833E+02 -0.27571566909E+03  0.27875038288E+03  0.00000000000E+00 0.  1.
         -3    1    1    2    0  502  0.60291938521E+02 -0.32824610405E+02 -0.51448830728E+03  0.51904796621E+03  0.00000000000E+00 0. -1.
<mgrwt>
<rscale>  1 0.30000000E+03</rscale>
<asrwt>0</asrwt>
<pdfrwt beam="1">  1       21 0.17176560E-01 0.30000000E+03</pdfrwt>
<pdfrwt beam="2">0</pdfrwt>
<totfact> 0.31989825E+03</totfact>
</mgrwt>
</event>
<event>
 6    1  0.6513574E-002  0.3000000E+03  0.7818608E-02  0.1093470E+00
         21   -1    0    0  501  502  0.00000000000E+00  0.00000000000E+00  0.11033782506E+01  0.11033782506E+01  0.00000000000E+00 0. -1.
         13   -1    0    0    0    0 -0.00000000000E+00 -0.00000000000E+00 -0.10000000000E+04  0.10000000000E+04  0.00000000000E+00 0.  1.
    9000005    2    1    2  501    0 -0.31289483824E+02  0.92950717663E+01 -0.58758426687E+03  0.58849789666E+03  0.30122334048E+01 0.  0.
         13    1    3    3    0    0 -0.11836924464E+02  0.34988914218E+01 -0.19657067465E+03  0.19695782583E+03  0.00000000000E+00 0.  1.
          3    1    3    3  501    0 -0.19452559360E+02  0.57961803445E+01 -0.39101359221E+03  0.39154007083E+03  0.00000000000E+00 0.  1.
         -3    1    1    2    0  502  0.31289483824E+02 -0.92950717663E+01 -0.41131235488E+03  0.41260548159E+03  0.00000000000E+00 0. -1.
<mgrwt>
<rscale>  1 0.30000000E+03</rscale>
<asrwt>0</asrwt>
<pdfrwt beam="1">  1       21 0.40122930E-02 0.30000000E+03</pdfrwt>
<pdfrwt beam="2">0</pdfrwt>
<totfact> 0.41830587E+04</totfact>
</mgrwt>
</event>
<event>
 6    1  0.6513574E-002  0.3000000E+03  0.7818608E-02  0.1093470E+00
         21   -1    0    0  501  502  0.00000000000E+00  0.00000000000E+00  0.54728092646E+01  0.54728092646E+01  0.00000000000E+00 0. -1.
         13   -1    0    0    0    0 -0.00000000000E+00 -0.00000000000E+00 -0.10000000000E+04  0.10000000000E+04  0.00000000000E+00 0.  1.
    9000005    2    1    2  501    0 -0.70407035819E+02  0.95696837674E+01 -0.63639729803E+03  0.64036221014E+03  0.36755545948E+01 0.  0.
         13    1    3    3    0    0 -0.41302323345E+02  0.38061007677E+01 -0.36852645239E+03  0.37085322491E+03  0.00000000000E+00 0.  1.
          3    1    3    3  501    0 -0.29104712474E+02  0.57635829997E+01 -0.26787084564E+03  0.26950898523E+03  0.00000000000E+00 0.  1.
         -3    1    1    2    0  502  0.70407035819E+02 -0.95696837674E+01 -0.35812989271E+03  0.36511059912E+03  0.00000000000E+00 0. -1.
<mgrwt>
<rscale>  1 0.30000000E+03</rscale>
<asrwt>0</asrwt>
<pdfrwt beam="1">  1       21 0.19901167E-01 0.30000000E+03</pdfrwt>
<pdfrwt beam="2">0</pdfrwt>
<totfact> 0.24220108E+03</totfact>
</mgrwt>
</event>
<event>
 6    1  0.6513574E-002  0.3000000E+03  0.7818608E-02  0.1093470E+00
         21   -1    0    0  501  502  0.00000000000E+00  0.00000000000E+00  0.98471859214E+00  0.98471859214E+00  0.00000000000E+00 0. -1.
         13   -1    0    0    0    0 -0.00000000000E+00 -0.00000000000E+00 -0.10000000000E+04  0.10000000000E+04  0.00000000000E+00 0.  1.
    9000005    2    1    2  501    0 -0.31276743192E+02 -0.45975211458E+00 -0.52163172236E+03  0.52257745643E+03  0.30163162565E+01 0.  0.
         13    1    3    3    0    0 -0.61917714539E+01 -0.12418904436E+01 -0.98979719434E+02  0.99180971889E+02  0.00000000000E+00 0.  1.
          1    1    3    3  501    0 -0.25084971738E+02  0.78213832901E+00 -0.42265200292E+03  0.42339648454E+03  0.00000000000E+00 0.  1.
         -3    1    1    2    0  502  0.31276743192E+02  0.45975211458E+00 -0.47738355905E+03  0.47840726216E+03  0.00000000000E+00 0. -1.
<mgrwt>
<rscale>  1 0.30000000E+03</rscale>
<asrwt>0</asrwt>
<pdfrwt beam="1">  1       21 0.35808024E-02 0.30000000E+03</pdfrwt>
<pdfrwt beam="2">0</pdfrwt>
<totfact> 0.50642332E+04</totfact>
</mgrwt>
</event>
<event>
 6    1  0.6513574E-002  0.3000000E+03  0.7818608E-02  0.1093470E+00
         21   -1    0    0  501  502  0.00000000000E+00  0.00000000000E+00  0.15057683741E+01  0.15057683741E+01  0.00000000000E+00 0. -1.
         13   -1    0    0    0    0 -0.00000000000E+00 -0.00000000000E+00 -0.10000000000E+04  0.10000000000E+04  0.00000000000E+00 0.  1.
    9000005    2    1    2  501    0 -0.39288644709E+01  0.36957905566E+02 -0.35931403259E+03  0.36124593862E+03  0.32758803444E+01 0.  0.
         13    1    3    3    0    0 -0.42103394288E+01  0.36171272246E+02 -0.34764703983E+03  0.34954906979E+03  0.00000000000E+00 0.  1.
          1    1    3    3  501    0  0.28147495785E+00  0.78663332001E+00 -0.11666992766E+02  0.11696868826E+02  0.00000000000E+00 0.  1.
         -3    1    1    2    0  502  0.39288644709E+01 -0.36957905566E+02 -0.63918019903E+03  0.64025982975E+03  0.00000000000E+00 0. -1.
<mgrwt>
<rscale>  1 0.30000000E+03</rscale>
<asrwt>0</asrwt>
<pdfrwt beam="1">  1       21 0.54755329E-02 0.30000000E+03</pdfrwt>
<pdfrwt beam="2">0</pdfrwt>
<totfact> 0.24661937E+04</totfact>
</mgrwt>
</event>
<event>
 6    1  0.6513574E-002  0.3000000E+03  0.7818608E-02  0.1093470E+00
         21   -1    0    0  501  502  0.00000000000E+00  0.00000000000E+00  0.30041052306E+01  0.30041052306E+01  0.00000000000E+00 0. -1.
         13   -1    0    0    0    0 -0.00000000000E+00 -0.00000000000E+00 -0.10000000000E+04  0.10000000000E+04  0.00000000000E+00 0.  1.
    9000005    2    1    2  501    0 -0.16713796849E+02  0.51837906326E+02 -0.55116692747E+03  0.55386048943E+03  0.31528193642E+01 0.  0.
         13    1    3    3    0    0 -0.45582222104E+01  0.13657510400E+02 -0.16016976523E+03  0.16081560458E+03  0.00000000000E+00 0.  1.
          3    1    3    3  501    0 -0.12155574639E+02  0.38180395925E+02 -0.39099716224E+03  0.39304488485E+03  0.00000000000E+00 0.  1.
         -3    1    1    2    0  502  0.16713796849E+02 -0.51837906326E+02 -0.44582896730E+03  0.44914361580E+03  0.00000000000E+00 0. -1.
<mgrwt>
<rscale>  1 0.30000000E+03</rscale>
<asrwt>0</asrwt>
<pdfrwt beam="1">  1       21 0.10924042E-01 0.30000000E+03</pdfrwt>
<pdfrwt beam="2">0</pdfrwt>
<totfact> 0.73429696E+03</totfact>
</mgrwt>
</event>
<event>
 6    1  0.6513574E-002  0.3000000E+03  0.7818608E-02  0.1093470E+00
         21   -1    0    0  501  502  0.00000000000E+00  0.00000000000E+00  0.14514426830E+01  0.14514426830E+01  0.00000000000E+00 0. -1.
         13   -1    0    0    0    0 -0.00000000000E+00 -0.00000000000E+00 -0.10000000000E+04  0.10000000000E+04  0.00000000000E+00 0.  1.
    9000005    2    1    2  501    0 -0.14682331594E+02 -0.33881329236E+02 -0.38162356380E+03  0.38342234713E+03  0.35547847605E+01 0.  0.
         13    1    3    3    0    0 -0.10357900546E+02 -0.26700548035E+02 -0.28459419106E+03  0.28603156985E+03  0.00000000000E+00 0.  1.
          3    1    3    3  501    0 -0.43244310480E+01 -0.71807812008E+01 -0.97029372745E+02  0.97390777273E+02  0.00000000000E+00 0.  1.
         -1    1    1    2    0  502  0.14682331594E+02  0.33881329236E+02 -0.61692499352E+03  0.61802909556E+03  0.00000000000E+00 0. -1.
<mgrwt>
<rscale>  1 0.30000000E+03</rscale>
<asrwt>0</asrwt>
<pdfrwt beam="1">  1       21 0.52779845E-02 0.30000000E+03</pdfrwt>
<pdfrwt beam="2">0</pdfrwt>
<totfact> 0.26263150E+04</totfact>
</mgrwt>
</event>
<event>
 6    1  0.6513574E-002  0.3000000E+03  0.7818608E-02  0.1093470E+00
         21   -1    0    0  501  502  0.00000000000E+00  0.00000000000E+00  0.33433749979E+01  0.33433749979E+01  0.00000000000E+00 0. -1.
         13   -1    0    0    0    0 -0.00000000000E+00 -0.00000000000E+00 -0.10000000000E+04  0.10000000000E+04  0.00000000000E+00 0.  1.
    9000005    2    1    2  501    0  0.41958522717E+02 -0.17309907418E+02 -0.18885726602E+03  0.19426985862E+03  0.36824609070E+01 0.  0.
         13    1    3    3    0    0  0.25640506701E+02 -0.12501920416E+02 -0.11790825113E+03  0.12130988947E+03  0.00000000000E+00 0.  1.
          1    1    3    3  501    0  0.16318016016E+02 -0.48079870016E+01 -0.70949014882E+02  0.72959969151E+02  0.00000000000E+00 0.  1.
         -3    1    1    2    0  502 -0.41958522717E+02  0.17309907418E+02 -0.80779935899E+03  0.80907351638E+03  0.00000000000E+00 0. -1.
<mgrwt>
<rscale>  1 0.30000000E+03</rscale>
<asrwt>0</asrwt>
<pdfrwt beam="1">  1       21 0.12157753E-01 0.30000000E+03</pdfrwt>
<pdfrwt beam="2">0</pdfrwt>
<totfact> 0.60518421E+03</totfact>
</mgrwt>
</event>
<event>
 6    1  0.6513574E-002  0.3000000E+03  0.7818608E-02  0.1093470E+00
         21   -1    0    0  501  502  0.00000000000E+00  0.00000000000E+00  0.38712851240E+01  0.38712851240E+01  0.00000000000E+00 0. -1.
         13   -1    0    0    0    0 -0.00000000000E+00 -0.00000000000E+00 -0.10000000000E+04  0.10000000000E+04  0.00000000000E+00 0.  1.
    9000005    2    1    2  501    0 -0.43736958505E+02 -0.11796104027E+02 -0.84079685117E+03  0.84206875890E+03  0.94010728958E+01 0.  0.
         13    1    3    3    0    0 -0.27607799625E+02 -0.87462113205E+01 -0.61130437147E+03  0.61198996837E+03  0.00000000000E+00 0.  1.
          1    1    3    3  501    0 -0.16129158880E+02 -0.30498927067E+01 -0.22949247971E+03  0.23007879053E+03  0.00000000000E+00 0.  1.
         -1    1    1    2    0  502  0.43736958505E+02  0.11796104027E+02 -0.15533186371E+03  0.16180252622E+03  0.00000000000E+00 0. -1.
<mgrwt>
<rscale>  1 0.30000000E+03</rscale>
<asrwt>0</asrwt>
<pdfrwt beam="1">  1       21 0.14077430E-01 0.30000000E+03</pdfrwt>
<pdfrwt beam="2">0</pdfrwt>
<totfact> 0.46295114E+03</totfact>
</mgrwt>
</event>
<event>
 6    1  0.6513574E-002  0.3000000E+03  0.7818608E-02  0.1093470E+00
         21   -1    0    0  501  502  0.00000000000E+00  0.00000000000E+00  0.13182818330E+01  0.13182818330E+01  0.00000000000E+00 0. -1.
         13   -1    0    0    0    0 -0.00000000000E+00 -0.00000000000E+00 -0.10000000000E+04  0.10000000000E+04  0.00000000000E+00 0.  1.
    9000005    2    1    2  501    0  0.15649543762E+02 -0.31825989686E+02 -0.60122909030E+03  0.60228646200E+03  0.38420630331E+01 0.  0.
         13    1    3    3    0    0  0.11562196001E+00  0.75182174260E-01 -0.54313580502E+01  0.54331087847E+01  0.00000000000E+00 0.  1.
          3    1    3    3  501    0  0.15533921802E+02 -0.31901171860E+02 -0.59579773225E+03  0.59685335322E+03  0.00000000000E+00 0.  1.
         -1    1    1    2    0  502 -0.15649543762E+02  0.31825989686E+02 -0.39745262787E+03  0.39903181983E+03  0.00000000000E+00 0. -1.
<mgrwt>
<rscale>  1 0.30000000E+03</rscale>
<asrwt>0</asrwt>
<pdfrwt beam="1">  1       21 0.47937622E-02 0.30000000E+03</pdfrwt>
<pdfrwt beam="2">0</pdfrwt>
<totfact> 0.30946942E+04</totfact>
</mgrwt>
</event>
<event>
 6    1  0.6513574E-002  0.3000000E+03  0.7818608E-02  0.1093470E+00
         21   -1    0    0  501  502  0.00000000000E+00  0.00000000000E+00  0.16421865787E+01  0.16421865787E+01  0.00000000000E+00 0. -1.
         13   -1    0    0    0    0 -0.00000000000E+00 -0.00000000000E+00 -0.10000000000E+04  0.10000000000E+04  0.00000000000E+00 0.  1.
    9000005    2    1    2  501    0  0.16674783937E+02 -0.33541894108E+02 -0.31135469107E+03  0.31361864251E+03  0.34354323662E+01 0.  0.
         13    1    3    3    0    0  0.12104178068E+02 -0.26828715790E+02 -0.25109413725E+03  0.25281328462E+03  0.00000000000E+00 0.  1.
          3    1    3    3  501    0  0.45706058684E+01 -0.67131783181E+01 -0.60260553824E+02  0.60805357892E+02  0.00000000000E+00 0.  1.
         -1    1    1    2    0  502 -0.16674783937E+02  0.33541894108E+02 -0.68700312235E+03  0.68802354407E+03  0.00000000000E+00 0. -1.
<mgrwt>
<rscale>  1 0.30000000E+03</rscale>
<asrwt>0</asrwt>
<pdfrwt beam="1">  1       21 0.59716002E-02 0.30000000E+03</pdfrwt>
<pdfrwt beam="2">0</pdfrwt>
<totfact> 0.21244778E+04</totfact>
</mgrwt>
</event>
<event>
 6    1  0.6513574E-002  0.3000000E+03  0.7818608E-02  0.1093470E+00
         21   -1    0    0  501  502  0.00000000000E+00  0.00000000000E+00  0.16240352816E+01  0.16240352816E+01  0.00000000000E+00 0. -1.
         13   -1    0    0    0    0 -0.00000000000E+00 -0.00000000000E+00 -0.10000000000E+04  0.10000000000E+04  0.00000000000E+00 0.  1.
    9000005    2    1    2  501    0 -0.33522784270E+02  0.20584733597E+02 -0.39477205175E+03  0.39673959006E+03  0.31338720755E+01 0.  0.
         13    1    3    3    0    0 -0.87819881104E+01  0.66780187084E+01 -0.10184515519E+03  0.10244098245E+03  0.00000000000E+00 0.  1.
          3    1    3    3  501    0 -0.24740796159E+02  0.13906714889E+02 -0.29292689655E+03  0.29429860761E+03  0.00000000000E+00 0.  1.
         -1    1    1    2    0  502  0.33522784270E+02 -0.20584733597E+02 -0.60360391297E+03  0.60488444523E+03  0.00000000000E+00 0. -1.
<mgrwt>
<rscale>  1 0.30000000E+03</rscale>
<asrwt>0</asrwt>
<pdfrwt beam="1">  1       21 0.59055953E-02 0.30000000E+03</pdfrwt>
<pdfrwt beam="2">0</pdfrwt>
<totfact> 0.21655780E+04</totfact>
</mgrwt>
</event>
<event>
 6    1  0.6513574E-002  0.3000000E+03  0.7818608E-02  0.1093470E+00
         21   -1    0    0  501  502  0.00000000000E+00  0.00000000000E+00  0.17837796347E+01  0.17837796347E+01  0.00000000000E+00 0. -1.
         13   -1    0    0    0    0 -0.00000000000E+00 -0.00000000000E+00 -0.10000000000E+04  0.10000000000E+04  0.00000000000E+00 0.  1.
    9000005    2    1    2  501    0  0.22923061263E+02 -0.30781570670E+02 -0.70716625335E+03  0.70821427316E+03  0.32210252742E+01 0.  0.
         13    1    3    3    0    0  0.56419603992E+00 -0.13670691809E+01 -0.19395373946E+02  0.19451676684E+02  0.00000000000E+00 0.  1.
          1    1    3    3  501    0  0.22358865223E+02 -0.29414501489E+02 -0.68777087941E+03  0.68876259648E+03  0.00000000000E+00 0.  1.
         -1    1    1    2    0  502 -0.22923061263E+02  0.30781570670E+02 -0.29104996701E+03  0.29356950647E+03  0.00000000000E+00 0. -1.
<mgrwt>
<rscale>  1 0.30000000E+03</rscale>
<asrwt>0</asrwt>
<pdfrwt beam="1">  1       21 0.64864851E-02 0.30000000E+03</pdfrwt>
<pdfrwt beam="2">0</pdfrwt>
<totfact> 0.18416288E+04</totfact>
</mgrwt>
</event>
<event>
 6    1  0.6513574E-002  0.3000000E+03  0.7818608E-02  0.1093470E+00
         21   -1    0    0  501  502  0.00000000000E+00  0.00000000000E+00  0.24276034656E+01  0.24276034656E+01  0.00000000000E+00 0. -1.
         13   -1    0    0    0    0 -0.00000000000E+00 -0.00000000000E+00 -0.10000000000E+04  0.10000000000E+04  0.00000000000E+00 0.  1.
    9000005    2    1    2  501    0  0.22572503333E+02 -0.35943093653E+02 -0.24554164553E+03  0.24920009842E+03  0.29266839815E+01 0.  0.
         13    1    3    3    0    0  0.13245616921E+02 -0.18554255317E+02 -0.12835410989E+03  0.13036289458E+03  0.00000000000E+00 0.  1.
          3    1    3    3  501    0  0.93268864114E+01 -0.17388838336E+02 -0.11718753564E+03  0.11883720385E+03  0.00000000000E+00 0.  1.
         -3    1    1    2    0  502 -0.22572503333E+02  0.35943093653E+02 -0.75203075101E+03  0.75322750504E+03  0.00000000000E+00 0. -1.
<mgrwt>
<rscale>  1 0.30000000E+03</rscale>
<asrwt>0</asrwt>
<pdfrwt beam="1">  1       21 0.88276676E-02 0.30000000E+03</pdfrwt>
<pdfrwt beam="2">0</pdfrwt>
<totfact> 0.10739410E+04</totfact>
</mgrwt>
</event>
<event>
 6    1  0.6513574E-002  0.3000000E+03  0.7818608E-02  0.1093470E+00
         21   -1    0    0  501  502  0.00000000000E+00  0.00000000000E+00  0.25966193561E+01  0.25966193561E+01  0.00000000000E+00 0. -1.
         13   -1    0    0    0    0 -0.00000000000E+00 -0.00000000000E+00 -0.10000000000E+04  0.10000000000E+04  0.00000000000E+00 0.  1.
    9000005    2    1    2  501    0  0.18452666605E+02  0.36907753495E+02 -0.79251886596E+03  0.79359818030E+03  0.30390280412E+01 0.  0.
         13    1    3    3    0    0  0.13129044893E+02  0.28303445616E+02 -0.57997172792E+03  0.58081034946E+03  0.00000000000E+00 0.  1.
          1    1    3    3  501    0  0.53236217122E+01  0.86043078792E+01 -0.21254713805E+03  0.21278783084E+03  0.00000000000E+00 0.  1.
         -3    1    1    2    0  502 -0.18452666605E+02 -0.36907753495E+02 -0.20488451468E+03  0.20899843906E+03  0.00000000000E+00 0. -1.
<mgrwt>
<rscale>  1 0.30000000E+03</rscale>
<asrwt>0</asrwt>
<pdfrwt beam="1">  1       21 0.94422721E-02 0.30000000E+03</pdfrwt>
<pdfrwt beam="2">0</pdfrwt>
<totfact> 0.95306100E+03</totfact>
</mgrwt>
</event>
<event>
 6    1  0.6513574E-002  0.3000000E+03  0.7818608E-02  0.1093470E+00
         21   -1    0    0  501  502  0.00000000000E+00  0.00000000000E+00  0.34818650275E+01  0.34818650275E+01  0.00000000000E+00 0. -1.
         13   -1    0    0    0    0 -0.00000000000E+00 -0.00000000000E+00 -0.10000000000E+04  0.10000000000E+04  0.00000000000E+00 0.  1.
    9000005    2    1    2  501    0  0.52895283088E+02 -0.22568646837E+02 -0.38804973185E+03  0.39230181595E+03  0.32963032549E+01 0.  0.
         13    1    3    3    0    0  0.35324426306E+02 -0.14393740133E+02 -0.26686890373E+03  0.26958116890E+03  0.00000000000E+00 0.  1.
          1    1    3    3  501    0  0.17570856782E+02 -0.81749067036E+01 -0.12118082812E+03  0.12272064705E+03  0.00000000000E+00 0.  1.
         -3    1    1    2    0  502 -0.52895283088E+02  0.22568646837E+02 -0.60846840312E+03  0.61118004908E+03  0.00000000000E+00 0. -1.
<mgrwt>
<rscale>  1 0.30000000E+03</rscale>
<asrwt>0</asrwt>
<pdfrwt beam="1">  1       21 0.12661354E-01 0.30000000E+03</pdfrwt>
<pdfrwt beam="2">0</pdfrwt>
<totfact> 0.56207901E+03</totfact>
</mgrwt>
</event>
<event>
 6    1  0.6513574E-002  0.3000000E+03  0.7818608E-02  0.1093470E+00
         21   -1    0    0  501  502  0.00000000000E+00  0.00000000000E+00  0.40779462028E+01  0.40779462028E+01  0.00000000000E+00 0. -1.
         13   -1    0    0    0    0 -0.00000000000E+00 -0.00000000000E+00 -0.10000000000E+04  0.10000000000E+04  0.00000000000E+00 0.  1.
    9000005    2    1    2  501    0 -0.61770744494E+02 -0.36753206004E+01 -0.37550586150E+03  0.38058345182E+03  0.31589435282E+01 0.  0.
         13    1    3    3    0    0 -0.48428957991E+02 -0.41798272523E+01 -0.29415115205E+03  0.29814046216E+03  0.00000000000E+00 0.  1.
          3    1    3    3  501    0 -0.13341786502E+02  0.50450665182E+00 -0.81354709455E+02  0.82442989663E+02  0.00000000000E+00 0.  1.
         -1    1    1    2    0  502  0.61770744494E+02  0.36753206004E+01 -0.62041619230E+03  0.62349449438E+03  0.00000000000E+00 0. -1.
<mgrwt>
<rscale>  1 0.30000000E+03</rscale>
<asrwt>0</asrwt>
<pdfrwt beam="1">  1       21 0.14828927E-01 0.30000000E+03</pdfrwt>
<pdfrwt beam="2">0</pdfrwt>
<totfact> 0.42063381E+03</totfact>
</mgrwt>
</event>
<event>
 6    1  0.6513574E-002  0.3000000E+03  0.7818608E-02  0.1093470E+00
         21   -1    0    0  501  502  0.00000000000E+00  0.00000000000E+00  0.11963603956E+01  0.11963603956E+01  0.00000000000E+00 0. -1.
         13   -1    0    0    0    0 -0.00000000000E+00 -0.00000000000E+00 -0.10000000000E+04  0.10000000000E+04  0.00000000000E+00 0.  1.
    9000005    2    1    2  501    0 -0.25893983378E+02  0.22639412242E+02 -0.46498424340E+03  0.46627002049E+03  0.37873519342E+01 0.  0.
         13    1    3    3    0    0 -0.69649543495E+01  0.39986201280E+01 -0.11146578432E+03  0.11175473425E+03  0.00000000000E+00 0.  1.
          1    1    3    3  501    0 -0.18929029028E+02  0.18640792114E+02 -0.35351845908E+03  0.35451528624E+03  0.00000000000E+00 0.  1.
         -1    1    1    2    0  502  0.25893983378E+02 -0.22639412242E+02 -0.53381939620E+03  0.53492633990E+03  0.00000000000E+00 0. -1.
<mgrwt>
<rscale>  1 0.30000000E+03</rscale>
<asrwt>0</asrwt>
<pdfrwt beam="1">  1       21 0.43504106E-02 0.30000000E+03</pdfrwt>
<pdfrwt beam="2">0</pdfrwt>
<totfact> 0.36490044E+04</totfact>
</mgrwt>
</event>
<event>
 6    1  0.6513574E-002  0.3000000E+03  0.7818608E-02  0.1093470E+00
         21   -1    0    0  501  502  0.00000000000E+00  0.00000000000E+00  0.34907529961E+01  0.34907529961E+01  0.00000000000E+00 0. -1.
         13   -1    0    0    0    0 -0.00000000000E+00 -0.00000000000E+00 -0.10000000000E+04  0.10000000000E+04  0.00000000000E+00 0.  1.
    9000005    2    1    2  501    0 -0.16797162650E+02 -0.54731008578E+02 -0.37604324964E+03  0.38038909046E+03  0.31155363200E+01 0.  0.
         13    1    3    3    0    0 -0.11036592105E+02 -0.31729480403E+02 -0.21443018204E+03  0.21704577688E+03  0.00000000000E+00 0.  1.
          1    1    3    3  501    0 -0.57605705448E+01 -0.23001528175E+02 -0.16161306761E+03  0.16334331358E+03  0.00000000000E+00 0.  1.
         -3    1    1    2    0  502  0.16797162650E+02  0.54731008578E+02 -0.62046599736E+03  0.62310166253E+03  0.00000000000E+00 0. -1.
<mgrwt>
<rscale>  1 0.30000000E+03</rscale>
<asrwt>0</asrwt>
<pdfrwt beam="1">  1       21 0.12693674E-01 0.30000000E+03</pdfrwt>
<pdfrwt beam="2">0</pdfrwt>
<totfact> 0.55947277E+03</totfact>
</mgrwt>
</event>
<event>
 6    1  0.6513574E-002  0.3000000E+03  0.7818608E-02  0.1093470E+00
         21   -1    0    0  501  502  0.00000000000E+00  0.00000000000E+00  0.24029806911E+01  0.24029806911E+01  0.00000000000E+00 0. -1.
         13   -1    0    0    0    0 -0.00000000000E+00 -0.00000000000E+00 -0.10000000000E+04  0.10000000000E+04  0.00000000000E+00 0.  1.
    9000005    2    1    2  501    0 -0.47338042362E+02  0.18317306907E+01 -0.62554180600E+03  0.62734388235E+03  0.36810578150E+01 0.  0.
         13    1    3    3    0    0 -0.76514396443E+00  0.32083389976E+00 -0.69120902601E+01  0.69617075090E+01  0.00000000000E+00 0.  1.
          3    1    3    3  501    0 -0.46572898397E+02  0.15108967910E+01 -0.61862971574E+03  0.62038217485E+03  0.00000000000E+00 0.  1.
         -3    1    1    2    0  502  0.47338042362E+02 -0.18317306907E+01 -0.37205521331E+03  0.37505909834E+03  0.00000000000E+00 0. -1.
<mgrwt>
<rscale>  1 0.30000000E+03</rscale>
<asrwt>0</asrwt>
<pdfrwt beam="1">  1       21 0.87381300E-02 0.30000000E+03</pdfrwt>
<pdfrwt beam="2">0</pdfrwt>
<totfact> 0.10934720E+04</totfact>
</mgrwt>
</event>
<event>
 6    1  0.6513574E-002  0.3000000E+03  0.7818608E-02  0.1093470E+00
         21   -1    0    0  501  502  0.00000000000E+00  0.00000000000E+00  0.18704317423E+01  0.18704317423E+01  0.00000000000E+00 0. -1.
         13   -1    0    0    0    0 -0.00000000000E+00 -0.00000000000E+00 -0.10000000000E+04  0.10000000000E+04  0.00000000000E+00 0.  1.
    9000005    2    1    2  501    0 -0.24557491192E+02  0.18321157665E+02 -0.14723000388E+03  0.15041943265E+03  0.32552243225E+01 0.  0.
         13    1    3    3    0    0 -0.75129395458E+01  0.38214345818E+01 -0.39133117444E+02  0.40030594596E+02  0.00000000000E+00 0.  1.
          1    1    3    3  501    0 -0.17044551646E+02  0.14499723084E+02 -0.10809688644E+03  0.11038883806E+03  0.00000000000E+00 0.  1.
         -3    1    1    2    0  502  0.24557491192E+02 -0.18321157665E+02 -0.85089956438E+03  0.85145099909E+03  0.00000000000E+00 0. -1.
<mgrwt>
<rscale>  1 0.30000000E+03</rscale>
<asrwt>0</asrwt>
<pdfrwt beam="1">  1       21 0.68015843E-02 0.30000000E+03</pdfrwt>
<pdfrwt beam="2">0</pdfrwt>
<totfact> 0.16962333E+04</totfact>
</mgrwt>
</event>
<event>
 6    1  0.6513574E-002  0.3000000E+03  0.7818608E-02  0.1093470E+00
         21   -1    0    0  501  502  0.00000000000E+00  0.00000000000E+00  0.10265292123E+01  0.10265292123E+01  0.00000000000E+00 0. -1.
         13   -1    0    0    0    0 -0.00000000000E+00 -0.00000000000E+00 -0.10000000000E+04  0.10000000000E+04  0.00000000000E+00 0.  1.
    9000005    2    1    2  501    0 -0.27804939175E+02  0.14553087909E+02 -0.40685073072E+03  0.40807269769E+03  0.33018939041E+01 0.  0.
         13    1    3    3    0    0 -0.13657467256E+01  0.14896277886E+01 -0.21233537656E+02  0.21329495458E+02  0.00000000000E+00 0.  1.
          1    1    3    3  501    0 -0.26439192450E+02  0.13063460120E+02 -0.38561719306E+03  0.38674320223E+03  0.00000000000E+00 0.  1.
         -1    1    1    2    0  502  0.27804939175E+02 -0.14553087909E+02 -0.59212274007E+03  0.59295383152E+03  0.00000000000E+00 0. -1.
<mgrwt>
<rscale>  1 0.30000000E+03</rscale>
<asrwt>0</asrwt>
<pdfrwt beam="1">  1       21 0.37328414E-02 0.30000000E+03</pdfrwt>
<pdfrwt beam="2">0</pdfrwt>
<totfact> 0.47229580E+04</totfact>
</mgrwt>
</event>
<event>
 6    1  0.6513574E-002  0.3000000E+03  0.7818608E-02  0.1093470E+00
         21   -1    0    0  501  502  0.00000000000E+00  0.00000000000E+00  0.13336263213E+01  0.13336263213E+01  0.00000000000E+00 0. -1.
         13   -1    0    0    0    0 -0.00000000000E+00 -0.00000000000E+00 -0.10000000000E+04  0.10000000000E+04  0.00000000000E+00 0.  1.
    9000005    2    1    2  501    0 -0.35708673795E+02  0.49810637427E+01 -0.56280732228E+03  0.56398590075E+03  0.53003629503E+01 0.  0.
         13    1    3    3    0    0 -0.32219973298E+02  0.46269423417E+01 -0.52799757451E+03  0.52899997539E+03  0.00000000000E+00 0.  1.
          1    1    3    3  501    0 -0.34887004970E+01  0.35412140098E+00 -0.34809747773E+02  0.34985925357E+02  0.00000000000E+00 0.  1.
         -1    1    1    2    0  502  0.35708673795E+02 -0.49810637427E+01 -0.43585905140E+03  0.43734772557E+03  0.00000000000E+00 0. -1.
<mgrwt>
<rscale>  1 0.30000000E+03</rscale>
<asrwt>0</asrwt>
<pdfrwt beam="1">  1       21 0.48495605E-02 0.30000000E+03</pdfrwt>
<pdfrwt beam="2">0</pdfrwt>
<totfact> 0.30343388E+04</totfact>
</mgrwt>
</event>
<event>
 6    1  0.6513574E-002  0.3000000E+03  0.7818608E-02  0.1093470E+00
         21   -1    0    0  501  502  0.00000000000E+00  0.00000000000E+00  0.20390985696E+01  0.20390985696E+01  0.00000000000E+00 0. -1.
         13   -1    0    0    0    0 -0.00000000000E+00 -0.00000000000E+00 -0.10000000000E+04  0.10000000000E+04  0.00000000000E+00 0.  1.
    9000005    2    1    2  501    0 -0.30918677158E+02 -0.20040278898E+02 -0.78810808104E+03  0.78897623554E+03  0.34022749143E+01 0.  0.
         13    1    3    3    0    0 -0.16617551148E+02 -0.88316169614E+01 -0.39040575977E+03  0.39085905097E+03  0.00000000000E+00 0.  1.
          3    1    3    3  501    0 -0.14301126010E+02 -0.11208661937E+02 -0.39770232127E+03  0.39811718457E+03  0.00000000000E+00 0.  1.
         -3    1    1    2    0  502  0.30918677158E+02  0.20040278898E+02 -0.20985282039E+03  0.21306286303E+03  0.00000000000E+00 0. -1.
<mgrwt>
<rscale>  1 0.30000000E+03</rscale>
<asrwt>0</asrwt>
<pdfrwt beam="1">  1       21 0.74149195E-02 0.30000000E+03</pdfrwt>
<pdfrwt beam="2">0</pdfrwt>
<totfact> 0.14592982E+04</totfact>
</mgrwt>
</event>
<event>
 6    1  0.6513574E-002  0.3000000E+03  0.7818608E-02  0.1093470E+00
         21   -1    0    0  501  502  0.00000000000E+00  0.00000000000E+00  0.15217562224E+01  0.15217562224E+01  0.00000000000E+00 0. -1.
         13   -1    0    0    0    0 -0.00000000000E+00 -0.00000000000E+00 -0.10000000000E+04  0.10000000000E+04  0.00000000000E+00 0.  1.
    9000005    2    1    2  501    0  0.30369841806E+02  0.19338947199E+02 -0.69052313940E+03  0.69146906959E+03  0.33084732678E+01 0.  0.
         13    1    3    3    0    0  0.13728756867E+02  0.10010440206E+02 -0.34944681680E+03  0.34985963679E+03  0.00000000000E+00 0.  1.
          3    1    3    3  501    0  0.16641084939E+02  0.93285069937E+01 -0.34107632259E+03  0.34160943281E+03  0.00000000000E+00 0.  1.
         -1    1    1    2    0  502 -0.30369841806E+02 -0.19338947199E+02 -0.30795510438E+03  0.31005268663E+03  0.00000000000E+00 0. -1.
<mgrwt>
<rscale>  1 0.30000000E+03</rscale>
<asrwt>0</asrwt>
<pdfrwt beam="1">  1       21 0.55336707E-02 0.30000000E+03</pdfrwt>
<pdfrwt beam="2">0</pdfrwt>
<totfact> 0.24219302E+04</totfact>
</mgrwt>
</event>
<event>
 6    1  0.6513574E-002  0.3000000E+03  0.7818608E-02  0.1093470E+00
         21   -1    0    0  501  502  0.00000000000E+00  0.00000000000E+00  0.15692370501E+01  0.15692370501E+01  0.00000000000E+00 0. -1.
         13   -1    0    0    0    0 -0.00000000000E+00 -0.00000000000E+00 -0.10000000000E+04  0.10000000000E+04  0.00000000000E+00 0.  1.
    9000005    2    1    2  501    0  0.15960798410E+01  0.32832397805E+02 -0.22197547769E+03  0.22441846415E+03  0.31655232851E+01 0.  0.
         13    1    3    3    0    0  0.10347731227E+01  0.31836018105E+02 -0.21245238054E+03  0.21482694617E+03  0.00000000000E+00 0.  1.
          1    1    3    3  501    0  0.56130671835E+00  0.99637970048E+00 -0.95230971529E+01  0.95915179781E+01  0.00000000000E+00 0.  1.
         -1    1    1    2    0  502 -0.15960798410E+01 -0.32832397805E+02 -0.77645528526E+03  0.77715077290E+03  0.00000000000E+00 0. -1.
<mgrwt>
<rscale>  1 0.30000000E+03</rscale>
<asrwt>0</asrwt>
<pdfrwt beam="1">  1       21 0.57063286E-02 0.30000000E+03</pdfrwt>
<pdfrwt beam="2">0</pdfrwt>
<totfact> 0.22974379E+04</totfact>
</mgrwt>
</event>
<event>
 6    1  0.6513574E-002  0.3000000E+03  0.7818608E-02  0.1093470E+00
         21   -1    0    0  501  502  0.00000000000E+00  0.00000000000E+00  0.12806570348E+01  0.12806570348E+01  0.00000000000E+00 0. -1.
         13   -1    0    0    0    0 -0.00000000000E+00 -0.00000000000E+00 -0.10000000000E+04  0.10000000000E+04  0.00000000000E+00 0.  1.
    9000005    2    1    2  501    0  0.34815858608E+02 -0.67692224602E+01 -0.55623775302E+03  0.55737985300E+03  0.37277688833E+01 0.  0.
         13    1    3    3    0    0  0.30670439037E+02 -0.60093337949E+01 -0.46884846990E+03  0.46988900355E+03  0.00000000000E+00 0.  1.
          3    1    3    3  501    0  0.41454195710E+01 -0.75988866527E+00 -0.87389283117E+02  0.87490849452E+02  0.00000000000E+00 0.  1.
         -3    1    1    2    0  502 -0.34815858608E+02  0.67692224602E+01 -0.44248158994E+03  0.44390080404E+03  0.00000000000E+00 0. -1.
<mgrwt>
<rscale>  1 0.30000000E+03</rscale>
<asrwt>0</asrwt>
<pdfrwt beam="1">  1       21 0.46569445E-02 0.30000000E+03</pdfrwt>
<pdfrwt beam="2">0</pdfrwt>
<totfact> 0.32508963E+04</totfact>
</mgrwt>
</event>
<event>
 6    1  0.6513574E-002  0.3000000E+03  0.7818608E-02  0.1093470E+00
         21   -1    0    0  501  502  0.00000000000E+00  0.00000000000E+00  0.11320599639E+01  0.11320599639E+01  0.00000000000E+00 0. -1.
         13   -1    0    0    0    0 -0.00000000000E+00 -0.00000000000E+00 -0.10000000000E+04  0.10000000000E+04  0.00000000000E+00 0.  1.
    9000005    2    1    2  501    0 -0.26697444893E+02  0.16657071846E+02 -0.67405172095E+03  0.67479513623E+03  0.35414356852E+01 0.  0.
         13    1    3    3    0    0 -0.25002011193E+02  0.16178389745E+02 -0.64798907462E+03  0.64867301600E+03  0.00000000000E+00 0.  1.
          3    1    3    3  501    0 -0.16954337002E+01  0.47868210156E+00 -0.26062646323E+02  0.26122120231E+02  0.00000000000E+00 0.  1.
         -3    1    1    2    0  502  0.26697444893E+02 -0.16657071846E+02 -0.32481621909E+03  0.32633692373E+03  0.00000000000E+00 0. -1.
<mgrwt>
<rscale>  1 0.30000000E+03</rscale>
<asrwt>0</asrwt>
<pdfrwt beam="1">  1       21 0.41165904E-02 0.30000000E+03</pdfrwt>
<pdfrwt beam="2">0</pdfrwt>
<totfact> 0.40059886E+04</totfact>
</mgrwt>
</event>
<event>
 6    1  0.6513574E-002  0.3000000E+03  0.7818608E-02  0.1093470E+00
         21   -1    0    0  501  502  0.00000000000E+00  0.00000000000E+00  0.15269149572E+01  0.15269149572E+01  0.00000000000E+00 0. -1.
         13   -1    0    0    0    0 -0.00000000000E+00 -0.00000000000E+00 -0.10000000000E+04  0.10000000000E+04  0.00000000000E+00 0.  1.
    9000005    2    1    2  501    0 -0.11895513335E+02 -0.32986857701E+02 -0.71598272049E+03  0.71686844927E+03  0.62834313441E+01 0.  0.
         13    1    3    3    0    0 -0.70735200788E-01 -0.17825959450E+01 -0.17916212254E+02  0.18004813615E+02  0.00000000000E+00 0.  1.
          1    1    3    3  501    0 -0.11824778135E+02 -0.31204261756E+02 -0.69806650823E+03  0.69886363566E+03  0.00000000000E+00 0.  1.
         -1    1    1    2    0  502  0.11895513335E+02  0.32986857701E+02 -0.28249036456E+03  0.28465846568E+03  0.00000000000E+00 0. -1.
<mgrwt>
<rscale>  1 0.30000000E+03</rscale>
<asrwt>0</asrwt>
<pdfrwt beam="1">  1       21 0.55524297E-02 0.30000000E+03</pdfrwt>
<pdfrwt beam="2">0</pdfrwt>
<totfact> 0.24079085E+04</totfact>
</mgrwt>
</event>
<event>
 6    1  0.6513574E-002  0.3000000E+03  0.7818608E-02  0.1093470E+00
         21   -1    0    0  501  502  0.00000000000E+00  0.00000000000E+00  0.10788508175E+01  0.10788508175E+01  0.00000000000E+00 0. -1.
         13   -1    0    0    0    0 -0.00000000000E+00 -0.00000000000E+00 -0.10000000000E+04  0.10000000000E+04  0.00000000000E+00 0.  1.
    9000005    2    1    2  501    0  0.24535395666E+01  0.31761698499E+02 -0.38457410794E+03  0.38590642586E+03  0.34204783433E+01 0.  0.
         13    1    3    3    0    0  0.12319837338E+01  0.26196797622E+02 -0.30243221261E+03  0.30356718073E+03  0.00000000000E+00 0.  1.
          1    1    3    3  501    0  0.12215558328E+01  0.55649008770E+01 -0.82141895329E+02  0.82339245130E+02  0.00000000000E+00 0.  1.
         -1    1    1    2    0  502 -0.24535395666E+01 -0.31761698499E+02 -0.61434704124E+03  0.61517242496E+03  0.00000000000E+00 0. -1.
<mgrwt>
<rscale>  1 0.30000000E+03</rscale>
<asrwt>0</asrwt>
<pdfrwt beam="1">  1       21 0.39231022E-02 0.30000000E+03</pdfrwt>
<pdfrwt beam="2">0</pdfrwt>
<totfact> 0.43443881E+04</totfact>
</mgrwt>
</event>
<event>
 6    1  0.6513574E-002  0.3000000E+03  0.7818608E-02  0.1093470E+00
         21   -1    0    0  501  502  0.00000000000E+00  0.00000000000E+00  0.71655021039E+01  0.71655021039E+01  0.00000000000E+00 0. -1.
         13   -1    0    0    0    0 -0.00000000000E+00 -0.00000000000E+00 -0.10000000000E+04  0.10000000000E+04  0.00000000000E+00 0.  1.
    9000005    2    1    2  501    0 -0.53387977292E+02  0.44202896872E+02 -0.78537667032E+03  0.78843525172E+03  0.30756556333E+01 0.  0.
         13    1    3    3    0    0 -0.32169024284E+02  0.25729724718E+02 -0.48177310540E+03  0.48353096069E+03  0.00000000000E+00 0.  1.
          1    1    3    3  501    0 -0.21218953009E+02  0.18473172154E+02 -0.30360356492E+03  0.30490429103E+03  0.00000000000E+00 0.  1.
         -3    1    1    2    0  502  0.53387977292E+02 -0.44202896872E+02 -0.20745782757E+03  0.21873025038E+03  0.00000000000E+00 0. -1.
<mgrwt>
<rscale>  1 0.30000000E+03</rscale>
<asrwt>0</asrwt>
<pdfrwt beam="1">  1       21 0.26056426E-01 0.30000000E+03</pdfrwt>
<pdfrwt beam="2">0</pdfrwt>
<totfact> 0.14378683E+03</totfact>
</mgrwt>
</event>
<event>
 6    1  0.6513574E-002  0.3000000E+03  0.7818608E-02  0.1093470E+00
         21   -1    0    0  501  502  0.00000000000E+00  0.00000000000E+00  0.10291593527E+01  0.10291593527E+01  0.00000000000E+00 0. -1.
         13   -1    0    0    0    0 -0.00000000000E+00 -0.00000000000E+00 -0.10000000000E+04  0.10000000000E+04  0.00000000000E+00 0.  1.
    9000005    2    1    2  501    0  0.22118820736E+02  0.20615808173E+02 -0.66293479233E+03  0.66363550270E+03  0.39099605824E+01 0.  0.
         13    1    3    3    0    0  0.19914856299E+02  0.16682509550E+02 -0.56649149069E+03  0.56708686870E+03  0.00000000000E+00 0.  1.
          3    1    3    3  501    0  0.22039644368E+01  0.39332986224E+01 -0.96443301636E+02  0.96548634002E+02  0.00000000000E+00 0.  1.
         -3    1    1    2    0  502 -0.22118820736E+02 -0.20615808173E+02 -0.33603604832E+03  0.33739365665E+03  0.00000000000E+00 0. -1.
<mgrwt>
<rscale>  1 0.30000000E+03</rscale>
<asrwt>0</asrwt>
<pdfrwt beam="1">  1       21 0.37424055E-02 0.30000000E+03</pdfrwt>
<pdfrwt beam="2">0</pdfrwt>
<totfact> 0.47027090E+04</totfact>
</mgrwt>
</event>
<event>
 6    1  0.6513574E-002  0.3000000E+03  0.7818608E-02  0.1093470E+00
         21   -1    0    0  501  502  0.00000000000E+00  0.00000000000E+00  0.10471584193E+01  0.10471584193E+01  0.00000000000E+00 0. -1.
         13   -1    0    0    0    0 -0.00000000000E+00 -0.00000000000E+00 -0.10000000000E+04  0.10000000000E+04  0.00000000000E+00 0.  1.
    9000005    2    1    2  501    0  0.54037192134E+01 -0.31450647570E+02 -0.49385860458E+03  0.49494585269E+03  0.75320886277E+01 0.  0.
         13    1    3    3    0    0  0.42875500256E+01 -0.31278291452E+02 -0.48230515082E+03  0.48333732849E+03  0.00000000000E+00 0.  1.
          3    1    3    3  501    0  0.11161691877E+01 -0.17235611779E+00 -0.11553453757E+02  0.11608524195E+02  0.00000000000E+00 0.  1.
         -1    1    1    2    0  502 -0.54037192134E+01  0.31450647570E+02 -0.50509423700E+03  0.50610130573E+03  0.00000000000E+00 0. -1.
<mgrwt>
<rscale>  1 0.30000000E+03</rscale>
<asrwt>0</asrwt>
<pdfrwt beam="1">  1       21 0.38078568E-02 0.30000000E+03</pdfrwt>
<pdfrwt beam="2">0</pdfrwt>
<totfact> 0.45677288E+04</totfact>
</mgrwt>
</event>
<event>
 6    1  0.6513574E-002  0.3000000E+03  0.7818608E-02  0.1093470E+00
         21   -1    0    0  501  502  0.00000000000E+00  0.00000000000E+00  0.35781096951E+01  0.35781096951E+01  0.00000000000E+00 0. -1.
         13   -1    0    0    0    0 -0.00000000000E+00 -0.00000000000E+00 -0.10000000000E+04  0.10000000000E+04  0.00000000000E+00 0.  1.
    9000005    2    1    2  501    0 -0.33455382444E+02 -0.40291072807E+02 -0.25690681854E+03  0.26221101134E+03  0.32966484375E+01 0.  0.
         13    1    3    3    0    0 -0.96823815853E+01 -0.10212725652E+02 -0.63469985453E+02  0.65011440007E+02  0.00000000000E+00 0.  1.
          3    1    3    3  501    0 -0.23773000859E+02 -0.30078347155E+02 -0.19343683309E+03  0.19719957133E+03  0.00000000000E+00 0.  1.
         -3    1    1    2    0  502  0.33455382444E+02  0.40291072807E+02 -0.73951507176E+03  0.74136709836E+03  0.00000000000E+00 0. -1.
<mgrwt>
<rscale>  1 0.30000000E+03</rscale>
<asrwt>0</asrwt>
<pdfrwt beam="1">  1       21 0.13011335E-01 0.30000000E+03</pdfrwt>
<pdfrwt beam="2">0</pdfrwt>
<totfact> 0.53480052E+03</totfact>
</mgrwt>
</event>
<event>
 6    1  0.6513574E-002  0.3000000E+03  0.7818608E-02  0.1093470E+00
         21   -1    0    0  501  502  0.00000000000E+00  0.00000000000E+00  0.16165226982E+01  0.16165226982E+01  0.00000000000E+00 0. -1.
         13   -1    0    0    0    0 -0.00000000000E+00 -0.00000000000E+00 -0.10000000000E+04  0.10000000000E+04  0.00000000000E+00 0.  1.
    9000005    2    1    2  501    0  0.38336322827E+02  0.27461818231E+01 -0.64076170192E+03  0.64193534527E+03  0.53116577720E+01 0.  0.
         13    1    3    3    0    0  0.15088813560E+02 -0.32572078130E+00 -0.21575033476E+03  0.21627756550E+03  0.00000000000E+00 0.  1.
          3    1    3    3  501    0  0.23247509267E+02  0.30719026044E+01 -0.42501136715E+03  0.42565777977E+03  0.00000000000E+00 0.  1.
         -3    1    1    2    0  502 -0.38336322827E+02 -0.27461818231E+01 -0.35762177539E+03  0.35968117742E+03  0.00000000000E+00 0. -1.
<mgrwt>
<rscale>  1 0.30000000E+03</rscale>
<asrwt>0</asrwt>
<pdfrwt beam="1">  1       21 0.58782768E-02 0.30000000E+03</pdfrwt>
<pdfrwt beam="2">0</pdfrwt>
<totfact> 0.21829524E+04</totfact>
</mgrwt>
</event>
<event>
 6    1  0.6513574E-002  0.3000000E+03  0.7818608E-02  0.1093470E+00
         21   -1    0    0  501  502  0.00000000000E+00  0.00000000000E+00  0.47018708153E+01  0.47018708153E+01  0.00000000000E+00 0. -1.
         13   -1    0    0    0    0 -0.00000000000E+00 -0.00000000000E+00 -0.10000000000E+04  0.10000000000E+04  0.00000000000E+00 0.  1.
    9000005    2    1    2  501    0  0.50208519851E+02 -0.36586003443E+02 -0.70988722468E+03  0.71260802370E+03  0.33003880614E+01 0.  0.
         13    1    3    3    0    0  0.86043657048E+01 -0.78616200961E+01 -0.13320769877E+03  0.13371660776E+03  0.00000000000E+00 0.  1.
          1    1    3    3  501    0  0.41604154146E+02 -0.28724383347E+02 -0.57667952591E+03  0.57889141593E+03  0.00000000000E+00 0.  1.
         -1    1    1    2    0  502 -0.50208519851E+02  0.36586003443E+02 -0.28541090451E+03  0.29209384712E+03  0.00000000000E+00 0. -1.
<mgrwt>
<rscale>  1 0.30000000E+03</rscale>
<asrwt>0</asrwt>
<pdfrwt beam="1">  1       21 0.17097748E-01 0.30000000E+03</pdfrwt>
<pdfrwt beam="2">0</pdfrwt>
<totfact> 0.32266759E+03</totfact>
</mgrwt>
</event>
<event>
 6    1  0.6513574E-002  0.3000000E+03  0.7818608E-02  0.1093470E+00
         21   -1    0    0  501  502  0.00000000000E+00  0.00000000000E+00  0.15186708456E+01  0.15186708456E+01  0.00000000000E+00 0. -1.
         13   -1    0    0    0    0 -0.00000000000E+00 -0.00000000000E+00 -0.10000000000E+04  0.10000000000E+04  0.00000000000E+00 0.  1.
    9000005    2    1    2  501    0  0.31189563324E+02  0.23177201050E+02 -0.50534942457E+03  0.50685813389E+03  0.41419152026E+01 0.  0.
         13    1    3    3    0    0  0.98012017637E+01  0.88320157245E+01 -0.19140108964E+03  0.19185527143E+03  0.00000000000E+00 0.  1.
          3    1    3    3  501    0  0.21388361560E+02  0.14345185326E+02 -0.31394833493E+03  0.31500286246E+03  0.00000000000E+00 0.  1.
         -1    1    1    2    0  502 -0.31189563324E+02 -0.23177201050E+02 -0.49313190458E+03  0.49466053696E+03  0.00000000000E+00 0. -1.
<mgrwt>
<rscale>  1 0.30000000E+03</rscale>
<asrwt>0</asrwt>
<pdfrwt beam="1">  1       21 0.55224511E-02 0.30000000E+03</pdfrwt>
<pdfrwt beam="2">0</pdfrwt>
<totfact> 0.24303765E+04</totfact>
</mgrwt>
</event>
<event>
 6    1  0.6513574E-002  0.3000000E+03  0.7818608E-02  0.1093470E+00
         21   -1    0    0  501  502  0.00000000000E+00  0.00000000000E+00  0.21275175285E+01  0.21275175285E+01  0.00000000000E+00 0. -1.
         13   -1    0    0    0    0 -0.00000000000E+00 -0.00000000000E+00 -0.10000000000E+04  0.10000000000E+04  0.00000000000E+00 0.  1.
    9000005    2    1    2  501    0  0.50702696378E+00  0.44747027066E+02 -0.61803771579E+03  0.61966575017E+03  0.35313301721E+01 0.  0.
         13    1    3    3    0    0 -0.57840370595E+00  0.13106889544E+02 -0.20150660952E+03  0.20193325329E+03  0.00000000000E+00 0.  1.
          1    1    3    3  501    0  0.10854306697E+01  0.31640137522E+02 -0.41653110627E+03  0.41773249688E+03  0.00000000000E+00 0.  1.
         -3    1    1    2    0  502 -0.50702696378E+00 -0.44747027066E+02 -0.37983476668E+03  0.38246176736E+03  0.00000000000E+00 0. -1.
<mgrwt>
<rscale>  1 0.30000000E+03</rscale>
<asrwt>0</asrwt>
<pdfrwt beam="1">  1       21 0.77364437E-02 0.30000000E+03</pdfrwt>
<pdfrwt beam="2">0</pdfrwt>
<totfact> 0.13547318E+04</totfact>
</mgrwt>
</event>
<event>
 6    1  0.6513574E-002  0.3000000E+03  0.7818608E-02  0.1093470E+00
         21   -1    0    0  501  502  0.00000000000E+00  0.00000000000E+00  0.39911769122E+01  0.39911769122E+01  0.00000000000E+00 0. -1.
         13   -1    0    0    0    0 -0.00000000000E+00 -0.00000000000E+00 -0.10000000000E+04  0.10000000000E+04  0.00000000000E+00 0.  1.
    9000005    2    1    2  501    0  0.45462748946E+02  0.70943465203E+01 -0.15471312266E+03  0.16143812407E+03  0.29876890714E+01 0.  0.
         13    1    3    3    0    0  0.21049871468E+02  0.45639054582E+01 -0.75086106384E+02  0.78114337313E+02  0.00000000000E+00 0.  1.
          1    1    3    3  501    0  0.24412877478E+02  0.25304410622E+01 -0.79627016279E+02  0.83323786761E+02  0.00000000000E+00 0.  1.
         -3    1    1    2    0  502 -0.45462748946E+02 -0.70943465203E+01 -0.84129570042E+03  0.84255305284E+03  0.00000000000E+00 0. -1.
<mgrwt>
<rscale>  1 0.30000000E+03</rscale>
<asrwt>0</asrwt>
<pdfrwt beam="1">  1       21 0.14513401E-01 0.30000000E+03</pdfrwt>
<pdfrwt beam="2">0</pdfrwt>
<totfact> 0.43767157E+03</totfact>
</mgrwt>
</event>
<event>
 6    1  0.6513574E-002  0.3000000E+03  0.7818608E-02  0.1093470E+00
         21   -1    0    0  501  502  0.00000000000E+00  0.00000000000E+00  0.25983612256E+01  0.25983612256E+01  0.00000000000E+00 0. -1.
         13   -1    0    0    0    0 -0.00000000000E+00 -0.00000000000E+00 -0.10000000000E+04  0.10000000000E+04  0.00000000000E+00 0.  1.
    9000005    2    1    2  501    0  0.30602693437E+02  0.32734151476E+02 -0.73711090874E+03  0.73847847621E+03  0.31493689202E+01 0.  0.
         13    1    3    3    0    0  0.55533430042E+01  0.42874736850E+01 -0.11241185742E+03  0.11263058083E+03  0.00000000000E+00 0.  1.
          1    1    3    3  501    0  0.25049350433E+02  0.28446677791E+02 -0.62469905132E+03  0.62584789538E+03  0.00000000000E+00 0.  1.
         -3    1    1    2    0  502 -0.30602693437E+02 -0.32734151476E+02 -0.26029073004E+03  0.26411988502E+03  0.00000000000E+00 0. -1.
<mgrwt>
<rscale>  1 0.30000000E+03</rscale>
<asrwt>0</asrwt>
<pdfrwt beam="1">  1       21 0.94486062E-02 0.30000000E+03</pdfrwt>
<pdfrwt beam="2">0</pdfrwt>
<totfact> 0.95192390E+03</totfact>
</mgrwt>
</event>
<event>
 6    1  0.6513574E-002  0.3000000E+03  0.7818608E-02  0.1093470E+00
         21   -1    0    0  501  502  0.00000000000E+00  0.00000000000E+00  0.98834875299E+00  0.98834875299E+00  0.00000000000E+00 0. -1.
         13   -1    0    0    0    0 -0.00000000000E+00 -0.00000000000E+00 -0.10000000000E+04  0.10000000000E+04  0.00000000000E+00 0.  1.
    9000005    2    1    2  501    0  0.14474962222E+02 -0.27353429616E+02 -0.58066369078E+03  0.58149728727E+03  0.33224480255E+01 0.  0.
         13    1    3    3    0    0  0.12906185145E+02 -0.21658761346E+02 -0.46597991515E+03  0.46666149710E+03  0.00000000000E+00 0.  1.
          3    1    3    3  501    0  0.15687770775E+01 -0.56946682705E+01 -0.11468377563E+03  0.11483579016E+03  0.00000000000E+00 0.  1.
         -3    1    1    2    0  502 -0.14474962222E+02  0.27353429616E+02 -0.41834796046E+03  0.41949106149E+03  0.00000000000E+00 0. -1.
<mgrwt>
<rscale>  1 0.30000000E+03</rscale>
<asrwt>0</asrwt>
<pdfrwt beam="1">  1       21 0.35940030E-02 0.30000000E+03</pdfrwt>
<pdfrwt beam="2">0</pdfrwt>
<totfact> 0.50330828E+04</totfact>
</mgrwt>
</event>
<event>
 6    1  0.6513574E-002  0.3000000E+03  0.7818608E-02  0.1093470E+00
         21   -1    0    0  501  502  0.00000000000E+00  0.00000000000E+00  0.20804819115E+01  0.20804819115E+01  0.00000000000E+00 0. -1.
         13   -1    0    0    0    0 -0.00000000000E+00 -0.00000000000E+00 -0.10000000000E+04  0.10000000000E+04  0.00000000000E+00 0.  1.
    9000005    2    1    2  501    0  0.72749304280E+01  0.44845693877E+02 -0.46201410863E+03  0.46425275042E+03  0.30852600131E+01 0.  0.
         13    1    3    3    0    0  0.78068976921E+00  0.94411417555E+01 -0.10696810433E+03  0.10738677748E+03  0.00000000000E+00 0.  1.
          3    1    3    3  501    0  0.64942406588E+01  0.35404552121E+02 -0.35504600430E+03  0.35686597294E+03  0.00000000000E+00 0.  1.
         -3    1    1    2    0  502 -0.72749304280E+01 -0.44845693877E+02 -0.53590540946E+03  0.53782773149E+03  0.00000000000E+00 0. -1.
<mgrwt>
<rscale>  1 0.30000000E+03</rscale>
<asrwt>0</asrwt>
<pdfrwt beam="1">  1       21 0.75654047E-02 0.30000000E+03</pdfrwt>
<pdfrwt beam="2">0</pdfrwt>
<totfact> 0.14088604E+04</totfact>
</mgrwt>
</event>
<event>
 6    1  0.6513574E-002  0.3000000E+03  0.7818608E-02  0.1093470E+00
         21   -1    0    0  501  502  0.00000000000E+00  0.00000000000E+00  0.18472298021E+01  0.18472298021E+01  0.00000000000E+00 0. -1.
         13   -1    0    0    0    0 -0.00000000000E+00 -0.00000000000E+00 -0.10000000000E+04  0.10000000000E+04  0.00000000000E+00 0.  1.
    9000005    2    1    2  501    0 -0.36105680225E+02 -0.22687248239E+02 -0.45456217119E+03  0.45658667676E+03  0.51278200091E+01 0.  0.
         13    1    3    3    0    0 -0.16941322758E+02 -0.13078183037E+02 -0.21086231485E+03  0.21194566076E+03  0.00000000000E+00 0.  1.
          1    1    3    3  501    0 -0.19164357467E+02 -0.96090652019E+01 -0.24369985634E+03  0.24464101600E+03  0.00000000000E+00 0.  1.
         -1    1    1    2    0  502  0.36105680225E+02  0.22687248239E+02 -0.54359059901E+03  0.54526055304E+03  0.00000000000E+00 0. -1.
<mgrwt>
<rscale>  1 0.30000000E+03</rscale>
<asrwt>0</asrwt>
<pdfrwt beam="1">  1       21 0.67172134E-02 0.30000000E+03</pdfrwt>
<pdfrwt beam="2">0</pdfrwt>
<totfact> 0.17333848E+04</totfact>
</mgrwt>
</event>
<event>
 6    1  0.6513574E-002  0.3000000E+03  0.7818608E-02  0.1093470E+00
         21   -1    0    0  501  502  0.00000000000E+00  0.00000000000E+00  0.21725796857E+01  0.21725796857E+01  0.00000000000E+00 0. -1.
         13   -1    0    0    0    0 -0.00000000000E+00 -0.00000000000E+00 -0.10000000000E+04  0.10000000000E+04  0.00000000000E+00 0.  1.
    9000005    2    1    2  501    0  0.36111795215E+01  0.34351608723E+02 -0.83476609797E+03  0.83549304140E+03  0.45945907037E+01 0.  0.
         13    1    3    3    0    0  0.52015047306E+00  0.23674630019E+02 -0.54693727804E+03  0.54744967328E+03  0.00000000000E+00 0.  1.
          3    1    3    3  501    0  0.30910290484E+01  0.10676978705E+02 -0.28782881993E+03  0.28804336812E+03  0.00000000000E+00 0.  1.
         -1    1    1    2    0  502 -0.36111795215E+01 -0.34351608723E+02 -0.16306132235E+03  0.16667953829E+03  0.00000000000E+00 0. -1.
<mgrwt>
<rscale>  1 0.30000000E+03</rscale>
<asrwt>0</asrwt>
<pdfrwt beam="1">  1       21 0.79003064E-02 0.30000000E+03</pdfrwt>
<pdfrwt beam="2">0</pdfrwt>
<totfact> 0.13058247E+04</totfact>
</mgrwt>
</event>
<event>
 6    1  0.6513574E-002  0.3000000E+03  0.7818608E-02  0.1093470E+00
         21   -1    0    0  501  502  0.00000000000E+00  0.00000000000E+00  0.20921698339E+01  0.20921698339E+01  0.00000000000E+00 0. -1.
         13   -1    0    0    0    0 -0.00000000000E+00 -0.00000000000E+00 -0.10000000000E+04  0.10000000000E+04  0.00000000000E+00 0.  1.
    9000005    2    1    2  501    0  0.45012529495E+02 -0.69895045777E+01 -0.53703415181E+03  0.53897282411E+03  0.33232407331E+01 0.  0.
         13    1    3    3    0    0  0.38964179189E+02 -0.66144498497E+01 -0.45324784318E+03  0.45496765331E+03  0.00000000000E+00 0.  1.
          1    1    3    3  501    0  0.60483503062E+01 -0.37505472805E+00 -0.83786308633E+02  0.84005170804E+02  0.00000000000E+00 0.  1.
         -1    1    1    2    0  502 -0.45012529495E+02  0.69895045777E+01 -0.46087367835E+03  0.46311934572E+03  0.00000000000E+00 0. -1.
<mgrwt>
<rscale>  1 0.30000000E+03</rscale>
<asrwt>0</asrwt>
<pdfrwt beam="1">  1       21 0.76079063E-02 0.30000000E+03</pdfrwt>
<pdfrwt beam="2">0</pdfrwt>
<totfact> 0.13951021E+04</totfact>
</mgrwt>
</event>
<event>
 6    1  0.6513574E-002  0.3000000E+03  0.7818608E-02  0.1093470E+00
         21   -1    0    0  501  502  0.00000000000E+00  0.00000000000E+00  0.20771958167E+01  0.20771958167E+01  0.00000000000E+00 0. -1.
         13   -1    0    0    0    0 -0.00000000000E+00 -0.00000000000E+00 -0.10000000000E+04  0.10000000000E+04  0.00000000000E+00 0.  1.
    9000005    2    1    2  501    0  0.24864981864E+02 -0.34996384425E+02 -0.66609776727E+03  0.66748659618E+03  0.30176589515E+01 0.  0.
         13    1    3    3    0    0  0.18245925347E+02 -0.25463725188E+02 -0.46458156917E+03  0.46563649932E+03  0.00000000000E+00 0.  1.
          3    1    3    3  501    0  0.66190565171E+01 -0.95326592374E+01 -0.20151619811E+03  0.20185009686E+03  0.00000000000E+00 0.  1.
         -3    1    1    2    0  502 -0.24864981864E+02  0.34996384425E+02 -0.33182503691E+03  0.33459059964E+03  0.00000000000E+00 0. -1.
<mgrwt>
<rscale>  1 0.30000000E+03</rscale>
<asrwt>0</asrwt>
<pdfrwt beam="1">  1       21 0.75534553E-02 0.30000000E+03</pdfrwt>
<pdfrwt beam="2">0</pdfrwt>
<totfact> 0.14127664E+04</totfact>
</mgrwt>
</event>
<event>
 6    1  0.6513574E-002  0.3000000E+03  0.7818608E-02  0.1093470E+00
         21   -1    0    0  501  502  0.00000000000E+00  0.00000000000E+00  0.57171080871E+01  0.57171080871E+01  0.00000000000E+00 0. -1.
         13   -1    0    0    0    0 -0.00000000000E+00 -0.00000000000E+00 -0.10000000000E+04  0.10000000000E+04  0.00000000000E+00 0.  1.
    9000005    2    1    2  501    0  0.68940579599E+02 -0.30833337970E+02 -0.51205717142E+03  0.51761348819E+03  0.42045349254E+01 0.  0.
         13    1    3    3    0    0  0.21760507841E+02 -0.90220012354E+01 -0.14738634069E+03  0.14925699189E+03  0.00000000000E+00 0.  1.
          3    1    3    3  501    0  0.47180071758E+02 -0.21811336734E+02 -0.36467083073E+03  0.36835649630E+03  0.00000000000E+00 0.  1.
         -3    1    1    2    0  502 -0.68940579599E+02  0.30833337970E+02 -0.48222572050E+03  0.48810361989E+03  0.00000000000E+00 0. -1.
<mgrwt>
<rscale>  1 0.30000000E+03</rscale>
<asrwt>0</asrwt>
<pdfrwt beam="1">  1       21 0.20789528E-01 0.30000000E+03</pdfrwt>
<pdfrwt beam="2">0</pdfrwt>
<totfact> 0.22280120E+03</totfact>
</mgrwt>
</event>
<event>
 6    1  0.6513574E-002  0.3000000E+03  0.7818608E-02  0.1093470E+00
         21   -1    0    0  501  502  0.00000000000E+00  0.00000000000E+00  0.13526559276E+01  0.13526559276E+01  0.00000000000E+00 0. -1.
         13   -1    0    0    0    0 -0.00000000000E+00 -0.00000000000E+00 -0.10000000000E+04  0.10000000000E+04  0.00000000000E+00 0.  1.
    9000005    2    1    2  501    0  0.26756549199E+02 -0.21418487484E+02 -0.67878552959E+03  0.67965987563E+03  0.36175724319E+01 0.  0.
         13    1    3    3    0    0  0.18422928383E+02 -0.16634628147E+02 -0.50240402563E+03  0.50301681891E+03  0.00000000000E+00 0.  1.
          3    1    3    3  501    0  0.83336208160E+01 -0.47838593369E+01 -0.17638150396E+03  0.17664305672E+03  0.00000000000E+00 0.  1.
         -1    1    1    2    0  502 -0.26756549199E+02  0.21418487484E+02 -0.31986181448E+03  0.32169278030E+03  0.00000000000E+00 0. -1.
<mgrwt>
<rscale>  1 0.30000000E+03</rscale>
<asrwt>0</asrwt>
<pdfrwt beam="1">  1       21 0.49187592E-02 0.30000000E+03</pdfrwt>
<pdfrwt beam="2">0</pdfrwt>
<totfact> 0.29620069E+04</totfact>
</mgrwt>
</event>
<event>
 6    1  0.6513574E-002  0.3000000E+03  0.7818608E-02  0.1093470E+00
         21   -1    0    0  501  502  0.00000000000E+00  0.00000000000E+00  0.17974753428E+01  0.17974753428E+01  0.00000000000E+00 0. -1.
         13   -1    0    0    0    0 -0.00000000000E+00 -0.00000000000E+00 -0.10000000000E+04  0.10000000000E+04  0.00000000000E+00 0.  1.
    9000005    2    1    2  501    0 -0.34613003176E+02 -0.24086752005E+02 -0.54444665306E+03  0.54608635783E+03  0.31496943756E+01 0.  0.
         13    1    3    3    0    0 -0.32544199011E+02 -0.22223369166E+02 -0.51656974103E+03  0.51807074843E+03  0.00000000000E+00 0.  1.
          1    1    3    3  501    0 -0.20688041654E+01 -0.18633828386E+01 -0.27876912022E+02  0.28015609402E+02  0.00000000000E+00 0.  1.
         -3    1    1    2    0  502  0.34613003176E+02  0.24086752005E+02 -0.45375587160E+03  0.45571111751E+03  0.00000000000E+00 0. -1.
<mgrwt>
<rscale>  1 0.30000000E+03</rscale>
<asrwt>0</asrwt>
<pdfrwt beam="1">  1       21 0.65362878E-02 0.30000000E+03</pdfrwt>
<pdfrwt beam="2">0</pdfrwt>
<totfact> 0.18173989E+04</totfact>
</mgrwt>
</event>
<event>
 6    1  0.6513574E-002  0.3000000E+03  0.7818608E-02  0.1093470E+00
         21   -1    0    0  501  502  0.00000000000E+00  0.00000000000E+00  0.35616938046E+01  0.35616938046E+01  0.00000000000E+00 0. -1.
         13   -1    0    0    0    0 -0.00000000000E+00 -0.00000000000E+00 -0.10000000000E+04  0.10000000000E+04  0.00000000000E+00 0.  1.
    9000005    2    1    2  501    0  0.30344655174E+02 -0.45205803325E+02 -0.29541033279E+03  0.30042260212E+03  0.47023819677E+01 0.  0.
         13    1    3    3    0    0  0.87263515997E+00 -0.30970480755E+01 -0.15095349129E+02  0.15434466762E+02  0.00000000000E+00 0.  1.
          1    1    3    3  501    0  0.29472020014E+02 -0.42108755249E+02 -0.28031498366E+03  0.28498813536E+03  0.00000000000E+00 0.  1.
         -1    1    1    2    0  502 -0.30344655174E+02  0.45205803325E+02 -0.70102797341E+03  0.70313909168E+03  0.00000000000E+00 0. -1.
<mgrwt>
<rscale>  1 0.30000000E+03</rscale>
<asrwt>0</asrwt>
<pdfrwt beam="1">  1       21 0.12951641E-01 0.30000000E+03</pdfrwt>
<pdfrwt beam="2">0</pdfrwt>
<totfact> 0.53930990E+03</totfact>
</mgrwt>
</event>
<event>
 6    1  0.6513574E-002  0.3000000E+03  0.7818608E-02  0.1093470E+00
         21   -1    0    0  501  502  0.00000000000E+00  0.00000000000E+00  0.10966099355E+01  0.10966099355E+01  0.00000000000E+00 0. -1.
         13   -1    0    0    0    0 -0.00000000000E+00 -0.00000000000E+00 -0.10000000000E+04  0.10000000000E+04  0.00000000000E+00 0.  1.
    9000005    2    1    2  501    0 -0.39783616497E+01  0.32753985999E+02 -0.52351493716E+03  0.52456452065E+03  0.33757871342E+01 0.  0.
         13    1    3    3    0    0  0.20039158829E+00  0.65096471511E+01 -0.89369752795E+02  0.89606742925E+02  0.00000000000E+00 0.  1.
          1    1    3    3  501    0 -0.41787532380E+01  0.26244338848E+02 -0.43414518436E+03  0.43495777773E+03  0.00000000000E+00 0.  1.
         -1    1    1    2    0  502  0.39783616497E+01 -0.32753985999E+02 -0.47538845290E+03  0.47653208928E+03  0.00000000000E+00 0. -1.
<mgrwt>
<rscale>  1 0.30000000E+03</rscale>
<asrwt>0</asrwt>
<pdfrwt beam="1">  1       21 0.39876809E-02 0.30000000E+03</pdfrwt>
<pdfrwt beam="2">0</pdfrwt>
<totfact> 0.42266287E+04</totfact>
</mgrwt>
</event>
<event>
 6    1  0.6513574E-002  0.3000000E+03  0.7818608E-02  0.1093470E+00
         21   -1    0    0  501  502  0.00000000000E+00  0.00000000000E+00  0.23166118881E+01  0.23166118881E+01  0.00000000000E+00 0. -1.
         13   -1    0    0    0    0 -0.00000000000E+00 -0.00000000000E+00 -0.10000000000E+04  0.10000000000E+04  0.00000000000E+00 0.  1.
    9000005    2    1    2  501    0 -0.44560955390E+02 -0.13246592884E+02 -0.37284484861E+03  0.37575109144E+03  0.38013963864E+01 0.  0.
         13    1    3    3    0    0 -0.14740432559E+02 -0.46658223677E+01 -0.13866381332E+03  0.13952312846E+03  0.00000000000E+00 0.  1.
          1    1    3    3  501    0 -0.29820522831E+02 -0.85807705167E+01 -0.23418103529E+03  0.23622796298E+03  0.00000000000E+00 0.  1.
         -1    1    1    2    0  502  0.44560955390E+02  0.13246592884E+02 -0.62483853950E+03  0.62656552045E+03  0.00000000000E+00 0. -1.
<mgrwt>
<rscale>  1 0.30000000E+03</rscale>
<asrwt>0</asrwt>
<pdfrwt beam="1">  1       21 0.84240610E-02 0.30000000E+03</pdfrwt>
<pdfrwt beam="2">0</pdfrwt>
<totfact> 0.11664335E+04</totfact>
</mgrwt>
</event>
<event>
 6    1  0.6513574E-002  0.3000000E+03  0.7818608E-02  0.1093470E+00
         21   -1    0    0  501  502  0.00000000000E+00  0.00000000000E+00  0.59767026476E+01  0.59767026476E+01  0.00000000000E+00 0. -1.
         13   -1    0    0    0    0 -0.00000000000E+00 -0.00000000000E+00 -0.10000000000E+04  0.10000000000E+04  0.00000000000E+00 0.  1.
    9000005    2    1    2  501    0 -0.61741501127E+02  0.39630129340E+02 -0.34102230662E+03  0.34886723383E+03  0.54381168052E+01 0.  0.
         13    1    3    3    0    0 -0.35573923178E+02  0.25264426756E+02 -0.21055986756E+03  0.21503314418E+03  0.00000000000E+00 0.  1.
          1    1    3    3  501    0 -0.26167577949E+02  0.14365702584E+02 -0.13046243906E+03  0.13383408965E+03  0.00000000000E+00 0.  1.
         -1    1    1    2    0  502  0.61741501127E+02 -0.39630129340E+02 -0.65300099074E+03  0.65710946882E+03  0.00000000000E+00 0. -1.
<mgrwt>
<rscale>  1 0.30000000E+03</rscale>
<asrwt>0</asrwt>
<pdfrwt beam="1">  1       21 0.21733510E-01 0.30000000E+03</pdfrwt>
<pdfrwt beam="2">0</pdfrwt>
<totfact> 0.20460149E+03</totfact>
</mgrwt>
</event>
<event>
 6    1  0.6513574E-002  0.3000000E+03  0.7818608E-02  0.1093470E+00
         21   -1    0    0  501  502  0.00000000000E+00  0.00000000000E+00  0.94940004938E+00  0.94940004938E+00  0.00000000000E+00 0. -1.
         13   -1    0    0    0    0 -0.00000000000E+00 -0.00000000000E+00 -0.10000000000E+04  0.10000000000E+04  0.00000000000E+00 0.  1.
    9000005    2    1    2  501    0 -0.17111071902E+02  0.24791588415E+02 -0.41309283382E+03  0.41421784702E+03  0.48294714202E+01 0.  0.
         13    1    3    3    0    0 -0.36606496718E+01  0.27566044894E+01 -0.50709235339E+02  0.50915869559E+02  0.00000000000E+00 0.  1.
          1    1    3    3  501    0 -0.13450422231E+02  0.22034983926E+02 -0.36238359848E+03  0.36330197746E+03  0.00000000000E+00 0.  1.
         -3    1    1    2    0  502  0.17111071902E+02 -0.24791588415E+02 -0.58595776613E+03  0.58673155303E+03  0.00000000000E+00 0. -1.
<mgrwt>
<rscale>  1 0.30000000E+03</rscale>
<asrwt>0</asrwt>
<pdfrwt beam="1">  1       21 0.34523711E-02 0.30000000E+03</pdfrwt>
<pdfrwt beam="2">0</pdfrwt>
<totfact> 0.53837345E+04</totfact>
</mgrwt>
</event>
<event>
 6    1  0.6513574E-002  0.3000000E+03  0.7818608E-02  0.1093470E+00
         21   -1    0    0  501  502  0.00000000000E+00  0.00000000000E+00  0.22065305487E+01  0.22065305487E+01  0.00000000000E+00 0. -1.
         13   -1    0    0    0    0 -0.00000000000E+00 -0.00000000000E+00 -0.10000000000E+04  0.10000000000E+04  0.00000000000E+00 0.  1.
    9000005    2    1    2  501    0 -0.31335304092E+02 -0.18341340992E+02 -0.18305031362E+03  0.18665474430E+03  0.37775895867E+01 0.  0.
         13    1    3    3    0    0 -0.18203940366E+02 -0.12405163180E+02 -0.10515568212E+03  0.10743830323E+03  0.00000000000E+00 0.  1.
          1    1    3    3  501    0 -0.13131363726E+02 -0.59361778115E+01 -0.77894631500E+02  0.79216441077E+02  0.00000000000E+00 0.  1.
         -3    1    1    2    0  502  0.31335304092E+02  0.18341340992E+02 -0.81474315583E+03  0.81555178625E+03  0.00000000000E+00 0. -1.
<mgrwt>
<rscale>  1 0.30000000E+03</rscale>
<asrwt>0</asrwt>
<pdfrwt beam="1">  1       21 0.80237644E-02 0.30000000E+03</pdfrwt>
<pdfrwt beam="2">0</pdfrwt>
<totfact> 0.12707485E+04</totfact>
</mgrwt>
</event>
<event>
 6    1  0.6513574E-002  0.3000000E+03  0.7818608E-02  0.1093470E+00
         21   -1    0    0  501  502  0.00000000000E+00  0.00000000000E+00  0.11380166158E+01  0.11380166158E+01  0.00000000000E+00 0. -1.
         13   -1    0    0    0    0 -0.00000000000E+00 -0.00000000000E+00 -0.10000000000E+04  0.10000000000E+04  0.00000000000E+00 0.  1.
    9000005    2    1    2  501    0  0.33097546223E+02 -0.43078095299E+01 -0.56552477292E+03  0.56651732825E+03  0.30999393896E+01 0.  0.
         13    1    3    3    0    0  0.14651859672E+02 -0.46099229088E+00 -0.23810447444E+03  0.23855529811E+03  0.00000000000E+00 0.  1.
          1    1    3    3  501    0  0.18445686551E+02 -0.38468172390E+01 -0.32742029848E+03  0.32796203014E+03  0.00000000000E+00 0.  1.
         -3    1    1    2    0  502 -0.33097546223E+02  0.43078095299E+01 -0.43333721046E+03  0.43462068837E+03  0.00000000000E+00 0. -1.
<mgrwt>
<rscale>  1 0.30000000E+03</rscale>
<asrwt>0</asrwt>
<pdfrwt beam="1">  1       21 0.41382510E-02 0.30000000E+03</pdfrwt>
<pdfrwt beam="2">0</pdfrwt>
<totfact> 0.39706811E+04</totfact>
</mgrwt>
</event>
<event>
 6    1  0.6513574E-002  0.3000000E+03  0.7818608E-02  0.1093470E+00
         21   -1    0    0  501  502  0.00000000000E+00  0.00000000000E+00  0.12217057844E+01  0.12217057844E+01  0.00000000000E+00 0. -1.
         13   -1    0    0    0    0 -0.00000000000E+00 -0.00000000000E+00 -0.10000000000E+04  0.10000000000E+04  0.00000000000E+00 0.  1.
    9000005    2    1    2  501    0 -0.16002142081E+01  0.30208871470E+02 -0.25175434944E+03  0.25358549033E+03  0.31955968855E+01 0.  0.
         13    1    3    3    0    0 -0.24620197961E+01  0.18788551202E+02 -0.15270301856E+03  0.15387424435E+03  0.00000000000E+00 0.  1.
          1    1    3    3  501    0  0.86180558795E+00  0.11420320269E+02 -0.99051330883E+02  0.99711245974E+02  0.00000000000E+00 0.  1.
         -3    1    1    2    0  502  0.16002142081E+01 -0.30208871470E+02 -0.74702394477E+03  0.74763621546E+03  0.00000000000E+00 0. -1.
<mgrwt>
<rscale>  1 0.30000000E+03</rscale>
<asrwt>0</asrwt>
<pdfrwt beam="1">  1       21 0.44425759E-02 0.30000000E+03</pdfrwt>
<pdfrwt beam="2">0</pdfrwt>
<totfact> 0.35217003E+04</totfact>
</mgrwt>
</event>
<event>
 6    1  0.6513574E-002  0.3000000E+03  0.7818608E-02  0.1093470E+00
         21   -1    0    0  501  502  0.00000000000E+00  0.00000000000E+00  0.34121787497E+01  0.34121787497E+01  0.00000000000E+00 0. -1.
         13   -1    0    0    0    0 -0.00000000000E+00 -0.00000000000E+00 -0.10000000000E+04  0.10000000000E+04  0.00000000000E+00 0.  1.
    9000005    2    1    2  501    0  0.33821162207E+02 -0.32891071616E+02 -0.20364868683E+03  0.20907083871E+03  0.34834386960E+01 0.  0.
         13    1    3    3    0    0  0.28134755606E+02 -0.28258764685E+02 -0.17653406025E+03  0.18098175787E+03  0.00000000000E+00 0.  1.
          1    1    3    3  501    0  0.56864066013E+01 -0.46323069312E+01 -0.27114626580E+02  0.28089080835E+02  0.00000000000E+00 0.  1.
         -3    1    1    2    0  502 -0.33821162207E+02  0.32891071616E+02 -0.79293913442E+03  0.79434134004E+03  0.00000000000E+00 0. -1.
<mgrwt>
<rscale>  1 0.30000000E+03</rscale>
<asrwt>0</asrwt>
<pdfrwt beam="1">  1       21 0.12407949E-01 0.30000000E+03</pdfrwt>
<pdfrwt beam="2">0</pdfrwt>
<totfact> 0.58316587E+03</totfact>
</mgrwt>
</event>
<event>
 6    1  0.6513574E-002  0.3000000E+03  0.7818608E-02  0.1093470E+00
         21   -1    0    0  501  502  0.00000000000E+00  0.00000000000E+00  0.16200728044E+01  0.16200728044E+01  0.00000000000E+00 0. -1.
         13   -1    0    0    0    0 -0.00000000000E+00 -0.00000000000E+00 -0.10000000000E+04  0.10000000000E+04  0.00000000000E+00 0.  1.
    9000005    2    1    2  501    0  0.13225145950E+02 -0.37701988033E+02 -0.44835576139E+03  0.45014665789E+03  0.35749756779E+01 0.  0.
         13    1    3    3    0    0  0.12148405140E+02 -0.34464361081E+02 -0.41988743160E+03  0.42147459134E+03  0.00000000000E+00 0.  1.
          3    1    3    3  501    0  0.10767408107E+01 -0.32376269522E+01 -0.28468329794E+02  0.28672066551E+02  0.00000000000E+00 0.  1.
         -1    1    1    2    0  502 -0.13225145950E+02  0.37701988033E+02 -0.55002416580E+03  0.55147341491E+03  0.00000000000E+00 0. -1.
<mgrwt>
<rscale>  1 0.30000000E+03</rscale>
<asrwt>0</asrwt>
<pdfrwt beam="1">  1       21 0.58911863E-02 0.30000000E+03</pdfrwt>
<pdfrwt beam="2">0</pdfrwt>
<totfact> 0.21747151E+04</totfact>
</mgrwt>
</event>
<event>
 6    1  0.6513574E-002  0.3000000E+03  0.7818608E-02  0.1093470E+00
         21   -1    0    0  501  502  0.00000000000E+00  0.00000000000E+00  0.31631991658E+01  0.31631991658E+01  0.00000000000E+00 0. -1.
         13   -1    0    0    0    0 -0.00000000000E+00 -0.00000000000E+00 -0.10000000000E+04  0.10000000000E+04  0.00000000000E+00 0.  1.
    9000005    2    1    2  501    0  0.73704522526E+01  0.54902337836E+02 -0.41485149383E+03  0.41854752384E+03  0.34172378411E+01 0.  0.
         13    1    3    3    0    0  0.63497248502E+01  0.51370353016E+02 -0.39188728400E+03  0.39529087459E+03  0.00000000000E+00 0.  1.
          1    1    3    3  501    0  0.10207274023E+01  0.35319848201E+01 -0.22964209828E+02  0.23256649247E+02  0.00000000000E+00 0.  1.
         -3    1    1    2    0  502 -0.73704522526E+01 -0.54902337836E+02 -0.58198530700E+03  0.58461567532E+03  0.00000000000E+00 0. -1.
<mgrwt>
<rscale>  1 0.30000000E+03</rscale>
<asrwt>0</asrwt>
<pdfrwt beam="1">  1       21 0.11502567E-01 0.30000000E+03</pdfrwt>
<pdfrwt beam="2">0</pdfrwt>
<totfact> 0.66908555E+03</totfact>
</mgrwt>
</event>
<event>
 6    1  0.6513574E-002  0.3000000E+03  0.7818608E-02  0.1093470E+00
         21   -1    0    0  501  502  0.00000000000E+00  0.00000000000E+00  0.16944111225E+01  0.16944111225E+01  0.00000000000E+00 0. -1.
         13   -1    0    0    0    0 -0.00000000000E+00 -0.00000000000E+00 -0.10000000000E+04  0.10000000000E+04  0.00000000000E+00 0.  1.
    9000005    2    1    2  501    0  0.40860640889E+02 -0.39679883547E+01 -0.50874792453E+03  0.51041847682E+03  0.41513682247E+01 0.  0.
         13    1    3    3    0    0  0.39832893281E+02 -0.35859601695E+01 -0.50093396199E+03  0.50252796218E+03  0.00000000000E+00 0.  1.
          1    1    3    3  501    0  0.10277476080E+01 -0.38202818518E+00 -0.78139625389E+01  0.78905146372E+01  0.00000000000E+00 0.  1.
         -3    1    1    2    0  502 -0.40860640889E+02  0.39679883547E+01 -0.48955766435E+03  0.49127593430E+03  0.00000000000E+00 0. -1.
<mgrwt>
<rscale>  1 0.30000000E+03</rscale>
<asrwt>0</asrwt>
<pdfrwt beam="1">  1       21 0.61615080E-02 0.30000000E+03</pdfrwt>
<pdfrwt beam="2">0</pdfrwt>
<totfact> 0.20127639E+04</totfact>
</mgrwt>
</event>
<event>
 6    1  0.6513574E-002  0.3000000E+03  0.7818608E-02  0.1093470E+00
         21   -1    0    0  501  502  0.00000000000E+00  0.00000000000E+00  0.16990110608E+01  0.16990110608E+01  0.00000000000E+00 0. -1.
         13   -1    0    0    0    0 -0.00000000000E+00 -0.00000000000E+00 -0.10000000000E+04  0.10000000000E+04  0.00000000000E+00 0.  1.
    9000005    2    1    2  501    0  0.37337502968E+02 -0.46790308377E+01 -0.70245713030E+03  0.70347162944E+03  0.32141953129E+01 0.  0.
         13    1    3    3    0    0  0.24325775010E+02 -0.25906465649E+01 -0.48311716336E+03  0.48373613501E+03  0.00000000000E+00 0.  1.
          1    1    3    3  501    0  0.13011727958E+02 -0.20883842728E+01 -0.21933996694E+03  0.21973549443E+03  0.00000000000E+00 0.  1.
         -1    1    1    2    0  502 -0.37337502968E+02  0.46790308377E+01 -0.29584385864E+03  0.29822738162E+03  0.00000000000E+00 0. -1.
<mgrwt>
<rscale>  1 0.30000000E+03</rscale>
<asrwt>0</asrwt>
<pdfrwt beam="1">  1       21 0.61782351E-02 0.30000000E+03</pdfrwt>
<pdfrwt beam="2">0</pdfrwt>
<totfact> 0.20033637E+04</totfact>
</mgrwt>
</event>
<event>
 6    1  0.6513574E-002  0.3000000E+03  0.7818608E-02  0.1093470E+00
         21   -1    0    0  501  502  0.00000000000E+00  0.00000000000E+00  0.14577938153E+01  0.14577938153E+01  0.00000000000E+00 0. -1.
         13   -1    0    0    0    0 -0.00000000000E+00 -0.00000000000E+00 -0.10000000000E+04  0.10000000000E+04  0.00000000000E+00 0.  1.
    9000005    2    1    2  501    0 -0.49332527467E+01  0.35991583448E+02 -0.34915784069E+03  0.35105808194E+03  0.32936479090E+01 0.  0.
         13    1    3    3    0    0 -0.27949219394E+01  0.28973893736E+02 -0.28462905432E+03  0.28611360798E+03  0.00000000000E+00 0.  1.
          3    1    3    3  501    0 -0.21383308073E+01  0.70176897118E+01 -0.64528786366E+02  0.64944473956E+02  0.00000000000E+00 0.  1.
         -1    1    1    2    0  502  0.49332527467E+01 -0.35991583448E+02 -0.64938436549E+03  0.65039971188E+03  0.00000000000E+00 0. -1.
<mgrwt>
<rscale>  1 0.30000000E+03</rscale>
<asrwt>0</asrwt>
<pdfrwt beam="1">  1       21 0.53010796E-02 0.30000000E+03</pdfrwt>
<pdfrwt beam="2">0</pdfrwt>
<totfact> 0.26067782E+04</totfact>
</mgrwt>
</event>
<event>
 6    1  0.6513574E-002  0.3000000E+03  0.7818608E-02  0.1093470E+00
         21   -1    0    0  501  502  0.00000000000E+00  0.00000000000E+00  0.17566756249E+01  0.17566756249E+01  0.00000000000E+00 0. -1.
         13   -1    0    0    0    0 -0.00000000000E+00 -0.00000000000E+00 -0.10000000000E+04  0.10000000000E+04  0.00000000000E+00 0.  1.
    9000005    2    1    2  501    0 -0.41491264561E+02  0.35366490238E+01 -0.54937004979E+03  0.55095599954E+03  0.33209791247E+01 0.  0.
         13    1    3    3    0    0 -0.41469009853E+02  0.35712029016E+01 -0.54546291265E+03  0.54704864623E+03  0.00000000000E+00 0.  1.
          3    1    3    3  501    0 -0.22254708173E-01 -0.34553877868E-01 -0.39071371454E+01  0.39073533133E+01  0.00000000000E+00 0.  1.
         -3    1    1    2    0  502  0.41491264561E+02 -0.35366490238E+01 -0.44887327458E+03  0.45080067608E+03  0.00000000000E+00 0. -1.
<mgrwt>
<rscale>  1 0.30000000E+03</rscale>
<asrwt>0</asrwt>
<pdfrwt beam="1">  1       21 0.63879248E-02 0.30000000E+03</pdfrwt>
<pdfrwt beam="2">0</pdfrwt>
<totfact> 0.18910752E+04</totfact>
</mgrwt>
</event>
<event>
 6    1  0.6513574E-002  0.3000000E+03  0.7818608E-02  0.1093470E+00
         21   -1    0    0  501  502  0.00000000000E+00  0.00000000000E+00  0.97547144542E+00  0.97547144542E+00  0.00000000000E+00 0. -1.
         13   -1    0    0    0    0 -0.00000000000E+00 -0.00000000000E+00 -0.10000000000E+04  0.10000000000E+04  0.00000000000E+00 0.  1.
    9000005    2    1    2  501    0 -0.22038876647E+02 -0.20837815792E+02 -0.61409575307E+03  0.61485361394E+03  0.33831908262E+01 0.  0.
         13    1    3    3    0    0 -0.12255462329E+02 -0.11847427229E+02 -0.31102928620E+03  0.31149602688E+03  0.00000000000E+00 0.  1.
          1    1    3    3  501    0 -0.97834143181E+01 -0.89903885628E+01 -0.30306646687E+03  0.30335758706E+03  0.00000000000E+00 0.  1.
         -1    1    1    2    0  502  0.22038876647E+02  0.20837815792E+02 -0.38492877548E+03  0.38612185751E+03  0.00000000000E+00 0. -1.
<mgrwt>
<rscale>  1 0.30000000E+03</rscale>
<asrwt>0</asrwt>
<pdfrwt beam="1">  1       21 0.35471764E-02 0.30000000E+03</pdfrwt>
<pdfrwt beam="2">0</pdfrwt>
<totfact> 0.51449727E+04</totfact>
</mgrwt>
</event>
<event>
 6    1  0.6513574E-002  0.3000000E+03  0.7818608E-02  0.1093470E+00
         21   -1    0    0  501  502  0.00000000000E+00  0.00000000000E+00  0.27693310491E+01  0.27693310491E+01  0.00000000000E+00 0. -1.
         13   -1    0    0    0    0 -0.00000000000E+00 -0.00000000000E+00 -0.10000000000E+04  0.10000000000E+04  0.00000000000E+00 0.  1.
    9000005    2    1    2  501    0  0.66205531299E+00 -0.46481246545E+02 -0.73312105865E+03  0.73459992405E+03  0.31011576742E+01 0.  0.
         13    1    3    3    0    0  0.95463530167E+00 -0.68530288175E+01 -0.98483367804E+02  0.98726131629E+02  0.00000000000E+00 0.  1.
          3    1    3    3  501    0 -0.29257998868E+00 -0.39628217727E+02 -0.63463769084E+03  0.63587379242E+03  0.00000000000E+00 0.  1.
         -3    1    1    2    0  502 -0.66205531299E+00  0.46481246545E+02 -0.26410961030E+03  0.26816940700E+03  0.00000000000E+00 0. -1.
<mgrwt>
<rscale>  1 0.30000000E+03</rscale>
<asrwt>0</asrwt>
<pdfrwt beam="1">  1       21 0.10070316E-01 0.30000000E+03</pdfrwt>
<pdfrwt beam="2">0</pdfrwt>
<totfact> 0.84961318E+03</totfact>
</mgrwt>
</event>
<event>
 6    1  0.6513574E-002  0.3000000E+03  0.7818608E-02  0.1093470E+00
         21   -1    0    0  501  502  0.00000000000E+00  0.00000000000E+00  0.44677261699E+01  0.44677261699E+01  0.00000000000E+00 0. -1.
         13   -1    0    0    0    0 -0.00000000000E+00 -0.00000000000E+00 -0.10000000000E+04  0.10000000000E+04  0.00000000000E+00 0.  1.
    9000005    2    1    2  501    0  0.58916261198E+02  0.31461062139E+02 -0.48720012603E+03  0.49176654931E+03  0.30744030180E+01 0.  0.
         13    1    3    3    0    0  0.21379027721E+01  0.16467311913E+01 -0.22897567664E+02  0.23056039487E+02  0.00000000000E+00 0.  1.
          3    1    3    3  501    0  0.56778358426E+02  0.29814330948E+02 -0.46430255837E+03  0.46871050983E+03  0.00000000000E+00 0.  1.
         -1    1    1    2    0  502 -0.58916261198E+02 -0.31461062139E+02 -0.50833214780E+03  0.51270117686E+03  0.00000000000E+00 0. -1.
<mgrwt>
<rscale>  1 0.30000000E+03</rscale>
<asrwt>0</asrwt>
<pdfrwt beam="1">  1       21 0.16246311E-01 0.30000000E+03</pdfrwt>
<pdfrwt beam="2">0</pdfrwt>
<totfact> 0.35500643E+03</totfact>
</mgrwt>
</event>
<event>
 6    1  0.6513574E-002  0.3000000E+03  0.7818608E-02  0.1093470E+00
         21   -1    0    0  501  502  0.00000000000E+00  0.00000000000E+00  0.14965954492E+01  0.14965954492E+01  0.00000000000E+00 0. -1.
         13   -1    0    0    0    0 -0.00000000000E+00 -0.00000000000E+00 -0.10000000000E+04  0.10000000000E+04  0.00000000000E+00 0.  1.
    9000005    2    1    2  501    0  0.10179454715E+02  0.36611186784E+02 -0.58636644275E+03  0.58761149596E+03  0.42029401740E+01 0.  0.
         13    1    3    3    0    0  0.85016134792E+01  0.32872206960E+02 -0.53883267536E+03  0.53990139050E+03  0.00000000000E+00 0.  1.
          3    1    3    3  501    0  0.16778412361E+01  0.37389798246E+01 -0.47533767384E+02  0.47710105460E+02  0.00000000000E+00 0.  1.
         -1    1    1    2    0  502 -0.10179454715E+02 -0.36611186784E+02 -0.41213696180E+03  0.41388509949E+03  0.00000000000E+00 0. -1.
<mgrwt>
<rscale>  1 0.30000000E+03</rscale>
<asrwt>0</asrwt>
<pdfrwt beam="1">  1       21 0.54421767E-02 0.30000000E+03</pdfrwt>
<pdfrwt beam="2">0</pdfrwt>
<totfact> 0.24921548E+04</totfact>
</mgrwt>
</event>
<event>
 6    1  0.6513574E-002  0.3000000E+03  0.7818608E-02  0.1093470E+00
         21   -1    0    0  501  502  0.00000000000E+00  0.00000000000E+00  0.11135154625E+01  0.11135154625E+01  0.00000000000E+00 0. -1.
         13   -1    0    0    0    0 -0.00000000000E+00 -0.00000000000E+00 -0.10000000000E+04  0.10000000000E+04  0.00000000000E+00 0.  1.
    9000005    2    1    2  501    0 -0.10099394708E+02 -0.31614866739E+02 -0.45969605972E+03  0.46090261981E+03  0.30430327786E+01 0.  0.
         13    1    3    3    0    0 -0.95319019385E+01 -0.26143302784E+02 -0.38459111992E+03  0.38559649760E+03  0.00000000000E+00 0.  1.
          1    1    3    3  501    0 -0.56749276989E+00 -0.54715639550E+01 -0.75104939798E+02  0.75306122210E+02  0.00000000000E+00 0.  1.
         -3    1    1    2    0  502  0.10099394708E+02  0.31614866739E+02 -0.53919042482E+03  0.54021089566E+03  0.00000000000E+00 0. -1.
<mgrwt>
<rscale>  1 0.30000000E+03</rscale>
<asrwt>0</asrwt>
<pdfrwt beam="1">  1       21 0.40491557E-02 0.30000000E+03</pdfrwt>
<pdfrwt beam="2">0</pdfrwt>
<totfact> 0.41191029E+04</totfact>
</mgrwt>
</event>
<event>
 6    1  0.6513574E-002  0.3000000E+03  0.7818608E-02  0.1093470E+00
         21   -1    0    0  501  502  0.00000000000E+00  0.00000000000E+00  0.15471676826E+01  0.15471676826E+01  0.00000000000E+00 0. -1.
         13   -1    0    0    0    0 -0.00000000000E+00 -0.00000000000E+00 -0.10000000000E+04  0.10000000000E+04  0.00000000000E+00 0.  1.
    9000005    2    1    2  501    0  0.38335251762E+02 -0.79715877048E+01 -0.53864393025E+03  0.54007413038E+03  0.31056353394E+01 0.  0.
         13    1    3    3    0    0  0.38113523028E+02 -0.80850239566E+01 -0.53698600247E+03  0.53839759946E+03  0.00000000000E+00 0.  1.
          3    1    3    3  501    0  0.22172873387E+00  0.11343625174E+00 -0.16579277749E+01  0.16765309187E+01  0.00000000000E+00 0.  1.
         -3    1    1    2    0  502 -0.38335251762E+02  0.79715877048E+01 -0.45980890207E+03  0.46147303731E+03  0.00000000000E+00 0. -1.
<mgrwt>
<rscale>  1 0.30000000E+03</rscale>
<asrwt>0</asrwt>
<pdfrwt beam="1">  1       21 0.56260762E-02 0.30000000E+03</pdfrwt>
<pdfrwt beam="2">0</pdfrwt>
<totfact> 0.23540498E+04</totfact>
</mgrwt>
</event>
<event>
 6    1  0.6513574E-002  0.3000000E+03  0.7818608E-02  0.1093470E+00
         21   -1    0    0  501  502  0.00000000000E+00  0.00000000000E+00  0.10778702248E+01  0.10778702248E+01  0.00000000000E+00 0. -1.
         13   -1    0    0    0    0 -0.00000000000E+00 -0.00000000000E+00 -0.10000000000E+04  0.10000000000E+04  0.00000000000E+00 0.  1.
    9000005    2    1    2  501    0 -0.29173585496E+02 -0.76108414385E+01 -0.69548521103E+03  0.69614675234E+03  0.34057350774E+01 0.  0.
         13    1    3    3    0    0 -0.79377070506E+01 -0.21829083128E+01 -0.22665320534E+03  0.22680266263E+03  0.00000000000E+00 0.  1.
          1    1    3    3  501    0 -0.21235878445E+02 -0.54279331257E+01 -0.46883200568E+03  0.46934408971E+03  0.00000000000E+00 0.  1.
         -1    1    1    2    0  502  0.29173585496E+02  0.76108414385E+01 -0.30343691875E+03  0.30493111789E+03  0.00000000000E+00 0. -1.
<mgrwt>
<rscale>  1 0.30000000E+03</rscale>
<asrwt>0</asrwt>
<pdfrwt beam="1">  1       21 0.39195364E-02 0.30000000E+03</pdfrwt>
<pdfrwt beam="2">0</pdfrwt>
<totfact> 0.43510396E+04</totfact>
</mgrwt>
</event>
<event>
 6    1  0.6513574E-002  0.3000000E+03  0.7818608E-02  0.1093470E+00
         21   -1    0    0  501  502  0.00000000000E+00  0.00000000000E+00  0.23416686094E+01  0.23416686094E+01  0.00000000000E+00 0. -1.
         13   -1    0    0    0    0 -0.00000000000E+00 -0.00000000000E+00 -0.10000000000E+04  0.10000000000E+04  0.00000000000E+00 0.  1.
    9000005    2    1    2  501    0 -0.46715244566E+02  0.54113032216E+01 -0.61550044195E+03  0.61730108797E+03  0.28710435435E+01 0.  0.
         13    1    3    3    0    0 -0.15265489414E+02  0.24094149760E+01 -0.18691443575E+03  0.18755225069E+03  0.00000000000E+00 0.  1.
          1    1    3    3  501    0 -0.31449755152E+02  0.30018882455E+01 -0.42858600619E+03  0.42974883727E+03  0.00000000000E+00 0.  1.
         -3    1    1    2    0  502  0.46715244566E+02 -0.54113032216E+01 -0.38215788944E+03  0.38504058064E+03  0.00000000000E+00 0. -1.
<mgrwt>
<rscale>  1 0.30000000E+03</rscale>
<asrwt>0</asrwt>
<pdfrwt beam="1">  1       21 0.85151765E-02 0.30000000E+03</pdfrwt>
<pdfrwt beam="2">0</pdfrwt>
<totfact> 0.11445200E+04</totfact>
</mgrwt>
</event>
<event>
 6    1  0.6513574E-002  0.3000000E+03  0.7818608E-02  0.1093470E+00
         21   -1    0    0  501  502  0.00000000000E+00  0.00000000000E+00  0.16803708794E+01  0.16803708794E+01  0.00000000000E+00 0. -1.
         13   -1    0    0    0    0 -0.00000000000E+00 -0.00000000000E+00 -0.10000000000E+04  0.10000000000E+04  0.00000000000E+00 0.  1.
    9000005    2    1    2  501    0 -0.19375335478E+02 -0.30139967344E+02 -0.74169239335E+03  0.74256387315E+03  0.31109641033E+01 0.  0.
         13    1    3    3    0    0 -0.68915241707E+01 -0.81355211970E+01 -0.21479077717E+03  0.21505524353E+03  0.00000000000E+00 0.  1.
          1    1    3    3  501    0 -0.12483811307E+02 -0.22004446147E+02 -0.52690161618E+03  0.52750862962E+03  0.00000000000E+00 0.  1.
         -3    1    1    2    0  502  0.19375335478E+02  0.30139967344E+02 -0.25662723577E+03  0.25911649773E+03  0.00000000000E+00 0. -1.
<mgrwt>
<rscale>  1 0.30000000E+03</rscale>
<asrwt>0</asrwt>
<pdfrwt beam="1">  1       21 0.61104524E-02 0.30000000E+03</pdfrwt>
<pdfrwt beam="2">0</pdfrwt>
<totfact> 0.20418835E+04</totfact>
</mgrwt>
</event>
<event>
 6    1  0.6513574E-002  0.3000000E+03  0.7818608E-02  0.1093470E+00
         21   -1    0    0  501  502  0.00000000000E+00  0.00000000000E+00  0.37308180274E+01  0.37308180274E+01  0.00000000000E+00 0. -1.
         13   -1    0    0    0    0 -0.00000000000E+00 -0.00000000000E+00 -0.10000000000E+04  0.10000000000E+04  0.00000000000E+00 0.  1.
    9000005    2    1    2  501    0 -0.60691615248E+02  0.38310461517E+01 -0.54056978335E+03  0.54399166265E+03  0.36179127816E+01 0.  0.
         13    1    3    3    0    0 -0.35360229638E+01  0.62668552144E+00 -0.39302926978E+02  0.39466647465E+02  0.00000000000E+00 0.  1.
          1    1    3    3  501    0 -0.57155592284E+02  0.32043606302E+01 -0.50126685637E+03  0.50452501519E+03  0.00000000000E+00 0.  1.
         -1    1    1    2    0  502  0.60691615248E+02 -0.38310461517E+01 -0.45569939863E+03  0.45973915537E+03  0.00000000000E+00 0. -1.
<mgrwt>
<rscale>  1 0.30000000E+03</rscale>
<asrwt>0</asrwt>
<pdfrwt beam="1">  1       21 0.13566640E-01 0.30000000E+03</pdfrwt>
<pdfrwt beam="2">0</pdfrwt>
<totfact> 0.49544095E+03</totfact>
</mgrwt>
</event>
<event>
 6    1  0.6513574E-002  0.3000000E+03  0.7818608E-02  0.1093470E+00
         21   -1    0    0  501  502  0.00000000000E+00  0.00000000000E+00  0.24457050911E+01  0.24457050911E+01  0.00000000000E+00 0. -1.
         13   -1    0    0    0    0 -0.00000000000E+00 -0.00000000000E+00 -0.10000000000E+04  0.10000000000E+04  0.00000000000E+00 0.  1.
    9000005    2    1    2  501    0  0.38472050911E+02  0.30983009958E+02 -0.50846423876E+03  0.51086750314E+03  0.31109583389E+01 0.  0.
         13    1    3    3    0    0  0.52589231726E+01  0.42523424958E+01 -0.59282809274E+02  0.59667329126E+02  0.00000000000E+00 0.  1.
          3    1    3    3  501    0  0.33213127738E+02  0.26730667462E+02 -0.44918142949E+03  0.45120017402E+03  0.00000000000E+00 0.  1.
         -3    1    1    2    0  502 -0.38472050911E+02 -0.30983009958E+02 -0.48909005615E+03  0.49157820195E+03  0.00000000000E+00 0. -1.
<mgrwt>
<rscale>  1 0.30000000E+03</rscale>
<asrwt>0</asrwt>
<pdfrwt beam="1">  1       21 0.88934918E-02 0.30000000E+03</pdfrwt>
<pdfrwt beam="2">0</pdfrwt>
<totfact> 0.10599182E+04</totfact>
</mgrwt>
</event>
<event>
 6    1  0.6513574E-002  0.3000000E+03  0.7818608E-02  0.1093470E+00
         21   -1    0    0  501  502  0.00000000000E+00  0.00000000000E+00  0.14541053371E+01  0.14541053371E+01  0.00000000000E+00 0. -1.
         13   -1    0    0    0    0 -0.00000000000E+00 -0.00000000000E+00 -0.10000000000E+04  0.10000000000E+04  0.00000000000E+00 0.  1.
    9000005    2    1    2  501    0  0.20452866368E+02  0.31524339398E+02 -0.47660591914E+03  0.47816313297E+03  0.86415189941E+01 0.  0.
         13    1    3    3    0    0  0.59595186422E+01  0.17104059378E+02 -0.22571998071E+03  0.22644552193E+03  0.00000000000E+00 0.  1.
          1    1    3    3  501    0  0.14493347726E+02  0.14420280020E+02 -0.25088593843E+03  0.25171761103E+03  0.00000000000E+00 0.  1.
         -3    1    1    2    0  502 -0.20452866368E+02 -0.31524339398E+02 -0.52193997552E+03  0.52329097237E+03  0.00000000000E+00 0. -1.
<mgrwt>
<rscale>  1 0.30000000E+03</rscale>
<asrwt>0</asrwt>
<pdfrwt beam="1">  1       21 0.52876669E-02 0.30000000E+03</pdfrwt>
<pdfrwt beam="2">0</pdfrwt>
<totfact> 0.26180968E+04</totfact>
</mgrwt>
</event>
<event>
 6    1  0.6513574E-002  0.3000000E+03  0.7818608E-02  0.1093470E+00
         21   -1    0    0  501  502  0.00000000000E+00  0.00000000000E+00  0.50080189985E+01  0.50080189985E+01  0.00000000000E+00 0. -1.
         13   -1    0    0    0    0 -0.00000000000E+00 -0.00000000000E+00 -0.10000000000E+04  0.10000000000E+04  0.00000000000E+00 0.  1.
    9000005    2    1    2  501    0  0.38963873013E+02  0.58030905046E+02 -0.57508331165E+03  0.57932144424E+03  0.25982815861E+01 0.  0.
         13    1    3    3    0    0  0.16409652623E+02  0.26577645582E+02 -0.26096871286E+03  0.26283134713E+03  0.00000000000E+00 0.  1.
          1    1    3    3  501    0  0.22554220390E+02  0.31453259464E+02 -0.31411459880E+03  0.31649009710E+03  0.00000000000E+00 0.  1.
         -1    1    1    2    0  502 -0.38963873013E+02 -0.58030905046E+02 -0.41990866935E+03  0.42568657476E+03  0.00000000000E+00 0. -1.
<mgrwt>
<rscale>  1 0.30000000E+03</rscale>
<asrwt>0</asrwt>
<pdfrwt beam="1">  1       21 0.18211017E-01 0.30000000E+03</pdfrwt>
<pdfrwt beam="2">0</pdfrwt>
<totfact> 0.28659062E+03</totfact>
</mgrwt>
</event>
<event>
 6    1  0.6513574E-002  0.3000000E+03  0.7818608E-02  0.1093470E+00
         21   -1    0    0  501  502  0.00000000000E+00  0.00000000000E+00  0.11388290229E+01  0.11388290229E+01  0.00000000000E+00 0. -1.
         13   -1    0    0    0    0 -0.00000000000E+00 -0.00000000000E+00 -0.10000000000E+04  0.10000000000E+04  0.00000000000E+00 0.  1.
    9000005    2    1    2  501    0  0.28440404478E+02 -0.17160985228E+02 -0.58219625942E+03  0.58315198169E+03  0.32238556093E+01 0.  0.
         13    1    3    3    0    0  0.60968736251E+01 -0.22989237991E+01 -0.12238537035E+03  0.12255870346E+03  0.00000000000E+00 0.  1.
          1    1    3    3  501    0  0.22343530853E+02 -0.14862061429E+02 -0.45981088907E+03  0.46059327823E+03  0.00000000000E+00 0.  1.
         -1    1    1    2    0  502 -0.28440404478E+02  0.17160985228E+02 -0.41666491156E+03  0.41798684734E+03  0.00000000000E+00 0. -1.
<mgrwt>
<rscale>  1 0.30000000E+03</rscale>
<asrwt>0</asrwt>
<pdfrwt beam="1">  1       21 0.41412052E-02 0.30000000E+03</pdfrwt>
<pdfrwt beam="2">0</pdfrwt>
<totfact> 0.39659033E+04</totfact>
</mgrwt>
</event>
<event>
 6    1  0.6513574E-002  0.3000000E+03  0.7818608E-02  0.1093470E+00
         21   -1    0    0  501  502  0.00000000000E+00  0.00000000000E+00  0.30598962958E+01  0.30598962958E+01  0.00000000000E+00 0. -1.
         13   -1    0    0    0    0 -0.00000000000E+00 -0.00000000000E+00 -0.10000000000E+04  0.10000000000E+04  0.00000000000E+00 0.  1.
    9000005    2    1    2  501    0  0.16217399686E+02  0.46415239357E+02 -0.27024551835E+03  0.27470394013E+03  0.34980048985E+01 0.  0.
         13    1    3    3    0    0  0.72071058204E+01  0.20889022206E+02 -0.13121173153E+03  0.13305943076E+03  0.00000000000E+00 0.  1.
          1    1    3    3  501    0  0.90102938654E+01  0.25526217152E+02 -0.13903378683E+03  0.14164450938E+03  0.00000000000E+00 0.  1.
         -1    1    1    2    0  502 -0.16217399686E+02 -0.46415239357E+02 -0.72669458535E+03  0.72835595616E+03  0.00000000000E+00 0. -1.
<mgrwt>
<rscale>  1 0.30000000E+03</rscale>
<asrwt>0</asrwt>
<pdfrwt beam="1">  1       21 0.11126919E-01 0.30000000E+03</pdfrwt>
<pdfrwt beam="2">0</pdfrwt>
<totfact> 0.71038041E+03</totfact>
</mgrwt>
</event>
<event>
 6    1  0.6513574E-002  0.3000000E+03  0.7818608E-02  0.1093470E+00
         21   -1    0    0  501  502  0.00000000000E+00  0.00000000000E+00  0.97989714345E+00  0.97989714345E+00  0.00000000000E+00 0. -1.
         13   -1    0    0    0    0 -0.00000000000E+00 -0.00000000000E+00 -0.10000000000E+04  0.10000000000E+04  0.00000000000E+00 0.  1.
    9000005    2    1    2  501    0 -0.27312030812E+02 -0.14773115367E+02 -0.55324760957E+03  0.55412722821E+03  0.31425436636E+01 0.  0.
         13    1    3    3    0    0 -0.24703265271E+02 -0.12263519459E+02 -0.48434469824E+03  0.48512929404E+03  0.00000000000E+00 0.  1.
          3    1    3    3  501    0 -0.26087655408E+01 -0.25095959080E+01 -0.68902911338E+02  0.68997934173E+02  0.00000000000E+00 0.  1.
         -3    1    1    2    0  502  0.27312030812E+02  0.14773115367E+02 -0.44577249328E+03  0.44685266893E+03  0.00000000000E+00 0. -1.
<mgrwt>
<rscale>  1 0.30000000E+03</rscale>
<asrwt>0</asrwt>
<pdfrwt beam="1">  1       21 0.35632699E-02 0.30000000E+03</pdfrwt>
<pdfrwt beam="2">0</pdfrwt>
<totfact> 0.51060791E+04</totfact>
</mgrwt>
</event>
<event>
 6    1  0.6513574E-002  0.3000000E+03  0.7818608E-02  0.1093470E+00
         21   -1    0    0  501  502  0.00000000000E+00  0.00000000000E+00  0.10949414746E+01  0.10949414746E+01  0.00000000000E+00 0. -1.
         13   -1    0    0    0    0 -0.00000000000E+00 -0.00000000000E+00 -0.10000000000E+04  0.10000000000E+04  0.00000000000E+00 0.  1.
    9000005    2    1    2  501    0 -0.67824425076E+00  0.31438730223E+02 -0.35024619945E+03  0.35167430026E+03  0.36823177260E+01 0.  0.
         13    1    3    3    0    0 -0.87554618343E+00  0.17350516405E+02 -0.17360412682E+03  0.17447120063E+03  0.00000000000E+00 0.  1.
          1    1    3    3  501    0  0.19730193267E+00  0.14088213817E+02 -0.17664207262E+03  0.17720309963E+03  0.00000000000E+00 0.  1.
         -3    1    1    2    0  502  0.67824425076E+00 -0.31438730223E+02 -0.64865885908E+03  0.64942064121E+03  0.00000000000E+00 0. -1.
<mgrwt>
<rscale>  1 0.30000000E+03</rscale>
<asrwt>0</asrwt>
<pdfrwt beam="1">  1       21 0.39816138E-02 0.30000000E+03</pdfrwt>
<pdfrwt beam="2">0</pdfrwt>
<totfact> 0.42374783E+04</totfact>
</mgrwt>
</event>
<event>
 6    1  0.6513574E-002  0.3000000E+03  0.7818608E-02  0.1093470E+00
         21   -1    0    0  501  502  0.00000000000E+00  0.00000000000E+00  0.13128592687E+01  0.13128592687E+01  0.00000000000E+00 0. -1.
         13   -1    0    0    0    0 -0.00000000000E+00 -0.00000000000E+00 -0.10000000000E+04  0.10000000000E+04  0.00000000000E+00 0.  1.
    9000005    2    1    2  501    0  0.22540488952E+02  0.20095374717E+02 -0.22663047142E+03  0.22866585167E+03  0.38475206990E+01 0.  0.
         13    1    3    3    0    0  0.36819447455E+01  0.53683525053E+01 -0.46878493239E+02  0.47328311338E+02  0.00000000000E+00 0.  1.
          1    1    3    3  501    0  0.18858544206E+02  0.14727022211E+02 -0.17975197819E+03  0.18133754033E+03  0.00000000000E+00 0.  1.
         -3    1    1    2    0  502 -0.22540488952E+02 -0.20095374717E+02 -0.77205666931E+03  0.77264700760E+03  0.00000000000E+00 0. -1.
<mgrwt>
<rscale>  1 0.30000000E+03</rscale>
<asrwt>0</asrwt>
<pdfrwt beam="1">  1       21 0.47740438E-02 0.30000000E+03</pdfrwt>
<pdfrwt beam="2">0</pdfrwt>
<totfact> 0.31164729E+04</totfact>
</mgrwt>
</event>
<event>
 6    1  0.6513574E-002  0.3000000E+03  0.7818608E-02  0.1093470E+00
         21   -1    0    0  501  502  0.00000000000E+00  0.00000000000E+00  0.13442819733E+01  0.13442819733E+01  0.00000000000E+00 0. -1.
         13   -1    0    0    0    0 -0.00000000000E+00 -0.00000000000E+00 -0.10000000000E+04  0.10000000000E+04  0.00000000000E+00 0.  1.
    9000005    2    1    2  501    0 -0.31849474065E+02 -0.13995449608E+02 -0.65554310256E+03  0.65647252537E+03  0.30258301492E+01 0.  0.
         13    1    3    3    0    0 -0.31092322662E+02 -0.13658568321E+02 -0.62859780995E+03  0.62951449204E+03  0.00000000000E+00 0.  1.
          3    1    3    3  501    0 -0.75715140311E+00 -0.33688128692E+00 -0.26945292609E+02  0.26958033330E+02  0.00000000000E+00 0.  1.
         -3    1    1    2    0  502  0.31849474065E+02  0.13995449608E+02 -0.34311261547E+03  0.34487175660E+03  0.00000000000E+00 0. -1.
<mgrwt>
<rscale>  1 0.30000000E+03</rscale>
<asrwt>0</asrwt>
<pdfrwt beam="1">  1       21 0.48883084E-02 0.30000000E+03</pdfrwt>
<pdfrwt beam="2">0</pdfrwt>
<totfact> 0.29935012E+04</totfact>
</mgrwt>
</event>
<event>
 6    1  0.6513574E-002  0.3000000E+03  0.7818608E-02  0.1093470E+00
         21   -1    0    0  501  502  0.00000000000E+00  0.00000000000E+00  0.12395605619E+01  0.12395605619E+01  0.00000000000E+00 0. -1.
         13   -1    0    0    0    0 -0.00000000000E+00 -0.00000000000E+00 -0.10000000000E+04  0.10000000000E+04  0.00000000000E+00 0.  1.
    9000005    2    1    2  501    0 -0.81135041167E+01 -0.31687756456E+02 -0.31871368478E+03  0.32040659178E+03  0.34681886118E+01 0.  0.
         13    1    3    3    0    0 -0.19013634819E+01 -0.13950583734E+02 -0.13097618755E+03  0.13173076966E+03  0.00000000000E+00 0.  1.
          3    1    3    3  501    0 -0.62121406348E+01 -0.17737172722E+02 -0.18773749723E+03  0.18867582212E+03  0.00000000000E+00 0.  1.
         -1    1    1    2    0  502  0.81135041167E+01  0.31687756456E+02 -0.68004675466E+03  0.68083296878E+03  0.00000000000E+00 0. -1.
<mgrwt>
<rscale>  1 0.30000000E+03</rscale>
<asrwt>0</asrwt>
<pdfrwt beam="1">  1       21 0.45075025E-02 0.30000000E+03</pdfrwt>
<pdfrwt beam="2">0</pdfrwt>
<totfact> 0.34360915E+04</totfact>
</mgrwt>
</event>
<event>
 6    1  0.6513574E-002  0.3000000E+03  0.7818608E-02  0.1093470E+00
         21   -1    0    0  501  502  0.00000000000E+00  0.00000000000E+00  0.16555364345E+01  0.16555364345E+01  0.00000000000E+00 0. -1.
         13   -1    0    0    0    0 -0.00000000000E+00 -0.00000000000E+00 -0.10000000000E+04  0.10000000000E+04  0.00000000000E+00 0.  1.
    9000005    2    1    2  501    0  0.58490639681E+01  0.38245852577E+02 -0.34867103470E+03  0.35083104322E+03  0.37381362184E+01 0.  0.
         13    1    3    3    0    0  0.58360519676E+01  0.28446402705E+02 -0.26676880141E+03  0.26834464917E+03  0.00000000000E+00 0.  1.
          3    1    3    3  501    0  0.13012000486E-01  0.97994498723E+01 -0.81902233284E+02  0.82486394054E+02  0.00000000000E+00 0.  1.
         -1    1    1    2    0  502 -0.58490639681E+01 -0.38245852577E+02 -0.64967342887E+03  0.65082449321E+03  0.00000000000E+00 0. -1.
<mgrwt>
<rscale>  1 0.30000000E+03</rscale>
<asrwt>0</asrwt>
<pdfrwt beam="1">  1       21 0.60201452E-02 0.30000000E+03</pdfrwt>
<pdfrwt beam="2">0</pdfrwt>
<totfact> 0.20950197E+04</totfact>
</mgrwt>
</event>
<event>
 6    1  0.6513574E-002  0.3000000E+03  0.7818608E-02  0.1093470E+00
         21   -1    0    0  501  502  0.00000000000E+00  0.00000000000E+00  0.28171534780E+01  0.28171534780E+01  0.00000000000E+00 0. -1.
         13   -1    0    0    0    0 -0.00000000000E+00 -0.00000000000E+00 -0.10000000000E+04  0.10000000000E+04  0.00000000000E+00 0.  1.
    9000005    2    1    2  501    0  0.51588730235E+02 -0.10659538128E+02 -0.46538289332E+03  0.46841448407E+03  0.74745337768E+01 0.  0.
         13    1    3    3    0    0  0.73436637247E+01 -0.14154382470E+01 -0.46166758282E+02  0.46768605203E+02  0.00000000000E+00 0.  1.
          3    1    3    3  501    0  0.44245066511E+02 -0.92440998812E+01 -0.41921613504E+03  0.42164587887E+03  0.00000000000E+00 0.  1.
         -3    1    1    2    0  502 -0.51588730235E+02  0.10659538128E+02 -0.53179995320E+03  0.53440266941E+03  0.00000000000E+00 0. -1.
<mgrwt>
<rscale>  1 0.30000000E+03</rscale>
<asrwt>0</asrwt>
<pdfrwt beam="1">  1       21 0.10244216E-01 0.30000000E+03</pdfrwt>
<pdfrwt beam="2">0</pdfrwt>
<totfact> 0.82399058E+03</totfact>
</mgrwt>
</event>
<event>
 6    1  0.6513574E-002  0.3000000E+03  0.7818608E-02  0.1093470E+00
         21   -1    0    0  501  502  0.00000000000E+00  0.00000000000E+00  0.23610234683E+01  0.23610234683E+01  0.00000000000E+00 0. -1.
         13   -1    0    0    0    0 -0.00000000000E+00 -0.00000000000E+00 -0.10000000000E+04  0.10000000000E+04  0.00000000000E+00 0.  1.
    9000005    2    1    2  501    0 -0.38521343029E+02 -0.25875554702E+02 -0.64602646290E+03  0.64769949759E+03  0.33181627786E+01 0.  0.
         13    1    3    3    0    0 -0.13825479259E+02 -0.74191644934E+01 -0.21460950708E+03  0.21518231434E+03  0.00000000000E+00 0.  1.
          1    1    3    3  501    0 -0.24695863770E+02 -0.18456390208E+02 -0.43141695582E+03  0.43251718324E+03  0.00000000000E+00 0.  1.
         -3    1    1    2    0  502  0.38521343029E+02  0.25875554702E+02 -0.35161251363E+03  0.35466152588E+03  0.00000000000E+00 0. -1.
<mgrwt>
<rscale>  1 0.30000000E+03</rscale>
<asrwt>0</asrwt>
<pdfrwt beam="1">  1       21 0.85855580E-02 0.30000000E+03</pdfrwt>
<pdfrwt beam="2">0</pdfrwt>
<totfact> 0.11280200E+04</totfact>
</mgrwt>
</event>
<event>
 6    1  0.6513574E-002  0.3000000E+03  0.7818608E-02  0.1093470E+00
         21   -1    0    0  501  502  0.00000000000E+00  0.00000000000E+00  0.13003817638E+01  0.13003817638E+01  0.00000000000E+00 0. -1.
         13   -1    0    0    0    0 -0.00000000000E+00 -0.00000000000E+00 -0.10000000000E+04  0.10000000000E+04  0.00000000000E+00 0.  1.
    9000005    2    1    2  501    0 -0.30565006830E+02 -0.48781308976E+00 -0.76386576051E+03  0.76448526751E+03  0.35166116206E+01 0.  0.
         13    1    3    3    0    0 -0.26858549664E+02 -0.44952090022E+00 -0.69622963190E+03  0.69674764736E+03  0.00000000000E+00 0.  1.
          3    1    3    3  501    0 -0.37064571657E+01 -0.38292189538E-01 -0.67636128607E+02  0.67737620153E+02  0.00000000000E+00 0.  1.
         -3    1    1    2    0  502  0.30565006830E+02  0.48781308976E+00 -0.23483385772E+03  0.23681511425E+03  0.00000000000E+00 0. -1.
<mgrwt>
<rscale>  1 0.30000000E+03</rscale>
<asrwt>0</asrwt>
<pdfrwt beam="1">  1       21 0.47286709E-02 0.30000000E+03</pdfrwt>
<pdfrwt beam="2">0</pdfrwt>
<totfact> 0.31675070E+04</totfact>
</mgrwt>
</event>
<event>
 6    1  0.6513574E-002  0.3000000E+03  0.7818608E-02  0.1093470E+00
         21   -1    0    0  501  502  0.00000000000E+00  0.00000000000E+00  0.12156623719E+01  0.12156623719E+01  0.00000000000E+00 0. -1.
         13   -1    0    0    0    0 -0.00000000000E+00 -0.00000000000E+00 -0.10000000000E+04  0.10000000000E+04  0.00000000000E+00 0.  1.
    9000005    2    1    2  501    0 -0.30832136730E+02  0.15759252988E+02 -0.45166143423E+03  0.45299814521E+03  0.32083757566E+01 0.  0.
         13    1    3    3    0    0 -0.23507968904E+01  0.17245303669E+01 -0.29199005111E+02  0.29344201310E+02  0.00000000000E+00 0.  1.
          3    1    3    3  501    0 -0.28481339839E+02  0.14034722621E+02 -0.42246242912E+03  0.42365394390E+03  0.00000000000E+00 0.  1.
         -3    1    1    2    0  502  0.30832136730E+02 -0.15759252988E+02 -0.54712290339E+03  0.54821751717E+03  0.00000000000E+00 0. -1.
<mgrwt>
<rscale>  1 0.30000000E+03</rscale>
<asrwt>0</asrwt>
<pdfrwt beam="1">  1       21 0.44205998E-02 0.30000000E+03</pdfrwt>
<pdfrwt beam="2">0</pdfrwt>
<totfact> 0.35514243E+04</totfact>
</mgrwt>
</event>
<event>
 6    1  0.6513574E-002  0.3000000E+03  0.7818608E-02  0.1093470E+00
         21   -1    0    0  501  502  0.00000000000E+00  0.00000000000E+00  0.49024171083E+01  0.49024171083E+01  0.00000000000E+00 0. -1.
         13   -1    0    0    0    0 -0.00000000000E+00 -0.00000000000E+00 -0.10000000000E+04  0.10000000000E+04  0.00000000000E+00 0.  1.
    9000005    2    1    2  501    0 -0.13950229684E+01 -0.65208215713E+02 -0.67974158520E+03  0.68287219684E+03  0.34288601615E+01 0.  0.
         13    1    3    3    0    0 -0.14599873421E+01 -0.63550803652E+02 -0.65598586333E+03  0.65905863859E+03  0.00000000000E+00 0.  1.
          3    1    3    3  501    0  0.64964373672E-01 -0.16574120613E+01 -0.23755721873E+02  0.23813558256E+02  0.00000000000E+00 0.  1.
         -3    1    1    2    0  502  0.13950229684E+01  0.65208215713E+02 -0.31535599769E+03  0.32203022026E+03  0.00000000000E+00 0. -1.
<mgrwt>
<rscale>  1 0.30000000E+03</rscale>
<asrwt>0</asrwt>
<pdfrwt beam="1">  1       21 0.17827009E-01 0.30000000E+03</pdfrwt>
<pdfrwt beam="2">0</pdfrwt>
<totfact> 0.29832956E+03</totfact>
</mgrwt>
</event>
<event>
 6    1  0.6513574E-002  0.3000000E+03  0.7818608E-02  0.1093470E+00
         21   -1    0    0  501  502  0.00000000000E+00  0.00000000000E+00  0.19281202461E+01  0.19281202461E+01  0.00000000000E+00 0. -1.
         13   -1    0    0    0    0 -0.00000000000E+00 -0.00000000000E+00 -0.10000000000E+04  0.10000000000E+04  0.00000000000E+00 0.  1.
    9000005    2    1    2  501    0  0.42260781374E+01 -0.43122405276E+02 -0.57577719020E+03  0.57741639320E+03  0.35939963502E+01 0.  0.
         13    1    3    3    0    0  0.35945944912E+01 -0.30757580842E+02 -0.39042472864E+03  0.39165088870E+03  0.00000000000E+00 0.  1.
          1    1    3    3  501    0  0.63148364623E+00 -0.12364824434E+02 -0.18535246156E+03  0.18576550449E+03  0.00000000000E+00 0.  1.
         -3    1    1    2    0  502 -0.42260781374E+01  0.43122405276E+02 -0.42229468956E+03  0.42451172705E+03  0.00000000000E+00 0. -1.
<mgrwt>
<rscale>  1 0.30000000E+03</rscale>
<asrwt>0</asrwt>
<pdfrwt beam="1">  1       21 0.70113611E-02 0.30000000E+03</pdfrwt>
<pdfrwt beam="2">0</pdfrwt>
<totfact> 0.16089809E+04</totfact>
</mgrwt>
</event>
<event>
 6    1  0.6513574E-002  0.3000000E+03  0.7818608E-02  0.1093470E+00
         21   -1    0    0  501  502  0.00000000000E+00  0.00000000000E+00  0.12929143324E+01  0.12929143324E+01  0.00000000000E+00 0. -1.
         13   -1    0    0    0    0 -0.00000000000E+00 -0.00000000000E+00 -0.10000000000E+04  0.10000000000E+04  0.00000000000E+00 0.  1.
    9000005    2    1    2  501    0 -0.73877474066E+01  0.31608406962E+02 -0.30306234412E+03  0.30489125103E+03  0.76302248278E+01 0.  0.
         13    1    3    3    0    0 -0.59298696562E+01  0.30580643656E+02 -0.27203442406E+03  0.27381210162E+03  0.00000000000E+00 0.  1.
          1    1    3    3  501    0 -0.14578777504E+01  0.10277633052E+01 -0.31027920057E+02  0.31079149410E+02  0.00000000000E+00 0.  1.
         -3    1    1    2    0  502  0.73877474066E+01 -0.31608406962E+02 -0.69564474155E+03  0.69640166330E+03  0.00000000000E+00 0. -1.
<mgrwt>
<rscale>  1 0.30000000E+03</rscale>
<asrwt>0</asrwt>
<pdfrwt beam="1">  1       21 0.47015166E-02 0.30000000E+03</pdfrwt>
<pdfrwt beam="2">0</pdfrwt>
<totfact> 0.31986782E+04</totfact>
</mgrwt>
</event>
<event>
 6    1  0.6513574E-002  0.3000000E+03  0.7818608E-02  0.1093470E+00
         21   -1    0    0  501  502  0.00000000000E+00  0.00000000000E+00  0.21269953430E+01  0.21269953430E+01  0.00000000000E+00 0. -1.
         13   -1    0    0    0    0 -0.00000000000E+00 -0.00000000000E+00 -0.10000000000E+04  0.10000000000E+04  0.00000000000E+00 0.  1.
    9000005    2    1    2  501    0 -0.36172967884E+02  0.17274438387E+02 -0.25828039801E+03  0.26144885092E+03  0.63125130648E+01 0.  0.
         13    1    3    3    0    0 -0.64362321035E+01  0.22212426736E+01 -0.60214948249E+02  0.60598671564E+02  0.00000000000E+00 0.  1.
          1    1    3    3  501    0 -0.29736735780E+02  0.15053195714E+02 -0.19806544976E+03  0.20085017935E+03  0.00000000000E+00 0.  1.
         -1    1    1    2    0  502  0.36172967884E+02 -0.17274438387E+02 -0.73959260664E+03  0.74067814443E+03  0.00000000000E+00 0. -1.
<mgrwt>
<rscale>  1 0.30000000E+03</rscale>
<asrwt>0</asrwt>
<pdfrwt beam="1">  1       21 0.77345448E-02 0.30000000E+03</pdfrwt>
<pdfrwt beam="2">0</pdfrwt>
<totfact> 0.13553150E+04</totfact>
</mgrwt>
</event>
<event>
 6    1  0.6513574E-002  0.3000000E+03  0.7818608E-02  0.1093470E+00
         21   -1    0    0  501  502  0.00000000000E+00  0.00000000000E+00  0.59290128307E+01  0.59290128307E+01  0.00000000000E+00 0. -1.
         13   -1    0    0    0    0 -0.00000000000E+00 -0.00000000000E+00 -0.10000000000E+04  0.10000000000E+04  0.00000000000E+00 0.  1.
    9000005    2    1    2  501    0 -0.41827039770E+02 -0.54702248098E+02 -0.72171435226E+03  0.72500202270E+03  0.38065027353E+01 0.  0.
         13    1    3    3    0    0 -0.40032119359E+02 -0.52261191364E+02 -0.69720772948E+03  0.70030880385E+03  0.00000000000E+00 0.  1.
          3    1    3    3  501    0 -0.17949204109E+01 -0.24410567341E+01 -0.24506622774E+02  0.24693218847E+02  0.00000000000E+00 0.  1.
         -1    1    1    2    0  502  0.41827039770E+02  0.54702248098E+02 -0.27235663491E+03  0.28092699013E+03  0.00000000000E+00 0. -1.
<mgrwt>
<rscale>  1 0.30000000E+03</rscale>
<asrwt>0</asrwt>
<pdfrwt beam="1">  1       21 0.21560092E-01 0.30000000E+03</pdfrwt>
<pdfrwt beam="2">0</pdfrwt>
<totfact> 0.20777671E+03</totfact>
</mgrwt>
</event>
<event>
 6    1  0.6513574E-002  0.3000000E+03  0.7818608E-02  0.1093470E+00
         21   -1    0    0  501  502  0.00000000000E+00  0.00000000000E+00  0.12292564549E+01  0.12292564549E+01  0.00000000000E+00 0. -1.
         13   -1    0    0    0    0 -0.00000000000E+00 -0.00000000000E+00 -0.10000000000E+04  0.10000000000E+04  0.00000000000E+00 0.  1.
    9000005    2    1    2  501    0 -0.59127669826E+01 -0.32181623754E+02 -0.32418552191E+03  0.32585096322E+03  0.34611986755E+01 0.  0.
         13    1    3    3    0    0 -0.60086530368E+01 -0.29976980931E+02 -0.30844371397E+03  0.30995523545E+03  0.00000000000E+00 0.  1.
          3    1    3    3  501    0  0.95886054177E-01 -0.22046428233E+01 -0.15741807945E+02  0.15895727775E+02  0.00000000000E+00 0.  1.
         -3    1    1    2    0  502  0.59127669826E+01  0.32181623754E+02 -0.67458522163E+03  0.67537829323E+03  0.00000000000E+00 0. -1.
<mgrwt>
<rscale>  1 0.30000000E+03</rscale>
<asrwt>0</asrwt>
<pdfrwt beam="1">  1       21 0.44700329E-02 0.30000000E+03</pdfrwt>
<pdfrwt beam="2">0</pdfrwt>
<totfact> 0.34850996E+04</totfact>
</mgrwt>
</event>
<event>
 6    1  0.6513574E-002  0.3000000E+03  0.7818608E-02  0.1093470E+00
         21   -1    0    0  501  502  0.00000000000E+00  0.00000000000E+00  0.12090040188E+01  0.12090040188E+01  0.00000000000E+00 0. -1.
         13   -1    0    0    0    0 -0.00000000000E+00 -0.00000000000E+00 -0.10000000000E+04  0.10000000000E+04  0.00000000000E+00 0.  1.
    9000005    2    1    2  501    0 -0.33701564885E+02 -0.56099793876E+01 -0.58679458724E+03  0.58779842341E+03  0.34397098262E+01 0.  0.
         13    1    3    3    0    0 -0.21509090432E+02 -0.23245061986E+01 -0.35128963270E+03  0.35195518230E+03  0.00000000000E+00 0.  1.
          1    1    3    3  501    0 -0.12192474453E+02 -0.32854731889E+01 -0.23550495454E+03  0.23584324112E+03  0.00000000000E+00 0.  1.
         -1    1    1    2    0  502  0.33701564885E+02  0.56099793876E+01 -0.41199640874E+03  0.41341058061E+03  0.00000000000E+00 0. -1.
<mgrwt>
<rscale>  1 0.30000000E+03</rscale>
<asrwt>0</asrwt>
<pdfrwt beam="1">  1       21 0.43963875E-02 0.30000000E+03</pdfrwt>
<pdfrwt beam="2">0</pdfrwt>
<totfact> 0.35846243E+04</totfact>
</mgrwt>
</event>
<event>
 6    1  0.6513574E-002  0.3000000E+03  0.7818608E-02  0.1093470E+00
         21   -1    0    0  501  502  0.00000000000E+00  0.00000000000E+00  0.39331855236E+01  0.39331855236E+01  0.00000000000E+00 0. -1.
         13   -1    0    0    0    0 -0.00000000000E+00 -0.00000000000E+00 -0.10000000000E+04  0.10000000000E+04  0.00000000000E+00 0.  1.
    9000005    2    1    2  501    0  0.14609608894E+01 -0.41375983756E+02 -0.87492555299E+03  0.87591243849E+03  0.37108185332E+01 0.  0.
         13    1    3    3    0    0  0.24692158646E+01 -0.27609495696E+02 -0.60289186166E+03  0.60352877159E+03  0.00000000000E+00 0.  1.
          3    1    3    3  501    0 -0.10082549752E+01 -0.13766488060E+02 -0.27203369133E+03  0.27238366689E+03  0.00000000000E+00 0.  1.
         -1    1    1    2    0  502 -0.14609608894E+01  0.41375983756E+02 -0.12114126148E+03  0.12802074704E+03  0.00000000000E+00 0. -1.
<mgrwt>
<rscale>  1 0.30000000E+03</rscale>
<asrwt>0</asrwt>
<pdfrwt beam="1">  1       21 0.14302523E-01 0.30000000E+03</pdfrwt>
<pdfrwt beam="2">0</pdfrwt>
<totfact> 0.44963567E+03</totfact>
</mgrwt>
</event>
<event>
 6    1  0.6513574E-002  0.3000000E+03  0.7818608E-02  0.1093470E+00
         21   -1    0    0  501  502  0.00000000000E+00  0.00000000000E+00  0.19805552012E+01  0.19805552012E+01  0.00000000000E+00 0. -1.
         13   -1    0    0    0    0 -0.00000000000E+00 -0.00000000000E+00 -0.10000000000E+04  0.10000000000E+04  0.00000000000E+00 0.  1.
    9000005    2    1    2  501    0  0.43999698810E+02  0.19267532183E+01 -0.54959708847E+03  0.55140060055E+03  0.67806168223E+01 0.  0.
         13    1    3    3    0    0  0.74433655845E+01  0.15246597485E+01 -0.12598613265E+03  0.12621503039E+03  0.00000000000E+00 0.  1.
          1    1    3    3  501    0  0.36556333226E+02  0.40209346974E+00 -0.42361095582E+03  0.42518557016E+03  0.00000000000E+00 0.  1.
         -1    1    1    2    0  502 -0.43999698810E+02 -0.19267532183E+01 -0.44842235633E+03  0.45057995465E+03  0.00000000000E+00 0. -1.
<mgrwt>
<rscale>  1 0.30000000E+03</rscale>
<asrwt>0</asrwt>
<pdfrwt beam="1">  1       21 0.72020341E-02 0.30000000E+03</pdfrwt>
<pdfrwt beam="2">0</pdfrwt>
<totfact> 0.15354845E+04</totfact>
</mgrwt>
</event>
<event>
 6    1  0.6513574E-002  0.3000000E+03  0.7818608E-02  0.1093470E+00
         21   -1    0    0  501  502  0.00000000000E+00  0.00000000000E+00  0.14484567617E+01  0.14484567617E+01  0.00000000000E+00 0. -1.
         13   -1    0    0    0    0 -0.00000000000E+00 -0.00000000000E+00 -0.10000000000E+04  0.10000000000E+04  0.00000000000E+00 0.  1.
    9000005    2    1    2  501    0  0.19390980524E+01  0.34988292431E+02 -0.30824926385E+03  0.31025732716E+03  0.37496246775E+01 0.  0.
         13    1    3    3    0    0 -0.69344283609E+00  0.17802523302E+02 -0.16336967097E+03  0.16433824903E+03  0.00000000000E+00 0.  1.
          3    1    3    3  501    0  0.26325408884E+01  0.17185769129E+02 -0.14487959288E+03  0.14591907814E+03  0.00000000000E+00 0.  1.
         -1    1    1    2    0  502 -0.19390980524E+01 -0.34988292431E+02 -0.69030227939E+03  0.69119112960E+03  0.00000000000E+00 0. -1.
<mgrwt>
<rscale>  1 0.30000000E+03</rscale>
<asrwt>0</asrwt>
<pdfrwt beam="1">  1       21 0.52671266E-02 0.30000000E+03</pdfrwt>
<pdfrwt beam="2">0</pdfrwt>
<totfact> 0.26355784E+04</totfact>
</mgrwt>
</event>
<event>
 6    1  0.6513574E-002  0.3000000E+03  0.7818608E-02  0.1093470E+00
         21   -1    0    0  501  502  0.00000000000E+00  0.00000000000E+00  0.21711060889E+01  0.21711060889E+01  0.00000000000E+00 0. -1.
         13   -1    0    0    0    0 -0.00000000000E+00 -0.00000000000E+00 -0.10000000000E+04  0.10000000000E+04  0.00000000000E+00 0.  1.
    9000005    2    1    2  501    0 -0.89061302474E+01 -0.32677784512E+02 -0.84254304036E+03  0.84323447384E+03  0.42949111067E+01 0.  0.
         13    1    3    3    0    0 -0.31636272780E+00 -0.78124454288E+00 -0.44631075131E+02  0.44639033320E+02  0.00000000000E+00 0.  1.
          3    1    3    3  501    0 -0.85897675196E+01 -0.31896539969E+02 -0.79791196523E+03  0.79859544052E+03  0.00000000000E+00 0.  1.
         -1    1    1    2    0  502  0.89061302474E+01  0.32677784512E+02 -0.15528585355E+03  0.15893663225E+03  0.00000000000E+00 0. -1.
<mgrwt>
<rscale>  1 0.30000000E+03</rscale>
<asrwt>0</asrwt>
<pdfrwt beam="1">  1       21 0.78949479E-02 0.30000000E+03</pdfrwt>
<pdfrwt beam="2">0</pdfrwt>
<totfact> 0.13073807E+04</totfact>
</mgrwt>
</event>
<event>
 6    1  0.6513574E-002  0.3000000E+03  0.7818608E-02  0.1093470E+00
         21   -1    0    0  501  502  0.00000000000E+00  0.00000000000E+00  0.99807472814E+00  0.99807472814E+00  0.00000000000E+00 0. -1.
         13   -1    0    0    0    0 -0.00000000000E+00 -0.00000000000E+00 -0.10000000000E+04  0.10000000000E+04  0.00000000000E+00 0.  1.
    9000005    2    1    2  501    0 -0.27069870461E+02 -0.13160160504E+02 -0.64701556888E+03  0.64772712659E+03  0.39136221491E+01 0.  0.
         13    1    3    3    0    0 -0.53027200057E+01 -0.23830757954E+01 -0.16113167697E+03  0.16123651947E+03  0.00000000000E+00 0.  1.
          1    1    3    3  501    0 -0.21767150455E+02 -0.10777084708E+02 -0.48588389191E+03  0.48649060712E+03  0.00000000000E+00 0.  1.
         -3    1    1    2    0  502  0.27069870461E+02  0.13160160504E+02 -0.35198635639E+03  0.35327094814E+03  0.00000000000E+00 0. -1.
<mgrwt>
<rscale>  1 0.30000000E+03</rscale>
<asrwt>0</asrwt>
<pdfrwt beam="1">  1       21 0.36293703E-02 0.30000000E+03</pdfrwt>
<pdfrwt beam="2">0</pdfrwt>
<totfact> 0.49510983E+04</totfact>
</mgrwt>
</event>
<event>
 6    1  0.6513574E-002  0.3000000E+03  0.7818608E-02  0.1093470E+00
         21   -1    0    0  501  502  0.00000000000E+00  0.00000000000E+00  0.13470839036E+01  0.13470839036E+01  0.00000000000E+00 0. -1.
         13   -1    0    0    0    0 -0.00000000000E+00 -0.00000000000E+00 -0.10000000000E+04  0.10000000000E+04  0.00000000000E+00 0.  1.
    9000005    2    1    2  501    0  0.35082582300E+02 -0.10298444220E+02 -0.46526637971E+03  0.46670884852E+03  0.27385517437E+01 0.  0.
         13    1    3    3    0    0  0.38939449383E+01 -0.48253985270E+00 -0.57440700870E+02  0.57574558343E+02  0.00000000000E+00 0.  1.
          3    1    3    3  501    0  0.31188637362E+02 -0.98159043669E+01 -0.40782567884E+03  0.40913429018E+03  0.00000000000E+00 0.  1.
         -1    1    1    2    0  502 -0.35082582300E+02  0.10298444220E+02 -0.53338653639E+03  0.53463823538E+03  0.00000000000E+00 0. -1.
<mgrwt>
<rscale>  1 0.30000000E+03</rscale>
<asrwt>0</asrwt>
<pdfrwt beam="1">  1       21 0.48984973E-02 0.30000000E+03</pdfrwt>
<pdfrwt beam="2">0</pdfrwt>
<totfact> 0.29829052E+04</totfact>
</mgrwt>
</event>
<event>
 6    1  0.6513574E-002  0.3000000E+03  0.7818608E-02  0.1093470E+00
         21   -1    0    0  501  502  0.00000000000E+00  0.00000000000E+00  0.10893536255E+01  0.10893536255E+01  0.00000000000E+00 0. -1.
         13   -1    0    0    0    0 -0.00000000000E+00 -0.00000000000E+00 -0.10000000000E+04  0.10000000000E+04  0.00000000000E+00 0.  1.
    9000005    2    1    2  501    0 -0.24194880447E+02 -0.22168055822E+02 -0.46633771017E+03  0.46750641976E+03  0.38180686434E+01 0.  0.
         13    1    3    3    0    0 -0.25329898700E+01 -0.36605434021E+01 -0.76012749636E+02  0.76142982099E+02  0.00000000000E+00 0.  1.
          1    1    3    3  501    0 -0.21661890577E+02 -0.18507512420E+02 -0.39032496054E+03  0.39136343766E+03  0.00000000000E+00 0.  1.
         -3    1    1    2    0  502  0.24194880447E+02  0.22168055822E+02 -0.53257293620E+03  0.53358293387E+03  0.00000000000E+00 0. -1.
<mgrwt>
<rscale>  1 0.30000000E+03</rscale>
<asrwt>0</asrwt>
<pdfrwt beam="1">  1       21 0.39612943E-02 0.30000000E+03</pdfrwt>
<pdfrwt beam="2">0</pdfrwt>
<totfact> 0.42741338E+04</totfact>
</mgrwt>
</event>
<event>
 6    1  0.6513574E-002  0.3000000E+03  0.7818608E-02  0.1093470E+00
         21   -1    0    0  501  502  0.00000000000E+00  0.00000000000E+00  0.12873330835E+01  0.12873330835E+01  0.00000000000E+00 0. -1.
         13   -1    0    0    0    0 -0.00000000000E+00 -0.00000000000E+00 -0.10000000000E+04  0.10000000000E+04  0.00000000000E+00 0.  1.
    9000005    2    1    2  501    0  0.14864422379E+02  0.32588891498E+02 -0.51204510107E+03  0.51330341270E+03  0.26872034258E+01 0.  0.
         13    1    3    3    0    0  0.72188317834E+01  0.15987338624E+02 -0.26996468302E+03  0.27053398420E+03  0.00000000000E+00 0.  1.
          1    1    3    3  501    0  0.76455905956E+01  0.16601552874E+02 -0.24208041805E+03  0.24276942850E+03  0.00000000000E+00 0.  1.
         -1    1    1    2    0  502 -0.14864422379E+02 -0.32588891498E+02 -0.48666756585E+03  0.48798392038E+03  0.00000000000E+00 0. -1.
<mgrwt>
<rscale>  1 0.30000000E+03</rscale>
<asrwt>0</asrwt>
<pdfrwt beam="1">  1       21 0.46812211E-02 0.30000000E+03</pdfrwt>
<pdfrwt beam="2">0</pdfrwt>
<totfact> 0.32222910E+04</totfact>
</mgrwt>
</event>
<event>
 6    1  0.6513574E-002  0.3000000E+03  0.7818608E-02  0.1093470E+00
         21   -1    0    0  501  502  0.00000000000E+00  0.00000000000E+00  0.16735801139E+01  0.16735801139E+01  0.00000000000E+00 0. -1.
         13   -1    0    0    0    0 -0.00000000000E+00 -0.00000000000E+00 -0.10000000000E+04  0.10000000000E+04  0.00000000000E+00 0.  1.
    9000005    2    1    2  501    0  0.72644736053E+01  0.38412799943E+02 -0.35503093286E+03  0.35719130774E+03  0.32173376181E+01 0.  0.
         13    1    3    3    0    0  0.39248717844E+01  0.27857079121E+02 -0.24926775559E+03  0.25085022514E+03  0.00000000000E+00 0.  1.
          1    1    3    3  501    0  0.33396018210E+01  0.10555720822E+02 -0.10576317727E+03  0.10634108260E+03  0.00000000000E+00 0.  1.
         -3    1    1    2    0  502 -0.72644736053E+01 -0.38412799943E+02 -0.64329548702E+03  0.64448227237E+03  0.00000000000E+00 0. -1.
<mgrwt>
<rscale>  1 0.30000000E+03</rscale>
<asrwt>0</asrwt>
<pdfrwt beam="1">  1       21 0.60857587E-02 0.30000000E+03</pdfrwt>
<pdfrwt beam="2">0</pdfrwt>
<totfact> 0.20562031E+04</totfact>
</mgrwt>
</event>
<event>
 6    1  0.6513574E-002  0.3000000E+03  0.7818608E-02  0.1093470E+00
         21   -1    0    0  501  502  0.00000000000E+00  0.00000000000E+00  0.18739492852E+01  0.18739492852E+01  0.00000000000E+00 0. -1.
         13   -1    0    0    0    0 -0.00000000000E+00 -0.00000000000E+00 -0.10000000000E+04  0.10000000000E+04  0.00000000000E+00 0.  1.
    9000005    2    1    2  501    0  0.37230007545E+02  0.17877215656E+02 -0.64673412055E+03  0.64806332637E+03  0.39222446656E+01 0.  0.
         13    1    3    3    0    0  0.33292860034E+02  0.17079286039E+02 -0.57394569580E+03  0.57516413159E+03  0.00000000000E+00 0.  1.
          3    1    3    3  501    0  0.39371475103E+01  0.79792961674E+00 -0.72788424748E+02  0.72899194779E+02  0.00000000000E+00 0.  1.
         -1    1    1    2    0  502 -0.37230007545E+02 -0.17877215656E+02 -0.35139193016E+03  0.35381062291E+03  0.00000000000E+00 0. -1.
<mgrwt>
<rscale>  1 0.30000000E+03</rscale>
<asrwt>0</asrwt>
<pdfrwt beam="1">  1       21 0.68143754E-02 0.30000000E+03</pdfrwt>
<pdfrwt beam="2">0</pdfrwt>
<totfact> 0.16907077E+04</totfact>
</mgrwt>
</event>
<event>
 6    1  0.6513574E-002  0.3000000E+03  0.7818608E-02  0.1093470E+00
         21   -1    0    0  501  502  0.00000000000E+00  0.00000000000E+00  0.19072430744E+01  0.19072430744E+01  0.00000000000E+00 0. -1.
         13   -1    0    0    0    0 -0.00000000000E+00 -0.00000000000E+00 -0.10000000000E+04  0.10000000000E+04  0.00000000000E+00 0.  1.
    9000005    2    1    2  501    0  0.20746103269E+02 -0.36778046958E+02 -0.62458678024E+03  0.62602196782E+03  0.34398538318E+01 0.  0.
         13    1    3    3    0    0  0.98362245954E+01 -0.18917164958E+02 -0.33820822486E+03  0.33887964502E+03  0.00000000000E+00 0.  1.
          3    1    3    3  501    0  0.10909878673E+02 -0.17860882000E+02 -0.28637855538E+03  0.28714232280E+03  0.00000000000E+00 0.  1.
         -1    1    1    2    0  502 -0.20746103269E+02  0.36778046958E+02 -0.37350597668E+03  0.37588527526E+03  0.00000000000E+00 0. -1.
<mgrwt>
<rscale>  1 0.30000000E+03</rscale>
<asrwt>0</asrwt>
<pdfrwt beam="1">  1       21 0.69354440E-02 0.30000000E+03</pdfrwt>
<pdfrwt beam="2">0</pdfrwt>
<totfact> 0.16397468E+04</totfact>
</mgrwt>
</event>
<event>
 6    1  0.6513574E-002  0.3000000E+03  0.7818608E-02  0.1093470E+00
         21   -1    0    0  501  502  0.00000000000E+00  0.00000000000E+00  0.94572815621E+00  0.94572815621E+00  0.00000000000E+00 0. -1.
         13   -1    0    0    0    0 -0.00000000000E+00 -0.00000000000E+00 -0.10000000000E+04  0.10000000000E+04  0.00000000000E+00 0.  1.
    9000005    2    1    2  501    0 -0.20006466280E+01  0.30290557379E+02 -0.56849043013E+03  0.56931308082E+03  0.38071501882E+01 0.  0.
         13    1    3    3    0    0 -0.11289504609E+01  0.24845300487E+02 -0.43714028466E+03  0.43784722445E+03  0.00000000000E+00 0.  1.
          3    1    3    3  501    0 -0.87169616710E+00  0.54452568924E+01 -0.13135014547E+03  0.13146585637E+03  0.00000000000E+00 0.  1.
         -3    1    1    2    0  502  0.20006466280E+01 -0.30290557379E+02 -0.43056384171E+03  0.43163264733E+03  0.00000000000E+00 0. -1.
<mgrwt>
<rscale>  1 0.30000000E+03</rscale>
<asrwt>0</asrwt>
<pdfrwt beam="1">  1       21 0.34390187E-02 0.30000000E+03</pdfrwt>
<pdfrwt beam="2">0</pdfrwt>
<totfact> 0.54187427E+04</totfact>
</mgrwt>
</event>
<event>
 6    1  0.6513574E-002  0.3000000E+03  0.7818608E-02  0.1093470E+00
         21   -1    0    0  501  502  0.00000000000E+00  0.00000000000E+00  0.10180544451E+01  0.10180544451E+01  0.00000000000E+00 0. -1.
         13   -1    0    0    0    0 -0.00000000000E+00 -0.00000000000E+00 -0.10000000000E+04  0.10000000000E+04  0.00000000000E+00 0.  1.
    9000005    2    1    2  501    0 -0.64045395965E+01 -0.30772165919E+02 -0.57680390942E+03  0.57767157871E+03  0.37092592357E+01 0.  0.
         13    1    3    3    0    0 -0.21787405876E+01 -0.79280644995E+01 -0.18073477666E+03  0.18092169746E+03  0.00000000000E+00 0.  1.
          3    1    3    3  501    0 -0.42257990089E+01 -0.22844101420E+02 -0.39606913276E+03  0.39674988125E+03  0.00000000000E+00 0.  1.
         -3    1    1    2    0  502  0.64045395965E+01  0.30772165919E+02 -0.42217803614E+03  0.42334647574E+03  0.00000000000E+00 0. -1.
<mgrwt>
<rscale>  1 0.30000000E+03</rscale>
<asrwt>0</asrwt>
<pdfrwt beam="1">  1       21 0.37020240E-02 0.30000000E+03</pdfrwt>
<pdfrwt beam="2">0</pdfrwt>
<totfact> 0.47891458E+04</totfact>
</mgrwt>
</event>
<event>
 6    1  0.6513574E-002  0.3000000E+03  0.7818608E-02  0.1093470E+00
         21   -1    0    0  501  502  0.00000000000E+00  0.00000000000E+00  0.11797328183E+01  0.11797328183E+01  0.00000000000E+00 0. -1.
         13   -1    0    0    0    0 -0.00000000000E+00 -0.00000000000E+00 -0.10000000000E+04  0.10000000000E+04  0.00000000000E+00 0.  1.
    9000005    2    1    2  501    0 -0.31672748008E+02 -0.12629355503E+02 -0.55228665070E+03  0.55334613176E+03  0.29552339797E+01 0.  0.
         13    1    3    3    0    0 -0.53065469555E+01 -0.96110627767E+00 -0.87502241281E+02  0.87668269032E+02  0.00000000000E+00 0.  1.
          1    1    3    3  501    0 -0.26366201052E+02 -0.11668249226E+02 -0.46478440942E+03  0.46567786273E+03  0.00000000000E+00 0.  1.
         -3    1    1    2    0  502  0.31672748008E+02  0.12629355503E+02 -0.44653361649E+03  0.44783360106E+03  0.00000000000E+00 0. -1.
<mgrwt>
<rscale>  1 0.30000000E+03</rscale>
<asrwt>0</asrwt>
<pdfrwt beam="1">  1       21 0.42899466E-02 0.30000000E+03</pdfrwt>
<pdfrwt beam="2">0</pdfrwt>
<totfact> 0.37364354E+04</totfact>
</mgrwt>
</event>
<event>
 6    1  0.6513574E-002  0.3000000E+03  0.7818608E-02  0.1093470E+00
         21   -1    0    0  501  502  0.00000000000E+00  0.00000000000E+00  0.17757595185E+01  0.17757595185E+01  0.00000000000E+00 0. -1.
         13   -1    0    0    0    0 -0.00000000000E+00 -0.00000000000E+00 -0.10000000000E+04  0.10000000000E+04  0.00000000000E+00 0.  1.
    9000005    2    1    2  501    0 -0.38549168939E+02  0.73003441060E+01 -0.31861860648E+03  0.32103854795E+03  0.29324773534E+01 0.  0.
         13    1    3    3    0    0 -0.33930483467E+02  0.54371510071E+01 -0.27806358153E+03  0.28017886375E+03  0.00000000000E+00 0.  1.
          3    1    3    3  501    0 -0.46186854727E+01  0.18631930989E+01 -0.40555024959E+02  0.40859684206E+02  0.00000000000E+00 0.  1.
         -1    1    1    2    0  502  0.38549168939E+02 -0.73003441060E+01 -0.67960563400E+03  0.68073721157E+03  0.00000000000E+00 0. -1.
<mgrwt>
<rscale>  1 0.30000000E+03</rscale>
<asrwt>0</asrwt>
<pdfrwt beam="1">  1       21 0.64573210E-02 0.30000000E+03</pdfrwt>
<pdfrwt beam="2">0</pdfrwt>
<totfact> 0.18560500E+04</totfact>
</mgrwt>
</event>
<event>
 6    1  0.6513574E-002  0.3000000E+03  0.7818608E-02  0.1093470E+00
         21   -1    0    0  501  502  0.00000000000E+00  0.00000000000E+00  0.75677468246E+01  0.75677468246E+01  0.00000000000E+00 0. -1.
         13   -1    0    0    0    0 -0.00000000000E+00 -0.00000000000E+00 -0.10000000000E+04  0.10000000000E+04  0.00000000000E+00 0.  1.
    9000005    2    1    2  501    0  0.85249627447E+02 -0.15941899800E+01 -0.59555120427E+03  0.60163104314E+03  0.29384920406E+01 0.  0.
         13    1    3    3    0    0  0.22319035499E+02 -0.12274797070E+01 -0.16329527630E+03  0.16481806125E+03  0.00000000000E+00 0.  1.
          1    1    3    3  501    0  0.62930591948E+02 -0.36671027307E+00 -0.43225592797E+03  0.43681298189E+03  0.00000000000E+00 0.  1.
         -3    1    1    2    0  502 -0.85249627447E+02  0.15941899800E+01 -0.39688104891E+03  0.40593670369E+03  0.00000000000E+00 0. -1.
<mgrwt>
<rscale>  1 0.30000000E+03</rscale>
<asrwt>0</asrwt>
<pdfrwt beam="1">  1       21 0.27519137E-01 0.30000000E+03</pdfrwt>
<pdfrwt beam="2">0</pdfrwt>
<totfact> 0.12909453E+03</totfact>
</mgrwt>
</event>
<event>
 6    1  0.6513574E-002  0.3000000E+03  0.7818608E-02  0.1093470E+00
         21   -1    0    0  501  502  0.00000000000E+00  0.00000000000E+00  0.12064383928E+01  0.12064383928E+01  0.00000000000E+00 0. -1.
         13   -1    0    0    0    0 -0.00000000000E+00 -0.00000000000E+00 -0.10000000000E+04  0.10000000000E+04  0.00000000000E+00 0.  1.
    9000005    2    1    2  501    0 -0.25599429774E+01 -0.31680173372E+02 -0.69965568039E+03  0.70038479909E+03  0.32571464900E+01 0.  0.
         13    1    3    3    0    0 -0.28840799648E+01 -0.30882956612E+02 -0.68703747703E+03  0.68773728252E+03  0.00000000000E+00 0.  1.
          3    1    3    3  501    0  0.32413698742E+00 -0.79721675922E+00 -0.12618203357E+02  0.12647516567E+02  0.00000000000E+00 0.  1.
         -3    1    1    2    0  502  0.25599429774E+01  0.31680173372E+02 -0.29913788122E+03  0.30082163930E+03  0.00000000000E+00 0. -1.
<mgrwt>
<rscale>  1 0.30000000E+03</rscale>
<asrwt>0</asrwt>
<pdfrwt beam="1">  1       21 0.43870580E-02 0.30000000E+03</pdfrwt>
<pdfrwt beam="2">0</pdfrwt>
<totfact> 0.35975453E+04</totfact>
</mgrwt>
</event>
<event>
 6    1  0.6513574E-002  0.3000000E+03  0.7818608E-02  0.1093470E+00
         21   -1    0    0  501  502  0.00000000000E+00  0.00000000000E+00  0.23099799799E+01  0.23099799799E+01  0.00000000000E+00 0. -1.
         13   -1    0    0    0    0 -0.00000000000E+00 -0.00000000000E+00 -0.10000000000E+04  0.10000000000E+04  0.00000000000E+00 0.  1.
    9000005    2    1    2  501    0 -0.17554055207E+02 -0.44373326546E+02 -0.55106808066E+03  0.55314598578E+03  0.41611422901E+01 0.  0.
         13    1    3    3    0    0 -0.93194560061E+01 -0.17970726016E+02 -0.23274103627E+03  0.23361975348E+03  0.00000000000E+00 0.  1.
          1    1    3    3  501    0 -0.82345992010E+01 -0.26402600530E+02 -0.31832704439E+03  0.31952623230E+03  0.00000000000E+00 0.  1.
         -1    1    1    2    0  502  0.17554055207E+02  0.44373326546E+02 -0.44662193936E+03  0.44916399420E+03  0.00000000000E+00 0. -1.
<mgrwt>
<rscale>  1 0.30000000E+03</rscale>
<asrwt>0</asrwt>
<pdfrwt beam="1">  1       21 0.83999449E-02 0.30000000E+03</pdfrwt>
<pdfrwt beam="2">0</pdfrwt>
<totfact> 0.11723408E+04</totfact>
</mgrwt>
</event>
<event>
 6    1  0.6513574E-002  0.3000000E+03  0.7818608E-02  0.1093470E+00
         21   -1    0    0  501  502  0.00000000000E+00  0.00000000000E+00  0.51913167180E+01  0.51913167180E+01  0.00000000000E+00 0. -1.
         13   -1    0    0    0    0 -0.00000000000E+00 -0.00000000000E+00 -0.10000000000E+04  0.10000000000E+04  0.00000000000E+00 0.  1.
    9000005    2    1    2  501    0  0.52123483868E+02  0.48544643683E+02 -0.57160134561E+03  0.57603180015E+03  0.33311380452E+01 0.  0.
         13    1    3    3    0    0  0.28356475549E+02  0.24257542565E+02 -0.30350294987E+03  0.30578842139E+03  0.00000000000E+00 0.  1.
          3    1    3    3  501    0  0.23767008319E+02  0.24287101118E+02 -0.26809839574E+03  0.27024337876E+03  0.00000000000E+00 0.  1.
         -1    1    1    2    0  502 -0.52123483868E+02 -0.48544643683E+02 -0.42320733768E+03  0.42915951657E+03  0.00000000000E+00 0. -1.
<mgrwt>
<rscale>  1 0.30000000E+03</rscale>
<asrwt>0</asrwt>
<pdfrwt beam="1">  1       21 0.18877555E-01 0.30000000E+03</pdfrwt>
<pdfrwt beam="2">0</pdfrwt>
<totfact> 0.26776886E+03</totfact>
</mgrwt>
</event>
<event>
 6    1  0.6513574E-002  0.3000000E+03  0.7818608E-02  0.1093470E+00
         21   -1    0    0  501  502  0.00000000000E+00  0.00000000000E+00  0.29330749580E+01  0.29330749580E+01  0.00000000000E+00 0. -1.
         13   -1    0    0    0    0 -0.00000000000E+00 -0.00000000000E+00 -0.10000000000E+04  0.10000000000E+04  0.00000000000E+00 0.  1.
    9000005    2    1    2  501    0  0.73101825382E+00  0.34241862759E+02 -0.88685218865E+03  0.88751935103E+03  0.32793882717E+01 0.  0.
         13    1    3    3    0    0  0.67123906865E+00  0.14057539463E+01 -0.35503479530E+02  0.35537638706E+02  0.00000000000E+00 0.  1.
          1    1    3    3  501    0  0.59779185164E-01  0.32836108813E+02 -0.85134870912E+03  0.85198171232E+03  0.00000000000E+00 0.  1.
         -1    1    1    2    0  502 -0.73101825382E+00 -0.34241862759E+02 -0.11021473639E+03  0.11541372393E+03  0.00000000000E+00 0. -1.
<mgrwt>
<rscale>  1 0.30000000E+03</rscale>
<asrwt>0</asrwt>
<pdfrwt beam="1">  1       21 0.10665750E-01 0.30000000E+03</pdfrwt>
<pdfrwt beam="2">0</pdfrwt>
<totfact> 0.76654775E+03</totfact>
</mgrwt>
</event>
<event>
 6    1  0.6513574E-002  0.3000000E+03  0.7818608E-02  0.1093470E+00
         21   -1    0    0  501  502  0.00000000000E+00  0.00000000000E+00  0.19331869886E+01  0.19331869886E+01  0.00000000000E+00 0. -1.
         13   -1    0    0    0    0 -0.00000000000E+00 -0.00000000000E+00 -0.10000000000E+04  0.10000000000E+04  0.00000000000E+00 0.  1.
    9000005    2    1    2  501    0 -0.43409533896E+02 -0.65939769923E+01 -0.50668640026E+03  0.50859498839E+03  0.31441749638E+01 0.  0.
         13    1    3    3    0    0 -0.31634467590E+02 -0.33991361159E+01 -0.36376544288E+03  0.36515420181E+03  0.00000000000E+00 0.  1.
          3    1    3    3  501    0 -0.11775066306E+02 -0.31948408764E+01 -0.14292095738E+03  0.14344078658E+03  0.00000000000E+00 0.  1.
         -3    1    1    2    0  502  0.43409533896E+02  0.65939769923E+01 -0.49138041275E+03  0.49333819860E+03  0.00000000000E+00 0. -1.
<mgrwt>
<rscale>  1 0.30000000E+03</rscale>
<asrwt>0</asrwt>
<pdfrwt beam="1">  1       21 0.70297857E-02 0.30000000E+03</pdfrwt>
<pdfrwt beam="2">0</pdfrwt>
<totfact> 0.16016473E+04</totfact>
</mgrwt>
</event>
<event>
 6    1  0.6513574E-002  0.3000000E+03  0.7818608E-02  0.1093470E+00
         21   -1    0    0  501  502  0.00000000000E+00  0.00000000000E+00  0.12708626330E+01  0.12708626330E+01  0.00000000000E+00 0. -1.
         13   -1    0    0    0    0 -0.00000000000E+00 -0.00000000000E+00 -0.10000000000E+04  0.10000000000E+04  0.00000000000E+00 0.  1.
    9000005    2    1    2  501    0  0.26223612919E+02 -0.23406665196E+02 -0.57792743027E+03  0.57900361722E+03  0.30861382383E+01 0.  0.
         13    1    3    3    0    0  0.19217912712E+02 -0.18274622084E+02 -0.45166806906E+03  0.45244594659E+03  0.00000000000E+00 0.  1.
          3    1    3    3  501    0  0.70057002064E+01 -0.51320431114E+01 -0.12625936121E+03  0.12655767063E+03  0.00000000000E+00 0.  1.
         -3    1    1    2    0  502 -0.26223612919E+02  0.23406665196E+02 -0.42080170710E+03  0.42226724541E+03  0.00000000000E+00 0. -1.
<mgrwt>
<rscale>  1 0.30000000E+03</rscale>
<asrwt>0</asrwt>
<pdfrwt beam="1">  1       21 0.46213284E-02 0.30000000E+03</pdfrwt>
<pdfrwt beam="2">0</pdfrwt>
<totfact> 0.32935894E+04</totfact>
</mgrwt>
</event>
<event>
 6    1  0.6513574E-002  0.3000000E+03  0.7818608E-02  0.1093470E+00
         21   -1    0    0  501  502  0.00000000000E+00  0.00000000000E+00  0.21746062985E+01  0.21746062985E+01  0.00000000000E+00 0. -1.
         13   -1    0    0    0    0 -0.00000000000E+00 -0.00000000000E+00 -0.10000000000E+04  0.10000000000E+04  0.00000000000E+00 0.  1.
    9000005    2    1    2  501    0  0.40865299753E+02 -0.16164244529E+02 -0.66542522077E+03  0.66688200201E+03  0.31023610377E+01 0.  0.
         13    1    3    3    0    0  0.37275923301E+02 -0.13807967335E+02 -0.60476643286E+03  0.60607144194E+03  0.00000000000E+00 0.  1.
          3    1    3    3  501    0  0.35893764523E+01 -0.23562771933E+01 -0.60658787913E+02  0.60810560075E+02  0.00000000000E+00 0.  1.
         -3    1    1    2    0  502 -0.40865299753E+02  0.16164244529E+02 -0.33240017293E+03  0.33529260428E+03  0.00000000000E+00 0. -1.
<mgrwt>
<rscale>  1 0.30000000E+03</rscale>
<asrwt>0</asrwt>
<pdfrwt beam="1">  1       21 0.79076759E-02 0.30000000E+03</pdfrwt>
<pdfrwt beam="2">0</pdfrwt>
<totfact> 0.13036893E+04</totfact>
</mgrwt>
</event>
<event>
 6    1  0.6513574E-002  0.3000000E+03  0.7818608E-02  0.1093470E+00
         21   -1    0    0  501  502  0.00000000000E+00  0.00000000000E+00  0.10217889334E+01  0.10217889334E+01  0.00000000000E+00 0. -1.
         13   -1    0    0    0    0 -0.00000000000E+00 -0.00000000000E+00 -0.10000000000E+04  0.10000000000E+04  0.00000000000E+00 0.  1.
    9000005    2    1    2  501    0  0.28595543740E+02  0.10953463798E+02 -0.36281610405E+03  0.36412312360E+03  0.35270804131E+01 0.  0.
         13    1    3    3    0    0  0.12518605069E+02  0.49715858532E+01 -0.13927591792E+03  0.13992574263E+03  0.00000000000E+00 0.  1.
          1    1    3    3  501    0  0.16076938671E+02  0.59818779447E+01 -0.22354018613E+03  0.22419738097E+03  0.00000000000E+00 0.  1.
         -3    1    1    2    0  502 -0.28595543740E+02 -0.10953463798E+02 -0.63616210702E+03  0.63689866533E+03  0.00000000000E+00 0. -1.
<mgrwt>
<rscale>  1 0.30000000E+03</rscale>
<asrwt>0</asrwt>
<pdfrwt beam="1">  1       21 0.37156040E-02 0.30000000E+03</pdfrwt>
<pdfrwt beam="2">0</pdfrwt>
<totfact> 0.47598007E+04</totfact>
</mgrwt>
</event>
<event>
 6    1  0.6513574E-002  0.3000000E+03  0.7818608E-02  0.1093470E+00
         21   -1    0    0  501  502  0.00000000000E+00  0.00000000000E+00  0.20622334442E+01  0.20622334442E+01  0.00000000000E+00 0. -1.
         13   -1    0    0    0    0 -0.00000000000E+00 -0.00000000000E+00 -0.10000000000E+04  0.10000000000E+04  0.00000000000E+00 0.  1.
    9000005    2    1    2  501    0  0.97753270409E+01  0.41902225734E+02 -0.65779428358E+03  0.65920812081E+03  0.32670306623E+01 0.  0.
         13    1    3    3    0    0  0.68793586485E+00  0.39318871270E+01 -0.76608526689E+02  0.76712445885E+02  0.00000000000E+00 0.  1.
          3    1    3    3  501    0  0.90873911761E+01  0.37970338607E+02 -0.58118575689E+03  0.58249567492E+03  0.00000000000E+00 0.  1.
         -1    1    1    2    0  502 -0.97753270409E+01 -0.41902225734E+02 -0.34014348298E+03  0.34285411264E+03  0.00000000000E+00 0. -1.
<mgrwt>
<rscale>  1 0.30000000E+03</rscale>
<asrwt>0</asrwt>
<pdfrwt beam="1">  1       21 0.74990465E-02 0.30000000E+03</pdfrwt>
<pdfrwt beam="2">0</pdfrwt>
<totfact> 0.14307648E+04</totfact>
</mgrwt>
</event>
<event>
 6    1  0.6513574E-002  0.3000000E+03  0.7818608E-02  0.1093470E+00
         21   -1    0    0  501  502  0.00000000000E+00  0.00000000000E+00  0.18716293715E+01  0.18716293715E+01  0.00000000000E+00 0. -1.
         13   -1    0    0    0    0 -0.00000000000E+00 -0.00000000000E+00 -0.10000000000E+04  0.10000000000E+04  0.00000000000E+00 0.  1.
    9000005    2    1    2  501    0  0.35719014362E+02  0.24211543559E+02 -0.52297815426E+03  0.52476600695E+03  0.33414654654E+01 0.  0.
         13    1    3    3    0    0  0.29086321931E+02  0.19199972212E+02 -0.43653883311E+03  0.43792785464E+03  0.00000000000E+00 0.  1.
          1    1    3    3  501    0  0.66326924309E+01  0.50115713471E+01 -0.86439321151E+02  0.86838152314E+02  0.00000000000E+00 0.  1.
         -1    1    1    2    0  502 -0.35719014362E+02 -0.24211543559E+02 -0.47515021637E+03  0.47710562242E+03  0.00000000000E+00 0. -1.
<mgrwt>
<rscale>  1 0.30000000E+03</rscale>
<asrwt>0</asrwt>
<pdfrwt beam="1">  1       21 0.68059393E-02 0.30000000E+03</pdfrwt>
<pdfrwt beam="2">0</pdfrwt>
<totfact> 0.16943489E+04</totfact>
</mgrwt>
</event>
<event>
 6    1  0.6513574E-002  0.3000000E+03  0.7818608E-02  0.1093470E+00
         21   -1    0    0  501  502  0.00000000000E+00  0.00000000000E+00  0.38526231957E+01  0.38526231957E+01  0.00000000000E+00 0. -1.
         13   -1    0    0    0    0 -0.00000000000E+00 -0.00000000000E+00 -0.10000000000E+04  0.10000000000E+04  0.00000000000E+00 0.  1.
    9000005    2    1    2  501    0  0.24619487861E+02  0.56487893612E+02 -0.55566418394E+03  0.55908027187E+03  0.33262252095E+01 0.  0.
         13    1    3    3    0    0  0.23724468013E+02  0.54672463493E+02 -0.53132509668E+03  0.53465716773E+03  0.00000000000E+00 0.  1.
          1    1    3    3  501    0  0.89501984772E+00  0.18154301186E+01 -0.24339087263E+02  0.24423104140E+02  0.00000000000E+00 0.  1.
         -3    1    1    2    0  502 -0.24619487861E+02 -0.56487893612E+02 -0.44048319286E+03  0.44477235132E+03  0.00000000000E+00 0. -1.
<mgrwt>
<rscale>  1 0.30000000E+03</rscale>
<asrwt>0</asrwt>
<pdfrwt beam="1">  1       21 0.14009568E-01 0.30000000E+03</pdfrwt>
<pdfrwt beam="2">0</pdfrwt>
<totfact> 0.46708097E+03</totfact>
</mgrwt>
</event>
<event>
 6    1  0.6513574E-002  0.3000000E+03  0.7818608E-02  0.1093470E+00
         21   -1    0    0  501  502  0.00000000000E+00  0.00000000000E+00  0.28684914135E+01  0.28684914135E+01  0.00000000000E+00 0. -1.
         13   -1    0    0    0    0 -0.00000000000E+00 -0.00000000000E+00 -0.10000000000E+04  0.10000000000E+04  0.00000000000E+00 0.  1.
    9000005    2    1    2  501    0 -0.57230518967E+01 -0.52206323016E+02 -0.40913608006E+03  0.41253225040E+03  0.56808562268E+01 0.  0.
         13    1    3    3    0    0 -0.47444255758E+00 -0.21197339683E+02 -0.14866396489E+03  0.15016832809E+03  0.00000000000E+00 0.  1.
          3    1    3    3  501    0 -0.52486093392E+01 -0.31008983333E+02 -0.26047211518E+03  0.26236392231E+03  0.00000000000E+00 0.  1.
         -3    1    1    2    0  502  0.57230518967E+01  0.52206323016E+02 -0.58799542852E+03  0.59033624101E+03  0.00000000000E+00 0. -1.
<mgrwt>
<rscale>  1 0.30000000E+03</rscale>
<asrwt>0</asrwt>
<pdfrwt beam="1">  1       21 0.10430900E-01 0.30000000E+03</pdfrwt>
<pdfrwt beam="2">0</pdfrwt>
<totfact> 0.79777126E+03</totfact>
</mgrwt>
</event>
<event>
 6    1  0.6513574E-002  0.3000000E+03  0.7818608E-02  0.1093470E+00
         21   -1    0    0  501  502  0.00000000000E+00  0.00000000000E+00  0.98061757619E+00  0.98061757619E+00  0.00000000000E+00 0. -1.
         13   -1    0    0    0    0 -0.00000000000E+00 -0.00000000000E+00 -0.10000000000E+04  0.10000000000E+04  0.00000000000E+00 0.  1.
    9000005    2    1    2  501    0 -0.25095197930E+02  0.17327258443E+02 -0.39064642146E+03  0.39184380004E+03  0.26332844864E+01 0.  0.
         13    1    3    3    0    0 -0.51600590377E+01  0.30018034864E+01 -0.89137039568E+02  0.89336716172E+02  0.00000000000E+00 0.  1.
          1    1    3    3  501    0 -0.19935138893E+02  0.14325454957E+02 -0.30150938189E+03  0.30250708387E+03  0.00000000000E+00 0.  1.
         -1    1    1    2    0  502  0.25095197930E+02 -0.17327258443E+02 -0.60837296097E+03  0.60913681754E+03  0.00000000000E+00 0. -1.
<mgrwt>
<rscale>  1 0.30000000E+03</rscale>
<asrwt>0</asrwt>
<pdfrwt beam="1">  1       21 0.35658896E-02 0.30000000E+03</pdfrwt>
<pdfrwt beam="2">0</pdfrwt>
<totfact> 0.50997917E+04</totfact>
</mgrwt>
</event>
<event>
 6    1  0.6513574E-002  0.3000000E+03  0.7818608E-02  0.1093470E+00
         21   -1    0    0  501  502  0.00000000000E+00  0.00000000000E+00  0.18138069089E+01  0.18138069089E+01  0.00000000000E+00 0. -1.
         13   -1    0    0    0    0 -0.00000000000E+00 -0.00000000000E+00 -0.10000000000E+04  0.10000000000E+04  0.00000000000E+00 0.  1.
    9000005    2    1    2  501    0  0.41536669791E+02  0.18538889922E+01 -0.58312347515E+03  0.58467379245E+03  0.90401581841E+01 0.  0.
         13    1    3    3    0    0  0.34164523598E+02 -0.20005762913E+01 -0.47336678599E+03  0.47460228724E+03  0.00000000000E+00 0.  1.
          1    1    3    3  501    0  0.73721461935E+01  0.38544652835E+01 -0.10975668917E+03  0.11007150521E+03  0.00000000000E+00 0.  1.
         -3    1    1    2    0  502 -0.41536669791E+02 -0.18538889922E+01 -0.41506271794E+03  0.41714001446E+03  0.00000000000E+00 0. -1.
<mgrwt>
<rscale>  1 0.30000000E+03</rscale>
<asrwt>0</asrwt>
<pdfrwt beam="1">  1       21 0.65956754E-02 0.30000000E+03</pdfrwt>
<pdfrwt beam="2">0</pdfrwt>
<totfact> 0.17891429E+04</totfact>
</mgrwt>
</event>
<event>
 6    1  0.6513574E-002  0.3000000E+03  0.7818608E-02  0.1093470E+00
         21   -1    0    0  501  502  0.00000000000E+00  0.00000000000E+00  0.13451445187E+01  0.13451445187E+01  0.00000000000E+00 0. -1.
         13   -1    0    0    0    0 -0.00000000000E+00 -0.00000000000E+00 -0.10000000000E+04  0.10000000000E+04  0.00000000000E+00 0.  1.
    9000005    2    1    2  501    0  0.16448678905E+02  0.32310901126E+02 -0.56766640011E+03  0.56883433306E+03  0.35781670578E+01 0.  0.
         13    1    3    3    0    0  0.24087331116E+01  0.26777543488E+01 -0.64685857881E+02  0.64786052306E+02  0.00000000000E+00 0.  1.
          1    1    3    3  501    0  0.14039945793E+02  0.29633146777E+02 -0.50298054223E+03  0.50404828075E+03  0.00000000000E+00 0.  1.
         -3    1    1    2    0  502 -0.16448678905E+02 -0.32310901126E+02 -0.43098845537E+03  0.43251081146E+03  0.00000000000E+00 0. -1.
<mgrwt>
<rscale>  1 0.30000000E+03</rscale>
<asrwt>0</asrwt>
<pdfrwt beam="1">  1       21 0.48914449E-02 0.30000000E+03</pdfrwt>
<pdfrwt beam="2">0</pdfrwt>
<totfact> 0.29902331E+04</totfact>
</mgrwt>
</event>
<event>
 6    1  0.6513574E-002  0.3000000E+03  0.7818608E-02  0.1093470E+00
         21   -1    0    0  501  502  0.00000000000E+00  0.00000000000E+00  0.22101958019E+01  0.22101958019E+01  0.00000000000E+00 0. -1.
         13   -1    0    0    0    0 -0.00000000000E+00 -0.00000000000E+00 -0.10000000000E+04  0.10000000000E+04  0.00000000000E+00 0.  1.
    9000005    2    1    2  501    0  0.35231258555E+02  0.26542284251E+02 -0.32818112635E+03  0.33115020155E+03  0.34452667710E+01 0.  0.
         13    1    3    3    0    0  0.48067707710E+01  0.51970061073E+01 -0.52924860647E+02  0.53396205785E+02  0.00000000000E+00 0.  1.
          1    1    3    3  501    0  0.30424487784E+02  0.21345278143E+02 -0.27525626570E+03  0.27775399576E+03  0.00000000000E+00 0.  1.
         -3    1    1    2    0  502 -0.35231258555E+02 -0.26542284251E+02 -0.66960867785E+03  0.67105999425E+03  0.00000000000E+00 0. -1.
<mgrwt>
<rscale>  1 0.30000000E+03</rscale>
<asrwt>0</asrwt>
<pdfrwt beam="1">  1       21 0.80370926E-02 0.30000000E+03</pdfrwt>
<pdfrwt beam="2">0</pdfrwt>
<totfact> 0.12670486E+04</totfact>
</mgrwt>
</event>
<event>
 6    1  0.6513574E-002  0.3000000E+03  0.7818608E-02  0.1093470E+00
         21   -1    0    0  501  502  0.00000000000E+00  0.00000000000E+00  0.11224045773E+01  0.11224045773E+01  0.00000000000E+00 0. -1.
         13   -1    0    0    0    0 -0.00000000000E+00 -0.00000000000E+00 -0.10000000000E+04  0.10000000000E+04  0.00000000000E+00 0.  1.
    9000005    2    1    2  501    0 -0.28528910792E+02  0.13591540056E+02 -0.65093224250E+03  0.65174496207E+03  0.77512931945E+01 0.  0.
         13    1    3    3    0    0 -0.22695996410E+02  0.12949579399E+02 -0.47855579198E+03  0.47926865733E+03  0.00000000000E+00 0.  1.
          3    1    3    3  501    0 -0.58329143820E+01  0.64196065733E+00 -0.17237645052E+03  0.17247630474E+03  0.00000000000E+00 0.  1.
         -1    1    1    2    0  502  0.28528910792E+02 -0.13591540056E+02 -0.34794535292E+03  0.34937744251E+03  0.00000000000E+00 0. -1.
<mgrwt>
<rscale>  1 0.30000000E+03</rscale>
<asrwt>0</asrwt>
<pdfrwt beam="1">  1       21 0.40814798E-02 0.30000000E+03</pdfrwt>
<pdfrwt beam="2">0</pdfrwt>
<totfact> 0.40642691E+04</totfact>
</mgrwt>
</event>
<event>
 6    1  0.6513574E-002  0.3000000E+03  0.7818608E-02  0.1093470E+00
         21   -1    0    0  501  502  0.00000000000E+00  0.00000000000E+00  0.10466646135E+01  0.10466646135E+01  0.00000000000E+00 0. -1.
         13   -1    0    0    0    0 -0.00000000000E+00 -0.00000000000E+00 -0.10000000000E+04  0.10000000000E+04  0.00000000000E+00 0.  1.
    9000005    2    1    2  501    0  0.25140993466E+02 -0.18960513644E+02 -0.39171233472E+03  0.39298975648E+03  0.32901218283E+01 0.  0.
         13    1    3    3    0    0  0.49996800533E+00 -0.10833801761E+01 -0.12094815089E+02  0.12153527580E+02  0.00000000000E+00 0.  1.
          1    1    3    3  501    0  0.24641025461E+02 -0.17877133468E+02 -0.37961751963E+03  0.38083622890E+03  0.00000000000E+00 0.  1.
         -3    1    1    2    0  502 -0.25140993466E+02  0.18960513644E+02 -0.60724100067E+03  0.60805690813E+03  0.00000000000E+00 0. -1.
<mgrwt>
<rscale>  1 0.30000000E+03</rscale>
<asrwt>0</asrwt>
<pdfrwt beam="1">  1       21 0.38060612E-02 0.30000000E+03</pdfrwt>
<pdfrwt beam="2">0</pdfrwt>
<totfact> 0.45713503E+04</totfact>
</mgrwt>
</event>
<event>
 6    1  0.6513574E-002  0.3000000E+03  0.7818608E-02  0.1093470E+00
         21   -1    0    0  501  502  0.00000000000E+00  0.00000000000E+00  0.13671257066E+01  0.13671257066E+01  0.00000000000E+00 0. -1.
         13   -1    0    0    0    0 -0.00000000000E+00 -0.00000000000E+00 -0.10000000000E+04  0.10000000000E+04  0.00000000000E+00 0.  1.
    9000005    2    1    2  501    0 -0.14849475981E+02  0.29839001283E+02 -0.28564359239E+03  0.28759924394E+03  0.31922258734E+01 0.  0.
         13    1    3    3    0    0 -0.78132225953E+01  0.12882549005E+02 -0.13716370917E+03  0.13798873008E+03  0.00000000000E+00 0.  1.
          1    1    3    3  501    0 -0.70362533857E+01  0.16956452278E+02 -0.14847988322E+03  0.14961051386E+03  0.00000000000E+00 0.  1.
         -1    1    1    2    0  502  0.14849475981E+02 -0.29839001283E+02 -0.71298928191E+03  0.71376788177E+03  0.00000000000E+00 0. -1.
<mgrwt>
<rscale>  1 0.30000000E+03</rscale>
<asrwt>0</asrwt>
<pdfrwt beam="1">  1       21 0.49713767E-02 0.30000000E+03</pdfrwt>
<pdfrwt beam="2">0</pdfrwt>
<totfact> 0.29087911E+04</totfact>
</mgrwt>
</event>
<event>
 6    1  0.6513574E-002  0.3000000E+03  0.7818608E-02  0.1093470E+00
         21   -1    0    0  501  502  0.00000000000E+00  0.00000000000E+00  0.10220185006E+01  0.10220185006E+01  0.00000000000E+00 0. -1.
         13   -1    0    0    0    0 -0.00000000000E+00 -0.00000000000E+00 -0.10000000000E+04  0.10000000000E+04  0.00000000000E+00 0.  1.
    9000005    2    1    2  501    0 -0.22418631143E+02 -0.20407430832E+02 -0.34962353850E+03  0.35096028997E+03  0.41771052130E+01 0.  0.
         13    1    3    3    0    0 -0.15609616413E+02 -0.13146128839E+02 -0.25467943060E+03  0.25549577922E+03  0.00000000000E+00 0.  1.
          3    1    3    3  501    0 -0.68090147303E+01 -0.72613019935E+01 -0.94944107896E+02  0.95464510748E+02  0.00000000000E+00 0.  1.
         -3    1    1    2    0  502  0.22418631143E+02  0.20407430832E+02 -0.64935444300E+03  0.65006172853E+03  0.00000000000E+00 0. -1.
<mgrwt>
<rscale>  1 0.30000000E+03</rscale>
<asrwt>0</asrwt>
<pdfrwt beam="1">  1       21 0.37164387E-02 0.30000000E+03</pdfrwt>
<pdfrwt beam="2">0</pdfrwt>
<totfact> 0.47580060E+04</totfact>
</mgrwt>
</event>
<event>
 6    1  0.6513574E-002  0.3000000E+03  0.7818608E-02  0.1093470E+00
         21   -1    0    0  501  502  0.00000000000E+00  0.00000000000E+00  0.13974616741E+01  0.13974616741E+01  0.00000000000E+00 0. -1.
         13   -1    0    0    0    0 -0.00000000000E+00 -0.00000000000E+00 -0.10000000000E+04  0.10000000000E+04  0.00000000000E+00 0.  1.
    9000005    2    1    2  501    0  0.23380987250E+02 -0.27355912152E+02 -0.37822057406E+03  0.37997264878E+03  0.57788133637E+01 0.  0.
         13    1    3    3    0    0  0.21793264524E+02 -0.24756752479E+02 -0.35904118048E+03  0.36055292600E+03  0.00000000000E+00 0.  1.
          3    1    3    3  501    0  0.15877227266E+01 -0.25991596729E+01 -0.19179393582E+02  0.19419722775E+02  0.00000000000E+00 0.  1.
         -3    1    1    2    0  502 -0.23380987250E+02  0.27355912152E+02 -0.62038196427E+03  0.62142481290E+03  0.00000000000E+00 0. -1.
<mgrwt>
<rscale>  1 0.30000000E+03</rscale>
<asrwt>0</asrwt>
<pdfrwt beam="1">  1       21 0.50816895E-02 0.30000000E+03</pdfrwt>
<pdfrwt beam="2">0</pdfrwt>
<totfact> 0.28019456E+04</totfact>
</mgrwt>
</event>
<event>
 6    1  0.6513574E-002  0.3000000E+03  0.7818608E-02  0.1093470E+00
         21   -1    0    0  501  502  0.00000000000E+00  0.00000000000E+00  0.39924718984E+01  0.39924718984E+01  0.00000000000E+00 0. -1.
         13   -1    0    0    0    0 -0.00000000000E+00 -0.00000000000E+00 -0.10000000000E+04  0.10000000000E+04  0.00000000000E+00 0.  1.
    9000005    2    1    2  501    0  0.43703735708E+02 -0.10906489612E+02 -0.14673842888E+03  0.15352967381E+03  0.31978432067E+01 0.  0.
         13    1    3    3    0    0  0.19318771814E+02 -0.60091985630E+01 -0.69564659454E+02  0.72446996189E+02  0.00000000000E+00 0.  1.
          1    1    3    3  501    0  0.24384963894E+02 -0.48972910487E+01 -0.77173769424E+02  0.81082677625E+02  0.00000000000E+00 0.  1.
         -3    1    1    2    0  502 -0.43703735708E+02  0.10906489612E+02 -0.84926909922E+03  0.85046279808E+03  0.00000000000E+00 0. -1.
<mgrwt>
<rscale>  1 0.30000000E+03</rscale>
<asrwt>0</asrwt>
<pdfrwt beam="1">  1       21 0.14518110E-01 0.30000000E+03</pdfrwt>
<pdfrwt beam="2">0</pdfrwt>
<totfact> 0.43740982E+03</totfact>
</mgrwt>
</event>
<event>
 6    1  0.6513574E-002  0.3000000E+03  0.7818608E-02  0.1093470E+00
         21   -1    0    0  501  502  0.00000000000E+00  0.00000000000E+00  0.10160992034E+01  0.10160992034E+01  0.00000000000E+00 0. -1.
         13   -1    0    0    0    0 -0.00000000000E+00 -0.00000000000E+00 -0.10000000000E+04  0.10000000000E+04  0.00000000000E+00 0.  1.
    9000005    2    1    2  501    0  0.54686190709E+01 -0.29527809545E+02 -0.66479010075E+03  0.66547579861E+03  0.32191850855E+01 0.  0.
         13    1    3    3    0    0  0.21423876774E+01 -0.14379452745E+02 -0.28815800593E+03  0.28852451346E+03  0.00000000000E+00 0.  1.
          1    1    3    3  501    0  0.33262313935E+01 -0.15148356800E+02 -0.37663209482E+03  0.37695128515E+03  0.00000000000E+00 0.  1.
         -3    1    1    2    0  502 -0.54686190709E+01  0.29527809545E+02 -0.33419380005E+03  0.33554030060E+03  0.00000000000E+00 0. -1.
<mgrwt>
<rscale>  1 0.30000000E+03</rscale>
<asrwt>0</asrwt>
<pdfrwt beam="1">  1       21 0.36949140E-02 0.30000000E+03</pdfrwt>
<pdfrwt beam="2">0</pdfrwt>
<totfact> 0.48046237E+04</totfact>
</mgrwt>
</event>
<event>
 6    1  0.6513574E-002  0.3000000E+03  0.7818608E-02  0.1093470E+00
         21   -1    0    0  501  502  0.00000000000E+00  0.00000000000E+00  0.11254420031E+01  0.11254420031E+01  0.00000000000E+00 0. -1.
         13   -1    0    0    0    0 -0.00000000000E+00 -0.00000000000E+00 -0.10000000000E+04  0.10000000000E+04  0.00000000000E+00 0.  1.
    9000005    2    1    2  501    0  0.28386270731E+02  0.16800880717E+02 -0.41687841287E+03  0.41819528933E+03  0.34115887341E+01 0.  0.
         13    1    3    3    0    0  0.15284001244E+02  0.80447985363E+01 -0.23645193108E+03  0.23708191662E+03  0.00000000000E+00 0.  1.
          3    1    3    3  501    0  0.13102269486E+02  0.87560821805E+01 -0.18042648179E+03  0.18111337270E+03  0.00000000000E+00 0.  1.
         -1    1    1    2    0  502 -0.28386270731E+02 -0.16800880717E+02 -0.58199614513E+03  0.58293015268E+03  0.00000000000E+00 0. -1.
<mgrwt>
<rscale>  1 0.30000000E+03</rscale>
<asrwt>0</asrwt>
<pdfrwt beam="1">  1       21 0.40925250E-02 0.30000000E+03</pdfrwt>
<pdfrwt beam="2">0</pdfrwt>
<totfact> 0.40457932E+04</totfact>
</mgrwt>
</event>
<event>
 6    1  0.6513574E-002  0.3000000E+03  0.7818608E-02  0.1093470E+00
         21   -1    0    0  501  502  0.00000000000E+00  0.00000000000E+00  0.22218838089E+01  0.22218838089E+01  0.00000000000E+00 0. -1.
         13   -1    0    0    0    0 -0.00000000000E+00 -0.00000000000E+00 -0.10000000000E+04  0.10000000000E+04  0.00000000000E+00 0.  1.
    9000005    2    1    2  501    0 -0.22499486744E+02  0.41212978407E+02 -0.46441457996E+03  0.46679551326E+03  0.35231565413E+01 0.  0.
         13    1    3    3    0    0 -0.14634377299E+02  0.23181260612E+02 -0.27078939868E+03  0.27217353707E+03  0.00000000000E+00 0.  1.
          1    1    3    3  501    0 -0.78651094448E+01  0.18031717795E+02 -0.19362518128E+03  0.19462197620E+03  0.00000000000E+00 0.  1.
         -3    1    1    2    0  502  0.22499486744E+02 -0.41212978407E+02 -0.53336353623E+03  0.53542637054E+03  0.00000000000E+00 0. -1.
<mgrwt>
<rscale>  1 0.30000000E+03</rscale>
<asrwt>0</asrwt>
<pdfrwt beam="1">  1       21 0.80795945E-02 0.30000000E+03</pdfrwt>
<pdfrwt beam="2">0</pdfrwt>
<totfact> 0.12553599E+04</totfact>
</mgrwt>
</event>
<event>
 6    1  0.6513574E-002  0.3000000E+03  0.7818608E-02  0.1093470E+00
         21   -1    0    0  501  502  0.00000000000E+00  0.00000000000E+00  0.19029324149E+01  0.19029324149E+01  0.00000000000E+00 0. -1.
         13   -1    0    0    0    0 -0.00000000000E+00 -0.00000000000E+00 -0.10000000000E+04  0.10000000000E+04  0.00000000000E+00 0.  1.
    9000005    2    1    2  501    0 -0.27633200949E+02 -0.32951010273E+02 -0.41941942081E+03  0.42162956430E+03  0.30783212623E+01 0.  0.
         13    1    3    3    0    0 -0.19797998639E+02 -0.22083448933E+02 -0.27857523099E+03  0.28014960073E+03  0.00000000000E+00 0.  1.
          1    1    3    3  501    0 -0.78352023098E+01 -0.10867561340E+02 -0.14084418982E+03  0.14147996357E+03  0.00000000000E+00 0.  1.
         -1    1    1    2    0  502  0.27633200949E+02  0.32951010273E+02 -0.57867764677E+03  0.58027336812E+03  0.00000000000E+00 0. -1.
<mgrwt>
<rscale>  1 0.30000000E+03</rscale>
<asrwt>0</asrwt>
<pdfrwt beam="1">  1       21 0.69197688E-02 0.30000000E+03</pdfrwt>
<pdfrwt beam="2">0</pdfrwt>
<totfact> 0.16462113E+04</totfact>
</mgrwt>
</event>
<event>
 6    1  0.6513574E-002  0.3000000E+03  0.7818608E-02  0.1093470E+00
         21   -1    0    0  501  502  0.00000000000E+00  0.00000000000E+00  0.13328959631E+01  0.13328959631E+01  0.00000000000E+00 0. -1.
         13   -1    0    0    0    0 -0.00000000000E+00 -0.00000000000E+00 -0.10000000000E+04  0.10000000000E+04  0.00000000000E+00 0.  1.
    9000005    2    1    2  501    0  0.31488653048E+02  0.11279949781E+02 -0.30209486365E+03  0.30395806231E+03  0.32286933105E+01 0.  0.
         13    1    3    3    0    0  0.26388529087E+02  0.83467521780E+01 -0.25473256338E+03  0.25623173415E+03  0.00000000000E+00 0.  1.
          3    1    3    3  501    0  0.51001239605E+01  0.29331976030E+01 -0.47362300274E+02  0.47726328163E+02  0.00000000000E+00 0.  1.
         -3    1    1    2    0  502 -0.31488653048E+02 -0.11279949781E+02 -0.69657224038E+03  0.69737483365E+03  0.00000000000E+00 0. -1.
<mgrwt>
<rscale>  1 0.30000000E+03</rscale>
<asrwt>0</asrwt>
<pdfrwt beam="1">  1       21 0.48469046E-02 0.30000000E+03</pdfrwt>
<pdfrwt beam="2">0</pdfrwt>
<totfact> 0.30371697E+04</totfact>
</mgrwt>
</event>
<event>
 6    1  0.6513574E-002  0.3000000E+03  0.7818608E-02  0.1093470E+00
         21   -1    0    0  501  502  0.00000000000E+00  0.00000000000E+00  0.14021948187E+01  0.14021948187E+01  0.00000000000E+00 0. -1.
         13   -1    0    0    0    0 -0.00000000000E+00 -0.00000000000E+00 -0.10000000000E+04  0.10000000000E+04  0.00000000000E+00 0.  1.
    9000005    2    1    2  501    0 -0.12145897543E+02 -0.33406298757E+02 -0.65408573054E+03  0.65506121660E+03  0.36811637222E+01 0.  0.
         13    1    3    3    0    0 -0.75238593268E+01 -0.16237605866E+02 -0.30914886820E+03  0.30966641893E+03  0.00000000000E+00 0.  1.
          3    1    3    3  501    0 -0.46220382158E+01 -0.17168692891E+02 -0.34493686235E+03  0.34539479767E+03  0.00000000000E+00 0.  1.
         -1    1    1    2    0  502  0.12145897543E+02  0.33406298757E+02 -0.34451207464E+03  0.34634097822E+03  0.00000000000E+00 0. -1.
<mgrwt>
<rscale>  1 0.30000000E+03</rscale>
<asrwt>0</asrwt>
<pdfrwt beam="1">  1       21 0.50989010E-02 0.30000000E+03</pdfrwt>
<pdfrwt beam="2">0</pdfrwt>
<totfact> 0.27858267E+04</totfact>
</mgrwt>
</event>
<event>
 6    1  0.6513574E-002  0.3000000E+03  0.7818608E-02  0.1093470E+00
         21   -1    0    0  501  502  0.00000000000E+00  0.00000000000E+00  0.19617297749E+01  0.19617297749E+01  0.00000000000E+00 0. -1.
         13   -1    0    0    0    0 -0.00000000000E+00 -0.00000000000E+00 -0.10000000000E+04  0.10000000000E+04  0.00000000000E+00 0.  1.
    9000005    2    1    2  501    0 -0.78630997964E+01  0.43358003387E+02 -0.45743675321E+03  0.45956727460E+03  0.34571531214E+01 0.  0.
         13    1    3    3    0    0 -0.17899324166E+01  0.89710625865E+01 -0.11027271072E+03  0.11065150045E+03  0.00000000000E+00 0.  1.
          3    1    3    3  501    0 -0.60731673798E+01  0.34386940801E+02 -0.34716404248E+03  0.34891577415E+03  0.00000000000E+00 0.  1.
         -1    1    1    2    0  502  0.78630997964E+01 -0.43358003387E+02 -0.54060151702E+03  0.54239445517E+03  0.00000000000E+00 0. -1.
<mgrwt>
<rscale>  1 0.30000000E+03</rscale>
<asrwt>0</asrwt>
<pdfrwt beam="1">  1       21 0.71335779E-02 0.30000000E+03</pdfrwt>
<pdfrwt beam="2">0</pdfrwt>
<totfact> 0.15612716E+04</totfact>
</mgrwt>
</event>
<event>
 6    1  0.6513574E-002  0.3000000E+03  0.7818608E-02  0.1093470E+00
         21   -1    0    0  501  502  0.00000000000E+00  0.00000000000E+00  0.17700037929E+01  0.17700037929E+01  0.00000000000E+00 0. -1.
         13   -1    0    0    0    0 -0.00000000000E+00 -0.00000000000E+00 -0.10000000000E+04  0.10000000000E+04  0.00000000000E+00 0.  1.
    9000005    2    1    2  501    0 -0.41321466030E+02 -0.11300135156E+01 -0.58748135623E+03  0.58894657213E+03  0.38704550669E+01 0.  0.
         13    1    3    3    0    0 -0.21185438518E+02 -0.71998203801E+00 -0.27381934369E+03  0.27463862467E+03  0.00000000000E+00 0.  1.
          1    1    3    3  501    0 -0.20136027513E+02 -0.41003147763E+00 -0.31366201254E+03  0.31430794746E+03  0.00000000000E+00 0.  1.
         -3    1    1    2    0  502  0.41321466030E+02  0.11300135156E+01 -0.41074863998E+03  0.41282343166E+03  0.00000000000E+00 0. -1.
<mgrwt>
<rscale>  1 0.30000000E+03</rscale>
<asrwt>0</asrwt>
<pdfrwt beam="1">  1       21 0.64363910E-02 0.30000000E+03</pdfrwt>
<pdfrwt beam="2">0</pdfrwt>
<totfact> 0.18665073E+04</totfact>
</mgrwt>
</event>
<event>
 6    1  0.6513574E-002  0.3000000E+03  0.7818608E-02  0.1093470E+00
         21   -1    0    0  501  502  0.00000000000E+00  0.00000000000E+00  0.84716344088E+01  0.84716344088E+01  0.00000000000E+00 0. -1.
         13   -1    0    0    0    0 -0.00000000000E+00 -0.00000000000E+00 -0.10000000000E+04  0.10000000000E+04  0.00000000000E+00 0.  1.
    9000005    2    1    2  501    0  0.31346619122E+02  0.61702646942E+02 -0.82808704331E+03  0.83098109100E+03  0.34051628773E+01 0.  0.
         13    1    3    3    0    0 -0.55416675823E-01  0.21433158431E+00 -0.43599239449E+01  0.43655407273E+01  0.00000000000E+00 0.  1.
          3    1    3    3  501    0  0.31402035798E+02  0.61488315358E+02 -0.82372711936E+03  0.82661555027E+03  0.00000000000E+00 0.  1.
         -3    1    1    2    0  502 -0.31346619122E+02 -0.61702646942E+02 -0.16344132228E+03  0.17749054341E+03  0.00000000000E+00 0. -1.
<mgrwt>
<rscale>  1 0.30000000E+03</rscale>
<asrwt>0</asrwt>
<pdfrwt beam="1">  1       21 0.30806008E-01 0.30000000E+03</pdfrwt>
<pdfrwt beam="2">0</pdfrwt>
<totfact> 0.10310081E+03</totfact>
</mgrwt>
</event>
<event>
 6    1  0.6513574E-002  0.3000000E+03  0.7818608E-02  0.1093470E+00
         21   -1    0    0  501  502  0.00000000000E+00  0.00000000000E+00  0.18292981435E+01  0.18292981435E+01  0.00000000000E+00 0. -1.
         13   -1    0    0    0    0 -0.00000000000E+00 -0.00000000000E+00 -0.10000000000E+04  0.10000000000E+04  0.00000000000E+00 0.  1.
    9000005    2    1    2  501    0  0.31121198309E+02  0.11214945087E+02 -0.18347288273E+03  0.18646015446E+03  0.32842849250E+01 0.  0.
         13    1    3    3    0    0  0.12451642616E+02  0.60853475821E+01 -0.79934375525E+02  0.81126932948E+02  0.00000000000E+00 0.  1.
          3    1    3    3  501    0  0.18669555693E+02  0.51295975051E+01 -0.10353850720E+03  0.10533322151E+03  0.00000000000E+00 0.  1.
         -1    1    1    2    0  502 -0.31121198309E+02 -0.11214945087E+02 -0.81469781913E+03  0.81536914368E+03  0.00000000000E+00 0. -1.
<mgrwt>
<rscale>  1 0.30000000E+03</rscale>
<asrwt>0</asrwt>
<pdfrwt beam="1">  1       21 0.66520073E-02 0.30000000E+03</pdfrwt>
<pdfrwt beam="2">0</pdfrwt>
<totfact> 0.17629614E+04</totfact>
</mgrwt>
</event>
<event>
 6    1  0.6513574E-002  0.3000000E+03  0.7818608E-02  0.1093470E+00
         21   -1    0    0  501  502  0.00000000000E+00  0.00000000000E+00  0.14625800948E+01  0.14625800948E+01  0.00000000000E+00 0. -1.
         13   -1    0    0    0    0 -0.00000000000E+00 -0.00000000000E+00 -0.10000000000E+04  0.10000000000E+04  0.00000000000E+00 0.  1.
    9000005    2    1    2  501    0 -0.18981068676E+02  0.31074913527E+02 -0.65035304355E+03  0.65137931691E+03  0.31625993740E+01 0.  0.
         13    1    3    3    0    0 -0.12486963485E+02  0.17464348833E+02 -0.38401708334E+03  0.38461675475E+03  0.00000000000E+00 0.  1.
          1    1    3    3  501    0 -0.64941051910E+01  0.13610564694E+02 -0.26633596021E+03  0.26676256216E+03  0.00000000000E+00 0.  1.
         -1    1    1    2    0  502  0.18981068676E+02 -0.31074913527E+02 -0.34818437636E+03  0.35008326318E+03  0.00000000000E+00 0. -1.
<mgrwt>
<rscale>  1 0.30000000E+03</rscale>
<asrwt>0</asrwt>
<pdfrwt beam="1">  1       21 0.53184843E-02 0.30000000E+03</pdfrwt>
<pdfrwt beam="2">0</pdfrwt>
<totfact> 0.25922033E+04</totfact>
</mgrwt>
</event>
<event>
 6    1  0.6513574E-002  0.3000000E+03  0.7818608E-02  0.1093470E+00
         21   -1    0    0  501  502  0.00000000000E+00  0.00000000000E+00  0.10072632317E+01  0.10072632317E+01  0.00000000000E+00 0. -1.
         13   -1    0    0    0    0 -0.00000000000E+00 -0.00000000000E+00 -0.10000000000E+04  0.10000000000E+04  0.00000000000E+00 0.  1.
    9000005    2    1    2  501    0  0.90688369657E+01  0.29697613315E+02 -0.57319357828E+03  0.57407739146E+03  0.70555768843E+01 0.  0.
         13    1    3    3    0    0 -0.95735366357E+00  0.30500468963E+01 -0.42095114131E+02  0.42216323215E+02  0.00000000000E+00 0.  1.
          1    1    3    3  501    0  0.10026190629E+02  0.26647566418E+02 -0.53109846415E+03  0.53186106825E+03  0.00000000000E+00 0.  1.
         -3    1    1    2    0  502 -0.90688369657E+01 -0.29697613315E+02 -0.42579915849E+03  0.42692987177E+03  0.00000000000E+00 0. -1.
<mgrwt>
<rscale>  1 0.30000000E+03</rscale>
<asrwt>0</asrwt>
<pdfrwt beam="1">  1       21 0.36627831E-02 0.30000000E+03</pdfrwt>
<pdfrwt beam="2">0</pdfrwt>
<totfact> 0.48755625E+04</totfact>
</mgrwt>
</event>
<event>
 6    1  0.6513574E-002  0.3000000E+03  0.7818608E-02  0.1093470E+00
         21   -1    0    0  501  502  0.00000000000E+00  0.00000000000E+00  0.95022104293E+01  0.95022104293E+01  0.00000000000E+00 0. -1.
         13   -1    0    0    0    0 -0.00000000000E+00 -0.00000000000E+00 -0.10000000000E+04  0.10000000000E+04  0.00000000000E+00 0.  1.
    9000005    2    1    2  501    0  0.68190766050E+02 -0.65689130641E+02 -0.37592623133E+03  0.38767969343E+03  0.31576622834E+01 0.  0.
         13    1    3    3    0    0  0.60605936973E+02 -0.58212740089E+02 -0.33753776337E+03  0.34784126323E+03  0.00000000000E+00 0.  1.
          1    1    3    3  501    0  0.75848290768E+01 -0.74763905525E+01 -0.38388467960E+02  0.39838430192E+02  0.00000000000E+00 0.  1.
         -1    1    1    2    0  502 -0.68190766050E+02  0.65689130641E+02 -0.61457155824E+03  0.62182251700E+03  0.00000000000E+00 0. -1.
<mgrwt>
<rscale>  1 0.30000000E+03</rscale>
<asrwt>0</asrwt>
<pdfrwt beam="1">  1       21 0.34553565E-01 0.30000000E+03</pdfrwt>
<pdfrwt beam="2">0</pdfrwt>
<totfact> 0.81695108E+02</totfact>
</mgrwt>
</event>
<event>
 6    1  0.6513574E-002  0.3000000E+03  0.7818608E-02  0.1093470E+00
         21   -1    0    0  501  502  0.00000000000E+00  0.00000000000E+00  0.68800888429E+01  0.68800888429E+01  0.00000000000E+00 0. -1.
         13   -1    0    0    0    0 -0.00000000000E+00 -0.00000000000E+00 -0.10000000000E+04  0.10000000000E+04  0.00000000000E+00 0.  1.
    9000005    2    1    2  501    0 -0.21274994402E+01 -0.78619247727E+02 -0.65603375227E+03  0.66074053478E+03  0.35011183128E+01 0.  0.
         13    1    3    3    0    0 -0.16663200134E+01 -0.59647586903E+02 -0.50997157311E+03  0.51345069542E+03  0.00000000000E+00 0.  1.
          3    1    3    3  501    0 -0.46117942681E+00 -0.18971660824E+02 -0.14606217915E+03  0.14728983936E+03  0.00000000000E+00 0.  1.
         -3    1    1    2    0  502  0.21274994402E+01  0.78619247727E+02 -0.33708615889E+03  0.34613955406E+03  0.00000000000E+00 0. -1.
<mgrwt>
<rscale>  1 0.30000000E+03</rscale>
<asrwt>0</asrwt>
<pdfrwt beam="1">  1       21 0.25018558E-01 0.30000000E+03</pdfrwt>
<pdfrwt beam="2">0</pdfrwt>
<totfact> 0.15573343E+03</totfact>
</mgrwt>
</event>
<event>
 6    1  0.6513574E-002  0.3000000E+03  0.7818608E-02  0.1093470E+00
         21   -1    0    0  501  502  0.00000000000E+00  0.00000000000E+00  0.38037348547E+01  0.38037348547E+01  0.00000000000E+00 0. -1.
         13   -1    0    0    0    0 -0.00000000000E+00 -0.00000000000E+00 -0.10000000000E+04  0.10000000000E+04  0.00000000000E+00 0.  1.
    9000005    2    1    2  501    0  0.27460099629E+02  0.38201745321E+02 -0.82245126804E+03  0.82380163921E+03  0.31019426481E+01 0.  0.
         13    1    3    3    0    0  0.27682648332E+01  0.41541336178E+01 -0.10507344584E+03  0.10519196327E+03  0.00000000000E+00 0.  1.
          1    1    3    3  501    0  0.24691834796E+02  0.34047611703E+02 -0.71737782220E+03  0.71860967593E+03  0.00000000000E+00 0.  1.
         -3    1    1    2    0  502 -0.27460099629E+02 -0.38201745321E+02 -0.17374499711E+03  0.18000209565E+03  0.00000000000E+00 0. -1.
<mgrwt>
<rscale>  1 0.30000000E+03</rscale>
<asrwt>0</asrwt>
<pdfrwt beam="1">  1       21 0.13831792E-01 0.30000000E+03</pdfrwt>
<pdfrwt beam="2">0</pdfrwt>
<totfact> 0.47816438E+03</totfact>
</mgrwt>
</event>
<event>
 6    1  0.6513574E-002  0.3000000E+03  0.7818608E-02  0.1093470E+00
         21   -1    0    0  501  502  0.00000000000E+00  0.00000000000E+00  0.62068399744E+01  0.62068399744E+01  0.00000000000E+00 0. -1.
         13   -1    0    0    0    0 -0.00000000000E+00 -0.00000000000E+00 -0.10000000000E+04  0.10000000000E+04  0.00000000000E+00 0.  1.
    9000005    2    1    2  501    0 -0.34330344446E+02  0.70080152657E+02 -0.56466266581E+03  0.57003854515E+03  0.31963179498E+01 0.  0.
         13    1    3    3    0    0 -0.21664458460E+02  0.42079321791E+02 -0.33321333427E+03  0.33655778734E+03  0.00000000000E+00 0.  1.
          3    1    3    3  501    0 -0.12665885986E+02  0.28000830866E+02 -0.23144933153E+03  0.23348075780E+03  0.00000000000E+00 0.  1.
         -1    1    1    2    0  502  0.34330344446E+02 -0.70080152657E+02 -0.42913049422E+03  0.43616829483E+03  0.00000000000E+00 0. -1.
<mgrwt>
<rscale>  1 0.30000000E+03</rscale>
<asrwt>0</asrwt>
<pdfrwt beam="1">  1       21 0.22570375E-01 0.30000000E+03</pdfrwt>
<pdfrwt beam="2">0</pdfrwt>
<totfact> 0.19023598E+03</totfact>
</mgrwt>
</event>
<event>
 6    1  0.6513574E-002  0.3000000E+03  0.7818608E-02  0.1093470E+00
         21   -1    0    0  501  502  0.00000000000E+00  0.00000000000E+00  0.11984237071E+01  0.11984237071E+01  0.00000000000E+00 0. -1.
         13   -1    0    0    0    0 -0.00000000000E+00 -0.00000000000E+00 -0.10000000000E+04  0.10000000000E+04  0.00000000000E+00 0.  1.
    9000005    2    1    2  501    0 -0.10893547473E+02 -0.28982243553E+02 -0.27916129628E+03  0.28089239678E+03  0.32968784110E+01 0.  0.
         13    1    3    3    0    0 -0.95895133390E+01 -0.24025425831E+02 -0.24216585262E+03  0.24354358959E+03  0.00000000000E+00 0.  1.
          1    1    3    3  501    0 -0.13040341342E+01 -0.49568177222E+01 -0.36995443658E+02  0.37348807188E+02  0.00000000000E+00 0.  1.
         -3    1    1    2    0  502  0.10893547473E+02  0.28982243553E+02 -0.71964028001E+03  0.72030602693E+03  0.00000000000E+00 0. -1.
<mgrwt>
<rscale>  1 0.30000000E+03</rscale>
<asrwt>0</asrwt>
<pdfrwt beam="1">  1       21 0.43579136E-02 0.30000000E+03</pdfrwt>
<pdfrwt beam="2">0</pdfrwt>
<totfact> 0.36383765E+04</totfact>
</mgrwt>
</event>
<event>
 6    1  0.6513574E-002  0.3000000E+03  0.7818608E-02  0.1093470E+00
         21   -1    0    0  501  502  0.00000000000E+00  0.00000000000E+00  0.35632598541E+01  0.35632598541E+01  0.00000000000E+00 0. -1.
         13   -1    0    0    0    0 -0.00000000000E+00 -0.00000000000E+00 -0.10000000000E+04  0.10000000000E+04  0.00000000000E+00 0.  1.
    9000005    2    1    2  501    0  0.83606680961E+01  0.51153530387E+02 -0.74665506548E+03  0.74846039935E+03  0.35493852100E+01 0.  0.
         13    1    3    3    0    0  0.13863062537E+01  0.18273460253E+02 -0.27241789380E+03  0.27303360609E+03  0.00000000000E+00 0.  1.
          3    1    3    3  501    0  0.69743618424E+01  0.32880070134E+02 -0.47423717169E+03  0.47542679326E+03  0.00000000000E+00 0.  1.
         -1    1    1    2    0  502 -0.83606680961E+01 -0.51153530387E+02 -0.24978167466E+03  0.25510286051E+03  0.00000000000E+00 0. -1.
<mgrwt>
<rscale>  1 0.30000000E+03</rscale>
<asrwt>0</asrwt>
<pdfrwt beam="1">  1       21 0.12957336E-01 0.30000000E+03</pdfrwt>
<pdfrwt beam="2">0</pdfrwt>
<totfact> 0.53887724E+03</totfact>
</mgrwt>
</event>
<event>
 6    1  0.6513574E-002  0.3000000E+03  0.7818608E-02  0.1093470E+00
         21   -1    0    0  501  502  0.00000000000E+00  0.00000000000E+00  0.15674624763E+01  0.15674624763E+01  0.00000000000E+00 0. -1.
         13   -1    0    0    0    0 -0.00000000000E+00 -0.00000000000E+00 -0.10000000000E+04  0.10000000000E+04  0.00000000000E+00 0.  1.
    9000005    2    1    2  501    0  0.33004077300E+02 -0.20128583219E+02 -0.60439411304E+03  0.60563728056E+03  0.31373155205E+01 0.  0.
         13    1    3    3    0    0  0.51421660548E+01 -0.38916472562E+01 -0.11688758374E+03  0.11706534083E+03  0.00000000000E+00 0.  1.
          1    1    3    3  501    0  0.27861911246E+02 -0.16236935963E+02 -0.48750652930E+03  0.48857193974E+03  0.00000000000E+00 0.  1.
         -1    1    1    2    0  502 -0.33004077300E+02  0.20128583219E+02 -0.39403842448E+03  0.39593018191E+03  0.00000000000E+00 0. -1.
<mgrwt>
<rscale>  1 0.30000000E+03</rscale>
<asrwt>0</asrwt>
<pdfrwt beam="1">  1       21 0.56998756E-02 0.30000000E+03</pdfrwt>
<pdfrwt beam="2">0</pdfrwt>
<totfact> 0.23019124E+04</totfact>
</mgrwt>
</event>
<event>
 6    1  0.6513574E-002  0.3000000E+03  0.7818608E-02  0.1093470E+00
         21   -1    0    0  501  502  0.00000000000E+00  0.00000000000E+00  0.92911736809E+00  0.92911736809E+00  0.00000000000E+00 0. -1.
         13   -1    0    0    0    0 -0.00000000000E+00 -0.00000000000E+00 -0.10000000000E+04  0.10000000000E+04  0.00000000000E+00 0.  1.
    9000005    2    1    2  501    0  0.24569032225E+02  0.17430402374E+02 -0.56793368210E+03  0.56874079967E+03  0.31581126205E+01 0.  0.
         13    1    3    3    0    0  0.21183512396E+02  0.15423393032E+02 -0.51085413391E+03  0.51152572602E+03  0.00000000000E+00 0.  1.
          1    1    3    3  501    0  0.33855198282E+01  0.20070093423E+01 -0.57079548189E+02  0.57215073647E+02  0.00000000000E+00 0.  1.
         -3    1    1    2    0  502 -0.24569032225E+02 -0.17430402374E+02 -0.43113720054E+03  0.43218831770E+03  0.00000000000E+00 0. -1.
<mgrwt>
<rscale>  1 0.30000000E+03</rscale>
<asrwt>0</asrwt>
<pdfrwt beam="1">  1       21 0.33786157E-02 0.30000000E+03</pdfrwt>
<pdfrwt beam="2">0</pdfrwt>
<totfact> 0.55816316E+04</totfact>
</mgrwt>
</event>
<event>
 6    1  0.6513574E-002  0.3000000E+03  0.7818608E-02  0.1093470E+00
         21   -1    0    0  501  502  0.00000000000E+00  0.00000000000E+00  0.32919445345E+01  0.32919445345E+01  0.00000000000E+00 0. -1.
         13   -1    0    0    0    0 -0.00000000000E+00 -0.00000000000E+00 -0.10000000000E+04  0.10000000000E+04  0.00000000000E+00 0.  1.
    9000005    2    1    2  501    0 -0.34415225865E+02  0.24103100597E+02 -0.16078992901E+03  0.16631853912E+03  0.65641416150E+01 0.  0.
         13    1    3    3    0    0 -0.22032056452E+02  0.11761091139E+02 -0.89911113036E+02  0.93315288263E+02  0.00000000000E+00 0.  1.
          3    1    3    3  501    0 -0.12383169413E+02  0.12342009457E+02 -0.70878815975E+02  0.73003250861E+02  0.00000000000E+00 0.  1.
         -1    1    1    2    0  502  0.34415225865E+02 -0.24103100597E+02 -0.83591812645E+03  0.83697340541E+03  0.00000000000E+00 0. -1.
<mgrwt>
<rscale>  1 0.30000000E+03</rscale>
<asrwt>0</asrwt>
<pdfrwt beam="1">  1       21 0.11970733E-01 0.30000000E+03</pdfrwt>
<pdfrwt beam="2">0</pdfrwt>
<totfact> 0.62246420E+03</totfact>
</mgrwt>
</event>
<event>
 6    1  0.6513574E-002  0.3000000E+03  0.7818608E-02  0.1093470E+00
         21   -1    0    0  501  502  0.00000000000E+00  0.00000000000E+00  0.37062049953E+01  0.37062049953E+01  0.00000000000E+00 0. -1.
         13   -1    0    0    0    0 -0.00000000000E+00 -0.00000000000E+00 -0.10000000000E+04  0.10000000000E+04  0.00000000000E+00 0.  1.
    9000005    2    1    2  501    0 -0.13697410334E+02 -0.57286483922E+02 -0.62379956345E+03  0.62658379405E+03  0.34634267904E+01 0.  0.
         13    1    3    3    0    0 -0.13338042783E+02 -0.53749693237E+02 -0.57834436184E+03  0.58098978802E+03  0.00000000000E+00 0.  1.
          1    1    3    3  501    0 -0.35936755095E+00 -0.35367906852E+01 -0.45455201606E+02  0.45594006037E+02  0.00000000000E+00 0.  1.
         -1    1    1    2    0  502  0.13697410334E+02  0.57286483922E+02 -0.37249423156E+03  0.37712241094E+03  0.00000000000E+00 0. -1.
<mgrwt>
<rscale>  1 0.30000000E+03</rscale>
<asrwt>0</asrwt>
<pdfrwt beam="1">  1       21 0.13477137E-01 0.30000000E+03</pdfrwt>
<pdfrwt beam="2">0</pdfrwt>
<totfact> 0.50148433E+03</totfact>
</mgrwt>
</event>
<event>
 6    1  0.6513574E-002  0.3000000E+03  0.7818608E-02  0.1093470E+00
         21   -1    0    0  501  502  0.00000000000E+00  0.00000000000E+00  0.23393582404E+01  0.23393582404E+01  0.00000000000E+00 0. -1.
         13   -1    0    0    0    0 -0.00000000000E+00 -0.00000000000E+00 -0.10000000000E+04  0.10000000000E+04  0.00000000000E+00 0.  1.
    9000005    2    1    2  501    0 -0.48279808424E+02  0.65644109737E+00 -0.51703958020E+03  0.51929901248E+03  0.31884250538E+01 0.  0.
         13    1    3    3    0    0 -0.12707414860E+02 -0.79107475951E+00 -0.12551425701E+03  0.12615836439E+03  0.00000000000E+00 0.  1.
          3    1    3    3  501    0 -0.35572393563E+02  0.14475158569E+01 -0.39152532319E+03  0.39314064809E+03  0.00000000000E+00 0.  1.
         -1    1    1    2    0  502  0.48279808424E+02 -0.65644109737E+00 -0.48062106156E+03  0.48304034576E+03  0.00000000000E+00 0. -1.
<mgrwt>
<rscale>  1 0.30000000E+03</rscale>
<asrwt>0</asrwt>
<pdfrwt beam="1">  1       21 0.85067752E-02 0.30000000E+03</pdfrwt>
<pdfrwt beam="2">0</pdfrwt>
<totfact> 0.11465141E+04</totfact>
</mgrwt>
</event>
<event>
 6    1  0.6513574E-002  0.3000000E+03  0.7818608E-02  0.1093470E+00
         21   -1    0    0  501  502  0.00000000000E+00  0.00000000000E+00  0.31489172718E+01  0.31489172718E+01  0.00000000000E+00 0. -1.
         13   -1    0    0    0    0 -0.00000000000E+00 -0.00000000000E+00 -0.10000000000E+04  0.10000000000E+04  0.00000000000E+00 0.  1.
    9000005    2    1    2  501    0  0.53952503398E+02  0.12799572510E+02 -0.42563252711E+03  0.42924531913E+03  0.37140517347E+01 0.  0.
         13    1    3    3    0    0  0.39327850616E+02  0.10029739526E+02 -0.29947956758E+03  0.30221728426E+03  0.00000000000E+00 0.  1.
          3    1    3    3  501    0  0.14624652782E+02  0.27698329841E+01 -0.12615295953E+03  0.12702803487E+03  0.00000000000E+00 0.  1.
         -1    1    1    2    0  502 -0.53952503398E+02 -0.12799572510E+02 -0.57121855562E+03  0.57390359814E+03  0.00000000000E+00 0. -1.
<mgrwt>
<rscale>  1 0.30000000E+03</rscale>
<asrwt>0</asrwt>
<pdfrwt beam="1">  1       21 0.11450632E-01 0.30000000E+03</pdfrwt>
<pdfrwt beam="2">0</pdfrwt>
<totfact> 0.67457675E+03</totfact>
</mgrwt>
</event>
<event>
 6    1  0.6513574E-002  0.3000000E+03  0.7818608E-02  0.1093470E+00
         21   -1    0    0  501  502  0.00000000000E+00  0.00000000000E+00  0.13707394888E+01  0.13707394888E+01  0.00000000000E+00 0. -1.
         13   -1    0    0    0    0 -0.00000000000E+00 -0.00000000000E+00 -0.10000000000E+04  0.10000000000E+04  0.00000000000E+00 0.  1.
    9000005    2    1    2  501    0  0.14837312971E+02 -0.28798522023E+02 -0.73998574026E+03  0.74070625917E+03  0.41672380353E+01 0.  0.
         13    1    3    3    0    0  0.10689897540E+02 -0.23293370373E+02 -0.55314411070E+03  0.55373753911E+03  0.00000000000E+00 0.  1.
          3    1    3    3  501    0  0.41474154315E+01 -0.55051516497E+01 -0.18684162955E+03  0.18696872007E+03  0.00000000000E+00 0.  1.
         -3    1    1    2    0  502 -0.14837312971E+02  0.28798522023E+02 -0.25864352026E+03  0.26066448031E+03  0.00000000000E+00 0. -1.
<mgrwt>
<rscale>  1 0.30000000E+03</rscale>
<asrwt>0</asrwt>
<pdfrwt beam="1">  1       21 0.49845177E-02 0.30000000E+03</pdfrwt>
<pdfrwt beam="2">0</pdfrwt>
<totfact> 0.28957331E+04</totfact>
</mgrwt>
</event>
<event>
 6    1  0.6513574E-002  0.3000000E+03  0.7818608E-02  0.1093470E+00
         21   -1    0    0  501  502  0.00000000000E+00  0.00000000000E+00  0.37634911869E+01  0.37634911869E+01  0.00000000000E+00 0. -1.
         13   -1    0    0    0    0 -0.00000000000E+00 -0.00000000000E+00 -0.10000000000E+04  0.10000000000E+04  0.00000000000E+00 0.  1.
    9000005    2    1    2  501    0 -0.58347458048E+02  0.18765209193E+02 -0.49473700066E+03  0.49853253844E+03  0.36651226171E+01 0.  0.
         13    1    3    3    0    0 -0.41749191552E+02  0.15016328470E+02 -0.35239182133E+03  0.35517387411E+03  0.00000000000E+00 0.  1.
          3    1    3    3  501    0 -0.16598266495E+02  0.37488807227E+01 -0.14234517933E+03  0.14335866433E+03  0.00000000000E+00 0.  1.
         -3    1    1    2    0  502  0.58347458048E+02 -0.18765209193E+02 -0.50149950815E+03  0.50523095275E+03  0.00000000000E+00 0. -1.
<mgrwt>
<rscale>  1 0.30000000E+03</rscale>
<asrwt>0</asrwt>
<pdfrwt beam="1">  1       21 0.13685451E-01 0.30000000E+03</pdfrwt>
<pdfrwt beam="2">0</pdfrwt>
<totfact> 0.48758581E+03</totfact>
</mgrwt>
</event>
<event>
 6    1  0.6513574E-002  0.3000000E+03  0.7818608E-02  0.1093470E+00
         21   -1    0    0  501  502  0.00000000000E+00  0.00000000000E+00  0.95763771163E+00  0.95763771163E+00  0.00000000000E+00 0. -1.
         13   -1    0    0    0    0 -0.00000000000E+00 -0.00000000000E+00 -0.10000000000E+04  0.10000000000E+04  0.00000000000E+00 0.  1.
    9000005    2    1    2  501    0 -0.20759178506E+02  0.22291692480E+02 -0.58140413056E+03  0.58221003396E+03  0.31460398146E+01 0.  0.
         13    1    3    3    0    0 -0.40409066731E+01  0.53909686481E+01 -0.15034476856E+03  0.15049565078E+03  0.00000000000E+00 0.  1.
          3    1    3    3  501    0 -0.16718271833E+02  0.16900723832E+02 -0.43105936200E+03  0.43171438318E+03  0.00000000000E+00 0.  1.
         -3    1    1    2    0  502  0.20759178506E+02 -0.22291692480E+02 -0.41763823173E+03  0.41874760375E+03  0.00000000000E+00 0. -1.
<mgrwt>
<rscale>  1 0.30000000E+03</rscale>
<asrwt>0</asrwt>
<pdfrwt beam="1">  1       21 0.34823263E-02 0.30000000E+03</pdfrwt>
<pdfrwt beam="2">0</pdfrwt>
<totfact> 0.53064646E+04</totfact>
</mgrwt>
</event>
<event>
 6    1  0.6513574E-002  0.3000000E+03  0.7818608E-02  0.1093470E+00
         21   -1    0    0  501  502  0.00000000000E+00  0.00000000000E+00  0.27039318507E+01  0.27039318507E+01  0.00000000000E+00 0. -1.
         13   -1    0    0    0    0 -0.00000000000E+00 -0.00000000000E+00 -0.10000000000E+04  0.10000000000E+04  0.00000000000E+00 0.  1.
    9000005    2    1    2  501    0 -0.38525100271E+02  0.33232300822E+02 -0.60027586156E+03  0.60243700391E+03  0.32656593066E+01 0.  0.
         13    1    3    3    0    0 -0.31561733811E+02  0.28149638155E+02 -0.48619414118E+03  0.48803000736E+03  0.00000000000E+00 0.  1.
          1    1    3    3  501    0 -0.69633664606E+01  0.50826626667E+01 -0.11408172039E+03  0.11440699654E+03  0.00000000000E+00 0.  1.
         -3    1    1    2    0  502  0.38525100271E+02 -0.33232300822E+02 -0.39702020658E+03  0.40026692794E+03  0.00000000000E+00 0. -1.
<mgrwt>
<rscale>  1 0.30000000E+03</rscale>
<asrwt>0</asrwt>
<pdfrwt beam="1">  1       21 0.98325002E-02 0.30000000E+03</pdfrwt>
<pdfrwt beam="2">0</pdfrwt>
<totfact> 0.88666947E+03</totfact>
</mgrwt>
</event>
<event>
 6    1  0.6513574E-002  0.3000000E+03  0.7818608E-02  0.1093470E+00
         21   -1    0    0  501  502  0.00000000000E+00  0.00000000000E+00  0.11059911407E+01  0.11059911407E+01  0.00000000000E+00 0. -1.
         13   -1    0    0    0    0 -0.00000000000E+00 -0.00000000000E+00 -0.10000000000E+04  0.10000000000E+04  0.00000000000E+00 0.  1.
    9000005    2    1    2  501    0  0.96140971522E+01 -0.30496971696E+02 -0.63375500347E+03  0.63456951356E+03  0.32506859909E+01 0.  0.
         13    1    3    3    0    0  0.58813783880E+01 -0.23284763814E+02 -0.46903406965E+03  0.46964851680E+03  0.00000000000E+00 0.  1.
          3    1    3    3  501    0  0.37327187641E+01 -0.72122078817E+01 -0.16472093382E+03  0.16492099676E+03  0.00000000000E+00 0.  1.
         -1    1    1    2    0  502 -0.96140971522E+01  0.30496971696E+02 -0.36513900538E+03  0.36653647758E+03  0.00000000000E+00 0. -1.
<mgrwt>
<rscale>  1 0.30000000E+03</rscale>
<asrwt>0</asrwt>
<pdfrwt beam="1">  1       21 0.40217944E-02 0.30000000E+03</pdfrwt>
<pdfrwt beam="2">0</pdfrwt>
<totfact> 0.41664262E+04</totfact>
</mgrwt>
</event>
<event>
 6    1  0.6513574E-002  0.3000000E+03  0.7818608E-02  0.1093470E+00
         21   -1    0    0  501  502  0.00000000000E+00  0.00000000000E+00  0.32314371262E+01  0.32314371262E+01  0.00000000000E+00 0. -1.
         13   -1    0    0    0    0 -0.00000000000E+00 -0.00000000000E+00 -0.10000000000E+04  0.10000000000E+04  0.00000000000E+00 0.  1.
    9000005    2    1    2  501    0 -0.27392588954E+02  0.35972565367E+02 -0.19540938118E+03  0.20059769907E+03  0.31986291584E+01 0.  0.
         13    1    3    3    0    0 -0.40490207048E+01  0.52719354965E+01 -0.34095645285E+02  0.34737600665E+02  0.00000000000E+00 0.  1.
          3    1    3    3  501    0 -0.23343568249E+02  0.30700629871E+02 -0.16131373590E+03  0.16586009840E+03  0.00000000000E+00 0.  1.
         -1    1    1    2    0  502  0.27392588954E+02 -0.35972565367E+02 -0.80135918169E+03  0.80263373806E+03  0.00000000000E+00 0. -1.
<mgrwt>
<rscale>  1 0.30000000E+03</rscale>
<asrwt>0</asrwt>
<pdfrwt beam="1">  1       21 0.11750705E-01 0.30000000E+03</pdfrwt>
<pdfrwt beam="2">0</pdfrwt>
<totfact> 0.64375020E+03</totfact>
</mgrwt>
</event>
<event>
 6    1  0.6513574E-002  0.3000000E+03  0.7818608E-02  0.1093470E+00
         21   -1    0    0  501  502  0.00000000000E+00  0.00000000000E+00  0.19963161934E+01  0.19963161934E+01  0.00000000000E+00 0. -1.
         13   -1    0    0    0    0 -0.00000000000E+00 -0.00000000000E+00 -0.10000000000E+04  0.10000000000E+04  0.00000000000E+00 0.  1.
    9000005    2    1    2  501    0 -0.21349938143E+02 -0.37769121809E+02 -0.38416077586E+03  0.38662208691E+03  0.38483713522E+01 0.  0.
         13    1    3    3    0    0 -0.28462712050E+01 -0.38895499850E+01 -0.53085099946E+02  0.53303449186E+02  0.00000000000E+00 0.  1.
          3    1    3    3  501    0 -0.18503666938E+02 -0.33879571824E+02 -0.33107567591E+03  0.33331863773E+03  0.00000000000E+00 0.  1.
         -1    1    1    2    0  502  0.21349938143E+02  0.37769121809E+02 -0.61384290795E+03  0.61537422928E+03  0.00000000000E+00 0. -1.
<mgrwt>
<rscale>  1 0.30000000E+03</rscale>
<asrwt>0</asrwt>
<pdfrwt beam="1">  1       21 0.72593469E-02 0.30000000E+03</pdfrwt>
<pdfrwt beam="2">0</pdfrwt>
<totfact> 0.15143901E+04</totfact>
</mgrwt>
</event>
<event>
 6    1  0.6513574E-002  0.3000000E+03  0.7818608E-02  0.1093470E+00
         21   -1    0    0  501  502  0.00000000000E+00  0.00000000000E+00  0.10293516059E+01  0.10293516059E+01  0.00000000000E+00 0. -1.
         13   -1    0    0    0    0 -0.00000000000E+00 -0.00000000000E+00 -0.10000000000E+04  0.10000000000E+04  0.00000000000E+00 0.  1.
    9000005    2    1    2  501    0 -0.14641337289E+02 -0.26348975726E+02 -0.34923263465E+03  0.35059248012E+03  0.65587144502E+01 0.  0.
         13    1    3    3    0    0 -0.86102949956E+01 -0.13015624997E+02 -0.14536478776E+03  0.14620008616E+03  0.00000000000E+00 0.  1.
          3    1    3    3  501    0 -0.60310422934E+01 -0.13333350729E+02 -0.20386784689E+03  0.20439239396E+03  0.00000000000E+00 0.  1.
         -1    1    1    2    0  502  0.14641337289E+02  0.26348975726E+02 -0.64973801374E+03  0.65043687148E+03  0.00000000000E+00 0. -1.
<mgrwt>
<rscale>  1 0.30000000E+03</rscale>
<asrwt>0</asrwt>
<pdfrwt beam="1">  1       21 0.37431046E-02 0.30000000E+03</pdfrwt>
<pdfrwt beam="2">0</pdfrwt>
<totfact> 0.47012342E+04</totfact>
</mgrwt>
</event>
<event>
 6    1  0.6513574E-002  0.3000000E+03  0.7818608E-02  0.1093470E+00
         21   -1    0    0  501  502  0.00000000000E+00  0.00000000000E+00  0.19112713863E+01  0.19112713863E+01  0.00000000000E+00 0. -1.
         13   -1    0    0    0    0 -0.00000000000E+00 -0.00000000000E+00 -0.10000000000E+04  0.10000000000E+04  0.00000000000E+00 0.  1.
    9000005    2    1    2  501    0  0.25738435415E+02  0.34179835040E+02 -0.40012866813E+03  0.40242235396E+03  0.31735985457E+01 0.  0.
         13    1    3    3    0    0  0.15879488198E+01  0.15436704740E+01 -0.27262271465E+02  0.27352073878E+02  0.00000000000E+00 0.  1.
          3    1    3    3  501    0  0.24150486595E+02  0.32636164566E+02 -0.37286639666E+03  0.37507028008E+03  0.00000000000E+00 0.  1.
         -1    1    1    2    0  502 -0.25738435415E+02 -0.34179835040E+02 -0.59796006048E+03  0.59948891742E+03  0.00000000000E+00 0. -1.
<mgrwt>
<rscale>  1 0.30000000E+03</rscale>
<asrwt>0</asrwt>
<pdfrwt beam="1">  1       21 0.69500924E-02 0.30000000E+03</pdfrwt>
<pdfrwt beam="2">0</pdfrwt>
<totfact> 0.16337408E+04</totfact>
</mgrwt>
</event>
<event>
 6    1  0.6513574E-002  0.3000000E+03  0.7818608E-02  0.1093470E+00
         21   -1    0    0  501  502  0.00000000000E+00  0.00000000000E+00  0.13633839219E+02  0.13633839219E+02  0.00000000000E+00 0. -1.
         13   -1    0    0    0    0 -0.00000000000E+00 -0.00000000000E+00 -0.10000000000E+04  0.10000000000E+04  0.00000000000E+00 0.  1.
    9000005    2    1    2  501    0 -0.37268959408E+02 -0.10548766610E+03 -0.34866790652E+03  0.36619605339E+03  0.36901821066E+01 0.  0.
         13    1    3    3    0    0 -0.80585605796E+01 -0.23933167589E+02 -0.73900933066E+02  0.78096637684E+02  0.00000000000E+00 0.  1.
          3    1    3    3  501    0 -0.29210398829E+02 -0.81554498515E+02 -0.27476697346E+03  0.28809941571E+03  0.00000000000E+00 0.  1.
         -1    1    1    2    0  502  0.37268959408E+02  0.10548766610E+03 -0.63769825426E+03  0.64743778583E+03  0.00000000000E+00 0. -1.
<mgrwt>
<rscale>  1 0.30000000E+03</rscale>
<asrwt>0</asrwt>
<pdfrwt beam="1">  1       21 0.49577702E-01 0.30000000E+03</pdfrwt>
<pdfrwt beam="2">0</pdfrwt>
<totfact> 0.38269166E+02</totfact>
</mgrwt>
</event>
<event>
 6    1  0.6513574E-002  0.3000000E+03  0.7818608E-02  0.1093470E+00
         21   -1    0    0  501  502  0.00000000000E+00  0.00000000000E+00  0.15361557305E+01  0.15361557305E+01  0.00000000000E+00 0. -1.
         13   -1    0    0    0    0 -0.00000000000E+00 -0.00000000000E+00 -0.10000000000E+04  0.10000000000E+04  0.00000000000E+00 0.  1.
    9000005    2    1    2  501    0  0.34025574532E+02 -0.54638756125E+01 -0.26315363908E+03  0.26541884747E+03  0.31198035913E+01 0.  0.
         13    1    3    3    0    0  0.13251278013E+02 -0.35223796607E+01 -0.99349318609E+02  0.10029102969E+03  0.00000000000E+00 0.  1.
          1    1    3    3  501    0  0.20774296518E+02 -0.19414959518E+01 -0.16380432047E+03  0.16512781779E+03  0.00000000000E+00 0.  1.
         -3    1    1    2    0  502 -0.34025574532E+02  0.54638756125E+01 -0.73531020519E+03  0.73611730826E+03  0.00000000000E+00 0. -1.
<mgrwt>
<rscale>  1 0.30000000E+03</rscale>
<asrwt>0</asrwt>
<pdfrwt beam="1">  1       21 0.55860326E-02 0.30000000E+03</pdfrwt>
<pdfrwt beam="2">0</pdfrwt>
<totfact> 0.23831018E+04</totfact>
</mgrwt>
</event>
<event>
 6    1  0.6513574E-002  0.3000000E+03  0.7818608E-02  0.1093470E+00
         21   -1    0    0  501  502  0.00000000000E+00  0.00000000000E+00  0.21899054235E+01  0.21899054235E+01  0.00000000000E+00 0. -1.
         13   -1    0    0    0    0 -0.00000000000E+00 -0.00000000000E+00 -0.10000000000E+04  0.10000000000E+04  0.00000000000E+00 0.  1.
    9000005    2    1    2  501    0  0.16050678870E+02  0.39723966469E+02 -0.69914793244E+03  0.70047032552E+03  0.39022681682E+01 0.  0.
         13    1    3    3    0    0  0.11595688422E+02  0.31436828840E+02 -0.56521703095E+03  0.56620934845E+03  0.00000000000E+00 0.  1.
          3    1    3    3  501    0  0.44549904474E+01  0.82871376291E+01 -0.13393090148E+03  0.13426097706E+03  0.00000000000E+00 0.  1.
         -3    1    1    2    0  502 -0.16050678870E+02 -0.39723966469E+02 -0.29866216214E+03  0.30171957991E+03  0.00000000000E+00 0. -1.
<mgrwt>
<rscale>  1 0.30000000E+03</rscale>
<asrwt>0</asrwt>
<pdfrwt beam="1">  1       21 0.79633092E-02 0.30000000E+03</pdfrwt>
<pdfrwt beam="2">0</pdfrwt>
<totfact> 0.12877412E+04</totfact>
</mgrwt>
</event>
<event>
 6    1  0.6513574E-002  0.3000000E+03  0.7818608E-02  0.1093470E+00
         21   -1    0    0  501  502  0.00000000000E+00  0.00000000000E+00  0.19889311097E+01  0.19889311097E+01  0.00000000000E+00 0. -1.
         13   -1    0    0    0    0 -0.00000000000E+00 -0.00000000000E+00 -0.10000000000E+04  0.10000000000E+04  0.00000000000E+00 0.  1.
    9000005    2    1    2  501    0  0.42772065554E+02  0.55905338322E+01 -0.37509720761E+03  0.37758330794E+03  0.32458626129E+01 0.  0.
         13    1    3    3    0    0  0.31491908444E+02  0.35647574628E+01 -0.26348264725E+03  0.26538190066E+03  0.00000000000E+00 0.  1.
          1    1    3    3  501    0  0.11280157110E+02  0.20257763694E+01 -0.11161456035E+03  0.11220140729E+03  0.00000000000E+00 0.  1.
         -1    1    1    2    0  502 -0.42772065554E+02 -0.55905338322E+01 -0.62291386128E+03  0.62440562316E+03  0.00000000000E+00 0. -1.
<mgrwt>
<rscale>  1 0.30000000E+03</rscale>
<asrwt>0</asrwt>
<pdfrwt beam="1">  1       21 0.72324920E-02 0.30000000E+03</pdfrwt>
<pdfrwt beam="2">0</pdfrwt>
<totfact> 0.15242190E+04</totfact>
</mgrwt>
</event>
<event>
 6    1  0.6513574E-002  0.3000000E+03  0.7818608E-02  0.1093470E+00
         21   -1    0    0  501  502  0.00000000000E+00  0.00000000000E+00  0.10848344644E+01  0.10848344644E+01  0.00000000000E+00 0. -1.
         13   -1    0    0    0    0 -0.00000000000E+00 -0.00000000000E+00 -0.10000000000E+04  0.10000000000E+04  0.00000000000E+00 0.  1.
    9000005    2    1    2  501    0 -0.29516411895E+02  0.14273318924E+02 -0.46947765259E+03  0.47063311535E+03  0.33640410766E+01 0.  0.
         13    1    3    3    0    0 -0.26825672244E+02  0.13968619730E+02 -0.42837761395E+03  0.42944396511E+03  0.00000000000E+00 0.  1.
          3    1    3    3  501    0 -0.26907396510E+01  0.30469919405E+00 -0.41100038640E+02  0.41189150242E+02  0.00000000000E+00 0.  1.
         -3    1    1    2    0  502  0.29516411895E+02 -0.14273318924E+02 -0.52943751294E+03  0.53045171912E+03  0.00000000000E+00 0. -1.
<mgrwt>
<rscale>  1 0.30000000E+03</rscale>
<asrwt>0</asrwt>
<pdfrwt beam="1">  1       21 0.39448609E-02 0.30000000E+03</pdfrwt>
<pdfrwt beam="2">0</pdfrwt>
<totfact> 0.43041432E+04</totfact>
</mgrwt>
</event>
<event>
 6    1  0.6513574E-002  0.3000000E+03  0.7818608E-02  0.1093470E+00
         21   -1    0    0  501  502  0.00000000000E+00  0.00000000000E+00  0.13131698894E+01  0.13131698894E+01  0.00000000000E+00 0. -1.
         13   -1    0    0    0    0 -0.00000000000E+00 -0.00000000000E+00 -0.10000000000E+04  0.10000000000E+04  0.00000000000E+00 0.  1.
    9000005    2    1    2  501    0 -0.32202987056E+02  0.16265845102E+02 -0.46584587827E+03  0.46725222763E+03  0.32637139419E+01 0.  0.
         13    1    3    3    0    0 -0.95147118122E+00  0.10198688736E+01 -0.13507593183E+02  0.13579414698E+02  0.00000000000E+00 0.  1.
          1    1    3    3  501    0 -0.31251515875E+02  0.15245976228E+02 -0.45233828509E+03  0.45367281293E+03  0.00000000000E+00 0.  1.
         -1    1    1    2    0  502  0.32202987056E+02 -0.16265845102E+02 -0.53284095184E+03  0.53406094226E+03  0.00000000000E+00 0. -1.
<mgrwt>
<rscale>  1 0.30000000E+03</rscale>
<asrwt>0</asrwt>
<pdfrwt beam="1">  1       21 0.47751733E-02 0.30000000E+03</pdfrwt>
<pdfrwt beam="2">0</pdfrwt>
<totfact> 0.31152189E+04</totfact>
</mgrwt>
</event>
<event>
 6    1  0.6513574E-002  0.3000000E+03  0.7818608E-02  0.1093470E+00
         21   -1    0    0  501  502  0.00000000000E+00  0.00000000000E+00  0.32771982862E+01  0.32771982862E+01  0.00000000000E+00 0. -1.
         13   -1    0    0    0    0 -0.00000000000E+00 -0.00000000000E+00 -0.10000000000E+04  0.10000000000E+04  0.00000000000E+00 0.  1.
    9000005    2    1    2  501    0  0.28360274858E+02  0.37502514611E+02 -0.21342002869E+03  0.21856452602E+03  0.34058178368E+01 0.  0.
         13    1    3    3    0    0  0.21654406875E+01  0.41304820027E+01 -0.24439748179E+02  0.24880741669E+02  0.00000000000E+00 0.  1.
          3    1    3    3  501    0  0.26194834170E+02  0.33372032608E+02 -0.18898028052E+03  0.19368378435E+03  0.00000000000E+00 0.  1.
         -3    1    1    2    0  502 -0.28360274858E+02 -0.37502514611E+02 -0.78330277302E+03  0.78471267226E+03  0.00000000000E+00 0. -1.
<mgrwt>
<rscale>  1 0.30000000E+03</rscale>
<asrwt>0</asrwt>
<pdfrwt beam="1">  1       21 0.11917110E-01 0.30000000E+03</pdfrwt>
<pdfrwt beam="2">0</pdfrwt>
<totfact> 0.62755411E+03</totfact>
</mgrwt>
</event>
<event>
 6    1  0.6513574E-002  0.3000000E+03  0.7818608E-02  0.1093470E+00
         21   -1    0    0  501  502  0.00000000000E+00  0.00000000000E+00  0.91572295364E+00  0.91572295364E+00  0.00000000000E+00 0. -1.
         13   -1    0    0    0    0 -0.00000000000E+00 -0.00000000000E+00 -0.10000000000E+04  0.10000000000E+04  0.00000000000E+00 0.  1.
    9000005    2    1    2  501    0 -0.11952121072E+01 -0.30109928273E+02 -0.47127455654E+03  0.47224650938E+03  0.30036100427E+01 0.  0.
         13    1    3    3    0    0  0.91970287225E+00 -0.85046401930E+01 -0.12558493974E+03  0.12587593832E+03  0.00000000000E+00 0.  1.
          3    1    3    3  501    0 -0.21149149794E+01 -0.21605288080E+02 -0.34568961679E+03  0.34637057106E+03  0.00000000000E+00 0.  1.
         -1    1    1    2    0  502  0.11952121072E+01  0.30109928273E+02 -0.52780972051E+03  0.52866921357E+03  0.00000000000E+00 0. -1.
<mgrwt>
<rscale>  1 0.30000000E+03</rscale>
<asrwt>0</asrwt>
<pdfrwt beam="1">  1       21 0.33299087E-02 0.30000000E+03</pdfrwt>
<pdfrwt beam="2">0</pdfrwt>
<totfact> 0.57186150E+04</totfact>
</mgrwt>
</event>
<event>
 6    1  0.6513574E-002  0.3000000E+03  0.7818608E-02  0.1093470E+00
         21   -1    0    0  501  502  0.00000000000E+00  0.00000000000E+00  0.15138941185E+01  0.15138941185E+01  0.00000000000E+00 0. -1.
         13   -1    0    0    0    0 -0.00000000000E+00 -0.00000000000E+00 -0.10000000000E+04  0.10000000000E+04  0.00000000000E+00 0.  1.
    9000005    2    1    2  501    0  0.19037402907E+02 -0.29321972142E+02 -0.28237270914E+03  0.28454764822E+03  0.32888421771E+01 0.  0.
         13    1    3    3    0    0  0.33223381274E+01 -0.76852487679E+01 -0.67686363876E+02  0.68202234816E+02  0.00000000000E+00 0.  1.
          3    1    3    3  501    0  0.15715064779E+02 -0.21636723374E+02 -0.21468634527E+03  0.21634541341E+03  0.00000000000E+00 0.  1.
         -3    1    1    2    0  502 -0.19037402907E+02  0.29321972142E+02 -0.71611339674E+03  0.71696624589E+03  0.00000000000E+00 0. -1.
<mgrwt>
<rscale>  1 0.30000000E+03</rscale>
<asrwt>0</asrwt>
<pdfrwt beam="1">  1       21 0.55050811E-02 0.30000000E+03</pdfrwt>
<pdfrwt beam="2">0</pdfrwt>
<totfact> 0.24435427E+04</totfact>
</mgrwt>
</event>
<event>
 6    1  0.6513574E-002  0.3000000E+03  0.7818608E-02  0.1093470E+00
         21   -1    0    0  501  502  0.00000000000E+00  0.00000000000E+00  0.22122267141E+01  0.22122267141E+01  0.00000000000E+00 0. -1.
         13   -1    0    0    0    0 -0.00000000000E+00 -0.00000000000E+00 -0.10000000000E+04  0.10000000000E+04  0.00000000000E+00 0.  1.
    9000005    2    1    2  501    0  0.20356473929E+02  0.36006425153E+02 -0.26442635335E+03  0.26768528988E+03  0.48238355659E+01 0.  0.
         13    1    3    3    0    0  0.71985665109E+01  0.92584376422E+01 -0.66357191542E+02  0.67385568906E+02  0.00000000000E+00 0.  1.
          1    1    3    3  501    0  0.13157907418E+02  0.26747987511E+02 -0.19806916181E+03  0.20029972098E+03  0.00000000000E+00 0.  1.
         -3    1    1    2    0  502 -0.20356473929E+02 -0.36006425153E+02 -0.73336141993E+03  0.73452693683E+03  0.00000000000E+00 0. -1.
<mgrwt>
<rscale>  1 0.30000000E+03</rscale>
<asrwt>0</asrwt>
<pdfrwt beam="1">  1       21 0.80444777E-02 0.30000000E+03</pdfrwt>
<pdfrwt beam="2">0</pdfrwt>
<totfact> 0.12650056E+04</totfact>
</mgrwt>
</event>
<event>
 6    1  0.6513574E-002  0.3000000E+03  0.7818608E-02  0.1093470E+00
         21   -1    0    0  501  502  0.00000000000E+00  0.00000000000E+00  0.25749414529E+01  0.25749414529E+01  0.00000000000E+00 0. -1.
         13   -1    0    0    0    0 -0.00000000000E+00 -0.00000000000E+00 -0.10000000000E+04  0.10000000000E+04  0.00000000000E+00 0.  1.
    9000005    2    1    2  501    0 -0.11263348132E+02 -0.48891050073E+02 -0.42766372761E+03  0.43060888300E+03  0.32478329291E+01 0.  0.
         13    1    3    3    0    0 -0.47289359262E+01 -0.20132734685E+02 -0.19010944224E+03  0.19123098564E+03  0.00000000000E+00 0.  1.
          1    1    3    3  501    0 -0.65344122058E+01 -0.28758315388E+02 -0.23755428537E+03  0.23937789736E+03  0.00000000000E+00 0.  1.
         -1    1    1    2    0  502  0.11263348132E+02  0.48891050073E+02 -0.56976133094E+03  0.57196605845E+03  0.00000000000E+00 0. -1.
<mgrwt>
<rscale>  1 0.30000000E+03</rscale>
<asrwt>0</asrwt>
<pdfrwt beam="1">  1       21 0.93634432E-02 0.30000000E+03</pdfrwt>
<pdfrwt beam="2">0</pdfrwt>
<totfact> 0.96738475E+03</totfact>
</mgrwt>
</event>
<event>
 6    1  0.6513574E-002  0.3000000E+03  0.7818608E-02  0.1093470E+00
         21   -1    0    0  501  502  0.00000000000E+00  0.00000000000E+00  0.11844675821E+01  0.11844675821E+01  0.00000000000E+00 0. -1.
         13   -1    0    0    0    0 -0.00000000000E+00 -0.00000000000E+00 -0.10000000000E+04  0.10000000000E+04  0.00000000000E+00 0.  1.
    9000005    2    1    2  501    0 -0.31624331184E+02 -0.12698050026E+02 -0.43862830319E+03  0.43996163252E+03  0.31797702862E+01 0.  0.
         13    1    3    3    0    0 -0.22068483509E+02 -0.73885304728E+01 -0.29096246450E+03  0.29189169926E+03  0.00000000000E+00 0.  1.
          3    1    3    3  501    0 -0.95558476758E+01 -0.53095195529E+01 -0.14766583869E+03  0.14806993327E+03  0.00000000000E+00 0.  1.
         -3    1    1    2    0  502  0.31624331184E+02  0.12698050026E+02 -0.56018722923E+03  0.56122283506E+03  0.00000000000E+00 0. -1.
<mgrwt>
<rscale>  1 0.30000000E+03</rscale>
<asrwt>0</asrwt>
<pdfrwt beam="1">  1       21 0.43071639E-02 0.30000000E+03</pdfrwt>
<pdfrwt beam="2">0</pdfrwt>
<totfact> 0.37112110E+04</totfact>
</mgrwt>
</event>
<event>
 6    1  0.6513574E-002  0.3000000E+03  0.7818608E-02  0.1093470E+00
         21   -1    0    0  501  502  0.00000000000E+00  0.00000000000E+00  0.21180133407E+01  0.21180133407E+01  0.00000000000E+00 0. -1.
         13   -1    0    0    0    0 -0.00000000000E+00 -0.00000000000E+00 -0.10000000000E+04  0.10000000000E+04  0.00000000000E+00 0.  1.
    9000005    2    1    2  501    0 -0.41022204272E+02 -0.84222559628E+01 -0.29613659410E+03  0.29912416443E+03  0.49626341141E+01 0.  0.
         13    1    3    3    0    0 -0.70518352637E+01 -0.18021180726E+01 -0.65922421183E+02  0.66323009769E+02  0.00000000000E+00 0.  1.
          3    1    3    3  501    0 -0.33970369009E+02 -0.66201378902E+01 -0.23021417292E+03  0.23280115466E+03  0.00000000000E+00 0.  1.
         -3    1    1    2    0  502  0.41022204272E+02  0.84222559628E+01 -0.70174539256E+03  0.70299384891E+03  0.00000000000E+00 0. -1.
<mgrwt>
<rscale>  1 0.30000000E+03</rscale>
<asrwt>0</asrwt>
<pdfrwt beam="1">  1       21 0.77018829E-02 0.30000000E+03</pdfrwt>
<pdfrwt beam="2">0</pdfrwt>
<totfact> 0.13654075E+04</totfact>
</mgrwt>
</event>
<event>
 6    1  0.6513574E-002  0.3000000E+03  0.7818608E-02  0.1093470E+00
         21   -1    0    0  501  502  0.00000000000E+00  0.00000000000E+00  0.13953946131E+01  0.13953946131E+01  0.00000000000E+00 0. -1.
         13   -1    0    0    0    0 -0.00000000000E+00 -0.00000000000E+00 -0.10000000000E+04  0.10000000000E+04  0.00000000000E+00 0.  1.
    9000005    2    1    2  501    0 -0.92695369918E+01 -0.36111191882E+02 -0.50555016357E+03  0.50693343946E+03  0.32560198620E+01 0.  0.
         13    1    3    3    0    0 -0.43608438910E+01 -0.11594089130E+02 -0.15760068265E+03  0.15808673263E+03  0.00000000000E+00 0.  1.
          3    1    3    3  501    0 -0.49086931009E+01 -0.24517102751E+02 -0.34794948092E+03  0.34884670683E+03  0.00000000000E+00 0.  1.
         -3    1    1    2    0  502  0.92695369918E+01  0.36111191882E+02 -0.49305444182E+03  0.49446195515E+03  0.00000000000E+00 0. -1.
<mgrwt>
<rscale>  1 0.30000000E+03</rscale>
<asrwt>0</asrwt>
<pdfrwt beam="1">  1       21 0.50741729E-02 0.30000000E+03</pdfrwt>
<pdfrwt beam="2">0</pdfrwt>
<totfact> 0.28090307E+04</totfact>
</mgrwt>
</event>
<event>
 6    1  0.6513574E-002  0.3000000E+03  0.7818608E-02  0.1093470E+00
         21   -1    0    0  501  502  0.00000000000E+00  0.00000000000E+00  0.27915481473E+01  0.27915481473E+01  0.00000000000E+00 0. -1.
         13   -1    0    0    0    0 -0.00000000000E+00 -0.00000000000E+00 -0.10000000000E+04  0.10000000000E+04  0.00000000000E+00 0.  1.
    9000005    2    1    2  501    0  0.46254121478E+02  0.10874155284E+02 -0.28039742452E+03  0.28440743090E+03  0.26795647015E+01 0.  0.
         13    1    3    3    0    0  0.41645821467E+02  0.10464434382E+02 -0.25034658710E+03  0.25400254429E+03  0.00000000000E+00 0.  1.
          1    1    3    3  501    0  0.46083000111E+01  0.40972090173E+00 -0.30050837413E+02  0.30404886605E+02  0.00000000000E+00 0.  1.
         -1    1    1    2    0  502 -0.46254121478E+02 -0.10874155284E+02 -0.71681102734E+03  0.71838411725E+03  0.00000000000E+00 0. -1.
<mgrwt>
<rscale>  1 0.30000000E+03</rscale>
<asrwt>0</asrwt>
<pdfrwt beam="1">  1       21 0.10151106E-01 0.30000000E+03</pdfrwt>
<pdfrwt beam="2">0</pdfrwt>
<totfact> 0.83756076E+03</totfact>
</mgrwt>
</event>
<event>
 6    1  0.6513574E-002  0.3000000E+03  0.7818608E-02  0.1093470E+00
         21   -1    0    0  501  502  0.00000000000E+00  0.00000000000E+00  0.95330297332E+00  0.95330297332E+00  0.00000000000E+00 0. -1.
         13   -1    0    0    0    0 -0.00000000000E+00 -0.00000000000E+00 -0.10000000000E+04  0.10000000000E+04  0.00000000000E+00 0.  1.
    9000005    2    1    2  501    0 -0.22714007315E+02 -0.20606204381E+02 -0.54346804686E+03  0.54434356997E+03  0.34441864954E+01 0.  0.
         13    1    3    3    0    0  0.12845863741E+00 -0.82847698829E-01 -0.27936259769E+01  0.27978047576E+01  0.00000000000E+00 0.  1.
          3    1    3    3  501    0 -0.22842465953E+02 -0.20523356682E+02 -0.54067442089E+03  0.54154576521E+03  0.00000000000E+00 0.  1.
         -1    1    1    2    0  502  0.22714007315E+02  0.20606204381E+02 -0.45557865016E+03  0.45660973300E+03  0.00000000000E+00 0. -1.
<mgrwt>
<rscale>  1 0.30000000E+03</rscale>
<asrwt>0</asrwt>
<pdfrwt beam="1">  1       21 0.34665636E-02 0.30000000E+03</pdfrwt>
<pdfrwt beam="2">0</pdfrwt>
<totfact> 0.53469081E+04</totfact>
</mgrwt>
</event>
<event>
 6    1  0.6513574E-002  0.3000000E+03  0.7818608E-02  0.1093470E+00
         21   -1    0    0  501  502  0.00000000000E+00  0.00000000000E+00  0.14605420331E+01  0.14605420331E+01  0.00000000000E+00 0. -1.
         13   -1    0    0    0    0 -0.00000000000E+00 -0.00000000000E+00 -0.10000000000E+04  0.10000000000E+04  0.00000000000E+00 0.  1.
    9000005    2    1    2  501    0 -0.23740016143E+01  0.33564685572E+02 -0.26572958506E+03  0.26787855354E+03  0.38056632956E+01 0.  0.
         13    1    3    3    0    0 -0.40205992148E+00  0.19906301625E+02 -0.14423429273E+03  0.14560203878E+03  0.00000000000E+00 0.  1.
          1    1    3    3  501    0 -0.19719416928E+01  0.13658383947E+02 -0.12149529232E+03  0.12227651476E+03  0.00000000000E+00 0.  1.
         -1    1    1    2    0  502  0.23740016143E+01 -0.33564685572E+02 -0.73280987291E+03  0.73358198849E+03  0.00000000000E+00 0. -1.
<mgrwt>
<rscale>  1 0.30000000E+03</rscale>
<asrwt>0</asrwt>
<pdfrwt beam="1">  1       21 0.53110731E-02 0.30000000E+03</pdfrwt>
<pdfrwt beam="2">0</pdfrwt>
<totfact> 0.25983940E+04</totfact>
</mgrwt>
</event>
<event>
 6    1  0.6513574E-002  0.3000000E+03  0.7818608E-02  0.1093470E+00
         21   -1    0    0  501  502  0.00000000000E+00  0.00000000000E+00  0.15058472704E+01  0.15058472704E+01  0.00000000000E+00 0. -1.
         13   -1    0    0    0    0 -0.00000000000E+00 -0.00000000000E+00 -0.10000000000E+04  0.10000000000E+04  0.00000000000E+00 0.  1.
    9000005    2    1    2  501    0 -0.35590996997E+02 -0.12075330666E+02 -0.38012759591E+03  0.38199819496E+03  0.36192682390E+01 0.  0.
         13    1    3    3    0    0 -0.11551256954E+02 -0.41299681889E+01 -0.10760376483E+03  0.10830077737E+03  0.00000000000E+00 0.  1.
          1    1    3    3  501    0 -0.24039740044E+02 -0.79453624774E+01 -0.27252383109E+03  0.27369741759E+03  0.00000000000E+00 0.  1.
         -1    1    1    2    0  502  0.35590996997E+02  0.12075330666E+02 -0.61836655682E+03  0.61950765231E+03  0.00000000000E+00 0. -1.
<mgrwt>
<rscale>  1 0.30000000E+03</rscale>
<asrwt>0</asrwt>
<pdfrwt beam="1">  1       21 0.54758198E-02 0.30000000E+03</pdfrwt>
<pdfrwt beam="2">0</pdfrwt>
<totfact> 0.24659722E+04</totfact>
</mgrwt>
</event>
<event>
 6    1  0.6513574E-002  0.3000000E+03  0.7818608E-02  0.1093470E+00
         21   -1    0    0  501  502  0.00000000000E+00  0.00000000000E+00  0.47895663013E+01  0.47895663013E+01  0.00000000000E+00 0. -1.
         13   -1    0    0    0    0 -0.00000000000E+00 -0.00000000000E+00 -0.10000000000E+04  0.10000000000E+04  0.00000000000E+00 0.  1.
    9000005    2    1    2  501    0 -0.30035151994E+02  0.22336773024E+02 -0.75844625452E+02  0.84662112545E+02  0.37715124380E+01 0.  0.
         13    1    3    3    0    0 -0.20843006460E+02  0.15538964507E+02 -0.48618414315E+02  0.55132935228E+02  0.00000000000E+00 0.  1.
          1    1    3    3  501    0 -0.91921455338E+01  0.67978085161E+01 -0.27226211137E+02  0.29529177317E+02  0.00000000000E+00 0.  1.
         -1    1    1    2    0  502  0.30035151994E+02 -0.22336773024E+02 -0.91936580825E+03  0.92012745376E+03  0.00000000000E+00 0. -1.
<mgrwt>
<rscale>  1 0.30000000E+03</rscale>
<asrwt>0</asrwt>
<pdfrwt beam="1">  1       21 0.17416641E-01 0.30000000E+03</pdfrwt>
<pdfrwt beam="2">0</pdfrwt>
<totfact> 0.31167610E+03</totfact>
</mgrwt>
</event>
<event>
 6    1  0.6513574E-002  0.3000000E+03  0.7818608E-02  0.1093470E+00
         21   -1    0    0  501  502  0.00000000000E+00  0.00000000000E+00  0.14489979122E+01  0.14489979122E+01  0.00000000000E+00 0. -1.
         13   -1    0    0    0    0 -0.00000000000E+00 -0.00000000000E+00 -0.10000000000E+04  0.10000000000E+04  0.00000000000E+00 0.  1.
    9000005    2    1    2  501    0  0.18087515224E+02  0.31006382709E+02 -0.66415700846E+03  0.66513382290E+03  0.31490459522E+01 0.  0.
         13    1    3    3    0    0  0.67886316436E+01  0.91450495822E+01 -0.19648511230E+03  0.19681493034E+03  0.00000000000E+00 0.  1.
          3    1    3    3  501    0  0.11298883580E+02  0.21861333126E+02 -0.46767189617E+03  0.46831889255E+03  0.00000000000E+00 0.  1.
         -3    1    1    2    0  502 -0.18087515224E+02 -0.31006382709E+02 -0.33439399362E+03  0.33631517502E+03  0.00000000000E+00 0. -1.
<mgrwt>
<rscale>  1 0.30000000E+03</rscale>
<asrwt>0</asrwt>
<pdfrwt beam="1">  1       21 0.52690944E-02 0.30000000E+03</pdfrwt>
<pdfrwt beam="2">0</pdfrwt>
<totfact> 0.26338958E+04</totfact>
</mgrwt>
</event>
<event>
 6    1  0.6513574E-002  0.3000000E+03  0.7818608E-02  0.1093470E+00
         21   -1    0    0  501  502  0.00000000000E+00  0.00000000000E+00  0.16690723666E+01  0.16690723666E+01  0.00000000000E+00 0. -1.
         13   -1    0    0    0    0 -0.00000000000E+00 -0.00000000000E+00 -0.10000000000E+04  0.10000000000E+04  0.00000000000E+00 0.  1.
    9000005    2    1    2  501    0 -0.33806040365E+02 -0.21165356610E+02 -0.40591922708E+03  0.40791622510E+03  0.58657565907E+01 0.  0.
         13    1    3    3    0    0 -0.11711075843E+02 -0.98475668382E+01 -0.13611710902E+03  0.13697441819E+03  0.00000000000E+00 0.  1.
          3    1    3    3  501    0 -0.22094964521E+02 -0.11317789772E+02 -0.26980211806E+03  0.27094180691E+03  0.00000000000E+00 0.  1.
         -1    1    1    2    0  502  0.33806040365E+02  0.21165356610E+02 -0.59241170055E+03  0.59375284726E+03  0.00000000000E+00 0. -1.
<mgrwt>
<rscale>  1 0.30000000E+03</rscale>
<asrwt>0</asrwt>
<pdfrwt beam="1">  1       21 0.60693669E-02 0.30000000E+03</pdfrwt>
<pdfrwt beam="2">0</pdfrwt>
<totfact> 0.20657950E+04</totfact>
</mgrwt>
</event>
<event>
 6    1  0.6513574E-002  0.3000000E+03  0.7818608E-02  0.1093470E+00
         21   -1    0    0  501  502  0.00000000000E+00  0.00000000000E+00  0.14979966775E+01  0.14979966775E+01  0.00000000000E+00 0. -1.
         13   -1    0    0    0    0 -0.00000000000E+00 -0.00000000000E+00 -0.10000000000E+04  0.10000000000E+04  0.00000000000E+00 0.  1.
    9000005    2    1    2  501    0 -0.37922352601E+02  0.57122798803E+01 -0.56043245053E+03  0.56175299324E+03  0.33404840692E+01 0.  0.
         13    1    3    3    0    0 -0.49854461565E+01  0.18666699996E+01 -0.72947279677E+02  0.73141265661E+02  0.00000000000E+00 0.  1.
          1    1    3    3  501    0 -0.32936906445E+02  0.38456098807E+01 -0.48748517085E+03  0.48861172757E+03  0.00000000000E+00 0.  1.
         -1    1    1    2    0  502  0.37922352601E+02 -0.57122798803E+01 -0.43806955279E+03  0.43974500344E+03  0.00000000000E+00 0. -1.
<mgrwt>
<rscale>  1 0.30000000E+03</rscale>
<asrwt>0</asrwt>
<pdfrwt beam="1">  1       21 0.54472721E-02 0.30000000E+03</pdfrwt>
<pdfrwt beam="2">0</pdfrwt>
<totfact> 0.24881619E+04</totfact>
</mgrwt>
</event>
<event>
 6    1  0.6513574E-002  0.3000000E+03  0.7818608E-02  0.1093470E+00
         21   -1    0    0  501  502  0.00000000000E+00  0.00000000000E+00  0.13331120297E+01  0.13331120297E+01  0.00000000000E+00 0. -1.
         13   -1    0    0    0    0 -0.00000000000E+00 -0.00000000000E+00 -0.10000000000E+04  0.10000000000E+04  0.00000000000E+00 0.  1.
    9000005    2    1    2  501    0 -0.28383048693E+02 -0.16010145862E+02 -0.27612442260E+03  0.27805616888E+03  0.29349743238E+01 0.  0.
         13    1    3    3    0    0 -0.48317766133E+01 -0.40304224379E+01 -0.54828021562E+02  0.55187881991E+02  0.00000000000E+00 0.  1.
          1    1    3    3  501    0 -0.23551272080E+02 -0.11979723424E+02 -0.22129640104E+03  0.22286828689E+03  0.00000000000E+00 0.  1.
         -1    1    1    2    0  502  0.28383048693E+02  0.16010145862E+02 -0.72254246537E+03  0.72327694315E+03  0.00000000000E+00 0. -1.
<mgrwt>
<rscale>  1 0.30000000E+03</rscale>
<asrwt>0</asrwt>
<pdfrwt beam="1">  1       21 0.48476903E-02 0.30000000E+03</pdfrwt>
<pdfrwt beam="2">0</pdfrwt>
<totfact> 0.30363318E+04</totfact>
</mgrwt>
</event>
<event>
 6    1  0.6513574E-002  0.3000000E+03  0.7818608E-02  0.1093470E+00
         21   -1    0    0  501  502  0.00000000000E+00  0.00000000000E+00  0.12716324137E+01  0.12716324137E+01  0.00000000000E+00 0. -1.
         13   -1    0    0    0    0 -0.00000000000E+00 -0.00000000000E+00 -0.10000000000E+04  0.10000000000E+04  0.00000000000E+00 0.  1.
    9000005    2    1    2  501    0 -0.35313829501E+02  0.38772758803E+01 -0.52507393257E+03  0.52628676567E+03  0.36090491158E+01 0.  0.
         13    1    3    3    0    0 -0.21562175653E+02  0.99536455024E+00 -0.33429978716E+03  0.33499591917E+03  0.00000000000E+00 0.  1.
          1    1    3    3  501    0 -0.13751653848E+02  0.28819113300E+01 -0.19077414541E+03  0.19129084650E+03  0.00000000000E+00 0.  1.
         -1    1    1    2    0  502  0.35313829501E+02 -0.38772758803E+01 -0.47365443502E+03  0.47498486674E+03  0.00000000000E+00 0. -1.
<mgrwt>
<rscale>  1 0.30000000E+03</rscale>
<asrwt>0</asrwt>
<pdfrwt beam="1">  1       21 0.46241276E-02 0.30000000E+03</pdfrwt>
<pdfrwt beam="2">0</pdfrwt>
<totfact> 0.32902022E+04</totfact>
</mgrwt>
</event>
<event>
 6    1  0.6513574E-002  0.3000000E+03  0.7818608E-02  0.1093470E+00
         21   -1    0    0  501  502  0.00000000000E+00  0.00000000000E+00  0.13303201018E+01  0.13303201018E+01  0.00000000000E+00 0. -1.
         13   -1    0    0    0    0 -0.00000000000E+00 -0.00000000000E+00 -0.10000000000E+04  0.10000000000E+04  0.00000000000E+00 0.  1.
    9000005    2    1    2  501    0 -0.13971407434E+02  0.33167895607E+02 -0.42505506143E+03  0.42658773420E+03  0.31591455778E+01 0.  0.
         13    1    3    3    0    0 -0.52962250889E+01  0.15945323459E+02 -0.18758541927E+03  0.18833638220E+03  0.00000000000E+00 0.  1.
          1    1    3    3  501    0 -0.86751823456E+01  0.17222572148E+02 -0.23746964216E+03  0.23825135200E+03  0.00000000000E+00 0.  1.
         -1    1    1    2    0  502  0.13971407434E+02 -0.33167895607E+02 -0.57361461847E+03  0.57474258590E+03  0.00000000000E+00 0. -1.
<mgrwt>
<rscale>  1 0.30000000E+03</rscale>
<asrwt>0</asrwt>
<pdfrwt beam="1">  1       21 0.48375378E-02 0.30000000E+03</pdfrwt>
<pdfrwt beam="2">0</pdfrwt>
<totfact> 0.30471869E+04</totfact>
</mgrwt>
</event>
<event>
 6    1  0.6513574E-002  0.3000000E+03  0.7818608E-02  0.1093470E+00
         21   -1    0    0  501  502  0.00000000000E+00  0.00000000000E+00  0.10911826022E+01  0.10911826022E+01  0.00000000000E+00 0. -1.
         13   -1    0    0    0    0 -0.00000000000E+00 -0.00000000000E+00 -0.10000000000E+04  0.10000000000E+04  0.00000000000E+00 0.  1.
    9000005    2    1    2  501    0  0.23694219040E+02  0.22367934499E+02 -0.57258356515E+03  0.57352252003E+03  0.37949166067E+01 0.  0.
         13    1    3    3    0    0  0.21596767577E+02  0.21618585010E+02 -0.53836751915E+03  0.53923405796E+03  0.00000000000E+00 0.  1.
          3    1    3    3  501    0  0.20974514632E+01  0.74934948861E+00 -0.34216046000E+02  0.34288462071E+02  0.00000000000E+00 0.  1.
         -3    1    1    2    0  502 -0.23694219040E+02 -0.22367934499E+02 -0.42632525225E+03  0.42756866258E+03  0.00000000000E+00 0. -1.
<mgrwt>
<rscale>  1 0.30000000E+03</rscale>
<asrwt>0</asrwt>
<pdfrwt beam="1">  1       21 0.39679451E-02 0.30000000E+03</pdfrwt>
<pdfrwt beam="2">0</pdfrwt>
<totfact> 0.42620815E+04</totfact>
</mgrwt>
</event>
<event>
 6    1  0.6513574E-002  0.3000000E+03  0.7818608E-02  0.1093470E+00
         21   -1    0    0  501  502  0.00000000000E+00  0.00000000000E+00  0.12333797988E+01  0.12333797988E+01  0.00000000000E+00 0. -1.
         13   -1    0    0    0    0 -0.00000000000E+00 -0.00000000000E+00 -0.10000000000E+04  0.10000000000E+04  0.00000000000E+00 0.  1.
    9000005    2    1    2  501    0 -0.37871209237E+01 -0.33388866444E+02 -0.64200769462E+03  0.64289542525E+03  0.33895679228E+01 0.  0.
         13    1    3    3    0    0  0.71623203867E-01  0.63732616045E-01 -0.23568555628E+01  0.23588047553E+01  0.00000000000E+00 0.  1.
          1    1    3    3  501    0 -0.38587441275E+01 -0.33452599060E+02 -0.63965083906E+03  0.64053662050E+03  0.00000000000E+00 0.  1.
         -1    1    1    2    0  502  0.37871209237E+01  0.33388866444E+02 -0.35675892558E+03  0.35833795455E+03  0.00000000000E+00 0. -1.
<mgrwt>
<rscale>  1 0.30000000E+03</rscale>
<asrwt>0</asrwt>
<pdfrwt beam="1">  1       21 0.44850269E-02 0.30000000E+03</pdfrwt>
<pdfrwt beam="2">0</pdfrwt>
<totfact> 0.34653597E+04</totfact>
</mgrwt>
</event>
<event>
 6    1  0.6513574E-002  0.3000000E+03  0.7818608E-02  0.1093470E+00
         21   -1    0    0  501  502  0.00000000000E+00  0.00000000000E+00  0.13138488520E+01  0.13138488520E+01  0.00000000000E+00 0. -1.
         13   -1    0    0    0    0 -0.00000000000E+00 -0.00000000000E+00 -0.10000000000E+04  0.10000000000E+04  0.00000000000E+00 0.  1.
    9000005    2    1    2  501    0  0.29839278884E+02  0.43623831430E+01 -0.77626753330E+03  0.77686016874E+03  0.33204767750E+01 0.  0.
         13    1    3    3    0    0  0.23194465255E+02  0.46728823353E+01 -0.59218383631E+03  0.59265632118E+03  0.00000000000E+00 0.  1.
          1    1    3    3  501    0  0.66448136290E+01 -0.31049919226E+00 -0.18408369700E+03  0.18420384757E+03  0.00000000000E+00 0.  1.
         -3    1    1    2    0  502 -0.29839278884E+02 -0.43623831430E+01 -0.22241861784E+03  0.22445368011E+03  0.00000000000E+00 0. -1.
<mgrwt>
<rscale>  1 0.30000000E+03</rscale>
<asrwt>0</asrwt>
<pdfrwt beam="1">  1       21 0.47776423E-02 0.30000000E+03</pdfrwt>
<pdfrwt beam="2">0</pdfrwt>
<totfact> 0.31124806E+04</totfact>
</mgrwt>
</event>
<event>
 6    1  0.6513574E-002  0.3000000E+03  0.7818608E-02  0.1093470E+00
         21   -1    0    0  501  502  0.00000000000E+00  0.00000000000E+00  0.13295502848E+01  0.13295502848E+01  0.00000000000E+00 0. -1.
         13   -1    0    0    0    0 -0.00000000000E+00 -0.00000000000E+00 -0.10000000000E+04  0.10000000000E+04  0.00000000000E+00 0.  1.
    9000005    2    1    2  501    0 -0.76509686837E+01 -0.34738455820E+02 -0.54578436731E+03  0.54704868862E+03  0.10788627870E+02 0.  0.
         13    1    3    3    0    0 -0.10398471673E+02 -0.29015476099E+02 -0.45174297509E+03  0.45279326586E+03  0.00000000000E+00 0.  1.
          1    1    3    3  501    0  0.27475029893E+01 -0.57229797209E+01 -0.94041392214E+02  0.94255422757E+02  0.00000000000E+00 0.  1.
         -1    1    1    2    0  502  0.76509686837E+01  0.34738455820E+02 -0.45288608241E+03  0.45428086166E+03  0.00000000000E+00 0. -1.
<mgrwt>
<rscale>  1 0.30000000E+03</rscale>
<asrwt>0</asrwt>
<pdfrwt beam="1">  1       21 0.48347385E-02 0.30000000E+03</pdfrwt>
<pdfrwt beam="2">0</pdfrwt>
<totfact> 0.30501907E+04</totfact>
</mgrwt>
</event>
<event>
 6    1  0.6513574E-002  0.3000000E+03  0.7818608E-02  0.1093470E+00
         21   -1    0    0  501  502  0.00000000000E+00  0.00000000000E+00  0.41126478148E+01  0.41126478148E+01  0.00000000000E+00 0. -1.
         13   -1    0    0    0    0 -0.00000000000E+00 -0.00000000000E+00 -0.10000000000E+04  0.10000000000E+04  0.00000000000E+00 0.  1.
    9000005    2    1    2  501    0  0.60090128551E+02 -0.21581330904E+02 -0.54118497415E+03  0.54494946333E+03  0.34876851897E+01 0.  0.
         13    1    3    3    0    0  0.12952276449E+02 -0.31912724518E+01 -0.11584199408E+03  0.11660751810E+03  0.00000000000E+00 0.  1.
          1    1    3    3  501    0  0.47137852102E+02 -0.18390058452E+02 -0.42534298007E+03  0.42834194523E+03  0.00000000000E+00 0.  1.
         -3    1    1    2    0  502 -0.60090128551E+02  0.21581330904E+02 -0.45470237803E+03  0.45916318448E+03  0.00000000000E+00 0. -1.
<mgrwt>
<rscale>  1 0.30000000E+03</rscale>
<asrwt>0</asrwt>
<pdfrwt beam="1">  1       21 0.14955114E-01 0.30000000E+03</pdfrwt>
<pdfrwt beam="2">0</pdfrwt>
<totfact> 0.41409375E+03</totfact>
</mgrwt>
</event>
<event>
 6    1  0.6513574E-002  0.3000000E+03  0.7818608E-02  0.1093470E+00
         21   -1    0    0  501  502  0.00000000000E+00  0.00000000000E+00  0.12732779566E+01  0.12732779566E+01  0.00000000000E+00 0. -1.
         13   -1    0    0    0    0 -0.00000000000E+00 -0.00000000000E+00 -0.10000000000E+04  0.10000000000E+04  0.00000000000E+00 0.  1.
    9000005    2    1    2  501    0  0.25171720402E+02 -0.24986366379E+02 -0.53467240982E+03  0.53586556561E+03  0.44027920138E+01 0.  0.
         13    1    3    3    0    0  0.24593692508E+02 -0.25093176005E+02 -0.52770018452E+03  0.52886860554E+03  0.00000000000E+00 0.  1.
          1    1    3    3  501    0  0.57802789457E+00  0.10680962605E+00 -0.69722253008E+01  0.69969600676E+01  0.00000000000E+00 0.  1.
         -3    1    1    2    0  502 -0.25171720402E+02  0.24986366379E+02 -0.46405431223E+03  0.46540771234E+03  0.00000000000E+00 0. -1.
<mgrwt>
<rscale>  1 0.30000000E+03</rscale>
<asrwt>0</asrwt>
<pdfrwt beam="1">  1       21 0.46301114E-02 0.30000000E+03</pdfrwt>
<pdfrwt beam="2">0</pdfrwt>
<totfact> 0.32829798E+04</totfact>
</mgrwt>
</event>
<event>
 6    1  0.6513574E-002  0.3000000E+03  0.7818608E-02  0.1093470E+00
         21   -1    0    0  501  502  0.00000000000E+00  0.00000000000E+00  0.16045532991E+01  0.16045532991E+01  0.00000000000E+00 0. -1.
         13   -1    0    0    0    0 -0.00000000000E+00 -0.00000000000E+00 -0.10000000000E+04  0.10000000000E+04  0.00000000000E+00 0.  1.
    9000005    2    1    2  501    0 -0.15682512237E+02 -0.35796614787E+02 -0.39302059494E+03  0.39496953126E+03  0.28989232968E+01 0.  0.
         13    1    3    3    0    0 -0.15070442134E+02 -0.33362413153E+02 -0.37301506068E+03  0.37480715619E+03  0.00000000000E+00 0.  1.
          1    1    3    3  501    0 -0.61207010343E+00 -0.24342016335E+01 -0.20005534262E+02  0.20162375071E+02  0.00000000000E+00 0.  1.
         -3    1    1    2    0  502  0.15682512237E+02  0.35796614787E+02 -0.60537485176E+03  0.60663502204E+03  0.00000000000E+00 0. -1.
<mgrwt>
<rscale>  1 0.30000000E+03</rscale>
<asrwt>0</asrwt>
<pdfrwt beam="1">  1       21 0.58347516E-02 0.30000000E+03</pdfrwt>
<pdfrwt beam="2">0</pdfrwt>
<totfact> 0.22110870E+04</totfact>
</mgrwt>
</event>
<event>
 6    1  0.6513574E-002  0.3000000E+03  0.7818608E-02  0.1093470E+00
         21   -1    0    0  501  502  0.00000000000E+00  0.00000000000E+00  0.38109889714E+01  0.38109889714E+01  0.00000000000E+00 0. -1.
         13   -1    0    0    0    0 -0.00000000000E+00 -0.00000000000E+00 -0.10000000000E+04  0.10000000000E+04  0.00000000000E+00 0.  1.
    9000005    2    1    2  501    0  0.89234406722E+01 -0.54323840305E+02 -0.27189342830E+03  0.27742624342E+03  0.29286111038E+01 0.  0.
         13    1    3    3    0    0  0.27498365652E+01 -0.19583782112E+02 -0.91072055655E+02  0.93194449643E+02  0.00000000000E+00 0.  1.
          1    1    3    3  501    0  0.61736041070E+01 -0.34740058193E+02 -0.18082137265E+03  0.18423179377E+03  0.00000000000E+00 0.  1.
         -3    1    1    2    0  502 -0.89234406722E+01  0.54323840305E+02 -0.72429558273E+03  0.72638474556E+03  0.00000000000E+00 0. -1.
<mgrwt>
<rscale>  1 0.30000000E+03</rscale>
<asrwt>0</asrwt>
<pdfrwt beam="1">  1       21 0.13858171E-01 0.30000000E+03</pdfrwt>
<pdfrwt beam="2">0</pdfrwt>
<totfact> 0.47649513E+03</totfact>
</mgrwt>
</event>
<event>
 6    1  0.6513574E-002  0.3000000E+03  0.7818608E-02  0.1093470E+00
         21   -1    0    0  501  502  0.00000000000E+00  0.00000000000E+00  0.13304824855E+01  0.13304824855E+01  0.00000000000E+00 0. -1.
         13   -1    0    0    0    0 -0.00000000000E+00 -0.00000000000E+00 -0.10000000000E+04  0.10000000000E+04  0.00000000000E+00 0.  1.
    9000005    2    1    2  501    0 -0.30619472661E+02 -0.17008980727E+02 -0.36400164212E+03  0.36569680686E+03  0.31782935858E+01 0.  0.
         13    1    3    3    0    0 -0.25911878400E+02 -0.13060462085E+02 -0.30345704318E+03  0.30484123436E+03  0.00000000000E+00 0.  1.
          1    1    3    3  501    0 -0.47075942606E+01 -0.39485186421E+01 -0.60544598939E+02  0.60855572496E+02  0.00000000000E+00 0.  1.
         -3    1    1    2    0  502  0.30619472661E+02  0.17008980727E+02 -0.63466787540E+03  0.63563367563E+03  0.00000000000E+00 0. -1.
<mgrwt>
<rscale>  1 0.30000000E+03</rscale>
<asrwt>0</asrwt>
<pdfrwt beam="1">  1       21 0.48381283E-02 0.30000000E+03</pdfrwt>
<pdfrwt beam="2">0</pdfrwt>
<totfact> 0.30465539E+04</totfact>
</mgrwt>
</event>
<event>
 6    1  0.6513574E-002  0.3000000E+03  0.7818608E-02  0.1093470E+00
         21   -1    0    0  501  502  0.00000000000E+00  0.00000000000E+00  0.14473568802E+01  0.14473568802E+01  0.00000000000E+00 0. -1.
         13   -1    0    0    0    0 -0.00000000000E+00 -0.00000000000E+00 -0.10000000000E+04  0.10000000000E+04  0.00000000000E+00 0.  1.
    9000005    2    1    2  501    0 -0.27021431882E+01 -0.34895588003E+02 -0.30726205535E+03  0.30927130963E+03  0.37106153185E+01 0.  0.
         13    1    3    3    0    0  0.51628451844E+00 -0.17279700114E+02 -0.14959174884E+03  0.15058733647E+03  0.00000000000E+00 0.  1.
          1    1    3    3  501    0 -0.32184277067E+01 -0.17615887889E+02 -0.15767030651E+03  0.15868397316E+03  0.00000000000E+00 0.  1.
         -1    1    1    2    0  502  0.27021431882E+01  0.34895588003E+02 -0.69129058777E+03  0.69217604725E+03  0.00000000000E+00 0. -1.
<mgrwt>
<rscale>  1 0.30000000E+03</rscale>
<asrwt>0</asrwt>
<pdfrwt beam="1">  1       21 0.52631270E-02 0.30000000E+03</pdfrwt>
<pdfrwt beam="2">0</pdfrwt>
<totfact> 0.26390034E+04</totfact>
</mgrwt>
</event>
<event>
 6    1  0.6513574E-002  0.3000000E+03  0.7818608E-02  0.1093470E+00
         21   -1    0    0  501  502  0.00000000000E+00  0.00000000000E+00  0.14351850999E+01  0.14351850999E+01  0.00000000000E+00 0. -1.
         13   -1    0    0    0    0 -0.00000000000E+00 -0.00000000000E+00 -0.10000000000E+04  0.10000000000E+04  0.00000000000E+00 0.  1.
    9000005    2    1    2  501    0  0.27778541151E+02  0.14381515906E+02 -0.21984180265E+03  0.22208416974E+03  0.35333984537E+01 0.  0.
         13    1    3    3    0    0  0.57530224227E+01  0.41385094675E+01 -0.57514948063E+02  0.57949924748E+02  0.00000000000E+00 0.  1.
          3    1    3    3  501    0  0.22025518729E+02  0.10243006438E+02 -0.16232685459E+03  0.16413424499E+03  0.00000000000E+00 0.  1.
         -1    1    1    2    0  502 -0.27778541151E+02 -0.14381515906E+02 -0.77872301225E+03  0.77935101536E+03  0.00000000000E+00 0. -1.
<mgrwt>
<rscale>  1 0.30000000E+03</rscale>
<asrwt>0</asrwt>
<pdfrwt beam="1">  1       21 0.52188659E-02 0.30000000E+03</pdfrwt>
<pdfrwt beam="2">0</pdfrwt>
<totfact> 0.26773710E+04</totfact>
</mgrwt>
</event>
<event>
 6    1  0.6513574E-002  0.3000000E+03  0.7818608E-02  0.1093470E+00
         21   -1    0    0  501  502  0.00000000000E+00  0.00000000000E+00  0.10144004440E+01  0.10144004440E+01  0.00000000000E+00 0. -1.
         13   -1    0    0    0    0 -0.00000000000E+00 -0.00000000000E+00 -0.10000000000E+04  0.10000000000E+04  0.00000000000E+00 0.  1.
    9000005    2    1    2  501    0  0.23542752902E+02  0.19538517487E+02 -0.36762882286E+03  0.36891678587E+03  0.35536761006E+01 0.  0.
         13    1    3    3    0    0  0.23417943562E+02  0.19695353641E+02 -0.36506404538E+03  0.36634418825E+03  0.00000000000E+00 0.  1.
          1    1    3    3  501    0  0.12480934023E+00 -0.15683615448E+00 -0.25647774821E+01  0.25725976140E+01  0.00000000000E+00 0.  1.
         -1    1    1    2    0  502 -0.23542752902E+02 -0.19538517487E+02 -0.63135677669E+03  0.63209761458E+03  0.00000000000E+00 0. -1.
<mgrwt>
<rscale>  1 0.30000000E+03</rscale>
<asrwt>0</asrwt>
<pdfrwt beam="1">  1       21 0.36887367E-02 0.30000000E+03</pdfrwt>
<pdfrwt beam="2">0</pdfrwt>
<totfact> 0.48181352E+04</totfact>
</mgrwt>
</event>
<event>
 6    1  0.6513574E-002  0.3000000E+03  0.7818608E-02  0.1093470E+00
         21   -1    0    0  501  502  0.00000000000E+00  0.00000000000E+00  0.20137507964E+01  0.20137507964E+01  0.00000000000E+00 0. -1.
         13   -1    0    0    0    0 -0.00000000000E+00 -0.00000000000E+00 -0.10000000000E+04  0.10000000000E+04  0.00000000000E+00 0.  1.
    9000005    2    1    2  501    0 -0.55968712108E+01  0.42572860712E+02 -0.64309336077E+03  0.64453265242E+03  0.30815468475E+01 0.  0.
         13    1    3    3    0    0 -0.41041754899E+01  0.26185521306E+02 -0.41662216069E+03  0.41746443029E+03  0.00000000000E+00 0.  1.
          1    1    3    3  501    0 -0.14926957210E+01  0.16387339406E+02 -0.22647120008E+03  0.22706822213E+03  0.00000000000E+00 0.  1.
         -1    1    1    2    0  502  0.55968712108E+01 -0.42572860712E+02 -0.35489288843E+03  0.35748109838E+03  0.00000000000E+00 0. -1.
<mgrwt>
<rscale>  1 0.30000000E+03</rscale>
<asrwt>0</asrwt>
<pdfrwt beam="1">  1       21 0.73227456E-02 0.30000000E+03</pdfrwt>
<pdfrwt beam="2">0</pdfrwt>
<totfact> 0.14915645E+04</totfact>
</mgrwt>
</event>
<event>
 6    1  0.6513574E-002  0.3000000E+03  0.7818608E-02  0.1093470E+00
         21   -1    0    0  501  502  0.00000000000E+00  0.00000000000E+00  0.12463400335E+01  0.12463400335E+01  0.00000000000E+00 0. -1.
         13   -1    0    0    0    0 -0.00000000000E+00 -0.00000000000E+00 -0.10000000000E+04  0.10000000000E+04  0.00000000000E+00 0.  1.
    9000005    2    1    2  501    0  0.68008809232E+01 -0.34269287538E+02 -0.56798802355E+03  0.56906620448E+03  0.23052408628E+01 0.  0.
         13    1    3    3    0    0  0.14335386146E+01 -0.64943840164E+01 -0.12340551134E+03  0.12358459567E+03  0.00000000000E+00 0.  1.
          1    1    3    3  501    0  0.53673423086E+01 -0.27774903522E+02 -0.44458251221E+03  0.44548160881E+03  0.00000000000E+00 0.  1.
         -1    1    1    2    0  502 -0.68008809232E+01  0.34269287538E+02 -0.43076563641E+03  0.43218013555E+03  0.00000000000E+00 0. -1.
<mgrwt>
<rscale>  1 0.30000000E+03</rscale>
<asrwt>0</asrwt>
<pdfrwt beam="1">  1       21 0.45321551E-02 0.30000000E+03</pdfrwt>
<pdfrwt beam="2">0</pdfrwt>
<totfact> 0.34044243E+04</totfact>
</mgrwt>
</event>
<event>
 6    1  0.6513574E-002  0.3000000E+03  0.7818608E-02  0.1093470E+00
         21   -1    0    0  501  502  0.00000000000E+00  0.00000000000E+00  0.10058332724E+01  0.10058332724E+01  0.00000000000E+00 0. -1.
         13   -1    0    0    0    0 -0.00000000000E+00 -0.00000000000E+00 -0.10000000000E+04  0.10000000000E+04  0.00000000000E+00 0.  1.
    9000005    2    1    2  501    0  0.15313746453E+02 -0.27599956081E+02 -0.49132996830E+03  0.49236135353E+03  0.42774168920E+01 0.  0.
         13    1    3    3    0    0  0.10424577649E+02 -0.20487882645E+02 -0.38218260155E+03  0.38287330291E+03  0.00000000000E+00 0.  1.
          1    1    3    3  501    0  0.48891688035E+01 -0.71120734360E+01 -0.10914736675E+03  0.10948805062E+03  0.00000000000E+00 0.  1.
         -1    1    1    2    0  502 -0.15313746453E+02  0.27599956081E+02 -0.50766419843E+03  0.50864447974E+03  0.00000000000E+00 0. -1.
<mgrwt>
<rscale>  1 0.30000000E+03</rscale>
<asrwt>0</asrwt>
<pdfrwt beam="1">  1       21 0.36575832E-02 0.30000000E+03</pdfrwt>
<pdfrwt beam="2">0</pdfrwt>
<totfact> 0.48871979E+04</totfact>
</mgrwt>
</event>
<event>
 6    1  0.6513574E-002  0.3000000E+03  0.7818608E-02  0.1093470E+00
         21   -1    0    0  501  502  0.00000000000E+00  0.00000000000E+00  0.11982699656E+01  0.11982699656E+01  0.00000000000E+00 0. -1.
         13   -1    0    0    0    0 -0.00000000000E+00 -0.00000000000E+00 -0.10000000000E+04  0.10000000000E+04  0.00000000000E+00 0.  1.
    9000005    2    1    2  501    0 -0.24096106958E+02  0.23748423951E+02 -0.60034439269E+03  0.60130721019E+03  0.35158459253E+01 0.  0.
         13    1    3    3    0    0 -0.99590474484E+00  0.17886013041E+01 -0.48475884620E+02  0.48519092227E+02  0.00000000000E+00 0.  1.
          1    1    3    3  501    0 -0.23100202214E+02  0.21959822647E+02 -0.55186850807E+03  0.55278811796E+03  0.00000000000E+00 0.  1.
         -3    1    1    2    0  502  0.24096106958E+02 -0.23748423951E+02 -0.39845733734E+03  0.39989105978E+03  0.00000000000E+00 0. -1.
<mgrwt>
<rscale>  1 0.30000000E+03</rscale>
<asrwt>0</asrwt>
<pdfrwt beam="1">  1       21 0.43573545E-02 0.30000000E+03</pdfrwt>
<pdfrwt beam="2">0</pdfrwt>
<totfact> 0.36391668E+04</totfact>
</mgrwt>
</event>
<event>
 6    1  0.6513574E-002  0.3000000E+03  0.7818608E-02  0.1093470E+00
         21   -1    0    0  501  502  0.00000000000E+00  0.00000000000E+00  0.22065997042E+01  0.22065997042E+01  0.00000000000E+00 0. -1.
         13   -1    0    0    0    0 -0.00000000000E+00 -0.00000000000E+00 -0.10000000000E+04  0.10000000000E+04  0.00000000000E+00 0.  1.
    9000005    2    1    2  501    0  0.35015832517E+02  0.29765682576E+02 -0.60050251292E+03  0.60226641221E+03  0.30755259104E+01 0.  0.
         13    1    3    3    0    0  0.30768018025E+02  0.26829132308E+02 -0.52152675680E+03  0.52312200425E+03  0.00000000000E+00 0.  1.
          3    1    3    3  501    0  0.42478144919E+01  0.29365502679E+01 -0.78975756129E+02  0.79144407961E+02  0.00000000000E+00 0.  1.
         -3    1    1    2    0  502 -0.35015832517E+02 -0.29765682576E+02 -0.39729088737E+03  0.39994018750E+03  0.00000000000E+00 0. -1.
<mgrwt>
<rscale>  1 0.30000000E+03</rscale>
<asrwt>0</asrwt>
<pdfrwt beam="1">  1       21 0.80240158E-02 0.30000000E+03</pdfrwt>
<pdfrwt beam="2">0</pdfrwt>
<totfact> 0.12706786E+04</totfact>
</mgrwt>
</event>
<event>
 6    1  0.6513574E-002  0.3000000E+03  0.7818608E-02  0.1093470E+00
         21   -1    0    0  501  502  0.00000000000E+00  0.00000000000E+00  0.10322446842E+01  0.10322446842E+01  0.00000000000E+00 0. -1.
         13   -1    0    0    0    0 -0.00000000000E+00 -0.00000000000E+00 -0.10000000000E+04  0.10000000000E+04  0.00000000000E+00 0.  1.
    9000005    2    1    2  501    0 -0.15406970385E+02  0.27029976467E+02 -0.62035694253E+03  0.62114523264E+03  0.32664227596E+01 0.  0.
         13    1    3    3    0    0 -0.22293679587E+00  0.13697533396E+01 -0.19781266218E+02  0.19829886995E+02  0.00000000000E+00 0.  1.
          1    1    3    3  501    0 -0.15184033589E+02  0.25660223127E+02 -0.60057567631E+03  0.60131534564E+03  0.00000000000E+00 0.  1.
         -1    1    1    2    0  502  0.15406970385E+02 -0.27029976467E+02 -0.37861081279E+03  0.37988701205E+03  0.00000000000E+00 0. -1.
<mgrwt>
<rscale>  1 0.30000000E+03</rscale>
<asrwt>0</asrwt>
<pdfrwt beam="1">  1       21 0.37536249E-02 0.30000000E+03</pdfrwt>
<pdfrwt beam="2">0</pdfrwt>
<totfact> 0.46791292E+04</totfact>
</mgrwt>
</event>
<event>
 6    1  0.6513574E-002  0.3000000E+03  0.7818608E-02  0.1093470E+00
         21   -1    0    0  501  502  0.00000000000E+00  0.00000000000E+00  0.97970798462E+00  0.97970798462E+00  0.00000000000E+00 0. -1.
         13   -1    0    0    0    0 -0.00000000000E+00 -0.00000000000E+00 -0.10000000000E+04  0.10000000000E+04  0.00000000000E+00 0.  1.
    9000005    2    1    2  501    0 -0.46249726537E+01  0.30091371614E+02 -0.60965140217E+03  0.61042239670E+03  0.37133823677E+01 0.  0.
         13    1    3    3    0    0 -0.22804527672E+01  0.57761715402E+01 -0.13522444461E+03  0.13536696437E+03  0.00000000000E+00 0.  1.
          1    1    3    3  501    0 -0.23445198865E+01  0.24315200074E+02 -0.47442695756E+03  0.47505543233E+03  0.00000000000E+00 0.  1.
         -1    1    1    2    0  502  0.46249726537E+01 -0.30091371614E+02 -0.38936888984E+03  0.39055731128E+03  0.00000000000E+00 0. -1.
<mgrwt>
<rscale>  1 0.30000000E+03</rscale>
<asrwt>0</asrwt>
<pdfrwt beam="1">  1       21 0.35625820E-02 0.30000000E+03</pdfrwt>
<pdfrwt beam="2">0</pdfrwt>
<totfact> 0.51077319E+04</totfact>
</mgrwt>
</event>
<event>
 6    1  0.6513574E-002  0.3000000E+03  0.7818608E-02  0.1093470E+00
         21   -1    0    0  501  502  0.00000000000E+00  0.00000000000E+00  0.13971956268E+01  0.13971956268E+01  0.00000000000E+00 0. -1.
         13   -1    0    0    0    0 -0.00000000000E+00 -0.00000000000E+00 -0.10000000000E+04  0.10000000000E+04  0.00000000000E+00 0.  1.
    9000005    2    1    2  501    0  0.35020135875E+02 -0.12779495020E+02 -0.51763841004E+03  0.51899023670E+03  0.34083465329E+01 0.  0.
         13    1    3    3    0    0  0.15240184498E+02 -0.54201807721E+01 -0.20153057602E+03  0.20217867013E+03  0.00000000000E+00 0.  1.
          1    1    3    3  501    0  0.19779951377E+02 -0.73593142478E+01 -0.31610783403E+03  0.31681156657E+03  0.00000000000E+00 0.  1.
         -1    1    1    2    0  502 -0.35020135875E+02  0.12779495020E+02 -0.48096439433E+03  0.48240695893E+03  0.00000000000E+00 0. -1.
<mgrwt>
<rscale>  1 0.30000000E+03</rscale>
<asrwt>0</asrwt>
<pdfrwt beam="1">  1       21 0.50807221E-02 0.30000000E+03</pdfrwt>
<pdfrwt beam="2">0</pdfrwt>
<totfact> 0.28028560E+04</totfact>
</mgrwt>
</event>
<event>
 6    1  0.6513574E-002  0.3000000E+03  0.7818608E-02  0.1093470E+00
         21   -1    0    0  501  502  0.00000000000E+00  0.00000000000E+00  0.14839855280E+01  0.14839855280E+01  0.00000000000E+00 0. -1.
         13   -1    0    0    0    0 -0.00000000000E+00 -0.00000000000E+00 -0.10000000000E+04  0.10000000000E+04  0.00000000000E+00 0.  1.
    9000005    2    1    2  501    0  0.33648471674E+02  0.46165981562E+01 -0.73426454141E+03  0.73505881096E+03  0.36750759543E+01 0.  0.
         13    1    3    3    0    0  0.13803727982E+02  0.37050688792E+01 -0.31276533491E+03  0.31309172005E+03  0.00000000000E+00 0.  1.
          3    1    3    3  501    0  0.19844743692E+02  0.91152927694E+00 -0.42149920649E+03  0.42196709091E+03  0.00000000000E+00 0.  1.
         -3    1    1    2    0  502 -0.33648471674E+02 -0.46165981562E+01 -0.26425147307E+03  0.26642517456E+03  0.00000000000E+00 0. -1.
<mgrwt>
<rscale>  1 0.30000000E+03</rscale>
<asrwt>0</asrwt>
<pdfrwt beam="1">  1       21 0.53963224E-02 0.30000000E+03</pdfrwt>
<pdfrwt beam="2">0</pdfrwt>
<totfact> 0.25285372E+04</totfact>
</mgrwt>
</event>
<event>
 6    1  0.6513574E-002  0.3000000E+03  0.7818608E-02  0.1093470E+00
         21   -1    0    0  501  502  0.00000000000E+00  0.00000000000E+00  0.15179317149E+01  0.15179317149E+01  0.00000000000E+00 0. -1.
         13   -1    0    0    0    0 -0.00000000000E+00 -0.00000000000E+00 -0.10000000000E+04  0.10000000000E+04  0.00000000000E+00 0.  1.
    9000005    2    1    2  501    0  0.37146800767E+02  0.86070615810E+01 -0.58952049698E+03  0.59078257517E+03  0.59723062584E+01 0.  0.
         13    1    3    3    0    0  0.33092340198E+02  0.56370130321E+01 -0.51142016273E+03  0.51252069396E+03  0.00000000000E+00 0.  1.
          1    1    3    3  501    0  0.40544605693E+01  0.29700485489E+01 -0.78100334255E+02  0.78261881205E+02  0.00000000000E+00 0.  1.
         -3    1    1    2    0  502 -0.37146800767E+02 -0.86070615810E+01 -0.40896157130E+03  0.41073535655E+03  0.00000000000E+00 0. -1.
<mgrwt>
<rscale>  1 0.30000000E+03</rscale>
<asrwt>0</asrwt>
<pdfrwt beam="1">  1       21 0.55197633E-02 0.30000000E+03</pdfrwt>
<pdfrwt beam="2">0</pdfrwt>
<totfact> 0.24324067E+04</totfact>
</mgrwt>
</event>
<event>
 6    1  0.6513574E-002  0.3000000E+03  0.7818608E-02  0.1093470E+00
         21   -1    0    0  501  502  0.00000000000E+00  0.00000000000E+00  0.15495617354E+01  0.15495617354E+01  0.00000000000E+00 0. -1.
         13   -1    0    0    0    0 -0.00000000000E+00 -0.00000000000E+00 -0.10000000000E+04  0.10000000000E+04  0.00000000000E+00 0.  1.
    9000005    2    1    2  501    0 -0.33089212112E+02 -0.21040650370E+02 -0.53100906898E+03  0.53246637227E+03  0.34930397528E+01 0.  0.
         13    1    3    3    0    0 -0.21241316080E+02 -0.14059768565E+02 -0.36591856170E+03  0.36680412266E+03  0.00000000000E+00 0.  1.
          1    1    3    3  501    0 -0.11847896032E+02 -0.69808818053E+01 -0.16509050728E+03  0.16566224961E+03  0.00000000000E+00 0.  1.
         -3    1    1    2    0  502  0.33089212112E+02  0.21040650370E+02 -0.46744136928E+03  0.46908318947E+03  0.00000000000E+00 0. -1.
<mgrwt>
<rscale>  1 0.30000000E+03</rscale>
<asrwt>0</asrwt>
<pdfrwt beam="1">  1       21 0.56347818E-02 0.30000000E+03</pdfrwt>
<pdfrwt beam="2">0</pdfrwt>
<totfact> 0.23478057E+04</totfact>
</mgrwt>
</event>
<event>
 6    1  0.6513574E-002  0.3000000E+03  0.7818608E-02  0.1093470E+00
         21   -1    0    0  501  502  0.00000000000E+00  0.00000000000E+00  0.16335936926E+01  0.16335936926E+01  0.00000000000E+00 0. -1.
         13   -1    0    0    0    0 -0.00000000000E+00 -0.00000000000E+00 -0.10000000000E+04  0.10000000000E+04  0.00000000000E+00 0.  1.
    9000005    2    1    2  501    0  0.36037619448E+02  0.17875516387E+02 -0.54243718386E+03  0.54393314582E+03  0.26314607564E+01 0.  0.
         13    1    3    3    0    0  0.33752276307E+01  0.23836742815E+01 -0.62477664265E+02  0.62614156520E+02  0.00000000000E+00 0.  1.
          1    1    3    3  501    0  0.32662391817E+02  0.15491842106E+02 -0.47995951960E+03  0.48131898930E+03  0.00000000000E+00 0.  1.
         -3    1    1    2    0  502 -0.36037619448E+02 -0.17875516387E+02 -0.45592922244E+03  0.45770044787E+03  0.00000000000E+00 0. -1.
<mgrwt>
<rscale>  1 0.30000000E+03</rscale>
<asrwt>0</asrwt>
<pdfrwt beam="1">  1       21 0.59403532E-02 0.30000000E+03</pdfrwt>
<pdfrwt beam="2">0</pdfrwt>
<totfact> 0.21437819E+04</totfact>
</mgrwt>
</event>
<event>
 6    1  0.6513574E-002  0.3000000E+03  0.7818608E-02  0.1093470E+00
         21   -1    0    0  501  502  0.00000000000E+00  0.00000000000E+00  0.93211436772E+00  0.93211436772E+00  0.00000000000E+00 0. -1.
         13   -1    0    0    0    0 -0.00000000000E+00 -0.00000000000E+00 -0.10000000000E+04  0.10000000000E+04  0.00000000000E+00 0.  1.
    9000005    2    1    2  501    0  0.24380331878E+02  0.17584524044E+02 -0.58075563932E+03  0.58154118518E+03  0.30694287256E+01 0.  0.
         13    1    3    3    0    0  0.21012757987E+02  0.16260218338E+02 -0.51894283326E+03  0.51962255041E+03  0.00000000000E+00 0.  1.
          1    1    3    3  501    0  0.33675738913E+01  0.13243057061E+01 -0.61812806057E+02  0.61918634773E+02  0.00000000000E+00 0.  1.
         -1    1    1    2    0  502 -0.24380331878E+02 -0.17584524044E+02 -0.41831224631E+03  0.41939092919E+03  0.00000000000E+00 0. -1.
<mgrwt>
<rscale>  1 0.30000000E+03</rscale>
<asrwt>0</asrwt>
<pdfrwt beam="1">  1       21 0.33895139E-02 0.30000000E+03</pdfrwt>
<pdfrwt beam="2">0</pdfrwt>
<totfact> 0.55516825E+04</totfact>
</mgrwt>
</event>
<event>
 6    1  0.6513574E-002  0.3000000E+03  0.7818608E-02  0.1093470E+00
         21   -1    0    0  501  502  0.00000000000E+00  0.00000000000E+00  0.10965229348E+01  0.10965229348E+01  0.00000000000E+00 0. -1.
         13   -1    0    0    0    0 -0.00000000000E+00 -0.00000000000E+00 -0.10000000000E+04  0.10000000000E+04  0.00000000000E+00 0.  1.
    9000005    2    1    2  501    0 -0.63891391869E+01  0.32341408298E+02 -0.51595309254E+03  0.51702229133E+03  0.42033606644E+01 0.  0.
         13    1    3    3    0    0 -0.21719030108E+01  0.16794027981E+02 -0.23672675148E+03  0.23733164855E+03  0.00000000000E+00 0.  1.
          1    1    3    3  501    0 -0.42172361760E+01  0.15547380317E+02 -0.27922634107E+03  0.27969064278E+03  0.00000000000E+00 0.  1.
         -3    1    1    2    0  502  0.63891391869E+01 -0.32341408298E+02 -0.48295038452E+03  0.48407423160E+03  0.00000000000E+00 0. -1.
<mgrwt>
<rscale>  1 0.30000000E+03</rscale>
<asrwt>0</asrwt>
<pdfrwt beam="1">  1       21 0.39873645E-02 0.30000000E+03</pdfrwt>
<pdfrwt beam="2">0</pdfrwt>
<totfact> 0.42271934E+04</totfact>
</mgrwt>
</event>
<event>
 6    1  0.6513574E-002  0.3000000E+03  0.7818608E-02  0.1093470E+00
         21   -1    0    0  501  502  0.00000000000E+00  0.00000000000E+00  0.12542707112E+01  0.12542707112E+01  0.00000000000E+00 0. -1.
         13   -1    0    0    0    0 -0.00000000000E+00 -0.00000000000E+00 -0.10000000000E+04  0.10000000000E+04  0.00000000000E+00 0.  1.
    9000005    2    1    2  501    0  0.24283613407E+02  0.19022114626E+02 -0.74410034988E+03  0.74474734297E+03  0.34262872699E+01 0.  0.
         13    1    3    3    0    0  0.16911353302E+02  0.11186797064E+02 -0.48238100192E+03  0.48280696900E+03  0.00000000000E+00 0.  1.
          3    1    3    3  501    0  0.73722601054E+01  0.78353175617E+01 -0.26171934797E+03  0.26194037398E+03  0.00000000000E+00 0.  1.
         -1    1    1    2    0  502 -0.24283613407E+02 -0.19022114626E+02 -0.25464537941E+03  0.25650692774E+03  0.00000000000E+00 0. -1.
<mgrwt>
<rscale>  1 0.30000000E+03</rscale>
<asrwt>0</asrwt>
<pdfrwt beam="1">  1       21 0.45609940E-02 0.30000000E+03</pdfrwt>
<pdfrwt beam="2">0</pdfrwt>
<totfact> 0.33679482E+04</totfact>
</mgrwt>
</event>
<event>
 6    1  0.6513574E-002  0.3000000E+03  0.7818608E-02  0.1093470E+00
         21   -1    0    0  501  502  0.00000000000E+00  0.00000000000E+00  0.12968410592E+01  0.12968410592E+01  0.00000000000E+00 0. -1.
         13   -1    0    0    0    0 -0.00000000000E+00 -0.00000000000E+00 -0.10000000000E+04  0.10000000000E+04  0.00000000000E+00 0.  1.
    9000005    2    1    2  501    0  0.15526668484E+02  0.26392479536E+02 -0.23889766642E+03  0.24087457226E+03  0.32900051132E+01 0.  0.
         13    1    3    3    0    0  0.89320290452E+00  0.17520173519E+01 -0.22851688257E+02  0.22936151212E+02  0.00000000000E+00 0.  1.
          3    1    3    3  501    0  0.14633465579E+02  0.24640462184E+02 -0.21604597816E+03  0.21793842105E+03  0.00000000000E+00 0.  1.
         -1    1    1    2    0  502 -0.15526668484E+02 -0.26392479536E+02 -0.75980549252E+03  0.76042226880E+03  0.00000000000E+00 0. -1.
<mgrwt>
<rscale>  1 0.30000000E+03</rscale>
<asrwt>0</asrwt>
<pdfrwt beam="1">  1       21 0.47157956E-02 0.30000000E+03</pdfrwt>
<pdfrwt beam="2">0</pdfrwt>
<totfact> 0.31822273E+04</totfact>
</mgrwt>
</event>
<event>
 6    1  0.6513574E-002  0.3000000E+03  0.7818608E-02  0.1093470E+00
         21   -1    0    0  501  502  0.00000000000E+00  0.00000000000E+00  0.13298763856E+01  0.13298763856E+01  0.00000000000E+00 0. -1.
         13   -1    0    0    0    0 -0.00000000000E+00 -0.00000000000E+00 -0.10000000000E+04  0.10000000000E+04  0.00000000000E+00 0.  1.
    9000005    2    1    2  501    0 -0.68588835514E+01 -0.34600388134E+02 -0.38980645744E+03  0.39144530113E+03  0.60098565100E+01 0.  0.
         13    1    3    3    0    0 -0.71372428292E+01 -0.22004846349E+02 -0.26208745819E+03  0.26310642189E+03  0.00000000000E+00 0.  1.
          1    1    3    3  501    0  0.27835927772E+00 -0.12595541785E+02 -0.12771899925E+03  0.12833887924E+03  0.00000000000E+00 0.  1.
         -1    1    1    2    0  502  0.68588835514E+01  0.34600388134E+02 -0.60886366617E+03  0.60988457525E+03  0.00000000000E+00 0. -1.
<mgrwt>
<rscale>  1 0.30000000E+03</rscale>
<asrwt>0</asrwt>
<pdfrwt beam="1">  1       21 0.48359243E-02 0.30000000E+03</pdfrwt>
<pdfrwt beam="2">0</pdfrwt>
<totfact> 0.30489177E+04</totfact>
</mgrwt>
</event>
<event>
 6    1  0.6513574E-002  0.3000000E+03  0.7818608E-02  0.1093470E+00
         21   -1    0    0  501  502  0.00000000000E+00  0.00000000000E+00  0.92391704994E+00  0.92391704994E+00  0.00000000000E+00 0. -1.
         13   -1    0    0    0    0 -0.00000000000E+00 -0.00000000000E+00 -0.10000000000E+04  0.10000000000E+04  0.00000000000E+00 0.  1.
    9000005    2    1    2  501    0 -0.11120861880E+02  0.28171768321E+02 -0.49803142574E+03  0.49896468502E+03  0.36240550802E+01 0.  0.
         13    1    3    3    0    0 -0.80607006843E+01  0.23673045154E+02 -0.39700288047E+03  0.39778973726E+03  0.00000000000E+00 0.  1.
          3    1    3    3  501    0 -0.30601611961E+01  0.44987231665E+01 -0.10102854527E+03  0.10117494777E+03  0.00000000000E+00 0.  1.
         -3    1    1    2    0  502  0.11120861880E+02 -0.28171768321E+02 -0.50104465721E+03  0.50195923203E+03  0.00000000000E+00 0. -1.
<mgrwt>
<rscale>  1 0.30000000E+03</rscale>
<asrwt>0</asrwt>
<pdfrwt beam="1">  1       21 0.33597054E-02 0.30000000E+03</pdfrwt>
<pdfrwt beam="2">0</pdfrwt>
<totfact> 0.56342001E+04</totfact>
</mgrwt>
</event>
<event>
 6    1  0.6513574E-002  0.3000000E+03  0.7818608E-02  0.1093470E+00
         21   -1    0    0  501  502  0.00000000000E+00  0.00000000000E+00  0.22849122302E+01  0.22849122302E+01  0.00000000000E+00 0. -1.
         13   -1    0    0    0    0 -0.00000000000E+00 -0.00000000000E+00 -0.10000000000E+04  0.10000000000E+04  0.00000000000E+00 0.  1.
    9000005    2    1    2  501    0 -0.82856311478E+01  0.37553973375E+02 -0.20292859426E+03  0.20656855393E+03  0.34059513944E+01 0.  0.
         13    1    3    3    0    0 -0.69292631213E+01  0.35029359685E+02 -0.18543494849E+03  0.18884170844E+03  0.00000000000E+00 0.  1.
          1    1    3    3  501    0 -0.13563680265E+01  0.25246136898E+01 -0.17493645775E+02  0.17726845490E+02  0.00000000000E+00 0.  1.
         -1    1    1    2    0  502  0.82856311478E+01 -0.37553973375E+02 -0.79478649351E+03  0.79571635830E+03  0.00000000000E+00 0. -1.
<mgrwt>
<rscale>  1 0.30000000E+03</rscale>
<asrwt>0</asrwt>
<pdfrwt beam="1">  1       21 0.83087893E-02 0.30000000E+03</pdfrwt>
<pdfrwt beam="2">0</pdfrwt>
<totfact> 0.11950876E+04</totfact>
</mgrwt>
</event>
<event>
 6    1  0.6513574E-002  0.3000000E+03  0.7818608E-02  0.1093470E+00
         21   -1    0    0  501  502  0.00000000000E+00  0.00000000000E+00  0.22558635945E+01  0.22558635945E+01  0.00000000000E+00 0. -1.
         13   -1    0    0    0    0 -0.00000000000E+00 -0.00000000000E+00 -0.10000000000E+04  0.10000000000E+04  0.00000000000E+00 0.  1.
    9000005    2    1    2  501    0  0.31755186037E+01 -0.47345465681E+02 -0.49857612946E+03  0.50083749915E+03  0.28925168647E+01 0.  0.
         13    1    3    3    0    0  0.22206064805E+01 -0.27061137266E+02 -0.27065966614E+03  0.27201818160E+03  0.00000000000E+00 0.  1.
          3    1    3    3  501    0  0.95491212326E+00 -0.20284328415E+02 -0.22791646332E+03  0.22881931756E+03  0.00000000000E+00 0.  1.
         -3    1    1    2    0  502 -0.31755186037E+01  0.47345465681E+02 -0.49916800695E+03  0.50141836444E+03  0.00000000000E+00 0. -1.
<mgrwt>
<rscale>  1 0.30000000E+03</rscale>
<asrwt>0</asrwt>
<pdfrwt beam="1">  1       21 0.82031576E-02 0.30000000E+03</pdfrwt>
<pdfrwt beam="2">0</pdfrwt>
<totfact> 0.12223022E+04</totfact>
</mgrwt>
</event>
<event>
 6    1  0.6513574E-002  0.3000000E+03  0.7818608E-02  0.1093470E+00
         21   -1    0    0  501  502  0.00000000000E+00  0.00000000000E+00  0.10938527270E+01  0.10938527270E+01  0.00000000000E+00 0. -1.
         13   -1    0    0    0    0 -0.00000000000E+00 -0.00000000000E+00 -0.10000000000E+04  0.10000000000E+04  0.00000000000E+00 0.  1.
    9000005    2    1    2  501    0 -0.30032130203E+02 -0.13479615675E+02 -0.46986052805E+03  0.47102508728E+03  0.34768008996E+01 0.  0.
         13    1    3    3    0    0 -0.15789869934E+02 -0.89555486754E+01 -0.26191638916E+03  0.26254469478E+03  0.00000000000E+00 0.  1.
          1    1    3    3  501    0 -0.14242260269E+02 -0.45240669993E+01 -0.20794413888E+03  0.20848039250E+03  0.00000000000E+00 0.  1.
         -1    1    1    2    0  502  0.30032130203E+02  0.13479615675E+02 -0.52904561923E+03  0.53006876545E+03  0.00000000000E+00 0. -1.
<mgrwt>
<rscale>  1 0.30000000E+03</rscale>
<asrwt>0</asrwt>
<pdfrwt beam="1">  1       21 0.39776547E-02 0.30000000E+03</pdfrwt>
<pdfrwt beam="2">0</pdfrwt>
<totfact> 0.42445816E+04</totfact>
</mgrwt>
</event>
<event>
 6    1  0.6513574E-002  0.3000000E+03  0.7818608E-02  0.1093470E+00
         21   -1    0    0  501  502  0.00000000000E+00  0.00000000000E+00  0.19704823953E+01  0.19704823953E+01  0.00000000000E+00 0. -1.
         13   -1    0    0    0    0 -0.00000000000E+00 -0.00000000000E+00 -0.10000000000E+04  0.10000000000E+04  0.00000000000E+00 0.  1.
    9000005    2    1    2  501    0 -0.11711788654E+02 -0.33403020782E+02 -0.80086494183E+03  0.80165373888E+03  0.33367982443E+01 0.  0.
         13    1    3    3    0    0 -0.96320017430E+01 -0.23207885673E+02 -0.55353760166E+03  0.55410762300E+03  0.00000000000E+00 0.  1.
          1    1    3    3  501    0 -0.20797869106E+01 -0.10195135108E+02 -0.24732734016E+03  0.24754611588E+03  0.00000000000E+00 0.  1.
         -1    1    1    2    0  502  0.11711788654E+02  0.33403020782E+02 -0.19716457578E+03  0.20031674351E+03  0.00000000000E+00 0. -1.
<mgrwt>
<rscale>  1 0.30000000E+03</rscale>
<asrwt>0</asrwt>
<pdfrwt beam="1">  1       21 0.71654056E-02 0.30000000E+03</pdfrwt>
<pdfrwt beam="2">0</pdfrwt>
<totfact> 0.15492009E+04</totfact>
</mgrwt>
</event>
<event>
 6    1  0.6513574E-002  0.3000000E+03  0.7818608E-02  0.1093470E+00
         21   -1    0    0  501  502  0.00000000000E+00  0.00000000000E+00  0.36210600565E+01  0.36210600565E+01  0.00000000000E+00 0. -1.
         13   -1    0    0    0    0 -0.00000000000E+00 -0.00000000000E+00 -0.10000000000E+04  0.10000000000E+04  0.00000000000E+00 0.  1.
    9000005    2    1    2  501    0 -0.49234061026E+02 -0.31918439760E+02 -0.60549193288E+03  0.60835478037E+03  0.56814136753E+01 0.  0.
         13    1    3    3    0    0 -0.69128858608E-01  0.33441586461E-01 -0.83372634676E-01  0.11334961407E+00  0.00000000000E+00 0.  1.
          1    1    3    3  501    0 -0.49164932167E+02 -0.31951881346E+02 -0.60540856024E+03  0.60824143076E+03  0.00000000000E+00 0.  1.
         -3    1    1    2    0  502  0.49234061026E+02  0.31918439760E+02 -0.39088700707E+03  0.39526627969E+03  0.00000000000E+00 0. -1.
<mgrwt>
<rscale>  1 0.30000000E+03</rscale>
<asrwt>0</asrwt>
<pdfrwt beam="1">  1       21 0.13167519E-01 0.30000000E+03</pdfrwt>
<pdfrwt beam="2">0</pdfrwt>
<totfact> 0.52326766E+03</totfact>
</mgrwt>
</event>
<event>
 6    1  0.6513574E-002  0.3000000E+03  0.7818608E-02  0.1093470E+00
         21   -1    0    0  501  502  0.00000000000E+00  0.00000000000E+00  0.15106517436E+01  0.15106517436E+01  0.00000000000E+00 0. -1.
         13   -1    0    0    0    0 -0.00000000000E+00 -0.00000000000E+00 -0.10000000000E+04  0.10000000000E+04  0.00000000000E+00 0.  1.
    9000005    2    1    2  501    0  0.35200138386E+02  0.15229710063E+02 -0.41832971995E+03  0.42008465634E+03  0.60835051393E+00 0.  0.
         13    1    3    3    0    0  0.15137820648E+02  0.68089658569E+01 -0.18305744913E+03  0.18380844733E+03  0.00000000000E+00 0.  1.
          3    1    3    3  501    0  0.20062317738E+02  0.84207442060E+01 -0.23527227082E+03  0.23627620901E+03  0.00000000000E+00 0.  1.
         -3    1    1    2    0  502 -0.35200138386E+02 -0.15229710063E+02 -0.58015962830E+03  0.58142599540E+03  0.00000000000E+00 0. -1.
<mgrwt>
<rscale>  1 0.30000000E+03</rscale>
<asrwt>0</asrwt>
<pdfrwt beam="1">  1       21 0.54932907E-02 0.30000000E+03</pdfrwt>
<pdfrwt beam="2">0</pdfrwt>
<totfact> 0.24525424E+04</totfact>
</mgrwt>
</event>
<event>
 6    1  0.6513574E-002  0.3000000E+03  0.7818608E-02  0.1093470E+00
         21   -1    0    0  501  502  0.00000000000E+00  0.00000000000E+00  0.12644381631E+01  0.12644381631E+01  0.00000000000E+00 0. -1.
         13   -1    0    0    0    0 -0.00000000000E+00 -0.00000000000E+00 -0.10000000000E+04  0.10000000000E+04  0.00000000000E+00 0.  1.
    9000005    2    1    2  501    0 -0.10571756800E+02  0.33338311390E+02 -0.58503271207E+03  0.58608585857E+03  0.31865929736E+01 0.  0.
         13    1    3    3    0    0 -0.57842506150E+00  0.85623326476E+00 -0.11154501713E+02  0.11202259568E+02  0.00000000000E+00 0.  1.
          1    1    3    3  501    0 -0.99933317388E+01  0.32482078125E+02 -0.57387821036E+03  0.57488359900E+03  0.00000000000E+00 0.  1.
         -3    1    1    2    0  502  0.10571756800E+02 -0.33338311390E+02 -0.41370284976E+03  0.41517857959E+03  0.00000000000E+00 0. -1.
<mgrwt>
<rscale>  1 0.30000000E+03</rscale>
<asrwt>0</asrwt>
<pdfrwt beam="1">  1       21 0.45979667E-02 0.30000000E+03</pdfrwt>
<pdfrwt beam="2">0</pdfrwt>
<totfact> 0.33220729E+04</totfact>
</mgrwt>
</event>
<event>
 6    1  0.6513574E-002  0.3000000E+03  0.7818608E-02  0.1093470E+00
         21   -1    0    0  501  502  0.00000000000E+00  0.00000000000E+00  0.21788121850E+01  0.21788121850E+01  0.00000000000E+00 0. -1.
         13   -1    0    0    0    0 -0.00000000000E+00 -0.00000000000E+00 -0.10000000000E+04  0.10000000000E+04  0.00000000000E+00 0.  1.
    9000005    2    1    2  501    0  0.18911795664E+02 -0.40814332609E+02 -0.36750360057E+03  0.37025814743E+03  0.29552563995E+01 0.  0.
         13    1    3    3    0    0  0.32871782977E+01 -0.10050580640E+02 -0.87394720249E+02  0.88032135267E+02  0.00000000000E+00 0.  1.
          1    1    3    3  501    0  0.15624617366E+02 -0.30763751969E+02 -0.28010888032E+03  0.28222601216E+03  0.00000000000E+00 0.  1.
         -1    1    1    2    0  502 -0.18911795664E+02  0.40814332609E+02 -0.63031758724E+03  0.63192066476E+03  0.00000000000E+00 0. -1.
<mgrwt>
<rscale>  1 0.30000000E+03</rscale>
<asrwt>0</asrwt>
<pdfrwt beam="1">  1       21 0.79229701E-02 0.30000000E+03</pdfrwt>
<pdfrwt beam="2">0</pdfrwt>
<totfact> 0.12992749E+04</totfact>
</mgrwt>
</event>
<event>
 6    1  0.6513574E-002  0.3000000E+03  0.7818608E-02  0.1093470E+00
         21   -1    0    0  501  502  0.00000000000E+00  0.00000000000E+00  0.62363564506E+01  0.62363564506E+01  0.00000000000E+00 0. -1.
         13   -1    0    0    0    0 -0.00000000000E+00 -0.00000000000E+00 -0.10000000000E+04  0.10000000000E+04  0.00000000000E+00 0.  1.
    9000005    2    1    2  501    0 -0.51620432550E+02 -0.58524043826E+02 -0.42179699835E+03  0.42897075381E+03  0.36697481479E+01 0.  0.
         13    1    3    3    0    0 -0.21604651005E+02 -0.24162218873E+02 -0.16541145575E+03  0.16855718157E+03  0.00000000000E+00 0.  1.
          1    1    3    3  501    0 -0.30015781545E+02 -0.34361824953E+02 -0.25638554260E+03  0.26041357225E+03  0.00000000000E+00 0.  1.
         -1    1    1    2    0  502  0.51620432550E+02  0.58524043826E+02 -0.57196664520E+03  0.57726560264E+03  0.00000000000E+00 0. -1.
<mgrwt>
<rscale>  1 0.30000000E+03</rscale>
<asrwt>0</asrwt>
<pdfrwt beam="1">  1       21 0.22677708E-01 0.30000000E+03</pdfrwt>
<pdfrwt beam="2">0</pdfrwt>
<totfact> 0.18850100E+03</totfact>
</mgrwt>
</event>
<event>
 6    1  0.6513574E-002  0.3000000E+03  0.7818608E-02  0.1093470E+00
         21   -1    0    0  501  502  0.00000000000E+00  0.00000000000E+00  0.12455891666E+01  0.12455891666E+01  0.00000000000E+00 0. -1.
         13   -1    0    0    0    0 -0.00000000000E+00 -0.00000000000E+00 -0.10000000000E+04  0.10000000000E+04  0.00000000000E+00 0.  1.
    9000005    2    1    2  501    0 -0.28405671006E+02  0.15162424513E+02 -0.69779176182E+03  0.69856539925E+03  0.65949156975E+01 0.  0.
         13    1    3    3    0    0 -0.14899179992E+02  0.59050304487E+01 -0.28663159021E+03  0.28707929820E+03  0.00000000000E+00 0.  1.
          3    1    3    3  501    0 -0.13506491014E+02  0.92573940645E+01 -0.41116017161E+03  0.41148610105E+03  0.00000000000E+00 0.  1.
         -1    1    1    2    0  502  0.28405671006E+02 -0.15162424513E+02 -0.30096264902E+03  0.30268018991E+03  0.00000000000E+00 0. -1.
<mgrwt>
<rscale>  1 0.30000000E+03</rscale>
<asrwt>0</asrwt>
<pdfrwt beam="1">  1       21 0.45294247E-02 0.30000000E+03</pdfrwt>
<pdfrwt beam="2">0</pdfrwt>
<totfact> 0.34079094E+04</totfact>
</mgrwt>
</event>
<event>
 6    1  0.6513574E-002  0.3000000E+03  0.7818608E-02  0.1093470E+00
         21   -1    0    0  501  502  0.00000000000E+00  0.00000000000E+00  0.14937133473E+01  0.14937133473E+01  0.00000000000E+00 0. -1.
         13   -1    0    0    0    0 -0.00000000000E+00 -0.00000000000E+00 -0.10000000000E+04  0.10000000000E+04  0.00000000000E+00 0.  1.
    9000005    2    1    2  501    0 -0.27357685627E+02 -0.13436703474E+02 -0.19362017281E+03  0.19603071344E+03  0.32064512580E+01 0.  0.
         13    1    3    3    0    0 -0.27272630204E+02 -0.13402460325E+02 -0.19043883789E+03  0.19284805750E+03  0.00000000000E+00 0.  1.
          3    1    3    3  501    0 -0.85055422689E-01 -0.34243149064E-01 -0.31813349193E+01  0.31826559486E+01  0.00000000000E+00 0.  1.
         -1    1    1    2    0  502  0.27357685627E+02  0.13436703474E+02 -0.80488611384E+03  0.80546299990E+03  0.00000000000E+00 0. -1.
<mgrwt>
<rscale>  1 0.30000000E+03</rscale>
<asrwt>0</asrwt>
<pdfrwt beam="1">  1       21 0.54316964E-02 0.30000000E+03</pdfrwt>
<pdfrwt beam="2">0</pdfrwt>
<totfact> 0.25003988E+04</totfact>
</mgrwt>
</event>
<event>
 6    1  0.6513574E-002  0.3000000E+03  0.7818608E-02  0.1093470E+00
         21   -1    0    0  501  502  0.00000000000E+00  0.00000000000E+00  0.13004307966E+01  0.13004307966E+01  0.00000000000E+00 0. -1.
         13   -1    0    0    0    0 -0.00000000000E+00 -0.00000000000E+00 -0.10000000000E+04  0.10000000000E+04  0.00000000000E+00 0.  1.
    9000005    2    1    2  501    0 -0.47773058156E+01  0.34494799311E+02 -0.37966328370E+03  0.38128540146E+03  0.46512953121E+01 0.  0.
         13    1    3    3    0    0 -0.36091039340E+01  0.25122651916E+02 -0.25273124835E+03  0.25400247472E+03  0.00000000000E+00 0.  1.
          1    1    3    3  501    0 -0.11682018816E+01  0.93721473953E+01 -0.12693203534E+03  0.12728292674E+03  0.00000000000E+00 0.  1.
         -1    1    1    2    0  502  0.47773058156E+01 -0.34494799311E+02 -0.61903628551E+03  0.62001502934E+03  0.00000000000E+00 0. -1.
<mgrwt>
<rscale>  1 0.30000000E+03</rscale>
<asrwt>0</asrwt>
<pdfrwt beam="1">  1       21 0.47288492E-02 0.30000000E+03</pdfrwt>
<pdfrwt beam="2">0</pdfrwt>
<totfact> 0.31673039E+04</totfact>
</mgrwt>
</event>
<event>
 6    1  0.6513574E-002  0.3000000E+03  0.7818608E-02  0.1093470E+00
         21   -1    0    0  501  502  0.00000000000E+00  0.00000000000E+00  0.51913484904E+01  0.51913484904E+01  0.00000000000E+00 0. -1.
         13   -1    0    0    0    0 -0.00000000000E+00 -0.00000000000E+00 -0.10000000000E+04  0.10000000000E+04  0.00000000000E+00 0.  1.
    9000005    2    1    2  501    0  0.18826718130E+01 -0.57976355868E+02 -0.20015588766E+03  0.20842424488E+03  0.36720836502E+01 0.  0.
         13    1    3    3    0    0  0.20215943259E+01 -0.48957529093E+02 -0.17331307564E+03  0.18010649262E+03  0.00000000000E+00 0.  1.
          1    1    3    3  501    0 -0.13892251294E+00 -0.90188267743E+01 -0.26842812020E+02  0.28317752259E+02  0.00000000000E+00 0.  1.
         -3    1    1    2    0  502 -0.18826718130E+01  0.57976355868E+02 -0.79465276385E+03  0.79676710361E+03  0.00000000000E+00 0. -1.
<mgrwt>
<rscale>  1 0.30000000E+03</rscale>
<asrwt>0</asrwt>
<pdfrwt beam="1">  1       21 0.18877671E-01 0.30000000E+03</pdfrwt>
<pdfrwt beam="2">0</pdfrwt>
<totfact> 0.26776576E+03</totfact>
</mgrwt>
</event>
<event>
 6    1  0.6513574E-002  0.3000000E+03  0.7818608E-02  0.1093470E+00
         21   -1    0    0  501  502  0.00000000000E+00  0.00000000000E+00  0.12443187847E+01  0.12443187847E+01  0.00000000000E+00 0. -1.
         13   -1    0    0    0    0 -0.00000000000E+00 -0.00000000000E+00 -0.10000000000E+04  0.10000000000E+04  0.00000000000E+00 0.  1.
    9000005    2    1    2  501    0 -0.35157558737E+02  0.80526559799E+00 -0.47684863599E+03  0.47815382351E+03  0.31232842152E+01 0.  0.
         13    1    3    3    0    0 -0.34160453934E+02  0.65265401235E+00 -0.46855855012E+03  0.46980259414E+03  0.00000000000E+00 0.  1.
          3    1    3    3  501    0 -0.99710480294E+00  0.15261158564E+00 -0.82900858680E+01  0.83512293695E+01  0.00000000000E+00 0.  1.
         -1    1    1    2    0  502  0.35157558737E+02 -0.80526559799E+00 -0.52190704523E+03  0.52309049527E+03  0.00000000000E+00 0. -1.
<mgrwt>
<rscale>  1 0.30000000E+03</rscale>
<asrwt>0</asrwt>
<pdfrwt beam="1">  1       21 0.45248051E-02 0.30000000E+03</pdfrwt>
<pdfrwt beam="2">0</pdfrwt>
<totfact> 0.34138184E+04</totfact>
</mgrwt>
</event>
<event>
 6    1  0.6513574E-002  0.3000000E+03  0.7818608E-02  0.1093470E+00
         21   -1    0    0  501  502  0.00000000000E+00  0.00000000000E+00  0.21784954213E+01  0.21784954213E+01  0.00000000000E+00 0. -1.
         13   -1    0    0    0    0 -0.00000000000E+00 -0.00000000000E+00 -0.10000000000E+04  0.10000000000E+04  0.00000000000E+00 0.  1.
    9000005    2    1    2  501    0 -0.45732341204E+02 -0.91477033532E+00 -0.41684610961E+03  0.41940521755E+03  0.69118433156E+01 0.  0.
         13    1    3    3    0    0 -0.44338123200E+02  0.39430477607E+00 -0.40113460646E+03  0.40357774609E+03  0.00000000000E+00 0.  1.
          3    1    3    3  501    0 -0.13942180035E+01 -0.13090751114E+01 -0.15711503155E+02  0.15827471462E+02  0.00000000000E+00 0.  1.
         -1    1    1    2    0  502  0.45732341204E+02  0.91477033532E+00 -0.58097539497E+03  0.58277327787E+03  0.00000000000E+00 0. -1.
<mgrwt>
<rscale>  1 0.30000000E+03</rscale>
<asrwt>0</asrwt>
<pdfrwt beam="1">  1       21 0.79218182E-02 0.30000000E+03</pdfrwt>
<pdfrwt beam="2">0</pdfrwt>
<totfact> 0.12996065E+04</totfact>
</mgrwt>
</event>
<event>
 6    1  0.6513574E-002  0.3000000E+03  0.7818608E-02  0.1093470E+00
         21   -1    0    0  501  502  0.00000000000E+00  0.00000000000E+00  0.42715476638E+01  0.42715476638E+01  0.00000000000E+00 0. -1.
         13   -1    0    0    0    0 -0.00000000000E+00 -0.00000000000E+00 -0.10000000000E+04  0.10000000000E+04  0.00000000000E+00 0.  1.
    9000005    2    1    2  501    0 -0.58616669504E+02  0.63175753253E+01 -0.28222521276E+03  0.28833670524E+03  0.33405348409E+01 0.  0.
         13    1    3    3    0    0 -0.93050539106E+00  0.50457510682E+00 -0.42920393568E+01  0.44206377550E+01  0.00000000000E+00 0.  1.
          3    1    3    3  501    0 -0.57686164113E+02  0.58130002185E+01 -0.27793317340E+03  0.28391606749E+03  0.00000000000E+00 0.  1.
         -3    1    1    2    0  502  0.58616669504E+02 -0.63175753253E+01 -0.71350323958E+03  0.71593484242E+03  0.00000000000E+00 0. -1.
<mgrwt>
<rscale>  1 0.30000000E+03</rscale>
<asrwt>0</asrwt>
<pdfrwt beam="1">  1       21 0.15532933E-01 0.30000000E+03</pdfrwt>
<pdfrwt beam="2">0</pdfrwt>
<totfact> 0.38598054E+03</totfact>
</mgrwt>
</event>
<event>
 6    1  0.6513574E-002  0.3000000E+03  0.7818608E-02  0.1093470E+00
         21   -1    0    0  501  502  0.00000000000E+00  0.00000000000E+00  0.10579477310E+01  0.10579477310E+01  0.00000000000E+00 0. -1.
         13   -1    0    0    0    0 -0.00000000000E+00 -0.00000000000E+00 -0.10000000000E+04  0.10000000000E+04  0.00000000000E+00 0.  1.
    9000005    2    1    2  501    0 -0.30311425651E+02  0.11400172246E+02 -0.52357712771E+03  0.52459120392E+03  0.37651191214E+01 0.  0.
         13    1    3    3    0    0 -0.14619560977E+02  0.34948516980E+01 -0.24257720113E+03  0.24304247378E+03  0.00000000000E+00 0.  1.
          1    1    3    3  501    0 -0.15691864674E+02  0.79053205480E+01 -0.28099992658E+03  0.28154873014E+03  0.00000000000E+00 0.  1.
         -1    1    1    2    0  502  0.30311425651E+02 -0.11400172246E+02 -0.47536492456E+03  0.47646674381E+03  0.00000000000E+00 0. -1.
<mgrwt>
<rscale>  1 0.30000000E+03</rscale>
<asrwt>0</asrwt>
<pdfrwt beam="1">  1       21 0.38470908E-02 0.30000000E+03</pdfrwt>
<pdfrwt beam="2">0</pdfrwt>
<totfact> 0.44897114E+04</totfact>
</mgrwt>
</event>
<event>
 6    1  0.6513574E-002  0.3000000E+03  0.7818608E-02  0.1093470E+00
         21   -1    0    0  501  502  0.00000000000E+00  0.00000000000E+00  0.17835718552E+01  0.17835718552E+01  0.00000000000E+00 0. -1.
         13   -1    0    0    0    0 -0.00000000000E+00 -0.00000000000E+00 -0.10000000000E+04  0.10000000000E+04  0.00000000000E+00 0.  1.
    9000005    2    1    2  501    0  0.26707058815E+02  0.32334532136E+02 -0.55143915598E+03  0.55304231023E+03  0.34445901601E+01 0.  0.
         13    1    3    3    0    0  0.73750443767E+01  0.11158045954E+02 -0.16574001600E+03  0.16627882058E+03  0.00000000000E+00 0.  1.
          1    1    3    3  501    0  0.19332014439E+02  0.21176486181E+02 -0.38569913997E+03  0.38676348965E+03  0.00000000000E+00 0.  1.
         -1    1    1    2    0  502 -0.26707058815E+02 -0.32334532136E+02 -0.44677727217E+03  0.44874126162E+03  0.00000000000E+00 0. -1.
<mgrwt>
<rscale>  1 0.30000000E+03</rscale>
<asrwt>0</asrwt>
<pdfrwt beam="1">  1       21 0.64857295E-02 0.30000000E+03</pdfrwt>
<pdfrwt beam="2">0</pdfrwt>
<totfact> 0.18420003E+04</totfact>
</mgrwt>
</event>
<event>
 6    1  0.6513574E-002  0.3000000E+03  0.7818608E-02  0.1093470E+00
         21   -1    0    0  501  502  0.00000000000E+00  0.00000000000E+00  0.26625612608E+01  0.26625612608E+01  0.00000000000E+00 0. -1.
         13   -1    0    0    0    0 -0.00000000000E+00 -0.00000000000E+00 -0.10000000000E+04  0.10000000000E+04  0.00000000000E+00 0.  1.
    9000005    2    1    2  501    0 -0.26369591405E+02  0.39842686971E+02 -0.68395095562E+03  0.68565485969E+03  0.71331522789E+01 0.  0.
         13    1    3    3    0    0 -0.89024921150E+01  0.14316993734E+02 -0.19548969665E+03  0.19621532094E+03  0.00000000000E+00 0.  1.
          1    1    3    3  501    0 -0.17467099290E+02  0.25525693237E+02 -0.48846125897E+03  0.48943953875E+03  0.00000000000E+00 0.  1.
         -1    1    1    2    0  502  0.26369591405E+02 -0.39842686971E+02 -0.31338648312E+03  0.31700770157E+03  0.00000000000E+00 0. -1.
<mgrwt>
<rscale>  1 0.30000000E+03</rscale>
<asrwt>0</asrwt>
<pdfrwt beam="1">  1       21 0.96820614E-02 0.30000000E+03</pdfrwt>
<pdfrwt beam="2">0</pdfrwt>
<totfact> 0.91140206E+03</totfact>
</mgrwt>
</event>
<event>
 6    1  0.6513574E-002  0.3000000E+03  0.7818608E-02  0.1093470E+00
         21   -1    0    0  501  502  0.00000000000E+00  0.00000000000E+00  0.26355099289E+01  0.26355099289E+01  0.00000000000E+00 0. -1.
         13   -1    0    0    0    0 -0.00000000000E+00 -0.00000000000E+00 -0.10000000000E+04  0.10000000000E+04  0.00000000000E+00 0.  1.
    9000005    2    1    2  501    0  0.87310423461E+01 -0.41757358929E+02 -0.77710071719E+03  0.77827856716E+03  0.34778322086E+01 0.  0.
         13    1    3    3    0    0  0.55881768742E+01 -0.28931197787E+02 -0.50763750484E+03  0.50849196478E+03  0.00000000000E+00 0.  1.
          3    1    3    3  501    0  0.31428654720E+01 -0.12826161143E+02 -0.26946321235E+03  0.26978660238E+03  0.00000000000E+00 0.  1.
         -3    1    1    2    0  502 -0.87310423461E+01  0.41757358929E+02 -0.22026377288E+03  0.22435694277E+03  0.00000000000E+00 0. -1.
<mgrwt>
<rscale>  1 0.30000000E+03</rscale>
<asrwt>0</asrwt>
<pdfrwt beam="1">  1       21 0.95836927E-02 0.30000000E+03</pdfrwt>
<pdfrwt beam="2">0</pdfrwt>
<totfact> 0.92815003E+03</totfact>
</mgrwt>
</event>
<event>
 6    1  0.6513574E-002  0.3000000E+03  0.7818608E-02  0.1093470E+00
         21   -1    0    0  501  502  0.00000000000E+00  0.00000000000E+00  0.11549270806E+01  0.11549270806E+01  0.00000000000E+00 0. -1.
         13   -1    0    0    0    0 -0.00000000000E+00 -0.00000000000E+00 -0.10000000000E+04  0.10000000000E+04  0.00000000000E+00 0.  1.
    9000005    2    1    2  501    0  0.21848766016E+02 -0.25159290252E+02 -0.59080076293E+03  0.59175229229E+03  0.38568748968E+01 0.  0.
         13    1    3    3    0    0  0.13919391555E+02 -0.14280901015E+02 -0.37878886526E+03  0.37931345618E+03  0.00000000000E+00 0.  1.
          1    1    3    3  501    0  0.79293744619E+01 -0.10878389238E+02 -0.21201189767E+03  0.21243883610E+03  0.00000000000E+00 0.  1.
         -1    1    1    2    0  502 -0.21848766016E+02  0.25159290252E+02 -0.40804430999E+03  0.40940263480E+03  0.00000000000E+00 0. -1.
<mgrwt>
<rscale>  1 0.30000000E+03</rscale>
<asrwt>0</asrwt>
<pdfrwt beam="1">  1       21 0.41997437E-02 0.30000000E+03</pdfrwt>
<pdfrwt beam="2">0</pdfrwt>
<totfact> 0.38730449E+04</totfact>
</mgrwt>
</event>
<event>
 6    1  0.6513574E-002  0.3000000E+03  0.7818608E-02  0.1093470E+00
         21   -1    0    0  501  502  0.00000000000E+00  0.00000000000E+00  0.97934992142E+00  0.97934992142E+00  0.00000000000E+00 0. -1.
         13   -1    0    0    0    0 -0.00000000000E+00 -0.00000000000E+00 -0.10000000000E+04  0.10000000000E+04  0.00000000000E+00 0.  1.
    9000005    2    1    2  501    0  0.30692525278E+02 -0.33033422478E+01 -0.56778875036E+03  0.56864395406E+03  0.43518131838E+01 0.  0.
         13    1    3    3    0    0  0.30503443996E+02 -0.28357256342E+01 -0.55447501784E+03  0.55532067028E+03  0.00000000000E+00 0.  1.
          3    1    3    3  501    0  0.18908128244E+00 -0.46761661361E+00 -0.13313732527E+02  0.13323283786E+02  0.00000000000E+00 0.  1.
         -3    1    1    2    0  502 -0.30692525278E+02  0.33033422478E+01 -0.43123189972E+03  0.43233539586E+03  0.00000000000E+00 0. -1.
<mgrwt>
<rscale>  1 0.30000000E+03</rscale>
<asrwt>0</asrwt>
<pdfrwt beam="1">  1       21 0.35612800E-02 0.30000000E+03</pdfrwt>
<pdfrwt beam="2">0</pdfrwt>
<totfact> 0.51108629E+04</totfact>
</mgrwt>
</event>
<event>
 6    1  0.6513574E-002  0.3000000E+03  0.7818608E-02  0.1093470E+00
         21   -1    0    0  501  502  0.00000000000E+00  0.00000000000E+00  0.16375541442E+01  0.16375541442E+01  0.00000000000E+00 0. -1.
         13   -1    0    0    0    0 -0.00000000000E+00 -0.00000000000E+00 -0.10000000000E+04  0.10000000000E+04  0.00000000000E+00 0.  1.
    9000005    2    1    2  501    0 -0.37113227518E+01 -0.38856635295E+02 -0.37056489793E+03  0.37262771861E+03  0.30758855789E+01 0.  0.
         13    1    3    3    0    0 -0.40293373650E+01 -0.27560178468E+02 -0.26434883588E+03  0.26581216306E+03  0.00000000000E+00 0.  1.
          3    1    3    3  501    0  0.31801461323E+00 -0.11296456827E+02 -0.10621606205E+03  0.10681555555E+03  0.00000000000E+00 0.  1.
         -3    1    1    2    0  502  0.37113227518E+01  0.38856635295E+02 -0.62779754793E+03  0.62900983554E+03  0.00000000000E+00 0. -1.
<mgrwt>
<rscale>  1 0.30000000E+03</rscale>
<asrwt>0</asrwt>
<pdfrwt beam="1">  1       21 0.59547549E-02 0.30000000E+03</pdfrwt>
<pdfrwt beam="2">0</pdfrwt>
<totfact> 0.21348508E+04</totfact>
</mgrwt>
</event>
<event>
 6    1  0.6513574E-002  0.3000000E+03  0.7818608E-02  0.1093470E+00
         21   -1    0    0  501  502  0.00000000000E+00  0.00000000000E+00  0.30849785899E+01  0.30849785899E+01  0.00000000000E+00 0. -1.
         13   -1    0    0    0    0 -0.00000000000E+00 -0.00000000000E+00 -0.10000000000E+04  0.10000000000E+04  0.00000000000E+00 0.  1.
    9000005    2    1    2  501    0  0.33368468453E+02 -0.19457717713E+02 -0.14046419540E+03  0.14576352497E+03  0.49756965828E+01 0.  0.
         13    1    3    3    0    0  0.73023744254E+01 -0.66293213235E+01 -0.33094463079E+02  0.34532825832E+02  0.00000000000E+00 0.  1.
          3    1    3    3  501    0  0.26066094028E+02 -0.12828396389E+02 -0.10736973232E+03  0.11123069914E+03  0.00000000000E+00 0.  1.
         -1    1    1    2    0  502 -0.33368468453E+02  0.19457717713E+02 -0.85645082601E+03  0.85732145362E+03  0.00000000000E+00 0. -1.
<mgrwt>
<rscale>  1 0.30000000E+03</rscale>
<asrwt>0</asrwt>
<pdfrwt beam="1">  1       21 0.11218128E-01 0.30000000E+03</pdfrwt>
<pdfrwt beam="2">0</pdfrwt>
<totfact> 0.70000880E+03</totfact>
</mgrwt>
</event>
<event>
 6    1  0.6513574E-002  0.3000000E+03  0.7818608E-02  0.1093470E+00
         21   -1    0    0  501  502  0.00000000000E+00  0.00000000000E+00  0.22230902439E+01  0.22230902439E+01  0.00000000000E+00 0. -1.
         13   -1    0    0    0    0 -0.00000000000E+00 -0.00000000000E+00 -0.10000000000E+04  0.10000000000E+04  0.00000000000E+00 0.  1.
    9000005    2    1    2  501    0 -0.45807510468E+02  0.78983575964E+01 -0.57997334606E+03  0.58184168021E+03  0.31538258290E+01 0.  0.
         13    1    3    3    0    0 -0.38934742219E+02  0.58042539864E+01 -0.49888915082E+03  0.50043979490E+03  0.00000000000E+00 0.  1.
          1    1    3    3  501    0 -0.68727682492E+01  0.20941036100E+01 -0.81084195242E+02  0.81401885306E+02  0.00000000000E+00 0.  1.
         -1    1    1    2    0  502  0.45807510468E+02 -0.78983575964E+01 -0.41780356370E+03  0.42038141004E+03  0.00000000000E+00 0. -1.
<mgrwt>
<rscale>  1 0.30000000E+03</rscale>
<asrwt>0</asrwt>
<pdfrwt beam="1">  1       21 0.80839816E-02 0.30000000E+03</pdfrwt>
<pdfrwt beam="2">0</pdfrwt>
<totfact> 0.12541628E+04</totfact>
</mgrwt>
</event>
<event>
 6    1  0.6513574E-002  0.3000000E+03  0.7818608E-02  0.1093470E+00
         21   -1    0    0  501  502  0.00000000000E+00  0.00000000000E+00  0.30006747055E+01  0.30006747055E+01  0.00000000000E+00 0. -1.
         13   -1    0    0    0    0 -0.00000000000E+00 -0.00000000000E+00 -0.10000000000E+04  0.10000000000E+04  0.00000000000E+00 0.  1.
    9000005    2    1    2  501    0 -0.20100009742E+02 -0.50728726285E+02 -0.53567131318E+03  0.53845686749E+03  0.38246986040E+01 0.  0.
         13    1    3    3    0    0 -0.65721676886E+01 -0.13457788293E+02 -0.15956834801E+03  0.16026965758E+03  0.00000000000E+00 0.  1.
          3    1    3    3  501    0 -0.13527842053E+02 -0.37270937992E+02 -0.37610296517E+03  0.37818720991E+03  0.00000000000E+00 0.  1.
         -3    1    1    2    0  502  0.20100009742E+02  0.50728726285E+02 -0.46132801212E+03  0.46454380722E+03  0.00000000000E+00 0. -1.
<mgrwt>
<rscale>  1 0.30000000E+03</rscale>
<asrwt>0</asrwt>
<pdfrwt beam="1">  1       21 0.10911567E-01 0.30000000E+03</pdfrwt>
<pdfrwt beam="2">0</pdfrwt>
<totfact> 0.73580704E+03</totfact>
</mgrwt>
</event>
<event>
 6    1  0.6513574E-002  0.3000000E+03  0.7818608E-02  0.1093470E+00
         21   -1    0    0  501  502  0.00000000000E+00  0.00000000000E+00  0.15463578200E+01  0.15463578200E+01  0.00000000000E+00 0. -1.
         13   -1    0    0    0    0 -0.00000000000E+00 -0.00000000000E+00 -0.10000000000E+04  0.10000000000E+04  0.00000000000E+00 0.  1.
    9000005    2    1    2  501    0 -0.36579937662E+02  0.14117890254E+02 -0.52943386169E+03  0.53089047381E+03  0.26598141031E+01 0.  0.
         13    1    3    3    0    0 -0.10674490966E+02  0.37508049781E+01 -0.13760697103E+03  0.13807132856E+03  0.00000000000E+00 0.  1.
          3    1    3    3  501    0 -0.25905446696E+02  0.10367085276E+02 -0.39182689066E+03  0.39281914525E+03  0.00000000000E+00 0.  1.
         -3    1    1    2    0  502  0.36579937662E+02 -0.14117890254E+02 -0.46901978049E+03  0.47065588401E+03  0.00000000000E+00 0. -1.
<mgrwt>
<rscale>  1 0.30000000E+03</rscale>
<asrwt>0</asrwt>
<pdfrwt beam="1">  1       21 0.56231312E-02 0.30000000E+03</pdfrwt>
<pdfrwt beam="2">0</pdfrwt>
<totfact> 0.23561678E+04</totfact>
</mgrwt>
</event>
<event>
 6    1  0.6513574E-002  0.3000000E+03  0.7818608E-02  0.1093470E+00
         21   -1    0    0  501  502  0.00000000000E+00  0.00000000000E+00  0.49951113352E+01  0.49951113352E+01  0.00000000000E+00 0. -1.
         13   -1    0    0    0    0 -0.00000000000E+00 -0.00000000000E+00 -0.10000000000E+04  0.10000000000E+04  0.00000000000E+00 0.  1.
    9000005    2    1    2  501    0 -0.69676462767E+02 -0.99864412971E+01 -0.54004416095E+03  0.54462156492E+03  0.32271859863E+01 0.  0.
         13    1    3    3    0    0 -0.14376742806E+02 -0.95766671781E+00 -0.10508926180E+03  0.10607243188E+03  0.00000000000E+00 0.  1.
          1    1    3    3  501    0 -0.55299719960E+02 -0.90287745792E+01 -0.43495489914E+03  0.43854913304E+03  0.00000000000E+00 0.  1.
         -1    1    1    2    0  502  0.69676462767E+02  0.99864412971E+01 -0.45496072772E+03  0.46037354642E+03  0.00000000000E+00 0. -1.
<mgrwt>
<rscale>  1 0.30000000E+03</rscale>
<asrwt>0</asrwt>
<pdfrwt beam="1">  1       21 0.18164080E-01 0.30000000E+03</pdfrwt>
<pdfrwt beam="2">0</pdfrwt>
<totfact> 0.28798858E+03</totfact>
</mgrwt>
</event>
<event>
 6    1  0.6513574E-002  0.3000000E+03  0.7818608E-02  0.1093470E+00
         21   -1    0    0  501  502  0.00000000000E+00  0.00000000000E+00  0.13117256070E+01  0.13117256070E+01  0.00000000000E+00 0. -1.
         13   -1    0    0    0    0 -0.00000000000E+00 -0.00000000000E+00 -0.10000000000E+04  0.10000000000E+04  0.00000000000E+00 0.  1.
    9000005    2    1    2  501    0  0.35830961017E+02  0.47001221312E+01 -0.48668632857E+03  0.48803602831E+03  0.31038025534E+01 0.  0.
         13    1    3    3    0    0  0.27486723486E+02  0.24393056358E+01 -0.36175085488E+03  0.36280180704E+03  0.00000000000E+00 0.  1.
          1    1    3    3  501    0  0.83442375303E+01  0.22608164954E+01 -0.12493547369E+03  0.12523422127E+03  0.00000000000E+00 0.  1.
         -3    1    1    2    0  502 -0.35830961017E+02 -0.47001221312E+01 -0.51200194582E+03  0.51327569730E+03  0.00000000000E+00 0. -1.
<mgrwt>
<rscale>  1 0.30000000E+03</rscale>
<asrwt>0</asrwt>
<pdfrwt beam="1">  1       21 0.47699214E-02 0.30000000E+03</pdfrwt>
<pdfrwt beam="2">0</pdfrwt>
<totfact> 0.31210563E+04</totfact>
</mgrwt>
</event>
<event>
 6    1  0.6513574E-002  0.3000000E+03  0.7818608E-02  0.1093470E+00
         21   -1    0    0  501  502  0.00000000000E+00  0.00000000000E+00  0.23057735293E+01  0.23057735293E+01  0.00000000000E+00 0. -1.
         13   -1    0    0    0    0 -0.00000000000E+00 -0.00000000000E+00 -0.10000000000E+04  0.10000000000E+04  0.00000000000E+00 0.  1.
    9000005    2    1    2  501    0 -0.22777166885E+02 -0.33786490392E+02 -0.76335111285E+03  0.76444652698E+03  0.36393499918E+01 0.  0.
         13    1    3    3    0    0 -0.10454576752E+02 -0.18343109452E+02 -0.37764783857E+03  0.37823756796E+03  0.00000000000E+00 0.  1.
          1    1    3    3  501    0 -0.12322590133E+02 -0.15443380940E+02 -0.38570327428E+03  0.38620895902E+03  0.00000000000E+00 0.  1.
         -1    1    1    2    0  502  0.22777166885E+02  0.33786490392E+02 -0.23434311363E+03  0.23785924655E+03  0.00000000000E+00 0. -1.
<mgrwt>
<rscale>  1 0.30000000E+03</rscale>
<asrwt>0</asrwt>
<pdfrwt beam="1">  1       21 0.83846487E-02 0.30000000E+03</pdfrwt>
<pdfrwt beam="2">0</pdfrwt>
<totfact> 0.11761113E+04</totfact>
</mgrwt>
</event>
<event>
 6    1  0.6513574E-002  0.3000000E+03  0.7818608E-02  0.1093470E+00
         21   -1    0    0  501  502  0.00000000000E+00  0.00000000000E+00  0.18179696299E+01  0.18179696299E+01  0.00000000000E+00 0. -1.
         13   -1    0    0    0    0 -0.00000000000E+00 -0.00000000000E+00 -0.10000000000E+04  0.10000000000E+04  0.00000000000E+00 0.  1.
    9000005    2    1    2  501    0  0.30825732747E+02  0.27428347441E+02 -0.62286443912E+03  0.62423905822E+03  0.34281539213E+01 0.  0.
         13    1    3    3    0    0  0.70534768080E+01  0.46046824544E+01 -0.11821139265E+03  0.11851113023E+03  0.00000000000E+00 0.  1.
          1    1    3    3  501    0  0.23772255939E+02  0.22823664987E+02 -0.50465304648E+03  0.50572792799E+03  0.00000000000E+00 0.  1.
         -3    1    1    2    0  502 -0.30825732747E+02 -0.27428347441E+02 -0.37531759125E+03  0.37757891141E+03  0.00000000000E+00 0. -1.
<mgrwt>
<rscale>  1 0.30000000E+03</rscale>
<asrwt>0</asrwt>
<pdfrwt beam="1">  1       21 0.66108126E-02 0.30000000E+03</pdfrwt>
<pdfrwt beam="2">0</pdfrwt>
<totfact> 0.17820490E+04</totfact>
</mgrwt>
</event>
<event>
 6    1  0.6513574E-002  0.3000000E+03  0.7818608E-02  0.1093470E+00
         21   -1    0    0  501  502  0.00000000000E+00  0.00000000000E+00  0.14138519392E+01  0.14138519392E+01  0.00000000000E+00 0. -1.
         13   -1    0    0    0    0 -0.00000000000E+00 -0.00000000000E+00 -0.10000000000E+04  0.10000000000E+04  0.00000000000E+00 0.  1.
    9000005    2    1    2  501    0 -0.34420092026E+02  0.76226309924E+01 -0.33029769494E+03  0.33219617150E+03  0.38576985408E+01 0.  0.
         13    1    3    3    0    0 -0.39551303254E+01 -0.31411113994E+00 -0.34022734382E+02  0.34253294389E+02  0.00000000000E+00 0.  1.
          1    1    3    3  501    0 -0.30464961701E+02  0.79367421323E+01 -0.29627496056E+03  0.29794287711E+03  0.00000000000E+00 0.  1.
         -1    1    1    2    0  502  0.34420092026E+02 -0.76226309924E+01 -0.66828845312E+03  0.66921768044E+03  0.00000000000E+00 0. -1.
<mgrwt>
<rscale>  1 0.30000000E+03</rscale>
<asrwt>0</asrwt>
<pdfrwt beam="1">  1       21 0.51412906E-02 0.30000000E+03</pdfrwt>
<pdfrwt beam="2">0</pdfrwt>
<totfact> 0.27467369E+04</totfact>
</mgrwt>
</event>
<event>
 6    1  0.7033188E-002  0.3000000E+03  0.7818608E-02  0.1093470E+00
         21   -1    0    0  501  502  0.00000000000E+00  0.00000000000E+00  0.19348049079E+01  0.19348049079E+01  0.00000000000E+00 0. -1.
         13   -1    0    0    0    0 -0.00000000000E+00 -0.00000000000E+00 -0.10000000000E+04  0.10000000000E+04  0.00000000000E+00 0.  1.
    9000005    2    1    2  501    0 -0.25532519427E+02  0.25820877585E+02 -0.77556163670E+03  0.77648755883E+03  0.10883447409E+02 0.  0.
         13    1    3    3    0    0 -0.17950914916E+02  0.10849936151E+02 -0.39594211634E+03  0.39649730889E+03  0.00000000000E+00 0.  1.
          3    1    3    3  501    0 -0.75816045109E+01  0.14970941435E+02 -0.37961952036E+03  0.37999024994E+03  0.00000000000E+00 0.  1.
         -1    1    1    2    0  502  0.25532519427E+02 -0.25820877585E+02 -0.22250355839E+03  0.22544724608E+03  0.00000000000E+00 0. -1.
<mgrwt>
<rscale>  1 0.30000000E+03</rscale>
<asrwt>0</asrwt>
<pdfrwt beam="1">  1       21 0.70356690E-02 0.30000000E+03</pdfrwt>
<pdfrwt beam="2">0</pdfrwt>
<totfact> 0.15993163E+04</totfact>
</mgrwt>
</event>
<event>
 6    1  0.6513574E-002  0.3000000E+03  0.7818608E-02  0.1093470E+00
         21   -1    0    0  501  502  0.00000000000E+00  0.00000000000E+00  0.10408360591E+01  0.10408360591E+01  0.00000000000E+00 0. -1.
         13   -1    0    0    0    0 -0.00000000000E+00 -0.00000000000E+00 -0.10000000000E+04  0.10000000000E+04  0.00000000000E+00 0.  1.
    9000005    2    1    2  501    0 -0.32051814436E+02  0.87925299457E+00 -0.49002312362E+03  0.49109575565E+03  0.49282493924E+01 0.  0.
         13    1    3    3    0    0 -0.18473245017E+02  0.15694669380E+01 -0.31517186758E+03  0.31571669281E+03  0.00000000000E+00 0.  1.
          1    1    3    3  501    0 -0.13578569419E+02 -0.69021394340E+00 -0.17485125604E+03  0.17537906284E+03  0.00000000000E+00 0.  1.
         -3    1    1    2    0  502  0.32051814436E+02 -0.87925299457E+00 -0.50893604032E+03  0.50994508041E+03  0.00000000000E+00 0. -1.
<mgrwt>
<rscale>  1 0.30000000E+03</rscale>
<asrwt>0</asrwt>
<pdfrwt beam="1">  1       21 0.37848664E-02 0.30000000E+03</pdfrwt>
<pdfrwt beam="2">0</pdfrwt>
<totfact> 0.46144400E+04</totfact>
</mgrwt>
</event>
<event>
 6    1  0.6513574E-002  0.3000000E+03  0.7818608E-02  0.1093470E+00
         21   -1    0    0  501  502  0.00000000000E+00  0.00000000000E+00  0.95413921234E+00  0.95413921234E+00  0.00000000000E+00 0. -1.
         13   -1    0    0    0    0 -0.00000000000E+00 -0.00000000000E+00 -0.10000000000E+04  0.10000000000E+04  0.00000000000E+00 0.  1.
    9000005    2    1    2  501    0  0.30010956623E+02  0.44549962773E+01 -0.58711716734E+03  0.58790964646E+03  0.32679815816E+01 0.  0.
         13    1    3    3    0    0  0.28167230109E+02  0.48296119558E+01 -0.54132188858E+03  0.54207573738E+03  0.00000000000E+00 0.  1.
          3    1    3    3  501    0  0.18437265143E+01 -0.37461567851E+00 -0.45795278761E+02  0.45833909076E+02  0.00000000000E+00 0.  1.
         -3    1    1    2    0  502 -0.30010956623E+02 -0.44549962773E+01 -0.41192869345E+03  0.41304449275E+03  0.00000000000E+00 0. -1.
<mgrwt>
<rscale>  1 0.30000000E+03</rscale>
<asrwt>0</asrwt>
<pdfrwt beam="1">  1       21 0.34696045E-02 0.30000000E+03</pdfrwt>
<pdfrwt beam="2">0</pdfrwt>
<totfact> 0.53390687E+04</totfact>
</mgrwt>
</event>
<event>
 6    1  0.6513574E-002  0.3000000E+03  0.7818608E-02  0.1093470E+00
         21   -1    0    0  501  502  0.00000000000E+00  0.00000000000E+00  0.15062868986E+01  0.15062868986E+01  0.00000000000E+00 0. -1.
         13   -1    0    0    0    0 -0.00000000000E+00 -0.00000000000E+00 -0.10000000000E+04  0.10000000000E+04  0.00000000000E+00 0.  1.
    9000005    2    1    2  501    0 -0.22147385122E+02  0.21116090188E+02 -0.19315727779E+03  0.19558869187E+03  0.29675735252E+01 0.  0.
         13    1    3    3    0    0 -0.11970280750E+02  0.12875974407E+02 -0.10417226095E+03  0.10564534202E+03  0.00000000000E+00 0.  1.
          3    1    3    3  501    0 -0.10177104372E+02  0.82401157806E+01 -0.88985016835E+02  0.89943349852E+02  0.00000000000E+00 0.  1.
         -1    1    1    2    0  502  0.22147385122E+02 -0.21116090188E+02 -0.80533643531E+03  0.80591759503E+03  0.00000000000E+00 0. -1.
<mgrwt>
<rscale>  1 0.30000000E+03</rscale>
<asrwt>0</asrwt>
<pdfrwt beam="1">  1       21 0.54774185E-02 0.30000000E+03</pdfrwt>
<pdfrwt beam="2">0</pdfrwt>
<totfact> 0.24647386E+04</totfact>
</mgrwt>
</event>
<event>
 6    1  0.6513574E-002  0.3000000E+03  0.7818608E-02  0.1093470E+00
         21   -1    0    0  501  502  0.00000000000E+00  0.00000000000E+00  0.11712208302E+01  0.11712208302E+01  0.00000000000E+00 0. -1.
         13   -1    0    0    0    0 -0.00000000000E+00 -0.00000000000E+00 -0.10000000000E+04  0.10000000000E+04  0.00000000000E+00 0.  1.
    9000005    2    1    2  501    0  0.11836296777E+01  0.32510607561E+02 -0.34984430625E+03  0.35137187744E+03  0.35800914631E+01 0.  0.
         13    1    3    3    0    0 -0.38756427778E+00  0.33229463554E+00 -0.58717303948E+01  0.58938818807E+01  0.00000000000E+00 0.  1.
          1    1    3    3  501    0  0.15711939555E+01  0.32178312925E+02 -0.34397257586E+03  0.34547799556E+03  0.00000000000E+00 0.  1.
         -3    1    1    2    0  502 -0.11836296777E+01 -0.32510607561E+02 -0.64898447292E+03  0.64979934339E+03  0.00000000000E+00 0. -1.
<mgrwt>
<rscale>  1 0.30000000E+03</rscale>
<asrwt>0</asrwt>
<pdfrwt beam="1">  1       21 0.42589938E-02 0.30000000E+03</pdfrwt>
<pdfrwt beam="2">0</pdfrwt>
<totfact> 0.37824570E+04</totfact>
</mgrwt>
</event>
<event>
 6    1  0.6513574E-002  0.3000000E+03  0.7818608E-02  0.1093470E+00
         21   -1    0    0  501  502  0.00000000000E+00  0.00000000000E+00  0.22671690529E+01  0.22671690529E+01  0.00000000000E+00 0. -1.
         13   -1    0    0    0    0 -0.00000000000E+00 -0.00000000000E+00 -0.10000000000E+04  0.10000000000E+04  0.00000000000E+00 0.  1.
    9000005    2    1    2  501    0 -0.25940598571E+02 -0.25955178973E+02 -0.18118786471E+03  0.18489805546E+03  0.34150585190E+01 0.  0.
         13    1    3    3    0    0 -0.16374316944E+02 -0.18629895132E+02 -0.12091789540E+03  0.12343552436E+03  0.00000000000E+00 0.  1.
          3    1    3    3  501    0 -0.95662816278E+01 -0.73252838400E+01 -0.60269969310E+02  0.61462531091E+02  0.00000000000E+00 0.  1.
         -1    1    1    2    0  502  0.25940598571E+02  0.25955178973E+02 -0.81654496624E+03  0.81736911360E+03  0.00000000000E+00 0. -1.
<mgrwt>
<rscale>  1 0.30000000E+03</rscale>
<asrwt>0</asrwt>
<pdfrwt beam="1">  1       21 0.82442685E-02 0.30000000E+03</pdfrwt>
<pdfrwt beam="2">0</pdfrwt>
<totfact> 0.12115988E+04</totfact>
</mgrwt>
</event>
<event>
 6    1  0.6513574E-002  0.3000000E+03  0.7818608E-02  0.1093470E+00
         21   -1    0    0  501  502  0.00000000000E+00  0.00000000000E+00  0.17228777665E+01  0.17228777665E+01  0.00000000000E+00 0. -1.
         13   -1    0    0    0    0 -0.00000000000E+00 -0.00000000000E+00 -0.10000000000E+04  0.10000000000E+04  0.00000000000E+00 0.  1.
    9000005    2    1    2  501    0  0.59247380846E+01 -0.40797765438E+02 -0.44801976088E+03  0.44992334541E+03  0.31225661052E+01 0.  0.
         13    1    3    3    0    0  0.14552544017E+01 -0.20616149260E+02 -0.22023858437E+03  0.22120618758E+03  0.00000000000E+00 0.  1.
          3    1    3    3  501    0  0.44694836829E+01 -0.20181616178E+02 -0.22778117651E+03  0.22871715784E+03  0.00000000000E+00 0.  1.
         -3    1    1    2    0  502 -0.59247380846E+01  0.40797765438E+02 -0.55025736135E+03  0.55179953235E+03  0.00000000000E+00 0. -1.
<mgrwt>
<rscale>  1 0.30000000E+03</rscale>
<asrwt>0</asrwt>
<pdfrwt beam="1">  1       21 0.62650233E-02 0.30000000E+03</pdfrwt>
<pdfrwt beam="2">0</pdfrwt>
<totfact> 0.19556672E+04</totfact>
</mgrwt>
</event>
<event>
 6    1  0.6513574E-002  0.3000000E+03  0.7818608E-02  0.1093470E+00
         21   -1    0    0  501  502  0.00000000000E+00  0.00000000000E+00  0.11152039091E+01  0.11152039091E+01  0.00000000000E+00 0. -1.
         13   -1    0    0    0    0 -0.00000000000E+00 -0.00000000000E+00 -0.10000000000E+04  0.10000000000E+04  0.00000000000E+00 0.  1.
    9000005    2    1    2  501    0  0.26955355532E+02 -0.19039447675E+02 -0.47388854447E+03  0.47508273725E+03  0.66455170615E+01 0.  0.
         13    1    3    3    0    0  0.17473187192E+02 -0.10735515083E+02 -0.33330233074E+03  0.33393263876E+03  0.00000000000E+00 0.  1.
          1    1    3    3  501    0  0.94821683393E+01 -0.83039325914E+01 -0.14058621373E+03  0.14115009849E+03  0.00000000000E+00 0.  1.
         -3    1    1    2    0  502 -0.26955355532E+02  0.19039447675E+02 -0.52499625162E+03  0.52603246666E+03  0.00000000000E+00 0. -1.
<mgrwt>
<rscale>  1 0.30000000E+03</rscale>
<asrwt>0</asrwt>
<pdfrwt beam="1">  1       21 0.40552955E-02 0.30000000E+03</pdfrwt>
<pdfrwt beam="2">0</pdfrwt>
<totfact> 0.41085989E+04</totfact>
</mgrwt>
</event>
<event>
 6    1  0.6513574E-002  0.3000000E+03  0.7818608E-02  0.1093470E+00
         21   -1    0    0  501  502  0.00000000000E+00  0.00000000000E+00  0.18047914357E+01  0.18047914357E+01  0.00000000000E+00 0. -1.
         13   -1    0    0    0    0 -0.00000000000E+00 -0.00000000000E+00 -0.10000000000E+04  0.10000000000E+04  0.00000000000E+00 0.  1.
    9000005    2    1    2  501    0  0.36005226451E+02 -0.10726186049E+02 -0.26792707897E+03  0.27057092427E+03  0.35039994807E+01 0.  0.
         13    1    3    3    0    0  0.10792536551E+02 -0.34194425462E+01 -0.69733660647E+02  0.70646690367E+02  0.00000000000E+00 0.  1.
          3    1    3    3  501    0  0.25212689900E+02 -0.73067435031E+01 -0.19819341833E+03  0.19992423390E+03  0.00000000000E+00 0.  1.
         -1    1    1    2    0  502 -0.36005226451E+02  0.10726186049E+02 -0.73026812959E+03  0.73123386717E+03  0.00000000000E+00 0. -1.
<mgrwt>
<rscale>  1 0.30000000E+03</rscale>
<asrwt>0</asrwt>
<pdfrwt beam="1">  1       21 0.65628918E-02 0.30000000E+03</pdfrwt>
<pdfrwt beam="2">0</pdfrwt>
<totfact> 0.18046566E+04</totfact>
</mgrwt>
</event>
<event>
 6    1  0.6513574E-002  0.3000000E+03  0.7818608E-02  0.1093470E+00
         21   -1    0    0  501  502  0.00000000000E+00  0.00000000000E+00  0.95385428105E+00  0.95385428105E+00  0.00000000000E+00 0. -1.
         13   -1    0    0    0    0 -0.00000000000E+00 -0.00000000000E+00 -0.10000000000E+04  0.10000000000E+04  0.00000000000E+00 0.  1.
    9000005    2    1    2  501    0 -0.27353098178E+02  0.12583222869E+02 -0.39700469630E+03  0.39815999541E+03  0.34818932499E+01 0.  0.
         13    1    3    3    0    0 -0.21509239833E+02  0.11266035294E+02 -0.32606227451E+03  0.32696510182E+03  0.00000000000E+00 0.  1.
          1    1    3    3  501    0 -0.58438583448E+01  0.13171875743E+01 -0.70942421795E+02  0.71194893592E+02  0.00000000000E+00 0.  1.
         -3    1    1    2    0  502  0.27353098178E+02 -0.12583222869E+02 -0.60204144941E+03  0.60279385887E+03  0.00000000000E+00 0. -1.
<mgrwt>
<rscale>  1 0.30000000E+03</rscale>
<asrwt>0</asrwt>
<pdfrwt beam="1">  1       21 0.34685683E-02 0.30000000E+03</pdfrwt>
<pdfrwt beam="2">0</pdfrwt>
<totfact> 0.53417378E+04</totfact>
</mgrwt>
</event>
<event>
 6    1  0.6513574E-002  0.3000000E+03  0.7818608E-02  0.1093470E+00
         21   -1    0    0  501  502  0.00000000000E+00  0.00000000000E+00  0.98813666367E+00  0.98813666367E+00  0.00000000000E+00 0. -1.
         13   -1    0    0    0    0 -0.00000000000E+00 -0.00000000000E+00 -0.10000000000E+04  0.10000000000E+04  0.00000000000E+00 0.  1.
    9000005    2    1    2  501    0 -0.20772703180E+02  0.23474028278E+02 -0.50554926614E+03  0.50653098985E+03  0.33238509436E+01 0.  0.
         13    1    3    3    0    0 -0.14093993098E+02  0.17743056145E+02 -0.37784848299E+03  0.37852732105E+03  0.00000000000E+00 0.  1.
          3    1    3    3  501    0 -0.66787100825E+01  0.57309721340E+01 -0.12770078315E+03  0.12800366880E+03  0.00000000000E+00 0.  1.
         -1    1    1    2    0  502  0.20772703180E+02 -0.23474028278E+02 -0.49346259720E+03  0.49445714681E+03  0.00000000000E+00 0. -1.
<mgrwt>
<rscale>  1 0.30000000E+03</rscale>
<asrwt>0</asrwt>
<pdfrwt beam="1">  1       21 0.35932318E-02 0.30000000E+03</pdfrwt>
<pdfrwt beam="2">0</pdfrwt>
<totfact> 0.50348944E+04</totfact>
</mgrwt>
</event>
<event>
 6    1  0.6513574E-002  0.3000000E+03  0.7818608E-02  0.1093470E+00
         21   -1    0    0  501  502  0.00000000000E+00  0.00000000000E+00  0.41974726804E+01  0.41974726804E+01  0.00000000000E+00 0. -1.
         13   -1    0    0    0    0 -0.00000000000E+00 -0.00000000000E+00 -0.10000000000E+04  0.10000000000E+04  0.00000000000E+00 0.  1.
    9000005    2    1    2  501    0  0.61200052481E+02  0.15914173459E+02 -0.60616724249E+03  0.60946419244E+03  0.30279803733E+01 0.  0.
         13    1    3    3    0    0  0.36606889885E+01  0.22403083362E+00 -0.35064642019E+02  0.35255920831E+02  0.00000000000E+00 0.  1.
          3    1    3    3  501    0  0.57539363492E+02  0.15690142625E+02 -0.57110260047E+03  0.57420827161E+03  0.00000000000E+00 0.  1.
         -3    1    1    2    0  502 -0.61200052481E+02 -0.15914173459E+02 -0.38963528483E+03  0.39473328024E+03  0.00000000000E+00 0. -1.
<mgrwt>
<rscale>  1 0.30000000E+03</rscale>
<asrwt>0</asrwt>
<pdfrwt beam="1">  1       21 0.15263569E-01 0.30000000E+03</pdfrwt>
<pdfrwt beam="2">0</pdfrwt>
<totfact> 0.39872508E+03</totfact>
</mgrwt>
</event>
<event>
 6    1  0.6513574E-002  0.3000000E+03  0.7818608E-02  0.1093470E+00
         21   -1    0    0  501  502  0.00000000000E+00  0.00000000000E+00  0.16906477806E+01  0.16906477806E+01  0.00000000000E+00 0. -1.
         13   -1    0    0    0    0 -0.00000000000E+00 -0.00000000000E+00 -0.10000000000E+04  0.10000000000E+04  0.00000000000E+00 0.  1.
    9000005    2    1    2  501    0 -0.29281482273E+02 -0.28550919800E+02 -0.53726277557E+03  0.53883375190E+03  0.42381536284E+01 0.  0.
         13    1    3    3    0    0 -0.15118995606E+01 -0.10853945033E+01 -0.37999282874E+02  0.38044834347E+02  0.00000000000E+00 0.  1.
          3    1    3    3  501    0 -0.27769582712E+02 -0.27465525297E+02 -0.49926349270E+03  0.50078891755E+03  0.00000000000E+00 0.  1.
         -3    1    1    2    0  502  0.29281482273E+02  0.28550919800E+02 -0.46104657665E+03  0.46285689588E+03  0.00000000000E+00 0. -1.
<mgrwt>
<rscale>  1 0.30000000E+03</rscale>
<asrwt>0</asrwt>
<pdfrwt beam="1">  1       21 0.61478231E-02 0.30000000E+03</pdfrwt>
<pdfrwt beam="2">0</pdfrwt>
<totfact> 0.20205055E+04</totfact>
</mgrwt>
</event>
<event>
 6    1  0.6513574E-002  0.3000000E+03  0.7818608E-02  0.1093470E+00
         21   -1    0    0  501  502  0.00000000000E+00  0.00000000000E+00  0.12550897541E+01  0.12550897541E+01  0.00000000000E+00 0. -1.
         13   -1    0    0    0    0 -0.00000000000E+00 -0.00000000000E+00 -0.10000000000E+04  0.10000000000E+04  0.00000000000E+00 0.  1.
    9000005    2    1    2  501    0 -0.21609319435E+02  0.27835302946E+02 -0.46056694637E+03  0.46192468307E+03  0.32762723869E+01 0.  0.
         13    1    3    3    0    0 -0.21371858152E+02  0.27512087395E+02 -0.45832678988E+03  0.45964890688E+03  0.00000000000E+00 0.  1.
          1    1    3    3  501    0 -0.23746128281E+00  0.32321555088E+00 -0.22401564912E+01  0.22757761880E+01  0.00000000000E+00 0.  1.
         -3    1    1    2    0  502  0.21609319435E+02 -0.27835302946E+02 -0.53817796387E+03  0.53933040669E+03  0.00000000000E+00 0. -1.
<mgrwt>
<rscale>  1 0.30000000E+03</rscale>
<asrwt>0</asrwt>
<pdfrwt beam="1">  1       21 0.45639724E-02 0.30000000E+03</pdfrwt>
<pdfrwt beam="2">0</pdfrwt>
<totfact> 0.33642160E+04</totfact>
</mgrwt>
</event>
<event>
 6    1  0.6513574E-002  0.3000000E+03  0.7818608E-02  0.1093470E+00
         21   -1    0    0  501  502  0.00000000000E+00  0.00000000000E+00  0.14474283502E+01  0.14474283502E+01  0.00000000000E+00 0. -1.
         13   -1    0    0    0    0 -0.00000000000E+00 -0.00000000000E+00 -0.10000000000E+04  0.10000000000E+04  0.00000000000E+00 0.  1.
    9000005    2    1    2  501    0 -0.32472385729E+02 -0.17517026101E+02 -0.39940457937E+03  0.40116447949E+03  0.69006916408E+01 0.  0.
         13    1    3    3    0    0 -0.25713644541E+02 -0.11785445157E+02 -0.32659030253E+03  0.32781292522E+03  0.00000000000E+00 0.  1.
          3    1    3    3  501    0 -0.67587411873E+01 -0.57315809441E+01 -0.72814276833E+02  0.73351554266E+02  0.00000000000E+00 0.  1.
         -1    1    1    2    0  502  0.32472385729E+02  0.17517026101E+02 -0.59914799228E+03  0.60028294886E+03  0.00000000000E+00 0. -1.
<mgrwt>
<rscale>  1 0.30000000E+03</rscale>
<asrwt>0</asrwt>
<pdfrwt beam="1">  1       21 0.52633869E-02 0.30000000E+03</pdfrwt>
<pdfrwt beam="2">0</pdfrwt>
<totfact> 0.26387806E+04</totfact>
</mgrwt>
</event>
<event>
 6    1  0.6513574E-002  0.3000000E+03  0.7818608E-02  0.1093470E+00
         21   -1    0    0  501  502  0.00000000000E+00  0.00000000000E+00  0.31107941368E+01  0.31107941368E+01  0.00000000000E+00 0. -1.
         13   -1    0    0    0    0 -0.00000000000E+00 -0.00000000000E+00 -0.10000000000E+04  0.10000000000E+04  0.00000000000E+00 0.  1.
    9000005    2    1    2  501    0 -0.55246898887E+02 -0.39671866524E+01 -0.47436079566E+03  0.47765489887E+03  0.82510329036E+01 0.  0.
         13    1    3    3    0    0 -0.54843186684E+02 -0.47773926173E+01 -0.46390168283E+03  0.46715668671E+03  0.00000000000E+00 0.  1.
          1    1    3    3  501    0 -0.40371220256E+00  0.81020596488E+00 -0.10459112829E+02  0.10498212154E+02  0.00000000000E+00 0.  1.
         -1    1    1    2    0  502  0.55246898887E+02  0.39671866524E+01 -0.52252841020E+03  0.52545589527E+03  0.00000000000E+00 0. -1.
<mgrwt>
<rscale>  1 0.30000000E+03</rscale>
<asrwt>0</asrwt>
<pdfrwt beam="1">  1       21 0.11312003E-01 0.30000000E+03</pdfrwt>
<pdfrwt beam="2">0</pdfrwt>
<totfact> 0.68956998E+03</totfact>
</mgrwt>
</event>
<event>
 6    1  0.6513574E-002  0.3000000E+03  0.7818608E-02  0.1093470E+00
         21   -1    0    0  501  502  0.00000000000E+00  0.00000000000E+00  0.15084865762E+01  0.15084865762E+01  0.00000000000E+00 0. -1.
         13   -1    0    0    0    0 -0.00000000000E+00 -0.00000000000E+00 -0.10000000000E+04  0.10000000000E+04  0.00000000000E+00 0.  1.
    9000005    2    1    2  501    0 -0.14485841649E+02 -0.35870547411E+02 -0.46715110986E+03  0.46876167970E+03  0.32889405446E+01 0.  0.
         13    1    3    3    0    0 -0.11814387985E+02 -0.32087053018E+02 -0.41177306742E+03  0.41319029247E+03  0.00000000000E+00 0.  1.
          3    1    3    3  501    0 -0.26714536636E+01 -0.37834943928E+01 -0.55378042440E+02  0.55571387233E+02  0.00000000000E+00 0.  1.
         -3    1    1    2    0  502  0.14485841649E+02  0.35870547411E+02 -0.53134040356E+03  0.53274680688E+03  0.00000000000E+00 0. -1.
<mgrwt>
<rscale>  1 0.30000000E+03</rscale>
<asrwt>0</asrwt>
<pdfrwt beam="1">  1       21 0.54854173E-02 0.30000000E+03</pdfrwt>
<pdfrwt beam="2">0</pdfrwt>
<totfact> 0.24585807E+04</totfact>
</mgrwt>
</event>
<event>
 6    1  0.6513574E-002  0.3000000E+03  0.7818608E-02  0.1093470E+00
         21   -1    0    0  501  502  0.00000000000E+00  0.00000000000E+00  0.24811677043E+01  0.24811677043E+01  0.00000000000E+00 0. -1.
         13   -1    0    0    0    0 -0.00000000000E+00 -0.00000000000E+00 -0.10000000000E+04  0.10000000000E+04  0.00000000000E+00 0.  1.
    9000005    2    1    2  501    0  0.27692426702E+02  0.40432675063E+02 -0.41278270612E+03  0.41569499799E+03  0.33312423027E+01 0.  0.
         13    1    3    3    0    0  0.23637435115E+02  0.36041271662E+02 -0.36784854921E+03  0.37036503177E+03  0.00000000000E+00 0.  1.
          1    1    3    3  501    0  0.40549915865E+01  0.43914034013E+01 -0.44934156905E+02  0.45329966219E+02  0.00000000000E+00 0.  1.
         -3    1    1    2    0  502 -0.27692426702E+02 -0.40432675063E+02 -0.58473612618E+03  0.58678616971E+03  0.00000000000E+00 0. -1.
<mgrwt>
<rscale>  1 0.30000000E+03</rscale>
<asrwt>0</asrwt>
<pdfrwt beam="1">  1       21 0.90224470E-02 0.30000000E+03</pdfrwt>
<pdfrwt beam="2">0</pdfrwt>
<totfact> 0.10332384E+04</totfact>
</mgrwt>
</event>
<event>
 6    1  0.6513574E-002  0.3000000E+03  0.7818608E-02  0.1093470E+00
         21   -1    0    0  501  502  0.00000000000E+00  0.00000000000E+00  0.23824802382E+01  0.23824802382E+01  0.00000000000E+00 0. -1.
         13   -1    0    0    0    0 -0.00000000000E+00 -0.00000000000E+00 -0.10000000000E+04  0.10000000000E+04  0.00000000000E+00 0.  1.
    9000005    2    1    2  501    0 -0.16433152596E+02  0.45489872942E+02 -0.43755117120E+03  0.44023152912E+03  0.36598871502E+01 0.  0.
         13    1    3    3    0    0 -0.11177205084E+02  0.30764507539E+02 -0.31120122717E+03  0.31291786243E+03  0.00000000000E+00 0.  1.
          3    1    3    3  501    0 -0.52559475126E+01  0.14725365403E+02 -0.12634994403E+03  0.12731366669E+03  0.00000000000E+00 0.  1.
         -3    1    1    2    0  502  0.16433152596E+02 -0.45489872942E+02 -0.56006634857E+03  0.56215095112E+03  0.00000000000E+00 0. -1.
<mgrwt>
<rscale>  1 0.30000000E+03</rscale>
<asrwt>0</asrwt>
<pdfrwt beam="1">  1       21 0.86635828E-02 0.30000000E+03</pdfrwt>
<pdfrwt beam="2">0</pdfrwt>
<totfact> 0.11101481E+04</totfact>
</mgrwt>
</event>
<event>
 6    1  0.8674772E-002  0.3000000E+03  0.7818608E-02  0.1093470E+00
         21   -1    0    0  501  502  0.00000000000E+00  0.00000000000E+00  0.31042403741E+01  0.31042403741E+01  0.00000000000E+00 0. -1.
         13   -1    0    0    0    0 -0.00000000000E+00 -0.00000000000E+00 -0.10000000000E+04  0.10000000000E+04  0.00000000000E+00 0.  1.
    9000005    2    1    2  501    0 -0.25764332555E+02  0.48669499818E+02 -0.54718656656E+03  0.55003594600E+03  0.96892836201E+01 0.  0.
         13    1    3    3    0    0 -0.67298323310E+01  0.22955682533E+02 -0.23440627432E+03  0.23562375823E+03  0.00000000000E+00 0.  1.
          3    1    3    3  501    0 -0.19034500224E+02  0.25713817285E+02 -0.31278029225E+03  0.31441218777E+03  0.00000000000E+00 0.  1.
         -3    1    1    2    0  502  0.25764332555E+02 -0.48669499818E+02 -0.44970919306E+03  0.45306829438E+03  0.00000000000E+00 0. -1.
<mgrwt>
<rscale>  1 0.30000000E+03</rscale>
<asrwt>0</asrwt>
<pdfrwt beam="1">  1       21 0.11288171E-01 0.30000000E+03</pdfrwt>
<pdfrwt beam="2">0</pdfrwt>
<totfact> 0.69219780E+03</totfact>
</mgrwt>
</event>
<event>
 6    1  0.6513574E-002  0.3000000E+03  0.7818608E-02  0.1093470E+00
         21   -1    0    0  501  502  0.00000000000E+00  0.00000000000E+00  0.95732765306E+00  0.95732765306E+00  0.00000000000E+00 0. -1.
         13   -1    0    0    0    0 -0.00000000000E+00 -0.00000000000E+00 -0.10000000000E+04  0.10000000000E+04  0.00000000000E+00 0.  1.
    9000005    2    1    2  501    0  0.34946244012E+01 -0.30565114107E+02 -0.46396966952E+03  0.46500065315E+03  0.33637162064E+01 0.  0.
         13    1    3    3    0    0  0.19020956992E+01 -0.26566005081E+02 -0.40320981522E+03  0.40408851219E+03  0.00000000000E+00 0.  1.
          1    1    3    3  501    0  0.15925287020E+01 -0.39991090259E+01 -0.60759854302E+02  0.60912140953E+02  0.00000000000E+00 0.  1.
         -3    1    1    2    0  502 -0.34946244012E+01  0.30565114107E+02 -0.53507300282E+03  0.53595667451E+03  0.00000000000E+00 0. -1.
<mgrwt>
<rscale>  1 0.30000000E+03</rscale>
<asrwt>0</asrwt>
<pdfrwt beam="1">  1       21 0.34811988E-02 0.30000000E+03</pdfrwt>
<pdfrwt beam="2">0</pdfrwt>
<totfact> 0.53093416E+04</totfact>
</mgrwt>
</event>
<event>
 6    1  0.6513574E-002  0.3000000E+03  0.7818608E-02  0.1093470E+00
         21   -1    0    0  501  502  0.00000000000E+00  0.00000000000E+00  0.14795290456E+01  0.14795290456E+01  0.00000000000E+00 0. -1.
         13   -1    0    0    0    0 -0.00000000000E+00 -0.00000000000E+00 -0.10000000000E+04  0.10000000000E+04  0.00000000000E+00 0.  1.
    9000005    2    1    2  501    0  0.25846863653E+02  0.23171423781E+02 -0.71358503310E+03  0.71443740847E+03  0.34979869586E+01 0.  0.
         13    1    3    3    0    0  0.99512821000E+01  0.66995517750E+01 -0.24836418635E+03  0.24865373730E+03  0.00000000000E+00 0.  1.
          3    1    3    3  501    0  0.15895581553E+02  0.16471872006E+02 -0.46522084675E+03  0.46578367117E+03  0.00000000000E+00 0.  1.
         -3    1    1    2    0  502 -0.25846863653E+02 -0.23171423781E+02 -0.28493543785E+03  0.28704212057E+03  0.00000000000E+00 0. -1.
<mgrwt>
<rscale>  1 0.30000000E+03</rscale>
<asrwt>0</asrwt>
<pdfrwt beam="1">  1       21 0.53801170E-02 0.30000000E+03</pdfrwt>
<pdfrwt beam="2">0</pdfrwt>
<totfact> 0.25415915E+04</totfact>
</mgrwt>
</event>
<event>
 6    1  0.6513574E-002  0.3000000E+03  0.7818608E-02  0.1093470E+00
         21   -1    0    0  501  502  0.00000000000E+00  0.00000000000E+00  0.13459344245E+01  0.13459344245E+01  0.00000000000E+00 0. -1.
         13   -1    0    0    0    0 -0.00000000000E+00 -0.00000000000E+00 -0.10000000000E+04  0.10000000000E+04  0.00000000000E+00 0.  1.
    9000005    2    1    2  501    0  0.66050094238E+01  0.35092336908E+02 -0.58981837017E+03  0.59095377551E+03  0.80967118564E+01 0.  0.
         13    1    3    3    0    0  0.57615313156E+01  0.34312550427E+02 -0.53865153325E+03  0.53977404590E+03  0.00000000000E+00 0.  1.
          1    1    3    3  501    0  0.84347810818E+00  0.77978648075E+00 -0.51166836923E+02  0.51179729611E+02  0.00000000000E+00 0.  1.
         -1    1    1    2    0  502 -0.66050094238E+01 -0.35092336908E+02 -0.40883569541E+03  0.41039215891E+03  0.00000000000E+00 0. -1.
<mgrwt>
<rscale>  1 0.30000000E+03</rscale>
<asrwt>0</asrwt>
<pdfrwt beam="1">  1       21 0.48943173E-02 0.30000000E+03</pdfrwt>
<pdfrwt beam="2">0</pdfrwt>
<totfact> 0.29872451E+04</totfact>
</mgrwt>
</event>
<event>
 6    1  0.6513574E-002  0.3000000E+03  0.7818608E-02  0.1093470E+00
         21   -1    0    0  501  502  0.00000000000E+00  0.00000000000E+00  0.95893067827E+00  0.95893067827E+00  0.00000000000E+00 0. -1.
         13   -1    0    0    0    0 -0.00000000000E+00 -0.00000000000E+00 -0.10000000000E+04  0.10000000000E+04  0.00000000000E+00 0.  1.
    9000005    2    1    2  501    0 -0.27178483020E+02 -0.13013399375E+02 -0.60117061069E+03  0.60194900555E+03  0.53370045343E+01 0.  0.
         13    1    3    3    0    0 -0.80319277413E+01 -0.30672190257E+01 -0.12942593589E+03  0.12971118910E+03  0.00000000000E+00 0.  1.
          1    1    3    3  501    0 -0.19146555278E+02 -0.99461803497E+01 -0.47174467480E+03  0.47223781645E+03  0.00000000000E+00 0.  1.
         -1    1    1    2    0  502  0.27178483020E+02  0.13013399375E+02 -0.39787045863E+03  0.39900992513E+03  0.00000000000E+00 0. -1.
<mgrwt>
<rscale>  1 0.30000000E+03</rscale>
<asrwt>0</asrwt>
<pdfrwt beam="1">  1       21 0.34870280E-02 0.30000000E+03</pdfrwt>
<pdfrwt beam="2">0</pdfrwt>
<totfact> 0.52944931E+04</totfact>
</mgrwt>
</event>
<event>
 6    1  0.6513574E-002  0.3000000E+03  0.7818608E-02  0.1093470E+00
         21   -1    0    0  501  502  0.00000000000E+00  0.00000000000E+00  0.12517823905E+01  0.12517823905E+01  0.00000000000E+00 0. -1.
         13   -1    0    0    0    0 -0.00000000000E+00 -0.00000000000E+00 -0.10000000000E+04  0.10000000000E+04  0.00000000000E+00 0.  1.
    9000005    2    1    2  501    0  0.13990469074E+02 -0.31767100220E+02 -0.52652095795E+03  0.52775049766E+03  0.95596408092E+01 0.  0.
         13    1    3    3    0    0  0.33167465961E+01 -0.12137868566E+01 -0.65289486484E+02  0.65384945759E+02  0.00000000000E+00 0.  1.
          1    1    3    3  501    0  0.10673722478E+02 -0.30553313364E+02 -0.46123147147E+03  0.46236555190E+03  0.00000000000E+00 0.  1.
         -1    1    1    2    0  502 -0.13990469074E+02  0.31767100220E+02 -0.47222725966E+03  0.47350128473E+03  0.00000000000E+00 0. -1.
<mgrwt>
<rscale>  1 0.30000000E+03</rscale>
<asrwt>0</asrwt>
<pdfrwt beam="1">  1       21 0.45519456E-02 0.30000000E+03</pdfrwt>
<pdfrwt beam="2">0</pdfrwt>
<totfact> 0.33793271E+04</totfact>
</mgrwt>
</event>
<event>
 6    1  0.6513574E-002  0.3000000E+03  0.7818608E-02  0.1093470E+00
         21   -1    0    0  501  502  0.00000000000E+00  0.00000000000E+00  0.77296454979E+01  0.77296454979E+01  0.00000000000E+00 0. -1.
         13   -1    0    0    0    0 -0.00000000000E+00 -0.00000000000E+00 -0.10000000000E+04  0.10000000000E+04  0.00000000000E+00 0.  1.
    9000005    2    1    2  501    0  0.75614531109E+02 -0.39429479244E+02 -0.61818657395E+03  0.62404889798E+03  0.31852318765E+01 0.  0.
         13    1    3    3    0    0  0.12794922050E+01 -0.11005184010E+01 -0.10735023465E+02  0.10866874889E+02  0.00000000000E+00 0.  1.
          3    1    3    3  501    0  0.74335038904E+02 -0.38328960843E+02 -0.60745155049E+03  0.61318202309E+03  0.00000000000E+00 0.  1.
         -1    1    1    2    0  502 -0.75614531109E+02  0.39429479244E+02 -0.37408378055E+03  0.38368074752E+03  0.00000000000E+00 0. -1.
<mgrwt>
<rscale>  1 0.30000000E+03</rscale>
<asrwt>0</asrwt>
<pdfrwt beam="1">  1       21 0.28107861E-01 0.30000000E+03</pdfrwt>
<pdfrwt beam="2">0</pdfrwt>
<totfact> 0.12379242E+03</totfact>
</mgrwt>
</event>
<event>
 6    1  0.6513574E-002  0.3000000E+03  0.7818608E-02  0.1093470E+00
         21   -1    0    0  501  502  0.00000000000E+00  0.00000000000E+00  0.27837376656E+01  0.27837376656E+01  0.00000000000E+00 0. -1.
         13   -1    0    0    0    0 -0.00000000000E+00 -0.00000000000E+00 -0.10000000000E+04  0.10000000000E+04  0.00000000000E+00 0.  1.
    9000005    2    1    2  501    0 -0.29546649173E+02 -0.38642576217E+02 -0.30574355708E+03  0.30960211985E+03  0.28454774432E+01 0.  0.
         13    1    3    3    0    0 -0.18882314466E+02 -0.25087305695E+02 -0.20571355102E+03  0.20809608305E+03  0.00000000000E+00 0.  1.
          1    1    3    3  501    0 -0.10664334707E+02 -0.13555270522E+02 -0.10003000606E+03  0.10150603680E+03  0.00000000000E+00 0.  1.
         -1    1    1    2    0  502  0.29546649173E+02  0.38642576217E+02 -0.69147270525E+03  0.69318161782E+03  0.00000000000E+00 0. -1.
<mgrwt>
<rscale>  1 0.30000000E+03</rscale>
<asrwt>0</asrwt>
<pdfrwt beam="1">  1       21 0.10122704E-01 0.30000000E+03</pdfrwt>
<pdfrwt beam="2">0</pdfrwt>
<totfact> 0.84176795E+03</totfact>
</mgrwt>
</event>
<event>
 6    1  0.6513574E-002  0.3000000E+03  0.7818608E-02  0.1093470E+00
         21   -1    0    0  501  502  0.00000000000E+00  0.00000000000E+00  0.10737594737E+01  0.10737594737E+01  0.00000000000E+00 0. -1.
         13   -1    0    0    0    0 -0.00000000000E+00 -0.00000000000E+00 -0.10000000000E+04  0.10000000000E+04  0.00000000000E+00 0.  1.
    9000005    2    1    2  501    0 -0.19457246168E+02 -0.26017564356E+02 -0.54636356263E+03  0.54734644544E+03  0.44148242501E+01 0.  0.
         13    1    3    3    0    0 -0.24255173724E+01 -0.30172456887E+01 -0.44775190208E+02  0.44942235862E+02  0.00000000000E+00 0.  1.
          3    1    3    3  501    0 -0.17031728795E+02 -0.23000318667E+02 -0.50158837243E+03  0.50240420957E+03  0.00000000000E+00 0.  1.
         -3    1    1    2    0  502  0.19457246168E+02  0.26017564356E+02 -0.45256267789E+03  0.45372731404E+03  0.00000000000E+00 0. -1.
<mgrwt>
<rscale>  1 0.30000000E+03</rscale>
<asrwt>0</asrwt>
<pdfrwt beam="1">  1       21 0.39045881E-02 0.30000000E+03</pdfrwt>
<pdfrwt beam="2">0</pdfrwt>
<totfact> 0.43790978E+04</totfact>
</mgrwt>
</event>
<event>
 6    1  0.6513574E-002  0.3000000E+03  0.7818608E-02  0.1093470E+00
         21   -1    0    0  501  502  0.00000000000E+00  0.00000000000E+00  0.10781196795E+01  0.10781196795E+01  0.00000000000E+00 0. -1.
         13   -1    0    0    0    0 -0.00000000000E+00 -0.00000000000E+00 -0.10000000000E+04  0.10000000000E+04  0.00000000000E+00 0.  1.
    9000005    2    1    2  501    0  0.29297191363E+02 -0.10204881032E+02 -0.66069739297E+03  0.66143379268E+03  0.33394617079E+01 0.  0.
         13    1    3    3    0    0  0.22980308177E+02 -0.89323079451E+01 -0.50062717615E+03  0.50123392761E+03  0.00000000000E+00 0.  1.
          1    1    3    3  501    0  0.63168831859E+01 -0.12725730872E+01 -0.16007021682E+03  0.16019986507E+03  0.00000000000E+00 0.  1.
         -3    1    1    2    0  502 -0.29297191363E+02  0.10204881032E+02 -0.33822448735E+03  0.33964432700E+03  0.00000000000E+00 0. -1.
<mgrwt>
<rscale>  1 0.30000000E+03</rscale>
<asrwt>0</asrwt>
<pdfrwt beam="1">  1       21 0.39204435E-02 0.30000000E+03</pdfrwt>
<pdfrwt beam="2">0</pdfrwt>
<totfact> 0.43493460E+04</totfact>
</mgrwt>
</event>
<event>
 6    1  0.6513574E-002  0.3000000E+03  0.7818608E-02  0.1093470E+00
         21   -1    0    0  501  502  0.00000000000E+00  0.00000000000E+00  0.31187770713E+01  0.31187770713E+01  0.00000000000E+00 0. -1.
         13   -1    0    0    0    0 -0.00000000000E+00 -0.00000000000E+00 -0.10000000000E+04  0.10000000000E+04  0.00000000000E+00 0.  1.
    9000005    2    1    2  501    0  0.34634016152E+02  0.27641585911E+02 -0.80333727084E+03  0.80456693564E+03  0.36892891311E+01 0.  0.
         13    1    3    3    0    0  0.29808817727E+02  0.22159734754E+02 -0.66231114703E+03  0.66335184852E+03  0.00000000000E+00 0.  1.
          3    1    3    3  501    0  0.48251984255E+01  0.54818511576E+01 -0.14102612382E+03  0.14121508712E+03  0.00000000000E+00 0.  1.
         -3    1    1    2    0  502 -0.34634016152E+02 -0.27641585911E+02 -0.19354395208E+03  0.19855184143E+03  0.00000000000E+00 0. -1.
<mgrwt>
<rscale>  1 0.30000000E+03</rscale>
<asrwt>0</asrwt>
<pdfrwt beam="1">  1       21 0.11341031E-01 0.30000000E+03</pdfrwt>
<pdfrwt beam="2">0</pdfrwt>
<totfact> 0.68638930E+03</totfact>
</mgrwt>
</event>
<event>
 6    1  0.6513574E-002  0.3000000E+03  0.7818608E-02  0.1093470E+00
         21   -1    0    0  501  502  0.00000000000E+00  0.00000000000E+00  0.13714987715E+01  0.13714987715E+01  0.00000000000E+00 0. -1.
         13   -1    0    0    0    0 -0.00000000000E+00 -0.00000000000E+00 -0.10000000000E+04  0.10000000000E+04  0.00000000000E+00 0.  1.
    9000005    2    1    2  501    0  0.32931198014E+02  0.15221391726E+02 -0.59529885243E+03  0.59641352543E+03  0.34950034064E+01 0.  0.
         13    1    3    3    0    0  0.18451545588E+02  0.66337610267E+01 -0.32484748979E+03  0.32543871611E+03  0.00000000000E+00 0.  1.
          1    1    3    3  501    0  0.14479652426E+02  0.85876306991E+01 -0.27045136263E+03  0.27097480932E+03  0.00000000000E+00 0.  1.
         -3    1    1    2    0  502 -0.32931198014E+02 -0.15221391726E+02 -0.40332964880E+03  0.40495797334E+03  0.00000000000E+00 0. -1.
<mgrwt>
<rscale>  1 0.30000000E+03</rscale>
<asrwt>0</asrwt>
<pdfrwt beam="1">  1       21 0.49872788E-02 0.30000000E+03</pdfrwt>
<pdfrwt beam="2">0</pdfrwt>
<totfact> 0.28930011E+04</totfact>
</mgrwt>
</event>
<event>
 6    1  0.6513574E-002  0.3000000E+03  0.7818608E-02  0.1093470E+00
         21   -1    0    0  501  502  0.00000000000E+00  0.00000000000E+00  0.10337773502E+01  0.10337773502E+01  0.00000000000E+00 0. -1.
         13   -1    0    0    0    0 -0.00000000000E+00 -0.00000000000E+00 -0.10000000000E+04  0.10000000000E+04  0.00000000000E+00 0.  1.
    9000005    2    1    2  501    0  0.18842444841E+02  0.25620298070E+02 -0.54478591172E+03  0.54574135238E+03  0.55223804710E+01 0.  0.
         13    1    3    3    0    0  0.12906200462E+02  0.16744635472E+02 -0.40285195888E+03  0.40340631329E+03  0.00000000000E+00 0.  1.
          3    1    3    3  501    0  0.59362443786E+01  0.88756625979E+01 -0.14193395284E+03  0.14233503909E+03  0.00000000000E+00 0.  1.
         -1    1    1    2    0  502 -0.18842444841E+02 -0.25620298070E+02 -0.45418031093E+03  0.45529242497E+03  0.00000000000E+00 0. -1.
<mgrwt>
<rscale>  1 0.30000000E+03</rscale>
<asrwt>0</asrwt>
<pdfrwt beam="1">  1       21 0.37591983E-02 0.30000000E+03</pdfrwt>
<pdfrwt beam="2">0</pdfrwt>
<totfact> 0.46674848E+04</totfact>
</mgrwt>
</event>
<event>
 6    1  0.6513574E-002  0.3000000E+03  0.7818608E-02  0.1093470E+00
         21   -1    0    0  501  502  0.00000000000E+00  0.00000000000E+00  0.14288052033E+01  0.14288052033E+01  0.00000000000E+00 0. -1.
         13   -1    0    0    0    0 -0.00000000000E+00 -0.00000000000E+00 -0.10000000000E+04  0.10000000000E+04  0.00000000000E+00 0.  1.
    9000005    2    1    2  501    0 -0.30603348145E+02  0.21866154698E+02 -0.45980655050E+03  0.46135285167E+03  0.31138760274E+01 0.  0.
         13    1    3    3    0    0 -0.16837461056E+02  0.11127926397E+02 -0.22972456494E+03  0.23060942430E+03  0.00000000000E+00 0.  1.
          1    1    3    3  501    0 -0.13765887089E+02  0.10738228301E+02 -0.23008198556E+03  0.23074342737E+03  0.00000000000E+00 0.  1.
         -3    1    1    2    0  502  0.30603348145E+02 -0.21866154698E+02 -0.53876464430E+03  0.54007595353E+03  0.00000000000E+00 0. -1.
<mgrwt>
<rscale>  1 0.30000000E+03</rscale>
<asrwt>0</asrwt>
<pdfrwt beam="1">  1       21 0.51956662E-02 0.30000000E+03</pdfrwt>
<pdfrwt beam="2">0</pdfrwt>
<totfact> 0.26978281E+04</totfact>
</mgrwt>
</event>
<event>
 6    1  0.6513574E-002  0.3000000E+03  0.7818608E-02  0.1093470E+00
         21   -1    0    0  501  502  0.00000000000E+00  0.00000000000E+00  0.19798658087E+01  0.19798658087E+01  0.00000000000E+00 0. -1.
         13   -1    0    0    0    0 -0.00000000000E+00 -0.00000000000E+00 -0.10000000000E+04  0.10000000000E+04  0.00000000000E+00 0.  1.
    9000005    2    1    2  501    0 -0.31448891809E+02  0.24215940949E+02 -0.72507587624E+03  0.72616468758E+03  0.21639299218E+01 0.  0.
         13    1    3    3    0    0 -0.29634318055E+02  0.22157053052E+02 -0.67210712745E+03  0.67312489077E+03  0.00000000000E+00 0.  1.
          3    1    3    3  501    0 -0.18145737531E+01  0.20588878971E+01 -0.52968748789E+02  0.53039796809E+02  0.00000000000E+00 0.  1.
         -3    1    1    2    0  502  0.31448891809E+02 -0.24215940949E+02 -0.27294425795E+03  0.27581517823E+03  0.00000000000E+00 0. -1.
<mgrwt>
<rscale>  1 0.30000000E+03</rscale>
<asrwt>0</asrwt>
<pdfrwt beam="1">  1       21 0.71995272E-02 0.30000000E+03</pdfrwt>
<pdfrwt beam="2">0</pdfrwt>
<totfact> 0.15364174E+04</totfact>
</mgrwt>
</event>
<event>
 6    1  0.6513574E-002  0.3000000E+03  0.7818608E-02  0.1093470E+00
         21   -1    0    0  501  502  0.00000000000E+00  0.00000000000E+00  0.39897126117E+01  0.39897126117E+01  0.00000000000E+00 0. -1.
         13   -1    0    0    0    0 -0.00000000000E+00 -0.00000000000E+00 -0.10000000000E+04  0.10000000000E+04  0.00000000000E+00 0.  1.
    9000005    2    1    2  501    0  0.26142002332E+02  0.27617900437E+02 -0.98169161398E+02  0.10534359749E+03  0.37331717451E+01 0.  0.
         13    1    3    3    0    0  0.21201422781E+02  0.20998806887E+02 -0.80037471688E+02  0.85419243106E+02  0.00000000000E+00 0.  1.
          3    1    3    3  501    0  0.49405795512E+01  0.66190935502E+01 -0.18131689710E+02  0.19924354380E+02  0.00000000000E+00 0.  1.
         -1    1    1    2    0  502 -0.26142002332E+02 -0.27617900437E+02 -0.89784112599E+03  0.89864611513E+03  0.00000000000E+00 0. -1.
<mgrwt>
<rscale>  1 0.30000000E+03</rscale>
<asrwt>0</asrwt>
<pdfrwt beam="1">  1       21 0.14508076E-01 0.30000000E+03</pdfrwt>
<pdfrwt beam="2">0</pdfrwt>
<totfact> 0.43796781E+03</totfact>
</mgrwt>
</event>
<event>
 6    1  0.6513574E-002  0.3000000E+03  0.7818608E-02  0.1093470E+00
         21   -1    0    0  501  502  0.00000000000E+00  0.00000000000E+00  0.12798705004E+01  0.12798705004E+01  0.00000000000E+00 0. -1.
         13   -1    0    0    0    0 -0.00000000000E+00 -0.00000000000E+00 -0.10000000000E+04  0.10000000000E+04  0.00000000000E+00 0.  1.
    9000005    2    1    2  501    0 -0.23268321739E+02 -0.19255295842E+02 -0.76674831975E+03  0.76735017651E+03  0.33356149712E+01 0.  0.
         13    1    3    3    0    0 -0.71254184668E+01 -0.77105953235E+01 -0.28453976884E+03  0.28473339271E+03  0.00000000000E+00 0.  1.
          1    1    3    3  501    0 -0.16142903273E+02 -0.11544700519E+02 -0.48220855091E+03  0.48261678380E+03  0.00000000000E+00 0.  1.
         -1    1    1    2    0  502  0.23268321739E+02  0.19255295842E+02 -0.23197180975E+03  0.23392969399E+03  0.00000000000E+00 0. -1.
<mgrwt>
<rscale>  1 0.30000000E+03</rscale>
<asrwt>0</asrwt>
<pdfrwt beam="1">  1       21 0.46540844E-02 0.30000000E+03</pdfrwt>
<pdfrwt beam="2">0</pdfrwt>
<totfact> 0.32542926E+04</totfact>
</mgrwt>
</event>
<event>
 6    1  0.6513574E-002  0.3000000E+03  0.7818608E-02  0.1093470E+00
         21   -1    0    0  501  502  0.00000000000E+00  0.00000000000E+00  0.23811609323E+01  0.23811609323E+01  0.00000000000E+00 0. -1.
         13   -1    0    0    0    0 -0.00000000000E+00 -0.00000000000E+00 -0.10000000000E+04  0.10000000000E+04  0.00000000000E+00 0.  1.
    9000005    2    1    2  501    0 -0.12211153475E+02 -0.46913013345E+02 -0.52178670487E+03  0.52408610239E+03  0.74117642688E+01 0.  0.
         13    1    3    3    0    0 -0.29036221694E+01 -0.19690124390E+02 -0.24552004226E+03  0.24632544158E+03  0.00000000000E+00 0.  1.
          1    1    3    3  501    0 -0.93075313052E+01 -0.27222888955E+02 -0.27626666262E+03  0.27776066081E+03  0.00000000000E+00 0.  1.
         -1    1    1    2    0  502  0.12211153475E+02  0.46913013345E+02 -0.47583213419E+03  0.47829505854E+03  0.00000000000E+00 0. -1.
<mgrwt>
<rscale>  1 0.30000000E+03</rscale>
<asrwt>0</asrwt>
<pdfrwt beam="1">  1       21 0.86587853E-02 0.30000000E+03</pdfrwt>
<pdfrwt beam="2">0</pdfrwt>
<totfact> 0.11112345E+04</totfact>
</mgrwt>
</event>
<event>
 6    1  0.6513574E-002  0.3000000E+03  0.7818608E-02  0.1093470E+00
         21   -1    0    0  501  502  0.00000000000E+00  0.00000000000E+00  0.18757155332E+01  0.18757155332E+01  0.00000000000E+00 0. -1.
         13   -1    0    0    0    0 -0.00000000000E+00 -0.00000000000E+00 -0.10000000000E+04  0.10000000000E+04  0.00000000000E+00 0.  1.
    9000005    2    1    2  501    0 -0.39464867768E+02 -0.17430818096E+02 -0.53370180295E+03  0.53545364215E+03  0.34174851237E+01 0.  0.
         13    1    3    3    0    0 -0.36387609915E+02 -0.16791467850E+02 -0.48691132439E+03  0.48855772368E+03  0.00000000000E+00 0.  1.
          3    1    3    3  501    0 -0.30772578532E+01 -0.63935024614E+00 -0.46790478567E+02  0.46895918470E+02  0.00000000000E+00 0.  1.
         -1    1    1    2    0  502  0.39464867768E+02  0.17430818096E+02 -0.46442248151E+03  0.46642207339E+03  0.00000000000E+00 0. -1.
<mgrwt>
<rscale>  1 0.30000000E+03</rscale>
<asrwt>0</asrwt>
<pdfrwt beam="1">  1       21 0.68207981E-02 0.30000000E+03</pdfrwt>
<pdfrwt beam="2">0</pdfrwt>
<totfact> 0.16879436E+04</totfact>
</mgrwt>
</event>
<event>
 6    1  0.6513574E-002  0.3000000E+03  0.7818608E-02  0.1093470E+00
         21   -1    0    0  501  502  0.00000000000E+00  0.00000000000E+00  0.34852308941E+01  0.34852308941E+01  0.00000000000E+00 0. -1.
         13   -1    0    0    0    0 -0.00000000000E+00 -0.00000000000E+00 -0.10000000000E+04  0.10000000000E+04  0.00000000000E+00 0.  1.
    9000005    2    1    2  501    0 -0.40454411457E+02 -0.40862798110E+02 -0.38680623015E+03  0.39107129396E+03  0.33718838716E+01 0.  0.
         13    1    3    3    0    0 -0.19136533614E+02 -0.21591737686E+02 -0.19000844918E+03  0.19218642204E+03  0.00000000000E+00 0.  1.
          3    1    3    3  501    0 -0.21317877843E+02 -0.19271060424E+02 -0.19679778097E+03  0.19888487192E+03  0.00000000000E+00 0.  1.
         -3    1    1    2    0  502  0.40454411457E+02  0.40862798110E+02 -0.60970853895E+03  0.61241393693E+03  0.00000000000E+00 0. -1.
<mgrwt>
<rscale>  1 0.30000000E+03</rscale>
<asrwt>0</asrwt>
<pdfrwt beam="1">  1       21 0.12673594E-01 0.30000000E+03</pdfrwt>
<pdfrwt beam="2">0</pdfrwt>
<totfact> 0.56108987E+03</totfact>
</mgrwt>
</event>
<event>
 6    1  0.6513574E-002  0.3000000E+03  0.7818608E-02  0.1093470E+00
         21   -1    0    0  501  502  0.00000000000E+00  0.00000000000E+00  0.12043092267E+01  0.12043092267E+01  0.00000000000E+00 0. -1.
         13   -1    0    0    0    0 -0.00000000000E+00 -0.00000000000E+00 -0.10000000000E+04  0.10000000000E+04  0.00000000000E+00 0.  1.
    9000005    2    1    2  501    0 -0.31436705831E+02  0.86579311514E+01 -0.66281923489E+03  0.66364926905E+03  0.61471876547E+01 0.  0.
         13    1    3    3    0    0 -0.29693148258E+02  0.69388722062E+01 -0.63077556585E+03  0.63151218949E+03  0.00000000000E+00 0.  1.
          1    1    3    3  501    0 -0.17435575732E+01  0.17190589452E+01 -0.32043669038E+02  0.32137079552E+02  0.00000000000E+00 0.  1.
         -3    1    1    2    0  502  0.31436705831E+02 -0.86579311514E+01 -0.33597645588E+03  0.33755504018E+03  0.00000000000E+00 0. -1.
<mgrwt>
<rscale>  1 0.30000000E+03</rscale>
<asrwt>0</asrwt>
<pdfrwt beam="1">  1       21 0.43793155E-02 0.30000000E+03</pdfrwt>
<pdfrwt beam="2">0</pdfrwt>
<totfact> 0.36083230E+04</totfact>
</mgrwt>
</event>
<event>
 6    1  0.6513574E-002  0.3000000E+03  0.7818608E-02  0.1093470E+00
         21   -1    0    0  501  502  0.00000000000E+00  0.00000000000E+00  0.11414871749E+01  0.11414871749E+01  0.00000000000E+00 0. -1.
         13   -1    0    0    0    0 -0.00000000000E+00 -0.00000000000E+00 -0.10000000000E+04  0.10000000000E+04  0.00000000000E+00 0.  1.
    9000005    2    1    2  501    0  0.29818246977E+02 -0.15580549797E+02 -0.52961766148E+03  0.53069610463E+03  0.34068659364E+01 0.  0.
         13    1    3    3    0    0  0.24346981806E+02 -0.11202878875E+02 -0.41518536554E+03  0.41604947756E+03  0.00000000000E+00 0.  1.
          1    1    3    3  501    0  0.54712651713E+01 -0.43776709220E+01 -0.11443229594E+03  0.11464662707E+03  0.00000000000E+00 0.  1.
         -3    1    1    2    0  502 -0.29818246977E+02  0.15580549797E+02 -0.46924085135E+03  0.47044538254E+03  0.00000000000E+00 0. -1.
<mgrwt>
<rscale>  1 0.30000000E+03</rscale>
<asrwt>0</asrwt>
<pdfrwt beam="1">  1       21 0.41508712E-02 0.30000000E+03</pdfrwt>
<pdfrwt beam="2">0</pdfrwt>
<totfact> 0.39503328E+04</totfact>
</mgrwt>
</event>
<event>
 6    1  0.6513574E-002  0.3000000E+03  0.7818608E-02  0.1093470E+00
         21   -1    0    0  501  502  0.00000000000E+00  0.00000000000E+00  0.11099509525E+01  0.11099509525E+01  0.00000000000E+00 0. -1.
         13   -1    0    0    0    0 -0.00000000000E+00 -0.00000000000E+00 -0.10000000000E+04  0.10000000000E+04  0.00000000000E+00 0.  1.
    9000005    2    1    2  501    0  0.29887422619E+02 -0.11664962103E+02 -0.38081380680E+03  0.38220158083E+03  0.54372392787E+01 0.  0.
         13    1    3    3    0    0  0.13529771293E+01 -0.13616774529E+01 -0.13310098620E+02  0.13447804203E+02  0.00000000000E+00 0.  1.
          3    1    3    3  501    0  0.28534445490E+02 -0.10303284650E+02 -0.36750370818E+03  0.36875377663E+03  0.00000000000E+00 0.  1.
         -3    1    1    2    0  502 -0.29887422619E+02  0.11664962103E+02 -0.61807624225E+03  0.61890837012E+03  0.00000000000E+00 0. -1.
<mgrwt>
<rscale>  1 0.30000000E+03</rscale>
<asrwt>0</asrwt>
<pdfrwt beam="1">  1       21 0.40361938E-02 0.30000000E+03</pdfrwt>
<pdfrwt beam="2">0</pdfrwt>
<totfact> 0.41414162E+04</totfact>
</mgrwt>
</event>
<event>
 6    1  0.6513574E-002  0.3000000E+03  0.7818608E-02  0.1093470E+00
         21   -1    0    0  501  502  0.00000000000E+00  0.00000000000E+00  0.20170635579E+01  0.20170635579E+01  0.00000000000E+00 0. -1.
         13   -1    0    0    0    0 -0.00000000000E+00 -0.00000000000E+00 -0.10000000000E+04  0.10000000000E+04  0.00000000000E+00 0.  1.
    9000005    2    1    2  501    0 -0.41495568996E+02 -0.14856470078E+02 -0.59164467157E+03  0.59329541934E+03  0.36660971248E+01 0.  0.
         13    1    3    3    0    0 -0.37104418244E+02 -0.13322907829E+02 -0.51241939096E+03  0.51393372137E+03  0.00000000000E+00 0.  1.
          1    1    3    3  501    0 -0.43911507518E+01 -0.15335622492E+01 -0.79225280606E+02  0.79361697973E+02  0.00000000000E+00 0.  1.
         -3    1    1    2    0  502  0.41495568996E+02  0.14856470078E+02 -0.40633826488E+03  0.40872164422E+03  0.00000000000E+00 0. -1.
<mgrwt>
<rscale>  1 0.30000000E+03</rscale>
<asrwt>0</asrwt>
<pdfrwt beam="1">  1       21 0.73347920E-02 0.30000000E+03</pdfrwt>
<pdfrwt beam="2">0</pdfrwt>
<totfact> 0.14872864E+04</totfact>
</mgrwt>
</event>
<event>
 6    1  0.6513574E-002  0.3000000E+03  0.7818608E-02  0.1093470E+00
         21   -1    0    0  501  502  0.00000000000E+00  0.00000000000E+00  0.17070211293E+01  0.17070211293E+01  0.00000000000E+00 0. -1.
         13   -1    0    0    0    0 -0.00000000000E+00 -0.00000000000E+00 -0.10000000000E+04  0.10000000000E+04  0.00000000000E+00 0.  1.
    9000005    2    1    2  501    0 -0.53647783049E+01  0.40484728501E+02 -0.43167390613E+03  0.43361814808E+03  0.38135316021E+01 0.  0.
         13    1    3    3    0    0 -0.16411315444E+01  0.86576146271E+01 -0.78278487063E+02  0.78772895978E+02  0.00000000000E+00 0.  1.
          3    1    3    3  501    0 -0.37236467605E+01  0.31827113874E+02 -0.35339541907E+03  0.35484525210E+03  0.00000000000E+00 0.  1.
         -3    1    1    2    0  502  0.53647783049E+01 -0.40484728501E+02 -0.56661907274E+03  0.56808887305E+03  0.00000000000E+00 0. -1.
<mgrwt>
<rscale>  1 0.30000000E+03</rscale>
<asrwt>0</asrwt>
<pdfrwt beam="1">  1       21 0.62073627E-02 0.30000000E+03</pdfrwt>
<pdfrwt beam="2">0</pdfrwt>
<totfact> 0.19871566E+04</totfact>
</mgrwt>
</event>
<event>
 6    1  0.6513574E-002  0.3000000E+03  0.7818608E-02  0.1093470E+00
         21   -1    0    0  501  502  0.00000000000E+00  0.00000000000E+00  0.14122565690E+01  0.14122565690E+01  0.00000000000E+00 0. -1.
         13   -1    0    0    0    0 -0.00000000000E+00 -0.00000000000E+00 -0.10000000000E+04  0.10000000000E+04  0.00000000000E+00 0.  1.
    9000005    2    1    2  501    0  0.11154136036E+02 -0.33911362414E+02 -0.34625067181E+03  0.34809912317E+03  0.30127356698E+01 0.  0.
         13    1    3    3    0    0  0.17204577892E+00 -0.29690683815E+00 -0.14629655083E+01  0.15026714541E+01  0.00000000000E+00 0.  1.
          3    1    3    3  501    0  0.10982090257E+02 -0.33614455576E+02 -0.34478770630E+03  0.34659645172E+03  0.00000000000E+00 0.  1.
         -1    1    1    2    0  502 -0.11154136036E+02  0.33911362414E+02 -0.65233707163E+03  0.65331313340E+03  0.00000000000E+00 0. -1.
<mgrwt>
<rscale>  1 0.30000000E+03</rscale>
<asrwt>0</asrwt>
<pdfrwt beam="1">  1       21 0.51354893E-02 0.30000000E+03</pdfrwt>
<pdfrwt beam="2">0</pdfrwt>
<totfact> 0.27520361E+04</totfact>
</mgrwt>
</event>
<event>
 6    1  0.6513574E-002  0.3000000E+03  0.7818608E-02  0.1093470E+00
         21   -1    0    0  501  502  0.00000000000E+00  0.00000000000E+00  0.40133647948E+01  0.40133647948E+01  0.00000000000E+00 0. -1.
         13   -1    0    0    0    0 -0.00000000000E+00 -0.00000000000E+00 -0.10000000000E+04  0.10000000000E+04  0.00000000000E+00 0.  1.
    9000005    2    1    2  501    0 -0.18958553100E+01  0.60356878460E+02 -0.34915284341E+03  0.35436692152E+03  0.46540267549E+01 0.  0.
         13    1    3    3    0    0  0.13013089640E+01  0.30885558326E+02 -0.17525978764E+03  0.17796517716E+03  0.00000000000E+00 0.  1.
          1    1    3    3  501    0 -0.31971642740E+01  0.29471320134E+02 -0.17389305577E+03  0.17640174437E+03  0.00000000000E+00 0.  1.
         -3    1    1    2    0  502  0.18958553100E+01 -0.60356878460E+02 -0.64683379180E+03  0.64964644327E+03  0.00000000000E+00 0. -1.
<mgrwt>
<rscale>  1 0.30000000E+03</rscale>
<asrwt>0</asrwt>
<pdfrwt beam="1">  1       21 0.14594085E-01 0.30000000E+03</pdfrwt>
<pdfrwt beam="2">0</pdfrwt>
<totfact> 0.43321881E+03</totfact>
</mgrwt>
</event>
<event>
 6    1  0.6513574E-002  0.3000000E+03  0.7818608E-02  0.1093470E+00
         21   -1    0    0  501  502  0.00000000000E+00  0.00000000000E+00  0.24564588498E+01  0.24564588498E+01  0.00000000000E+00 0. -1.
         13   -1    0    0    0    0 -0.00000000000E+00 -0.00000000000E+00 -0.10000000000E+04  0.10000000000E+04  0.00000000000E+00 0.  1.
    9000005    2    1    2  501    0  0.36162131083E+02  0.33568980352E+02 -0.45880364986E+03  0.46146177622E+03  0.34067023690E+01 0.  0.
         13    1    3    3    0    0  0.31484318392E+01  0.34996257152E+01 -0.52967973866E+02  0.53176745469E+02  0.00000000000E+00 0.  1.
          3    1    3    3  501    0  0.33013699244E+02  0.30069354637E+02 -0.40583567600E+03  0.40828503075E+03  0.00000000000E+00 0.  1.
         -1    1    1    2    0  502 -0.36162131083E+02 -0.33568980352E+02 -0.53873989129E+03  0.54099468263E+03  0.00000000000E+00 0. -1.
<mgrwt>
<rscale>  1 0.30000000E+03</rscale>
<asrwt>0</asrwt>
<pdfrwt beam="1">  1       21 0.89325965E-02 0.30000000E+03</pdfrwt>
<pdfrwt beam="2">0</pdfrwt>
<totfact> 0.10517186E+04</totfact>
</mgrwt>
</event>
<event>
 6    1  0.6513574E-002  0.3000000E+03  0.7818608E-02  0.1093470E+00
         21   -1    0    0  501  502  0.00000000000E+00  0.00000000000E+00  0.13389909344E+01  0.13389909344E+01  0.00000000000E+00 0. -1.
         13   -1    0    0    0    0 -0.00000000000E+00 -0.00000000000E+00 -0.10000000000E+04  0.10000000000E+04  0.00000000000E+00 0.  1.
    9000005    2    1    2  501    0 -0.53580479116E+01  0.35543276467E+02 -0.41203047575E+03  0.41360825684E+03  0.32625145365E+01 0.  0.
         13    1    3    3    0    0 -0.20921780258E+01  0.20940973726E+02 -0.25457775797E+03  0.25544615175E+03  0.00000000000E+00 0.  1.
          3    1    3    3  501    0 -0.32658698858E+01  0.14602302741E+02 -0.15745271778E+03  0.15816210509E+03  0.00000000000E+00 0.  1.
         -3    1    1    2    0  502  0.53580479116E+01 -0.35543276467E+02 -0.58663053331E+03  0.58773073409E+03  0.00000000000E+00 0. -1.
<mgrwt>
<rscale>  1 0.30000000E+03</rscale>
<asrwt>0</asrwt>
<pdfrwt beam="1">  1       21 0.48690682E-02 0.30000000E+03</pdfrwt>
<pdfrwt beam="2">0</pdfrwt>
<totfact> 0.30136710E+04</totfact>
</mgrwt>
</event>
<event>
 6    1  0.6513574E-002  0.3000000E+03  0.7818608E-02  0.1093470E+00
         21   -1    0    0  501  502  0.00000000000E+00  0.00000000000E+00  0.12106470689E+01  0.12106470689E+01  0.00000000000E+00 0. -1.
         13   -1    0    0    0    0 -0.00000000000E+00 -0.00000000000E+00 -0.10000000000E+04  0.10000000000E+04  0.00000000000E+00 0.  1.
    9000005    2    1    2  501    0 -0.19762563264E+02  0.23751932434E+02 -0.27287976810E+03  0.27464376195E+03  0.33339074499E+01 0.  0.
         13    1    3    3    0    0 -0.18004235894E+02  0.20825374328E+02 -0.24990461966E+03  0.25141632336E+03  0.00000000000E+00 0.  1.
          3    1    3    3  501    0 -0.17583273699E+01  0.29265581057E+01 -0.22975148435E+02  0.23227438582E+02  0.00000000000E+00 0.  1.
         -3    1    1    2    0  502  0.19762563264E+02 -0.23751932434E+02 -0.72590958483E+03  0.72656688512E+03  0.00000000000E+00 0. -1.
<mgrwt>
<rscale>  1 0.30000000E+03</rscale>
<asrwt>0</asrwt>
<pdfrwt beam="1">  1       21 0.44023623E-02 0.30000000E+03</pdfrwt>
<pdfrwt beam="2">0</pdfrwt>
<totfact> 0.35763872E+04</totfact>
</mgrwt>
</event>
<event>
 6    1  0.6513574E-002  0.3000000E+03  0.7818608E-02  0.1093470E+00
         21   -1    0    0  501  502  0.00000000000E+00  0.00000000000E+00  0.51959723479E+01  0.51959723479E+01  0.00000000000E+00 0. -1.
         13   -1    0    0    0    0 -0.00000000000E+00 -0.00000000000E+00 -0.10000000000E+04  0.10000000000E+04  0.00000000000E+00 0.  1.
    9000005    2    1    2  501    0 -0.38823803819E+02  0.55450898707E+02 -0.66969221690E+03  0.67311197785E+03  0.31590251163E+01 0.  0.
         13    1    3    3    0    0 -0.17664673910E+02  0.23773285036E+02 -0.27982362604E+03  0.28138669385E+03  0.00000000000E+00 0.  1.
          1    1    3    3  501    0 -0.21159129909E+02  0.31677613672E+02 -0.38986859086E+03  0.39172528400E+03  0.00000000000E+00 0.  1.
         -3    1    1    2    0  502  0.38823803819E+02 -0.55450898707E+02 -0.32511181075E+03  0.33208399449E+03  0.00000000000E+00 0. -1.
<mgrwt>
<rscale>  1 0.30000000E+03</rscale>
<asrwt>0</asrwt>
<pdfrwt beam="1">  1       21 0.18894485E-01 0.30000000E+03</pdfrwt>
<pdfrwt beam="2">0</pdfrwt>
<totfact> 0.26731464E+03</totfact>
</mgrwt>
</event>
<event>
 6    1  0.6513574E-002  0.3000000E+03  0.7818608E-02  0.1093470E+00
         21   -1    0    0  501  502  0.00000000000E+00  0.00000000000E+00  0.15303849957E+01  0.15303849957E+01  0.00000000000E+00 0. -1.
         13   -1    0    0    0    0 -0.00000000000E+00 -0.00000000000E+00 -0.10000000000E+04  0.10000000000E+04  0.00000000000E+00 0.  1.
    9000005    2    1    2  501    0 -0.35754441097E+02 -0.11117077243E+02 -0.36273535538E+03  0.36469444198E+03  0.48092098474E+01 0.  0.
         13    1    3    3    0    0 -0.16524007940E+02 -0.54864584376E+01 -0.19179795844E+03  0.19258660630E+03  0.00000000000E+00 0.  1.
          3    1    3    3  501    0 -0.19230433156E+02 -0.56306188053E+01 -0.17093739694E+03  0.17210783567E+03  0.00000000000E+00 0.  1.
         -1    1    1    2    0  502  0.35754441097E+02  0.11117077243E+02 -0.63573425962E+03  0.63683594302E+03  0.00000000000E+00 0. -1.
<mgrwt>
<rscale>  1 0.30000000E+03</rscale>
<asrwt>0</asrwt>
<pdfrwt beam="1">  1       21 0.55650481E-02 0.30000000E+03</pdfrwt>
<pdfrwt beam="2">0</pdfrwt>
<totfact> 0.23985469E+04</totfact>
</mgrwt>
</event>
<event>
 6    1  0.6513574E-002  0.3000000E+03  0.7818608E-02  0.1093470E+00
         21   -1    0    0  501  502  0.00000000000E+00  0.00000000000E+00  0.16596887373E+01  0.16596887373E+01  0.00000000000E+00 0. -1.
         13   -1    0    0    0    0 -0.00000000000E+00 -0.00000000000E+00 -0.10000000000E+04  0.10000000000E+04  0.00000000000E+00 0.  1.
    9000005    2    1    2  501    0  0.19911989708E+02 -0.31467878829E+02 -0.70153095650E+03  0.70252341911E+03  0.25993725566E+01 0.  0.
         13    1    3    3    0    0  0.47352785353E+01 -0.76530913635E+01 -0.19130236481E+03  0.19151393540E+03  0.00000000000E+00 0.  1.
          3    1    3    3  501    0  0.15176711173E+02 -0.23814787465E+02 -0.51022859168E+03  0.51100948370E+03  0.00000000000E+00 0.  1.
         -1    1    1    2    0  502 -0.19911989708E+02  0.31467878829E+02 -0.29680935477E+03  0.29913626963E+03  0.00000000000E+00 0. -1.
<mgrwt>
<rscale>  1 0.30000000E+03</rscale>
<asrwt>0</asrwt>
<pdfrwt beam="1">  1       21 0.60352445E-02 0.30000000E+03</pdfrwt>
<pdfrwt beam="2">0</pdfrwt>
<totfact> 0.20859866E+04</totfact>
</mgrwt>
</event>
<event>
 6    1  0.6513574E-002  0.3000000E+03  0.7818608E-02  0.1093470E+00
         21   -1    0    0  501  502  0.00000000000E+00  0.00000000000E+00  0.17022548859E+01  0.17022548859E+01  0.00000000000E+00 0. -1.
         13   -1    0    0    0    0 -0.00000000000E+00 -0.00000000000E+00 -0.10000000000E+04  0.10000000000E+04  0.00000000000E+00 0.  1.
    9000005    2    1    2  501    0 -0.85285218406E+00 -0.41132577357E+02 -0.47113846239E+03  0.47293999674E+03  0.28589328236E+01 0.  0.
         13    1    3    3    0    0 -0.81795911234E+00 -0.38591355846E+02 -0.43309009585E+03  0.43480684554E+03  0.00000000000E+00 0.  1.
          3    1    3    3  501    0 -0.34893071712E-01 -0.25412215110E+01 -0.38048366540E+02  0.38133151203E+02  0.00000000000E+00 0.  1.
         -3    1    1    2    0  502  0.85285218406E+00  0.41132577357E+02 -0.52715928272E+03  0.52876225814E+03  0.00000000000E+00 0. -1.
<mgrwt>
<rscale>  1 0.30000000E+03</rscale>
<asrwt>0</asrwt>
<pdfrwt beam="1">  1       21 0.61900308E-02 0.30000000E+03</pdfrwt>
<pdfrwt beam="2">0</pdfrwt>
<totfact> 0.19967757E+04</totfact>
</mgrwt>
</event>
<event>
 6    1  0.6513574E-002  0.3000000E+03  0.7818608E-02  0.1093470E+00
         21   -1    0    0  501  502  0.00000000000E+00  0.00000000000E+00  0.34232376883E+01  0.34232376883E+01  0.00000000000E+00 0. -1.
         13   -1    0    0    0    0 -0.00000000000E+00 -0.00000000000E+00 -0.10000000000E+04  0.10000000000E+04  0.00000000000E+00 0.  1.
    9000005    2    1    2  501    0 -0.29918938140E+02 -0.10175549797E+02 -0.76988594522E+02  0.83292223641E+02  0.34155760072E+01 0.  0.
         13    1    3    3    0    0 -0.21596623882E+02 -0.79439840475E+01 -0.59542478116E+02  0.63834377461E+02  0.00000000000E+00 0.  1.
          3    1    3    3  501    0 -0.83223142580E+01 -0.22315657495E+01 -0.17446116406E+02  0.19457846180E+02  0.00000000000E+00 0.  1.
         -1    1    1    2    0  502  0.29918938140E+02  0.10175549797E+02 -0.91958816779E+03  0.92013101405E+03  0.00000000000E+00 0. -1.
<mgrwt>
<rscale>  1 0.30000000E+03</rscale>
<asrwt>0</asrwt>
<pdfrwt beam="1">  1       21 0.12448163E-01 0.30000000E+03</pdfrwt>
<pdfrwt beam="2">0</pdfrwt>
<totfact> 0.57974026E+03</totfact>
</mgrwt>
</event>
<event>
 6    1  0.6513574E-002  0.3000000E+03  0.7818608E-02  0.1093470E+00
         21   -1    0    0  501  502  0.00000000000E+00  0.00000000000E+00  0.20855268023E+01  0.20855268023E+01  0.00000000000E+00 0. -1.
         13   -1    0    0    0    0 -0.00000000000E+00 -0.00000000000E+00 -0.10000000000E+04  0.10000000000E+04  0.00000000000E+00 0.  1.
    9000005    2    1    2  501    0 -0.96192516884E+01 -0.43587013869E+02 -0.41071692765E+03  0.41319392789E+03  0.69620111848E+01 0.  0.
         13    1    3    3    0    0 -0.89812268749E+01 -0.29299797619E+02 -0.29863257788E+03  0.30020086134E+03  0.00000000000E+00 0.  1.
          1    1    3    3  501    0 -0.63802481348E+00 -0.14287216250E+02 -0.11208434977E+03  0.11299306654E+03  0.00000000000E+00 0.  1.
         -3    1    1    2    0  502  0.96192516884E+01  0.43587013869E+02 -0.58719754554E+03  0.58889159892E+03  0.00000000000E+00 0. -1.
<mgrwt>
<rscale>  1 0.30000000E+03</rscale>
<asrwt>0</asrwt>
<pdfrwt beam="1">  1       21 0.75837498E-02 0.30000000E+03</pdfrwt>
<pdfrwt beam="2">0</pdfrwt>
<totfact> 0.14028963E+04</totfact>
</mgrwt>
</event>
<event>
 6    1  0.6513574E-002  0.3000000E+03  0.7818608E-02  0.1093470E+00
         21   -1    0    0  501  502  0.00000000000E+00  0.00000000000E+00  0.12750507740E+01  0.12750507740E+01  0.00000000000E+00 0. -1.
         13   -1    0    0    0    0 -0.00000000000E+00 -0.00000000000E+00 -0.10000000000E+04  0.10000000000E+04  0.00000000000E+00 0.  1.
    9000005    2    1    2  501    0  0.25276501121E+02  0.22669629803E+02 -0.65089751551E+03  0.65179438282E+03  0.39405788153E+01 0.  0.
         13    1    3    3    0    0  0.84205099909E+00  0.96794755620E+00 -0.42923891460E+02  0.42943060329E+02  0.00000000000E+00 0.  1.
          1    1    3    3  501    0  0.24434450122E+02  0.21701682247E+02 -0.60797362405E+03  0.60885132250E+03  0.00000000000E+00 0.  1.
         -3    1    1    2    0  502 -0.25276501121E+02 -0.22669629803E+02 -0.34782743372E+03  0.34948066795E+03  0.00000000000E+00 0. -1.
<mgrwt>
<rscale>  1 0.30000000E+03</rscale>
<asrwt>0</asrwt>
<pdfrwt beam="1">  1       21 0.46365580E-02 0.30000000E+03</pdfrwt>
<pdfrwt beam="2">0</pdfrwt>
<totfact> 0.32752266E+04</totfact>
</mgrwt>
</event>
<event>
 6    1  0.6513574E-002  0.3000000E+03  0.7818608E-02  0.1093470E+00
         21   -1    0    0  501  502  0.00000000000E+00  0.00000000000E+00  0.10539240472E+01  0.10539240472E+01  0.00000000000E+00 0. -1.
         13   -1    0    0    0    0 -0.00000000000E+00 -0.00000000000E+00 -0.10000000000E+04  0.10000000000E+04  0.00000000000E+00 0.  1.
    9000005    2    1    2  501    0  0.67118078160E+01 -0.30842962045E+02 -0.39183643973E+03  0.39312428415E+03  0.38171475923E+01 0.  0.
         13    1    3    3    0    0  0.60403272367E+01 -0.19109687583E+02 -0.24824995749E+03  0.24905763812E+03  0.00000000000E+00 0.  1.
          3    1    3    3  501    0  0.67148057927E+00 -0.11733274463E+02 -0.14358648224E+03  0.14406664603E+03  0.00000000000E+00 0.  1.
         -3    1    1    2    0  502 -0.67118078160E+01  0.30842962045E+02 -0.60710963622E+03  0.60792963990E+03  0.00000000000E+00 0. -1.
<mgrwt>
<rscale>  1 0.30000000E+03</rscale>
<asrwt>0</asrwt>
<pdfrwt beam="1">  1       21 0.38324592E-02 0.30000000E+03</pdfrwt>
<pdfrwt beam="2">0</pdfrwt>
<totfact> 0.45185602E+04</totfact>
</mgrwt>
</event>
<event>
 6    1  0.6513574E-002  0.3000000E+03  0.7818608E-02  0.1093470E+00
         21   -1    0    0  501  502  0.00000000000E+00  0.00000000000E+00  0.29612259735E+01  0.29612259735E+01  0.00000000000E+00 0. -1.
         13   -1    0    0    0    0 -0.00000000000E+00 -0.00000000000E+00 -0.10000000000E+04  0.10000000000E+04  0.00000000000E+00 0.  1.
    9000005    2    1    2  501    0  0.44179935398E+02 -0.31230477272E+02 -0.44923619358E+03  0.45249335539E+03  0.31415992922E+01 0.  0.
         13    1    3    3    0    0  0.18312443987E+02 -0.14823002651E+02 -0.19304590452E+03  0.19447824625E+03  0.00000000000E+00 0.  1.
          1    1    3    3  501    0  0.25867491411E+02 -0.16407474621E+02 -0.25619028906E+03  0.25801510914E+03  0.00000000000E+00 0.  1.
         -3    1    1    2    0  502 -0.44179935398E+02  0.31230477272E+02 -0.54780258045E+03  0.55046787059E+03  0.00000000000E+00 0. -1.
<mgrwt>
<rscale>  1 0.30000000E+03</rscale>
<asrwt>0</asrwt>
<pdfrwt beam="1">  1       21 0.10768117E-01 0.30000000E+03</pdfrwt>
<pdfrwt beam="2">0</pdfrwt>
<totfact> 0.75351444E+03</totfact>
</mgrwt>
</event>
<event>
 6    1  0.6513574E-002  0.3000000E+03  0.7818608E-02  0.1093470E+00
         21   -1    0    0  501  502  0.00000000000E+00  0.00000000000E+00  0.11205621494E+01  0.11205621494E+01  0.00000000000E+00 0. -1.
         13   -1    0    0    0    0 -0.00000000000E+00 -0.00000000000E+00 -0.10000000000E+04  0.10000000000E+04  0.00000000000E+00 0.  1.
    9000005    2    1    2  501    0  0.14717698909E+02  0.29195309301E+02 -0.39792817449E+03  0.39928055211E+03  0.30249786921E+01 0.  0.
         13    1    3    3    0    0  0.93649496436E+01  0.18177289879E+02 -0.23076022057E+03  0.23166440285E+03  0.00000000000E+00 0.  1.
          1    1    3    3  501    0  0.53527492654E+01  0.11018019422E+02 -0.16716795392E+03  0.16761614926E+03  0.00000000000E+00 0.  1.
         -3    1    1    2    0  502 -0.14717698909E+02 -0.29195309301E+02 -0.60095126336E+03  0.60184001004E+03  0.00000000000E+00 0. -1.
<mgrwt>
<rscale>  1 0.30000000E+03</rscale>
<asrwt>0</asrwt>
<pdfrwt beam="1">  1       21 0.40747800E-02 0.30000000E+03</pdfrwt>
<pdfrwt beam="2">0</pdfrwt>
<totfact> 0.40755404E+04</totfact>
</mgrwt>
</event>
<event>
 6    1  0.6513574E-002  0.3000000E+03  0.7818608E-02  0.1093470E+00
         21   -1    0    0  501  502  0.00000000000E+00  0.00000000000E+00  0.26203541426E+01  0.26203541426E+01  0.00000000000E+00 0. -1.
         13   -1    0    0    0    0 -0.00000000000E+00 -0.00000000000E+00 -0.10000000000E+04  0.10000000000E+04  0.00000000000E+00 0.  1.
    9000005    2    1    2  501    0 -0.43159299601E+02 -0.17746711060E+02 -0.29440624725E+03  0.29809975825E+03  0.32797179558E+01 0.  0.
         13    1    3    3    0    0 -0.31945828601E+02 -0.13435773057E+02 -0.22725466077E+03  0.22988200626E+03  0.00000000000E+00 0.  1.
          3    1    3    3  501    0 -0.11213470999E+02 -0.43109380027E+01 -0.67151586486E+02  0.68217751985E+02  0.00000000000E+00 0.  1.
         -1    1    1    2    0  502  0.43159299601E+02  0.17746711060E+02 -0.70297339860E+03  0.70452059590E+03  0.00000000000E+00 0. -1.
<mgrwt>
<rscale>  1 0.30000000E+03</rscale>
<asrwt>0</asrwt>
<pdfrwt beam="1">  1       21 0.95285806E-02 0.30000000E+03</pdfrwt>
<pdfrwt beam="2">0</pdfrwt>
<totfact> 0.93774010E+03</totfact>
</mgrwt>
</event>
<event>
 6    1  0.6513574E-002  0.3000000E+03  0.7818608E-02  0.1093470E+00
         21   -1    0    0  501  502  0.00000000000E+00  0.00000000000E+00  0.14126378167E+01  0.14126378167E+01  0.00000000000E+00 0. -1.
         13   -1    0    0    0    0 -0.00000000000E+00 -0.00000000000E+00 -0.10000000000E+04  0.10000000000E+04  0.00000000000E+00 0.  1.
    9000005    2    1    2  501    0 -0.31053004099E+02 -0.13896947533E+02 -0.70134553221E+03  0.70223021904E+03  0.91820901325E+01 0.  0.
         13    1    3    3    0    0 -0.28305711939E+01 -0.57729331669E+00 -0.13074298264E+03  0.13077489403E+03  0.00000000000E+00 0.  1.
          1    1    3    3  501    0 -0.28222432905E+02 -0.13319654216E+02 -0.57060254957E+03  0.57145532501E+03  0.00000000000E+00 0.  1.
         -3    1    1    2    0  502  0.31053004099E+02  0.13896947533E+02 -0.29724182998E+03  0.29918241877E+03  0.00000000000E+00 0. -1.
<mgrwt>
<rscale>  1 0.30000000E+03</rscale>
<asrwt>0</asrwt>
<pdfrwt beam="1">  1       21 0.51368756E-02 0.30000000E+03</pdfrwt>
<pdfrwt beam="2">0</pdfrwt>
<totfact> 0.27507683E+04</totfact>
</mgrwt>
</event>
<event>
 6    1  0.6513574E-002  0.3000000E+03  0.7818608E-02  0.1093470E+00
         21   -1    0    0  501  502  0.00000000000E+00  0.00000000000E+00  0.21188459440E+01  0.21188459440E+01  0.00000000000E+00 0. -1.
         13   -1    0    0    0    0 -0.00000000000E+00 -0.00000000000E+00 -0.10000000000E+04  0.10000000000E+04  0.00000000000E+00 0.  1.
    9000005    2    1    2  501    0  0.35101254932E+01  0.44611552384E+02 -0.38465980121E+03  0.38726688070E+03  0.31563630325E+01 0.  0.
         13    1    3    3    0    0  0.88209747259E+00  0.25287708648E+02 -0.20759810259E+03  0.20913445078E+03  0.00000000000E+00 0.  1.
          3    1    3    3  501    0  0.26280280206E+01  0.19323843735E+02 -0.17706169863E+03  0.17813242992E+03  0.00000000000E+00 0.  1.
         -1    1    1    2    0  502 -0.35101254932E+01 -0.44611552384E+02 -0.61322135284E+03  0.61485196525E+03  0.00000000000E+00 0. -1.
<mgrwt>
<rscale>  1 0.30000000E+03</rscale>
<asrwt>0</asrwt>
<pdfrwt beam="1">  1       21 0.77049106E-02 0.30000000E+03</pdfrwt>
<pdfrwt beam="2">0</pdfrwt>
<totfact> 0.13644671E+04</totfact>
</mgrwt>
</event>
<event>
 6    1  0.6513574E-002  0.3000000E+03  0.7818608E-02  0.1093470E+00
         21   -1    0    0  501  502  0.00000000000E+00  0.00000000000E+00  0.21639837336E+01  0.21639837336E+01  0.00000000000E+00 0. -1.
         13   -1    0    0    0    0 -0.00000000000E+00 -0.00000000000E+00 -0.10000000000E+04  0.10000000000E+04  0.00000000000E+00 0.  1.
    9000005    2    1    2  501    0  0.40515021609E+02  0.22604460634E+02 -0.47492369270E+03  0.47719757837E+03  0.35477180832E+01 0.  0.
         13    1    3    3    0    0  0.24186685487E+02  0.13957115436E+02 -0.26822233756E+03  0.26967205860E+03  0.00000000000E+00 0.  1.
          3    1    3    3  501    0  0.16328336121E+02  0.86473451974E+01 -0.20670135514E+03  0.20752551977E+03  0.00000000000E+00 0.  1.
         -3    1    1    2    0  502 -0.40515021609E+02 -0.22604460634E+02 -0.52291232357E+03  0.52496640536E+03  0.00000000000E+00 0. -1.
<mgrwt>
<rscale>  1 0.30000000E+03</rscale>
<asrwt>0</asrwt>
<pdfrwt beam="1">  1       21 0.78690484E-02 0.30000000E+03</pdfrwt>
<pdfrwt beam="2">0</pdfrwt>
<totfact> 0.13149420E+04</totfact>
</mgrwt>
</event>
<event>
 6    1  0.6513574E-002  0.3000000E+03  0.7818608E-02  0.1093470E+00
         21   -1    0    0  501  502  0.00000000000E+00  0.00000000000E+00  0.10653490240E+01  0.10653490240E+01  0.00000000000E+00 0. -1.
         13   -1    0    0    0    0 -0.00000000000E+00 -0.00000000000E+00 -0.10000000000E+04  0.10000000000E+04  0.00000000000E+00 0.  1.
    9000005    2    1    2  501    0 -0.79621532492E+00 -0.31757138949E+02 -0.61028130688E+03  0.61111590139E+03  0.31971192625E+01 0.  0.
         13    1    3    3    0    0 -0.38312729797E+00 -0.26999466543E+02 -0.49534256799E+03  0.49607799553E+03  0.00000000000E+00 0.  1.
          3    1    3    3  501    0 -0.41308802696E+00 -0.47576724060E+01 -0.11493873889E+03  0.11503790587E+03  0.00000000000E+00 0.  1.
         -3    1    1    2    0  502  0.79621532492E+00  0.31757138949E+02 -0.38865334409E+03  0.38994944763E+03  0.00000000000E+00 0. -1.
<mgrwt>
<rscale>  1 0.30000000E+03</rscale>
<asrwt>0</asrwt>
<pdfrwt beam="1">  1       21 0.38740046E-02 0.30000000E+03</pdfrwt>
<pdfrwt beam="2">0</pdfrwt>
<totfact> 0.44373953E+04</totfact>
</mgrwt>
</event>
<event>
 6    1  0.6513574E-002  0.3000000E+03  0.7818608E-02  0.1093470E+00
         21   -1    0    0  501  502  0.00000000000E+00  0.00000000000E+00  0.26989926941E+01  0.26989926941E+01  0.00000000000E+00 0. -1.
         13   -1    0    0    0    0 -0.00000000000E+00 -0.00000000000E+00 -0.10000000000E+04  0.10000000000E+04  0.00000000000E+00 0.  1.
    9000005    2    1    2  501    0 -0.51092064794E+02  0.89956212693E+01 -0.48565366565E+03  0.48842832222E+03  0.33797485013E+01 0.  0.
         13    1    3    3    0    0 -0.45875781557E+02  0.90231527339E+01 -0.44051897422E+03  0.44299319551E+03  0.00000000000E+00 0.  1.
          3    1    3    3  501    0 -0.52162832366E+01 -0.27531464647E-01 -0.45134691429E+02  0.45435126710E+02  0.00000000000E+00 0.  1.
         -1    1    1    2    0  502  0.51092064794E+02 -0.89956212693E+01 -0.51164734166E+03  0.51427067048E+03  0.00000000000E+00 0. -1.
<mgrwt>
<rscale>  1 0.30000000E+03</rscale>
<asrwt>0</asrwt>
<pdfrwt beam="1">  1       21 0.98145396E-02 0.30000000E+03</pdfrwt>
<pdfrwt beam="2">0</pdfrwt>
<totfact> 0.88956792E+03</totfact>
</mgrwt>
</event>
<event>
 6    1  0.6513574E-002  0.3000000E+03  0.7818608E-02  0.1093470E+00
         21   -1    0    0  501  502  0.00000000000E+00  0.00000000000E+00  0.48277400236E+01  0.48277400236E+01  0.00000000000E+00 0. -1.
         13   -1    0    0    0    0 -0.00000000000E+00 -0.00000000000E+00 -0.10000000000E+04  0.10000000000E+04  0.00000000000E+00 0.  1.
    9000005    2    1    2  501    0  0.85305605337E+01  0.66257947506E+02 -0.63423192289E+03  0.63775715688E+03  0.46014207203E+01 0.  0.
         13    1    3    3    0    0  0.10586720553E+01  0.19323101371E+01 -0.20082493743E+02  0.20202998884E+02  0.00000000000E+00 0.  1.
          1    1    3    3  501    0  0.74718884784E+01  0.64325637369E+02 -0.61414942914E+03  0.61755415800E+03  0.00000000000E+00 0.  1.
         -1    1    1    2    0  502 -0.85305605337E+01 -0.66257947506E+02 -0.36094033709E+03  0.36707058314E+03  0.00000000000E+00 0. -1.
<mgrwt>
<rscale>  1 0.30000000E+03</rscale>
<asrwt>0</asrwt>
<pdfrwt beam="1">  1       21 0.17555455E-01 0.30000000E+03</pdfrwt>
<pdfrwt beam="2">0</pdfrwt>
<totfact> 0.30706425E+03</totfact>
</mgrwt>
</event>
<event>
 6    1  0.6513574E-002  0.3000000E+03  0.7818608E-02  0.1093470E+00
         21   -1    0    0  501  502  0.00000000000E+00  0.00000000000E+00  0.16776353088E+01  0.16776353088E+01  0.00000000000E+00 0. -1.
         13   -1    0    0    0    0 -0.00000000000E+00 -0.00000000000E+00 -0.10000000000E+04  0.10000000000E+04  0.00000000000E+00 0.  1.
    9000005    2    1    2  501    0  0.35235318147E+02 -0.19533573298E+02 -0.55089726755E+03  0.55244238994E+03  0.90391745593E+01 0.  0.
         13    1    3    3    0    0  0.21725162900E+02 -0.78534227251E+01 -0.34465465596E+03  0.34542798212E+03  0.00000000000E+00 0.  1.
          3    1    3    3  501    0  0.13510155248E+02 -0.11680150573E+02 -0.20624261159E+03  0.20701440782E+03  0.00000000000E+00 0.  1.
         -1    1    1    2    0  502 -0.35235318147E+02  0.19533573298E+02 -0.44742509714E+03  0.44923524537E+03  0.00000000000E+00 0. -1.
<mgrwt>
<rscale>  1 0.30000000E+03</rscale>
<asrwt>0</asrwt>
<pdfrwt beam="1">  1       21 0.61005049E-02 0.30000000E+03</pdfrwt>
<pdfrwt beam="2">0</pdfrwt>
<totfact> 0.20476332E+04</totfact>
</mgrwt>
</event>
<event>
 6    1  0.6513574E-002  0.3000000E+03  0.7818608E-02  0.1093470E+00
         21   -1    0    0  501  502  0.00000000000E+00  0.00000000000E+00  0.10304624426E+01  0.10304624426E+01  0.00000000000E+00 0. -1.
         13   -1    0    0    0    0 -0.00000000000E+00 -0.00000000000E+00 -0.10000000000E+04  0.10000000000E+04  0.00000000000E+00 0.  1.
    9000005    2    1    2  501    0  0.54159777357E+01  0.30614646758E+02 -0.61851331292E+03  0.61930604840E+03  0.38306545720E+01 0.  0.
         13    1    3    3    0    0 -0.27550988836E+00  0.53945809313E+01 -0.12336662396E+03  0.12348482221E+03  0.00000000000E+00 0.  1.
          3    1    3    3  501    0  0.56914876241E+01  0.25220065827E+02 -0.49514668896E+03  0.49582122619E+03  0.00000000000E+00 0.  1.
         -1    1    1    2    0  502 -0.54159777357E+01 -0.30614646758E+02 -0.38045622463E+03  0.38172441404E+03  0.00000000000E+00 0. -1.
<mgrwt>
<rscale>  1 0.30000000E+03</rscale>
<asrwt>0</asrwt>
<pdfrwt beam="1">  1       21 0.37471441E-02 0.30000000E+03</pdfrwt>
<pdfrwt beam="2">0</pdfrwt>
<totfact> 0.46927273E+04</totfact>
</mgrwt>
</event>
<event>
 6    1  0.6513574E-002  0.3000000E+03  0.7818608E-02  0.1093470E+00
         21   -1    0    0  501  502  0.00000000000E+00  0.00000000000E+00  0.18569902685E+01  0.18569902685E+01  0.00000000000E+00 0. -1.
         13   -1    0    0    0    0 -0.00000000000E+00 -0.00000000000E+00 -0.10000000000E+04  0.10000000000E+04  0.00000000000E+00 0.  1.
    9000005    2    1    2  501    0 -0.73377646126E+01 -0.42395581204E+02 -0.51490503456E+03  0.51670735485E+03  0.28403960707E+01 0.  0.
         13    1    3    3    0    0 -0.30297366799E+01 -0.10451634816E+02 -0.12673800449E+03  0.12720431501E+03  0.00000000000E+00 0.  1.
          1    1    3    3  501    0 -0.43080279328E+01 -0.31943946388E+02 -0.38816703007E+03  0.38950303984E+03  0.00000000000E+00 0.  1.
         -1    1    1    2    0  502  0.73377646126E+01  0.42395581204E+02 -0.48323797517E+03  0.48514963542E+03  0.00000000000E+00 0. -1.
<mgrwt>
<rscale>  1 0.30000000E+03</rscale>
<asrwt>0</asrwt>
<pdfrwt beam="1">  1       21 0.67527061E-02 0.30000000E+03</pdfrwt>
<pdfrwt beam="2">0</pdfrwt>
<totfact> 0.17176053E+04</totfact>
</mgrwt>
</event>
<event>
 6    1  0.6513574E-002  0.3000000E+03  0.7818608E-02  0.1093470E+00
         21   -1    0    0  501  502  0.00000000000E+00  0.00000000000E+00  0.11966005699E+01  0.11966005699E+01  0.00000000000E+00 0. -1.
         13   -1    0    0    0    0 -0.00000000000E+00 -0.00000000000E+00 -0.10000000000E+04  0.10000000000E+04  0.00000000000E+00 0.  1.
    9000005    2    1    2  501    0 -0.10849294516E+02  0.32713229374E+02 -0.52505721472E+03  0.52619837942E+03  0.34341240479E+01 0.  0.
         13    1    3    3    0    0 -0.50596406214E+01  0.11014158370E+02 -0.16988358539E+03  0.17031542571E+03  0.00000000000E+00 0.  1.
          3    1    3    3  501    0 -0.57896538943E+01  0.21699071004E+02 -0.35517362932E+03  0.35588295371E+03  0.00000000000E+00 0.  1.
         -3    1    1    2    0  502  0.10849294516E+02 -0.32713229374E+02 -0.47374618471E+03  0.47499822115E+03  0.00000000000E+00 0. -1.
<mgrwt>
<rscale>  1 0.30000000E+03</rscale>
<asrwt>0</asrwt>
<pdfrwt beam="1">  1       21 0.43512840E-02 0.30000000E+03</pdfrwt>
<pdfrwt beam="2">0</pdfrwt>
<totfact> 0.36477648E+04</totfact>
</mgrwt>
</event>
<event>
 6    1  0.6513574E-002  0.3000000E+03  0.7818608E-02  0.1093470E+00
         21   -1    0    0  501  502  0.00000000000E+00  0.00000000000E+00  0.13123219381E+01  0.13123219381E+01  0.00000000000E+00 0. -1.
         13   -1    0    0    0    0 -0.00000000000E+00 -0.00000000000E+00 -0.10000000000E+04  0.10000000000E+04  0.00000000000E+00 0.  1.
    9000005    2    1    2  501    0  0.26980409264E+02  0.20601787858E+02 -0.67247374042E+03  0.67333685142E+03  0.30344331192E+01 0.  0.
         13    1    3    3    0    0  0.15586531207E+02  0.12027338706E+02 -0.41909834238E+03  0.41956050507E+03  0.00000000000E+00 0.  1.
          3    1    3    3  501    0  0.11393878058E+02  0.85744491522E+01 -0.25337539804E+03  0.25377634635E+03  0.00000000000E+00 0.  1.
         -1    1    1    2    0  502 -0.26980409264E+02 -0.20601787858E+02 -0.32621393765E+03  0.32797547052E+03  0.00000000000E+00 0. -1.
<mgrwt>
<rscale>  1 0.30000000E+03</rscale>
<asrwt>0</asrwt>
<pdfrwt beam="1">  1       21 0.47720898E-02 0.30000000E+03</pdfrwt>
<pdfrwt beam="2">0</pdfrwt>
<totfact> 0.31186440E+04</totfact>
</mgrwt>
</event>
<event>
 6    1  0.6513574E-002  0.3000000E+03  0.7818608E-02  0.1093470E+00
         21   -1    0    0  501  502  0.00000000000E+00  0.00000000000E+00  0.15711674559E+01  0.15711674559E+01  0.00000000000E+00 0. -1.
         13   -1    0    0    0    0 -0.00000000000E+00 -0.00000000000E+00 -0.10000000000E+04  0.10000000000E+04  0.00000000000E+00 0.  1.
    9000005    2    1    2  501    0  0.32203483127E+02  0.19953043930E+02 -0.64390304814E+03  0.64502703261E+03  0.36809105845E+01 0.  0.
         13    1    3    3    0    0  0.54144027206E+01  0.28223967088E+01 -0.83851740559E+02  0.84073753781E+02  0.00000000000E+00 0.  1.
          3    1    3    3  501    0  0.26789080407E+02  0.17130647221E+02 -0.56005130758E+03  0.56095327882E+03  0.00000000000E+00 0.  1.
         -3    1    1    2    0  502 -0.32203483127E+02 -0.19953043930E+02 -0.35452578441E+03  0.35654413485E+03  0.00000000000E+00 0. -1.
<mgrwt>
<rscale>  1 0.30000000E+03</rscale>
<asrwt>0</asrwt>
<pdfrwt beam="1">  1       21 0.57133483E-02 0.30000000E+03</pdfrwt>
<pdfrwt beam="2">0</pdfrwt>
<totfact> 0.22925856E+04</totfact>
</mgrwt>
</event>
<event>
 6    1  0.6513574E-002  0.3000000E+03  0.7818608E-02  0.1093470E+00
         21   -1    0    0  501  502  0.00000000000E+00  0.00000000000E+00  0.93539010032E+00  0.93539010032E+00  0.00000000000E+00 0. -1.
         13   -1    0    0    0    0 -0.00000000000E+00 -0.00000000000E+00 -0.10000000000E+04  0.10000000000E+04  0.00000000000E+00 0.  1.
    9000005    2    1    2  501    0 -0.21799265877E+02  0.21254097312E+02 -0.49216764679E+03  0.49312491773E+03  0.40307924975E+01 0.  0.
         13    1    3    3    0    0 -0.87161454111E+01  0.61388219476E+01 -0.15685743827E+03  0.15721931263E+03  0.00000000000E+00 0.  1.
          3    1    3    3  501    0 -0.13083120465E+02  0.15115275364E+02 -0.33531020853E+03  0.33590560510E+03  0.00000000000E+00 0.  1.
         -3    1    1    2    0  502  0.21799265877E+02 -0.21254097312E+02 -0.50689696310E+03  0.50781047237E+03  0.00000000000E+00 0. -1.
<mgrwt>
<rscale>  1 0.30000000E+03</rscale>
<asrwt>0</asrwt>
<pdfrwt beam="1">  1       21 0.34014257E-02 0.30000000E+03</pdfrwt>
<pdfrwt beam="2">0</pdfrwt>
<totfact> 0.55192339E+04</totfact>
</mgrwt>
</event>
<event>
 6    1  0.6513574E-002  0.3000000E+03  0.7818608E-02  0.1093470E+00
         21   -1    0    0  501  502  0.00000000000E+00  0.00000000000E+00  0.21232359921E+01  0.21232359921E+01  0.00000000000E+00 0. -1.
         13   -1    0    0    0    0 -0.00000000000E+00 -0.00000000000E+00 -0.10000000000E+04  0.10000000000E+04  0.00000000000E+00 0.  1.
    9000005    2    1    2  501    0 -0.29026236907E+02  0.12299146641E+02 -0.86326103388E+03  0.86386555542E+03  0.70918123649E+01 0.  0.
         13    1    3    3    0    0 -0.19941555593E+02  0.48247908783E+01 -0.56668605179E+03  0.56705733884E+03  0.00000000000E+00 0.  1.
          3    1    3    3  501    0 -0.90846813138E+01  0.74743557624E+01 -0.29657498209E+03  0.29680821658E+03  0.00000000000E+00 0.  1.
         -1    1    1    2    0  502  0.29026236907E+02 -0.12299146641E+02 -0.13461573013E+03  0.13825768057E+03  0.00000000000E+00 0. -1.
<mgrwt>
<rscale>  1 0.30000000E+03</rscale>
<asrwt>0</asrwt>
<pdfrwt beam="1">  1       21 0.77208744E-02 0.30000000E+03</pdfrwt>
<pdfrwt beam="2">0</pdfrwt>
<totfact> 0.13595251E+04</totfact>
</mgrwt>
</event>
<event>
 6    1  0.6513574E-002  0.3000000E+03  0.7818608E-02  0.1093470E+00
         21   -1    0    0  501  502  0.00000000000E+00  0.00000000000E+00  0.10120946321E+01  0.10120946321E+01  0.00000000000E+00 0. -1.
         13   -1    0    0    0    0 -0.00000000000E+00 -0.00000000000E+00 -0.10000000000E+04  0.10000000000E+04  0.00000000000E+00 0.  1.
    9000005    2    1    2  501    0  0.18968893565E+02 -0.25135910600E+02 -0.56548865703E+03  0.56637059727E+03  0.25689085279E+01 0.  0.
         13    1    3    3    0    0  0.12838896548E+02 -0.18569184737E+02 -0.39202718700E+03  0.39267667010E+03  0.00000000000E+00 0.  1.
          1    1    3    3  501    0  0.61299970167E+01 -0.65667258628E+01 -0.17346147003E+03  0.17369392717E+03  0.00000000000E+00 0.  1.
         -1    1    1    2    0  502 -0.18968893565E+02  0.25135910600E+02 -0.43349924833E+03  0.43464149736E+03  0.00000000000E+00 0. -1.
<mgrwt>
<rscale>  1 0.30000000E+03</rscale>
<asrwt>0</asrwt>
<pdfrwt beam="1">  1       21 0.36803519E-02 0.30000000E+03</pdfrwt>
<pdfrwt beam="2">0</pdfrwt>
<totfact> 0.48365711E+04</totfact>
</mgrwt>
</event>
<event>
 6    1  0.6513574E-002  0.3000000E+03  0.7818608E-02  0.1093470E+00
         21   -1    0    0  501  502  0.00000000000E+00  0.00000000000E+00  0.93648040661E+00  0.93648040661E+00  0.00000000000E+00 0. -1.
         13   -1    0    0    0    0 -0.00000000000E+00 -0.00000000000E+00 -0.10000000000E+04  0.10000000000E+04  0.00000000000E+00 0.  1.
    9000005    2    1    2  501    0  0.43307192266E+01 -0.30185303581E+02 -0.50958182067E+03  0.51050581124E+03  0.35557935850E+01 0.  0.
         13    1    3    3    0    0  0.32090075173E+01 -0.18186440658E+02 -0.33489498037E+03  0.33540377492E+03  0.00000000000E+00 0.  1.
          3    1    3    3  501    0  0.11217117093E+01 -0.11998862923E+02 -0.17468684030E+03  0.17510203632E+03  0.00000000000E+00 0.  1.
         -3    1    1    2    0  502 -0.43307192266E+01  0.30185303581E+02 -0.48948169892E+03  0.49043066917E+03  0.00000000000E+00 0. -1.
<mgrwt>
<rscale>  1 0.30000000E+03</rscale>
<asrwt>0</asrwt>
<pdfrwt beam="1">  1       21 0.34053905E-02 0.30000000E+03</pdfrwt>
<pdfrwt beam="2">0</pdfrwt>
<totfact> 0.55084991E+04</totfact>
</mgrwt>
</event>
<event>
 6    1  0.6513574E-002  0.3000000E+03  0.7818608E-02  0.1093470E+00
         21   -1    0    0  501  502  0.00000000000E+00  0.00000000000E+00  0.11646847019E+01  0.11646847019E+01  0.00000000000E+00 0. -1.
         13   -1    0    0    0    0 -0.00000000000E+00 -0.00000000000E+00 -0.10000000000E+04  0.10000000000E+04  0.00000000000E+00 0.  1.
    9000005    2    1    2  501    0 -0.33969028685E+02  0.71995909486E+00 -0.47320182334E+03  0.47443422126E+03  0.36676202433E+01 0.  0.
         13    1    3    3    0    0 -0.13166496407E+01  0.65829999888E+00 -0.15812649302E+02  0.15881020216E+02  0.00000000000E+00 0.  1.
          3    1    3    3  501    0 -0.32652379044E+02  0.61659095981E-01 -0.45738917403E+03  0.45855320104E+03  0.00000000000E+00 0.  1.
         -1    1    1    2    0  502  0.33969028685E+02 -0.71995909486E+00 -0.52563349196E+03  0.52673046345E+03  0.00000000000E+00 0. -1.
<mgrwt>
<rscale>  1 0.30000000E+03</rscale>
<asrwt>0</asrwt>
<pdfrwt beam="1">  1       21 0.42352260E-02 0.30000000E+03</pdfrwt>
<pdfrwt beam="2">0</pdfrwt>
<totfact> 0.38183962E+04</totfact>
</mgrwt>
</event>
<event>
 6    1  0.6513574E-002  0.3000000E+03  0.7818608E-02  0.1093470E+00
         21   -1    0    0  501  502  0.00000000000E+00  0.00000000000E+00  0.15816609373E+01  0.15816609373E+01  0.00000000000E+00 0. -1.
         13   -1    0    0    0    0 -0.00000000000E+00 -0.00000000000E+00 -0.10000000000E+04  0.10000000000E+04  0.00000000000E+00 0.  1.
    9000005    2    1    2  501    0 -0.30211738011E+02 -0.25647919499E+02 -0.53048923783E+03  0.53197735019E+03  0.32411074683E+01 0.  0.
         13    1    3    3    0    0 -0.23470163940E+02 -0.20587145005E+02 -0.43326549213E+03  0.43438884171E+03  0.00000000000E+00 0.  1.
          1    1    3    3  501    0 -0.67415740707E+01 -0.50607744935E+01 -0.97223745703E+02  0.97588508483E+02  0.00000000000E+00 0.  1.
         -1    1    1    2    0  502  0.30211738011E+02  0.25647919499E+02 -0.46792910123E+03  0.46960431074E+03  0.00000000000E+00 0. -1.
<mgrwt>
<rscale>  1 0.30000000E+03</rscale>
<asrwt>0</asrwt>
<pdfrwt beam="1">  1       21 0.57515064E-02 0.30000000E+03</pdfrwt>
<pdfrwt beam="2">0</pdfrwt>
<totfact> 0.22664812E+04</totfact>
</mgrwt>
</event>
<event>
 6    1  0.6513574E-002  0.3000000E+03  0.7818608E-02  0.1093470E+00
         21   -1    0    0  501  502  0.00000000000E+00  0.00000000000E+00  0.95756338301E+00  0.95756338301E+00  0.00000000000E+00 0. -1.
         13   -1    0    0    0    0 -0.00000000000E+00 -0.00000000000E+00 -0.10000000000E+04  0.10000000000E+04  0.00000000000E+00 0.  1.
    9000005    2    1    2  501    0  0.26589888768E+02 -0.15367310188E+02 -0.46696511899E+03  0.46799466754E+03  0.44056883589E+01 0.  0.
         13    1    3    3    0    0  0.19895217279E+02 -0.11784244032E+02 -0.32066969558E+03  0.32150231996E+03  0.00000000000E+00 0.  1.
          1    1    3    3  501    0  0.66946714889E+01 -0.35830661563E+01 -0.14629542341E+03  0.14649234758E+03  0.00000000000E+00 0.  1.
         -1    1    1    2    0  502 -0.26589888768E+02  0.15367310188E+02 -0.53207731763E+03  0.53296289584E+03  0.00000000000E+00 0. -1.
<mgrwt>
<rscale>  1 0.30000000E+03</rscale>
<asrwt>0</asrwt>
<pdfrwt beam="1">  1       21 0.34820560E-02 0.30000000E+03</pdfrwt>
<pdfrwt beam="2">0</pdfrwt>
<totfact> 0.53071541E+04</totfact>
</mgrwt>
</event>
<event>
 6    1  0.6513574E-002  0.3000000E+03  0.7818608E-02  0.1093470E+00
         21   -1    0    0  501  502  0.00000000000E+00  0.00000000000E+00  0.94010878081E+00  0.94010878081E+00  0.00000000000E+00 0. -1.
         13   -1    0    0    0    0 -0.00000000000E+00 -0.00000000000E+00 -0.10000000000E+04  0.10000000000E+04  0.00000000000E+00 0.  1.
    9000005    2    1    2  501    0 -0.69557642802E+01 -0.29722479303E+02 -0.47245540676E+03  0.47345163356E+03  0.32449216071E+01 0.  0.
         13    1    3    3    0    0 -0.46449131959E+01 -0.22635511881E+02 -0.33699082209E+03  0.33778211289E+03  0.00000000000E+00 0.  1.
          1    1    3    3  501    0 -0.23108510844E+01 -0.70869674222E+01 -0.13546458467E+03  0.13566952067E+03  0.00000000000E+00 0.  1.
         -1    1    1    2    0  502  0.69557642802E+01  0.29722479303E+02 -0.52660448446E+03  0.52748847522E+03  0.00000000000E+00 0. -1.
<mgrwt>
<rscale>  1 0.30000000E+03</rscale>
<asrwt>0</asrwt>
<pdfrwt beam="1">  1       21 0.34185846E-02 0.30000000E+03</pdfrwt>
<pdfrwt beam="2">0</pdfrwt>
<totfact> 0.54730088E+04</totfact>
</mgrwt>
</event>
<event>
 6    1  0.6513574E-002  0.3000000E+03  0.7818608E-02  0.1093470E+00
         21   -1    0    0  501  502  0.00000000000E+00  0.00000000000E+00  0.17908530036E+01  0.17908530036E+01  0.00000000000E+00 0. -1.
         13   -1    0    0    0    0 -0.00000000000E+00 -0.00000000000E+00 -0.10000000000E+04  0.10000000000E+04  0.00000000000E+00 0.  1.
    9000005    2    1    2  501    0  0.23610758692E+02 -0.35024503301E+02 -0.48484379845E+03  0.48669070270E+03  0.31855045258E+01 0.  0.
         13    1    3    3    0    0  0.82702168262E+01 -0.11361787457E+02 -0.14542406352E+03  0.14610148853E+03  0.00000000000E+00 0.  1.
          1    1    3    3  501    0  0.15340541865E+02 -0.23662715844E+02 -0.33941973493E+03  0.34058921417E+03  0.00000000000E+00 0.  1.
         -1    1    1    2    0  502 -0.23610758692E+02  0.35024503301E+02 -0.51336534855E+03  0.51510015031E+03  0.00000000000E+00 0. -1.
<mgrwt>
<rscale>  1 0.30000000E+03</rscale>
<asrwt>0</asrwt>
<pdfrwt beam="1">  1       21 0.65122065E-02 0.30000000E+03</pdfrwt>
<pdfrwt beam="2">0</pdfrwt>
<totfact> 0.18290531E+04</totfact>
</mgrwt>
</event>
<event>
 6    1  0.6513574E-002  0.3000000E+03  0.7818608E-02  0.1093470E+00
         21   -1    0    0  501  502  0.00000000000E+00  0.00000000000E+00  0.43001091365E+01  0.43001091365E+01  0.00000000000E+00 0. -1.
         13   -1    0    0    0    0 -0.00000000000E+00 -0.00000000000E+00 -0.10000000000E+04  0.10000000000E+04  0.00000000000E+00 0.  1.
    9000005    2    1    2  501    0  0.56553898371E+02  0.26504288594E+02 -0.65012932755E+03  0.65313086937E+03  0.33119840315E+01 0.  0.
         13    1    3    3    0    0  0.29441321495E+01  0.10973670373E+01 -0.40525146857E+02  0.40646766862E+02  0.00000000000E+00 0.  1.
          1    1    3    3  501    0  0.53609766222E+02  0.25406921556E+02 -0.60960418070E+03  0.61248410251E+03  0.00000000000E+00 0.  1.
         -1    1    1    2    0  502 -0.56553898371E+02 -0.26504288594E+02 -0.34557056331E+03  0.35116923977E+03  0.00000000000E+00 0. -1.
<mgrwt>
<rscale>  1 0.30000000E+03</rscale>
<asrwt>0</asrwt>
<pdfrwt beam="1">  1       21 0.15636793E-01 0.30000000E+03</pdfrwt>
<pdfrwt beam="2">0</pdfrwt>
<totfact> 0.38122579E+03</totfact>
</mgrwt>
</event>
<event>
 6    1  0.6513574E-002  0.3000000E+03  0.7818608E-02  0.1093470E+00
         21   -1    0    0  501  502  0.00000000000E+00  0.00000000000E+00  0.12904391376E+01  0.12904391376E+01  0.00000000000E+00 0. -1.
         13   -1    0    0    0    0 -0.00000000000E+00 -0.00000000000E+00 -0.10000000000E+04  0.10000000000E+04  0.00000000000E+00 0.  1.
    9000005    2    1    2  501    0 -0.33584278351E+02 -0.83882630743E+01 -0.63139716295E+03  0.63235051941E+03  0.25564242346E+01 0.  0.
         13    1    3    3    0    0 -0.36225386152E+00 -0.38650556102E+00 -0.80704670469E+01  0.80878336261E+01  0.00000000000E+00 0.  1.
          3    1    3    3  501    0 -0.33222024489E+02 -0.80017575133E+01 -0.62332669590E+03  0.62426268578E+03  0.00000000000E+00 0.  1.
         -3    1    1    2    0  502  0.33584278351E+02  0.83882630743E+01 -0.36731239791E+03  0.36893991973E+03  0.00000000000E+00 0. -1.
<mgrwt>
<rscale>  1 0.30000000E+03</rscale>
<asrwt>0</asrwt>
<pdfrwt beam="1">  1       21 0.46925159E-02 0.30000000E+03</pdfrwt>
<pdfrwt beam="2">0</pdfrwt>
<totfact> 0.32091165E+04</totfact>
</mgrwt>
</event>
<event>
 6    1  0.1062609E-001  0.3000000E+03  0.7818608E-02  0.1093470E+00
         21   -1    0    0  501  502  0.00000000000E+00  0.00000000000E+00  0.16050196502E+02  0.16050196502E+02  0.00000000000E+00 0. -1.
         13   -1    0    0    0    0 -0.00000000000E+00 -0.00000000000E+00 -0.10000000000E+04  0.10000000000E+04  0.00000000000E+00 0.  1.
    9000005    2    1    2  501    0  0.12331430983E+03  0.25096851266E+02 -0.54877458762E+03  0.56304496533E+03  0.54602213704E+01 0.  0.
         13    1    3    3    0    0  0.31444839663E+02  0.67779103345E+01 -0.12999736084E+03  0.13391800415E+03  0.00000000000E+00 0.  1.
          3    1    3    3  501    0  0.91869470166E+02  0.18318940931E+02 -0.41877722678E+03  0.42912696118E+03  0.00000000000E+00 0.  1.
         -3    1    1    2    0  502 -0.12331430983E+03 -0.25096851266E+02 -0.43517521588E+03  0.45300523117E+03  0.00000000000E+00 0. -1.
<mgrwt>
<rscale>  1 0.30000000E+03</rscale>
<asrwt>0</asrwt>
<pdfrwt beam="1">  1       21 0.58364474E-01 0.30000000E+03</pdfrwt>
<pdfrwt beam="2">0</pdfrwt>
<totfact> 0.26716360E+02</totfact>
</mgrwt>
</event>
<event>
 6    1  0.6513574E-002  0.3000000E+03  0.7818608E-02  0.1093470E+00
         21   -1    0    0  501  502  0.00000000000E+00  0.00000000000E+00  0.14711631882E+01  0.14711631882E+01  0.00000000000E+00 0. -1.
         13   -1    0    0    0    0 -0.00000000000E+00 -0.00000000000E+00 -0.10000000000E+04  0.10000000000E+04  0.00000000000E+00 0.  1.
    9000005    2    1    2  501    0  0.37001053438E+02 -0.86280929750E+01 -0.43957702602E+03  0.44122956465E+03  0.34705869557E+01 0.  0.
         13    1    3    3    0    0  0.34417400191E+02 -0.85111032346E+01 -0.41713906944E+03  0.41864304552E+03  0.00000000000E+00 0.  1.
          1    1    3    3  501    0  0.25836532472E+01 -0.11698974034E+00 -0.22437956587E+02  0.22586519132E+02  0.00000000000E+00 0.  1.
         -1    1    1    2    0  502 -0.37001053438E+02  0.86280929750E+01 -0.55895181079E+03  0.56024159853E+03  0.00000000000E+00 0. -1.
<mgrwt>
<rscale>  1 0.30000000E+03</rscale>
<asrwt>0</asrwt>
<pdfrwt beam="1">  1       21 0.53496956E-02 0.30000000E+03</pdfrwt>
<pdfrwt beam="2">0</pdfrwt>
<totfact> 0.25663802E+04</totfact>
</mgrwt>
</event>
<event>
 6    1  0.6513574E-002  0.3000000E+03  0.7818608E-02  0.1093470E+00
         21   -1    0    0  501  502  0.00000000000E+00  0.00000000000E+00  0.26519359113E+01  0.26519359113E+01  0.00000000000E+00 0. -1.
         13   -1    0    0    0    0 -0.00000000000E+00 -0.00000000000E+00 -0.10000000000E+04  0.10000000000E+04  0.00000000000E+00 0.  1.
    9000005    2    1    2  501    0 -0.13206592318E+01 -0.46011533492E+02 -0.72265127133E+03  0.72412521671E+03  0.36965079043E+01 0.  0.
         13    1    3    3    0    0 -0.22203504691E+01 -0.38593303382E+02 -0.61736404036E+03  0.61857314147E+03  0.00000000000E+00 0.  1.
          3    1    3    3  501    0  0.89969123725E+00 -0.74182301099E+01 -0.10528723097E+03  0.10555207524E+03  0.00000000000E+00 0.  1.
         -3    1    1    2    0  502  0.13206592318E+01  0.46011533492E+02 -0.27469679276E+03  0.27852671920E+03  0.00000000000E+00 0. -1.
<mgrwt>
<rscale>  1 0.30000000E+03</rscale>
<asrwt>0</asrwt>
<pdfrwt beam="1">  1       21 0.96434236E-02 0.30000000E+03</pdfrwt>
<pdfrwt beam="2">0</pdfrwt>
<totfact> 0.91792476E+03</totfact>
</mgrwt>
</event>
<event>
 6    1  0.6513574E-002  0.3000000E+03  0.7818608E-02  0.1093470E+00
         21   -1    0    0  501  502  0.00000000000E+00  0.00000000000E+00  0.19357341785E+01  0.19357341785E+01  0.00000000000E+00 0. -1.
         13   -1    0    0    0    0 -0.00000000000E+00 -0.00000000000E+00 -0.10000000000E+04  0.10000000000E+04  0.00000000000E+00 0.  1.
    9000005    2    1    2  501    0  0.39771791948E+02 -0.16936890719E+02 -0.58869398227E+03  0.59028942634E+03  0.35140270141E+01 0.  0.
         13    1    3    3    0    0  0.30287981133E+02 -0.13240552541E+02 -0.46897814340E+03  0.47014165208E+03  0.00000000000E+00 0.  1.
          3    1    3    3  501    0  0.94838108147E+01 -0.36963381786E+01 -0.11971583886E+03  0.12014777426E+03  0.00000000000E+00 0.  1.
         -3    1    1    2    0  502 -0.39771791948E+02  0.16936890719E+02 -0.40937028355E+03  0.41164630784E+03  0.00000000000E+00 0. -1.
<mgrwt>
<rscale>  1 0.30000000E+03</rscale>
<asrwt>0</asrwt>
<pdfrwt beam="1">  1       21 0.70390482E-02 0.30000000E+03</pdfrwt>
<pdfrwt beam="2">0</pdfrwt>
<totfact> 0.15979797E+04</totfact>
</mgrwt>
</event>
<event>
 6    1  0.6513574E-002  0.3000000E+03  0.7818608E-02  0.1093470E+00
         21   -1    0    0  501  502  0.00000000000E+00  0.00000000000E+00  0.14922299203E+01  0.14922299203E+01  0.00000000000E+00 0. -1.
         13   -1    0    0    0    0 -0.00000000000E+00 -0.00000000000E+00 -0.10000000000E+04  0.10000000000E+04  0.00000000000E+00 0.  1.
    9000005    2    1    2  501    0 -0.19847529605E+02 -0.31350945647E+02 -0.63608848301E+03  0.63717842856E+03  0.33144192018E+01 0.  0.
         13    1    3    3    0    0 -0.11225548171E+02 -0.19199523173E+02 -0.35619755338E+03  0.35689120423E+03  0.00000000000E+00 0.  1.
          1    1    3    3  501    0 -0.86219814343E+01 -0.12151422474E+02 -0.27989092964E+03  0.28028722433E+03  0.00000000000E+00 0.  1.
         -3    1    1    2    0  502  0.19847529605E+02  0.31350945647E+02 -0.36241928706E+03  0.36431380136E+03  0.00000000000E+00 0. -1.
<mgrwt>
<rscale>  1 0.30000000E+03</rscale>
<asrwt>0</asrwt>
<pdfrwt beam="1">  1       21 0.54263021E-02 0.30000000E+03</pdfrwt>
<pdfrwt beam="2">0</pdfrwt>
<totfact> 0.25046584E+04</totfact>
</mgrwt>
</event>
<event>
 6    1  0.6513574E-002  0.3000000E+03  0.7818608E-02  0.1093470E+00
         21   -1    0    0  501  502  0.00000000000E+00  0.00000000000E+00  0.23298257003E+01  0.23298257003E+01  0.00000000000E+00 0. -1.
         13   -1    0    0    0    0 -0.00000000000E+00 -0.00000000000E+00 -0.10000000000E+04  0.10000000000E+04  0.00000000000E+00 0.  1.
    9000005    2    1    2  501    0  0.56912160942E+01 -0.47082726350E+02 -0.58946537162E+03  0.59137930071E+03  0.32984700542E+01 0.  0.
         13    1    3    3    0    0  0.52073172375E+01 -0.45001481179E+02 -0.55367832912E+03  0.55552852456E+03  0.00000000000E+00 0.  1.
          1    1    3    3  501    0  0.48389885670E+00 -0.20812451714E+01 -0.35787042498E+02  0.35850776147E+02  0.00000000000E+00 0.  1.
         -3    1    1    2    0  502 -0.56912160942E+01  0.47082726350E+02 -0.40820480268E+03  0.41095052499E+03  0.00000000000E+00 0. -1.
<mgrwt>
<rscale>  1 0.30000000E+03</rscale>
<asrwt>0</asrwt>
<pdfrwt beam="1">  1       21 0.84721113E-02 0.30000000E+03</pdfrwt>
<pdfrwt beam="2">0</pdfrwt>
<totfact> 0.11547983E+04</totfact>
</mgrwt>
</event>
<event>
 6    1  0.6513574E-002  0.3000000E+03  0.7818608E-02  0.1093470E+00
         21   -1    0    0  501  502  0.00000000000E+00  0.00000000000E+00  0.50358705581E+01  0.50358705581E+01  0.00000000000E+00 0. -1.
         13   -1    0    0    0    0 -0.00000000000E+00 -0.00000000000E+00 -0.10000000000E+04  0.10000000000E+04  0.00000000000E+00 0.  1.
    9000005    2    1    2  501    0  0.40313439761E+02 -0.23967099433E+02 -0.12095420422E+03  0.12976851445E+03  0.32175369008E+01 0.  0.
         13    1    3    3    0    0  0.22211561083E+02 -0.13501423175E+02 -0.71360588021E+02  0.75947188205E+02  0.00000000000E+00 0.  1.
          1    1    3    3  501    0  0.18101878678E+02 -0.10465676258E+02 -0.49593616200E+02  0.53821326247E+02  0.00000000000E+00 0.  1.
         -1    1    1    2    0  502 -0.40313439761E+02  0.23967099433E+02 -0.87400992522E+03  0.87526735611E+03  0.00000000000E+00 0. -1.
<mgrwt>
<rscale>  1 0.30000000E+03</rscale>
<asrwt>0</asrwt>
<pdfrwt beam="1">  1       21 0.18312295E-01 0.30000000E+03</pdfrwt>
<pdfrwt beam="2">0</pdfrwt>
<totfact> 0.28360795E+03</totfact>
</mgrwt>
</event>
<event>
 6    1  0.6513574E-002  0.3000000E+03  0.7818608E-02  0.1093470E+00
         21   -1    0    0  501  502  0.00000000000E+00  0.00000000000E+00  0.16439880853E+01  0.16439880853E+01  0.00000000000E+00 0. -1.
         13   -1    0    0    0    0 -0.00000000000E+00 -0.00000000000E+00 -0.10000000000E+04  0.10000000000E+04  0.00000000000E+00 0.  1.
    9000005    2    1    2  501    0 -0.91094914066E+01  0.32398709644E+02 -0.23529372052E+03  0.23783987723E+03  0.84860509924E+01 0.  0.
         13    1    3    3    0    0 -0.10195420333E+02  0.25037103126E+02 -0.19498187045E+03  0.19684697847E+03  0.00000000000E+00 0.  1.
          1    1    3    3  501    0  0.10859289262E+01  0.73616065182E+01 -0.40311850077E+02  0.40992898760E+02  0.00000000000E+00 0.  1.
         -3    1    1    2    0  502  0.91094914066E+01 -0.32398709644E+02 -0.76306229139E+03  0.76380411086E+03  0.00000000000E+00 0. -1.
<mgrwt>
<rscale>  1 0.30000000E+03</rscale>
<asrwt>0</asrwt>
<pdfrwt beam="1">  1       21 0.59781511E-02 0.30000000E+03</pdfrwt>
<pdfrwt beam="2">0</pdfrwt>
<totfact> 0.21204651E+04</totfact>
</mgrwt>
</event>
<event>
 6    1  0.6513574E-002  0.3000000E+03  0.7818608E-02  0.1093470E+00
         21   -1    0    0  501  502  0.00000000000E+00  0.00000000000E+00  0.30151612527E+01  0.30151612527E+01  0.00000000000E+00 0. -1.
         13   -1    0    0    0    0 -0.00000000000E+00 -0.00000000000E+00 -0.10000000000E+04  0.10000000000E+04  0.00000000000E+00 0.  1.
    9000005    2    1    2  501    0 -0.11888072581E+02 -0.33339809706E+02 -0.11690958136E+03  0.12222839486E+03  0.43659038296E+01 0.  0.
         13    1    3    3    0    0 -0.92877980066E+01 -0.25341014427E+02 -0.82346656740E+02  0.86656806312E+02  0.00000000000E+00 0.  1.
          3    1    3    3  501    0 -0.26002745745E+01 -0.79987952790E+01 -0.34562924618E+02  0.35571588549E+02  0.00000000000E+00 0.  1.
         -1    1    1    2    0  502  0.11888072581E+02  0.33339809706E+02 -0.88007525739E+03  0.88078676639E+03  0.00000000000E+00 0. -1.
<mgrwt>
<rscale>  1 0.30000000E+03</rscale>
<asrwt>0</asrwt>
<pdfrwt beam="1">  1       21 0.10964246E-01 0.30000000E+03</pdfrwt>
<pdfrwt beam="2">0</pdfrwt>
<totfact> 0.72946193E+03</totfact>
</mgrwt>
</event>
<event>
 6    1  0.6513574E-002  0.3000000E+03  0.7818608E-02  0.1093470E+00
         21   -1    0    0  501  502  0.00000000000E+00  0.00000000000E+00  0.12917485720E+01  0.12917485720E+01  0.00000000000E+00 0. -1.
         13   -1    0    0    0    0 -0.00000000000E+00 -0.00000000000E+00 -0.10000000000E+04  0.10000000000E+04  0.00000000000E+00 0.  1.
    9000005    2    1    2  501    0 -0.32509852711E+02  0.13801563732E+02 -0.58229038847E+03  0.58337882669E+03  0.46244180039E+01 0.  0.
         13    1    3    3    0    0  0.10283874946E+00  0.10999235854E+00 -0.73164949620E+01  0.73180443191E+01  0.00000000000E+00 0.  1.
          1    1    3    3  501    0 -0.32612691461E+02  0.13691571374E+02 -0.57497389351E+03  0.57606078237E+03  0.00000000000E+00 0.  1.
         -1    1    1    2    0  502  0.32509852711E+02 -0.13801563732E+02 -0.41641786296E+03  0.41791292188E+03  0.00000000000E+00 0. -1.
<mgrwt>
<rscale>  1 0.30000000E+03</rscale>
<asrwt>0</asrwt>
<pdfrwt beam="1">  1       21 0.46972774E-02 0.30000000E+03</pdfrwt>
<pdfrwt beam="2">0</pdfrwt>
<totfact> 0.32035878E+04</totfact>
</mgrwt>
</event>
<event>
 6    1  0.6513574E-002  0.3000000E+03  0.7818608E-02  0.1093470E+00
         21   -1    0    0  501  502  0.00000000000E+00  0.00000000000E+00  0.14697564875E+01  0.14697564875E+01  0.00000000000E+00 0. -1.
         13   -1    0    0    0    0 -0.00000000000E+00 -0.00000000000E+00 -0.10000000000E+04  0.10000000000E+04  0.00000000000E+00 0.  1.
    9000005    2    1    2  501    0  0.23531346543E+02 -0.25416387388E+02 -0.28781945282E+03  0.28991544021E+03  0.33478392754E+01 0.  0.
         13    1    3    3    0    0  0.79474092776E+01 -0.10323613674E+02 -0.98905943219E+02  0.99760332385E+02  0.00000000000E+00 0.  1.
          3    1    3    3  501    0  0.15583937265E+02 -0.15092773715E+02 -0.18891350961E+03  0.19015510782E+03  0.00000000000E+00 0.  1.
         -3    1    1    2    0  502 -0.23531346543E+02  0.25416387388E+02 -0.71071079069E+03  0.71155431628E+03  0.00000000000E+00 0. -1.
<mgrwt>
<rscale>  1 0.30000000E+03</rscale>
<asrwt>0</asrwt>
<pdfrwt beam="1">  1       21 0.53445803E-02 0.30000000E+03</pdfrwt>
<pdfrwt beam="2">0</pdfrwt>
<totfact> 0.25705851E+04</totfact>
</mgrwt>
</event>
<event>
 6    1  0.6513574E-002  0.3000000E+03  0.7818608E-02  0.1093470E+00
         21   -1    0    0  501  502  0.00000000000E+00  0.00000000000E+00  0.15286098157E+01  0.15286098157E+01  0.00000000000E+00 0. -1.
         13   -1    0    0    0    0 -0.00000000000E+00 -0.00000000000E+00 -0.10000000000E+04  0.10000000000E+04  0.00000000000E+00 0.  1.
    9000005    2    1    2  501    0 -0.15487305005E+02  0.32026493368E+02 -0.70566277068E+03  0.70656684865E+03  0.33485510580E+01 0.  0.
         13    1    3    3    0    0  0.70038235496E-01  0.11714989744E+00 -0.87419896300E+00  0.88478996367E+00  0.00000000000E+00 0.  1.
          1    1    3    3  501    0 -0.15557343240E+02  0.31909343470E+02 -0.70478857172E+03  0.70568205869E+03  0.00000000000E+00 0.  1.
         -3    1    1    2    0  502  0.15487305005E+02 -0.32026493368E+02 -0.29280861950E+03  0.29496176116E+03  0.00000000000E+00 0. -1.
<mgrwt>
<rscale>  1 0.30000000E+03</rscale>
<asrwt>0</asrwt>
<pdfrwt beam="1">  1       21 0.55585929E-02 0.30000000E+03</pdfrwt>
<pdfrwt beam="2">0</pdfrwt>
<totfact> 0.24033291E+04</totfact>
</mgrwt>
</event>
<event>
 6    1  0.6513574E-002  0.3000000E+03  0.7818608E-02  0.1093470E+00
         21   -1    0    0  501  502  0.00000000000E+00  0.00000000000E+00  0.11130873757E+01  0.11130873757E+01  0.00000000000E+00 0. -1.
         13   -1    0    0    0    0 -0.00000000000E+00 -0.00000000000E+00 -0.10000000000E+04  0.10000000000E+04  0.00000000000E+00 0.  1.
    9000005    2    1    2  501    0 -0.36166140457E+01  0.32819727690E+02 -0.56359146788E+03  0.56456716924E+03  0.32452268913E+01 0.  0.
         13    1    3    3    0    0 -0.35197196676E+01  0.31292149211E+02 -0.52324725623E+03  0.52419393184E+03  0.00000000000E+00 0.  1.
          3    1    3    3  501    0 -0.96894378062E-01  0.15275784788E+01 -0.40344211654E+02  0.40373237404E+02  0.00000000000E+00 0.  1.
         -3    1    1    2    0  502  0.36166140457E+01 -0.32819727690E+02 -0.43529544475E+03  0.43654591813E+03  0.00000000000E+00 0. -1.
<mgrwt>
<rscale>  1 0.30000000E+03</rscale>
<asrwt>0</asrwt>
<pdfrwt beam="1">  1       21 0.40475990E-02 0.30000000E+03</pdfrwt>
<pdfrwt beam="2">0</pdfrwt>
<totfact> 0.41217727E+04</totfact>
</mgrwt>
</event>
<event>
 6    1  0.6513574E-002  0.3000000E+03  0.7818608E-02  0.1093470E+00
         21   -1    0    0  501  502  0.00000000000E+00  0.00000000000E+00  0.94736827946E+01  0.94736827946E+01  0.00000000000E+00 0. -1.
         13   -1    0    0    0    0 -0.00000000000E+00 -0.00000000000E+00 -0.10000000000E+04  0.10000000000E+04  0.00000000000E+00 0.  1.
    9000005    2    1    2  501    0 -0.96160170455E+02  0.14728779651E+02 -0.50651268233E+03  0.51578054523E+03  0.32799612524E+01 0.  0.
         13    1    3    3    0    0 -0.26875625652E+02  0.26769240130E+01 -0.14247844307E+03  0.14501576437E+03  0.00000000000E+00 0.  1.
          3    1    3    3  501    0 -0.69284544803E+02  0.12051855638E+02 -0.36403423926E+03  0.37076478086E+03  0.00000000000E+00 0.  1.
         -3    1    1    2    0  502  0.96160170455E+02 -0.14728779651E+02 -0.48401363488E+03  0.49369313756E+03  0.00000000000E+00 0. -1.
<mgrwt>
<rscale>  1 0.30000000E+03</rscale>
<asrwt>0</asrwt>
<pdfrwt beam="1">  1       21 0.34449828E-01 0.30000000E+03</pdfrwt>
<pdfrwt beam="2">0</pdfrwt>
<totfact> 0.82198244E+02</totfact>
</mgrwt>
</event>
<event>
 6    1  0.6513574E-002  0.3000000E+03  0.7818608E-02  0.1093470E+00
         21   -1    0    0  501  502  0.00000000000E+00  0.00000000000E+00  0.75520699392E+01  0.75520699392E+01  0.00000000000E+00 0. -1.
         13   -1    0    0    0    0 -0.00000000000E+00 -0.00000000000E+00 -0.10000000000E+04  0.10000000000E+04  0.00000000000E+00 0.  1.
    9000005    2    1    2  501    0  0.38505264107E+02 -0.60555167044E+02 -0.21252587077E+03  0.22433562336E+03  0.31052444676E+01 0.  0.
         13    1    3    3    0    0  0.24367075816E+02 -0.35555050215E+02 -0.12649718768E+03  0.13363926994E+03  0.00000000000E+00 0.  1.
          3    1    3    3  501    0  0.14138188290E+02 -0.25000116828E+02 -0.86028683088E+02  0.90696353419E+02  0.00000000000E+00 0.  1.
         -1    1    1    2    0  502 -0.38505264107E+02  0.60555167044E+02 -0.77992205929E+03  0.78321644658E+03  0.00000000000E+00 0. -1.
<mgrwt>
<rscale>  1 0.30000000E+03</rscale>
<asrwt>0</asrwt>
<pdfrwt beam="1">  1       21 0.27462130E-01 0.30000000E+03</pdfrwt>
<pdfrwt beam="2">0</pdfrwt>
<totfact> 0.12962533E+03</totfact>
</mgrwt>
</event>
<event>
 6    1  0.6513574E-002  0.3000000E+03  0.7818608E-02  0.1093470E+00
         21   -1    0    0  501  502  0.00000000000E+00  0.00000000000E+00  0.23643231646E+01  0.23643231646E+01  0.00000000000E+00 0. -1.
         13   -1    0    0    0    0 -0.00000000000E+00 -0.00000000000E+00 -0.10000000000E+04  0.10000000000E+04  0.00000000000E+00 0.  1.
    9000005    2    1    2  501    0  0.35701026377E+01  0.33641563387E+02 -0.14072743499E+03  0.14478853330E+03  0.38740155148E+01 0.  0.
         13    1    3    3    0    0  0.25542171670E+01  0.24457911410E+02 -0.10922920035E+03  0.11196308170E+03  0.00000000000E+00 0.  1.
          3    1    3    3  501    0  0.10158854706E+01  0.91836519777E+01 -0.31498234644E+02  0.32825451598E+02  0.00000000000E+00 0.  1.
         -3    1    1    2    0  502 -0.35701026377E+01 -0.33641563387E+02 -0.85690824184E+03  0.85757578986E+03  0.00000000000E+00 0. -1.
<mgrwt>
<rscale>  1 0.30000000E+03</rscale>
<asrwt>0</asrwt>
<pdfrwt beam="1">  1       21 0.85975569E-02 0.30000000E+03</pdfrwt>
<pdfrwt beam="2">0</pdfrwt>
<totfact> 0.11252432E+04</totfact>
</mgrwt>
</event>
<event>
 6    1  0.6513574E-002  0.3000000E+03  0.7818608E-02  0.1093470E+00
         21   -1    0    0  501  502  0.00000000000E+00  0.00000000000E+00  0.12881493101E+01  0.12881493101E+01  0.00000000000E+00 0. -1.
         13   -1    0    0    0    0 -0.00000000000E+00 -0.00000000000E+00 -0.10000000000E+04  0.10000000000E+04  0.00000000000E+00 0.  1.
    9000005    2    1    2  501    0  0.12209928642E+02 -0.33633921309E+02 -0.52944403528E+03  0.53065814007E+03  0.25984815595E+01 0.  0.
         13    1    3    3    0    0  0.18203151882E+01 -0.82406994092E+01 -0.12439142507E+03  0.12467738089E+03  0.00000000000E+00 0.  1.
          1    1    3    3  501    0  0.10389613454E+02 -0.25393221899E+02 -0.40505261021E+03  0.40598075918E+03  0.00000000000E+00 0.  1.
         -3    1    1    2    0  502 -0.12209928642E+02  0.33633921309E+02 -0.46926781541E+03  0.47063000924E+03  0.00000000000E+00 0. -1.
<mgrwt>
<rscale>  1 0.30000000E+03</rscale>
<asrwt>0</asrwt>
<pdfrwt beam="1">  1       21 0.46841892E-02 0.30000000E+03</pdfrwt>
<pdfrwt beam="2">0</pdfrwt>
<totfact> 0.32188207E+04</totfact>
</mgrwt>
</event>
<event>
 6    1  0.6513574E-002  0.3000000E+03  0.7818608E-02  0.1093470E+00
         21   -1    0    0  501  502  0.00000000000E+00  0.00000000000E+00  0.13615715232E+01  0.13615715232E+01  0.00000000000E+00 0. -1.
         13   -1    0    0    0    0 -0.00000000000E+00 -0.00000000000E+00 -0.10000000000E+04  0.10000000000E+04  0.00000000000E+00 0.  1.
    9000005    2    1    2  501    0  0.93059161373E+01  0.30873576068E+02 -0.25915114387E+03  0.26117158114E+03  0.33914082046E+01 0.  0.
         13    1    3    3    0    0  0.71567678973E+01  0.18010686817E+02 -0.15358360985E+03  0.15480158068E+03  0.00000000000E+00 0.  1.
          1    1    3    3  501    0  0.21491482400E+01  0.12862889251E+02 -0.10556753402E+03  0.10637000046E+03  0.00000000000E+00 0.  1.
         -3    1    1    2    0  502 -0.93059161373E+01 -0.30873576068E+02 -0.73948728460E+03  0.74018999038E+03  0.00000000000E+00 0. -1.
<mgrwt>
<rscale>  1 0.30000000E+03</rscale>
<asrwt>0</asrwt>
<pdfrwt beam="1">  1       21 0.49511796E-02 0.30000000E+03</pdfrwt>
<pdfrwt beam="2">0</pdfrwt>
<totfact> 0.29290402E+04</totfact>
</mgrwt>
</event>
<event>
 6    1  0.6513574E-002  0.3000000E+03  0.7818608E-02  0.1093470E+00
         21   -1    0    0  501  502  0.00000000000E+00  0.00000000000E+00  0.18404005923E+01  0.18404005923E+01  0.00000000000E+00 0. -1.
         13   -1    0    0    0    0 -0.00000000000E+00 -0.00000000000E+00 -0.10000000000E+04  0.10000000000E+04  0.00000000000E+00 0.  1.
    9000005    2    1    2  501    0 -0.29412192686E+02  0.28858843643E+02 -0.36428545771E+03  0.36662835927E+03  0.38143391193E+01 0.  0.
         13    1    3    3    0    0 -0.12899947505E+00  0.84560648382E+00 -0.70543572926E+01  0.71060289897E+01  0.00000000000E+00 0.  1.
          1    1    3    3  501    0 -0.29283193211E+02  0.28013237159E+02 -0.35723110042E+03  0.35952233028E+03  0.00000000000E+00 0.  1.
         -3    1    1    2    0  502  0.29412192686E+02 -0.28858843643E+02 -0.63387414170E+03  0.63521204133E+03  0.00000000000E+00 0. -1.
<mgrwt>
<rscale>  1 0.30000000E+03</rscale>
<asrwt>0</asrwt>
<pdfrwt beam="1">  1       21 0.66923799E-02 0.30000000E+03</pdfrwt>
<pdfrwt beam="2">0</pdfrwt>
<totfact> 0.17445584E+04</totfact>
</mgrwt>
</event>
<event>
 6    1  0.6513574E-002  0.3000000E+03  0.7818608E-02  0.1093470E+00
         21   -1    0    0  501  502  0.00000000000E+00  0.00000000000E+00  0.18636933790E+01  0.18636933790E+01  0.00000000000E+00 0. -1.
         13   -1    0    0    0    0 -0.00000000000E+00 -0.00000000000E+00 -0.10000000000E+04  0.10000000000E+04  0.00000000000E+00 0.  1.
    9000005    2    1    2  501    0 -0.35485986926E+02 -0.22929751060E+02 -0.41063169816E+03  0.41284188248E+03  0.59160497024E+01 0.  0.
         13    1    3    3    0    0 -0.23231435667E+02 -0.18223530809E+02 -0.28043713059E+03  0.28198719988E+03  0.00000000000E+00 0.  1.
          1    1    3    3  501    0 -0.12254551260E+02 -0.47062202513E+01 -0.13019456757E+03  0.13085468260E+03  0.00000000000E+00 0.  1.
         -1    1    1    2    0  502  0.35485986926E+02  0.22929751060E+02 -0.58750460846E+03  0.58902181090E+03  0.00000000000E+00 0. -1.
<mgrwt>
<rscale>  1 0.30000000E+03</rscale>
<asrwt>0</asrwt>
<pdfrwt beam="1">  1       21 0.67770811E-02 0.30000000E+03</pdfrwt>
<pdfrwt beam="2">0</pdfrwt>
<totfact> 0.17068960E+04</totfact>
</mgrwt>
</event>
<event>
 6    1  0.6513574E-002  0.3000000E+03  0.7818608E-02  0.1093470E+00
         21   -1    0    0  501  502  0.00000000000E+00  0.00000000000E+00  0.49688133954E+01  0.49688133954E+01  0.00000000000E+00 0. -1.
         13   -1    0    0    0    0 -0.00000000000E+00 -0.00000000000E+00 -0.10000000000E+04  0.10000000000E+04  0.00000000000E+00 0.  1.
    9000005    2    1    2  501    0 -0.59611191953E+02  0.16913334163E+02 -0.25879738550E+03  0.26613204864E+03  0.32596761230E+01 0.  0.
         13    1    3    3    0    0 -0.10181466357E+02  0.41783039186E+01 -0.46293625990E+02  0.47583823807E+02  0.00000000000E+00 0.  1.
          3    1    3    3  501    0 -0.49429725595E+02  0.12735030244E+02 -0.21250375951E+03  0.21854822483E+03  0.00000000000E+00 0.  1.
         -3    1    1    2    0  502  0.59611191953E+02 -0.16913334163E+02 -0.73623380110E+03  0.73883676476E+03  0.00000000000E+00 0. -1.
<mgrwt>
<rscale>  1 0.30000000E+03</rscale>
<asrwt>0</asrwt>
<pdfrwt beam="1">  1       21 0.18068450E-01 0.30000000E+03</pdfrwt>
<pdfrwt beam="2">0</pdfrwt>
<totfact> 0.29086802E+03</totfact>
</mgrwt>
</event>
<event>
 6    1  0.6513574E-002  0.3000000E+03  0.7818608E-02  0.1093470E+00
         21   -1    0    0  501  502  0.00000000000E+00  0.00000000000E+00  0.25571717881E+01  0.25571717881E+01  0.00000000000E+00 0. -1.
         13   -1    0    0    0    0 -0.00000000000E+00 -0.00000000000E+00 -0.10000000000E+04  0.10000000000E+04  0.00000000000E+00 0.  1.
    9000005    2    1    2  501    0  0.44630169163E+02  0.77498566399E+01 -0.27721459651E+03  0.28090585847E+03  0.28734170464E+01 0.  0.
         13    1    3    3    0    0  0.29848849582E+02  0.58278696593E+01 -0.17851359764E+03  0.18108567704E+03  0.00000000000E+00 0.  1.
          3    1    3    3  501    0  0.14781319581E+02  0.19219869805E+01 -0.98700998872E+02  0.99820181430E+02  0.00000000000E+00 0.  1.
         -3    1    1    2    0  502 -0.44630169163E+02 -0.77498566399E+01 -0.72022823170E+03  0.72165131332E+03  0.00000000000E+00 0. -1.
<mgrwt>
<rscale>  1 0.30000000E+03</rscale>
<asrwt>0</asrwt>
<pdfrwt beam="1">  1       21 0.92988261E-02 0.30000000E+03</pdfrwt>
<pdfrwt beam="2">0</pdfrwt>
<totfact> 0.97936880E+03</totfact>
</mgrwt>
</event>
<event>
 6    1  0.6513574E-002  0.3000000E+03  0.7818608E-02  0.1093470E+00
         21   -1    0    0  501  502  0.00000000000E+00  0.00000000000E+00  0.10010132993E+01  0.10010132993E+01  0.00000000000E+00 0. -1.
         13   -1    0    0    0    0 -0.00000000000E+00 -0.00000000000E+00 -0.10000000000E+04  0.10000000000E+04  0.00000000000E+00 0.  1.
    9000005    2    1    2  501    0 -0.72708511905E+01 -0.30367199790E+02 -0.43103221179E+03  0.43217653289E+03  0.35715386047E+01 0.  0.
         13    1    3    3    0    0 -0.39907158718E+01 -0.22573125009E+02 -0.30377307557E+03  0.30463675620E+03  0.00000000000E+00 0.  1.
          3    1    3    3  501    0 -0.32801353187E+01 -0.77940747803E+01 -0.12725913622E+03  0.12753977670E+03  0.00000000000E+00 0.  1.
         -1    1    1    2    0  502  0.72708511905E+01  0.30367199790E+02 -0.56796677491E+03  0.56882448040E+03  0.00000000000E+00 0. -1.
<mgrwt>
<rscale>  1 0.30000000E+03</rscale>
<asrwt>0</asrwt>
<pdfrwt beam="1">  1       21 0.36400560E-02 0.30000000E+03</pdfrwt>
<pdfrwt beam="2">0</pdfrwt>
<totfact> 0.49267417E+04</totfact>
</mgrwt>
</event>
<event>
 6    1  0.6513574E-002  0.3000000E+03  0.7818608E-02  0.1093470E+00
         21   -1    0    0  501  502  0.00000000000E+00  0.00000000000E+00  0.21807292463E+01  0.21807292463E+01  0.00000000000E+00 0. -1.
         13   -1    0    0    0    0 -0.00000000000E+00 -0.00000000000E+00 -0.10000000000E+04  0.10000000000E+04  0.00000000000E+00 0.  1.
    9000005    2    1    2  501    0  0.35948366313E+02 -0.29057693463E+02 -0.43639917822E+03  0.43886096668E+03  0.42509692979E+01 0.  0.
         13    1    3    3    0    0  0.27548822063E+01 -0.37862674235E+01 -0.40523902300E+02  0.40793527116E+02  0.00000000000E+00 0.  1.
          3    1    3    3  501    0  0.33193484106E+02 -0.25271426040E+02 -0.39587527592E+03  0.39806743957E+03  0.00000000000E+00 0.  1.
         -1    1    1    2    0  502 -0.35948366313E+02  0.29057693463E+02 -0.56142009254E+03  0.56331976256E+03  0.00000000000E+00 0. -1.
<mgrwt>
<rscale>  1 0.30000000E+03</rscale>
<asrwt>0</asrwt>
<pdfrwt beam="1">  1       21 0.79299413E-02 0.30000000E+03</pdfrwt>
<pdfrwt beam="2">0</pdfrwt>
<totfact> 0.12972704E+04</totfact>
</mgrwt>
</event>
<event>
 6    1  0.6513574E-002  0.3000000E+03  0.7818608E-02  0.1093470E+00
         21   -1    0    0  501  502  0.00000000000E+00  0.00000000000E+00  0.11505054469E+01  0.11505054469E+01  0.00000000000E+00 0. -1.
         13   -1    0    0    0    0 -0.00000000000E+00 -0.00000000000E+00 -0.10000000000E+04  0.10000000000E+04  0.00000000000E+00 0.  1.
    9000005    2    1    2  501    0 -0.29103009318E+02  0.14678618795E+02 -0.63610344792E+03  0.63694295288E+03  0.25063445185E+01 0.  0.
         13    1    3    3    0    0 -0.12144545641E+02  0.51194157280E+01 -0.27332917541E+03  0.27364673675E+03  0.00000000000E+00 0.  1.
          1    1    3    3  501    0 -0.16958463677E+02  0.95592030667E+01 -0.36277427251E+03  0.36329621613E+03  0.00000000000E+00 0.  1.
         -1    1    1    2    0  502  0.29103009318E+02 -0.14678618795E+02 -0.36274604663E+03  0.36420755257E+03  0.00000000000E+00 0. -1.
<mgrwt>
<rscale>  1 0.30000000E+03</rscale>
<asrwt>0</asrwt>
<pdfrwt beam="1">  1       21 0.41836650E-02 0.30000000E+03</pdfrwt>
<pdfrwt beam="2">0</pdfrwt>
<totfact> 0.38982103E+04</totfact>
</mgrwt>
</event>
<event>
 6    1  0.6513574E-002  0.3000000E+03  0.7818608E-02  0.1093470E+00
         21   -1    0    0  501  502  0.00000000000E+00  0.00000000000E+00  0.13332365016E+01  0.13332365016E+01  0.00000000000E+00 0. -1.
         13   -1    0    0    0    0 -0.00000000000E+00 -0.00000000000E+00 -0.10000000000E+04  0.10000000000E+04  0.00000000000E+00 0.  1.
    9000005    2    1    2  501    0  0.24366780402E+02 -0.23321187565E+02 -0.31131264346E+03  0.31315208004E+03  0.33234737784E+01 0.  0.
         13    1    3    3    0    0  0.17871805786E+01 -0.18035216181E+01 -0.32875932592E+02  0.32973832783E+02  0.00000000000E+00 0.  1.
          3    1    3    3  501    0  0.22579599824E+02 -0.21517665947E+02 -0.27843671087E+03  0.28017824725E+03  0.00000000000E+00 0.  1.
         -3    1    1    2    0  502 -0.24366780402E+02  0.23321187565E+02 -0.68735412004E+03  0.68818115647E+03  0.00000000000E+00 0. -1.
<mgrwt>
<rscale>  1 0.30000000E+03</rscale>
<asrwt>0</asrwt>
<pdfrwt beam="1">  1       21 0.48481430E-02 0.30000000E+03</pdfrwt>
<pdfrwt beam="2">0</pdfrwt>
<totfact> 0.30358493E+04</totfact>
</mgrwt>
</event>
<event>
 6    1  0.6513574E-002  0.3000000E+03  0.7818608E-02  0.1093470E+00
         21   -1    0    0  501  502  0.00000000000E+00  0.00000000000E+00  0.15982046516E+01  0.15982046516E+01  0.00000000000E+00 0. -1.
         13   -1    0    0    0    0 -0.00000000000E+00 -0.00000000000E+00 -0.10000000000E+04  0.10000000000E+04  0.00000000000E+00 0.  1.
    9000005    2    1    2  501    0  0.17208797676E+02  0.27983695234E+02 -0.78379978916E+03  0.78449626782E+03  0.36131451892E+01 0.  0.
         13    1    3    3    0    0  0.92917600736E+01  0.12898730516E+02 -0.41131599217E+03  0.41162307937E+03  0.00000000000E+00 0.  1.
          1    1    3    3  501    0  0.79170376023E+01  0.15084964718E+02 -0.37248379699E+03  0.37287318845E+03  0.00000000000E+00 0.  1.
         -3    1    1    2    0  502 -0.17208797676E+02 -0.27983695234E+02 -0.21460200619E+03  0.21710193683E+03  0.00000000000E+00 0. -1.
<mgrwt>
<rscale>  1 0.30000000E+03</rscale>
<asrwt>0</asrwt>
<pdfrwt beam="1">  1       21 0.58116655E-02 0.30000000E+03</pdfrwt>
<pdfrwt beam="2">0</pdfrwt>
<totfact> 0.22262398E+04</totfact>
</mgrwt>
</event>
<event>
 6    1  0.6513574E-002  0.3000000E+03  0.7818608E-02  0.1093470E+00
         21   -1    0    0  501  502  0.00000000000E+00  0.00000000000E+00  0.17907183174E+01  0.17907183174E+01  0.00000000000E+00 0. -1.
         13   -1    0    0    0    0 -0.00000000000E+00 -0.00000000000E+00 -0.10000000000E+04  0.10000000000E+04  0.00000000000E+00 0.  1.
    9000005    2    1    2  501    0 -0.31922118392E+02 -0.27565606998E+02 -0.46926031164E+03  0.47116288524E+03  0.32155888134E+01 0.  0.
         13    1    3    3    0    0 -0.22662853152E+02 -0.19413923786E+02 -0.34770017171E+03  0.34897838723E+03  0.00000000000E+00 0.  1.
          1    1    3    3  501    0 -0.92592652402E+01 -0.81516832121E+01 -0.12156013993E+03  0.12218449800E+03  0.00000000000E+00 0.  1.
         -1    1    1    2    0  502  0.31922118392E+02  0.27565606998E+02 -0.52894897004E+03  0.53062783308E+03  0.00000000000E+00 0. -1.
<mgrwt>
<rscale>  1 0.30000000E+03</rscale>
<asrwt>0</asrwt>
<pdfrwt beam="1">  1       21 0.65117167E-02 0.30000000E+03</pdfrwt>
<pdfrwt beam="2">0</pdfrwt>
<totfact> 0.18292913E+04</totfact>
</mgrwt>
</event>
<event>
 6    1  0.6513574E-002  0.3000000E+03  0.7818608E-02  0.1093470E+00
         21   -1    0    0  501  502  0.00000000000E+00  0.00000000000E+00  0.10609609131E+01  0.10609609131E+01  0.00000000000E+00 0. -1.
         13   -1    0    0    0    0 -0.00000000000E+00 -0.00000000000E+00 -0.10000000000E+04  0.10000000000E+04  0.00000000000E+00 0.  1.
    9000005    2    1    2  501    0 -0.75770504116E+01  0.31324094276E+02 -0.56400890194E+03  0.56493846117E+03  0.32882939766E+01 0.  0.
         13    1    3    3    0    0 -0.28980920006E+01  0.14352051440E+02 -0.28317062818E+03  0.28354891109E+03  0.00000000000E+00 0.  1.
          1    1    3    3  501    0 -0.46789584110E+01  0.16972042836E+02 -0.28083827376E+03  0.28138955008E+03  0.00000000000E+00 0.  1.
         -1    1    1    2    0  502  0.75770504116E+01 -0.31324094276E+02 -0.43493013715E+03  0.43612249974E+03  0.00000000000E+00 0. -1.
<mgrwt>
<rscale>  1 0.30000000E+03</rscale>
<asrwt>0</asrwt>
<pdfrwt beam="1">  1       21 0.38580478E-02 0.30000000E+03</pdfrwt>
<pdfrwt beam="2">0</pdfrwt>
<totfact> 0.44682965E+04</totfact>
</mgrwt>
</event>
<event>
 6    1  0.6513574E-002  0.3000000E+03  0.7818608E-02  0.1093470E+00
         21   -1    0    0  501  502  0.00000000000E+00  0.00000000000E+00  0.97453949261E+00  0.97453949261E+00  0.00000000000E+00 0. -1.
         13   -1    0    0    0    0 -0.00000000000E+00 -0.00000000000E+00 -0.10000000000E+04  0.10000000000E+04  0.00000000000E+00 0.  1.
    9000005    2    1    2  501    0  0.30149355583E+02 -0.18516040910E+01 -0.38072867042E+03  0.38194034600E+03  0.34198455554E+01 0.  0.
         13    1    3    3    0    0  0.13267602801E+01  0.56932846649E+00 -0.22159017981E+02  0.22206001568E+02  0.00000000000E+00 0.  1.
          1    1    3    3  501    0  0.28822595303E+02 -0.24209325575E+01 -0.35856965244E+03  0.35973434443E+03  0.00000000000E+00 0.  1.
         -3    1    1    2    0  502 -0.30149355583E+02  0.18516040910E+01 -0.61829679009E+03  0.61903419350E+03  0.00000000000E+00 0. -1.
<mgrwt>
<rscale>  1 0.30000000E+03</rscale>
<asrwt>0</asrwt>
<pdfrwt beam="1">  1       21 0.35437874E-02 0.30000000E+03</pdfrwt>
<pdfrwt beam="2">0</pdfrwt>
<totfact> 0.51532219E+04</totfact>
</mgrwt>
</event>
<event>
 6    1  0.6513574E-002  0.3000000E+03  0.7818608E-02  0.1093470E+00
         21   -1    0    0  501  502  0.00000000000E+00  0.00000000000E+00  0.14084195207E+01  0.14084195207E+01  0.00000000000E+00 0. -1.
         13   -1    0    0    0    0 -0.00000000000E+00 -0.00000000000E+00 -0.10000000000E+04  0.10000000000E+04  0.00000000000E+00 0.  1.
    9000005    2    1    2  501    0  0.72264515169E+01 -0.34141418076E+02 -0.31834287057E+03  0.32026514138E+03  0.31176124754E+01 0.  0.
         13    1    3    3    0    0  0.65399555923E+01 -0.33277961095E+02 -0.30629257232E+03  0.30816445864E+03  0.00000000000E+00 0.  1.
          3    1    3    3  501    0  0.68649592460E+00 -0.86345698034E+00 -0.12050298259E+02  0.12100682739E+02  0.00000000000E+00 0.  1.
         -3    1    1    2    0  502 -0.72264515169E+01  0.34141418076E+02 -0.68024870990E+03  0.68114327814E+03  0.00000000000E+00 0. -1.
<mgrwt>
<rscale>  1 0.30000000E+03</rscale>
<asrwt>0</asrwt>
<pdfrwt beam="1">  1       21 0.51215363E-02 0.30000000E+03</pdfrwt>
<pdfrwt beam="2">0</pdfrwt>
<totfact> 0.27648467E+04</totfact>
</mgrwt>
</event>
<event>
 6    1  0.6513574E-002  0.3000000E+03  0.7818608E-02  0.1093470E+00
         21   -1    0    0  501  502  0.00000000000E+00  0.00000000000E+00  0.26240854414E+01  0.26240854414E+01  0.00000000000E+00 0. -1.
         13   -1    0    0    0    0 -0.00000000000E+00 -0.00000000000E+00 -0.10000000000E+04  0.10000000000E+04  0.00000000000E+00 0.  1.
    9000005    2    1    2  501    0  0.86765210369E+01  0.50367595310E+02 -0.52560148499E+03  0.52808927210E+03  0.30301176033E+01 0.  0.
         13    1    3    3    0    0  0.20470432195E+01  0.19944618880E+02 -0.21168852882E+03  0.21263586584E+03  0.00000000000E+00 0.  1.
          3    1    3    3  501    0  0.66294778174E+01  0.30422976431E+02 -0.31391295617E+03  0.31545340626E+03  0.00000000000E+00 0.  1.
         -3    1    1    2    0  502 -0.86765210369E+01 -0.50367595310E+02 -0.47177442957E+03  0.47453481334E+03  0.00000000000E+00 0. -1.
<mgrwt>
<rscale>  1 0.30000000E+03</rscale>
<asrwt>0</asrwt>
<pdfrwt beam="1">  1       21 0.95421490E-02 0.30000000E+03</pdfrwt>
<pdfrwt beam="2">0</pdfrwt>
<totfact> 0.93536515E+03</totfact>
</mgrwt>
</event>
<event>
 6    1  0.6513574E-002  0.3000000E+03  0.7818608E-02  0.1093470E+00
         21   -1    0    0  501  502  0.00000000000E+00  0.00000000000E+00  0.17568174040E+01  0.17568174040E+01  0.00000000000E+00 0. -1.
         13   -1    0    0    0    0 -0.00000000000E+00 -0.00000000000E+00 -0.10000000000E+04  0.10000000000E+04  0.00000000000E+00 0.  1.
    9000005    2    1    2  501    0  0.57646974872E+00  0.35700407737E+02 -0.76073021548E+03  0.76157509250E+03  0.33629363907E+01 0.  0.
         13    1    3    3    0    0  0.61846265481E+00  0.21803499062E+02 -0.42959101367E+03  0.43014441075E+03  0.00000000000E+00 0.  1.
          1    1    3    3  501    0 -0.41992906090E-01  0.13896908675E+02 -0.33113920181E+03  0.33143068175E+03  0.00000000000E+00 0.  1.
         -1    1    1    2    0  502 -0.57646974872E+00 -0.35700407737E+02 -0.23751296712E+03  0.24018172490E+03  0.00000000000E+00 0. -1.
<mgrwt>
<rscale>  1 0.30000000E+03</rscale>
<asrwt>0</asrwt>
<pdfrwt beam="1">  1       21 0.63884404E-02 0.30000000E+03</pdfrwt>
<pdfrwt beam="2">0</pdfrwt>
<totfact> 0.18908113E+04</totfact>
</mgrwt>
</event>
<event>
 6    1  0.6513574E-002  0.3000000E+03  0.7818608E-02  0.1093470E+00
         21   -1    0    0  501  502  0.00000000000E+00  0.00000000000E+00  0.21867691236E+01  0.21867691236E+01  0.00000000000E+00 0. -1.
         13   -1    0    0    0    0 -0.00000000000E+00 -0.00000000000E+00 -0.10000000000E+04  0.10000000000E+04  0.00000000000E+00 0.  1.
    9000005    2    1    2  501    0  0.36680209662E+02  0.27308287419E+02 -0.58623183979E+03  0.58807274880E+03  0.84028299606E+01 0.  0.
         13    1    3    3    0    0  0.62412587306E+01  0.28123246041E+01 -0.12579553446E+03  0.12598166125E+03  0.00000000000E+00 0.  1.
          3    1    3    3  501    0  0.30438950931E+02  0.24495962814E+02 -0.46043630533E+03  0.46209108755E+03  0.00000000000E+00 0.  1.
         -1    1    1    2    0  502 -0.36680209662E+02 -0.27308287419E+02 -0.41158139108E+03  0.41411402032E+03  0.00000000000E+00 0. -1.
<mgrwt>
<rscale>  1 0.30000000E+03</rscale>
<asrwt>0</asrwt>
<pdfrwt beam="1">  1       21 0.79519045E-02 0.30000000E+03</pdfrwt>
<pdfrwt beam="2">0</pdfrwt>
<totfact> 0.12909860E+04</totfact>
</mgrwt>
</event>
<event>
 6    1  0.6513574E-002  0.3000000E+03  0.7818608E-02  0.1093470E+00
         21   -1    0    0  501  502  0.00000000000E+00  0.00000000000E+00  0.29909494833E+01  0.29909494833E+01  0.00000000000E+00 0. -1.
         13   -1    0    0    0    0 -0.00000000000E+00 -0.00000000000E+00 -0.10000000000E+04  0.10000000000E+04  0.00000000000E+00 0.  1.
    9000005    2    1    2  501    0 -0.50809208764E+02 -0.17235388307E+02 -0.59332621156E+03  0.59575825339E+03  0.36426424444E+01 0.  0.
         13    1    3    3    0    0 -0.47126922302E+02 -0.15559482613E+02 -0.53794141644E+03  0.54022588963E+03  0.00000000000E+00 0.  1.
          3    1    3    3  501    0 -0.36822864625E+01 -0.16759056938E+01 -0.55384795127E+02  0.55532363759E+02  0.00000000000E+00 0.  1.
         -3    1    1    2    0  502  0.50809208764E+02  0.17235388307E+02 -0.40368283895E+03  0.40723269610E+03  0.00000000000E+00 0. -1.
<mgrwt>
<rscale>  1 0.30000000E+03</rscale>
<asrwt>0</asrwt>
<pdfrwt beam="1">  1       21 0.10876203E-01 0.30000000E+03</pdfrwt>
<pdfrwt beam="2">0</pdfrwt>
<totfact> 0.74011356E+03</totfact>
</mgrwt>
</event>
<event>
 6    1  0.6513574E-002  0.3000000E+03  0.7818608E-02  0.1093470E+00
         21   -1    0    0  501  502  0.00000000000E+00  0.00000000000E+00  0.11215463782E+01  0.11215463782E+01  0.00000000000E+00 0. -1.
         13   -1    0    0    0    0 -0.00000000000E+00 -0.00000000000E+00 -0.10000000000E+04  0.10000000000E+04  0.00000000000E+00 0.  1.
    9000005    2    1    2  501    0 -0.31586565138E+02  0.93563895170E+01 -0.41482020584E+03  0.41613497395E+03  0.26944845943E+01 0.  0.
         13    1    3    3    0    0 -0.11477994728E+02  0.35272235792E+01 -0.16782558854E+03  0.16825461015E+03  0.00000000000E+00 0.  1.
          3    1    3    3  501    0 -0.20108570410E+02  0.58291659378E+01 -0.24699461730E+03  0.24788036379E+03  0.00000000000E+00 0.  1.
         -3    1    1    2    0  502  0.31586565138E+02 -0.93563895170E+01 -0.58405824778E+03  0.58498657243E+03  0.00000000000E+00 0. -1.
<mgrwt>
<rscale>  1 0.30000000E+03</rscale>
<asrwt>0</asrwt>
<pdfrwt beam="1">  1       21 0.40783591E-02 0.30000000E+03</pdfrwt>
<pdfrwt beam="2">0</pdfrwt>
<totfact> 0.40695132E+04</totfact>
</mgrwt>
</event>
<event>
 6    1  0.6513574E-002  0.3000000E+03  0.7818608E-02  0.1093470E+00
         21   -1    0    0  501  502  0.00000000000E+00  0.00000000000E+00  0.19109658373E+01  0.19109658373E+01  0.00000000000E+00 0. -1.
         13   -1    0    0    0    0 -0.00000000000E+00 -0.00000000000E+00 -0.10000000000E+04  0.10000000000E+04  0.00000000000E+00 0.  1.
    9000005    2    1    2  501    0 -0.18594256658E+02 -0.38862082196E+02 -0.56787898452E+03  0.56954920224E+03  0.66139921161E+01 0.  0.
         13    1    3    3    0    0 -0.40154603841E+01 -0.48487971731E+01 -0.62131946507E+02  0.62450088334E+02  0.00000000000E+00 0.  1.
          3    1    3    3  501    0 -0.14578796274E+02 -0.34013285023E+02 -0.50574703801E+03  0.50709911390E+03  0.00000000000E+00 0.  1.
         -3    1    1    2    0  502  0.18594256658E+02  0.38862082196E+02 -0.43021004964E+03  0.43236176360E+03  0.00000000000E+00 0. -1.
<mgrwt>
<rscale>  1 0.30000000E+03</rscale>
<asrwt>0</asrwt>
<pdfrwt beam="1">  1       21 0.69489813E-02 0.30000000E+03</pdfrwt>
<pdfrwt beam="2">0</pdfrwt>
<totfact> 0.16341952E+04</totfact>
</mgrwt>
</event>
<event>
 6    1  0.6513574E-002  0.3000000E+03  0.7818608E-02  0.1093470E+00
         21   -1    0    0  501  502  0.00000000000E+00  0.00000000000E+00  0.12322575034E+01  0.12322575034E+01  0.00000000000E+00 0. -1.
         13   -1    0    0    0    0 -0.00000000000E+00 -0.00000000000E+00 -0.10000000000E+04  0.10000000000E+04  0.00000000000E+00 0.  1.
    9000005    2    1    2  501    0  0.32087198893E+02  0.13622091958E+02 -0.45649358069E+03  0.45783883071E+03  0.38543443398E+01 0.  0.
         13    1    3    3    0    0  0.28181902374E+02  0.10532463702E+02 -0.38865072163E+03  0.38981346287E+03  0.00000000000E+00 0.  1.
          3    1    3    3  501    0  0.39052965189E+01  0.30896282556E+01 -0.67842859061E+02  0.68025367836E+02  0.00000000000E+00 0.  1.
         -3    1    1    2    0  502 -0.32087198893E+02 -0.13622091958E+02 -0.54227416181E+03  0.54339342679E+03  0.00000000000E+00 0. -1.
<mgrwt>
<rscale>  1 0.30000000E+03</rscale>
<asrwt>0</asrwt>
<pdfrwt beam="1">  1       21 0.44809458E-02 0.30000000E+03</pdfrwt>
<pdfrwt beam="2">0</pdfrwt>
<totfact> 0.34707154E+04</totfact>
</mgrwt>
</event>
<event>
 6    1  0.6513574E-002  0.3000000E+03  0.7818608E-02  0.1093470E+00
         21   -1    0    0  501  502  0.00000000000E+00  0.00000000000E+00  0.16959890994E+01  0.16959890994E+01  0.00000000000E+00 0. -1.
         13   -1    0    0    0    0 -0.00000000000E+00 -0.00000000000E+00 -0.10000000000E+04  0.10000000000E+04  0.00000000000E+00 0.  1.
    9000005    2    1    2  501    0  0.19813769552E+02 -0.27456825681E+02 -0.21637818703E+03  0.21903740659E+03  0.33768214087E+01 0.  0.
         13    1    3    3    0    0  0.42047204996E+00 -0.12419259041E+01 -0.55785602419E+01  0.57305768530E+01  0.00000000000E+00 0.  1.
          3    1    3    3  501    0  0.19393297502E+02 -0.26214899777E+02 -0.21079962678E+03  0.21330682973E+03  0.00000000000E+00 0.  1.
         -3    1    1    2    0  502 -0.19813769552E+02  0.27456825681E+02 -0.78192582387E+03  0.78265858251E+03  0.00000000000E+00 0. -1.
<mgrwt>
<rscale>  1 0.30000000E+03</rscale>
<asrwt>0</asrwt>
<pdfrwt beam="1">  1       21 0.61672461E-02 0.30000000E+03</pdfrwt>
<pdfrwt beam="2">0</pdfrwt>
<totfact> 0.20095316E+04</totfact>
</mgrwt>
</event>
<event>
 6    1  0.6513574E-002  0.3000000E+03  0.7818608E-02  0.1093470E+00
         21   -1    0    0  501  502  0.00000000000E+00  0.00000000000E+00  0.12567844967E+01  0.12567844967E+01  0.00000000000E+00 0. -1.
         13   -1    0    0    0    0 -0.00000000000E+00 -0.00000000000E+00 -0.10000000000E+04  0.10000000000E+04  0.00000000000E+00 0.  1.
    9000005    2    1    2  501    0  0.32346959182E+02  0.49136522756E+01 -0.31118204813E+03  0.31291760311E+03  0.35622342860E+01 0.  0.
         13    1    3    3    0    0  0.28965900891E+02  0.43634423242E+01 -0.28762684549E+03  0.28911462310E+03  0.00000000000E+00 0.  1.
          1    1    3    3  501    0  0.33810582908E+01  0.55020995137E+00 -0.23555202636E+02  0.23802980010E+02  0.00000000000E+00 0.  1.
         -3    1    1    2    0  502 -0.32346959182E+02 -0.49136522756E+01 -0.68756116737E+03  0.68833918138E+03  0.00000000000E+00 0. -1.
<mgrwt>
<rscale>  1 0.30000000E+03</rscale>
<asrwt>0</asrwt>
<pdfrwt beam="1">  1       21 0.45701351E-02 0.30000000E+03</pdfrwt>
<pdfrwt beam="2">0</pdfrwt>
<totfact> 0.33565139E+04</totfact>
</mgrwt>
</event>
<event>
 6    1  0.6513574E-002  0.3000000E+03  0.7818608E-02  0.1093470E+00
         21   -1    0    0  501  502  0.00000000000E+00  0.00000000000E+00  0.25878682909E+01  0.25878682909E+01  0.00000000000E+00 0. -1.
         13   -1    0    0    0    0 -0.00000000000E+00 -0.00000000000E+00 -0.10000000000E+04  0.10000000000E+04  0.00000000000E+00 0.  1.
    9000005    2    1    2  501    0  0.36393623607E+02 -0.22782724522E+02 -0.23165884804E+03  0.23563178100E+03  0.36008288127E+01 0.  0.
         13    1    3    3    0    0  0.25263799485E-01  0.95037720766E-01 -0.26282251633E+00  0.28061736052E+00  0.00000000000E+00 0.  1.
          1    1    3    3  501    0  0.36368359807E+02 -0.22877762243E+02 -0.23139602552E+03  0.23535116364E+03  0.00000000000E+00 0.  1.
         -1    1    1    2    0  502 -0.36393623607E+02  0.22782724522E+02 -0.76575328367E+03  0.76695608729E+03  0.00000000000E+00 0. -1.
<mgrwt>
<rscale>  1 0.30000000E+03</rscale>
<asrwt>0</asrwt>
<pdfrwt beam="1">  1       21 0.94104500E-02 0.30000000E+03</pdfrwt>
<pdfrwt beam="2">0</pdfrwt>
<totfact> 0.95880471E+03</totfact>
</mgrwt>
</event>
<event>
 6    1  0.6513574E-002  0.3000000E+03  0.7818608E-02  0.1093470E+00
         21   -1    0    0  501  502  0.00000000000E+00  0.00000000000E+00  0.98533066536E+00  0.98533066536E+00  0.00000000000E+00 0. -1.
         13   -1    0    0    0    0 -0.00000000000E+00 -0.00000000000E+00 -0.10000000000E+04  0.10000000000E+04  0.00000000000E+00 0.  1.
    9000005    2    1    2  501    0 -0.30397878734E+02 -0.22947746867E+01 -0.61497356365E+03  0.61573623219E+03  0.30539512027E+01 0.  0.
         13    1    3    3    0    0 -0.83006700295E+01 -0.15684284237E-01 -0.14395857387E+03  0.14419768500E+03  0.00000000000E+00 0.  1.
          1    1    3    3  501    0 -0.22097208704E+02 -0.22790904024E+01 -0.47101498978E+03  0.47153854718E+03  0.00000000000E+00 0.  1.
         -1    1    1    2    0  502  0.30397878734E+02  0.22947746867E+01 -0.38404110568E+03  0.38524909848E+03  0.00000000000E+00 0. -1.
<mgrwt>
<rscale>  1 0.30000000E+03</rscale>
<asrwt>0</asrwt>
<pdfrwt beam="1">  1       21 0.35830282E-02 0.30000000E+03</pdfrwt>
<pdfrwt beam="2">0</pdfrwt>
<totfact> 0.50589597E+04</totfact>
</mgrwt>
</event>
<event>
 6    1  0.6513574E-002  0.3000000E+03  0.7818608E-02  0.1093470E+00
         21   -1    0    0  501  502  0.00000000000E+00  0.00000000000E+00  0.31736259697E+01  0.31736259697E+01  0.00000000000E+00 0. -1.
         13   -1    0    0    0    0 -0.00000000000E+00 -0.00000000000E+00 -0.10000000000E+04  0.10000000000E+04  0.00000000000E+00 0.  1.
    9000005    2    1    2  501    0  0.26737716471E+02 -0.48741885608E+02 -0.57395319033E+03  0.57666171947E+03  0.50790860743E+01 0.  0.
         13    1    3    3    0    0  0.20621386851E+02 -0.33139804749E+02 -0.39199273821E+03  0.39393120601E+03  0.00000000000E+00 0.  1.
          3    1    3    3  501    0  0.61163296202E+01 -0.15602080859E+02 -0.18196045212E+03  0.18273051347E+03  0.00000000000E+00 0.  1.
         -3    1    1    2    0  502 -0.26737716471E+02  0.48741885608E+02 -0.42287318370E+03  0.42651190650E+03  0.00000000000E+00 0. -1.
<mgrwt>
<rscale>  1 0.30000000E+03</rscale>
<asrwt>0</asrwt>
<pdfrwt beam="1">  1       21 0.11540482E-01 0.30000000E+03</pdfrwt>
<pdfrwt beam="2">0</pdfrwt>
<totfact> 0.66511877E+03</totfact>
</mgrwt>
</event>
<event>
 6    1  0.6513574E-002  0.3000000E+03  0.7818608E-02  0.1093470E+00
         21   -1    0    0  501  502  0.00000000000E+00  0.00000000000E+00  0.12080704230E+01  0.12080704230E+01  0.00000000000E+00 0. -1.
         13   -1    0    0    0    0 -0.00000000000E+00 -0.00000000000E+00 -0.10000000000E+04  0.10000000000E+04  0.00000000000E+00 0.  1.
    9000005    2    1    2  501    0 -0.18546426441E+02  0.29282593027E+02 -0.47969232970E+03  0.48095252285E+03  0.30261980546E+01 0.  0.
         13    1    3    3    0    0 -0.93403848420E+01  0.12206252633E+02 -0.22093564547E+03  0.22146962508E+03  0.00000000000E+00 0.  1.
          1    1    3    3  501    0 -0.92060415990E+01  0.17076340393E+02 -0.25875668423E+03  0.25948289778E+03  0.00000000000E+00 0.  1.
         -1    1    1    2    0  502  0.18546426441E+02 -0.29282593027E+02 -0.51909959987E+03  0.52025554757E+03  0.00000000000E+00 0. -1.
<mgrwt>
<rscale>  1 0.30000000E+03</rscale>
<asrwt>0</asrwt>
<pdfrwt beam="1">  1       21 0.43929926E-02 0.30000000E+03</pdfrwt>
<pdfrwt beam="2">0</pdfrwt>
<totfact> 0.35893177E+04</totfact>
</mgrwt>
</event>
<event>
 6    1  0.6513574E-002  0.3000000E+03  0.7818608E-02  0.1093470E+00
         21   -1    0    0  501  502  0.00000000000E+00  0.00000000000E+00  0.22648157287E+01  0.22648157287E+01  0.00000000000E+00 0. -1.
         13   -1    0    0    0    0 -0.00000000000E+00 -0.00000000000E+00 -0.10000000000E+04  0.10000000000E+04  0.00000000000E+00 0.  1.
    9000005    2    1    2  501    0  0.41147439670E+02  0.18867707840E+02 -0.34816543980E+03  0.35111970508E+03  0.40953184379E+01 0.  0.
         13    1    3    3    0    0  0.17709743633E+02  0.59494432107E+01 -0.14627420961E+03  0.14746245384E+03  0.00000000000E+00 0.  1.
          3    1    3    3  501    0  0.23437696037E+02  0.12918264630E+02 -0.20189123019E+03  0.20365725124E+03  0.00000000000E+00 0.  1.
         -1    1    1    2    0  502 -0.41147439670E+02 -0.18867707840E+02 -0.64956974447E+03  0.65114511065E+03  0.00000000000E+00 0. -1.
<mgrwt>
<rscale>  1 0.30000000E+03</rscale>
<asrwt>0</asrwt>
<pdfrwt beam="1">  1       21 0.82357109E-02 0.30000000E+03</pdfrwt>
<pdfrwt beam="2">0</pdfrwt>
<totfact> 0.12138149E+04</totfact>
</mgrwt>
</event>
<event>
 6    1  0.6513574E-002  0.3000000E+03  0.7818608E-02  0.1093470E+00
         21   -1    0    0  501  502  0.00000000000E+00  0.00000000000E+00  0.15457730223E+01  0.15457730223E+01  0.00000000000E+00 0. -1.
         13   -1    0    0    0    0 -0.00000000000E+00 -0.00000000000E+00 -0.10000000000E+04  0.10000000000E+04  0.00000000000E+00 0.  1.
    9000005    2    1    2  501    0  0.24264289143E+02 -0.29888189770E+02 -0.40443367330E+03  0.40627904473E+03  0.37425226511E+01 0.  0.
         13    1    3    3    0    0  0.14941827009E+02 -0.19772125490E+02 -0.27617707788E+03  0.27728680727E+03  0.00000000000E+00 0.  1.
          3    1    3    3  501    0  0.93224621340E+01 -0.10116064280E+02 -0.12825659542E+03  0.12899223746E+03  0.00000000000E+00 0.  1.
         -3    1    1    2    0  502 -0.24264289143E+02  0.29888189770E+02 -0.59402055368E+03  0.59526672829E+03  0.00000000000E+00 0. -1.
<mgrwt>
<rscale>  1 0.30000000E+03</rscale>
<asrwt>0</asrwt>
<pdfrwt beam="1">  1       21 0.56210047E-02 0.30000000E+03</pdfrwt>
<pdfrwt beam="2">0</pdfrwt>
<totfact> 0.23576991E+04</totfact>
</mgrwt>
</event>
<event>
 6    1  0.6513574E-002  0.3000000E+03  0.7818608E-02  0.1093470E+00
         21   -1    0    0  501  502  0.00000000000E+00  0.00000000000E+00  0.12469495066E+02  0.12469495066E+02  0.00000000000E+00 0. -1.
         13   -1    0    0    0    0 -0.00000000000E+00 -0.00000000000E+00 -0.10000000000E+04  0.10000000000E+04  0.00000000000E+00 0.  1.
    9000005    2    1    2  501    0  0.11624632998E+02 -0.10825268923E+03 -0.60553231469E+03  0.61525872713E+03  0.44878006079E+01 0.  0.
         13    1    3    3    0    0  0.90850863584E+01 -0.97306228709E+02 -0.54384094127E+03  0.55255226933E+03  0.00000000000E+00 0.  1.
          3    1    3    3  501    0  0.25395466398E+01 -0.10946460519E+02 -0.61691373428E+02  0.62706457805E+02  0.00000000000E+00 0.  1.
         -3    1    1    2    0  502 -0.11624632998E+02  0.10825268923E+03 -0.38199819024E+03  0.39721076794E+03  0.00000000000E+00 0. -1.
<mgrwt>
<rscale>  1 0.30000000E+03</rscale>
<asrwt>0</asrwt>
<pdfrwt beam="1">  1       21 0.45343714E-01 0.30000000E+03</pdfrwt>
<pdfrwt beam="2">0</pdfrwt>
<totfact> 0.46352055E+02</totfact>
</mgrwt>
</event>
<event>
 6    1  0.6513574E-002  0.3000000E+03  0.7818608E-02  0.1093470E+00
         21   -1    0    0  501  502  0.00000000000E+00  0.00000000000E+00  0.16685734668E+01  0.16685734668E+01  0.00000000000E+00 0. -1.
         13   -1    0    0    0    0 -0.00000000000E+00 -0.00000000000E+00 -0.10000000000E+04  0.10000000000E+04  0.00000000000E+00 0.  1.
    9000005    2    1    2  501    0 -0.37997730995E+02 -0.13723109467E+02 -0.43210246322E+03  0.43400019299E+03  0.33878464375E+01 0.  0.
         13    1    3    3    0    0 -0.27146339434E+02 -0.95311159821E+01 -0.29086907017E+03  0.29228852509E+03  0.00000000000E+00 0.  1.
          3    1    3    3  501    0 -0.10851391561E+02 -0.41919934850E+01 -0.14123339305E+03  0.14171166790E+03  0.00000000000E+00 0.  1.
         -1    1    1    2    0  502  0.37997730995E+02  0.13723109467E+02 -0.56622896331E+03  0.56766838047E+03  0.00000000000E+00 0. -1.
<mgrwt>
<rscale>  1 0.30000000E+03</rscale>
<asrwt>0</asrwt>
<pdfrwt beam="1">  1       21 0.60675527E-02 0.30000000E+03</pdfrwt>
<pdfrwt beam="2">0</pdfrwt>
<totfact> 0.20668608E+04</totfact>
</mgrwt>
</event>
<event>
 6    1  0.6513574E-002  0.3000000E+03  0.7818608E-02  0.1093470E+00
         21   -1    0    0  501  502  0.00000000000E+00  0.00000000000E+00  0.11823866728E+01  0.11823866728E+01  0.00000000000E+00 0. -1.
         13   -1    0    0    0    0 -0.00000000000E+00 -0.00000000000E+00 -0.10000000000E+04  0.10000000000E+04  0.00000000000E+00 0.  1.
    9000005    2    1    2  501    0  0.29949675990E+02  0.49169616273E+01 -0.26972828028E+03  0.27146160777E+03  0.41109251017E+01 0.  0.
         13    1    3    3    0    0  0.59869470601E+01 -0.55856785849E+00 -0.58316278656E+02  0.58625454279E+02  0.00000000000E+00 0.  1.
          1    1    3    3  501    0  0.23962728929E+02  0.54755294858E+01 -0.21141200162E+03  0.21283615349E+03  0.00000000000E+00 0.  1.
         -3    1    1    2    0  502 -0.29949675990E+02 -0.49169616273E+01 -0.72908933305E+03  0.72972077891E+03  0.00000000000E+00 0. -1.
<mgrwt>
<rscale>  1 0.30000000E+03</rscale>
<asrwt>0</asrwt>
<pdfrwt beam="1">  1       21 0.42995970E-02 0.30000000E+03</pdfrwt>
<pdfrwt beam="2">0</pdfrwt>
<totfact> 0.37222644E+04</totfact>
</mgrwt>
</event>
<event>
 6    1  0.6513574E-002  0.3000000E+03  0.7818608E-02  0.1093470E+00
         21   -1    0    0  501  502  0.00000000000E+00  0.00000000000E+00  0.17096454558E+01  0.17096454558E+01  0.00000000000E+00 0. -1.
         13   -1    0    0    0    0 -0.00000000000E+00 -0.00000000000E+00 -0.10000000000E+04  0.10000000000E+04  0.00000000000E+00 0.  1.
    9000005    2    1    2  501    0  0.16962836645E+02  0.37623022379E+02 -0.50779829210E+03  0.50948439929E+03  0.34667019770E+01 0.  0.
         13    1    3    3    0    0  0.15407606359E+02  0.34604170511E+02 -0.45298034549E+03  0.45456136698E+03  0.00000000000E+00 0.  1.
          1    1    3    3  501    0  0.15552302865E+01  0.30188518673E+01 -0.54817946611E+02  0.54923032313E+02  0.00000000000E+00 0.  1.
         -3    1    1    2    0  502 -0.16962836645E+02 -0.37623022379E+02 -0.49049206245E+03  0.49222524616E+03  0.00000000000E+00 0. -1.
<mgrwt>
<rscale>  1 0.30000000E+03</rscale>
<asrwt>0</asrwt>
<pdfrwt beam="1">  1       21 0.62169057E-02 0.30000000E+03</pdfrwt>
<pdfrwt beam="2">0</pdfrwt>
<totfact> 0.19818909E+04</totfact>
</mgrwt>
</event>
<event>
 6    1  0.6513574E-002  0.3000000E+03  0.7818608E-02  0.1093470E+00
         21   -1    0    0  501  502  0.00000000000E+00  0.00000000000E+00  0.39223128690E+01  0.39223128690E+01  0.00000000000E+00 0. -1.
         13   -1    0    0    0    0 -0.00000000000E+00 -0.00000000000E+00 -0.10000000000E+04  0.10000000000E+04  0.00000000000E+00 0.  1.
    9000005    2    1    2  501    0  0.47484421211E+02  0.12464742938E+02 -0.18902994524E+03  0.19538276667E+03  0.56537810811E+01 0.  0.
         13    1    3    3    0    0  0.10974581667E+02  0.82321425046E+00 -0.47315512614E+02  0.48578563775E+02  0.00000000000E+00 0.  1.
          1    1    3    3  501    0  0.36509839544E+02  0.11641528687E+02 -0.14171443263E+03  0.14680420290E+03  0.00000000000E+00 0.  1.
         -3    1    1    2    0  502 -0.47484421211E+02 -0.12464742938E+02 -0.80704774189E+03  0.80853954620E+03  0.00000000000E+00 0. -1.
<mgrwt>
<rscale>  1 0.30000000E+03</rscale>
<asrwt>0</asrwt>
<pdfrwt beam="1">  1       21 0.14262986E-01 0.30000000E+03</pdfrwt>
<pdfrwt beam="2">0</pdfrwt>
<totfact> 0.45193285E+03</totfact>
</mgrwt>
</event>
<event>
 6    1  0.6513574E-002  0.3000000E+03  0.7818608E-02  0.1093470E+00
         21   -1    0    0  501  502  0.00000000000E+00  0.00000000000E+00  0.15360673727E+01  0.15360673727E+01  0.00000000000E+00 0. -1.
         13   -1    0    0    0    0 -0.00000000000E+00 -0.00000000000E+00 -0.10000000000E+04  0.10000000000E+04  0.00000000000E+00 0.  1.
    9000005    2    1    2  501    0 -0.15457471256E+02 -0.35629824967E+02 -0.43432471237E+03  0.43606150766E+03  0.18068886352E+01 0.  0.
         13    1    3    3    0    0 -0.11225880641E+02 -0.27122326103E+02 -0.32126984142E+03  0.32260804698E+03  0.00000000000E+00 0.  1.
          3    1    3    3  501    0 -0.42315906147E+01 -0.85074988635E+01 -0.11305487094E+03  0.11345346068E+03  0.00000000000E+00 0.  1.
         -3    1    1    2    0  502  0.15457471256E+02  0.35629824967E+02 -0.56413922026E+03  0.56547455971E+03  0.00000000000E+00 0. -1.
<mgrwt>
<rscale>  1 0.30000000E+03</rscale>
<asrwt>0</asrwt>
<pdfrwt beam="1">  1       21 0.55857113E-02 0.30000000E+03</pdfrwt>
<pdfrwt beam="2">0</pdfrwt>
<totfact> 0.23833372E+04</totfact>
</mgrwt>
</event>
<event>
 6    1  0.6513574E-002  0.3000000E+03  0.7818608E-02  0.1093470E+00
         21   -1    0    0  501  502  0.00000000000E+00  0.00000000000E+00  0.10232452868E+01  0.10232452868E+01  0.00000000000E+00 0. -1.
         13   -1    0    0    0    0 -0.00000000000E+00 -0.00000000000E+00 -0.10000000000E+04  0.10000000000E+04  0.00000000000E+00 0.  1.
    9000005    2    1    2  501    0  0.23864041465E+02  0.20205266779E+02 -0.40181113308E+03  0.40303952901E+03  0.33060536589E+01 0.  0.
         13    1    3    3    0    0  0.17947880696E+02  0.16802583374E+02 -0.30668966249E+03  0.30767353203E+03  0.00000000000E+00 0.  1.
          3    1    3    3  501    0  0.59161607693E+01  0.34026834056E+01 -0.95121470592E+02  0.95365996981E+02  0.00000000000E+00 0.  1.
         -1    1    1    2    0  502 -0.23864041465E+02 -0.20205266779E+02 -0.59716562163E+03  0.59798371628E+03  0.00000000000E+00 0. -1.
<mgrwt>
<rscale>  1 0.30000000E+03</rscale>
<asrwt>0</asrwt>
<pdfrwt beam="1">  1       21 0.37208998E-02 0.30000000E+03</pdfrwt>
<pdfrwt beam="2">0</pdfrwt>
<totfact> 0.47484335E+04</totfact>
</mgrwt>
</event>
<event>
 6    1  0.6513574E-002  0.3000000E+03  0.7818608E-02  0.1093470E+00
         21   -1    0    0  501  502  0.00000000000E+00  0.00000000000E+00  0.23766669308E+01  0.23766669308E+01  0.00000000000E+00 0. -1.
         13   -1    0    0    0    0 -0.00000000000E+00 -0.00000000000E+00 -0.10000000000E+04  0.10000000000E+04  0.00000000000E+00 0.  1.
    9000005    2    1    2  501    0  0.10863369453E+02 -0.37694166101E+02 -0.79525243014E+03  0.79623873906E+03  0.55532859236E+01 0.  0.
         13    1    3    3    0    0  0.91679750898E+00 -0.60790501191E+00 -0.35019799197E+02  0.35037071824E+02  0.00000000000E+00 0.  1.
          3    1    3    3  501    0  0.99465719438E+01 -0.37086261089E+02 -0.76023263094E+03  0.76120166724E+03  0.00000000000E+00 0.  1.
         -3    1    1    2    0  502 -0.10863369453E+02  0.37694166101E+02 -0.20237090293E+03  0.20613792787E+03  0.00000000000E+00 0. -1.
<mgrwt>
<rscale>  1 0.30000000E+03</rscale>
<asrwt>0</asrwt>
<pdfrwt beam="1">  1       21 0.86424434E-02 0.30000000E+03</pdfrwt>
<pdfrwt beam="2">0</pdfrwt>
<totfact> 0.11149473E+04</totfact>
</mgrwt>
</event>
<event>
 6    1  0.6513574E-002  0.3000000E+03  0.7818608E-02  0.1093470E+00
         21   -1    0    0  501  502  0.00000000000E+00  0.00000000000E+00  0.17755313217E+01  0.17755313217E+01  0.00000000000E+00 0. -1.
         13   -1    0    0    0    0 -0.00000000000E+00 -0.00000000000E+00 -0.10000000000E+04  0.10000000000E+04  0.00000000000E+00 0.  1.
    9000005    2    1    2  501    0 -0.40164036972E+02 -0.49232019243E+01 -0.36469768170E+03  0.36695777983E+03  0.40280716512E+01 0.  0.
         13    1    3    3    0    0 -0.20200072739E+02 -0.26708509620E+01 -0.20171205216E+03  0.20273857149E+03  0.00000000000E+00 0.  1.
          3    1    3    3  501    0 -0.19963964233E+02 -0.22523509623E+01 -0.16298562954E+03  0.16421920834E+03  0.00000000000E+00 0.  1.
         -3    1    1    2    0  502  0.40164036972E+02  0.49232019243E+01 -0.63352678698E+03  0.63481775149E+03  0.00000000000E+00 0. -1.
<mgrwt>
<rscale>  1 0.30000000E+03</rscale>
<asrwt>0</asrwt>
<pdfrwt beam="1">  1       21 0.64564911E-02 0.30000000E+03</pdfrwt>
<pdfrwt beam="2">0</pdfrwt>
<totfact> 0.18564629E+04</totfact>
</mgrwt>
</event>
<event>
 6    1  0.6513574E-002  0.3000000E+03  0.7818608E-02  0.1093470E+00
         21   -1    0    0  501  502  0.00000000000E+00  0.00000000000E+00  0.25472537792E+01  0.25472537792E+01  0.00000000000E+00 0. -1.
         13   -1    0    0    0    0 -0.00000000000E+00 -0.00000000000E+00 -0.10000000000E+04  0.10000000000E+04  0.00000000000E+00 0.  1.
    9000005    2    1    2  501    0  0.58909715010E+00 -0.38083066644E+02 -0.17057748013E+03  0.17479525428E+03  0.24570696416E+01 0.  0.
         13    1    3    3    0    0 -0.91884615305E+00 -0.17191596684E+02 -0.78340383521E+02  0.80209793448E+02  0.00000000000E+00 0.  1.
          1    1    3    3  501    0  0.15079433032E+01 -0.20891469960E+02 -0.92237096608E+02  0.94585460832E+02  0.00000000000E+00 0.  1.
         -3    1    1    2    0  502 -0.58909715010E+00  0.38083066644E+02 -0.82687526609E+03  0.82775199950E+03  0.00000000000E+00 0. -1.
<mgrwt>
<rscale>  1 0.30000000E+03</rscale>
<asrwt>0</asrwt>
<pdfrwt beam="1">  1       21 0.92627605E-02 0.30000000E+03</pdfrwt>
<pdfrwt beam="2">0</pdfrwt>
<totfact> 0.98615497E+03</totfact>
</mgrwt>
</event>
<event>
 6    1  0.6513574E-002  0.3000000E+03  0.7818608E-02  0.1093470E+00
         21   -1    0    0  501  502  0.00000000000E+00  0.00000000000E+00  0.23918618316E+01  0.23918618316E+01  0.00000000000E+00 0. -1.
         13   -1    0    0    0    0 -0.00000000000E+00 -0.00000000000E+00 -0.10000000000E+04  0.10000000000E+04  0.00000000000E+00 0.  1.
    9000005    2    1    2  501    0  0.46078399261E+01  0.34941383827E+02 -0.15236358648E+03  0.15641285225E+03  0.28610088515E+01 0.  0.
         13    1    3    3    0    0  0.15494854570E+01  0.17490254247E+02 -0.81228338541E+02  0.83104469681E+02  0.00000000000E+00 0.  1.
          3    1    3    3  501    0  0.30583544691E+01  0.17451129580E+02 -0.71135247942E+02  0.73308382573E+02  0.00000000000E+00 0.  1.
         -3    1    1    2    0  502 -0.46078399261E+01 -0.34941383827E+02 -0.84524455169E+03  0.84597900958E+03  0.00000000000E+00 0. -1.
<mgrwt>
<rscale>  1 0.30000000E+03</rscale>
<asrwt>0</asrwt>
<pdfrwt beam="1">  1       21 0.86976977E-02 0.30000000E+03</pdfrwt>
<pdfrwt beam="2">0</pdfrwt>
<totfact> 0.11024690E+04</totfact>
</mgrwt>
</event>
<event>
 6    1  0.6513574E-002  0.3000000E+03  0.7818608E-02  0.1093470E+00
         21   -1    0    0  501  502  0.00000000000E+00  0.00000000000E+00  0.15422854658E+01  0.15422854658E+01  0.00000000000E+00 0. -1.
         13   -1    0    0    0    0 -0.00000000000E+00 -0.00000000000E+00 -0.10000000000E+04  0.10000000000E+04  0.00000000000E+00 0.  1.
    9000005    2    1    2  501    0  0.34508697936E+02  0.56465673080E+01 -0.72543726965E+03  0.72629167733E+03  0.41993336132E+01 0.  0.
         13    1    3    3    0    0  0.33210436744E+02  0.47296638474E+01 -0.70158250178E+03  0.70238401863E+03  0.00000000000E+00 0.  1.
          1    1    3    3  501    0  0.12982611921E+01  0.91690346065E+00 -0.23854767870E+02  0.23907658693E+02  0.00000000000E+00 0.  1.
         -1    1    1    2    0  502 -0.34508697936E+02 -0.56465673080E+01 -0.27302044489E+03  0.27525060814E+03  0.00000000000E+00 0. -1.
<mgrwt>
<rscale>  1 0.30000000E+03</rscale>
<asrwt>0</asrwt>
<pdfrwt beam="1">  1       21 0.56083226E-02 0.30000000E+03</pdfrwt>
<pdfrwt beam="2">0</pdfrwt>
<totfact> 0.23668627E+04</totfact>
</mgrwt>
</event>
<event>
 6    1  0.6513574E-002  0.3000000E+03  0.7818608E-02  0.1093470E+00
         21   -1    0    0  501  502  0.00000000000E+00  0.00000000000E+00  0.12162573420E+01  0.12162573420E+01  0.00000000000E+00 0. -1.
         13   -1    0    0    0    0 -0.00000000000E+00 -0.00000000000E+00 -0.10000000000E+04  0.10000000000E+04  0.00000000000E+00 0.  1.
    9000005    2    1    2  501    0 -0.28930758275E+02 -0.18693917654E+02 -0.42779117146E+03  0.42918569199E+03  0.29360687323E+01 0.  0.
         13    1    3    3    0    0 -0.12416522357E+02 -0.63337199667E+01 -0.16945800652E+03  0.17003029733E+03  0.00000000000E+00 0.  1.
          1    1    3    3  501    0 -0.16514235918E+02 -0.12360197688E+02 -0.25833316494E+03  0.25915539466E+03  0.00000000000E+00 0.  1.
         -3    1    1    2    0  502  0.28930758275E+02  0.18693917654E+02 -0.57099257120E+03  0.57203056535E+03  0.00000000000E+00 0. -1.
<mgrwt>
<rscale>  1 0.30000000E+03</rscale>
<asrwt>0</asrwt>
<pdfrwt beam="1">  1       21 0.44227633E-02 0.30000000E+03</pdfrwt>
<pdfrwt beam="2">0</pdfrwt>
<totfact> 0.35484808E+04</totfact>
</mgrwt>
</event>
<event>
 6    1  0.6513574E-002  0.3000000E+03  0.7818608E-02  0.1093470E+00
         21   -1    0    0  501  502  0.00000000000E+00  0.00000000000E+00  0.12221655263E+01  0.12221655263E+01  0.00000000000E+00 0. -1.
         13   -1    0    0    0    0 -0.00000000000E+00 -0.00000000000E+00 -0.10000000000E+04  0.10000000000E+04  0.00000000000E+00 0.  1.
    9000005    2    1    2  501    0 -0.20359233950E+02  0.26917317213E+02 -0.62685184095E+03  0.62776803845E+03  0.32309784910E+01 0.  0.
         13    1    3    3    0    0 -0.62791327393E+01  0.10685501949E+02 -0.24041127835E+03  0.24073053445E+03  0.00000000000E+00 0.  1.
          3    1    3    3  501    0 -0.14080101210E+02  0.16231815264E+02 -0.38644056260E+03  0.38703750399E+03  0.00000000000E+00 0.  1.
         -1    1    1    2    0  502  0.20359233950E+02 -0.26917317213E+02 -0.37192599353E+03  0.37345412708E+03  0.00000000000E+00 0. -1.
<mgrwt>
<rscale>  1 0.30000000E+03</rscale>
<asrwt>0</asrwt>
<pdfrwt beam="1">  1       21 0.44442476E-02 0.30000000E+03</pdfrwt>
<pdfrwt beam="2">0</pdfrwt>
<totfact> 0.35194548E+04</totfact>
</mgrwt>
</event>
<event>
 6    1  0.6513574E-002  0.3000000E+03  0.7818608E-02  0.1093470E+00
         21   -1    0    0  501  502  0.00000000000E+00  0.00000000000E+00  0.25017075749E+01  0.25017075749E+01  0.00000000000E+00 0. -1.
         13   -1    0    0    0    0 -0.00000000000E+00 -0.00000000000E+00 -0.10000000000E+04  0.10000000000E+04  0.00000000000E+00 0.  1.
    9000005    2    1    2  501    0  0.45300783722E+02 -0.19260201122E+02 -0.41680170791E+03  0.41972247011E+03  0.44913077213E+01 0.  0.
         13    1    3    3    0    0  0.31147533629E+02 -0.14795030356E+02 -0.30363843380E+03  0.30559018350E+03  0.00000000000E+00 0.  1.
          3    1    3    3  501    0  0.14153250094E+02 -0.44651707660E+01 -0.11316327411E+03  0.11413228661E+03  0.00000000000E+00 0.  1.
         -1    1    1    2    0  502 -0.45300783722E+02  0.19260201122E+02 -0.58069658451E+03  0.58277923746E+03  0.00000000000E+00 0. -1.
<mgrwt>
<rscale>  1 0.30000000E+03</rscale>
<asrwt>0</asrwt>
<pdfrwt beam="1">  1       21 0.90971376E-02 0.30000000E+03</pdfrwt>
<pdfrwt beam="2">0</pdfrwt>
<totfact> 0.10182476E+04</totfact>
</mgrwt>
</event>
<event>
 6    1  0.6513574E-002  0.3000000E+03  0.7818608E-02  0.1093470E+00
         21   -1    0    0  501  502  0.00000000000E+00  0.00000000000E+00  0.61063648569E+01  0.61063648569E+01  0.00000000000E+00 0. -1.
         13   -1    0    0    0    0 -0.00000000000E+00 -0.00000000000E+00 -0.10000000000E+04  0.10000000000E+04  0.00000000000E+00 0.  1.
    9000005    2    1    2  501    0 -0.27093853653E+02 -0.70700985734E+02 -0.37649151898E+03  0.38407897050E+03  0.61713390599E+01 0.  0.
         13    1    3    3    0    0 -0.32957833006E+01 -0.42385758056E+01 -0.27326929970E+02  0.27849395218E+02  0.00000000000E+00 0.  1.
          1    1    3    3  501    0 -0.23798070352E+02 -0.66462409929E+02 -0.34916458901E+03  0.35622957528E+03  0.00000000000E+00 0.  1.
         -3    1    1    2    0  502  0.27093853653E+02  0.70700985734E+02 -0.61740211616E+03  0.62202739436E+03  0.00000000000E+00 0. -1.
<mgrwt>
<rscale>  1 0.30000000E+03</rscale>
<asrwt>0</asrwt>
<pdfrwt beam="1">  1       21 0.22205010E-01 0.30000000E+03</pdfrwt>
<pdfrwt beam="2">0</pdfrwt>
<totfact> 0.19632006E+03</totfact>
</mgrwt>
</event>
<event>
 6    1  0.6513574E-002  0.3000000E+03  0.7818608E-02  0.1093470E+00
         21   -1    0    0  501  502  0.00000000000E+00  0.00000000000E+00  0.28310512532E+01  0.28310512532E+01  0.00000000000E+00 0. -1.
         13   -1    0    0    0    0 -0.00000000000E+00 -0.00000000000E+00 -0.10000000000E+04  0.10000000000E+04  0.00000000000E+00 0.  1.
    9000005    2    1    2  501    0 -0.37251451386E+02  0.36405320736E+02 -0.59832131271E+03  0.60059672306E+03  0.38745959861E+01 0.  0.
         13    1    3    3    0    0 -0.31563383571E+02  0.32575970961E+02 -0.51483663268E+03  0.51683091956E+03  0.00000000000E+00 0.  1.
          1    1    3    3  501    0 -0.56880678152E+01  0.38293497752E+01 -0.83484680035E+02  0.83765803498E+02  0.00000000000E+00 0.  1.
         -3    1    1    2    0  502  0.37251451386E+02 -0.36405320736E+02 -0.39884763604E+03  0.40223432820E+03  0.00000000000E+00 0. -1.
<mgrwt>
<rscale>  1 0.30000000E+03</rscale>
<asrwt>0</asrwt>
<pdfrwt beam="1">  1       21 0.10294754E-01 0.30000000E+03</pdfrwt>
<pdfrwt beam="2">0</pdfrwt>
<totfact> 0.81676478E+03</totfact>
</mgrwt>
</event>
<event>
 6    1  0.6513574E-002  0.3000000E+03  0.7818608E-02  0.1093470E+00
         21   -1    0    0  501  502  0.00000000000E+00  0.00000000000E+00  0.27816221903E+01  0.27816221903E+01  0.00000000000E+00 0. -1.
         13   -1    0    0    0    0 -0.00000000000E+00 -0.00000000000E+00 -0.10000000000E+04  0.10000000000E+04  0.00000000000E+00 0.  1.
    9000005    2    1    2  501    0  0.46386224343E+02 -0.24405480440E+02 -0.44795200542E+03  0.45102002773E+03  0.32797817839E+01 0.  0.
         13    1    3    3    0    0  0.67967395433E+01 -0.33335326562E+01 -0.55545833094E+02  0.56059322886E+02  0.00000000000E+00 0.  1.
          3    1    3    3  501    0  0.39589484800E+02 -0.21071947784E+02 -0.39240617233E+03  0.39496070484E+03  0.00000000000E+00 0.  1.
         -3    1    1    2    0  502 -0.46386224343E+02  0.24405480440E+02 -0.54926637239E+03  0.55176159446E+03  0.00000000000E+00 0. -1.
<mgrwt>
<rscale>  1 0.30000000E+03</rscale>
<asrwt>0</asrwt>
<pdfrwt beam="1">  1       21 0.10115011E-01 0.30000000E+03</pdfrwt>
<pdfrwt beam="2">0</pdfrwt>
<totfact> 0.84291301E+03</totfact>
</mgrwt>
</event>
<event>
 6    1  0.6513574E-002  0.3000000E+03  0.7818608E-02  0.1093470E+00
         21   -1    0    0  501  502  0.00000000000E+00  0.00000000000E+00  0.34489774375E+01  0.34489774375E+01  0.00000000000E+00 0. -1.
         13   -1    0    0    0    0 -0.00000000000E+00 -0.00000000000E+00 -0.10000000000E+04  0.10000000000E+04  0.00000000000E+00 0.  1.
    9000005    2    1    2  501    0 -0.46556211823E+02  0.21742094474E+02 -0.25667824096E+03  0.26179411668E+03  0.34986588412E+01 0.  0.
         13    1    3    3    0    0 -0.35304125222E+02  0.16711564282E+02 -0.18727837340E+03  0.19130825069E+03  0.00000000000E+00 0.  1.
          1    1    3    3  501    0 -0.11252086601E+02  0.50305301915E+01 -0.69399867562E+02  0.70485865991E+02  0.00000000000E+00 0.  1.
         -1    1    1    2    0  502  0.46556211823E+02 -0.21742094474E+02 -0.73987278160E+03  0.74165486076E+03  0.00000000000E+00 0. -1.
<mgrwt>
<rscale>  1 0.30000000E+03</rscale>
<asrwt>0</asrwt>
<pdfrwt beam="1">  1       21 0.12541763E-01 0.30000000E+03</pdfrwt>
<pdfrwt beam="2">0</pdfrwt>
<totfact> 0.57188423E+03</totfact>
</mgrwt>
</event>
<event>
 6    1  0.6513574E-002  0.3000000E+03  0.7818608E-02  0.1093470E+00
         21   -1    0    0  501  502  0.00000000000E+00  0.00000000000E+00  0.25394328790E+01  0.25394328790E+01  0.00000000000E+00 0. -1.
         13   -1    0    0    0    0 -0.00000000000E+00 -0.00000000000E+00 -0.10000000000E+04  0.10000000000E+04  0.00000000000E+00 0.  1.
    9000005    2    1    2  501    0 -0.43124684527E+02 -0.23748087426E+02 -0.39427727904E+03  0.39735038052E+03  0.30070022058E+01 0.  0.
         13    1    3    3    0    0 -0.25574472167E+02 -0.13905914706E+02 -0.22115736140E+03  0.22306502772E+03  0.00000000000E+00 0.  1.
          1    1    3    3  501    0 -0.17550212361E+02 -0.98421727199E+01 -0.17311991764E+03  0.17428535280E+03  0.00000000000E+00 0.  1.
         -1    1    1    2    0  502  0.43124684527E+02  0.23748087426E+02 -0.60318328808E+03  0.60518905236E+03  0.00000000000E+00 0. -1.
<mgrwt>
<rscale>  1 0.30000000E+03</rscale>
<asrwt>0</asrwt>
<pdfrwt beam="1">  1       21 0.92343209E-02 0.30000000E+03</pdfrwt>
<pdfrwt beam="2">0</pdfrwt>
<totfact> 0.99155630E+03</totfact>
</mgrwt>
</event>
<event>
 6    1  0.6513574E-002  0.3000000E+03  0.7818608E-02  0.1093470E+00
         21   -1    0    0  501  502  0.00000000000E+00  0.00000000000E+00  0.17510477516E+01  0.17510477516E+01  0.00000000000E+00 0. -1.
         13   -1    0    0    0    0 -0.00000000000E+00 -0.00000000000E+00 -0.10000000000E+04  0.10000000000E+04  0.00000000000E+00 0.  1.
    9000005    2    1    2  501    0  0.12431077455E+01 -0.40884093738E+02 -0.39699873956E+03  0.39911112815E+03  0.29392115456E+01 0.  0.
         13    1    3    3    0    0  0.86312366827E+00 -0.96702244004E+01 -0.83761593359E+02  0.84322373925E+02  0.00000000000E+00 0.  1.
          3    1    3    3  501    0  0.37998407726E+00 -0.31213869337E+02 -0.31323714620E+03  0.31478875422E+03  0.00000000000E+00 0.  1.
         -1    1    1    2    0  502 -0.12431077455E+01  0.40884093738E+02 -0.60125021269E+03  0.60263991960E+03  0.00000000000E+00 0. -1.
<mgrwt>
<rscale>  1 0.30000000E+03</rscale>
<asrwt>0</asrwt>
<pdfrwt beam="1">  1       21 0.63674598E-02 0.30000000E+03</pdfrwt>
<pdfrwt beam="2">0</pdfrwt>
<totfact> 0.19015996E+04</totfact>
</mgrwt>
</event>
<event>
 6    1  0.6513574E-002  0.3000000E+03  0.7818608E-02  0.1093470E+00
         21   -1    0    0  501  502  0.00000000000E+00  0.00000000000E+00  0.15221762166E+01  0.15221762166E+01  0.00000000000E+00 0. -1.
         13   -1    0    0    0    0 -0.00000000000E+00 -0.00000000000E+00 -0.10000000000E+04  0.10000000000E+04  0.00000000000E+00 0.  1.
    9000005    2    1    2  501    0 -0.38927166866E+02  0.19712726280E+01 -0.49882929459E+03  0.50035567398E+03  0.24341548282E+01 0.  0.
         13    1    3    3    0    0 -0.58521423098E+00 -0.24039813937E+00 -0.10003427526E+02  0.10023414050E+02  0.00000000000E+00 0.  1.
          1    1    3    3  501    0 -0.38341952635E+02  0.22116707674E+01 -0.48882586707E+03  0.49033225993E+03  0.00000000000E+00 0.  1.
         -1    1    1    2    0  502  0.38927166866E+02 -0.19712726280E+01 -0.49964852919E+03  0.50116650223E+03  0.00000000000E+00 0. -1.
<mgrwt>
<rscale>  1 0.30000000E+03</rscale>
<asrwt>0</asrwt>
<pdfrwt beam="1">  1       21 0.55351979E-02 0.30000000E+03</pdfrwt>
<pdfrwt beam="2">0</pdfrwt>
<totfact> 0.24207839E+04</totfact>
</mgrwt>
</event>
<event>
 6    1  0.6513574E-002  0.3000000E+03  0.7818608E-02  0.1093470E+00
         21   -1    0    0  501  502  0.00000000000E+00  0.00000000000E+00  0.11956792583E+01  0.11956792583E+01  0.00000000000E+00 0. -1.
         13   -1    0    0    0    0 -0.00000000000E+00 -0.00000000000E+00 -0.10000000000E+04  0.10000000000E+04  0.00000000000E+00 0.  1.
    9000005    2    1    2  501    0 -0.28219684483E+02 -0.17194280844E+02 -0.64212606299E+03  0.64298990957E+03  0.42601819382E+01 0.  0.
         13    1    3    3    0    0 -0.14698740071E+01 -0.19500913243E+01 -0.36349672627E+02  0.36431608335E+02  0.00000000000E+00 0.  1.
          3    1    3    3  501    0 -0.26749810476E+02 -0.15244189519E+02 -0.60577639036E+03  0.60655830123E+03  0.00000000000E+00 0.  1.
         -3    1    1    2    0  502  0.28219684483E+02  0.17194280844E+02 -0.35667825775E+03  0.35820576969E+03  0.00000000000E+00 0. -1.
<mgrwt>
<rscale>  1 0.30000000E+03</rscale>
<asrwt>0</asrwt>
<pdfrwt beam="1">  1       21 0.43479337E-02 0.30000000E+03</pdfrwt>
<pdfrwt beam="2">0</pdfrwt>
<totfact> 0.36525234E+04</totfact>
</mgrwt>
</event>
<event>
 6    1  0.6513574E-002  0.3000000E+03  0.7818608E-02  0.1093470E+00
         21   -1    0    0  501  502  0.00000000000E+00  0.00000000000E+00  0.15847611824E+01  0.15847611824E+01  0.00000000000E+00 0. -1.
         13   -1    0    0    0    0 -0.00000000000E+00 -0.00000000000E+00 -0.10000000000E+04  0.10000000000E+04  0.00000000000E+00 0.  1.
    9000005    2    1    2  501    0  0.23985671331E+02 -0.31385759288E+02 -0.44530977212E+03  0.44707052727E+03  0.32992267131E+01 0.  0.
         13    1    3    3    0    0  0.76403292644E+01 -0.11276129580E+02 -0.13841425237E+03  0.13908282061E+03  0.00000000000E+00 0.  1.
          1    1    3    3  501    0  0.16345342066E+02 -0.20109629709E+02 -0.30689551975E+03  0.30798770667E+03  0.00000000000E+00 0.  1.
         -1    1    1    2    0  502 -0.23985671331E+02  0.31385759288E+02 -0.55310546670E+03  0.55451423391E+03  0.00000000000E+00 0. -1.
<mgrwt>
<rscale>  1 0.30000000E+03</rscale>
<asrwt>0</asrwt>
<pdfrwt beam="1">  1       21 0.57627801E-02 0.30000000E+03</pdfrwt>
<pdfrwt beam="2">0</pdfrwt>
<totfact> 0.22588558E+04</totfact>
</mgrwt>
</event>
<event>
 6    1  0.6513574E-002  0.3000000E+03  0.7818608E-02  0.1093470E+00
         21   -1    0    0  501  502  0.00000000000E+00  0.00000000000E+00  0.64776999907E+01  0.64776999907E+01  0.00000000000E+00 0. -1.
         13   -1    0    0    0    0 -0.00000000000E+00 -0.00000000000E+00 -0.10000000000E+04  0.10000000000E+04  0.00000000000E+00 0.  1.
    9000005    2    1    2  501    0 -0.32495187651E+02  0.40265169452E+02 -0.11173255340E+03  0.12317119695E+03  0.31239681286E+01 0.  0.
         13    1    3    3    0    0 -0.19031903620E+02  0.24720387389E+02 -0.64098780393E+02  0.71287899085E+02  0.00000000000E+00 0.  1.
          1    1    3    3  501    0 -0.13463284031E+02  0.15544782063E+02 -0.47633773004E+02  0.51883297860E+02  0.00000000000E+00 0.  1.
         -3    1    1    2    0  502  0.32495187651E+02 -0.40265169452E+02 -0.88178974661E+03  0.88330650305E+03  0.00000000000E+00 0. -1.
<mgrwt>
<rscale>  1 0.30000000E+03</rscale>
<asrwt>0</asrwt>
<pdfrwt beam="1">  1       21 0.23555322E-01 0.30000000E+03</pdfrwt>
<pdfrwt beam="2">0</pdfrwt>
<totfact> 0.17514097E+03</totfact>
</mgrwt>
</event>
<event>
 6    1  0.6513574E-002  0.3000000E+03  0.7818608E-02  0.1093470E+00
         21   -1    0    0  501  502  0.00000000000E+00  0.00000000000E+00  0.32456327740E+01  0.32456327740E+01  0.00000000000E+00 0. -1.
         13   -1    0    0    0    0 -0.00000000000E+00 -0.00000000000E+00 -0.10000000000E+04  0.10000000000E+04  0.00000000000E+00 0.  1.
    9000005    2    1    2  501    0  0.46934639644E+02  0.32130409120E+02 -0.50175036516E+03  0.50498447068E+03  0.45456685092E+01 0.  0.
         13    1    3    3    0    0  0.37578837854E+01  0.41459745267E+01 -0.46186318260E+02  0.46524045285E+02  0.00000000000E+00 0.  1.
          1    1    3    3  501    0  0.43176755859E+02  0.27984434594E+02 -0.45556404690E+03  0.45846042540E+03  0.00000000000E+00 0.  1.
         -3    1    1    2    0  502 -0.46934639644E+02 -0.32130409120E+02 -0.49500400206E+03  0.49826116209E+03  0.00000000000E+00 0. -1.
<mgrwt>
<rscale>  1 0.30000000E+03</rscale>
<asrwt>0</asrwt>
<pdfrwt beam="1">  1       21 0.11802326E-01 0.30000000E+03</pdfrwt>
<pdfrwt beam="2">0</pdfrwt>
<totfact> 0.63865995E+03</totfact>
</mgrwt>
</event>
<event>
 6    1  0.6513574E-002  0.3000000E+03  0.7818608E-02  0.1093470E+00
         21   -1    0    0  501  502  0.00000000000E+00  0.00000000000E+00  0.16828408976E+01  0.16828408976E+01  0.00000000000E+00 0. -1.
         13   -1    0    0    0    0 -0.00000000000E+00 -0.00000000000E+00 -0.10000000000E+04  0.10000000000E+04  0.00000000000E+00 0.  1.
    9000005    2    1    2  501    0  0.38526974045E+02  0.76268742468E+01 -0.36924719054E+03  0.37138805091E+03  0.65650358942E+01 0.  0.
         13    1    3    3    0    0  0.22823425221E+01 -0.95725664465E+00 -0.30117110208E+02  0.30218632579E+02  0.00000000000E+00 0.  1.
          3    1    3    3  501    0  0.36244631523E+02  0.85841308914E+01 -0.33913008033E+03  0.34116941833E+03  0.00000000000E+00 0.  1.
         -3    1    1    2    0  502 -0.38526974045E+02 -0.76268742468E+01 -0.62906996856E+03  0.63029478999E+03  0.00000000000E+00 0. -1.
<mgrwt>
<rscale>  1 0.30000000E+03</rscale>
<asrwt>0</asrwt>
<pdfrwt beam="1">  1       21 0.61194343E-02 0.30000000E+03</pdfrwt>
<pdfrwt beam="2">0</pdfrwt>
<totfact> 0.20367134E+04</totfact>
</mgrwt>
</event>
<event>
 6    1  0.6513574E-002  0.3000000E+03  0.7818608E-02  0.1093470E+00
         21   -1    0    0  501  502  0.00000000000E+00  0.00000000000E+00  0.12864852972E+01  0.12864852972E+01  0.00000000000E+00 0. -1.
         13   -1    0    0    0    0 -0.00000000000E+00 -0.00000000000E+00 -0.10000000000E+04  0.10000000000E+04  0.00000000000E+00 0.  1.
    9000005    2    1    2  501    0  0.35613622658E+02 -0.21215287624E+01 -0.46014059042E+03  0.46153318445E+03  0.32690051691E+01 0.  0.
         13    1    3    3    0    0  0.22566941303E+02 -0.28912053533E+01 -0.29611351749E+03  0.29698626424E+03  0.00000000000E+00 0.  1.
          3    1    3    3  501    0  0.13046681355E+02  0.76967659095E+00 -0.16402707293E+03  0.16454692021E+03  0.00000000000E+00 0.  1.
         -3    1    1    2    0  502 -0.35613622658E+02  0.21215287624E+01 -0.53857292429E+03  0.53975330085E+03  0.00000000000E+00 0. -1.
<mgrwt>
<rscale>  1 0.30000000E+03</rscale>
<asrwt>0</asrwt>
<pdfrwt beam="1">  1       21 0.46781382E-02 0.30000000E+03</pdfrwt>
<pdfrwt beam="2">0</pdfrwt>
<totfact> 0.32259016E+04</totfact>
</mgrwt>
</event>
<event>
 6    1  0.6513574E-002  0.3000000E+03  0.7818608E-02  0.1093470E+00
         21   -1    0    0  501  502  0.00000000000E+00  0.00000000000E+00  0.79552192218E+01  0.79552192218E+01  0.00000000000E+00 0. -1.
         13   -1    0    0    0    0 -0.00000000000E+00 -0.00000000000E+00 -0.10000000000E+04  0.10000000000E+04  0.00000000000E+00 0.  1.
    9000005    2    1    2  501    0 -0.87232222609E+01 -0.87164237936E+02 -0.40233255995E+03  0.41177219165E+03  0.33391662477E+01 0.  0.
         13    1    3    3    0    0  0.21495647597E-01 -0.95910219450E+01 -0.45750779736E+02  0.46745288645E+02  0.00000000000E+00 0.  1.
          1    1    3    3  501    0 -0.87447179084E+01 -0.77573215991E+02 -0.35658178022E+03  0.36502690300E+03  0.00000000000E+00 0.  1.
         -3    1    1    2    0  502  0.87232222609E+01  0.87164237936E+02 -0.58971222082E+03  0.59618302758E+03  0.00000000000E+00 0. -1.
<mgrwt>
<rscale>  1 0.30000000E+03</rscale>
<asrwt>0</asrwt>
<pdfrwt beam="1">  1       21 0.28928131E-01 0.30000000E+03</pdfrwt>
<pdfrwt beam="2">0</pdfrwt>
<totfact> 0.11691509E+03</totfact>
</mgrwt>
</event>
<event>
 6    1  0.1748471E-001  0.3000000E+03  0.7818608E-02  0.1093470E+00
         21   -1    0    0  501  502  0.00000000000E+00  0.00000000000E+00  0.11320171221E+02  0.11320171221E+02  0.00000000000E+00 0. -1.
         13   -1    0    0    0    0 -0.00000000000E+00 -0.00000000000E+00 -0.10000000000E+04  0.10000000000E+04  0.00000000000E+00 0.  1.
    9000005    2    1    2  501    0  0.66068669231E+02 -0.59279097271E+02 -0.77302499606E+03  0.77811192244E+03  0.33821402504E+01 0.  0.
         13    1    3    3    0    0  0.37192691513E+02 -0.31619485543E+02 -0.41560394841E+03  0.41846114527E+03  0.00000000000E+00 0.  1.
          1    1    3    3  501    0  0.28875977718E+02 -0.27659611728E+02 -0.35742104765E+03  0.35965077717E+03  0.00000000000E+00 0.  1.
         -3    1    1    2    0  502 -0.66068669231E+02  0.59279097271E+02 -0.21565483272E+03  0.23320824879E+03  0.00000000000E+00 0. -1.
<mgrwt>
<rscale>  1 0.30000000E+03</rscale>
<asrwt>0</asrwt>
<pdfrwt beam="1">  1       21 0.41164346E-01 0.30000000E+03</pdfrwt>
<pdfrwt beam="2">0</pdfrwt>
<totfact> 0.56879910E+02</totfact>
</mgrwt>
</event>
<event>
 6    1  0.6513574E-002  0.3000000E+03  0.7818608E-02  0.1093470E+00
         21   -1    0    0  501  502  0.00000000000E+00  0.00000000000E+00  0.96157021886E+00  0.96157021886E+00  0.00000000000E+00 0. -1.
         13   -1    0    0    0    0 -0.00000000000E+00 -0.00000000000E+00 -0.10000000000E+04  0.10000000000E+04  0.00000000000E+00 0.  1.
    9000005    2    1    2  501    0 -0.26589945989E+02  0.15333514069E+02 -0.55925625254E+03  0.56010954822E+03  0.36066772711E+01 0.  0.
         13    1    3    3    0    0 -0.20749788590E+02  0.10380219540E+02 -0.40680688216E+03  0.40746796445E+03  0.00000000000E+00 0.  1.
          1    1    3    3  501    0 -0.58401573987E+01  0.49532945286E+01 -0.15244937038E+03  0.15264158376E+03  0.00000000000E+00 0.  1.
         -1    1    1    2    0  502  0.26589945989E+02 -0.15333514069E+02 -0.43978217724E+03  0.44085202200E+03  0.00000000000E+00 0. -1.
<mgrwt>
<rscale>  1 0.30000000E+03</rscale>
<asrwt>0</asrwt>
<pdfrwt beam="1">  1       21 0.34966264E-02 0.30000000E+03</pdfrwt>
<pdfrwt beam="2">0</pdfrwt>
<totfact> 0.52701838E+04</totfact>
</mgrwt>
</event>
<event>
 6    1  0.6513574E-002  0.3000000E+03  0.7818608E-02  0.1093470E+00
         21   -1    0    0  501  502  0.00000000000E+00  0.00000000000E+00  0.11930239221E+01  0.11930239221E+01  0.00000000000E+00 0. -1.
         13   -1    0    0    0    0 -0.00000000000E+00 -0.00000000000E+00 -0.10000000000E+04  0.10000000000E+04  0.00000000000E+00 0.  1.
    9000005    2    1    2  501    0 -0.19827462777E+02 -0.25248028826E+02 -0.68108036203E+03  0.68184870737E+03  0.40754091443E+01 0.  0.
         13    1    3    3    0    0 -0.66753930716E+01 -0.86681487976E+01 -0.27449985541E+03  0.27471779756E+03  0.00000000000E+00 0.  1.
          3    1    3    3  501    0 -0.13152069705E+02 -0.16579880028E+02 -0.40658050662E+03  0.40713090981E+03  0.00000000000E+00 0.  1.
         -3    1    1    2    0  502  0.19827462777E+02  0.25248028826E+02 -0.31772661405E+03  0.31934431656E+03  0.00000000000E+00 0. -1.
<mgrwt>
<rscale>  1 0.30000000E+03</rscale>
<asrwt>0</asrwt>
<pdfrwt beam="1">  1       21 0.43382780E-02 0.30000000E+03</pdfrwt>
<pdfrwt beam="2">0</pdfrwt>
<totfact> 0.36662921E+04</totfact>
</mgrwt>
</event>
<event>
 6    1  0.6513574E-002  0.3000000E+03  0.7818608E-02  0.1093470E+00
         21   -1    0    0  501  502  0.00000000000E+00  0.00000000000E+00  0.21343618529E+01  0.21343618529E+01  0.00000000000E+00 0. -1.
         13   -1    0    0    0    0 -0.00000000000E+00 -0.00000000000E+00 -0.10000000000E+04  0.10000000000E+04  0.00000000000E+00 0.  1.
    9000005    2    1    2  501    0  0.29022582163E+02 -0.35423439405E+02 -0.43989733377E+03  0.44228995577E+03  0.36892249795E+01 0.  0.
         13    1    3    3    0    0  0.23407197748E+02 -0.27726504536E+02 -0.36117532959E+03  0.36299349122E+03  0.00000000000E+00 0.  1.
          3    1    3    3  501    0  0.56153844154E+01 -0.76969348687E+01 -0.78722004175E+02  0.79296464548E+02  0.00000000000E+00 0.  1.
         -1    1    1    2    0  502 -0.29022582163E+02  0.35423439405E+02 -0.55796830438E+03  0.55984440609E+03  0.00000000000E+00 0. -1.
<mgrwt>
<rscale>  1 0.30000000E+03</rscale>
<asrwt>0</asrwt>
<pdfrwt beam="1">  1       21 0.77613322E-02 0.30000000E+03</pdfrwt>
<pdfrwt beam="2">0</pdfrwt>
<totfact> 0.13471234E+04</totfact>
</mgrwt>
</event>
<event>
 6    1  0.6513574E-002  0.3000000E+03  0.7818608E-02  0.1093470E+00
         21   -1    0    0  501  502  0.00000000000E+00  0.00000000000E+00  0.72585918702E+01  0.72585918702E+01  0.00000000000E+00 0. -1.
         13   -1    0    0    0    0 -0.00000000000E+00 -0.00000000000E+00 -0.10000000000E+04  0.10000000000E+04  0.00000000000E+00 0.  1.
    9000005    2    1    2  501    0 -0.58726405227E+02  0.54657433442E+02 -0.32749072916E+03  0.33718793024E+03  0.30490844038E+01 0.  0.
         13    1    3    3    0    0 -0.30313080157E+01  0.34667212562E+01 -0.21130625319E+02  0.21626611175E+02  0.00000000000E+00 0.  1.
          3    1    3    3  501    0 -0.55695097211E+02  0.51190712186E+02 -0.30636010384E+03  0.31556131907E+03  0.00000000000E+00 0.  1.
         -3    1    1    2    0  502  0.58726405227E+02 -0.54657433442E+02 -0.66525067897E+03  0.67007066163E+03  0.00000000000E+00 0. -1.
<mgrwt>
<rscale>  1 0.30000000E+03</rscale>
<asrwt>0</asrwt>
<pdfrwt beam="1">  1       21 0.26394935E-01 0.30000000E+03</pdfrwt>
<pdfrwt beam="2">0</pdfrwt>
<totfact> 0.14017755E+03</totfact>
</mgrwt>
</event>
<event>
 6    1  0.6513574E-002  0.3000000E+03  0.7818608E-02  0.1093470E+00
         21   -1    0    0  501  502  0.00000000000E+00  0.00000000000E+00  0.15489449999E+01  0.15489449999E+01  0.00000000000E+00 0. -1.
         13   -1    0    0    0    0 -0.00000000000E+00 -0.00000000000E+00 -0.10000000000E+04  0.10000000000E+04  0.00000000000E+00 0.  1.
    9000005    2    1    2  501    0  0.35834476338E+02 -0.16063285543E+02 -0.50342324085E+03  0.50496594528E+03  0.36752713155E+01 0.  0.
         13    1    3    3    0    0  0.27204789518E+02 -0.13479201280E+02 -0.37487282198E+03  0.37610028197E+03  0.00000000000E+00 0.  1.
          1    1    3    3  501    0  0.86296868206E+01 -0.25840842627E+01 -0.12855041887E+03  0.12886566330E+03  0.00000000000E+00 0.  1.
         -1    1    1    2    0  502 -0.35834476338E+02  0.16063285543E+02 -0.49502781415E+03  0.49658299972E+03  0.00000000000E+00 0. -1.
<mgrwt>
<rscale>  1 0.30000000E+03</rscale>
<asrwt>0</asrwt>
<pdfrwt beam="1">  1       21 0.56325391E-02 0.30000000E+03</pdfrwt>
<pdfrwt beam="2">0</pdfrwt>
<totfact> 0.23494118E+04</totfact>
</mgrwt>
</event>
<event>
 6    1  0.6513574E-002  0.3000000E+03  0.7818608E-02  0.1093470E+00
         21   -1    0    0  501  502  0.00000000000E+00  0.00000000000E+00  0.21433412899E+01  0.21433412899E+01  0.00000000000E+00 0. -1.
         13   -1    0    0    0    0 -0.00000000000E+00 -0.00000000000E+00 -0.10000000000E+04  0.10000000000E+04  0.00000000000E+00 0.  1.
    9000005    2    1    2  501    0  0.29081215127E+02 -0.35919113879E+02 -0.48445788461E+03  0.48666860761E+03  0.33153969521E+01 0.  0.
         13    1    3    3    0    0  0.10223044601E+02 -0.13078638981E+02 -0.19077490308E+03  0.19149575735E+03  0.00000000000E+00 0.  1.
          1    1    3    3  501    0  0.18858170526E+02 -0.22840474898E+02 -0.29368298153E+03  0.29517285026E+03  0.00000000000E+00 0.  1.
         -1    1    1    2    0  502 -0.29081215127E+02  0.35919113879E+02 -0.51339877410E+03  0.51547473368E+03  0.00000000000E+00 0. -1.
<mgrwt>
<rscale>  1 0.30000000E+03</rscale>
<asrwt>0</asrwt>
<pdfrwt beam="1">  1       21 0.77939848E-02 0.30000000E+03</pdfrwt>
<pdfrwt beam="2">0</pdfrwt>
<totfact> 0.13372410E+04</totfact>
</mgrwt>
</event>
<event>
 6    1  0.6513574E-002  0.3000000E+03  0.7818608E-02  0.1093470E+00
         21   -1    0    0  501  502  0.00000000000E+00  0.00000000000E+00  0.13867490781E+01  0.13867490781E+01  0.00000000000E+00 0. -1.
         13   -1    0    0    0    0 -0.00000000000E+00 -0.00000000000E+00 -0.10000000000E+04  0.10000000000E+04  0.00000000000E+00 0.  1.
    9000005    2    1    2  501    0  0.36541949082E+02 -0.44478565099E+01 -0.43456283525E+03  0.43613638960E+03  0.38723484764E+01 0.  0.
         13    1    3    3    0    0  0.41455682260E+01 -0.15893099335E+01 -0.60248843798E+02  0.60412207549E+02  0.00000000000E+00 0.  1.
          3    1    3    3  501    0  0.32396380856E+02 -0.28585465764E+01 -0.37431399145E+03  0.37572418205E+03  0.00000000000E+00 0.  1.
         -3    1    1    2    0  502 -0.36541949082E+02  0.44478565099E+01 -0.56405041568E+03  0.56525035948E+03  0.00000000000E+00 0. -1.
<mgrwt>
<rscale>  1 0.30000000E+03</rscale>
<asrwt>0</asrwt>
<pdfrwt beam="1">  1       21 0.50427346E-02 0.30000000E+03</pdfrwt>
<pdfrwt beam="2">0</pdfrwt>
<totfact> 0.28389681E+04</totfact>
</mgrwt>
</event>
<event>
 6    1  0.6513574E-002  0.3000000E+03  0.7818608E-02  0.1093470E+00
         21   -1    0    0  501  502  0.00000000000E+00  0.00000000000E+00  0.94997954640E+00  0.94997954640E+00  0.00000000000E+00 0. -1.
         13   -1    0    0    0    0 -0.00000000000E+00 -0.00000000000E+00 -0.10000000000E+04  0.10000000000E+04  0.00000000000E+00 0.  1.
    9000005    2    1    2  501    0 -0.24365518725E+02 -0.17727786963E+02 -0.40298542853E+03  0.40412425065E+03  0.33468520606E+01 0.  0.
         13    1    3    3    0    0 -0.60572387934E+01 -0.47191820989E+01 -0.12302388221E+03  0.12326328089E+03  0.00000000000E+00 0.  1.
          1    1    3    3  501    0 -0.18308279932E+02 -0.13008604864E+02 -0.27996154632E+03  0.28086096976E+03  0.00000000000E+00 0.  1.
         -3    1    1    2    0  502  0.24365518725E+02  0.17727786963E+02 -0.59606459192E+03  0.59682572890E+03  0.00000000000E+00 0. -1.
<mgrwt>
<rscale>  1 0.30000000E+03</rscale>
<asrwt>0</asrwt>
<pdfrwt beam="1">  1       21 0.34544784E-02 0.30000000E+03</pdfrwt>
<pdfrwt beam="2">0</pdfrwt>
<totfact> 0.53782417E+04</totfact>
</mgrwt>
</event>
<event>
 6    1  0.6513574E-002  0.3000000E+03  0.7818608E-02  0.1093470E+00
         21   -1    0    0  501  502  0.00000000000E+00  0.00000000000E+00  0.18204871223E+01  0.18204871223E+01  0.00000000000E+00 0. -1.
         13   -1    0    0    0    0 -0.00000000000E+00 -0.00000000000E+00 -0.10000000000E+04  0.10000000000E+04  0.00000000000E+00 0.  1.
    9000005    2    1    2  501    0 -0.15125783351E+02  0.30972888388E+02 -0.20525639269E+03  0.20814852487E+03  0.27408991910E+01 0.  0.
         13    1    3    3    0    0 -0.13504179455E+02  0.25316898180E+02 -0.17076921625E+03  0.17316302555E+03  0.00000000000E+00 0.  1.
          1    1    3    3  501    0 -0.16216038960E+01  0.56559902084E+01 -0.34487176435E+02  0.34985499323E+02  0.00000000000E+00 0.  1.
         -3    1    1    2    0  502  0.15125783351E+02 -0.30972888388E+02 -0.79292312019E+03  0.79367196225E+03  0.00000000000E+00 0. -1.
<mgrwt>
<rscale>  1 0.30000000E+03</rscale>
<asrwt>0</asrwt>
<pdfrwt beam="1">  1       21 0.66199671E-02 0.30000000E+03</pdfrwt>
<pdfrwt beam="2">0</pdfrwt>
<totfact> 0.17777798E+04</totfact>
</mgrwt>
</event>
<event>
 6    1  0.6513574E-002  0.3000000E+03  0.7818608E-02  0.1093470E+00
         21   -1    0    0  501  502  0.00000000000E+00  0.00000000000E+00  0.17379624528E+01  0.17379624528E+01  0.00000000000E+00 0. -1.
         13   -1    0    0    0    0 -0.00000000000E+00 -0.00000000000E+00 -0.10000000000E+04  0.10000000000E+04  0.00000000000E+00 0.  1.
    9000005    2    1    2  501    0 -0.35518235617E+02 -0.16181244624E+02 -0.32615154307E+03  0.32849514257E+03  0.32942230553E+01 0.  0.
         13    1    3    3    0    0 -0.10159763492E+02 -0.59320937905E+01 -0.10611298148E+03  0.10676317422E+03  0.00000000000E+00 0.  1.
          3    1    3    3  501    0 -0.25358472125E+02 -0.10249150833E+02 -0.22003856160E+03  0.22173196836E+03  0.00000000000E+00 0.  1.
         -3    1    1    2    0  502  0.35518235617E+02  0.16181244624E+02 -0.67211049447E+03  0.67324281988E+03  0.00000000000E+00 0. -1.
<mgrwt>
<rscale>  1 0.30000000E+03</rscale>
<asrwt>0</asrwt>
<pdfrwt beam="1">  1       21 0.63198768E-02 0.30000000E+03</pdfrwt>
<pdfrwt beam="2">0</pdfrwt>
<totfact> 0.19264229E+04</totfact>
</mgrwt>
</event>
<event>
 6    1  0.6513574E-002  0.3000000E+03  0.7818608E-02  0.1093470E+00
         21   -1    0    0  501  502  0.00000000000E+00  0.00000000000E+00  0.13768269597E+01  0.13768269597E+01  0.00000000000E+00 0. -1.
         13   -1    0    0    0    0 -0.00000000000E+00 -0.00000000000E+00 -0.10000000000E+04  0.10000000000E+04  0.00000000000E+00 0.  1.
    9000005    2    1    2  501    0 -0.23048856631E+02  0.27299748499E+02 -0.36835557595E+03  0.37009735636E+03  0.31139669598E+01 0.  0.
         13    1    3    3    0    0 -0.16269329836E+02  0.19646962930E+02 -0.24806877134E+03  0.24937684247E+03  0.00000000000E+00 0.  1.
          3    1    3    3  501    0 -0.67795267948E+01  0.76527855687E+01 -0.12028680461E+03  0.12072051389E+03  0.00000000000E+00 0.  1.
         -1    1    1    2    0  502  0.23048856631E+02 -0.27299748499E+02 -0.63026759709E+03  0.63127947060E+03  0.00000000000E+00 0. -1.
<mgrwt>
<rscale>  1 0.30000000E+03</rscale>
<asrwt>0</asrwt>
<pdfrwt beam="1">  1       21 0.50066540E-02 0.30000000E+03</pdfrwt>
<pdfrwt beam="2">0</pdfrwt>
<totfact> 0.28739423E+04</totfact>
</mgrwt>
</event>
<event>
 6    1  0.6513574E-002  0.3000000E+03  0.7818608E-02  0.1093470E+00
         21   -1    0    0  501  502  0.00000000000E+00  0.00000000000E+00  0.12389120188E+01  0.12389120188E+01  0.00000000000E+00 0. -1.
         13   -1    0    0    0    0 -0.00000000000E+00 -0.00000000000E+00 -0.10000000000E+04  0.10000000000E+04  0.00000000000E+00 0.  1.
    9000005    2    1    2  501    0 -0.27000788603E+02 -0.19938665115E+02 -0.64776304772E+03  0.64863968170E+03  0.31428867704E+01 0.  0.
         13    1    3    3    0    0 -0.19866958390E+01 -0.18135098631E+01 -0.38343649949E+02  0.38437888467E+02  0.00000000000E+00 0.  1.
          1    1    3    3  501    0 -0.25014092764E+02 -0.18125155252E+02 -0.60941939777E+03  0.61020179323E+03  0.00000000000E+00 0.  1.
         -3    1    1    2    0  502  0.27000788603E+02  0.19938665115E+02 -0.35099804026E+03  0.35259923032E+03  0.00000000000E+00 0. -1.
<mgrwt>
<rscale>  1 0.30000000E+03</rscale>
<asrwt>0</asrwt>
<pdfrwt beam="1">  1       21 0.45051441E-02 0.30000000E+03</pdfrwt>
<pdfrwt beam="2">0</pdfrwt>
<totfact> 0.34391447E+04</totfact>
</mgrwt>
</event>
<event>
 6    1  0.6513574E-002  0.3000000E+03  0.7818608E-02  0.1093470E+00
         21   -1    0    0  501  502  0.00000000000E+00  0.00000000000E+00  0.44727300485E+01  0.44727300485E+01  0.00000000000E+00 0. -1.
         13   -1    0    0    0    0 -0.00000000000E+00 -0.00000000000E+00 -0.10000000000E+04  0.10000000000E+04  0.00000000000E+00 0.  1.
    9000005    2    1    2  501    0 -0.48724605804E+02 -0.41029375481E+01 -0.15590368748E+03  0.16342654728E+03  0.33697594446E+01 0.  0.
         13    1    3    3    0    0 -0.43341458300E+02 -0.25782528476E+01 -0.13817717004E+03  0.14483804651E+03  0.00000000000E+00 0.  1.
          3    1    3    3  501    0 -0.53831475041E+01 -0.15246847005E+01 -0.17726517442E+02  0.18588500776E+02  0.00000000000E+00 0.  1.
         -3    1    1    2    0  502  0.48724605804E+02  0.41029375481E+01 -0.83962358247E+03  0.84104618277E+03  0.00000000000E+00 0. -1.
<mgrwt>
<rscale>  1 0.30000000E+03</rscale>
<asrwt>0</asrwt>
<pdfrwt beam="1">  1       21 0.16264507E-01 0.30000000E+03</pdfrwt>
<pdfrwt beam="2">0</pdfrwt>
<totfact> 0.35426564E+03</totfact>
</mgrwt>
</event>
<event>
 6    1  0.6513574E-002  0.3000000E+03  0.7818608E-02  0.1093470E+00
         21   -1    0    0  501  502  0.00000000000E+00  0.00000000000E+00  0.16657827920E+01  0.16657827920E+01  0.00000000000E+00 0. -1.
         13   -1    0    0    0    0 -0.00000000000E+00 -0.00000000000E+00 -0.10000000000E+04  0.10000000000E+04  0.00000000000E+00 0.  1.
    9000005    2    1    2  501    0  0.16863284488E+02 -0.34838601007E+02 -0.65625711019E+03  0.65740593090E+03  0.33263815590E+01 0.  0.
         13    1    3    3    0    0  0.32879459067E+01 -0.63136520978E+01 -0.10059469720E+03  0.10084624879E+03  0.00000000000E+00 0.  1.
          3    1    3    3  501    0  0.13575338581E+02 -0.28524948909E+02 -0.55566241299E+03  0.55655968210E+03  0.00000000000E+00 0.  1.
         -1    1    1    2    0  502 -0.16863284488E+02  0.34838601007E+02 -0.34207710701E+03  0.34425985190E+03  0.00000000000E+00 0. -1.
<mgrwt>
<rscale>  1 0.30000000E+03</rscale>
<asrwt>0</asrwt>
<pdfrwt beam="1">  1       21 0.60574047E-02 0.30000000E+03</pdfrwt>
<pdfrwt beam="2">0</pdfrwt>
<totfact> 0.20728387E+04</totfact>
</mgrwt>
</event>
<event>
 6    1  0.6513574E-002  0.3000000E+03  0.7818608E-02  0.1093470E+00
         21   -1    0    0  501  502  0.00000000000E+00  0.00000000000E+00  0.95339745914E+00  0.95339745914E+00  0.00000000000E+00 0. -1.
         13   -1    0    0    0    0 -0.00000000000E+00 -0.00000000000E+00 -0.10000000000E+04  0.10000000000E+04  0.00000000000E+00 0.  1.
    9000005    2    1    2  501    0 -0.23279374293E+02  0.19598318600E+02 -0.57236759521E+03  0.57319061430E+03  0.40979159828E+01 0.  0.
         13    1    3    3    0    0 -0.17995786413E+02  0.13248082666E+02 -0.43738528402E+03  0.43795575884E+03  0.00000000000E+00 0.  1.
          1    1    3    3  501    0 -0.52835878804E+01  0.63502359338E+01 -0.13498231118E+03  0.13523485545E+03  0.00000000000E+00 0.  1.
         -1    1    1    2    0  502  0.23279374293E+02 -0.19598318600E+02 -0.42667900734E+03  0.42776278316E+03  0.00000000000E+00 0. -1.
<mgrwt>
<rscale>  1 0.30000000E+03</rscale>
<asrwt>0</asrwt>
<pdfrwt beam="1">  1       21 0.34669072E-02 0.30000000E+03</pdfrwt>
<pdfrwt beam="2">0</pdfrwt>
<totfact> 0.53460215E+04</totfact>
</mgrwt>
</event>
<event>
 6    1  0.6513574E-002  0.3000000E+03  0.7818608E-02  0.1093470E+00
         21   -1    0    0  501  502  0.00000000000E+00  0.00000000000E+00  0.10305512352E+01  0.10305512352E+01  0.00000000000E+00 0. -1.
         13   -1    0    0    0    0 -0.00000000000E+00 -0.00000000000E+00 -0.10000000000E+04  0.10000000000E+04  0.00000000000E+00 0.  1.
    9000005    2    1    2  501    0 -0.25832612393E+02 -0.18334613495E+02 -0.42669522735E+03  0.42788025122E+03  0.30348679082E+01 0.  0.
         13    1    3    3    0    0 -0.11458622755E+02 -0.80309260090E+01 -0.16846827768E+03  0.16904838477E+03  0.00000000000E+00 0.  1.
          3    1    3    3  501    0 -0.14373989638E+02 -0.10303687486E+02 -0.25822694967E+03  0.25883186645E+03  0.00000000000E+00 0.  1.
         -1    1    1    2    0  502  0.25832612393E+02  0.18334613495E+02 -0.57227422141E+03  0.57315030002E+03  0.00000000000E+00 0. -1.
<mgrwt>
<rscale>  1 0.30000000E+03</rscale>
<asrwt>0</asrwt>
<pdfrwt beam="1">  1       21 0.37474669E-02 0.30000000E+03</pdfrwt>
<pdfrwt beam="2">0</pdfrwt>
<totfact> 0.46920484E+04</totfact>
</mgrwt>
</event>
<event>
 6    1  0.6513574E-002  0.3000000E+03  0.7818608E-02  0.1093470E+00
         21   -1    0    0  501  502  0.00000000000E+00  0.00000000000E+00  0.10417108434E+01  0.10417108434E+01  0.00000000000E+00 0. -1.
         13   -1    0    0    0    0 -0.00000000000E+00 -0.00000000000E+00 -0.10000000000E+04  0.10000000000E+04  0.00000000000E+00 0.  1.
    9000005    2    1    2  501    0 -0.14050757908E+02 -0.28737823574E+02 -0.43848888407E+03  0.43966016471E+03  0.22962312345E+01 0.  0.
         13    1    3    3    0    0 -0.79305468399E+01 -0.15591865236E+02 -0.22444215911E+03  0.22512281675E+03  0.00000000000E+00 0.  1.
          1    1    3    3  501    0 -0.61202110678E+01 -0.13145958338E+02 -0.21404672495E+03  0.21453734795E+03  0.00000000000E+00 0.  1.
         -1    1    1    2    0  502  0.14050757908E+02  0.28737823574E+02 -0.56046940509E+03  0.56138154614E+03  0.00000000000E+00 0. -1.
<mgrwt>
<rscale>  1 0.30000000E+03</rscale>
<asrwt>0</asrwt>
<pdfrwt beam="1">  1       21 0.37880474E-02 0.30000000E+03</pdfrwt>
<pdfrwt beam="2">0</pdfrwt>
<totfact> 0.46079323E+04</totfact>
</mgrwt>
</event>
<event>
 6    1  0.6513574E-002  0.3000000E+03  0.7818608E-02  0.1093470E+00
         21   -1    0    0  501  502  0.00000000000E+00  0.00000000000E+00  0.10964658359E+01  0.10964658359E+01  0.00000000000E+00 0. -1.
         13   -1    0    0    0    0 -0.00000000000E+00 -0.00000000000E+00 -0.10000000000E+04  0.10000000000E+04  0.00000000000E+00 0.  1.
    9000005    2    1    2  501    0 -0.30229010335E+02  0.62732126616E+01 -0.67804006325E+03  0.67875113357E+03  0.34099406314E+01 0.  0.
         13    1    3    3    0    0 -0.54158857729E+01  0.22673758600E+01 -0.11329729174E+03  0.11344932405E+03  0.00000000000E+00 0.  1.
          3    1    3    3  501    0 -0.24813124562E+02  0.40058368015E+01 -0.56474277151E+03  0.56530180952E+03  0.00000000000E+00 0.  1.
         -1    1    1    2    0  502  0.30229010335E+02 -0.62732126616E+01 -0.32086347092E+03  0.32234533226E+03  0.00000000000E+00 0. -1.
<mgrwt>
<rscale>  1 0.30000000E+03</rscale>
<asrwt>0</asrwt>
<pdfrwt beam="1">  1       21 0.39871569E-02 0.30000000E+03</pdfrwt>
<pdfrwt beam="2">0</pdfrwt>
<totfact> 0.42275640E+04</totfact>
</mgrwt>
</event>
<event>
 6    1  0.6513574E-002  0.3000000E+03  0.7818608E-02  0.1093470E+00
         21   -1    0    0  501  502  0.00000000000E+00  0.00000000000E+00  0.14840054331E+01  0.14840054331E+01  0.00000000000E+00 0. -1.
         13   -1    0    0    0    0 -0.00000000000E+00 -0.00000000000E+00 -0.10000000000E+04  0.10000000000E+04  0.00000000000E+00 0.  1.
    9000005    2    1    2  501    0  0.31225444670E+02 -0.13202379382E+02 -0.73583272432E+03  0.73662209484E+03  0.36029443307E+01 0.  0.
         13    1    3    3    0    0  0.40522381703E+01 -0.30893475101E+01 -0.11355912277E+03  0.11367338768E+03  0.00000000000E+00 0.  1.
          1    1    3    3  501    0  0.27173206500E+02 -0.10113031872E+02 -0.62227360155E+03  0.62294870716E+03  0.00000000000E+00 0.  1.
         -1    1    1    2    0  502 -0.31225444670E+02  0.13202379382E+02 -0.26268327024E+03  0.26486191059E+03  0.00000000000E+00 0. -1.
<mgrwt>
<rscale>  1 0.30000000E+03</rscale>
<asrwt>0</asrwt>
<pdfrwt beam="1">  1       21 0.53963948E-02 0.30000000E+03</pdfrwt>
<pdfrwt beam="2">0</pdfrwt>
<totfact> 0.25284791E+04</totfact>
</mgrwt>
</event>
<event>
 6    1  0.6513574E-002  0.3000000E+03  0.7818608E-02  0.1093470E+00
         21   -1    0    0  501  502  0.00000000000E+00  0.00000000000E+00  0.14571840231E+01  0.14571840231E+01  0.00000000000E+00 0. -1.
         13   -1    0    0    0    0 -0.00000000000E+00 -0.00000000000E+00 -0.10000000000E+04  0.10000000000E+04  0.00000000000E+00 0.  1.
    9000005    2    1    2  501    0 -0.18084173859E+02 -0.28424962146E+02 -0.26702910028E+03  0.26916807987E+03  0.34494933303E+01 0.  0.
         13    1    3    3    0    0 -0.11712004001E+02 -0.19648024751E+02 -0.19240041216E+03  0.19375534706E+03  0.00000000000E+00 0.  1.
          1    1    3    3  501    0 -0.63721698584E+01 -0.87769373951E+01 -0.74628688122E+02  0.75412732807E+02  0.00000000000E+00 0.  1.
         -3    1    1    2    0  502  0.18084173859E+02  0.28424962146E+02 -0.73151371569E+03  0.73228910416E+03  0.00000000000E+00 0. -1.
<mgrwt>
<rscale>  1 0.30000000E+03</rscale>
<asrwt>0</asrwt>
<pdfrwt beam="1">  1       21 0.52988622E-02 0.30000000E+03</pdfrwt>
<pdfrwt beam="2">0</pdfrwt>
<totfact> 0.26086442E+04</totfact>
</mgrwt>
</event>
<event>
 6    1  0.6513574E-002  0.3000000E+03  0.7818608E-02  0.1093470E+00
         21   -1    0    0  501  502  0.00000000000E+00  0.00000000000E+00  0.22424734922E+01  0.22424734922E+01  0.00000000000E+00 0. -1.
         13   -1    0    0    0    0 -0.00000000000E+00 -0.00000000000E+00 -0.10000000000E+04  0.10000000000E+04  0.00000000000E+00 0.  1.
    9000005    2    1    2  501    0  0.31941121159E+02 -0.34141484099E+02 -0.42288388961E+03  0.42547079028E+03  0.29551871164E+01 0.  0.
         13    1    3    3    0    0  0.85182745829E+01 -0.10943509816E+02 -0.12972959671E+03  0.13046873063E+03  0.00000000000E+00 0.  1.
          3    1    3    3  501    0  0.23422846577E+02 -0.23197974283E+02 -0.29315429290E+03  0.29500205965E+03  0.00000000000E+00 0.  1.
         -3    1    1    2    0  502 -0.31941121159E+02  0.34141484099E+02 -0.57487363689E+03  0.57677168321E+03  0.00000000000E+00 0. -1.
<mgrwt>
<rscale>  1 0.30000000E+03</rscale>
<asrwt>0</asrwt>
<pdfrwt beam="1">  1       21 0.81544663E-02 0.30000000E+03</pdfrwt>
<pdfrwt beam="2">0</pdfrwt>
<totfact> 0.12351677E+04</totfact>
</mgrwt>
</event>
<event>
 6    1  0.6513574E-002  0.3000000E+03  0.7818608E-02  0.1093470E+00
         21   -1    0    0  501  502  0.00000000000E+00  0.00000000000E+00  0.17096750532E+01  0.17096750532E+01  0.00000000000E+00 0. -1.
         13   -1    0    0    0    0 -0.00000000000E+00 -0.00000000000E+00 -0.10000000000E+04  0.10000000000E+04  0.00000000000E+00 0.  1.
    9000005    2    1    2  501    0 -0.28553943962E+02 -0.27285186868E+02 -0.35440888667E+03  0.35661811899E+03  0.33188413286E+01 0.  0.
         13    1    3    3    0    0 -0.39810516864E+01 -0.47825502932E+01 -0.47501500017E+02  0.47907348744E+02  0.00000000000E+00 0.  1.
          3    1    3    3  501    0 -0.24572892275E+02 -0.22502636575E+02 -0.30690738665E+03  0.30871077025E+03  0.00000000000E+00 0.  1.
         -3    1    1    2    0  502  0.28553943962E+02  0.27285186868E+02 -0.64388143828E+03  0.64509155606E+03  0.00000000000E+00 0. -1.
<mgrwt>
<rscale>  1 0.30000000E+03</rscale>
<asrwt>0</asrwt>
<pdfrwt beam="1">  1       21 0.62170133E-02 0.30000000E+03</pdfrwt>
<pdfrwt beam="2">0</pdfrwt>
<totfact> 0.19818317E+04</totfact>
</mgrwt>
</event>
<event>
 6    1  0.6513574E-002  0.3000000E+03  0.7818608E-02  0.1093470E+00
         21   -1    0    0  501  502  0.00000000000E+00  0.00000000000E+00  0.12941364974E+01  0.12941364974E+01  0.00000000000E+00 0. -1.
         13   -1    0    0    0    0 -0.00000000000E+00 -0.00000000000E+00 -0.10000000000E+04  0.10000000000E+04  0.00000000000E+00 0.  1.
    9000005    2    1    2  501    0  0.31608750514E+02  0.53725659123E+01 -0.27557965653E+03  0.27745749140E+03  0.32457461304E+01 0.  0.
         13    1    3    3    0    0  0.39217225733E+01  0.17127519509E+01 -0.39941584160E+02  0.40170182628E+02  0.00000000000E+00 0.  1.
          3    1    3    3  501    0  0.27687027940E+02  0.36598139614E+01 -0.23563807237E+03  0.23728730877E+03  0.00000000000E+00 0.  1.
         -1    1    1    2    0  502 -0.31608750514E+02 -0.53725659123E+01 -0.72312620697E+03  0.72383664510E+03  0.00000000000E+00 0. -1.
<mgrwt>
<rscale>  1 0.30000000E+03</rscale>
<asrwt>0</asrwt>
<pdfrwt beam="1">  1       21 0.47059608E-02 0.30000000E+03</pdfrwt>
<pdfrwt beam="2">0</pdfrwt>
<totfact> 0.31935438E+04</totfact>
</mgrwt>
</event>
<event>
 6    1  0.6513574E-002  0.3000000E+03  0.7818608E-02  0.1093470E+00
         21   -1    0    0  501  502  0.00000000000E+00  0.00000000000E+00  0.12170447196E+01  0.12170447196E+01  0.00000000000E+00 0. -1.
         13   -1    0    0    0    0 -0.00000000000E+00 -0.00000000000E+00 -0.10000000000E+04  0.10000000000E+04  0.00000000000E+00 0.  1.
    9000005    2    1    2  501    0  0.18473248230E+02 -0.26367420724E+02 -0.30912639501E+03  0.31080943113E+03  0.26215668821E+01 0.  0.
         13    1    3    3    0    0  0.34651139146E+01 -0.53818022196E+01 -0.52233876124E+02  0.52624600943E+02  0.00000000000E+00 0.  1.
          1    1    3    3  501    0  0.15008134315E+02 -0.20985618504E+02 -0.25689251889E+03  0.25818483019E+03  0.00000000000E+00 0.  1.
         -1    1    1    2    0  502 -0.18473248230E+02  0.26367420724E+02 -0.68965656027E+03  0.69040761359E+03  0.00000000000E+00 0. -1.
<mgrwt>
<rscale>  1 0.30000000E+03</rscale>
<asrwt>0</asrwt>
<pdfrwt beam="1">  1       21 0.44256265E-02 0.30000000E+03</pdfrwt>
<pdfrwt beam="2">0</pdfrwt>
<totfact> 0.35445913E+04</totfact>
</mgrwt>
</event>
<event>
 6    1  0.6513574E-002  0.3000000E+03  0.7818608E-02  0.1093470E+00
         21   -1    0    0  501  502  0.00000000000E+00  0.00000000000E+00  0.15200831146E+01  0.15200831146E+01  0.00000000000E+00 0. -1.
         13   -1    0    0    0    0 -0.00000000000E+00 -0.00000000000E+00 -0.10000000000E+04  0.10000000000E+04  0.00000000000E+00 0.  1.
    9000005    2    1    2  501    0 -0.33581176839E+02  0.93904254332E+01 -0.27793433042E+03  0.28013127137E+03  0.31877341043E+01 0.  0.
         13    1    3    3    0    0 -0.17787316188E+01  0.90784096990E+00 -0.21677286502E+02  0.21769079252E+02  0.00000000000E+00 0.  1.
          1    1    3    3  501    0 -0.31802445220E+02  0.84825844633E+01 -0.25625704391E+03  0.25836219212E+03  0.00000000000E+00 0.  1.
         -1    1    1    2    0  502  0.33581176839E+02 -0.93904254332E+01 -0.72054558647E+03  0.72138881174E+03  0.00000000000E+00 0. -1.
<mgrwt>
<rscale>  1 0.30000000E+03</rscale>
<asrwt>0</asrwt>
<pdfrwt beam="1">  1       21 0.55275866E-02 0.30000000E+03</pdfrwt>
<pdfrwt beam="2">0</pdfrwt>
<totfact> 0.24265048E+04</totfact>
</mgrwt>
</event>
<event>
 6    1  0.6513574E-002  0.3000000E+03  0.7818608E-02  0.1093470E+00
         21   -1    0    0  501  502  0.00000000000E+00  0.00000000000E+00  0.11293005374E+01  0.11293005374E+01  0.00000000000E+00 0. -1.
         13   -1    0    0    0    0 -0.00000000000E+00 -0.00000000000E+00 -0.10000000000E+04  0.10000000000E+04  0.00000000000E+00 0.  1.
    9000005    2    1    2  501    0 -0.24083735783E+02 -0.23201735537E+02 -0.49590955859E+03  0.49705762300E+03  0.46522496143E+01 0.  0.
         13    1    3    3    0    0 -0.15665265904E+01 -0.25595293898E+00 -0.27991176900E+02  0.28036146342E+02  0.00000000000E+00 0.  1.
          1    1    3    3  501    0 -0.22517209193E+02 -0.22945782598E+02 -0.46791838169E+03  0.46902147666E+03  0.00000000000E+00 0.  1.
         -1    1    1    2    0  502  0.24083735783E+02  0.23201735537E+02 -0.50296114088E+03  0.50407167754E+03  0.00000000000E+00 0. -1.
<mgrwt>
<rscale>  1 0.30000000E+03</rscale>
<asrwt>0</asrwt>
<pdfrwt beam="1">  1       21 0.41065561E-02 0.30000000E+03</pdfrwt>
<pdfrwt beam="2">0</pdfrwt>
<totfact> 0.40225109E+04</totfact>
</mgrwt>
</event>
<event>
 6    1  0.6513574E-002  0.3000000E+03  0.7818608E-02  0.1093470E+00
         21   -1    0    0  501  502  0.00000000000E+00  0.00000000000E+00  0.25764346555E+01  0.25764346555E+01  0.00000000000E+00 0. -1.
         13   -1    0    0    0    0 -0.00000000000E+00 -0.00000000000E+00 -0.10000000000E+04  0.10000000000E+04  0.00000000000E+00 0.  1.
    9000005    2    1    2  501    0 -0.40370476896E+02  0.22651145202E+02 -0.70374267196E+03  0.70526966224E+03  0.29492978738E+01 0.  0.
         13    1    3    3    0    0 -0.50458771604E+01  0.38751492894E+01 -0.89997379607E+02  0.90221981770E+02  0.00000000000E+00 0.  1.
          1    1    3    3  501    0 -0.35324599736E+02  0.18775995912E+02 -0.61374529235E+03  0.61504768047E+03  0.00000000000E+00 0.  1.
         -1    1    1    2    0  502  0.40370476896E+02 -0.22651145202E+02 -0.29368089339E+03  0.29730677241E+03  0.00000000000E+00 0. -1.
<mgrwt>
<rscale>  1 0.30000000E+03</rscale>
<asrwt>0</asrwt>
<pdfrwt beam="1">  1       21 0.93688730E-02 0.30000000E+03</pdfrwt>
<pdfrwt beam="2">0</pdfrwt>
<totfact> 0.96638778E+03</totfact>
</mgrwt>
</event>
<event>
 6    1  0.6513574E-002  0.3000000E+03  0.7818608E-02  0.1093470E+00
         21   -1    0    0  501  502  0.00000000000E+00  0.00000000000E+00  0.96644421763E+00  0.96644421763E+00  0.00000000000E+00 0. -1.
         13   -1    0    0    0    0 -0.00000000000E+00 -0.00000000000E+00 -0.10000000000E+04  0.10000000000E+04  0.00000000000E+00 0.  1.
    9000005    2    1    2  501    0  0.80110089748E+01 -0.29559811323E+02 -0.57784670784E+03  0.57866759317E+03  0.33774135013E+01 0.  0.
         13    1    3    3    0    0  0.26143589370E+01 -0.95259598252E+01 -0.21728091067E+03  0.21750533999E+03  0.00000000000E+00 0.  1.
          1    1    3    3  501    0  0.53966500377E+01 -0.20033851498E+02 -0.36056579717E+03  0.36116225319E+03  0.00000000000E+00 0.  1.
         -1    1    1    2    0  502 -0.80110089748E+01  0.29559811323E+02 -0.42118684795E+03  0.42229885104E+03  0.00000000000E+00 0. -1.
<mgrwt>
<rscale>  1 0.30000000E+03</rscale>
<asrwt>0</asrwt>
<pdfrwt beam="1">  1       21 0.35143500E-02 0.30000000E+03</pdfrwt>
<pdfrwt beam="2">0</pdfrwt>
<totfact> 0.52257493E+04</totfact>
</mgrwt>
</event>
<event>
 6    1  0.6513574E-002  0.3000000E+03  0.7818608E-02  0.1093470E+00
         21   -1    0    0  501  502  0.00000000000E+00  0.00000000000E+00  0.15936425316E+01  0.15936425316E+01  0.00000000000E+00 0. -1.
         13   -1    0    0    0    0 -0.00000000000E+00 -0.00000000000E+00 -0.10000000000E+04  0.10000000000E+04  0.00000000000E+00 0.  1.
    9000005    2    1    2  501    0  0.33025140160E+02  0.17396561464E+02 -0.67533720853E+03  0.67637529245E+03  0.31449609985E+01 0.  0.
         13    1    3    3    0    0  0.12691837590E+02  0.70725999302E+01 -0.29032108957E+03  0.29068443278E+03  0.00000000000E+00 0.  1.
          1    1    3    3  501    0  0.20333302570E+02  0.10323961534E+02 -0.38501611896E+03  0.38569085967E+03  0.00000000000E+00 0.  1.
         -3    1    1    2    0  502 -0.33025140160E+02 -0.17396561464E+02 -0.32306914894E+03  0.32521835008E+03  0.00000000000E+00 0. -1.
<mgrwt>
<rscale>  1 0.30000000E+03</rscale>
<asrwt>0</asrwt>
<pdfrwt beam="1">  1       21 0.57950760E-02 0.30000000E+03</pdfrwt>
<pdfrwt beam="2">0</pdfrwt>
<totfact> 0.22372271E+04</totfact>
</mgrwt>
</event>
<event>
 6    1  0.6513574E-002  0.3000000E+03  0.7818608E-02  0.1093470E+00
         21   -1    0    0  501  502  0.00000000000E+00  0.00000000000E+00  0.23977830128E+01  0.23977830128E+01  0.00000000000E+00 0. -1.
         13   -1    0    0    0    0 -0.00000000000E+00 -0.00000000000E+00 -0.10000000000E+04  0.10000000000E+04  0.00000000000E+00 0.  1.
    9000005    2    1    2  501    0 -0.12901974318E+02  0.45727217784E+02 -0.61698383737E+03  0.61882537747E+03  0.42840219202E+01 0.  0.
         13    1    3    3    0    0 -0.38643035266E+01  0.78713706925E+01 -0.11994371121E+03  0.12026381492E+03  0.00000000000E+00 0.  1.
          1    1    3    3  501    0 -0.90376707912E+01  0.37855847091E+02 -0.49704012615E+03  0.49856156256E+03  0.00000000000E+00 0.  1.
         -1    1    1    2    0  502  0.12901974318E+02 -0.45727217784E+02 -0.38061837962E+03  0.38357240554E+03  0.00000000000E+00 0. -1.
<mgrwt>
<rscale>  1 0.30000000E+03</rscale>
<asrwt>0</asrwt>
<pdfrwt beam="1">  1       21 0.87192293E-02 0.30000000E+03</pdfrwt>
<pdfrwt beam="2">0</pdfrwt>
<totfact> 0.10976638E+04</totfact>
</mgrwt>
</event>
<event>
 6    1  0.6513574E-002  0.3000000E+03  0.7818608E-02  0.1093470E+00
         21   -1    0    0  501  502  0.00000000000E+00  0.00000000000E+00  0.33679876452E+01  0.33679876452E+01  0.00000000000E+00 0. -1.
         13   -1    0    0    0    0 -0.00000000000E+00 -0.00000000000E+00 -0.10000000000E+04  0.10000000000E+04  0.00000000000E+00 0.  1.
    9000005    2    1    2  501    0 -0.41030818306E+02  0.14760921230E+02 -0.17881635070E+03  0.18439065628E+03  0.11100180105E+02 0.  0.
         13    1    3    3    0    0 -0.17124422382E+02  0.35990547307E+01 -0.92172446533E+02  0.93818755784E+02  0.00000000000E+00 0.  1.
          1    1    3    3  501    0 -0.23906395923E+02  0.11161866499E+02 -0.86643904170E+02  0.90571900496E+02  0.00000000000E+00 0.  1.
         -3    1    1    2    0  502  0.41030818306E+02 -0.14760921230E+02 -0.81781566165E+03  0.81897733136E+03  0.00000000000E+00 0. -1.
<mgrwt>
<rscale>  1 0.30000000E+03</rscale>
<asrwt>0</asrwt>
<pdfrwt beam="1">  1       21 0.12247254E-01 0.30000000E+03</pdfrwt>
<pdfrwt beam="2">0</pdfrwt>
<totfact> 0.59716566E+03</totfact>
</mgrwt>
</event>
<event>
 6    1  0.6513574E-002  0.3000000E+03  0.7818608E-02  0.1093470E+00
         21   -1    0    0  501  502  0.00000000000E+00  0.00000000000E+00  0.13625312180E+01  0.13625312180E+01  0.00000000000E+00 0. -1.
         13   -1    0    0    0    0 -0.00000000000E+00 -0.00000000000E+00 -0.10000000000E+04  0.10000000000E+04  0.00000000000E+00 0.  1.
    9000005    2    1    2  501    0 -0.31216732654E+02  0.14871617772E+02 -0.67218782964E+03  0.67308670769E+03  0.36862377850E+01 0.  0.
         13    1    3    3    0    0 -0.24482802296E+02  0.13142763681E+02 -0.52529016079E+03  0.52602461241E+03  0.00000000000E+00 0.  1.
          3    1    3    3  501    0 -0.67339303577E+01  0.17288540907E+01 -0.14689766885E+03  0.14706209528E+03  0.00000000000E+00 0.  1.
         -1    1    1    2    0  502  0.31216732654E+02 -0.14871617772E+02 -0.32644963914E+03  0.32827582352E+03  0.00000000000E+00 0. -1.
<mgrwt>
<rscale>  1 0.30000000E+03</rscale>
<asrwt>0</asrwt>
<pdfrwt beam="1">  1       21 0.49546694E-02 0.30000000E+03</pdfrwt>
<pdfrwt beam="2">0</pdfrwt>
<totfact> 0.29255257E+04</totfact>
</mgrwt>
</event>
<event>
 6    1  0.6513574E-002  0.3000000E+03  0.7818608E-02  0.1093470E+00
         21   -1    0    0  501  502  0.00000000000E+00  0.00000000000E+00  0.41398553088E+01  0.41398553088E+01  0.00000000000E+00 0. -1.
         13   -1    0    0    0    0 -0.00000000000E+00 -0.00000000000E+00 -0.10000000000E+04  0.10000000000E+04  0.00000000000E+00 0.  1.
    9000005    2    1    2  501    0 -0.32343975824E+02 -0.55139122186E+02 -0.55269167635E+03  0.55638462430E+03  0.30504882690E+01 0.  0.
         13    1    3    3    0    0 -0.12743333969E+02 -0.20588017741E+02 -0.19758070616E+03  0.19905877143E+03  0.00000000000E+00 0.  1.
          3    1    3    3  501    0 -0.19600641855E+02 -0.34551104446E+02 -0.35511097019E+03  0.35732585287E+03  0.00000000000E+00 0.  1.
         -3    1    1    2    0  502  0.32343975824E+02  0.55139122186E+02 -0.44316846834E+03  0.44775523101E+03  0.00000000000E+00 0. -1.
<mgrwt>
<rscale>  1 0.30000000E+03</rscale>
<asrwt>0</asrwt>
<pdfrwt beam="1">  1       21 0.15054051E-01 0.30000000E+03</pdfrwt>
<pdfrwt beam="2">0</pdfrwt>
<totfact> 0.40907053E+03</totfact>
</mgrwt>
</event>
<event>
 6    1  0.6513574E-002  0.3000000E+03  0.7818608E-02  0.1093470E+00
         21   -1    0    0  501  502  0.00000000000E+00  0.00000000000E+00  0.14404643033E+01  0.14404643033E+01  0.00000000000E+00 0. -1.
         13   -1    0    0    0    0 -0.00000000000E+00 -0.00000000000E+00 -0.10000000000E+04  0.10000000000E+04  0.00000000000E+00 0.  1.
    9000005    2    1    2  501    0  0.22669679887E+02 -0.30348133710E+02 -0.48856483759E+03  0.49004089869E+03  0.30916435845E+01 0.  0.
         13    1    3    3    0    0  0.16001491272E+02 -0.21997959478E+02 -0.33271869479E+03  0.33382883010E+03  0.00000000000E+00 0.  1.
          3    1    3    3  501    0  0.66681886155E+01 -0.83501742319E+01 -0.15584614280E+03  0.15621206859E+03  0.00000000000E+00 0.  1.
         -1    1    1    2    0  502 -0.22669679887E+02  0.30348133710E+02 -0.50999469811E+03  0.51139956561E+03  0.00000000000E+00 0. -1.
<mgrwt>
<rscale>  1 0.30000000E+03</rscale>
<asrwt>0</asrwt>
<pdfrwt beam="1">  1       21 0.52380631E-02 0.30000000E+03</pdfrwt>
<pdfrwt beam="2">0</pdfrwt>
<totfact> 0.26606246E+04</totfact>
</mgrwt>
</event>
<event>
 6    1  0.6513574E-002  0.3000000E+03  0.7818608E-02  0.1093470E+00
         21   -1    0    0  501  502  0.00000000000E+00  0.00000000000E+00  0.26285254502E+01  0.26285254502E+01  0.00000000000E+00 0. -1.
         13   -1    0    0    0    0 -0.00000000000E+00 -0.00000000000E+00 -0.10000000000E+04  0.10000000000E+04  0.00000000000E+00 0.  1.
    9000005    2    1    2  501    0 -0.10293458425E+02 -0.44673629319E+02 -0.27630978304E+03  0.28011094684E+03  0.36548448861E+01 0.  0.
         13    1    3    3    0    0  0.24663703083E+00 -0.18167977798E+01 -0.12854045742E+02  0.12984147101E+02  0.00000000000E+00 0.  1.
          1    1    3    3  501    0 -0.10540095456E+02 -0.42856831539E+02 -0.26345573730E+03  0.26712679974E+03  0.00000000000E+00 0.  1.
         -3    1    1    2    0  502  0.10293458425E+02  0.44673629319E+02 -0.72106169151E+03  0.72251757861E+03  0.00000000000E+00 0. -1.
<mgrwt>
<rscale>  1 0.30000000E+03</rscale>
<asrwt>0</asrwt>
<pdfrwt beam="1">  1       21 0.95582945E-02 0.30000000E+03</pdfrwt>
<pdfrwt beam="2">0</pdfrwt>
<totfact> 0.93255089E+03</totfact>
</mgrwt>
</event>
<event>
 6    1  0.6513574E-002  0.3000000E+03  0.7818608E-02  0.1093470E+00
         21   -1    0    0  501  502  0.00000000000E+00  0.00000000000E+00  0.78696662930E+01  0.78696662930E+01  0.00000000000E+00 0. -1.
         13   -1    0    0    0    0 -0.00000000000E+00 -0.00000000000E+00 -0.10000000000E+04  0.10000000000E+04  0.00000000000E+00 0.  1.
    9000005    2    1    2  501    0  0.33888862596E+02  0.80318641338E+02 -0.40398593849E+03  0.41329976394E+03  0.35379688992E+01 0.  0.
         13    1    3    3    0    0  0.21212072615E+02  0.45802029605E+02 -0.23290217282E+03  0.23830904315E+03  0.00000000000E+00 0.  1.
          1    1    3    3  501    0  0.12676789981E+02  0.34516611732E+02 -0.17108376567E+03  0.17499072079E+03  0.00000000000E+00 0.  1.
         -3    1    1    2    0  502 -0.33888862596E+02 -0.80318641338E+02 -0.58814439522E+03  0.59456990235E+03  0.00000000000E+00 0. -1.
<mgrwt>
<rscale>  1 0.30000000E+03</rscale>
<asrwt>0</asrwt>
<pdfrwt beam="1">  1       21 0.28617029E-01 0.30000000E+03</pdfrwt>
<pdfrwt beam="2">0</pdfrwt>
<totfact> 0.11945702E+03</totfact>
</mgrwt>
</event>
<event>
 6    1  0.6513574E-002  0.3000000E+03  0.7818608E-02  0.1093470E+00
         21   -1    0    0  501  502  0.00000000000E+00  0.00000000000E+00  0.11076657058E+01  0.11076657058E+01  0.00000000000E+00 0. -1.
         13   -1    0    0    0    0 -0.00000000000E+00 -0.00000000000E+00 -0.10000000000E+04  0.10000000000E+04  0.00000000000E+00 0.  1.
    9000005    2    1    2  501    0  0.24392168920E+02  0.22525555830E+02 -0.51806412439E+03  0.51913448595E+03  0.27926593672E+01 0.  0.
         13    1    3    3    0    0  0.21647259673E+02  0.21009698662E+02 -0.46417978454E+03  0.46515898752E+03  0.00000000000E+00 0.  1.
          1    1    3    3  501    0  0.27449092469E+01  0.15158571677E+01 -0.53884339849E+02  0.53975498429E+02  0.00000000000E+00 0.  1.
         -1    1    1    2    0  502 -0.24392168920E+02 -0.22525555830E+02 -0.48082820990E+03  0.48197317976E+03  0.00000000000E+00 0. -1.
<mgrwt>
<rscale>  1 0.30000000E+03</rscale>
<asrwt>0</asrwt>
<pdfrwt beam="1">  1       21 0.40278838E-02 0.30000000E+03</pdfrwt>
<pdfrwt beam="2">0</pdfrwt>
<totfact> 0.41558210E+04</totfact>
</mgrwt>
</event>
<event>
 6    1  0.6513574E-002  0.3000000E+03  0.7818608E-02  0.1093470E+00
         21   -1    0    0  501  502  0.00000000000E+00  0.00000000000E+00  0.19865931089E+01  0.19865931089E+01  0.00000000000E+00 0. -1.
         13   -1    0    0    0    0 -0.00000000000E+00 -0.00000000000E+00 -0.10000000000E+04  0.10000000000E+04  0.00000000000E+00 0.  1.
    9000005    2    1    2  501    0 -0.38638281074E+02  0.18682498069E+02 -0.36630315782E+03  0.36882011320E+03  0.28844364668E+01 0.  0.
         13    1    3    3    0    0 -0.22561961854E+02  0.12456817375E+02 -0.21744046464E+03  0.21896248557E+03  0.00000000000E+00 0.  1.
          3    1    3    3  501    0 -0.16076319221E+02  0.62256806939E+01 -0.14886269318E+03  0.14985762763E+03  0.00000000000E+00 0.  1.
         -1    1    1    2    0  502  0.38638281074E+02 -0.18682498069E+02 -0.63171024907E+03  0.63316647991E+03  0.00000000000E+00 0. -1.
<mgrwt>
<rscale>  1 0.30000000E+03</rscale>
<asrwt>0</asrwt>
<pdfrwt beam="1">  1       21 0.72239902E-02 0.30000000E+03</pdfrwt>
<pdfrwt beam="2">0</pdfrwt>
<totfact> 0.15273509E+04</totfact>
</mgrwt>
</event>
<event>
 6    1  0.6513574E-002  0.3000000E+03  0.7818608E-02  0.1093470E+00
         21   -1    0    0  501  502  0.00000000000E+00  0.00000000000E+00  0.14095690113E+01  0.14095690113E+01  0.00000000000E+00 0. -1.
         13   -1    0    0    0    0 -0.00000000000E+00 -0.00000000000E+00 -0.10000000000E+04  0.10000000000E+04  0.00000000000E+00 0.  1.
    9000005    2    1    2  501    0 -0.36093902136E+02  0.99270975384E+01 -0.47518198955E+03  0.47666418923E+03  0.30836764839E+01 0.  0.
         13    1    3    3    0    0 -0.11979162464E+02  0.21636680544E+01 -0.14245845904E+03  0.14297760085E+03  0.00000000000E+00 0.  1.
          3    1    3    3  501    0 -0.24114739672E+02  0.77634294840E+01 -0.33272353051E+03  0.33368658838E+03  0.00000000000E+00 0.  1.
         -3    1    1    2    0  502  0.36093902136E+02 -0.99270975384E+01 -0.52340844144E+03  0.52474537978E+03  0.00000000000E+00 0. -1.
<mgrwt>
<rscale>  1 0.30000000E+03</rscale>
<asrwt>0</asrwt>
<pdfrwt beam="1">  1       21 0.51257163E-02 0.30000000E+03</pdfrwt>
<pdfrwt beam="2">0</pdfrwt>
<totfact> 0.27609992E+04</totfact>
</mgrwt>
</event>
<event>
 6    1  0.6513574E-002  0.3000000E+03  0.7818608E-02  0.1093470E+00
         21   -1    0    0  501  502  0.00000000000E+00  0.00000000000E+00  0.24602534125E+01  0.24602534125E+01  0.00000000000E+00 0. -1.
         13   -1    0    0    0    0 -0.00000000000E+00 -0.00000000000E+00 -0.10000000000E+04  0.10000000000E+04  0.00000000000E+00 0.  1.
    9000005    2    1    2  501    0 -0.48988179715E+02 -0.72014068330E+01 -0.47878984865E+03  0.48135262670E+03  0.29883180001E+01 0.  0.
         13    1    3    3    0    0 -0.41542643028E+02 -0.51007589954E+01 -0.40814805965E+03  0.41028849304E+03  0.00000000000E+00 0.  1.
          1    1    3    3  501    0 -0.74455366876E+01 -0.21006478376E+01 -0.70641789009E+02  0.71064133656E+02  0.00000000000E+00 0.  1.
         -3    1    1    2    0  502  0.48988179715E+02  0.72014068330E+01 -0.51874989793E+03  0.52110762671E+03  0.00000000000E+00 0. -1.
<mgrwt>
<rscale>  1 0.30000000E+03</rscale>
<asrwt>0</asrwt>
<pdfrwt beam="1">  1       21 0.89463949E-02 0.30000000E+03</pdfrwt>
<pdfrwt beam="2">0</pdfrwt>
<totfact> 0.10488482E+04</totfact>
</mgrwt>
</event>
<event>
 6    1  0.6513574E-002  0.3000000E+03  0.7818608E-02  0.1093470E+00
         21   -1    0    0  501  502  0.00000000000E+00  0.00000000000E+00  0.23918229529E+01  0.23918229529E+01  0.00000000000E+00 0. -1.
         13   -1    0    0    0    0 -0.00000000000E+00 -0.00000000000E+00 -0.10000000000E+04  0.10000000000E+04  0.00000000000E+00 0.  1.
    9000005    2    1    2  501    0  0.32470573694E+02  0.35138318978E+02 -0.40016959249E+03  0.40304058875E+03  0.41199288672E+01 0.  0.
         13    1    3    3    0    0  0.20378352067E+02  0.19988619106E+02 -0.22594440574E+03  0.22774041497E+03  0.00000000000E+00 0.  1.
          3    1    3    3  501    0  0.12092221627E+02  0.15149699872E+02 -0.17422518675E+03  0.17530017378E+03  0.00000000000E+00 0.  1.
         -1    1    1    2    0  502 -0.32470573694E+02 -0.35138318978E+02 -0.59743858456E+03  0.59935123420E+03  0.00000000000E+00 0. -1.
<mgrwt>
<rscale>  1 0.30000000E+03</rscale>
<asrwt>0</asrwt>
<pdfrwt beam="1">  1       21 0.86975564E-02 0.30000000E+03</pdfrwt>
<pdfrwt beam="2">0</pdfrwt>
<totfact> 0.11025006E+04</totfact>
</mgrwt>
</event>
<event>
 6    1  0.6513574E-002  0.3000000E+03  0.7818608E-02  0.1093470E+00
         21   -1    0    0  501  502  0.00000000000E+00  0.00000000000E+00  0.32278005249E+01  0.32278005249E+01  0.00000000000E+00 0. -1.
         13   -1    0    0    0    0 -0.00000000000E+00 -0.00000000000E+00 -0.10000000000E+04  0.10000000000E+04  0.00000000000E+00 0.  1.
    9000005    2    1    2  501    0  0.40805200122E+02 -0.31967074372E+02 -0.29428165643E+03  0.29882740212E+03  0.30273333797E+01 0.  0.
         13    1    3    3    0    0  0.60699252986E+01 -0.52125507151E+01 -0.51673913351E+02  0.52289654800E+02  0.00000000000E+00 0.  1.
          1    1    3    3  501    0  0.34735274824E+02 -0.26754523657E+02 -0.24260774308E+03  0.24653774732E+03  0.00000000000E+00 0.  1.
         -1    1    1    2    0  502 -0.40805200122E+02  0.31967074372E+02 -0.70249054305E+03  0.70440039840E+03  0.00000000000E+00 0. -1.
<mgrwt>
<rscale>  1 0.30000000E+03</rscale>
<asrwt>0</asrwt>
<pdfrwt beam="1">  1       21 0.11737481E-01 0.30000000E+03</pdfrwt>
<pdfrwt beam="2">0</pdfrwt>
<totfact> 0.64506395E+03</totfact>
</mgrwt>
</event>
<event>
 6    1  0.6513574E-002  0.3000000E+03  0.7818608E-02  0.1093470E+00
         21   -1    0    0  501  502  0.00000000000E+00  0.00000000000E+00  0.26995384342E+01  0.26995384342E+01  0.00000000000E+00 0. -1.
         13   -1    0    0    0    0 -0.00000000000E+00 -0.00000000000E+00 -0.10000000000E+04  0.10000000000E+04  0.00000000000E+00 0.  1.
    9000005    2    1    2  501    0 -0.13038933605E+02  0.41526981324E+02 -0.77212968884E+03  0.77336052985E+03  0.27836626929E+01 0.  0.
         13    1    3    3    0    0 -0.29289975150E+01  0.90613470289E+01 -0.19018757584E+03  0.19042584132E+03  0.00000000000E+00 0.  1.
          1    1    3    3  501    0 -0.10109936090E+02  0.32465634295E+02 -0.58194211299E+03  0.58293468853E+03  0.00000000000E+00 0.  1.
         -1    1    1    2    0  502  0.13038933605E+02 -0.41526981324E+02 -0.22517077273E+03  0.22933900859E+03  0.00000000000E+00 0. -1.
<mgrwt>
<rscale>  1 0.30000000E+03</rscale>
<asrwt>0</asrwt>
<pdfrwt beam="1">  1       21 0.98165241E-02 0.30000000E+03</pdfrwt>
<pdfrwt beam="2">0</pdfrwt>
<totfact> 0.88924695E+03</totfact>
</mgrwt>
</event>
<event>
 6    1  0.6513574E-002  0.3000000E+03  0.7818608E-02  0.1093470E+00
         21   -1    0    0  501  502  0.00000000000E+00  0.00000000000E+00  0.20541034985E+01  0.20541034985E+01  0.00000000000E+00 0. -1.
         13   -1    0    0    0    0 -0.00000000000E+00 -0.00000000000E+00 -0.10000000000E+04  0.10000000000E+04  0.00000000000E+00 0.  1.
    9000005    2    1    2  501    0  0.23189055841E+02  0.30464679706E+02 -0.76446420079E+03  0.76545416425E+03  0.69809925287E+01 0.  0.
         13    1    3    3    0    0  0.18799217946E+02  0.28056913497E+02 -0.68543482032E+03  0.68626634327E+03  0.00000000000E+00 0.  1.
          1    1    3    3  501    0  0.43898378953E+01  0.24077662090E+01 -0.79029380463E+02  0.79187820978E+02  0.00000000000E+00 0.  1.
         -1    1    1    2    0  502 -0.23189055841E+02 -0.30464679706E+02 -0.23348169572E+03  0.23659993925E+03  0.00000000000E+00 0. -1.
<mgrwt>
<rscale>  1 0.30000000E+03</rscale>
<asrwt>0</asrwt>
<pdfrwt beam="1">  1       21 0.74694830E-02 0.30000000E+03</pdfrwt>
<pdfrwt beam="2">0</pdfrwt>
<totfact> 0.14406935E+04</totfact>
</mgrwt>
</event>
<event>
 6    1  0.6513574E-002  0.3000000E+03  0.7818608E-02  0.1093470E+00
         21   -1    0    0  501  502  0.00000000000E+00  0.00000000000E+00  0.15012346736E+01  0.15012346736E+01  0.00000000000E+00 0. -1.
         13   -1    0    0    0    0 -0.00000000000E+00 -0.00000000000E+00 -0.10000000000E+04  0.10000000000E+04  0.00000000000E+00 0.  1.
    9000005    2    1    2  501    0  0.27121073749E+02 -0.27445355370E+02 -0.53577342648E+03  0.53716995274E+03  0.30973263718E+01 0.  0.
         13    1    3    3    0    0  0.11080185160E+00 -0.21029083759E+00 -0.12759720394E+01  0.12979229299E+01  0.00000000000E+00 0.  1.
          3    1    3    3  501    0  0.27010271897E+02 -0.27235064533E+02 -0.53449745444E+03  0.53587202981E+03  0.00000000000E+00 0.  1.
         -1    1    1    2    0  502 -0.27121073749E+02  0.27445355370E+02 -0.46272533885E+03  0.46433128194E+03  0.00000000000E+00 0. -1.
<mgrwt>
<rscale>  1 0.30000000E+03</rscale>
<asrwt>0</asrwt>
<pdfrwt beam="1">  1       21 0.54590467E-02 0.30000000E+03</pdfrwt>
<pdfrwt beam="2">0</pdfrwt>
<totfact> 0.24789725E+04</totfact>
</mgrwt>
</event>
<event>
 6    1  0.6513574E-002  0.3000000E+03  0.7818608E-02  0.1093470E+00
         21   -1    0    0  501  502  0.00000000000E+00  0.00000000000E+00  0.12907284536E+01  0.12907284536E+01  0.00000000000E+00 0. -1.
         13   -1    0    0    0    0 -0.00000000000E+00 -0.00000000000E+00 -0.10000000000E+04  0.10000000000E+04  0.00000000000E+00 0.  1.
    9000005    2    1    2  501    0  0.27728340443E+02 -0.22424672739E+02 -0.44948630807E+03  0.45091123173E+03  0.33572221667E+01 0.  0.
         13    1    3    3    0    0  0.20251612171E+02 -0.17714936634E+02 -0.35057316067E+03  0.35160416346E+03  0.00000000000E+00 0.  1.
          3    1    3    3  501    0  0.74767282724E+01 -0.47097361049E+01 -0.98913147399E+02  0.99307068269E+02  0.00000000000E+00 0.  1.
         -1    1    1    2    0  502 -0.27728340443E+02  0.22424672739E+02 -0.54922296347E+03  0.55037949673E+03  0.00000000000E+00 0. -1.
<mgrwt>
<rscale>  1 0.30000000E+03</rscale>
<asrwt>0</asrwt>
<pdfrwt beam="1">  1       21 0.46935679E-02 0.30000000E+03</pdfrwt>
<pdfrwt beam="2">0</pdfrwt>
<totfact> 0.32078937E+04</totfact>
</mgrwt>
</event>
<event>
 6    1  0.6513574E-002  0.3000000E+03  0.7818608E-02  0.1093470E+00
         21   -1    0    0  501  502  0.00000000000E+00  0.00000000000E+00  0.33793735781E+01  0.33793735781E+01  0.00000000000E+00 0. -1.
         13   -1    0    0    0    0 -0.00000000000E+00 -0.00000000000E+00 -0.10000000000E+04  0.10000000000E+04  0.00000000000E+00 0.  1.
    9000005    2    1    2  501    0  0.39085022400E+02 -0.42885938651E+02 -0.47826908711E+03  0.48179030063E+03  0.37055887237E+01 0.  0.
         13    1    3    3    0    0  0.13471091601E+02 -0.17149310634E+02 -0.17270875033E+03  0.17408010112E+03  0.00000000000E+00 0.  1.
          3    1    3    3  501    0  0.25613930799E+02 -0.25736628018E+02 -0.30556033678E+03  0.30771019951E+03  0.00000000000E+00 0.  1.
         -1    1    1    2    0  502 -0.39085022400E+02  0.42885938651E+02 -0.51835153931E+03  0.52158907295E+03  0.00000000000E+00 0. -1.
<mgrwt>
<rscale>  1 0.30000000E+03</rscale>
<asrwt>0</asrwt>
<pdfrwt beam="1">  1       21 0.12288657E-01 0.30000000E+03</pdfrwt>
<pdfrwt beam="2">0</pdfrwt>
<totfact> 0.59351020E+03</totfact>
</mgrwt>
</event>
<event>
 6    1  0.6513574E-002  0.3000000E+03  0.7818608E-02  0.1093470E+00
         21   -1    0    0  501  502  0.00000000000E+00  0.00000000000E+00  0.20600326204E+01  0.20600326204E+01  0.00000000000E+00 0. -1.
         13   -1    0    0    0    0 -0.00000000000E+00 -0.00000000000E+00 -0.10000000000E+04  0.10000000000E+04  0.00000000000E+00 0.  1.
    9000005    2    1    2  501    0  0.66944840484E+01  0.29665480027E+02 -0.12926814350E+03  0.13285603215E+03  0.39516495568E+01 0.  0.
         13    1    3    3    0    0  0.59609107172E+00  0.69372725885E+00 -0.21657335732E+01  0.23509538459E+01  0.00000000000E+00 0.  1.
          3    1    3    3  501    0  0.60983929767E+01  0.28971752768E+02 -0.12710240992E+03  0.13050507830E+03  0.00000000000E+00 0.  1.
         -1    1    1    2    0  502 -0.66944840484E+01 -0.29665480027E+02 -0.86867182388E+03  0.86920400047E+03  0.00000000000E+00 0. -1.
<mgrwt>
<rscale>  1 0.30000000E+03</rscale>
<asrwt>0</asrwt>
<pdfrwt beam="1">  1       21 0.74910435E-02 0.30000000E+03</pdfrwt>
<pdfrwt beam="2">0</pdfrwt>
<totfact> 0.14334420E+04</totfact>
</mgrwt>
</event>
<event>
 6    1  0.6513574E-002  0.3000000E+03  0.7818608E-02  0.1093470E+00
         21   -1    0    0  501  502  0.00000000000E+00  0.00000000000E+00  0.15038301564E+01  0.15038301564E+01  0.00000000000E+00 0. -1.
         13   -1    0    0    0    0 -0.00000000000E+00 -0.00000000000E+00 -0.10000000000E+04  0.10000000000E+04  0.00000000000E+00 0.  1.
    9000005    2    1    2  501    0  0.12445754942E+02 -0.35040091414E+02 -0.63980408520E+03  0.64088947047E+03  0.27094473326E+01 0.  0.
         13    1    3    3    0    0  0.23741167058E+01 -0.10217659544E+02 -0.17509563964E+03  0.17540957789E+03  0.00000000000E+00 0.  1.
          3    1    3    3  501    0  0.10071638237E+02 -0.24822431870E+02 -0.46470844556E+03  0.46547989258E+03  0.00000000000E+00 0.  1.
         -3    1    1    2    0  502 -0.12445754942E+02  0.35040091414E+02 -0.35869208465E+03  0.36061435968E+03  0.00000000000E+00 0. -1.
<mgrwt>
<rscale>  1 0.30000000E+03</rscale>
<asrwt>0</asrwt>
<pdfrwt beam="1">  1       21 0.54684848E-02 0.30000000E+03</pdfrwt>
<pdfrwt beam="2">0</pdfrwt>
<totfact> 0.24716443E+04</totfact>
</mgrwt>
</event>
<event>
 6    1  0.6513574E-002  0.3000000E+03  0.7818608E-02  0.1093470E+00
         21   -1    0    0  501  502  0.00000000000E+00  0.00000000000E+00  0.18774915818E+01  0.18774915818E+01  0.00000000000E+00 0. -1.
         13   -1    0    0    0    0 -0.00000000000E+00 -0.00000000000E+00 -0.10000000000E+04  0.10000000000E+04  0.00000000000E+00 0.  1.
    9000005    2    1    2  501    0  0.32101696862E+02  0.23470958442E+02 -0.69653818126E+03  0.69768263426E+03  0.37703272825E+01 0.  0.
         13    1    3    3    0    0  0.26477481561E+02  0.17582466543E+02 -0.54568322701E+03  0.54660807202E+03  0.00000000000E+00 0.  1.
          1    1    3    3  501    0  0.56242153008E+01  0.58884918993E+01 -0.15085495425E+03  0.15107456224E+03  0.00000000000E+00 0.  1.
         -1    1    1    2    0  502 -0.32101696862E+02 -0.23470958442E+02 -0.30158432716E+03  0.30419485732E+03  0.00000000000E+00 0. -1.
<mgrwt>
<rscale>  1 0.30000000E+03</rscale>
<asrwt>0</asrwt>
<pdfrwt beam="1">  1       21 0.68272565E-02 0.30000000E+03</pdfrwt>
<pdfrwt beam="2">0</pdfrwt>
<totfact> 0.16851711E+04</totfact>
</mgrwt>
</event>
<event>
 6    1  0.6513574E-002  0.3000000E+03  0.7818608E-02  0.1093470E+00
         21   -1    0    0  501  502  0.00000000000E+00  0.00000000000E+00  0.28486361528E+01  0.28486361528E+01  0.00000000000E+00 0. -1.
         13   -1    0    0    0    0 -0.00000000000E+00 -0.00000000000E+00 -0.10000000000E+04  0.10000000000E+04  0.00000000000E+00 0.  1.
    9000005    2    1    2  501    0 -0.18781998420E+02  0.47054288395E+02 -0.36068884087E+03  0.36437278486E+03  0.10208668008E+02 0.  0.
         13    1    3    3    0    0 -0.89841820767E+01  0.16235259710E+02 -0.10243026278E+03  0.10409734828E+03  0.00000000000E+00 0.  1.
          3    1    3    3  501    0 -0.97978163430E+01  0.30819028684E+02 -0.25825857809E+03  0.26027543659E+03  0.00000000000E+00 0.  1.
         -1    1    1    2    0  502  0.18781998420E+02 -0.47054288395E+02 -0.63646252298E+03  0.63847585129E+03  0.00000000000E+00 0. -1.
<mgrwt>
<rscale>  1 0.30000000E+03</rscale>
<asrwt>0</asrwt>
<pdfrwt beam="1">  1       21 0.10358699E-01 0.30000000E+03</pdfrwt>
<pdfrwt beam="2">0</pdfrwt>
<totfact> 0.80775925E+03</totfact>
</mgrwt>
</event>
<event>
 6    1  0.6513574E-002  0.3000000E+03  0.7818608E-02  0.1093470E+00
         21   -1    0    0  501  502  0.00000000000E+00  0.00000000000E+00  0.99829587640E+00  0.99829587640E+00  0.00000000000E+00 0. -1.
         13   -1    0    0    0    0 -0.00000000000E+00 -0.00000000000E+00 -0.10000000000E+04  0.10000000000E+04  0.00000000000E+00 0.  1.
    9000005    2    1    2  501    0 -0.59466249864E+01 -0.29975336913E+02 -0.37890956872E+03  0.38015359746E+03  0.32269516025E+01 0.  0.
         13    1    3    3    0    0 -0.34995488558E+01 -0.24131114105E+02 -0.30461091044E+03  0.30558528150E+03  0.00000000000E+00 0.  1.
          1    1    3    3  501    0 -0.24470761306E+01 -0.58442228087E+01 -0.74298658282E+02  0.74568315955E+02  0.00000000000E+00 0.  1.
         -3    1    1    2    0  502  0.59466249864E+01  0.29975336913E+02 -0.62009213540E+03  0.62084469842E+03  0.00000000000E+00 0. -1.
<mgrwt>
<rscale>  1 0.30000000E+03</rscale>
<asrwt>0</asrwt>
<pdfrwt beam="1">  1       21 0.36301745E-02 0.30000000E+03</pdfrwt>
<pdfrwt beam="2">0</pdfrwt>
<totfact> 0.49492587E+04</totfact>
</mgrwt>
</event>
<event>
 6    1  0.6513574E-002  0.3000000E+03  0.7818608E-02  0.1093470E+00
         21   -1    0    0  501  502  0.00000000000E+00  0.00000000000E+00  0.95906541091E+00  0.95906541091E+00  0.00000000000E+00 0. -1.
         13   -1    0    0    0    0 -0.00000000000E+00 -0.00000000000E+00 -0.10000000000E+04  0.10000000000E+04  0.00000000000E+00 0.  1.
    9000005    2    1    2  501    0  0.29475843566E+02 -0.64760367638E+01 -0.60620143469E+03  0.60696206404E+03  0.34645866642E+01 0.  0.
         13    1    3    3    0    0  0.11143280932E+02 -0.10881373798E+01 -0.20406150557E+03  0.20436842909E+03  0.00000000000E+00 0.  1.
          3    1    3    3  501    0  0.18332562634E+02 -0.53878993840E+01 -0.40213992912E+03  0.40259363496E+03  0.00000000000E+00 0.  1.
         -3    1    1    2    0  502 -0.29475843566E+02  0.64760367638E+01 -0.39283949990E+03  0.39399700137E+03  0.00000000000E+00 0. -1.
<mgrwt>
<rscale>  1 0.30000000E+03</rscale>
<asrwt>0</asrwt>
<pdfrwt beam="1">  1       21 0.34875179E-02 0.30000000E+03</pdfrwt>
<pdfrwt beam="2">0</pdfrwt>
<totfact> 0.52932481E+04</totfact>
</mgrwt>
</event>
<event>
 6    1  0.6513574E-002  0.3000000E+03  0.7818608E-02  0.1093470E+00
         21   -1    0    0  501  502  0.00000000000E+00  0.00000000000E+00  0.11537904258E+01  0.11537904258E+01  0.00000000000E+00 0. -1.
         13   -1    0    0    0    0 -0.00000000000E+00 -0.00000000000E+00 -0.10000000000E+04  0.10000000000E+04  0.00000000000E+00 0.  1.
    9000005    2    1    2  501    0 -0.31135871125E+01  0.32884792081E+02 -0.61260497249E+03  0.61350266222E+03  0.30919664606E+01 0.  0.
         13    1    3    3    0    0 -0.64953585192E+00  0.99063505562E+00 -0.23307840176E+02  0.23337923393E+02  0.00000000000E+00 0.  1.
          3    1    3    3  501    0 -0.24640512605E+01  0.31894157025E+02 -0.58929713232E+03  0.59016473883E+03  0.00000000000E+00 0.  1.
         -3    1    1    2    0  502  0.31135871125E+01 -0.32884792081E+02 -0.38624123708E+03  0.38765112820E+03  0.00000000000E+00 0. -1.
<mgrwt>
<rscale>  1 0.30000000E+03</rscale>
<asrwt>0</asrwt>
<pdfrwt beam="1">  1       21 0.41956104E-02 0.30000000E+03</pdfrwt>
<pdfrwt beam="2">0</pdfrwt>
<totfact> 0.38794899E+04</totfact>
</mgrwt>
</event>
<event>
 6    1  0.6513574E-002  0.3000000E+03  0.7818608E-02  0.1093470E+00
         21   -1    0    0  501  502  0.00000000000E+00  0.00000000000E+00  0.16898410706E+01  0.16898410706E+01  0.00000000000E+00 0. -1.
         13   -1    0    0    0    0 -0.00000000000E+00 -0.00000000000E+00 -0.10000000000E+04  0.10000000000E+04  0.00000000000E+00 0.  1.
    9000005    2    1    2  501    0  0.39145013744E+02  0.26595778525E+01 -0.64675767368E+03  0.64795469249E+03  0.32232905547E+01 0.  0.
         13    1    3    3    0    0  0.26274752108E+02  0.72991867969E+00 -0.45017698303E+03  0.45094368986E+03  0.00000000000E+00 0.  1.
          3    1    3    3  501    0  0.12870261636E+02  0.19296591728E+01 -0.19658069065E+03  0.19701100263E+03  0.00000000000E+00 0.  1.
         -1    1    1    2    0  502 -0.39145013744E+02 -0.26595778525E+01 -0.35155248525E+03  0.35373514858E+03  0.00000000000E+00 0. -1.
<mgrwt>
<rscale>  1 0.30000000E+03</rscale>
<asrwt>0</asrwt>
<pdfrwt beam="1">  1       21 0.61448896E-02 0.30000000E+03</pdfrwt>
<pdfrwt beam="2">0</pdfrwt>
<totfact> 0.20221710E+04</totfact>
</mgrwt>
</event>
<event>
 6    1  0.6513574E-002  0.3000000E+03  0.7818608E-02  0.1093470E+00
         21   -1    0    0  501  502  0.00000000000E+00  0.00000000000E+00  0.25564765021E+01  0.25564765021E+01  0.00000000000E+00 0. -1.
         13   -1    0    0    0    0 -0.00000000000E+00 -0.00000000000E+00 -0.10000000000E+04  0.10000000000E+04  0.00000000000E+00 0.  1.
    9000005    2    1    2  501    0 -0.44714689411E+02  0.21969881636E+02 -0.58189771012E+03  0.58403478989E+03  0.31002599147E+01 0.  0.
         13    1    3    3    0    0 -0.30853264513E+02  0.13934135521E+02 -0.40581478901E+03  0.40722441853E+03  0.00000000000E+00 0.  1.
          3    1    3    3  501    0 -0.13861424898E+02  0.80357461152E+01 -0.17608292111E+03  0.17681037137E+03  0.00000000000E+00 0.  1.
         -1    1    1    2    0  502  0.44714689411E+02 -0.21969881636E+02 -0.41554581337E+03  0.41852168661E+03  0.00000000000E+00 0. -1.
<mgrwt>
<rscale>  1 0.30000000E+03</rscale>
<asrwt>0</asrwt>
<pdfrwt beam="1">  1       21 0.92962978E-02 0.30000000E+03</pdfrwt>
<pdfrwt beam="2">0</pdfrwt>
<totfact> 0.97984224E+03</totfact>
</mgrwt>
</event>
<event>
 6    1  0.6513574E-002  0.3000000E+03  0.7818608E-02  0.1093470E+00
         21   -1    0    0  501  502  0.00000000000E+00  0.00000000000E+00  0.66974107667E+01  0.66974107667E+01  0.00000000000E+00 0. -1.
         13   -1    0    0    0    0 -0.00000000000E+00 -0.00000000000E+00 -0.10000000000E+04  0.10000000000E+04  0.00000000000E+00 0.  1.
    9000005    2    1    2  501    0  0.12420247558E+02 -0.80168078349E+02 -0.56142462866E+03  0.56726623736E+03  0.34909946081E+01 0.  0.
         13    1    3    3    0    0  0.40796670776E+01 -0.37663420300E+02 -0.26301259262E+03  0.26572692899E+03  0.00000000000E+00 0.  1.
          1    1    3    3  501    0  0.83405804803E+01 -0.42504658048E+02 -0.29841203604E+03  0.30153930837E+03  0.00000000000E+00 0.  1.
         -1    1    1    2    0  502 -0.12420247558E+02  0.80168078349E+02 -0.43187796057E+03  0.43943117341E+03  0.00000000000E+00 0. -1.
<mgrwt>
<rscale>  1 0.30000000E+03</rscale>
<asrwt>0</asrwt>
<pdfrwt beam="1">  1       21 0.24354272E-01 0.30000000E+03</pdfrwt>
<pdfrwt beam="2">0</pdfrwt>
<totfact> 0.16413912E+03</totfact>
</mgrwt>
</event>
<event>
 6    1  0.6513574E-002  0.3000000E+03  0.7818608E-02  0.1093470E+00
         21   -1    0    0  501  502  0.00000000000E+00  0.00000000000E+00  0.12916414687E+01  0.12916414687E+01  0.00000000000E+00 0. -1.
         13   -1    0    0    0    0 -0.00000000000E+00 -0.00000000000E+00 -0.10000000000E+04  0.10000000000E+04  0.00000000000E+00 0.  1.
    9000005    2    1    2  501    0  0.26872507201E+01  0.35090701186E+02 -0.59775010010E+03  0.59879182330E+03  0.28083533192E+01 0.  0.
         13    1    3    3    0    0  0.27084456136E+00  0.61158490083E+01 -0.12294014567E+03  0.12309247086E+03  0.00000000000E+00 0.  1.
          3    1    3    3  501    0  0.24164061587E+01  0.28974852177E+02 -0.47480995443E+03  0.47569935243E+03  0.00000000000E+00 0.  1.
         -1    1    1    2    0  502 -0.26872507201E+01 -0.35090701186E+02 -0.40095825843E+03  0.40249981817E+03  0.00000000000E+00 0. -1.
<mgrwt>
<rscale>  1 0.30000000E+03</rscale>
<asrwt>0</asrwt>
<pdfrwt beam="1">  1       21 0.46968880E-02 0.30000000E+03</pdfrwt>
<pdfrwt beam="2">0</pdfrwt>
<totfact> 0.32040395E+04</totfact>
</mgrwt>
</event>
<event>
 6    1  0.6513574E-002  0.3000000E+03  0.7818608E-02  0.1093470E+00
         21   -1    0    0  501  502  0.00000000000E+00  0.00000000000E+00  0.12617097320E+01  0.12617097320E+01  0.00000000000E+00 0. -1.
         13   -1    0    0    0    0 -0.00000000000E+00 -0.00000000000E+00 -0.10000000000E+04  0.10000000000E+04  0.00000000000E+00 0.  1.
    9000005    2    1    2  501    0  0.27768432982E+02 -0.20267396541E+02 -0.62168868908E+03  0.62264811385E+03  0.34632808865E+01 0.  0.
         13    1    3    3    0    0  0.23813081341E+02 -0.17988816796E+02 -0.51800364528E+03  0.51886263779E+03  0.00000000000E+00 0.  1.
          1    1    3    3  501    0  0.39553516412E+01 -0.22785797445E+01 -0.10368504380E+03  0.10378547606E+03  0.00000000000E+00 0.  1.
         -3    1    1    2    0  502 -0.27768432982E+02  0.20267396541E+02 -0.37704960119E+03  0.37861359588E+03  0.00000000000E+00 0. -1.
<mgrwt>
<rscale>  1 0.30000000E+03</rscale>
<asrwt>0</asrwt>
<pdfrwt beam="1">  1       21 0.45880451E-02 0.30000000E+03</pdfrwt>
<pdfrwt beam="2">0</pdfrwt>
<totfact> 0.33342868E+04</totfact>
</mgrwt>
</event>
<event>
 6    1  0.6513574E-002  0.3000000E+03  0.7818608E-02  0.1093470E+00
         21   -1    0    0  501  502  0.00000000000E+00  0.00000000000E+00  0.58984996270E+01  0.58984996270E+01  0.00000000000E+00 0. -1.
         13   -1    0    0    0    0 -0.00000000000E+00 -0.00000000000E+00 -0.10000000000E+04  0.10000000000E+04  0.00000000000E+00 0.  1.
    9000005    2    1    2  501    0  0.62379463225E+02 -0.43790763448E+02 -0.55751694803E+03  0.56271129342E+03  0.31660721949E+01 0.  0.
         13    1    3    3    0    0  0.16809034321E+02 -0.11685206798E+02 -0.13963943731E+03  0.14113206632E+03  0.00000000000E+00 0.  1.
          1    1    3    3  501    0  0.45570428903E+02 -0.32105556650E+02 -0.41787751072E+03  0.42157922710E+03  0.00000000000E+00 0.  1.
         -1    1    1    2    0  502 -0.62379463225E+02  0.43790763448E+02 -0.43658455234E+03  0.44318720620E+03  0.00000000000E+00 0. -1.
<mgrwt>
<rscale>  1 0.30000000E+03</rscale>
<asrwt>0</asrwt>
<pdfrwt beam="1">  1       21 0.21449135E-01 0.30000000E+03</pdfrwt>
<pdfrwt beam="2">0</pdfrwt>
<totfact> 0.20984644E+03</totfact>
</mgrwt>
</event>
<event>
 6    1  0.6513574E-002  0.3000000E+03  0.7818608E-02  0.1093470E+00
         21   -1    0    0  501  502  0.00000000000E+00  0.00000000000E+00  0.20960396097E+01  0.20960396097E+01  0.00000000000E+00 0. -1.
         13   -1    0    0    0    0 -0.00000000000E+00 -0.00000000000E+00 -0.10000000000E+04  0.10000000000E+04  0.00000000000E+00 0.  1.
    9000005    2    1    2  501    0  0.44936705200E+02  0.23019452282E+01 -0.58849918340E+03  0.59022606274E+03  0.33030056588E+01 0.  0.
         13    1    3    3    0    0  0.12266501343E+01 -0.52181446646E-01 -0.10455683160E+02  0.10527521256E+02  0.00000000000E+00 0.  1.
          1    1    3    3  501    0  0.43710055066E+02  0.23541266748E+01 -0.57804350024E+03  0.57969854148E+03  0.00000000000E+00 0.  1.
         -1    1    1    2    0  502 -0.44936705200E+02 -0.23019452282E+01 -0.40940477699E+03  0.41186997687E+03  0.00000000000E+00 0. -1.
<mgrwt>
<rscale>  1 0.30000000E+03</rscale>
<asrwt>0</asrwt>
<pdfrwt beam="1">  1       21 0.76219783E-02 0.30000000E+03</pdfrwt>
<pdfrwt beam="2">0</pdfrwt>
<totfact> 0.13905925E+04</totfact>
</mgrwt>
</event>
<event>
 6    1  0.6513574E-002  0.3000000E+03  0.7818608E-02  0.1093470E+00
         21   -1    0    0  501  502  0.00000000000E+00  0.00000000000E+00  0.96577377944E+00  0.96577377944E+00  0.00000000000E+00 0. -1.
         13   -1    0    0    0    0 -0.00000000000E+00 -0.00000000000E+00 -0.10000000000E+04  0.10000000000E+04  0.00000000000E+00 0.  1.
    9000005    2    1    2  501    0  0.61610739487E+01 -0.30138283437E+02 -0.56195402207E+03  0.56280441102E+03  0.31948669229E+01 0.  0.
         13    1    3    3    0    0  0.23640384979E+01 -0.17366309511E+02 -0.33860813516E+03  0.33906142007E+03  0.00000000000E+00 0.  1.
          3    1    3    3  501    0  0.37970354508E+01 -0.12771973926E+02 -0.22334588692E+03  0.22374299095E+03  0.00000000000E+00 0.  1.
         -3    1    1    2    0  502 -0.61610739487E+01  0.30138283437E+02 -0.43708020415E+03  0.43816136276E+03  0.00000000000E+00 0. -1.
<mgrwt>
<rscale>  1 0.30000000E+03</rscale>
<asrwt>0</asrwt>
<pdfrwt beam="1">  1       21 0.35119121E-02 0.30000000E+03</pdfrwt>
<pdfrwt beam="2">0</pdfrwt>
<totfact> 0.52318268E+04</totfact>
</mgrwt>
</event>
<event>
 6    1  0.6513574E-002  0.3000000E+03  0.7818608E-02  0.1093470E+00
         21   -1    0    0  501  502  0.00000000000E+00  0.00000000000E+00  0.14681995194E+01  0.14681995194E+01  0.00000000000E+00 0. -1.
         13   -1    0    0    0    0 -0.00000000000E+00 -0.00000000000E+00 -0.10000000000E+04  0.10000000000E+04  0.00000000000E+00 0.  1.
    9000005    2    1    2  501    0 -0.18668764566E+02 -0.29372483004E+02 -0.70566549264E+03  0.70654119195E+03  0.50401274734E+01 0.  0.
         13    1    3    3    0    0 -0.12621021058E+02 -0.23735762927E+02 -0.53037261439E+03  0.53105346879E+03  0.00000000000E+00 0.  1.
          1    1    3    3  501    0 -0.60477435079E+01 -0.56367200769E+01 -0.17529287825E+03  0.17548772316E+03  0.00000000000E+00 0.  1.
         -1    1    1    2    0  502  0.18668764566E+02  0.29372483004E+02 -0.29286630784E+03  0.29492700757E+03  0.00000000000E+00 0. -1.
<mgrwt>
<rscale>  1 0.30000000E+03</rscale>
<asrwt>0</asrwt>
<pdfrwt beam="1">  1       21 0.53389186E-02 0.30000000E+03</pdfrwt>
<pdfrwt beam="2">0</pdfrwt>
<totfact> 0.25752516E+04</totfact>
</mgrwt>
</event>
<event>
 6    1  0.6513574E-002  0.3000000E+03  0.7818608E-02  0.1093470E+00
         21   -1    0    0  501  502  0.00000000000E+00  0.00000000000E+00  0.31635334299E+01  0.31635334299E+01  0.00000000000E+00 0. -1.
         13   -1    0    0    0    0 -0.00000000000E+00 -0.00000000000E+00 -0.10000000000E+04  0.10000000000E+04  0.00000000000E+00 0.  1.
    9000005    2    1    2  501    0 -0.49486195676E+02 -0.71825534592E+01 -0.27023543138E+03  0.27484386668E+03  0.33896963390E+01 0.  0.
         13    1    3    3    0    0 -0.12647044626E+02 -0.20495626390E+01 -0.77567335092E+02  0.78618317954E+02  0.00000000000E+00 0.  1.
          3    1    3    3  501    0 -0.36839151050E+02 -0.51329908202E+01 -0.19266809629E+03  0.19622554873E+03  0.00000000000E+00 0.  1.
         -3    1    1    2    0  502  0.49486195676E+02  0.71825534592E+01 -0.72660103519E+03  0.72831966675E+03  0.00000000000E+00 0. -1.
<mgrwt>
<rscale>  1 0.30000000E+03</rscale>
<asrwt>0</asrwt>
<pdfrwt beam="1">  1       21 0.11503782E-01 0.30000000E+03</pdfrwt>
<pdfrwt beam="2">0</pdfrwt>
<totfact> 0.66895784E+03</totfact>
</mgrwt>
</event>
<event>
 6    1  0.6513574E-002  0.3000000E+03  0.7818608E-02  0.1093470E+00
         21   -1    0    0  501  502  0.00000000000E+00  0.00000000000E+00  0.21389038601E+01  0.21389038601E+01  0.00000000000E+00 0. -1.
         13   -1    0    0    0    0 -0.00000000000E+00 -0.00000000000E+00 -0.10000000000E+04  0.10000000000E+04  0.00000000000E+00 0.  1.
    9000005    2    1    2  501    0 -0.38058218271E+02  0.70006845292E+01 -0.77043774420E+03  0.77144686115E+03  0.76488123053E+01 0.  0.
         13    1    3    3    0    0 -0.36742727159E+02  0.75106102880E+01 -0.75840827117E+03  0.75933493469E+03  0.00000000000E+00 0.  1.
          3    1    3    3  501    0 -0.13154911112E+01 -0.50992575877E+00 -0.12029473032E+02  0.12111926460E+02  0.00000000000E+00 0.  1.
         -1    1    1    2    0  502  0.38058218271E+02 -0.70006845292E+01 -0.22742335194E+03  0.23069204271E+03  0.00000000000E+00 0. -1.
<mgrwt>
<rscale>  1 0.30000000E+03</rscale>
<asrwt>0</asrwt>
<pdfrwt beam="1">  1       21 0.77778486E-02 0.30000000E+03</pdfrwt>
<pdfrwt beam="2">0</pdfrwt>
<totfact> 0.13421106E+04</totfact>
</mgrwt>
</event>
<event>
 6    1  0.6513574E-002  0.3000000E+03  0.7818608E-02  0.1093470E+00
         21   -1    0    0  501  502  0.00000000000E+00  0.00000000000E+00  0.11629952937E+01  0.11629952937E+01  0.00000000000E+00 0. -1.
         13   -1    0    0    0    0 -0.00000000000E+00 -0.00000000000E+00 -0.10000000000E+04  0.10000000000E+04  0.00000000000E+00 0.  1.
    9000005    2    1    2  501    0 -0.32710368803E+02 -0.93186781165E+01 -0.50514395239E+03  0.50629974560E+03  0.34948208031E+01 0.  0.
         13    1    3    3    0    0 -0.31589985960E+02 -0.82658833844E+01 -0.48237671893E+03  0.48348066249E+03  0.00000000000E+00 0.  1.
          1    1    3    3  501    0 -0.11203828433E+01 -0.10527947322E+01 -0.22767233464E+02  0.22819083112E+02  0.00000000000E+00 0.  1.
         -1    1    1    2    0  502  0.32710368803E+02  0.93186781165E+01 -0.49369305232E+03  0.49486324969E+03  0.00000000000E+00 0. -1.
<mgrwt>
<rscale>  1 0.30000000E+03</rscale>
<asrwt>0</asrwt>
<pdfrwt beam="1">  1       21 0.42290827E-02 0.30000000E+03</pdfrwt>
<pdfrwt beam="2">0</pdfrwt>
<totfact> 0.38277717E+04</totfact>
</mgrwt>
</event>
<event>
 6    1  0.6513574E-002  0.3000000E+03  0.7818608E-02  0.1093470E+00
         21   -1    0    0  501  502  0.00000000000E+00  0.00000000000E+00  0.15609046808E+01  0.15609046808E+01  0.00000000000E+00 0. -1.
         13   -1    0    0    0    0 -0.00000000000E+00 -0.00000000000E+00 -0.10000000000E+04  0.10000000000E+04  0.00000000000E+00 0.  1.
    9000005    2    1    2  501    0  0.39577061142E+01  0.38143798818E+02 -0.61699716547E+03  0.61819611929E+03  0.32135477148E+01 0.  0.
         13    1    3    3    0    0  0.11598364225E+01  0.20738480570E+02 -0.35389541146E+03  0.35450443163E+03  0.00000000000E+00 0.  1.
          1    1    3    3  501    0  0.27978696917E+01  0.17405318248E+02 -0.26310175401E+03  0.26369168766E+03  0.00000000000E+00 0.  1.
         -1    1    1    2    0  502 -0.39577061142E+01 -0.38143798818E+02 -0.38144192985E+03  0.38336478539E+03  0.00000000000E+00 0. -1.
<mgrwt>
<rscale>  1 0.30000000E+03</rscale>
<asrwt>0</asrwt>
<pdfrwt beam="1">  1       21 0.56760290E-02 0.30000000E+03</pdfrwt>
<pdfrwt beam="2">0</pdfrwt>
<totfact> 0.23185641E+04</totfact>
</mgrwt>
</event>
<event>
 6    1  0.6513574E-002  0.3000000E+03  0.7818608E-02  0.1093470E+00
         21   -1    0    0  501  502  0.00000000000E+00  0.00000000000E+00  0.14531712069E+01  0.14531712069E+01  0.00000000000E+00 0. -1.
         13   -1    0    0    0    0 -0.00000000000E+00 -0.00000000000E+00 -0.10000000000E+04  0.10000000000E+04  0.00000000000E+00 0.  1.
    9000005    2    1    2  501    0 -0.12906975902E+02 -0.34365357296E+02 -0.62987473470E+03  0.63095798801E+03  0.42700598890E+01 0.  0.
         13    1    3    3    0    0 -0.73688441095E+01 -0.13629262724E+02 -0.26469872185E+03  0.26515178675E+03  0.00000000000E+00 0.  1.
          1    1    3    3  501    0 -0.55381317926E+01 -0.20736094572E+02 -0.36517601284E+03  0.36580620126E+03  0.00000000000E+00 0.  1.
         -3    1    1    2    0  502  0.12906975902E+02  0.34365357296E+02 -0.36867209410E+03  0.37049518320E+03  0.00000000000E+00 0. -1.
<mgrwt>
<rscale>  1 0.30000000E+03</rscale>
<asrwt>0</asrwt>
<pdfrwt beam="1">  1       21 0.52842701E-02 0.30000000E+03</pdfrwt>
<pdfrwt beam="2">0</pdfrwt>
<totfact> 0.26209754E+04</totfact>
</mgrwt>
</event>
<event>
 6    1  0.6513574E-002  0.3000000E+03  0.7818608E-02  0.1093470E+00
         21   -1    0    0  501  502  0.00000000000E+00  0.00000000000E+00  0.99045064896E+00  0.99045064896E+00  0.00000000000E+00 0. -1.
         13   -1    0    0    0    0 -0.00000000000E+00 -0.00000000000E+00 -0.10000000000E+04  0.10000000000E+04  0.00000000000E+00 0.  1.
    9000005    2    1    2  501    0  0.38211965758E+01 -0.31063307063E+02 -0.53024332056E+03  0.53118058714E+03  0.39123617126E+01 0.  0.
         13    1    3    3    0    0  0.51317634812E+00 -0.17251865444E+02 -0.30950908757E+03  0.30998994419E+03  0.00000000000E+00 0.  1.
          1    1    3    3  501    0  0.33080202277E+01 -0.13811441619E+02 -0.22073423299E+03  0.22119064295E+03  0.00000000000E+00 0.  1.
         -3    1    1    2    0  502 -0.38211965758E+01  0.31063307063E+02 -0.46876622880E+03  0.46980986351E+03  0.00000000000E+00 0. -1.
<mgrwt>
<rscale>  1 0.30000000E+03</rscale>
<asrwt>0</asrwt>
<pdfrwt beam="1">  1       21 0.36016463E-02 0.30000000E+03</pdfrwt>
<pdfrwt beam="2">0</pdfrwt>
<totfact> 0.50151844E+04</totfact>
</mgrwt>
</event>
<event>
 6    1  0.6513574E-002  0.3000000E+03  0.7818608E-02  0.1093470E+00
         21   -1    0    0  501  502  0.00000000000E+00  0.00000000000E+00  0.14530228332E+01  0.14530228332E+01  0.00000000000E+00 0. -1.
         13   -1    0    0    0    0 -0.00000000000E+00 -0.00000000000E+00 -0.10000000000E+04  0.10000000000E+04  0.00000000000E+00 0.  1.
    9000005    2    1    2  501    0  0.17781577151E+02 -0.30675831199E+02 -0.68218088335E+03  0.68310620500E+03  0.24776197266E+01 0.  0.
         13    1    3    3    0    0  0.44606507538E+00 -0.18748031604E+01 -0.36214180002E+02  0.36265420088E+02  0.00000000000E+00 0.  1.
          3    1    3    3  501    0  0.17335512076E+02 -0.28801028039E+02 -0.64596670335E+03  0.64684078492E+03  0.00000000000E+00 0.  1.
         -1    1    1    2    0  502 -0.17781577151E+02  0.30675831199E+02 -0.31636609382E+03  0.31834681783E+03  0.00000000000E+00 0. -1.
<mgrwt>
<rscale>  1 0.30000000E+03</rscale>
<asrwt>0</asrwt>
<pdfrwt beam="1">  1       21 0.52837305E-02 0.30000000E+03</pdfrwt>
<pdfrwt beam="2">0</pdfrwt>
<totfact> 0.26214331E+04</totfact>
</mgrwt>
</event>
<event>
 6    1  0.6513574E-002  0.3000000E+03  0.7818608E-02  0.1093470E+00
         21   -1    0    0  501  502  0.00000000000E+00  0.00000000000E+00  0.18379583794E+01  0.18379583794E+01  0.00000000000E+00 0. -1.
         13   -1    0    0    0    0 -0.00000000000E+00 -0.00000000000E+00 -0.10000000000E+04  0.10000000000E+04  0.00000000000E+00 0.  1.
    9000005    2    1    2  501    0  0.31653051516E+02 -0.28279975852E+02 -0.43541619494E+03  0.43749359484E+03  0.34219883023E+01 0.  0.
         13    1    3    3    0    0  0.24015814462E+02 -0.23106108475E+02 -0.34789054586E+03  0.34948316625E+03  0.00000000000E+00 0.  1.
          1    1    3    3  501    0  0.76372370549E+01 -0.51738673761E+01 -0.87525649086E+02  0.88010428594E+02  0.00000000000E+00 0.  1.
         -1    1    1    2    0  502 -0.31653051516E+02  0.28279975852E+02 -0.56274584668E+03  0.56434436354E+03  0.00000000000E+00 0. -1.
<mgrwt>
<rscale>  1 0.30000000E+03</rscale>
<asrwt>0</asrwt>
<pdfrwt beam="1">  1       21 0.66834991E-02 0.30000000E+03</pdfrwt>
<pdfrwt beam="2">0</pdfrwt>
<totfact> 0.17485811E+04</totfact>
</mgrwt>
</event>
<event>
 6    1  0.6513574E-002  0.3000000E+03  0.7818608E-02  0.1093470E+00
         21   -1    0    0  501  502  0.00000000000E+00  0.00000000000E+00  0.16210397781E+01  0.16210397781E+01  0.00000000000E+00 0. -1.
         13   -1    0    0    0    0 -0.00000000000E+00 -0.00000000000E+00 -0.10000000000E+04  0.10000000000E+04  0.00000000000E+00 0.  1.
    9000005    2    1    2  501    0  0.11819056135E+02  0.31318287485E+02 -0.77728688237E+03  0.77800925094E+03  0.17238976712E+01 0.  0.
         13    1    3    3    0    0  0.10912570619E+02  0.27371738040E+02 -0.68638440336E+03  0.68701662674E+03  0.00000000000E+00 0.  1.
          3    1    3    3  501    0  0.90648551643E+00  0.39465494452E+01 -0.90902479007E+02  0.90992624196E+02  0.00000000000E+00 0.  1.
         -1    1    1    2    0  502 -0.11819056135E+02 -0.31318287485E+02 -0.22109207786E+03  0.22361178884E+03  0.00000000000E+00 0. -1.
<mgrwt>
<rscale>  1 0.30000000E+03</rscale>
<asrwt>0</asrwt>
<pdfrwt beam="1">  1       21 0.58947025E-02 0.30000000E+03</pdfrwt>
<pdfrwt beam="2">0</pdfrwt>
<totfact> 0.21724798E+04</totfact>
</mgrwt>
</event>
<event>
 6    1  0.6513574E-002  0.3000000E+03  0.7818608E-02  0.1093470E+00
         21   -1    0    0  501  502  0.00000000000E+00  0.00000000000E+00  0.21560483357E+01  0.21560483357E+01  0.00000000000E+00 0. -1.
         13   -1    0    0    0    0 -0.00000000000E+00 -0.00000000000E+00 -0.10000000000E+04  0.10000000000E+04  0.00000000000E+00 0.  1.
    9000005    2    1    2  501    0  0.12373645176E+02  0.41684219743E+02 -0.67195743471E+03  0.67338150065E+03  0.50169802673E+01 0.  0.
         13    1    3    3    0    0  0.13082447704E+00  0.18366389188E+01 -0.46505351721E+02  0.46541788709E+02  0.00000000000E+00 0.  1.
          1    1    3    3  501    0  0.12242820699E+02  0.39847580824E+02 -0.62545208299E+03  0.62683971194E+03  0.00000000000E+00 0.  1.
         -3    1    1    2    0  502 -0.12373645176E+02 -0.41684219743E+02 -0.32588651696E+03  0.32877454768E+03  0.00000000000E+00 0. -1.
<mgrwt>
<rscale>  1 0.30000000E+03</rscale>
<asrwt>0</asrwt>
<pdfrwt beam="1">  1       21 0.78401923E-02 0.30000000E+03</pdfrwt>
<pdfrwt beam="2">0</pdfrwt>
<totfact> 0.13234459E+04</totfact>
</mgrwt>
</event>
<event>
 6    1  0.6513574E-002  0.3000000E+03  0.7818608E-02  0.1093470E+00
         21   -1    0    0  501  502  0.00000000000E+00  0.00000000000E+00  0.11962016562E+01  0.11962016562E+01  0.00000000000E+00 0. -1.
         13   -1    0    0    0    0 -0.00000000000E+00 -0.00000000000E+00 -0.10000000000E+04  0.10000000000E+04  0.00000000000E+00 0.  1.
    9000005    2    1    2  501    0  0.31226765882E+02  0.75556998125E+01 -0.31806449304E+03  0.31969917210E+03  0.32154940814E+01 0.  0.
         13    1    3    3    0    0  0.96223555654E+01  0.30496692308E+01 -0.11332692814E+03  0.11377558108E+03  0.00000000000E+00 0.  1.
          3    1    3    3  501    0  0.21604410316E+02  0.45060305818E+01 -0.20473756490E+03  0.20592359102E+03  0.00000000000E+00 0.  1.
         -1    1    1    2    0  502 -0.31226765882E+02 -0.75556998125E+01 -0.68073930530E+03  0.68149702955E+03  0.00000000000E+00 0. -1.
<mgrwt>
<rscale>  1 0.30000000E+03</rscale>
<asrwt>0</asrwt>
<pdfrwt beam="1">  1       21 0.43498334E-02 0.30000000E+03</pdfrwt>
<pdfrwt beam="2">0</pdfrwt>
<totfact> 0.36498240E+04</totfact>
</mgrwt>
</event>
<event>
 6    1  0.6513574E-002  0.3000000E+03  0.7818608E-02  0.1093470E+00
         21   -1    0    0  501  502  0.00000000000E+00  0.00000000000E+00  0.22300464974E+01  0.22300464974E+01  0.00000000000E+00 0. -1.
         13   -1    0    0    0    0 -0.00000000000E+00 -0.00000000000E+00 -0.10000000000E+04  0.10000000000E+04  0.00000000000E+00 0.  1.
    9000005    2    1    2  501    0  0.15540395726E+02  0.41363347657E+02 -0.67438028120E+03  0.67583563696E+03  0.35516302957E+01 0.  0.
         13    1    3    3    0    0  0.32163077686E+01  0.12408451092E+02 -0.18215684149E+03  0.18260730871E+03  0.00000000000E+00 0.  1.
          1    1    3    3  501    0  0.12324087958E+02  0.28954896565E+02 -0.49222343971E+03  0.49322832824E+03  0.00000000000E+00 0.  1.
         -1    1    1    2    0  502 -0.15540395726E+02 -0.41363347657E+02 -0.32338967230E+03  0.32639440954E+03  0.00000000000E+00 0. -1.
<mgrwt>
<rscale>  1 0.30000000E+03</rscale>
<asrwt>0</asrwt>
<pdfrwt beam="1">  1       21 0.81092771E-02 0.30000000E+03</pdfrwt>
<pdfrwt beam="2">0</pdfrwt>
<totfact> 0.12472946E+04</totfact>
</mgrwt>
</event>
<event>
 6    1  0.6513574E-002  0.3000000E+03  0.7818608E-02  0.1093470E+00
         21   -1    0    0  501  502  0.00000000000E+00  0.00000000000E+00  0.22088776410E+01  0.22088776410E+01  0.00000000000E+00 0. -1.
         13   -1    0    0    0    0 -0.00000000000E+00 -0.00000000000E+00 -0.10000000000E+04  0.10000000000E+04  0.00000000000E+00 0.  1.
    9000005    2    1    2  501    0 -0.16067054444E+02  0.39235795879E+02 -0.71422105964E+03  0.71548675016E+03  0.34597261025E+01 0.  0.
         13    1    3    3    0    0 -0.94595000400E+01  0.25921875546E+02 -0.48492034598E+03  0.48570481542E+03  0.00000000000E+00 0.  1.
          3    1    3    3  501    0 -0.66075544035E+01  0.13313920332E+02 -0.22930071366E+03  0.22978193474E+03  0.00000000000E+00 0.  1.
         -1    1    1    2    0  502  0.16067054444E+02 -0.39235795879E+02 -0.28357006272E+03  0.28672212748E+03  0.00000000000E+00 0. -1.
<mgrwt>
<rscale>  1 0.30000000E+03</rscale>
<asrwt>0</asrwt>
<pdfrwt beam="1">  1       21 0.80322993E-02 0.30000000E+03</pdfrwt>
<pdfrwt beam="2">0</pdfrwt>
<totfact> 0.12683773E+04</totfact>
</mgrwt>
</event>
<event>
 6    1  0.6513574E-002  0.3000000E+03  0.7818608E-02  0.1093470E+00
         21   -1    0    0  501  502  0.00000000000E+00  0.00000000000E+00  0.22529115825E+01  0.22529115825E+01  0.00000000000E+00 0. -1.
         13   -1    0    0    0    0 -0.00000000000E+00 -0.00000000000E+00 -0.10000000000E+04  0.10000000000E+04  0.00000000000E+00 0.  1.
    9000005    2    1    2  501    0 -0.44133391383E+02  0.13704458072E+02 -0.61027193282E+03  0.61203173762E+03  0.39303252084E+01 0.  0.
         13    1    3    3    0    0 -0.28217384034E+02  0.89997485000E+01 -0.41520900528E+03  0.41626401995E+03  0.00000000000E+00 0.  1.
          1    1    3    3  501    0 -0.15916007349E+02  0.47047095719E+01 -0.19506292754E+03  0.19576771767E+03  0.00000000000E+00 0.  1.
         -3    1    1    2    0  502  0.44133391383E+02 -0.13704458072E+02 -0.38747515559E+03  0.39022117396E+03  0.00000000000E+00 0. -1.
<mgrwt>
<rscale>  1 0.30000000E+03</rscale>
<asrwt>0</asrwt>
<pdfrwt beam="1">  1       21 0.81924230E-02 0.30000000E+03</pdfrwt>
<pdfrwt beam="2">0</pdfrwt>
<totfact> 0.12251208E+04</totfact>
</mgrwt>
</event>
<event>
 6    1  0.6513574E-002  0.3000000E+03  0.7818608E-02  0.1093470E+00
         21   -1    0    0  501  502  0.00000000000E+00  0.00000000000E+00  0.17467398261E+01  0.17467398261E+01  0.00000000000E+00 0. -1.
         13   -1    0    0    0    0 -0.00000000000E+00 -0.00000000000E+00 -0.10000000000E+04  0.10000000000E+04  0.00000000000E+00 0.  1.
    9000005    2    1    2  501    0  0.22063009037E+02  0.34905592171E+02 -0.43161650234E+03  0.43360732730E+03  0.41632279374E+01 0.  0.
         13    1    3    3    0    0  0.10414735635E+02  0.13789645834E+02 -0.19569009474E+03  0.19645160786E+03  0.00000000000E+00 0.  1.
          1    1    3    3  501    0  0.11648273402E+02  0.21115946337E+02 -0.23592640760E+03  0.23715571945E+03  0.00000000000E+00 0.  1.
         -1    1    1    2    0  502 -0.22063009037E+02 -0.34905592171E+02 -0.56663675783E+03  0.56813941252E+03  0.00000000000E+00 0. -1.
<mgrwt>
<rscale>  1 0.30000000E+03</rscale>
<asrwt>0</asrwt>
<pdfrwt beam="1">  1       21 0.63517946E-02 0.30000000E+03</pdfrwt>
<pdfrwt beam="2">0</pdfrwt>
<totfact> 0.19097169E+04</totfact>
</mgrwt>
</event>
<event>
 6    1  0.6513574E-002  0.3000000E+03  0.7818608E-02  0.1093470E+00
         21   -1    0    0  501  502  0.00000000000E+00  0.00000000000E+00  0.92311201834E+00  0.92311201834E+00  0.00000000000E+00 0. -1.
         13   -1    0    0    0    0 -0.00000000000E+00 -0.00000000000E+00 -0.10000000000E+04  0.10000000000E+04  0.00000000000E+00 0.  1.
    9000005    2    1    2  501    0  0.29876509625E+02  0.49611957665E+01 -0.51299513210E+03  0.51389878748E+03  0.32770298430E+01 0.  0.
         13    1    3    3    0    0  0.21571906515E+02  0.46420387648E+01 -0.38920067014E+03  0.38982567555E+03  0.00000000000E+00 0.  1.
          3    1    3    3  501    0  0.83046031097E+01  0.31915700166E+00 -0.12379446195E+03  0.12407311193E+03  0.00000000000E+00 0.  1.
         -1    1    1    2    0  502 -0.29876509625E+02 -0.49611957665E+01 -0.48608175588E+03  0.48702432454E+03  0.00000000000E+00 0. -1.
<mgrwt>
<rscale>  1 0.30000000E+03</rscale>
<asrwt>0</asrwt>
<pdfrwt beam="1">  1       21 0.33567781E-02 0.30000000E+03</pdfrwt>
<pdfrwt beam="2">0</pdfrwt>
<totfact> 0.56424070E+04</totfact>
</mgrwt>
</event>
<event>
 6    1  0.6513574E-002  0.3000000E+03  0.7818608E-02  0.1093470E+00
         21   -1    0    0  501  502  0.00000000000E+00  0.00000000000E+00  0.17128457122E+01  0.17128457122E+01  0.00000000000E+00 0. -1.
         13   -1    0    0    0    0 -0.00000000000E+00 -0.00000000000E+00 -0.10000000000E+04  0.10000000000E+04  0.00000000000E+00 0.  1.
    9000005    2    1    2  501    0 -0.65159943467E+01 -0.33476669743E+02 -0.22107389547E+03  0.22375166719E+03  0.52910976531E+01 0.  0.
         13    1    3    3    0    0 -0.45822490870E+01 -0.31011347348E+02 -0.20357709230E+03  0.20597653551E+03  0.00000000000E+00 0.  1.
          1    1    3    3  501    0 -0.19337452597E+01 -0.24653223946E+01 -0.17496803167E+02  0.17775131682E+02  0.00000000000E+00 0.  1.
         -1    1    1    2    0  502  0.65159943467E+01  0.33476669743E+02 -0.77721325882E+03  0.77796117852E+03  0.00000000000E+00 0. -1.
<mgrwt>
<rscale>  1 0.30000000E+03</rscale>
<asrwt>0</asrwt>
<pdfrwt beam="1">  1       21 0.62285430E-02 0.30000000E+03</pdfrwt>
<pdfrwt beam="2">0</pdfrwt>
<totfact> 0.19754989E+04</totfact>
</mgrwt>
</event>
<event>
 6    1  0.6513574E-002  0.3000000E+03  0.7818608E-02  0.1093470E+00
         21   -1    0    0  501  502  0.00000000000E+00  0.00000000000E+00  0.72996071580E+01  0.72996071580E+01  0.00000000000E+00 0. -1.
         13   -1    0    0    0    0 -0.00000000000E+00 -0.00000000000E+00 -0.10000000000E+04  0.10000000000E+04  0.00000000000E+00 0.  1.
    9000005    2    1    2  501    0 -0.62288356106E+02  0.50865204970E+02 -0.32866866014E+03  0.33841602206E+03  0.59335860288E+01 0.  0.
         13    1    3    3    0    0 -0.32098472819E+02  0.29422549532E+02 -0.17088253789E+03  0.17634296168E+03  0.00000000000E+00 0.  1.
          3    1    3    3  501    0 -0.30189883287E+02  0.21442655438E+02 -0.15778612225E+03  0.16207306038E+03  0.00000000000E+00 0.  1.
         -3    1    1    2    0  502  0.62288356106E+02 -0.50865204970E+02 -0.66403173270E+03  0.66888358510E+03  0.00000000000E+00 0. -1.
<mgrwt>
<rscale>  1 0.30000000E+03</rscale>
<asrwt>0</asrwt>
<pdfrwt beam="1">  1       21 0.26544082E-01 0.30000000E+03</pdfrwt>
<pdfrwt beam="2">0</pdfrwt>
<totfact> 0.13862919E+03</totfact>
</mgrwt>
</event>
<event>
 6    1  0.6513574E-002  0.3000000E+03  0.7818608E-02  0.1093470E+00
         21   -1    0    0  501  502  0.00000000000E+00  0.00000000000E+00  0.18005988771E+01  0.18005988771E+01  0.00000000000E+00 0. -1.
         13   -1    0    0    0    0 -0.00000000000E+00 -0.00000000000E+00 -0.10000000000E+04  0.10000000000E+04  0.00000000000E+00 0.  1.
    9000005    2    1    2  501    0  0.22737430519E+02 -0.30896791286E+02 -0.71219949987E+03  0.71323943383E+03  0.32802275152E+01 0.  0.
         13    1    3    3    0    0  0.11711796299E+02 -0.14258257271E+02 -0.36649045783E+03  0.36695465626E+03  0.00000000000E+00 0.  1.
          1    1    3    3  501    0  0.11025634219E+02 -0.16638534015E+02 -0.34570904204E+03  0.34628477756E+03  0.00000000000E+00 0.  1.
         -1    1    1    2    0  502 -0.22737430519E+02  0.30896791286E+02 -0.28599990125E+03  0.28856116505E+03  0.00000000000E+00 0. -1.
<mgrwt>
<rscale>  1 0.30000000E+03</rscale>
<asrwt>0</asrwt>
<pdfrwt beam="1">  1       21 0.65476461E-02 0.30000000E+03</pdfrwt>
<pdfrwt beam="2">0</pdfrwt>
<totfact> 0.18119418E+04</totfact>
</mgrwt>
</event>
<event>
 6    1  0.6513574E-002  0.3000000E+03  0.7818608E-02  0.1093470E+00
         21   -1    0    0  501  502  0.00000000000E+00  0.00000000000E+00  0.11902626558E+01  0.11902626558E+01  0.00000000000E+00 0. -1.
         13   -1    0    0    0    0 -0.00000000000E+00 -0.00000000000E+00 -0.10000000000E+04  0.10000000000E+04  0.00000000000E+00 0.  1.
    9000005    2    1    2  501    0  0.32515500787E+02 -0.95249066689E+01 -0.41258822197E+03  0.41399042723E+03  0.33243480431E+01 0.  0.
         13    1    3    3    0    0  0.40212577034E+01 -0.23023638775E+01 -0.60603669958E+02  0.60780557791E+02  0.00000000000E+00 0.  1.
          1    1    3    3  501    0  0.28494243083E+02 -0.72225427913E+01 -0.35198455201E+03  0.35320986943E+03  0.00000000000E+00 0.  1.
         -1    1    1    2    0  502 -0.32515500787E+02  0.95249066689E+01 -0.58622151538E+03  0.58719983543E+03  0.00000000000E+00 0. -1.
<mgrwt>
<rscale>  1 0.30000000E+03</rscale>
<asrwt>0</asrwt>
<pdfrwt beam="1">  1       21 0.43282370E-02 0.30000000E+03</pdfrwt>
<pdfrwt beam="2">0</pdfrwt>
<totfact> 0.36806956E+04</totfact>
</mgrwt>
</event>
<event>
 6    1  0.6513574E-002  0.3000000E+03  0.7818608E-02  0.1093470E+00
         21   -1    0    0  501  502  0.00000000000E+00  0.00000000000E+00  0.10746485938E+01  0.10746485938E+01  0.00000000000E+00 0. -1.
         13   -1    0    0    0    0 -0.00000000000E+00 -0.00000000000E+00 -0.10000000000E+04  0.10000000000E+04  0.00000000000E+00 0.  1.
    9000005    2    1    2  501    0 -0.20416225971E+02  0.23658130008E+02 -0.64804192107E+03  0.64880243697E+03  0.31211143700E+01 0.  0.
         13    1    3    3    0    0 -0.14787616985E+02  0.15257652777E+02 -0.45503616163E+03  0.45553197250E+03  0.00000000000E+00 0.  1.
          1    1    3    3  501    0 -0.56286089859E+01  0.84004772303E+01 -0.19300575944E+03  0.19327046446E+03  0.00000000000E+00 0.  1.
         -1    1    1    2    0  502  0.20416225971E+02 -0.23658130008E+02 -0.35088343034E+03  0.35227221163E+03  0.00000000000E+00 0. -1.
<mgrwt>
<rscale>  1 0.30000000E+03</rscale>
<asrwt>0</asrwt>
<pdfrwt beam="1">  1       21 0.39078213E-02 0.30000000E+03</pdfrwt>
<pdfrwt beam="2">0</pdfrwt>
<totfact> 0.43730051E+04</totfact>
</mgrwt>
</event>
<event>
 6    1  0.6513574E-002  0.3000000E+03  0.7818608E-02  0.1093470E+00
         21   -1    0    0  501  502  0.00000000000E+00  0.00000000000E+00  0.17051379884E+01  0.17051379884E+01  0.00000000000E+00 0. -1.
         13   -1    0    0    0    0 -0.00000000000E+00 -0.00000000000E+00 -0.10000000000E+04  0.10000000000E+04  0.00000000000E+00 0.  1.
    9000005    2    1    2  501    0  0.36798453981E+02  0.17700897115E+02 -0.56998144437E+03  0.57144959566E+03  0.28888540562E+01 0.  0.
         13    1    3    3    0    0  0.34966940600E+02  0.17470610482E+02 -0.54543738292E+03  0.54683621666E+03  0.00000000000E+00 0.  1.
          1    1    3    3  501    0  0.18315133809E+01  0.23028663371E+00 -0.24544061450E+02  0.24613378997E+02  0.00000000000E+00 0.  1.
         -3    1    1    2    0  502 -0.36798453981E+02 -0.17700897115E+02 -0.42831341764E+03  0.43025554233E+03  0.00000000000E+00 0. -1.
<mgrwt>
<rscale>  1 0.30000000E+03</rscale>
<asrwt>0</asrwt>
<pdfrwt beam="1">  1       21 0.62005149E-02 0.30000000E+03</pdfrwt>
<pdfrwt beam="2">0</pdfrwt>
<totfact> 0.19909485E+04</totfact>
</mgrwt>
</event>
<event>
 6    1  0.6513574E-002  0.3000000E+03  0.7818608E-02  0.1093470E+00
         21   -1    0    0  501  502  0.00000000000E+00  0.00000000000E+00  0.10497997195E+01  0.10497997195E+01  0.00000000000E+00 0. -1.
         13   -1    0    0    0    0 -0.00000000000E+00 -0.00000000000E+00 -0.10000000000E+04  0.10000000000E+04  0.00000000000E+00 0.  1.
    9000005    2    1    2  501    0 -0.22056353895E+02  0.20508609217E+02 -0.31794883959E+03  0.31938277025E+03  0.26083594122E+01 0.  0.
         13    1    3    3    0    0 -0.12674842374E+02  0.10149866004E+02 -0.17621715925E+03  0.17696372120E+03  0.00000000000E+00 0.  1.
          3    1    3    3  501    0 -0.93815115203E+01  0.10358743213E+02 -0.14173168034E+03  0.14241904904E+03  0.00000000000E+00 0.  1.
         -3    1    1    2    0  502  0.22056353895E+02 -0.20508609217E+02 -0.68100136069E+03  0.68166702947E+03  0.00000000000E+00 0. -1.
<mgrwt>
<rscale>  1 0.30000000E+03</rscale>
<asrwt>0</asrwt>
<pdfrwt beam="1">  1       21 0.38174616E-02 0.30000000E+03</pdfrwt>
<pdfrwt beam="2">0</pdfrwt>
<totfact> 0.45484338E+04</totfact>
</mgrwt>
</event>
<event>
 6    1  0.6513574E-002  0.3000000E+03  0.7818608E-02  0.1093470E+00
         21   -1    0    0  501  502  0.00000000000E+00  0.00000000000E+00  0.21264389964E+01  0.21264389964E+01  0.00000000000E+00 0. -1.
         13   -1    0    0    0    0 -0.00000000000E+00 -0.00000000000E+00 -0.10000000000E+04  0.10000000000E+04  0.00000000000E+00 0.  1.
    9000005    2    1    2  501    0 -0.36112013909E+02  0.23975747330E+02 -0.66879586819E+03  0.67020620473E+03  0.30869953963E+01 0.  0.
         13    1    3    3    0    0 -0.19357621309E+02  0.12872341531E+02 -0.33481378298E+03  0.33561985036E+03  0.00000000000E+00 0.  1.
          1    1    3    3  501    0 -0.16754392600E+02  0.11103405798E+02 -0.33398208521E+03  0.33458635437E+03  0.00000000000E+00 0.  1.
         -3    1    1    2    0  502  0.36112013909E+02 -0.23975747330E+02 -0.32907769281E+03  0.33192023427E+03  0.00000000000E+00 0. -1.
<mgrwt>
<rscale>  1 0.30000000E+03</rscale>
<asrwt>0</asrwt>
<pdfrwt beam="1">  1       21 0.77325217E-02 0.30000000E+03</pdfrwt>
<pdfrwt beam="2">0</pdfrwt>
<totfact> 0.13559368E+04</totfact>
</mgrwt>
</event>
<event>
 6    1  0.6513574E-002  0.3000000E+03  0.7818608E-02  0.1093470E+00
         21   -1    0    0  501  502  0.00000000000E+00  0.00000000000E+00  0.39406261664E+01  0.39406261664E+01  0.00000000000E+00 0. -1.
         13   -1    0    0    0    0 -0.00000000000E+00 -0.00000000000E+00 -0.10000000000E+04  0.10000000000E+04  0.00000000000E+00 0.  1.
    9000005    2    1    2  501    0  0.32794227468E+02 -0.49992958570E+02 -0.64982693377E+03  0.65258374234E+03  0.39673225565E+01 0.  0.
         13    1    3    3    0    0  0.26888372757E+02 -0.38320426349E+02 -0.49973492232E+03  0.50192273534E+03  0.00000000000E+00 0.  1.
          1    1    3    3  501    0  0.59058547109E+01 -0.11672532221E+02 -0.15009201146E+03  0.15066100700E+03  0.00000000000E+00 0.  1.
         -3    1    1    2    0  502 -0.32794227468E+02  0.49992958570E+02 -0.34623244006E+03  0.35135688382E+03  0.00000000000E+00 0. -1.
<mgrwt>
<rscale>  1 0.30000000E+03</rscale>
<asrwt>0</asrwt>
<pdfrwt beam="1">  1       21 0.14329580E-01 0.30000000E+03</pdfrwt>
<pdfrwt beam="2">0</pdfrwt>
<totfact> 0.44807360E+03</totfact>
</mgrwt>
</event>
<event>
 6    1  0.6513574E-002  0.3000000E+03  0.7818608E-02  0.1093470E+00
         21   -1    0    0  501  502  0.00000000000E+00  0.00000000000E+00  0.17251766761E+02  0.17251766761E+02  0.00000000000E+00 0. -1.
         13   -1    0    0    0    0 -0.00000000000E+00 -0.00000000000E+00 -0.10000000000E+04  0.10000000000E+04  0.00000000000E+00 0.  1.
    9000005    2    1    2  501    0 -0.12621692600E+03  0.27525408410E+02 -0.58287741700E+03  0.59703155045E+03  0.34969220447E+01 0.  0.
         13    1    3    3    0    0 -0.10886674841E+03  0.22647442391E+02 -0.49891750977E+03  0.51115903309E+03  0.00000000000E+00 0.  1.
          1    1    3    3  501    0 -0.17350177590E+02  0.48779660198E+01 -0.83959907234E+02  0.85872517360E+02  0.00000000000E+00 0.  1.
         -3    1    1    2    0  502  0.12621692600E+03 -0.27525408410E+02 -0.39987081624E+03  0.42022021631E+03  0.00000000000E+00 0. -1.
<mgrwt>
<rscale>  1 0.30000000E+03</rscale>
<asrwt>0</asrwt>
<pdfrwt beam="1">  1       21 0.62733830E-01 0.30000000E+03</pdfrwt>
<pdfrwt beam="2">0</pdfrwt>
<totfact> 0.22706897E+02</totfact>
</mgrwt>
</event>
<event>
 6    1  0.6513574E-002  0.3000000E+03  0.7818608E-02  0.1093470E+00
         21   -1    0    0  501  502  0.00000000000E+00  0.00000000000E+00  0.19175563680E+01  0.19175563680E+01  0.00000000000E+00 0. -1.
         13   -1    0    0    0    0 -0.00000000000E+00 -0.00000000000E+00 -0.10000000000E+04  0.10000000000E+04  0.00000000000E+00 0.  1.
    9000005    2    1    2  501    0 -0.42299722548E+02 -0.62538183606E+01 -0.60457596154E+03  0.60609470682E+03  0.32130356429E+01 0.  0.
         13    1    3    3    0    0 -0.40202083449E+02 -0.59231796937E+01 -0.56304376841E+03  0.56450826098E+03  0.00000000000E+00 0.  1.
          3    1    3    3  501    0 -0.20976390983E+01 -0.33063866691E+00 -0.41532193131E+02  0.41586445845E+02  0.00000000000E+00 0.  1.
         -1    1    1    2    0  502  0.42299722548E+02  0.62538183606E+01 -0.39350648209E+03  0.39582284954E+03  0.00000000000E+00 0. -1.
<mgrwt>
<rscale>  1 0.30000000E+03</rscale>
<asrwt>0</asrwt>
<pdfrwt beam="1">  1       21 0.69729470E-02 0.30000000E+03</pdfrwt>
<pdfrwt beam="2">0</pdfrwt>
<totfact> 0.16244371E+04</totfact>
</mgrwt>
</event>
<event>
 6    1  0.6513574E-002  0.3000000E+03  0.7818608E-02  0.1093470E+00
         21   -1    0    0  501  502  0.00000000000E+00  0.00000000000E+00  0.14494980583E+01  0.14494980583E+01  0.00000000000E+00 0. -1.
         13   -1    0    0    0    0 -0.00000000000E+00 -0.00000000000E+00 -0.10000000000E+04  0.10000000000E+04  0.00000000000E+00 0.  1.
    9000005    2    1    2  501    0  0.34780378990E+02 -0.13930680196E+02 -0.58253037010E+03  0.58374566912E+03  0.36926294581E+01 0.  0.
         13    1    3    3    0    0  0.15028660106E+02 -0.79758080475E+01 -0.26765139715E+03  0.26819161906E+03  0.00000000000E+00 0.  1.
          3    1    3    3  501    0  0.19751718885E+02 -0.59548721485E+01 -0.31487897295E+03  0.31555405006E+03  0.00000000000E+00 0.  1.
         -3    1    1    2    0  502 -0.34780378990E+02  0.13930680196E+02 -0.41602013184E+03  0.41770382894E+03  0.00000000000E+00 0. -1.
<mgrwt>
<rscale>  1 0.30000000E+03</rscale>
<asrwt>0</asrwt>
<pdfrwt beam="1">  1       21 0.52709131E-02 0.30000000E+03</pdfrwt>
<pdfrwt beam="2">0</pdfrwt>
<totfact> 0.26323422E+04</totfact>
</mgrwt>
</event>
<event>
 6    1  0.6513574E-002  0.3000000E+03  0.7818608E-02  0.1093470E+00
         21   -1    0    0  501  502  0.00000000000E+00  0.00000000000E+00  0.49283186232E+01  0.49283186232E+01  0.00000000000E+00 0. -1.
         13   -1    0    0    0    0 -0.00000000000E+00 -0.00000000000E+00 -0.10000000000E+04  0.10000000000E+04  0.00000000000E+00 0.  1.
    9000005    2    1    2  501    0 -0.41189043218E+02 -0.50789692586E+02 -0.31604421551E+03  0.32275940291E+03  0.36818283262E+01 0.  0.
         13    1    3    3    0    0 -0.10182465356E+02 -0.10552256816E+02 -0.75188434679E+02  0.76605048359E+02  0.00000000000E+00 0.  1.
          3    1    3    3  501    0 -0.31006577862E+02 -0.40237435771E+02 -0.24085578083E+03  0.24615435455E+03  0.00000000000E+00 0.  1.
         -3    1    1    2    0  502  0.41189043218E+02  0.50789692586E+02 -0.67902746587E+03  0.68216891571E+03  0.00000000000E+00 0. -1.
<mgrwt>
<rscale>  1 0.30000000E+03</rscale>
<asrwt>0</asrwt>
<pdfrwt beam="1">  1       21 0.17921196E-01 0.30000000E+03</pdfrwt>
<pdfrwt beam="2">0</pdfrwt>
<totfact> 0.29538556E+03</totfact>
</mgrwt>
</event>
<event>
 6    1  0.6513574E-002  0.3000000E+03  0.7818608E-02  0.1093470E+00
         21   -1    0    0  501  502  0.00000000000E+00  0.00000000000E+00  0.38646167033E+01  0.38646167033E+01  0.00000000000E+00 0. -1.
         13   -1    0    0    0    0 -0.00000000000E+00 -0.00000000000E+00 -0.10000000000E+04  0.10000000000E+04  0.00000000000E+00 0.  1.
    9000005    2    1    2  501    0 -0.36611342465E+02 -0.25648690924E+02 -0.15024229194E+03  0.15679120327E+03  0.35340333551E+01 0.  0.
         13    1    3    3    0    0 -0.10151055136E+02 -0.54941675023E+01 -0.41544708996E+02  0.43118356212E+02  0.00000000000E+00 0.  1.
          3    1    3    3  501    0 -0.26460287329E+02 -0.20154523422E+02 -0.10869758294E+03  0.11367284706E+03  0.00000000000E+00 0.  1.
         -3    1    1    2    0  502  0.36611342465E+02  0.25648690924E+02 -0.84589309136E+03  0.84707341343E+03  0.00000000000E+00 0. -1.
<mgrwt>
<rscale>  1 0.30000000E+03</rscale>
<asrwt>0</asrwt>
<pdfrwt beam="1">  1       21 0.14053181E-01 0.30000000E+03</pdfrwt>
<pdfrwt beam="2">0</pdfrwt>
<totfact> 0.46442056E+03</totfact>
</mgrwt>
</event>
<event>
 6    1  0.6513574E-002  0.3000000E+03  0.7818608E-02  0.1093470E+00
         21   -1    0    0  501  502  0.00000000000E+00  0.00000000000E+00  0.40579323716E+01  0.40579323716E+01  0.00000000000E+00 0. -1.
         13   -1    0    0    0    0 -0.00000000000E+00 -0.00000000000E+00 -0.10000000000E+04  0.10000000000E+04  0.00000000000E+00 0.  1.
    9000005    2    1    2  501    0 -0.55773684102E+02 -0.22901735196E+01 -0.25687642983E+03  0.26288725992E+03  0.28744549412E+01 0.  0.
         13    1    3    3    0    0 -0.49153845738E+02 -0.28780552702E+01 -0.22462322508E+03  0.22995646762E+03  0.00000000000E+00 0.  1.
          1    1    3    3  501    0 -0.66198383634E+01  0.58788175058E+00 -0.32253204749E+02  0.32930792300E+02  0.00000000000E+00 0.  1.
         -3    1    1    2    0  502  0.55773684102E+02  0.22901735196E+01 -0.73906563780E+03  0.74117067245E+03  0.00000000000E+00 0. -1.
<mgrwt>
<rscale>  1 0.30000000E+03</rscale>
<asrwt>0</asrwt>
<pdfrwt beam="1">  1       21 0.14756149E-01 0.30000000E+03</pdfrwt>
<pdfrwt beam="2">0</pdfrwt>
<totfact> 0.42447539E+03</totfact>
</mgrwt>
</event>
<event>
 6    1  0.6513574E-002  0.3000000E+03  0.7818608E-02  0.1093470E+00
         21   -1    0    0  501  502  0.00000000000E+00  0.00000000000E+00  0.10045237832E+01  0.10045237832E+01  0.00000000000E+00 0. -1.
         13   -1    0    0    0    0 -0.00000000000E+00 -0.00000000000E+00 -0.10000000000E+04  0.10000000000E+04  0.00000000000E+00 0.  1.
    9000005    2    1    2  501    0 -0.21967564421E+02  0.21946675722E+02 -0.40927719065E+03  0.41046926929E+03  0.36016367289E+01 0.  0.
         13    1    3    3    0    0 -0.21102069392E+00  0.10559196911E+01 -0.17121882833E+02  0.17155709484E+02  0.00000000000E+00 0.  1.
          3    1    3    3  501    0 -0.21756543727E+02  0.20890756031E+02 -0.39215530782E+03  0.39331355981E+03  0.00000000000E+00 0.  1.
         -3    1    1    2    0  502  0.21967564421E+02 -0.21946675722E+02 -0.58971828557E+03  0.59053525449E+03  0.00000000000E+00 0. -1.
<mgrwt>
<rscale>  1 0.30000000E+03</rscale>
<asrwt>0</asrwt>
<pdfrwt beam="1">  1       21 0.36528215E-02 0.30000000E+03</pdfrwt>
<pdfrwt beam="2">0</pdfrwt>
<totfact> 0.48978915E+04</totfact>
</mgrwt>
</event>
<event>
 6    1  0.6513574E-002  0.3000000E+03  0.7818608E-02  0.1093470E+00
         21   -1    0    0  501  502  0.00000000000E+00  0.00000000000E+00  0.17584879668E+01  0.17584879668E+01  0.00000000000E+00 0. -1.
         13   -1    0    0    0    0 -0.00000000000E+00 -0.00000000000E+00 -0.10000000000E+04  0.10000000000E+04  0.00000000000E+00 0.  1.
    9000005    2    1    2  501    0 -0.32867876258E+00  0.35550923553E+02 -0.23531930029E+03  0.23800834731E+03  0.29705388422E+01 0.  0.
         13    1    3    3    0    0 -0.35252465609E-01  0.35197792320E+02 -0.23305811602E+03  0.23570102093E+03  0.00000000000E+00 0.  1.
          1    1    3    3  501    0 -0.29342629698E+00  0.35313123288E+00 -0.22611842738E+01  0.23073263704E+01  0.00000000000E+00 0.  1.
         -3    1    1    2    0  502  0.32867876258E+00 -0.35550923553E+02 -0.76292221174E+03  0.76375014066E+03  0.00000000000E+00 0. -1.
<mgrwt>
<rscale>  1 0.30000000E+03</rscale>
<asrwt>0</asrwt>
<pdfrwt beam="1">  1       21 0.63945152E-02 0.30000000E+03</pdfrwt>
<pdfrwt beam="2">0</pdfrwt>
<totfact> 0.18877052E+04</totfact>
</mgrwt>
</event>
<event>
 6    1  0.6513574E-002  0.3000000E+03  0.7818608E-02  0.1093470E+00
         21   -1    0    0  501  502  0.00000000000E+00  0.00000000000E+00  0.27280265568E+01  0.27280265568E+01  0.00000000000E+00 0. -1.
         13   -1    0    0    0    0 -0.00000000000E+00 -0.00000000000E+00 -0.10000000000E+04  0.10000000000E+04  0.00000000000E+00 0.  1.
    9000005    2    1    2  501    0 -0.48028115756E+01 -0.30784257607E+02 -0.10683869909E+03  0.11174982616E+03  0.10137973521E+02 0.  0.
         13    1    3    3    0    0 -0.42583865597E+01 -0.15854525314E+02 -0.71913378613E+02  0.73763363891E+02  0.00000000000E+00 0.  1.
          3    1    3    3  501    0 -0.54442501589E+00 -0.14929732293E+02 -0.34925320479E+02  0.37986462266E+02  0.00000000000E+00 0.  1.
         -1    1    1    2    0  502  0.48028115756E+01  0.30784257607E+02 -0.89043327435E+03  0.89097820040E+03  0.00000000000E+00 0. -1.
<mgrwt>
<rscale>  1 0.30000000E+03</rscale>
<asrwt>0</asrwt>
<pdfrwt beam="1">  1       21 0.99201175E-02 0.30000000E+03</pdfrwt>
<pdfrwt beam="2">0</pdfrwt>
<totfact> 0.87273483E+03</totfact>
</mgrwt>
</event>
<event>
 6    1  0.6513574E-002  0.3000000E+03  0.7818608E-02  0.1093470E+00
         21   -1    0    0  501  502  0.00000000000E+00  0.00000000000E+00  0.13154331647E+01  0.13154331647E+01  0.00000000000E+00 0. -1.
         13   -1    0    0    0    0 -0.00000000000E+00 -0.00000000000E+00 -0.10000000000E+04  0.10000000000E+04  0.00000000000E+00 0.  1.
    9000005    2    1    2  501    0  0.19312187549E+02 -0.30270419320E+02 -0.56237486328E+03  0.56353076430E+03  0.34894975538E+01 0.  0.
         13    1    3    3    0    0  0.72765127857E+01 -0.14111609102E+02 -0.26261561712E+03  0.26309513014E+03  0.00000000000E+00 0.  1.
          3    1    3    3  501    0  0.12035674763E+02 -0.16158810218E+02 -0.29975924616E+03  0.30043563416E+03  0.00000000000E+00 0.  1.
         -3    1    1    2    0  502 -0.19312187549E+02  0.30270419320E+02 -0.43630970355E+03  0.43778466886E+03  0.00000000000E+00 0. -1.
<mgrwt>
<rscale>  1 0.30000000E+03</rscale>
<asrwt>0</asrwt>
<pdfrwt beam="1">  1       21 0.47834034E-02 0.30000000E+03</pdfrwt>
<pdfrwt beam="2">0</pdfrwt>
<totfact> 0.31061055E+04</totfact>
</mgrwt>
</event>
<event>
 6    1  0.6513574E-002  0.3000000E+03  0.7818608E-02  0.1093470E+00
         21   -1    0    0  501  502  0.00000000000E+00  0.00000000000E+00  0.19871395908E+01  0.19871395908E+01  0.00000000000E+00 0. -1.
         13   -1    0    0    0    0 -0.00000000000E+00 -0.00000000000E+00 -0.10000000000E+04  0.10000000000E+04  0.00000000000E+00 0.  1.
    9000005    2    1    2  501    0 -0.40767793088E+02 -0.16545745378E+01 -0.69979900504E+03  0.70099502324E+03  0.32595374641E+01 0.  0.
         13    1    3    3    0    0 -0.37478855199E+02 -0.64730612493E+00 -0.63723411491E+03  0.63833564901E+03  0.00000000000E+00 0.  1.
          3    1    3    3  501    0 -0.32889378893E+01 -0.10072684129E+01 -0.62564890126E+02  0.62659374228E+02  0.00000000000E+00 0.  1.
         -3    1    1    2    0  502  0.40767793088E+02  0.16545745378E+01 -0.29821385537E+03  0.30099211635E+03  0.00000000000E+00 0. -1.
<mgrwt>
<rscale>  1 0.30000000E+03</rscale>
<asrwt>0</asrwt>
<pdfrwt beam="1">  1       21 0.72259774E-02 0.30000000E+03</pdfrwt>
<pdfrwt beam="2">0</pdfrwt>
<totfact> 0.15266180E+04</totfact>
</mgrwt>
</event>
<event>
 6    1  0.6513574E-002  0.3000000E+03  0.7818608E-02  0.1093470E+00
         21   -1    0    0  501  502  0.00000000000E+00  0.00000000000E+00  0.13785481733E+01  0.13785481733E+01  0.00000000000E+00 0. -1.
         13   -1    0    0    0    0 -0.00000000000E+00 -0.00000000000E+00 -0.10000000000E+04  0.10000000000E+04  0.00000000000E+00 0.  1.
    9000005    2    1    2  501    0 -0.34862615647E+02 -0.87411813678E+01 -0.58458225415E+03  0.58578226879E+03  0.10613403997E+02 0.  0.
         13    1    3    3    0    0 -0.15922235398E+02 -0.12930569886E+01 -0.33067844155E+03  0.33106407428E+03  0.00000000000E+00 0.  1.
          3    1    3    3  501    0 -0.18940380249E+02 -0.74481243792E+01 -0.25390381260E+03  0.25471819451E+03  0.00000000000E+00 0.  1.
         -1    1    1    2    0  502  0.34862615647E+02  0.87411813678E+01 -0.41403919768E+03  0.41559627938E+03  0.00000000000E+00 0. -1.
<mgrwt>
<rscale>  1 0.30000000E+03</rscale>
<asrwt>0</asrwt>
<pdfrwt beam="1">  1       21 0.50129130E-02 0.30000000E+03</pdfrwt>
<pdfrwt beam="2">0</pdfrwt>
<totfact> 0.28678273E+04</totfact>
</mgrwt>
</event>
<event>
 6    1  0.6513574E-002  0.3000000E+03  0.7818608E-02  0.1093470E+00
         21   -1    0    0  501  502  0.00000000000E+00  0.00000000000E+00  0.16381138058E+01  0.16381138058E+01  0.00000000000E+00 0. -1.
         13   -1    0    0    0    0 -0.00000000000E+00 -0.00000000000E+00 -0.10000000000E+04  0.10000000000E+04  0.00000000000E+00 0.  1.
    9000005    2    1    2  501    0 -0.21968098933E+02  0.32400465307E+02 -0.62367250405E+03  0.62490940423E+03  0.34617439541E+01 0.  0.
         13    1    3    3    0    0 -0.50561698027E+01  0.98919825623E+01 -0.16478490643E+03  0.16515895846E+03  0.00000000000E+00 0.  1.
          3    1    3    3  501    0 -0.16911929131E+02  0.22508482745E+02 -0.45888759762E+03  0.45975044578E+03  0.00000000000E+00 0.  1.
         -3    1    1    2    0  502  0.21968098933E+02 -0.32400465307E+02 -0.37468938215E+03  0.37672870957E+03  0.00000000000E+00 0. -1.
<mgrwt>
<rscale>  1 0.30000000E+03</rscale>
<asrwt>0</asrwt>
<pdfrwt beam="1">  1       21 0.59567900E-02 0.30000000E+03</pdfrwt>
<pdfrwt beam="2">0</pdfrwt>
<totfact> 0.21335935E+04</totfact>
</mgrwt>
</event>
<event>
 6    1  0.6513574E-002  0.3000000E+03  0.7818608E-02  0.1093470E+00
         21   -1    0    0  501  502  0.00000000000E+00  0.00000000000E+00  0.16604633487E+01  0.16604633487E+01  0.00000000000E+00 0. -1.
         13   -1    0    0    0    0 -0.00000000000E+00 -0.00000000000E+00 -0.10000000000E+04  0.10000000000E+04  0.00000000000E+00 0.  1.
    9000005    2    1    2  501    0  0.13408377069E+02 -0.37932226671E+02 -0.42203979002E+03  0.42395808637E+03  0.20582141173E+01 0.  0.
         13    1    3    3    0    0  0.67315348489E+01 -0.17638345343E+02 -0.20763828876E+03  0.20849480508E+03  0.00000000000E+00 0.  1.
          1    1    3    3  501    0  0.66768422197E+01 -0.20293881328E+02 -0.21440150126E+03  0.21546328129E+03  0.00000000000E+00 0.  1.
         -1    1    1    2    0  502 -0.13408377069E+02  0.37932226671E+02 -0.57629974663E+03  0.57770237698E+03  0.00000000000E+00 0. -1.
<mgrwt>
<rscale>  1 0.30000000E+03</rscale>
<asrwt>0</asrwt>
<pdfrwt beam="1">  1       21 0.60380613E-02 0.30000000E+03</pdfrwt>
<pdfrwt beam="2">0</pdfrwt>
<totfact> 0.20843082E+04</totfact>
</mgrwt>
</event>
<event>
 6    1  0.6513574E-002  0.3000000E+03  0.7818608E-02  0.1093470E+00
         21   -1    0    0  501  502  0.00000000000E+00  0.00000000000E+00  0.32807440705E+01  0.32807440705E+01  0.00000000000E+00 0. -1.
         13   -1    0    0    0    0 -0.00000000000E+00 -0.00000000000E+00 -0.10000000000E+04  0.10000000000E+04  0.00000000000E+00 0.  1.
    9000005    2    1    2  501    0 -0.40350581225E+02  0.31075476329E+02 -0.27051173570E+03  0.27528952360E+03  0.37239793189E+01 0.  0.
         13    1    3    3    0    0 -0.29254174874E+01  0.29909712467E+01 -0.18072204148E+02  0.18550162782E+02  0.00000000000E+00 0.  1.
          3    1    3    3  501    0 -0.37425163737E+02  0.28084505082E+02 -0.25243953155E+03  0.25673936082E+03  0.00000000000E+00 0.  1.
         -3    1    1    2    0  502  0.40350581225E+02 -0.31075476329E+02 -0.72620752023E+03  0.72799122047E+03  0.00000000000E+00 0. -1.
<mgrwt>
<rscale>  1 0.30000000E+03</rscale>
<asrwt>0</asrwt>
<pdfrwt beam="1">  1       21 0.11930004E-01 0.30000000E+03</pdfrwt>
<pdfrwt beam="2">0</pdfrwt>
<totfact> 0.62632458E+03</totfact>
</mgrwt>
</event>
<event>
 6    1  0.6513574E-002  0.3000000E+03  0.7818608E-02  0.1093470E+00
         21   -1    0    0  501  502  0.00000000000E+00  0.00000000000E+00  0.16698731979E+01  0.16698731979E+01  0.00000000000E+00 0. -1.
         13   -1    0    0    0    0 -0.00000000000E+00 -0.00000000000E+00 -0.10000000000E+04  0.10000000000E+04  0.00000000000E+00 0.  1.
    9000005    2    1    2  501    0 -0.21689802744E+02  0.34486825807E+02 -0.47101529948E+03  0.47278357557E+03  0.30179950348E+01 0.  0.
         13    1    3    3    0    0 -0.10106105742E+02  0.16550701909E+02 -0.20705377604E+03  0.20795991267E+03  0.00000000000E+00 0.  1.
          3    1    3    3  501    0 -0.11583697002E+02  0.17936123898E+02 -0.26396152344E+03  0.26482366290E+03  0.00000000000E+00 0.  1.
         -1    1    1    2    0  502  0.21689802744E+02 -0.34486825807E+02 -0.52731482733E+03  0.52888629762E+03  0.00000000000E+00 0. -1.
<mgrwt>
<rscale>  1 0.30000000E+03</rscale>
<asrwt>0</asrwt>
<pdfrwt beam="1">  1       21 0.60722790E-02 0.30000000E+03</pdfrwt>
<pdfrwt beam="2">0</pdfrwt>
<totfact> 0.20640858E+04</totfact>
</mgrwt>
</event>
<event>
 6    1  0.6513574E-002  0.3000000E+03  0.7818608E-02  0.1093470E+00
         21   -1    0    0  501  502  0.00000000000E+00  0.00000000000E+00  0.10215749113E+01  0.10215749113E+01  0.00000000000E+00 0. -1.
         13   -1    0    0    0    0 -0.00000000000E+00 -0.00000000000E+00 -0.10000000000E+04  0.10000000000E+04  0.00000000000E+00 0.  1.
    9000005    2    1    2  501    0 -0.18902125295E+02 -0.25331767058E+02 -0.56149547084E+03  0.56239836072E+03  0.39703415550E+01 0.  0.
         13    1    3    3    0    0 -0.17658615614E+02 -0.22735871789E+02 -0.48995463135E+03  0.49079964074E+03  0.00000000000E+00 0.  1.
          1    1    3    3  501    0 -0.12435096813E+01 -0.25958952682E+01 -0.71540839492E+02  0.71598719987E+02  0.00000000000E+00 0.  1.
         -3    1    1    2    0  502  0.18902125295E+02  0.25331767058E+02 -0.43748295425E+03  0.43862321419E+03  0.00000000000E+00 0. -1.
<mgrwt>
<rscale>  1 0.30000000E+03</rscale>
<asrwt>0</asrwt>
<pdfrwt beam="1">  1       21 0.37148257E-02 0.30000000E+03</pdfrwt>
<pdfrwt beam="2">0</pdfrwt>
<totfact> 0.47614748E+04</totfact>
</mgrwt>
</event>
<event>
 6    1  0.6513574E-002  0.3000000E+03  0.7818608E-02  0.1093470E+00
         21   -1    0    0  501  502  0.00000000000E+00  0.00000000000E+00  0.10388729653E+01  0.10388729653E+01  0.00000000000E+00 0. -1.
         13   -1    0    0    0    0 -0.00000000000E+00 -0.00000000000E+00 -0.10000000000E+04  0.10000000000E+04  0.00000000000E+00 0.  1.
    9000005    2    1    2  501    0 -0.30773839402E+02  0.77477031762E+01 -0.55550732730E+03  0.55645105419E+03  0.65060694217E+01 0.  0.
         13    1    3    3    0    0 -0.19462138536E+02  0.77411185083E+01 -0.33556670970E+03  0.33621974423E+03  0.00000000000E+00 0.  1.
          1    1    3    3  501    0 -0.11311700866E+02  0.65846679052E-02 -0.21994061760E+03  0.22023130997E+03  0.00000000000E+00 0.  1.
         -1    1    1    2    0  502  0.30773839402E+02 -0.77477031762E+01 -0.44345379974E+03  0.44458781877E+03  0.00000000000E+00 0. -1.
<mgrwt>
<rscale>  1 0.30000000E+03</rscale>
<asrwt>0</asrwt>
<pdfrwt beam="1">  1       21 0.37777278E-02 0.30000000E+03</pdfrwt>
<pdfrwt beam="2">0</pdfrwt>
<totfact> 0.46290968E+04</totfact>
</mgrwt>
</event>
<event>
 6    1  0.6513574E-002  0.3000000E+03  0.7818608E-02  0.1093470E+00
         21   -1    0    0  501  502  0.00000000000E+00  0.00000000000E+00  0.30707337867E+01  0.30707337867E+01  0.00000000000E+00 0. -1.
         13   -1    0    0    0    0 -0.00000000000E+00 -0.00000000000E+00 -0.10000000000E+04  0.10000000000E+04  0.00000000000E+00 0.  1.
    9000005    2    1    2  501    0 -0.50114103108E+02  0.14251308484E+02 -0.32836845950E+03  0.33248287571E+03  0.21199819842E+01 0.  0.
         13    1    3    3    0    0 -0.34481823294E+02  0.99375710603E+01 -0.21985677767E+03  0.22276614227E+03  0.00000000000E+00 0.  1.
          3    1    3    3  501    0 -0.15632279814E+02  0.43137374241E+01 -0.10851168183E+03  0.10971673344E+03  0.00000000000E+00 0.  1.
         -1    1    1    2    0  502  0.50114103108E+02 -0.14251308484E+02 -0.66856080672E+03  0.67058785808E+03  0.00000000000E+00 0. -1.
<mgrwt>
<rscale>  1 0.30000000E+03</rscale>
<asrwt>0</asrwt>
<pdfrwt beam="1">  1       21 0.11166328E-01 0.30000000E+03</pdfrwt>
<pdfrwt beam="2">0</pdfrwt>
<totfact> 0.70587089E+03</totfact>
</mgrwt>
</event>
<event>
 6    1  0.6513574E-002  0.3000000E+03  0.7818608E-02  0.1093470E+00
         21   -1    0    0  501  502  0.00000000000E+00  0.00000000000E+00  0.13781903941E+01  0.13781903941E+01  0.00000000000E+00 0. -1.
         13   -1    0    0    0    0 -0.00000000000E+00 -0.00000000000E+00 -0.10000000000E+04  0.10000000000E+04  0.00000000000E+00 0.  1.
    9000005    2    1    2  501    0  0.35484134701E+02  0.34119642338E+01 -0.63636322261E+03  0.63736988120E+03  0.33836438112E+01 0.  0.
         13    1    3    3    0    0  0.13730209330E+02  0.20766084017E+01 -0.22202446683E+03  0.22245829907E+03  0.00000000000E+00 0.  1.
          1    1    3    3  501    0  0.21753925371E+02  0.13353558321E+01 -0.41433875578E+03  0.41491158213E+03  0.00000000000E+00 0.  1.
         -3    1    1    2    0  502 -0.35484134701E+02 -0.34119642338E+01 -0.36225858699E+03  0.36400830920E+03  0.00000000000E+00 0. -1.
<mgrwt>
<rscale>  1 0.30000000E+03</rscale>
<asrwt>0</asrwt>
<pdfrwt beam="1">  1       21 0.50116120E-02 0.30000000E+03</pdfrwt>
<pdfrwt beam="2">0</pdfrwt>
<totfact> 0.28690967E+04</totfact>
</mgrwt>
</event>
<event>
 6    1  0.6513574E-002  0.3000000E+03  0.7818608E-02  0.1093470E+00
         21   -1    0    0  501  502  0.00000000000E+00  0.00000000000E+00  0.58820998052E+01  0.58820998052E+01  0.00000000000E+00 0. -1.
         13   -1    0    0    0    0 -0.00000000000E+00 -0.00000000000E+00 -0.10000000000E+04  0.10000000000E+04  0.00000000000E+00 0.  1.
    9000005    2    1    2  501    0  0.20552988240E+02 -0.34098096560E+02 -0.68077746306E+02  0.78986489648E+02  0.43795536504E+01 0.  0.
         13    1    3    3    0    0 -0.19227598937E+00 -0.74595799452E+00 -0.11371822121E+01  0.13735380480E+01  0.00000000000E+00 0.  1.
          3    1    3    3  501    0  0.20745264230E+02 -0.33352138565E+02 -0.66940564094E+02  0.77612951600E+02  0.00000000000E+00 0.  1.
         -1    1    1    2    0  502 -0.20552988240E+02  0.34098096560E+02 -0.92604015389E+03  0.92689561016E+03  0.00000000000E+00 0. -1.
<mgrwt>
<rscale>  1 0.30000000E+03</rscale>
<asrwt>0</asrwt>
<pdfrwt beam="1">  1       21 0.21389499E-01 0.30000000E+03</pdfrwt>
<pdfrwt beam="2">0</pdfrwt>
<totfact> 0.21097141E+03</totfact>
</mgrwt>
</event>
<event>
 6    1  0.6513574E-002  0.3000000E+03  0.7818608E-02  0.1093470E+00
         21   -1    0    0  501  502  0.00000000000E+00  0.00000000000E+00  0.11724620969E+01  0.11724620969E+01  0.00000000000E+00 0. -1.
         13   -1    0    0    0    0 -0.00000000000E+00 -0.00000000000E+00 -0.10000000000E+04  0.10000000000E+04  0.00000000000E+00 0.  1.
    9000005    2    1    2  501    0 -0.19193290143E+02 -0.27940079161E+02 -0.44367377091E+03  0.44498478207E+03  0.40013582662E+01 0.  0.
         13    1    3    3    0    0 -0.88029864592E+01 -0.16334097237E+02 -0.24082625207E+03  0.24154001530E+03  0.00000000000E+00 0.  1.
          1    1    3    3  501    0 -0.10390303684E+02 -0.11605981924E+02 -0.20284751884E+03  0.20344476677E+03  0.00000000000E+00 0.  1.
         -1    1    1    2    0  502  0.19193290143E+02  0.27940079161E+02 -0.55515376699E+03  0.55618768002E+03  0.00000000000E+00 0. -1.
<mgrwt>
<rscale>  1 0.30000000E+03</rscale>
<asrwt>0</asrwt>
<pdfrwt beam="1">  1       21 0.42635075E-02 0.30000000E+03</pdfrwt>
<pdfrwt beam="2">0</pdfrwt>
<totfact> 0.37756912E+04</totfact>
</mgrwt>
</event>
<event>
 6    1  0.6513574E-002  0.3000000E+03  0.7818608E-02  0.1093470E+00
         21   -1    0    0  501  502  0.00000000000E+00  0.00000000000E+00  0.30366949499E+01  0.30366949499E+01  0.00000000000E+00 0. -1.
         13   -1    0    0    0    0 -0.00000000000E+00 -0.00000000000E+00 -0.10000000000E+04  0.10000000000E+04  0.00000000000E+00 0.  1.
    9000005    2    1    2  501    0  0.64074901026E+01 -0.50486273626E+02 -0.31850489360E+03  0.32267228097E+03  0.90616720308E+01 0.  0.
         13    1    3    3    0    0  0.49332232438E+00 -0.35872589458E+02 -0.22772909235E+03  0.23053768790E+03  0.00000000000E+00 0.  1.
          3    1    3    3  501    0  0.59141677782E+01 -0.14613684167E+02 -0.90775801255E+02  0.92134593063E+02  0.00000000000E+00 0.  1.
         -3    1    1    2    0  502 -0.64074901026E+01  0.50486273626E+02 -0.67845841145E+03  0.68036441398E+03  0.00000000000E+00 0. -1.
<mgrwt>
<rscale>  1 0.30000000E+03</rscale>
<asrwt>0</asrwt>
<pdfrwt beam="1">  1       21 0.11042550E-01 0.30000000E+03</pdfrwt>
<pdfrwt beam="2">0</pdfrwt>
<totfact> 0.72018164E+03</totfact>
</mgrwt>
</event>
<event>
 6    1  0.6513574E-002  0.3000000E+03  0.7818608E-02  0.1093470E+00
         21   -1    0    0  501  502  0.00000000000E+00  0.00000000000E+00  0.10925131112E+01  0.10925131112E+01  0.00000000000E+00 0. -1.
         13   -1    0    0    0    0 -0.00000000000E+00 -0.00000000000E+00 -0.10000000000E+04  0.10000000000E+04  0.00000000000E+00 0.  1.
    9000005    2    1    2  501    0  0.31120957702E+02 -0.17398149425E+01 -0.33839736406E+03  0.33984735182E+03  0.34504457366E+01 0.  0.
         13    1    3    3    0    0  0.19393275145E+02 -0.11181900785E+01 -0.22851382017E+03  0.22933799397E+03  0.00000000000E+00 0.  1.
          1    1    3    3  501    0  0.11727682558E+02 -0.62162486405E+00 -0.10988354389E+03  0.11050935785E+03  0.00000000000E+00 0.  1.
         -3    1    1    2    0  502 -0.31120957702E+02  0.17398149425E+01 -0.66051012283E+03  0.66124516129E+03  0.00000000000E+00 0. -1.
<mgrwt>
<rscale>  1 0.30000000E+03</rscale>
<asrwt>0</asrwt>
<pdfrwt beam="1">  1       21 0.39727833E-02 0.30000000E+03</pdfrwt>
<pdfrwt beam="2">0</pdfrwt>
<totfact> 0.42533473E+04</totfact>
</mgrwt>
</event>
<event>
 6    1  0.6513574E-002  0.3000000E+03  0.7818608E-02  0.1093470E+00
         21   -1    0    0  501  502  0.00000000000E+00  0.00000000000E+00  0.84242647099E+01  0.84242647099E+01  0.00000000000E+00 0. -1.
         13   -1    0    0    0    0 -0.00000000000E+00 -0.00000000000E+00 -0.10000000000E+04  0.10000000000E+04  0.00000000000E+00 0.  1.
    9000005    2    1    2  501    0  0.80045078529E+02  0.38935303438E+02 -0.37378675211E+03  0.38425569758E+03  0.35682799209E+01 0.  0.
         13    1    3    3    0    0  0.61129144188E+02  0.28165832865E+02 -0.28501174669E+03  0.29285112627E+03  0.00000000000E+00 0.  1.
          1    1    3    3  501    0  0.18915934341E+02  0.10769470573E+02 -0.88775005422E+02  0.91404571308E+02  0.00000000000E+00 0.  1.
         -1    1    1    2    0  502 -0.80045078529E+02 -0.38935303438E+02 -0.61778898318E+03  0.62416856713E+03  0.00000000000E+00 0. -1.
<mgrwt>
<rscale>  1 0.30000000E+03</rscale>
<asrwt>0</asrwt>
<pdfrwt beam="1">  1       21 0.30633754E-01 0.30000000E+03</pdfrwt>
<pdfrwt beam="2">0</pdfrwt>
<totfact> 0.10426799E+03</totfact>
</mgrwt>
</event>
<event>
 6    1  0.6513574E-002  0.3000000E+03  0.7818608E-02  0.1093470E+00
         21   -1    0    0  501  502  0.00000000000E+00  0.00000000000E+00  0.43583845035E+01  0.43583845035E+01  0.00000000000E+00 0. -1.
         13   -1    0    0    0    0 -0.00000000000E+00 -0.00000000000E+00 -0.10000000000E+04  0.10000000000E+04  0.00000000000E+00 0.  1.
    9000005    2    1    2  501    0  0.51811050473E+01 -0.58712151476E+02 -0.27297504679E+03  0.27929222883E+03  0.38486794020E+01 0.  0.
         13    1    3    3    0    0  0.20175111366E+01 -0.24237459140E+02 -0.10379938298E+03  0.10661067810E+03  0.00000000000E+00 0.  1.
          3    1    3    3  501    0  0.31635939107E+01 -0.34474692335E+02 -0.16917566380E+03  0.17268155073E+03  0.00000000000E+00 0.  1.
         -3    1    1    2    0  502 -0.51811050473E+01  0.58712151476E+02 -0.72266656871E+03  0.72506615568E+03  0.00000000000E+00 0. -1.
<mgrwt>
<rscale>  1 0.30000000E+03</rscale>
<asrwt>0</asrwt>
<pdfrwt beam="1">  1       21 0.15848704E-01 0.30000000E+03</pdfrwt>
<pdfrwt beam="2">0</pdfrwt>
<totfact> 0.37179033E+03</totfact>
</mgrwt>
</event>
<event>
 6    1  0.6513574E-002  0.3000000E+03  0.7818608E-02  0.1093470E+00
         21   -1    0    0  501  502  0.00000000000E+00  0.00000000000E+00  0.17265294220E+01  0.17265294220E+01  0.00000000000E+00 0. -1.
         13   -1    0    0    0    0 -0.00000000000E+00 -0.00000000000E+00 -0.10000000000E+04  0.10000000000E+04  0.00000000000E+00 0.  1.
    9000005    2    1    2  501    0  0.41202546206E+02  0.14548717271E+01 -0.44559821617E+03  0.44751564600E+03  0.35660479132E+01 0.  0.
         13    1    3    3    0    0  0.84246051048E+01  0.14226655606E+01 -0.82725048901E+02  0.83165086810E+02  0.00000000000E+00 0.  1.
          1    1    3    3  501    0  0.32777941101E+02  0.32206166455E-01 -0.36287316727E+03  0.36435055919E+03  0.00000000000E+00 0.  1.
         -3    1    1    2    0  502 -0.41202546206E+02 -0.14548717271E+01 -0.55267525441E+03  0.55421088342E+03  0.00000000000E+00 0. -1.
<mgrwt>
<rscale>  1 0.30000000E+03</rscale>
<asrwt>0</asrwt>
<pdfrwt beam="1">  1       21 0.62783020E-02 0.30000000E+03</pdfrwt>
<pdfrwt beam="2">0</pdfrwt>
<totfact> 0.19485250E+04</totfact>
</mgrwt>
</event>
<event>
 6    1  0.6513574E-002  0.3000000E+03  0.7818608E-02  0.1093470E+00
         21   -1    0    0  501  502  0.00000000000E+00  0.00000000000E+00  0.56743187452E+01  0.56743187452E+01  0.00000000000E+00 0. -1.
         13   -1    0    0    0    0 -0.00000000000E+00 -0.00000000000E+00 -0.10000000000E+04  0.10000000000E+04  0.00000000000E+00 0.  1.
    9000005    2    1    2  501    0  0.58810713626E+02 -0.43585737491E+02 -0.37965470172E+03  0.38665991695E+03  0.31276646903E+01 0.  0.
         13    1    3    3    0    0  0.41066375205E+02 -0.32173533869E+02 -0.27155570498E+03  0.27652139947E+03  0.00000000000E+00 0.  1.
          1    1    3    3  501    0  0.17744338421E+02 -0.11412203622E+02 -0.10809899674E+03  0.11013851748E+03  0.00000000000E+00 0.  1.
         -3    1    1    2    0  502 -0.58810713626E+02  0.43585737491E+02 -0.61467097954E+03  0.61901440180E+03  0.00000000000E+00 0. -1.
<mgrwt>
<rscale>  1 0.30000000E+03</rscale>
<asrwt>0</asrwt>
<pdfrwt beam="1">  1       21 0.20633930E-01 0.30000000E+03</pdfrwt>
<pdfrwt beam="2">0</pdfrwt>
<totfact> 0.22602906E+03</totfact>
</mgrwt>
</event>
<event>
 6    1  0.6513574E-002  0.3000000E+03  0.7818608E-02  0.1093470E+00
         21   -1    0    0  501  502  0.00000000000E+00  0.00000000000E+00  0.45768826097E+01  0.45768826097E+01  0.00000000000E+00 0. -1.
         13   -1    0    0    0    0 -0.00000000000E+00 -0.00000000000E+00 -0.10000000000E+04  0.10000000000E+04  0.00000000000E+00 0.  1.
    9000005    2    1    2  501    0  0.24459231395E+02  0.52825730791E+02 -0.24272850865E+03  0.24963451007E+03  0.33834702184E+01 0.  0.
         13    1    3    3    0    0  0.12766703771E+02  0.28902914535E+02 -0.12488408601E+03  0.12881926150E+03  0.00000000000E+00 0.  1.
          3    1    3    3  501    0  0.11692527624E+02  0.23922816256E+02 -0.11784442264E+03  0.12081524857E+03  0.00000000000E+00 0.  1.
         -1    1    1    2    0  502 -0.24459231395E+02 -0.52825730791E+02 -0.75269460874E+03  0.75494237254E+03  0.00000000000E+00 0. -1.
<mgrwt>
<rscale>  1 0.30000000E+03</rscale>
<asrwt>0</asrwt>
<pdfrwt beam="1">  1       21 0.16643245E-01 0.30000000E+03</pdfrwt>
<pdfrwt beam="2">0</pdfrwt>
<totfact> 0.33935638E+03</totfact>
</mgrwt>
</event>
<event>
 6    1  0.6513574E-002  0.3000000E+03  0.7818608E-02  0.1093470E+00
         21   -1    0    0  501  502  0.00000000000E+00  0.00000000000E+00  0.10250096025E+01  0.10250096025E+01  0.00000000000E+00 0. -1.
         13   -1    0    0    0    0 -0.00000000000E+00 -0.00000000000E+00 -0.10000000000E+04  0.10000000000E+04  0.00000000000E+00 0.  1.
    9000005    2    1    2  501    0 -0.30396028775E+02  0.97022902613E+01 -0.48505149018E+03  0.48611199066E+03  0.34447547136E+01 0.  0.
         13    1    3    3    0    0 -0.10912976722E+02  0.18048400934E+01 -0.17252446126E+03  0.17287868649E+03  0.00000000000E+00 0.  1.
          1    1    3    3  501    0 -0.19483052053E+02  0.78974501678E+01 -0.31252702892E+03  0.31323330417E+03  0.00000000000E+00 0.  1.
         -3    1    1    2    0  502  0.30396028775E+02 -0.97022902613E+01 -0.51392350022E+03  0.51491301895E+03  0.00000000000E+00 0. -1.
<mgrwt>
<rscale>  1 0.30000000E+03</rscale>
<asrwt>0</asrwt>
<pdfrwt beam="1">  1       21 0.37273155E-02 0.30000000E+03</pdfrwt>
<pdfrwt beam="2">0</pdfrwt>
<totfact> 0.47347197E+04</totfact>
</mgrwt>
</event>
<event>
 6    1  0.6513574E-002  0.3000000E+03  0.7818608E-02  0.1093470E+00
         21   -1    0    0  501  502  0.00000000000E+00  0.00000000000E+00  0.37403721025E+01  0.37403721025E+01  0.00000000000E+00 0. -1.
         13   -1    0    0    0    0 -0.00000000000E+00 -0.00000000000E+00 -0.10000000000E+04  0.10000000000E+04  0.00000000000E+00 0.  1.
    9000005    2    1    2  501    0  0.33582641638E+02 -0.16757394600E+02 -0.89404778341E+03  0.89485573018E+03  0.60609175238E+01 0.  0.
         13    1    3    3    0    0  0.30920899340E+02 -0.17099339680E+02 -0.83067332682E+03  0.83142447962E+03  0.00000000000E+00 0.  1.
          3    1    3    3  501    0  0.26617422981E+01  0.34194508047E+00 -0.63374456599E+02  0.63431250561E+02  0.00000000000E+00 0.  1.
         -1    1    1    2    0  502 -0.33582641638E+02  0.16757394600E+02 -0.10221184448E+03  0.10888464192E+03  0.00000000000E+00 0. -1.
<mgrwt>
<rscale>  1 0.30000000E+03</rscale>
<asrwt>0</asrwt>
<pdfrwt beam="1">  1       21 0.13601382E-01 0.30000000E+03</pdfrwt>
<pdfrwt beam="2">0</pdfrwt>
<totfact> 0.49312449E+03</totfact>
</mgrwt>
</event>
<event>
 6    1  0.6513574E-002  0.3000000E+03  0.7818608E-02  0.1093470E+00
         21   -1    0    0  501  502  0.00000000000E+00  0.00000000000E+00  0.19210729684E+01  0.19210729684E+01  0.00000000000E+00 0. -1.
         13   -1    0    0    0    0 -0.00000000000E+00 -0.00000000000E+00 -0.10000000000E+04  0.10000000000E+04  0.00000000000E+00 0.  1.
    9000005    2    1    2  501    0  0.32215182797E+02 -0.14221938351E+02 -0.20277572525E+03  0.20583862479E+03  0.33857306179E+01 0.  0.
         13    1    3    3    0    0  0.69127641523E+01 -0.15804281449E+01 -0.41391091803E+02  0.41994125089E+02  0.00000000000E+00 0.  1.
          1    1    3    3  501    0  0.25302418644E+02 -0.12641510206E+02 -0.16138463345E+03  0.16384449971E+03  0.00000000000E+00 0.  1.
         -1    1    1    2    0  502 -0.32215182797E+02  0.14221938351E+02 -0.79530320178E+03  0.79608244817E+03  0.00000000000E+00 0. -1.
<mgrwt>
<rscale>  1 0.30000000E+03</rscale>
<asrwt>0</asrwt>
<pdfrwt beam="1">  1       21 0.69857346E-02 0.30000000E+03</pdfrwt>
<pdfrwt beam="2">0</pdfrwt>
<totfact> 0.16192668E+04</totfact>
</mgrwt>
</event>
<event>
 6    1  0.6513574E-002  0.3000000E+03  0.7818608E-02  0.1093470E+00
         21   -1    0    0  501  502  0.00000000000E+00  0.00000000000E+00  0.23268017991E+01  0.23268017991E+01  0.00000000000E+00 0. -1.
         13   -1    0    0    0    0 -0.00000000000E+00 -0.00000000000E+00 -0.10000000000E+04  0.10000000000E+04  0.00000000000E+00 0.  1.
    9000005    2    1    2  501    0  0.39298665730E+02  0.26402884150E+02 -0.59225063067E+03  0.59414919869E+03  0.33110950975E+01 0.  0.
         13    1    3    3    0    0  0.50172144274E+01  0.22130137486E+01 -0.63162874423E+02  0.63400461953E+02  0.00000000000E+00 0.  1.
          3    1    3    3  501    0  0.34281451303E+02  0.24189870402E+02 -0.52908775625E+03  0.53074873674E+03  0.00000000000E+00 0.  1.
         -3    1    1    2    0  502 -0.39298665730E+02 -0.26402884150E+02 -0.40542256753E+03  0.40817760311E+03  0.00000000000E+00 0. -1.
<mgrwt>
<rscale>  1 0.30000000E+03</rscale>
<asrwt>0</asrwt>
<pdfrwt beam="1">  1       21 0.84611153E-02 0.30000000E+03</pdfrwt>
<pdfrwt beam="2">0</pdfrwt>
<totfact> 0.11574452E+04</totfact>
</mgrwt>
</event>
<event>
 6    1  0.6513574E-002  0.3000000E+03  0.7818608E-02  0.1093470E+00
         21   -1    0    0  501  502  0.00000000000E+00  0.00000000000E+00  0.13622293710E+01  0.13622293710E+01  0.00000000000E+00 0. -1.
         13   -1    0    0    0    0 -0.00000000000E+00 -0.00000000000E+00 -0.10000000000E+04  0.10000000000E+04  0.00000000000E+00 0.  1.
    9000005    2    1    2  501    0  0.22858161024E+02  0.24821664191E+02 -0.30050255492E+03  0.30241202374E+03  0.35547222795E+01 0.  0.
         13    1    3    3    0    0  0.16390049064E+02  0.16602184015E+02 -0.19425468336E+03  0.19565057687E+03  0.00000000000E+00 0.  1.
          1    1    3    3  501    0  0.64681119608E+01  0.82194801755E+01 -0.10624787156E+03  0.10676144687E+03  0.00000000000E+00 0.  1.
         -3    1    1    2    0  502 -0.22858161024E+02 -0.24821664191E+02 -0.69813521571E+03  0.69895020563E+03  0.00000000000E+00 0. -1.
<mgrwt>
<rscale>  1 0.30000000E+03</rscale>
<asrwt>0</asrwt>
<pdfrwt beam="1">  1       21 0.49535718E-02 0.30000000E+03</pdfrwt>
<pdfrwt beam="2">0</pdfrwt>
<totfact> 0.29266304E+04</totfact>
</mgrwt>
</event>
<event>
 6    1  0.6513574E-002  0.3000000E+03  0.7818608E-02  0.1093470E+00
         21   -1    0    0  501  502  0.00000000000E+00  0.00000000000E+00  0.23050262199E+01  0.23050262199E+01  0.00000000000E+00 0. -1.
         13   -1    0    0    0    0 -0.00000000000E+00 -0.00000000000E+00 -0.10000000000E+04  0.10000000000E+04  0.00000000000E+00 0.  1.
    9000005    2    1    2  501    0  0.45335813675E+02  0.13334916969E+02 -0.41429562907E+03  0.41699489354E+03  0.32736765059E+01 0.  0.
         13    1    3    3    0    0  0.26994584603E+02  0.90287064539E+01 -0.25987901930E+03  0.26143322247E+03  0.00000000000E+00 0.  1.
          1    1    3    3  501    0  0.18341229072E+02  0.43062105151E+01 -0.15441660977E+03  0.15556167107E+03  0.00000000000E+00 0.  1.
         -3    1    1    2    0  502 -0.45335813675E+02 -0.13334916969E+02 -0.58339934471E+03  0.58531013268E+03  0.00000000000E+00 0. -1.
<mgrwt>
<rscale>  1 0.30000000E+03</rscale>
<asrwt>0</asrwt>
<pdfrwt beam="1">  1       21 0.83819312E-02 0.30000000E+03</pdfrwt>
<pdfrwt beam="2">0</pdfrwt>
<totfact> 0.11767831E+04</totfact>
</mgrwt>
</event>
<event>
 6    1  0.6513574E-002  0.3000000E+03  0.7818608E-02  0.1093470E+00
         21   -1    0    0  501  502  0.00000000000E+00  0.00000000000E+00  0.15600884817E+01  0.15600884817E+01  0.00000000000E+00 0. -1.
         13   -1    0    0    0    0 -0.00000000000E+00 -0.00000000000E+00 -0.10000000000E+04  0.10000000000E+04  0.00000000000E+00 0.  1.
    9000005    2    1    2  501    0 -0.34980921921E+02 -0.15206488970E+02 -0.37305082165E+03  0.37500888073E+03  0.31373379817E+01 0.  0.
         13    1    3    3    0    0 -0.18080549560E+01 -0.92356498950E-01 -0.19330608530E+02  0.19415200710E+02  0.00000000000E+00 0.  1.
          1    1    3    3  501    0 -0.33172866965E+02 -0.15114132471E+02 -0.35372021312E+03  0.35559368002E+03  0.00000000000E+00 0.  1.
         -1    1    1    2    0  502  0.34980921921E+02  0.15206488970E+02 -0.62538908987E+03  0.62655120775E+03  0.00000000000E+00 0. -1.
<mgrwt>
<rscale>  1 0.30000000E+03</rscale>
<asrwt>0</asrwt>
<pdfrwt beam="1">  1       21 0.56730610E-02 0.30000000E+03</pdfrwt>
<pdfrwt beam="2">0</pdfrwt>
<totfact> 0.23206495E+04</totfact>
</mgrwt>
</event>
<event>
 6    1  0.6513574E-002  0.3000000E+03  0.7818608E-02  0.1093470E+00
         21   -1    0    0  501  502  0.00000000000E+00  0.00000000000E+00  0.27245816197E+01  0.27245816197E+01  0.00000000000E+00 0. -1.
         13   -1    0    0    0    0 -0.00000000000E+00 -0.00000000000E+00 -0.10000000000E+04  0.10000000000E+04  0.00000000000E+00 0.  1.
    9000005    2    1    2  501    0 -0.44941562819E+02  0.17343452146E+02 -0.30680236458E+03  0.31057316941E+03  0.27318938383E+01 0.  0.
         13    1    3    3    0    0 -0.28333266191E+02  0.12227460638E+02 -0.19955688421E+03  0.20192878646E+03  0.00000000000E+00 0.  1.
          3    1    3    3  501    0 -0.16608296628E+02  0.51159915073E+01 -0.10724548037E+03  0.10864438295E+03  0.00000000000E+00 0.  1.
         -1    1    1    2    0  502  0.44941562819E+02 -0.17343452146E+02 -0.69047305380E+03  0.69215141221E+03  0.00000000000E+00 0. -1.
<mgrwt>
<rscale>  1 0.30000000E+03</rscale>
<asrwt>0</asrwt>
<pdfrwt beam="1">  1       21 0.99075904E-02 0.30000000E+03</pdfrwt>
<pdfrwt beam="2">0</pdfrwt>
<totfact> 0.87470655E+03</totfact>
</mgrwt>
</event>
<event>
 6    1  0.6513574E-002  0.3000000E+03  0.7818608E-02  0.1093470E+00
         21   -1    0    0  501  502  0.00000000000E+00  0.00000000000E+00  0.54597892589E+01  0.54597892589E+01  0.00000000000E+00 0. -1.
         13   -1    0    0    0    0 -0.00000000000E+00 -0.00000000000E+00 -0.10000000000E+04  0.10000000000E+04  0.00000000000E+00 0.  1.
    9000005    2    1    2  501    0 -0.70728599533E+02 -0.13602199120E+02 -0.38712831979E+03  0.39379259226E+03  0.40884134418E+01 0.  0.
         13    1    3    3    0    0 -0.23967737688E+02 -0.62755848117E+01 -0.13877653174E+03  0.14097078129E+03  0.00000000000E+00 0.  1.
          1    1    3    3  501    0 -0.46760861845E+02 -0.73266143082E+01 -0.24835178804E+03  0.25282181097E+03  0.00000000000E+00 0.  1.
         -3    1    1    2    0  502  0.70728599533E+02  0.13602199120E+02 -0.60741189095E+03  0.61166719700E+03  0.00000000000E+00 0. -1.
<mgrwt>
<rscale>  1 0.30000000E+03</rscale>
<asrwt>0</asrwt>
<pdfrwt beam="1">  1       21 0.19853821E-01 0.30000000E+03</pdfrwt>
<pdfrwt beam="2">0</pdfrwt>
<totfact> 0.24330386E+03</totfact>
</mgrwt>
</event>
<event>
 6    1  0.6513574E-002  0.3000000E+03  0.7818608E-02  0.1093470E+00
         21   -1    0    0  501  502  0.00000000000E+00  0.00000000000E+00  0.17810477793E+01  0.17810477793E+01  0.00000000000E+00 0. -1.
         13   -1    0    0    0    0 -0.00000000000E+00 -0.00000000000E+00 -0.10000000000E+04  0.10000000000E+04  0.00000000000E+00 0.  1.
    9000005    2    1    2  501    0  0.10884171322E+02  0.40051262156E+02 -0.58568608368E+03  0.58716563995E+03  0.35680992434E+01 0.  0.
         13    1    3    3    0    0  0.10046467440E+02  0.38174561733E+02 -0.56517163279E+03  0.56654850029E+03  0.00000000000E+00 0.  1.
          3    1    3    3  501    0  0.83770388210E+00  0.18767004222E+01 -0.20514450886E+02  0.20617139652E+02  0.00000000000E+00 0.  1.
         -3    1    1    2    0  502 -0.10884171322E+02 -0.40051262156E+02 -0.41253286854E+03  0.41461540783E+03  0.00000000000E+00 0. -1.
<mgrwt>
<rscale>  1 0.30000000E+03</rscale>
<asrwt>0</asrwt>
<pdfrwt beam="1">  1       21 0.64765510E-02 0.30000000E+03</pdfrwt>
<pdfrwt beam="2">0</pdfrwt>
<totfact> 0.18465216E+04</totfact>
</mgrwt>
</event>
<event>
 6    1  0.6513574E-002  0.3000000E+03  0.7818608E-02  0.1093470E+00
         21   -1    0    0  501  502  0.00000000000E+00  0.00000000000E+00  0.12509691894E+01  0.12509691894E+01  0.00000000000E+00 0. -1.
         13   -1    0    0    0    0 -0.00000000000E+00 -0.00000000000E+00 -0.10000000000E+04  0.10000000000E+04  0.00000000000E+00 0.  1.
    9000005    2    1    2  501    0  0.26892995891E+02 -0.13333704529E+02 -0.23566618060E+03  0.23757796509E+03  0.19287076925E+01 0.  0.
         13    1    3    3    0    0  0.18614616589E+02 -0.83942465202E+01 -0.16398925472E+03  0.16525568974E+03  0.00000000000E+00 0.  1.
          1    1    3    3  501    0  0.82783793019E+01 -0.49394580085E+01 -0.71676925875E+02  0.72322275352E+02  0.00000000000E+00 0.  1.
         -3    1    1    2    0  502 -0.26892995891E+02  0.13333704529E+02 -0.76308285021E+03  0.76367300410E+03  0.00000000000E+00 0. -1.
<mgrwt>
<rscale>  1 0.30000000E+03</rscale>
<asrwt>0</asrwt>
<pdfrwt beam="1">  1       21 0.45489885E-02 0.30000000E+03</pdfrwt>
<pdfrwt beam="2">0</pdfrwt>
<totfact> 0.33830588E+04</totfact>
</mgrwt>
</event>
<event>
 6    1  0.6513574E-002  0.3000000E+03  0.7818608E-02  0.1093470E+00
         21   -1    0    0  501  502  0.00000000000E+00  0.00000000000E+00  0.10794157153E+01  0.10794157153E+01  0.00000000000E+00 0. -1.
         13   -1    0    0    0    0 -0.00000000000E+00 -0.00000000000E+00 -0.10000000000E+04  0.10000000000E+04  0.00000000000E+00 0.  1.
    9000005    2    1    2  501    0  0.30024178452E+02  0.13038539105E+02 -0.53429753906E+03  0.53530476103E+03  0.24232502286E+01 0.  0.
         13    1    3    3    0    0  0.24412706349E+02  0.10383326689E+02 -0.41694554045E+03  0.41778867553E+03  0.00000000000E+00 0.  1.
          3    1    3    3  501    0  0.56114721033E+01  0.26552124164E+01 -0.11735199862E+03  0.11751608550E+03  0.00000000000E+00 0.  1.
         -3    1    1    2    0  502 -0.30024178452E+02 -0.13038539105E+02 -0.46462304522E+03  0.46577465468E+03  0.00000000000E+00 0. -1.
<mgrwt>
<rscale>  1 0.30000000E+03</rscale>
<asrwt>0</asrwt>
<pdfrwt beam="1">  1       21 0.39251563E-02 0.30000000E+03</pdfrwt>
<pdfrwt beam="2">0</pdfrwt>
<totfact> 0.43405636E+04</totfact>
</mgrwt>
</event>
<event>
 6    1  0.6513574E-002  0.3000000E+03  0.7818608E-02  0.1093470E+00
         21   -1    0    0  501  502  0.00000000000E+00  0.00000000000E+00  0.10376076822E+01  0.10376076822E+01  0.00000000000E+00 0. -1.
         13   -1    0    0    0    0 -0.00000000000E+00 -0.00000000000E+00 -0.10000000000E+04  0.10000000000E+04  0.00000000000E+00 0.  1.
    9000005    2    1    2  501    0 -0.15581357740E+02  0.27191837495E+02 -0.60995328215E+03  0.61076813344E+03  0.35400111658E+01 0.  0.
         13    1    3    3    0    0 -0.22315636182E+01  0.47460619233E+01 -0.79958595943E+02  0.80130406495E+02  0.00000000000E+00 0.  1.
          3    1    3    3  501    0 -0.13349794122E+02  0.22445775571E+02 -0.52999468621E+03  0.53063772694E+03  0.00000000000E+00 0.  1.
         -3    1    1    2    0  502  0.15581357740E+02 -0.27191837495E+02 -0.38900911016E+03  0.39026947424E+03  0.00000000000E+00 0. -1.
<mgrwt>
<rscale>  1 0.30000000E+03</rscale>
<asrwt>0</asrwt>
<pdfrwt beam="1">  1       21 0.37731268E-02 0.30000000E+03</pdfrwt>
<pdfrwt beam="2">0</pdfrwt>
<totfact> 0.46385824E+04</totfact>
</mgrwt>
</event>
<event>
 6    1  0.6513574E-002  0.3000000E+03  0.7818608E-02  0.1093470E+00
         21   -1    0    0  501  502  0.00000000000E+00  0.00000000000E+00  0.17173233233E+01  0.17173233233E+01  0.00000000000E+00 0. -1.
         13   -1    0    0    0    0 -0.00000000000E+00 -0.00000000000E+00 -0.10000000000E+04  0.10000000000E+04  0.00000000000E+00 0.  1.
    9000005    2    1    2  501    0 -0.36372023290E+02  0.11049861250E+02 -0.69748804209E+03  0.69853019347E+03  0.31366894256E+01 0.  0.
         13    1    3    3    0    0 -0.29836996922E+02  0.92000024822E+01 -0.59330387866E+03  0.59412488490E+03  0.00000000000E+00 0.  1.
          1    1    3    3  501    0 -0.65350263684E+01  0.18498587674E+01 -0.10418416344E+03  0.10440530857E+03  0.00000000000E+00 0.  1.
         -3    1    1    2    0  502  0.36372023290E+02 -0.11049861250E+02 -0.30079463458E+03  0.30318712985E+03  0.00000000000E+00 0. -1.
<mgrwt>
<rscale>  1 0.30000000E+03</rscale>
<asrwt>0</asrwt>
<pdfrwt beam="1">  1       21 0.62448253E-02 0.30000000E+03</pdfrwt>
<pdfrwt beam="2">0</pdfrwt>
<totfact> 0.19666091E+04</totfact>
</mgrwt>
</event>
<event>
 6    1  0.6513574E-002  0.3000000E+03  0.7818608E-02  0.1093470E+00
         21   -1    0    0  501  502  0.00000000000E+00  0.00000000000E+00  0.73521136542E+01  0.73521136542E+01  0.00000000000E+00 0. -1.
         13   -1    0    0    0    0 -0.00000000000E+00 -0.00000000000E+00 -0.10000000000E+04  0.10000000000E+04  0.00000000000E+00 0.  1.
    9000005    2    1    2  501    0  0.74647599212E+01  0.62565543334E+02 -0.15523981560E+03  0.16757687777E+03  0.35270047299E+01 0.  0.
         13    1    3    3    0    0  0.17947919320E+01  0.13916782662E+02 -0.30821351971E+02  0.33865230769E+02  0.00000000000E+00 0.  1.
          3    1    3    3  501    0  0.56699679892E+01  0.48648760672E+02 -0.12441846362E+03  0.13371164700E+03  0.00000000000E+00 0.  1.
         -1    1    1    2    0  502 -0.74647599212E+01 -0.62565543334E+02 -0.83740807075E+03  0.83977523589E+03  0.00000000000E+00 0. -1.
<mgrwt>
<rscale>  1 0.30000000E+03</rscale>
<asrwt>0</asrwt>
<pdfrwt beam="1">  1       21 0.26735015E-01 0.30000000E+03</pdfrwt>
<pdfrwt beam="2">0</pdfrwt>
<totfact> 0.13668318E+03</totfact>
</mgrwt>
</event>
<event>
 6    1  0.6513574E-002  0.3000000E+03  0.7818608E-02  0.1093470E+00
         21   -1    0    0  501  502  0.00000000000E+00  0.00000000000E+00  0.25218770061E+01  0.25218770061E+01  0.00000000000E+00 0. -1.
         13   -1    0    0    0    0 -0.00000000000E+00 -0.00000000000E+00 -0.10000000000E+04  0.10000000000E+04  0.00000000000E+00 0.  1.
    9000005    2    1    2  501    0 -0.48165471105E+02 -0.10458735819E+02 -0.59265728596E+03  0.59471161738E+03  0.31545967055E+01 0.  0.
         13    1    3    3    0    0 -0.27011528674E+02 -0.54430980455E+01 -0.31295167741E+03  0.31416238220E+03  0.00000000000E+00 0.  1.
          3    1    3    3  501    0 -0.21153942431E+02 -0.50156377736E+01 -0.27970560856E+03  0.28054923518E+03  0.00000000000E+00 0.  1.
         -3    1    1    2    0  502  0.48165471105E+02  0.10458735819E+02 -0.40482083703E+03  0.40781025963E+03  0.00000000000E+00 0. -1.
<mgrwt>
<rscale>  1 0.30000000E+03</rscale>
<asrwt>0</asrwt>
<pdfrwt beam="1">  1       21 0.91704812E-02 0.30000000E+03</pdfrwt>
<pdfrwt beam="2">0</pdfrwt>
<totfact> 0.10038444E+04</totfact>
</mgrwt>
</event>
<event>
 6    1  0.6513574E-002  0.3000000E+03  0.7818608E-02  0.1093470E+00
         21   -1    0    0  501  502  0.00000000000E+00  0.00000000000E+00  0.27301837037E+01  0.27301837037E+01  0.00000000000E+00 0. -1.
         13   -1    0    0    0    0 -0.00000000000E+00 -0.00000000000E+00 -0.10000000000E+04  0.10000000000E+04  0.00000000000E+00 0.  1.
    9000005    2    1    2  501    0 -0.37999710241E+02  0.18320848125E+02 -0.79410336698E+03  0.79523021363E+03  0.33621065158E+01 0.  0.
         13    1    3    3    0    0 -0.32846990252E+01  0.20983683406E+01 -0.91047998839E+02  0.91131391353E+02  0.00000000000E+00 0.  1.
          1    1    3    3  501    0 -0.34715011216E+02  0.16222479785E+02 -0.70305536814E+03  0.70409882227E+03  0.00000000000E+00 0.  1.
         -1    1    1    2    0  502  0.37999710241E+02 -0.18320848125E+02 -0.20316644932E+03  0.20749997008E+03  0.00000000000E+00 0. -1.
<mgrwt>
<rscale>  1 0.30000000E+03</rscale>
<asrwt>0</asrwt>
<pdfrwt beam="1">  1       21 0.99279617E-02 0.30000000E+03</pdfrwt>
<pdfrwt beam="2">0</pdfrwt>
<totfact> 0.87150364E+03</totfact>
</mgrwt>
</event>
<event>
 6    1  0.6513574E-002  0.3000000E+03  0.7818608E-02  0.1093470E+00
         21   -1    0    0  501  502  0.00000000000E+00  0.00000000000E+00  0.14504018797E+01  0.14504018797E+01  0.00000000000E+00 0. -1.
         13   -1    0    0    0    0 -0.00000000000E+00 -0.00000000000E+00 -0.10000000000E+04  0.10000000000E+04  0.00000000000E+00 0.  1.
    9000005    2    1    2  501    0 -0.16392888769E+02 -0.34088615213E+02 -0.51095605440E+03  0.51239189376E+03  0.62131128046E+01 0.  0.
         13    1    3    3    0    0 -0.13080180143E+02 -0.29393808364E+02 -0.45689672070E+03  0.45802805642E+03  0.00000000000E+00 0.  1.
          3    1    3    3  501    0 -0.33127086257E+01 -0.46948068485E+01 -0.54059333701E+02  0.54363837336E+02  0.00000000000E+00 0.  1.
         -3    1    1    2    0  502  0.16392888769E+02  0.34088615213E+02 -0.48759354372E+03  0.48905850812E+03  0.00000000000E+00 0. -1.
<mgrwt>
<rscale>  1 0.30000000E+03</rscale>
<asrwt>0</asrwt>
<pdfrwt beam="1">  1       21 0.52741998E-02 0.30000000E+03</pdfrwt>
<pdfrwt beam="2">0</pdfrwt>
<totfact> 0.26295382E+04</totfact>
</mgrwt>
</event>
<event>
 6    1  0.6513574E-002  0.3000000E+03  0.7818608E-02  0.1093470E+00
         21   -1    0    0  501  502  0.00000000000E+00  0.00000000000E+00  0.15208361313E+01  0.15208361313E+01  0.00000000000E+00 0. -1.
         13   -1    0    0    0    0 -0.00000000000E+00 -0.00000000000E+00 -0.10000000000E+04  0.10000000000E+04  0.00000000000E+00 0.  1.
    9000005    2    1    2  501    0  0.31345396500E+02  0.72930296010E+01 -0.21846656079E+03  0.22084460163E+03  0.29962844845E+01 0.  0.
         13    1    3    3    0    0  0.23855481669E+02  0.42514688332E+01 -0.16571519578E+03  0.16747741670E+03  0.00000000000E+00 0.  1.
          3    1    3    3  501    0  0.74899148305E+01  0.30415607678E+01 -0.52751365016E+02  0.53367184928E+02  0.00000000000E+00 0.  1.
         -3    1    1    2    0  502 -0.31345396500E+02 -0.72930296010E+01 -0.78001260308E+03  0.78067623451E+03  0.00000000000E+00 0. -1.
<mgrwt>
<rscale>  1 0.30000000E+03</rscale>
<asrwt>0</asrwt>
<pdfrwt beam="1">  1       21 0.55303249E-02 0.30000000E+03</pdfrwt>
<pdfrwt beam="2">0</pdfrwt>
<totfact> 0.24244442E+04</totfact>
</mgrwt>
</event>
<event>
 6    1  0.6513574E-002  0.3000000E+03  0.7818608E-02  0.1093470E+00
         21   -1    0    0  501  502  0.00000000000E+00  0.00000000000E+00  0.15578237551E+01  0.15578237551E+01  0.00000000000E+00 0. -1.
         13   -1    0    0    0    0 -0.00000000000E+00 -0.00000000000E+00 -0.10000000000E+04  0.10000000000E+04  0.00000000000E+00 0.  1.
    9000005    2    1    2  501    0 -0.35568554388E+02 -0.35520580043E+01 -0.30165625747E+03  0.30385562669E+03  0.73488112680E+01 0.  0.
         13    1    3    3    0    0 -0.17641204718E+02 -0.91317074063E+00 -0.17875452064E+03  0.17962523385E+03  0.00000000000E+00 0.  1.
          1    1    3    3  501    0 -0.17927349670E+02 -0.26388872637E+01 -0.12290173683E+03  0.12423039285E+03  0.00000000000E+00 0.  1.
         -3    1    1    2    0  502  0.35568554388E+02  0.35520580043E+01 -0.69678591878E+03  0.69770219706E+03  0.00000000000E+00 0. -1.
<mgrwt>
<rscale>  1 0.30000000E+03</rscale>
<asrwt>0</asrwt>
<pdfrwt beam="1">  1       21 0.56648256E-02 0.30000000E+03</pdfrwt>
<pdfrwt beam="2">0</pdfrwt>
<totfact> 0.23264511E+04</totfact>
</mgrwt>
</event>
<event>
 6    1  0.6513574E-002  0.3000000E+03  0.7818608E-02  0.1093470E+00
         21   -1    0    0  501  502  0.00000000000E+00  0.00000000000E+00  0.95127247924E+00  0.95127247924E+00  0.00000000000E+00 0. -1.
         13   -1    0    0    0    0 -0.00000000000E+00 -0.00000000000E+00 -0.10000000000E+04  0.10000000000E+04  0.00000000000E+00 0.  1.
    9000005    2    1    2  501    0 -0.26163015867E+02  0.15998718384E+02 -0.53822528809E+03  0.53910854522E+03  0.33317270943E+01 0.  0.
         13    1    3    3    0    0 -0.26457542219E+00 -0.17145205343E+00 -0.56607211058E+01  0.56694937515E+01  0.00000000000E+00 0.  1.
          3    1    3    3  501    0 -0.25898440445E+02  0.16170170437E+02 -0.53256456698E+03  0.53343905147E+03  0.00000000000E+00 0.  1.
         -1    1    1    2    0  502  0.26163015867E+02 -0.15998718384E+02 -0.46082343943E+03  0.46184272726E+03  0.00000000000E+00 0. -1.
<mgrwt>
<rscale>  1 0.30000000E+03</rscale>
<asrwt>0</asrwt>
<pdfrwt beam="1">  1       21 0.34591799E-02 0.30000000E+03</pdfrwt>
<pdfrwt beam="2">0</pdfrwt>
<totfact> 0.53660180E+04</totfact>
</mgrwt>
</event>
<event>
 6    1  0.6513574E-002  0.3000000E+03  0.7818608E-02  0.1093470E+00
         21   -1    0    0  501  502  0.00000000000E+00  0.00000000000E+00  0.13154949184E+01  0.13154949184E+01  0.00000000000E+00 0. -1.
         13   -1    0    0    0    0 -0.00000000000E+00 -0.00000000000E+00 -0.10000000000E+04  0.10000000000E+04  0.00000000000E+00 0.  1.
    9000005    2    1    2  501    0 -0.27613694934E+02  0.18202264476E+02 -0.29743115703E+03  0.29928266326E+03  0.33137249107E+01 0.  0.
         13    1    3    3    0    0 -0.30811179408E-01 -0.12075890025E+00 -0.10957059879E+01  0.11027708976E+01  0.00000000000E+00 0.  1.
          1    1    3    3  501    0 -0.27582883754E+02  0.18323023376E+02 -0.29633545104E+03  0.29817989236E+03  0.00000000000E+00 0.  1.
         -3    1    1    2    0  502  0.27613694934E+02 -0.18202264476E+02 -0.70125334805E+03  0.70203283166E+03  0.00000000000E+00 0. -1.
<mgrwt>
<rscale>  1 0.30000000E+03</rscale>
<asrwt>0</asrwt>
<pdfrwt beam="1">  1       21 0.47836280E-02 0.30000000E+03</pdfrwt>
<pdfrwt beam="2">0</pdfrwt>
<totfact> 0.31058574E+04</totfact>
</mgrwt>
</event>
<event>
 6    1  0.6513574E-002  0.3000000E+03  0.7818608E-02  0.1093470E+00
         21   -1    0    0  501  502  0.00000000000E+00  0.00000000000E+00  0.71279680269E+01  0.71279680269E+01  0.00000000000E+00 0. -1.
         13   -1    0    0    0    0 -0.00000000000E+00 -0.00000000000E+00 -0.10000000000E+04  0.10000000000E+04  0.00000000000E+00 0.  1.
    9000005    2    1    2  501    0  0.66783396971E+02  0.19023091189E+02 -0.78272584058E+03  0.78580620709E+03  0.31230549632E+01 0.  0.
         13    1    3    3    0    0  0.34540037247E+02  0.87327674856E+01 -0.38846945891E+03  0.39009972559E+03  0.00000000000E+00 0.  1.
          3    1    3    3  501    0  0.32243359725E+02  0.10290323703E+02 -0.39425638167E+03  0.39570648150E+03  0.00000000000E+00 0.  1.
         -3    1    1    2    0  502 -0.66783396971E+02 -0.19023091189E+02 -0.21014619139E+03  0.22132176094E+03  0.00000000000E+00 0. -1.
<mgrwt>
<rscale>  1 0.30000000E+03</rscale>
<asrwt>0</asrwt>
<pdfrwt beam="1">  1       21 0.25919938E-01 0.30000000E+03</pdfrwt>
<pdfrwt beam="2">0</pdfrwt>
<totfact> 0.14528062E+03</totfact>
</mgrwt>
</event>
<event>
 6    1  0.6513574E-002  0.3000000E+03  0.7818608E-02  0.1093470E+00
         21   -1    0    0  501  502  0.00000000000E+00  0.00000000000E+00  0.20766496805E+01  0.20766496805E+01  0.00000000000E+00 0. -1.
         13   -1    0    0    0    0 -0.00000000000E+00 -0.00000000000E+00 -0.10000000000E+04  0.10000000000E+04  0.00000000000E+00 0.  1.
    9000005    2    1    2  501    0  0.38931203875E+02 -0.64108189000E+01 -0.25717837475E+03  0.26028162674E+03  0.70051083551E+01 0.  0.
         13    1    3    3    0    0  0.35799073591E+02 -0.38097842740E+01 -0.23108023529E+03  0.23386783291E+03  0.00000000000E+00 0.  1.
          1    1    3    3  501    0  0.31321302838E+01 -0.26010346260E+01 -0.26098139460E+02  0.26413793831E+02  0.00000000000E+00 0.  1.
         -3    1    1    2    0  502 -0.38931203875E+02  0.64108189000E+01 -0.74074497557E+03  0.74179502294E+03  0.00000000000E+00 0. -1.
<mgrwt>
<rscale>  1 0.30000000E+03</rscale>
<asrwt>0</asrwt>
<pdfrwt beam="1">  1       21 0.75514693E-02 0.30000000E+03</pdfrwt>
<pdfrwt beam="2">0</pdfrwt>
<totfact> 0.14134172E+04</totfact>
</mgrwt>
</event>
<event>
 6    1  0.6513574E-002  0.3000000E+03  0.7818608E-02  0.1093470E+00
         21   -1    0    0  501  502  0.00000000000E+00  0.00000000000E+00  0.29143954659E+01  0.29143954659E+01  0.00000000000E+00 0. -1.
         13   -1    0    0    0    0 -0.00000000000E+00 -0.00000000000E+00 -0.10000000000E+04  0.10000000000E+04  0.00000000000E+00 0.  1.
    9000005    2    1    2  501    0  0.48294514150E+02 -0.23935135208E+02 -0.51351313538E+03  0.51634725342E+03  0.36735694927E+01 0.  0.
         13    1    3    3    0    0  0.21769873067E+02 -0.98247708608E+01 -0.21217262993E+03  0.21351271248E+03  0.00000000000E+00 0.  1.
          1    1    3    3  501    0  0.26524641083E+02 -0.14110364347E+02 -0.30134050545E+03  0.30283454095E+03  0.00000000000E+00 0.  1.
         -3    1    1    2    0  502 -0.48294514150E+02  0.23935135208E+02 -0.48357246915E+03  0.48656714204E+03  0.00000000000E+00 0. -1.
<mgrwt>
<rscale>  1 0.30000000E+03</rscale>
<asrwt>0</asrwt>
<pdfrwt beam="1">  1       21 0.10597824E-01 0.30000000E+03</pdfrwt>
<pdfrwt beam="2">0</pdfrwt>
<totfact> 0.77538532E+03</totfact>
</mgrwt>
</event>
<event>
 6    1  0.6513574E-002  0.3000000E+03  0.7818608E-02  0.1093470E+00
         21   -1    0    0  501  502  0.00000000000E+00  0.00000000000E+00  0.22944588799E+01  0.22944588799E+01  0.00000000000E+00 0. -1.
         13   -1    0    0    0    0 -0.00000000000E+00 -0.00000000000E+00 -0.10000000000E+04  0.10000000000E+04  0.00000000000E+00 0.  1.
    9000005    2    1    2  501    0 -0.30710572054E+02 -0.10032482380E+02 -0.13025738252E+03  0.13424486479E+03  0.33027387588E+01 0.  0.
         13    1    3    3    0    0 -0.29542207666E+02 -0.94304570073E+01 -0.12179054720E+03  0.12567662050E+03  0.00000000000E+00 0.  1.
          3    1    3    3  501    0 -0.11683643875E+01 -0.60202537296E+00 -0.84668353178E+01  0.85682442887E+01  0.00000000000E+00 0.  1.
         -1    1    1    2    0  502  0.30710572054E+02  0.10032482380E+02 -0.86744815860E+03  0.86804959409E+03  0.00000000000E+00 0. -1.
<mgrwt>
<rscale>  1 0.30000000E+03</rscale>
<asrwt>0</asrwt>
<pdfrwt beam="1">  1       21 0.83435044E-02 0.30000000E+03</pdfrwt>
<pdfrwt beam="2">0</pdfrwt>
<totfact> 0.11863459E+04</totfact>
</mgrwt>
</event>
<event>
 6    1  0.6513574E-002  0.3000000E+03  0.7818608E-02  0.1093470E+00
         21   -1    0    0  501  502  0.00000000000E+00  0.00000000000E+00  0.10027137512E+01  0.10027137512E+01  0.00000000000E+00 0. -1.
         13   -1    0    0    0    0 -0.00000000000E+00 -0.00000000000E+00 -0.10000000000E+04  0.10000000000E+04  0.00000000000E+00 0.  1.
    9000005    2    1    2  501    0  0.51521057679E+01  0.29771177359E+02 -0.64466808182E+03  0.64538767989E+03  0.39312141101E+01 0.  0.
         13    1    3    3    0    0  0.18475524510E+00  0.56086712977E+01 -0.93993484412E+02  0.94160854075E+02  0.00000000000E+00 0.  1.
          3    1    3    3  501    0  0.49673505228E+01  0.24162506061E+02 -0.55067459741E+03  0.55122682582E+03  0.00000000000E+00 0.  1.
         -3    1    1    2    0  502 -0.51521057679E+01 -0.29771177359E+02 -0.35432920443E+03  0.35561503386E+03  0.00000000000E+00 0. -1.
<mgrwt>
<rscale>  1 0.30000000E+03</rscale>
<asrwt>0</asrwt>
<pdfrwt beam="1">  1       21 0.36462395E-02 0.30000000E+03</pdfrwt>
<pdfrwt beam="2">0</pdfrwt>
<totfact> 0.49127335E+04</totfact>
</mgrwt>
</event>
<event>
 6    1  0.6513574E-002  0.3000000E+03  0.7818608E-02  0.1093470E+00
         21   -1    0    0  501  502  0.00000000000E+00  0.00000000000E+00  0.12685376877E+01  0.12685376877E+01  0.00000000000E+00 0. -1.
         13   -1    0    0    0    0 -0.00000000000E+00 -0.00000000000E+00 -0.10000000000E+04  0.10000000000E+04  0.00000000000E+00 0.  1.
    9000005    2    1    2  501    0 -0.25466162292E+02 -0.23834955580E+02 -0.40372934723E+03  0.40524492449E+03  0.30712352267E+01 0.  0.
         13    1    3    3    0    0 -0.20246176061E+02 -0.19993177166E+02 -0.33889396049E+03  0.34008638790E+03  0.00000000000E+00 0.  1.
          1    1    3    3  501    0 -0.52199862312E+01 -0.38417784141E+01 -0.64835386733E+02  0.65158536590E+02  0.00000000000E+00 0.  1.
         -1    1    1    2    0  502  0.25466162292E+02  0.23834955580E+02 -0.59500211509E+03  0.59602361320E+03  0.00000000000E+00 0. -1.
<mgrwt>
<rscale>  1 0.30000000E+03</rscale>
<asrwt>0</asrwt>
<pdfrwt beam="1">  1       21 0.46128740E-02 0.30000000E+03</pdfrwt>
<pdfrwt beam="2">0</pdfrwt>
<totfact> 0.33038528E+04</totfact>
</mgrwt>
</event>
<event>
 6    1  0.6513574E-002  0.3000000E+03  0.7818608E-02  0.1093470E+00
         21   -1    0    0  501  502  0.00000000000E+00  0.00000000000E+00  0.13179342995E+01  0.13179342995E+01  0.00000000000E+00 0. -1.
         13   -1    0    0    0    0 -0.00000000000E+00 -0.00000000000E+00 -0.10000000000E+04  0.10000000000E+04  0.00000000000E+00 0.  1.
    9000005    2    1    2  501    0 -0.33180310742E+02  0.65836266648E+01 -0.68012524738E+03  0.68097011761E+03  0.23815518742E+01 0.  0.
         13    1    3    3    0    0 -0.11285820189E+02  0.30577461852E+01 -0.25109353465E+03  0.25136563547E+03  0.00000000000E+00 0.  1.
          3    1    3    3  501    0 -0.21894490554E+02  0.35258804796E+01 -0.42903171273E+03  0.42960448214E+03  0.00000000000E+00 0.  1.
         -3    1    1    2    0  502  0.33180310742E+02 -0.65836266648E+01 -0.31855681832E+03  0.32034781669E+03  0.00000000000E+00 0. -1.
<mgrwt>
<rscale>  1 0.30000000E+03</rscale>
<asrwt>0</asrwt>
<pdfrwt beam="1">  1       21 0.47924985E-02 0.30000000E+03</pdfrwt>
<pdfrwt beam="2">0</pdfrwt>
<totfact> 0.30960828E+04</totfact>
</mgrwt>
</event>
<event>
 6    1  0.6513574E-002  0.3000000E+03  0.7818608E-02  0.1093470E+00
         21   -1    0    0  501  502  0.00000000000E+00  0.00000000000E+00  0.12052156805E+01  0.12052156805E+01  0.00000000000E+00 0. -1.
         13   -1    0    0    0    0 -0.00000000000E+00 -0.00000000000E+00 -0.10000000000E+04  0.10000000000E+04  0.00000000000E+00 0.  1.
    9000005    2    1    2  501    0 -0.33609302019E+00  0.31677241948E+02 -0.31206861465E+03  0.31374874963E+03  0.69207676052E+01 0.  0.
         13    1    3    3    0    0 -0.21579974360E+01  0.36809301097E+01 -0.50452428217E+02  0.50632536105E+02  0.00000000000E+00 0.  1.
          3    1    3    3  501    0  0.18219044158E+01  0.27996311838E+02 -0.26161618644E+03  0.26311621352E+03  0.00000000000E+00 0.  1.
         -1    1    1    2    0  502  0.33609302019E+00 -0.31677241948E+02 -0.68672616967E+03  0.68745646605E+03  0.00000000000E+00 0. -1.
<mgrwt>
<rscale>  1 0.30000000E+03</rscale>
<asrwt>0</asrwt>
<pdfrwt beam="1">  1       21 0.43826117E-02 0.30000000E+03</pdfrwt>
<pdfrwt beam="2">0</pdfrwt>
<totfact> 0.36037285E+04</totfact>
</mgrwt>
</event>
<event>
 6    1  0.6513574E-002  0.3000000E+03  0.7818608E-02  0.1093470E+00
         21   -1    0    0  501  502  0.00000000000E+00  0.00000000000E+00  0.17295155344E+01  0.17295155344E+01  0.00000000000E+00 0. -1.
         13   -1    0    0    0    0 -0.00000000000E+00 -0.00000000000E+00 -0.10000000000E+04  0.10000000000E+04  0.00000000000E+00 0.  1.
    9000005    2    1    2  501    0 -0.39335643341E+02  0.11432921986E+02 -0.41635301166E+03  0.41837203534E+03  0.27064911000E+01 0.  0.
         13    1    3    3    0    0 -0.26897163441E+02  0.85441291643E+01 -0.29703026138E+03  0.29836795357E+03  0.00000000000E+00 0.  1.
          3    1    3    3  501    0 -0.12438479900E+02  0.28887928221E+01 -0.11932275028E+03  0.12000408177E+03  0.00000000000E+00 0.  1.
         -1    1    1    2    0  502  0.39335643341E+02 -0.11432921986E+02 -0.58191747281E+03  0.58335748020E+03  0.00000000000E+00 0. -1.
<mgrwt>
<rscale>  1 0.30000000E+03</rscale>
<asrwt>0</asrwt>
<pdfrwt beam="1">  1       21 0.62891607E-02 0.30000000E+03</pdfrwt>
<pdfrwt beam="2">0</pdfrwt>
<totfact> 0.19427145E+04</totfact>
</mgrwt>
</event>
<event>
 6    1  0.6513574E-002  0.3000000E+03  0.7818608E-02  0.1093470E+00
         21   -1    0    0  501  502  0.00000000000E+00  0.00000000000E+00  0.10232268325E+01  0.10232268325E+01  0.00000000000E+00 0. -1.
         13   -1    0    0    0    0 -0.00000000000E+00 -0.00000000000E+00 -0.10000000000E+04  0.10000000000E+04  0.00000000000E+00 0.  1.
    9000005    2    1    2  501    0 -0.30252311624E+02  0.79259023701E+01 -0.59683744194E+03  0.59766970446E+03  0.40151270835E+01 0.  0.
         13    1    3    3    0    0 -0.10480611567E+02  0.24242710058E+01 -0.17102573079E+03  0.17136370940E+03  0.00000000000E+00 0.  1.
          1    1    3    3  501    0 -0.19771700058E+02  0.55016313643E+01 -0.42581171115E+03  0.42630599506E+03  0.00000000000E+00 0.  1.
         -1    1    1    2    0  502  0.30252311624E+02 -0.79259023701E+01 -0.40213933123E+03  0.40335352237E+03  0.00000000000E+00 0. -1.
<mgrwt>
<rscale>  1 0.30000000E+03</rscale>
<asrwt>0</asrwt>
<pdfrwt beam="1">  1       21 0.37208327E-02 0.30000000E+03</pdfrwt>
<pdfrwt beam="2">0</pdfrwt>
<totfact> 0.47485773E+04</totfact>
</mgrwt>
</event>
<event>
 6    1  0.6513574E-002  0.3000000E+03  0.7818608E-02  0.1093470E+00
         21   -1    0    0  501  502  0.00000000000E+00  0.00000000000E+00  0.14888245094E+01  0.14888245094E+01  0.00000000000E+00 0. -1.
         13   -1    0    0    0    0 -0.00000000000E+00 -0.00000000000E+00 -0.10000000000E+04  0.10000000000E+04  0.00000000000E+00 0.  1.
    9000005    2    1    2  501    0 -0.36423436320E+01  0.37576725495E+02 -0.40267034268E+03  0.40445316811E+03  0.36991019682E+01 0.  0.
         13    1    3    3    0    0 -0.26796381781E+00  0.20163887164E+02 -0.20603488380E+03  0.20701938917E+03  0.00000000000E+00 0.  1.
          1    1    3    3  501    0 -0.33743798142E+01  0.17412838331E+02 -0.19663545888E+03  0.19743377894E+03  0.00000000000E+00 0.  1.
         -3    1    1    2    0  502  0.36423436320E+01 -0.37576725495E+02 -0.59584083281E+03  0.59703565640E+03  0.00000000000E+00 0. -1.
<mgrwt>
<rscale>  1 0.30000000E+03</rscale>
<asrwt>0</asrwt>
<pdfrwt beam="1">  1       21 0.54139187E-02 0.30000000E+03</pdfrwt>
<pdfrwt beam="2">0</pdfrwt>
<totfact> 0.25144793E+04</totfact>
</mgrwt>
</event>
<event>
 6    1  0.6513574E-002  0.3000000E+03  0.7818608E-02  0.1093470E+00
         21   -1    0    0  501  502  0.00000000000E+00  0.00000000000E+00  0.16817190447E+01  0.16817190447E+01  0.00000000000E+00 0. -1.
         13   -1    0    0    0    0 -0.00000000000E+00 -0.00000000000E+00 -0.10000000000E+04  0.10000000000E+04  0.00000000000E+00 0.  1.
    9000005    2    1    2  501    0  0.21355592551E+02  0.23491894597E+02 -0.18414538193E+03  0.18689006473E+03  0.32317427332E+01 0.  0.
         13    1    3    3    0    0  0.22374550222E+00  0.20089311766E-01 -0.49268094943E+00  0.54147959162E+00  0.00000000000E+00 0.  1.
          3    1    3    3  501    0  0.21131847049E+02  0.23471805285E+02 -0.18365270098E+03  0.18634858514E+03  0.00000000000E+00 0.  1.
         -3    1    1    2    0  502 -0.21355592551E+02 -0.23491894597E+02 -0.81417289902E+03  0.81479165432E+03  0.00000000000E+00 0. -1.
<mgrwt>
<rscale>  1 0.30000000E+03</rscale>
<asrwt>0</asrwt>
<pdfrwt beam="1">  1       21 0.61153549E-02 0.30000000E+03</pdfrwt>
<pdfrwt beam="2">0</pdfrwt>
<totfact> 0.20390591E+04</totfact>
</mgrwt>
</event>
<event>
 6    1  0.6513574E-002  0.3000000E+03  0.7818608E-02  0.1093470E+00
         21   -1    0    0  501  502  0.00000000000E+00  0.00000000000E+00  0.15474283327E+01  0.15474283327E+01  0.00000000000E+00 0. -1.
         13   -1    0    0    0    0 -0.00000000000E+00 -0.00000000000E+00 -0.10000000000E+04  0.10000000000E+04  0.00000000000E+00 0.  1.
    9000005    2    1    2  501    0  0.23323134050E+02 -0.30702922903E+02 -0.40492872422E+03  0.40677251666E+03  0.31576195898E+01 0.  0.
         13    1    3    3    0    0  0.21981355537E+02 -0.28565452507E+02 -0.36941941142E+03  0.37117363403E+03  0.00000000000E+00 0.  1.
          1    1    3    3  501    0  0.13417785132E+01 -0.21374703958E+01 -0.35509312799E+02  0.35598882633E+02  0.00000000000E+00 0.  1.
         -1    1    1    2    0  502 -0.23323134050E+02  0.30702922903E+02 -0.59352384745E+03  0.59477491167E+03  0.00000000000E+00 0. -1.
<mgrwt>
<rscale>  1 0.30000000E+03</rscale>
<asrwt>0</asrwt>
<pdfrwt beam="1">  1       21 0.56270240E-02 0.30000000E+03</pdfrwt>
<pdfrwt beam="2">0</pdfrwt>
<totfact> 0.23533687E+04</totfact>
</mgrwt>
</event>
<event>
 6    1  0.6513574E-002  0.3000000E+03  0.7818608E-02  0.1093470E+00
         21   -1    0    0  501  502  0.00000000000E+00  0.00000000000E+00  0.59159262517E+01  0.59159262517E+01  0.00000000000E+00 0. -1.
         13   -1    0    0    0    0 -0.00000000000E+00 -0.00000000000E+00 -0.10000000000E+04  0.10000000000E+04  0.00000000000E+00 0.  1.
    9000005    2    1    2  501    0 -0.75562281955E+02 -0.98945424754E+01 -0.43133397123E+03  0.43802928412E+03  0.36191969120E+01 0.  0.
         13    1    3    3    0    0 -0.36727575778E+02 -0.47713069519E+01 -0.22002185053E+03  0.22311722234E+03  0.00000000000E+00 0.  1.
          3    1    3    3  501    0 -0.38834706177E+02 -0.51232355234E+01 -0.21131212070E+03  0.21491206178E+03  0.00000000000E+00 0.  1.
         -1    1    1    2    0  502  0.75562281955E+02  0.98945424754E+01 -0.56275010252E+03  0.56788664213E+03  0.00000000000E+00 0. -1.
<mgrwt>
<rscale>  1 0.30000000E+03</rscale>
<asrwt>0</asrwt>
<pdfrwt beam="1">  1       21 0.21512504E-01 0.30000000E+03</pdfrwt>
<pdfrwt beam="2">0</pdfrwt>
<totfact> 0.20866069E+03</totfact>
</mgrwt>
</event>
<event>
 6    1  0.6513574E-002  0.3000000E+03  0.7818608E-02  0.1093470E+00
         21   -1    0    0  501  502  0.00000000000E+00  0.00000000000E+00  0.31072265542E+01  0.31072265542E+01  0.00000000000E+00 0. -1.
         13   -1    0    0    0    0 -0.00000000000E+00 -0.00000000000E+00 -0.10000000000E+04  0.10000000000E+04  0.00000000000E+00 0.  1.
    9000005    2    1    2  501    0 -0.42316352250E+02 -0.35499549101E+02 -0.56372014712E+03  0.56642723405E+03  0.29181419391E+01 0.  0.
         13    1    3    3    0    0 -0.12243317994E+02 -0.96654685051E+01 -0.17205836462E+03  0.17276400364E+03  0.00000000000E+00 0.  1.
          3    1    3    3  501    0 -0.30073034255E+02 -0.25834080596E+02 -0.39166178249E+03  0.39366323041E+03  0.00000000000E+00 0.  1.
         -3    1    1    2    0  502  0.42316352250E+02  0.35499549101E+02 -0.43317262633E+03  0.43667999250E+03  0.00000000000E+00 0. -1.
<mgrwt>
<rscale>  1 0.30000000E+03</rscale>
<asrwt>0</asrwt>
<pdfrwt beam="1">  1       21 0.11299029E-01 0.30000000E+03</pdfrwt>
<pdfrwt beam="2">0</pdfrwt>
<totfact> 0.69099859E+03</totfact>
</mgrwt>
</event>
<event>
 6    1  0.6513574E-002  0.3000000E+03  0.7818608E-02  0.1093470E+00
         21   -1    0    0  501  502  0.00000000000E+00  0.00000000000E+00  0.11074944647E+01  0.11074944647E+01  0.00000000000E+00 0. -1.
         13   -1    0    0    0    0 -0.00000000000E+00 -0.00000000000E+00 -0.10000000000E+04  0.10000000000E+04  0.00000000000E+00 0.  1.
    9000005    2    1    2  501    0  0.31721010500E+02  0.87137809435E+01 -0.56838607216E+03  0.56934605378E+03  0.31700856248E+01 0.  0.
         13    1    3    3    0    0  0.17836310446E+02  0.40192312085E+01 -0.29241460474E+03  0.29298564684E+03  0.00000000000E+00 0.  1.
          3    1    3    3  501    0  0.13884700054E+02  0.46945497350E+01 -0.27597146742E+03  0.27636040693E+03  0.00000000000E+00 0.  1.
         -1    1    1    2    0  502 -0.31721010500E+02 -0.87137809435E+01 -0.43050643338E+03  0.43176144069E+03  0.00000000000E+00 0. -1.
<mgrwt>
<rscale>  1 0.30000000E+03</rscale>
<asrwt>0</asrwt>
<pdfrwt beam="1">  1       21 0.40272611E-02 0.30000000E+03</pdfrwt>
<pdfrwt beam="2">0</pdfrwt>
<totfact> 0.41569036E+04</totfact>
</mgrwt>
</event>
<event>
 6    1  0.6513574E-002  0.3000000E+03  0.7818608E-02  0.1093470E+00
         21   -1    0    0  501  502  0.00000000000E+00  0.00000000000E+00  0.17193799376E+01  0.17193799376E+01  0.00000000000E+00 0. -1.
         13   -1    0    0    0    0 -0.00000000000E+00 -0.00000000000E+00 -0.10000000000E+04  0.10000000000E+04  0.00000000000E+00 0.  1.
    9000005    2    1    2  501    0  0.25062467999E+02 -0.31302992281E+02 -0.62471140695E+03  0.62600411326E+03  0.29670219230E+01 0.  0.
         13    1    3    3    0    0  0.39796990836E+01 -0.52872145913E+01 -0.12109159228E+03  0.12127228193E+03  0.00000000000E+00 0.  1.
          3    1    3    3  501    0  0.21082768915E+02 -0.26015777690E+02 -0.50361981467E+03  0.50473183134E+03  0.00000000000E+00 0.  1.
         -1    1    1    2    0  502 -0.25062467999E+02  0.31302992281E+02 -0.37356921311E+03  0.37571526667E+03  0.00000000000E+00 0. -1.
<mgrwt>
<rscale>  1 0.30000000E+03</rscale>
<asrwt>0</asrwt>
<pdfrwt beam="1">  1       21 0.62523039E-02 0.30000000E+03</pdfrwt>
<pdfrwt beam="2">0</pdfrwt>
<totfact> 0.19625466E+04</totfact>
</mgrwt>
</event>
<event>
 6    1  0.6513574E-002  0.3000000E+03  0.7818608E-02  0.1093470E+00
         21   -1    0    0  501  502  0.00000000000E+00  0.00000000000E+00  0.13615547671E+01  0.13615547671E+01  0.00000000000E+00 0. -1.
         13   -1    0    0    0    0 -0.00000000000E+00 -0.00000000000E+00 -0.10000000000E+04  0.10000000000E+04  0.00000000000E+00 0.  1.
    9000005    2    1    2  501    0  0.29986460459E+02 -0.21313473815E+02 -0.47604192864E+03  0.47747170839E+03  0.31404644866E+01 0.  0.
         13    1    3    3    0    0  0.77951365796E+01 -0.48871325439E+01 -0.13590820702E+03  0.13621926793E+03  0.00000000000E+00 0.  1.
          1    1    3    3  501    0  0.22191323879E+02 -0.16426341271E+02 -0.34013372161E+03  0.34125244046E+03  0.00000000000E+00 0.  1.
         -1    1    1    2    0  502 -0.29986460459E+02  0.21313473815E+02 -0.52259651659E+03  0.52388984637E+03  0.00000000000E+00 0. -1.
<mgrwt>
<rscale>  1 0.30000000E+03</rscale>
<asrwt>0</asrwt>
<pdfrwt beam="1">  1       21 0.49511187E-02 0.30000000E+03</pdfrwt>
<pdfrwt beam="2">0</pdfrwt>
<totfact> 0.29291016E+04</totfact>
</mgrwt>
</event>
<event>
 6    1  0.6513574E-002  0.3000000E+03  0.7818608E-02  0.1093470E+00
         21   -1    0    0  501  502  0.00000000000E+00  0.00000000000E+00  0.23521332750E+01  0.23521332750E+01  0.00000000000E+00 0. -1.
         13   -1    0    0    0    0 -0.00000000000E+00 -0.00000000000E+00 -0.10000000000E+04  0.10000000000E+04  0.00000000000E+00 0.  1.
    9000005    2    1    2  501    0  0.19653959145E+02  0.36380127779E+02 -0.76009723623E+03  0.76122956308E+03  0.35843242692E+01 0.  0.
         13    1    3    3    0    0  0.36975297852E+01  0.10045111840E+02 -0.20299706556E+03  0.20327908063E+03  0.00000000000E+00 0.  1.
          3    1    3    3  501    0  0.15956429359E+02  0.26335015939E+02 -0.55710017067E+03  0.55795048245E+03  0.00000000000E+00 0.  1.
         -1    1    1    2    0  502 -0.19653959145E+02 -0.36380127779E+02 -0.23755063050E+03  0.24112257020E+03  0.00000000000E+00 0. -1.
<mgrwt>
<rscale>  1 0.30000000E+03</rscale>
<asrwt>0</asrwt>
<pdfrwt beam="1">  1       21 0.85532299E-02 0.30000000E+03</pdfrwt>
<pdfrwt beam="2">0</pdfrwt>
<totfact> 0.11355535E+04</totfact>
</mgrwt>
</event>
<event>
 6    1  0.6513574E-002  0.3000000E+03  0.7818608E-02  0.1093470E+00
         21   -1    0    0  501  502  0.00000000000E+00  0.00000000000E+00  0.12994167647E+01  0.12994167647E+01  0.00000000000E+00 0. -1.
         13   -1    0    0    0    0 -0.00000000000E+00 -0.00000000000E+00 -0.10000000000E+04  0.10000000000E+04  0.00000000000E+00 0.  1.
    9000005    2    1    2  501    0 -0.17537780064E+02  0.30305952316E+02 -0.38516722069E+03  0.38676771585E+03  0.30746793087E+01 0.  0.
         13    1    3    3    0    0 -0.24108420798E+01  0.26697547130E+01 -0.33808526783E+02  0.33999356362E+02  0.00000000000E+00 0.  1.
          1    1    3    3  501    0 -0.15126937984E+02  0.27636197603E+02 -0.35135869391E+03  0.35276835949E+03  0.00000000000E+00 0.  1.
         -1    1    1    2    0  502  0.17537780064E+02 -0.30305952316E+02 -0.61353336254E+03  0.61453170091E+03  0.00000000000E+00 0. -1.
<mgrwt>
<rscale>  1 0.30000000E+03</rscale>
<asrwt>0</asrwt>
<pdfrwt beam="1">  1       21 0.47251618E-02 0.30000000E+03</pdfrwt>
<pdfrwt beam="2">0</pdfrwt>
<totfact> 0.31715084E+04</totfact>
</mgrwt>
</event>
<event>
 6    1  0.6513574E-002  0.3000000E+03  0.7818608E-02  0.1093470E+00
         21   -1    0    0  501  502  0.00000000000E+00  0.00000000000E+00  0.17859871147E+01  0.17859871147E+01  0.00000000000E+00 0. -1.
         13   -1    0    0    0    0 -0.00000000000E+00 -0.00000000000E+00 -0.10000000000E+04  0.10000000000E+04  0.00000000000E+00 0.  1.
    9000005    2    1    2  501    0  0.37262188692E+02 -0.18511441083E+02 -0.58320999799E+03  0.58470149143E+03  0.32845355662E+01 0.  0.
         13    1    3    3    0    0  0.35338464899E+02 -0.17315188439E+02 -0.53988917455E+03  0.54132147902E+03  0.00000000000E+00 0.  1.
          1    1    3    3  501    0  0.19237237934E+01 -0.11962526433E+01 -0.43320823437E+02  0.43380012412E+02  0.00000000000E+00 0.  1.
         -3    1    1    2    0  502 -0.37262188692E+02  0.18511441083E+02 -0.41500401490E+03  0.41708449568E+03  0.00000000000E+00 0. -1.
<mgrwt>
<rscale>  1 0.30000000E+03</rscale>
<asrwt>0</asrwt>
<pdfrwt beam="1">  1       21 0.64945123E-02 0.30000000E+03</pdfrwt>
<pdfrwt beam="2">0</pdfrwt>
<totfact> 0.18376899E+04</totfact>
</mgrwt>
</event>
<event>
 6    1  0.6513574E-002  0.3000000E+03  0.7818608E-02  0.1093470E+00
         21   -1    0    0  501  502  0.00000000000E+00  0.00000000000E+00  0.13139000326E+01  0.13139000326E+01  0.00000000000E+00 0. -1.
         13   -1    0    0    0    0 -0.00000000000E+00 -0.00000000000E+00 -0.10000000000E+04  0.10000000000E+04  0.00000000000E+00 0.  1.
    9000005    2    1    2  501    0 -0.30169519206E+02  0.11355447198E+02 -0.27334308715E+03  0.27525492700E+03  0.31121500455E+01 0.  0.
         13    1    3    3    0    0 -0.23662985458E+02  0.81685978674E+01 -0.22084810569E+03  0.22226234197E+03  0.00000000000E+00 0.  1.
          3    1    3    3  501    0 -0.65065337479E+01  0.31868493310E+01 -0.52494981460E+02  0.52992585033E+02  0.00000000000E+00 0.  1.
         -3    1    1    2    0  502  0.30169519206E+02 -0.11355447198E+02 -0.72534301282E+03  0.72605897303E+03  0.00000000000E+00 0. -1.
<mgrwt>
<rscale>  1 0.30000000E+03</rscale>
<asrwt>0</asrwt>
<pdfrwt beam="1">  1       21 0.47778284E-02 0.30000000E+03</pdfrwt>
<pdfrwt beam="2">0</pdfrwt>
<totfact> 0.31122743E+04</totfact>
</mgrwt>
</event>
<event>
 6    1  0.6513574E-002  0.3000000E+03  0.7818608E-02  0.1093470E+00
         21   -1    0    0  501  502  0.00000000000E+00  0.00000000000E+00  0.13953039765E+01  0.13953039765E+01  0.00000000000E+00 0. -1.
         13   -1    0    0    0    0 -0.00000000000E+00 -0.00000000000E+00 -0.10000000000E+04  0.10000000000E+04  0.00000000000E+00 0.  1.
    9000005    2    1    2  501    0 -0.84370745080E+01 -0.34106514901E+02 -0.66751367460E+03  0.66844530315E+03  0.31904445671E+01 0.  0.
         13    1    3    3    0    0 -0.67336664457E+01 -0.22086177821E+02 -0.45391349503E+03  0.45450038777E+03  0.00000000000E+00 0.  1.
          3    1    3    3  501    0 -0.17034080623E+01 -0.12020337080E+02 -0.21360017957E+03  0.21394491538E+03  0.00000000000E+00 0.  1.
         -1    1    1    2    0  502  0.84370745080E+01  0.34106514901E+02 -0.33109102142E+03  0.33295000083E+03  0.00000000000E+00 0. -1.
<mgrwt>
<rscale>  1 0.30000000E+03</rscale>
<asrwt>0</asrwt>
<pdfrwt beam="1">  1       21 0.50738433E-02 0.30000000E+03</pdfrwt>
<pdfrwt beam="2">0</pdfrwt>
<totfact> 0.28093420E+04</totfact>
</mgrwt>
</event>
<event>
 6    1  0.6513574E-002  0.3000000E+03  0.7818608E-02  0.1093470E+00
         21   -1    0    0  501  502  0.00000000000E+00  0.00000000000E+00  0.21246680040E+01  0.21246680040E+01  0.00000000000E+00 0. -1.
         13   -1    0    0    0    0 -0.00000000000E+00 -0.00000000000E+00 -0.10000000000E+04  0.10000000000E+04  0.00000000000E+00 0.  1.
    9000005    2    1    2  501    0  0.30542151503E+02  0.22192790547E+02 -0.22031058656E+03  0.22364391916E+03  0.73827540659E+01 0.  0.
         13    1    3    3    0    0  0.20560914467E+02  0.16938981813E+02 -0.17077679056E+03  0.17284210280E+03  0.00000000000E+00 0.  1.
          1    1    3    3  501    0  0.99812370363E+01  0.52538087346E+01 -0.49533796002E+02  0.50801816359E+02  0.00000000000E+00 0.  1.
         -3    1    1    2    0  502 -0.30542151503E+02 -0.22192790547E+02 -0.77756474543E+03  0.77848074884E+03  0.00000000000E+00 0. -1.
<mgrwt>
<rscale>  1 0.30000000E+03</rscale>
<asrwt>0</asrwt>
<pdfrwt beam="1">  1       21 0.77260818E-02 0.30000000E+03</pdfrwt>
<pdfrwt beam="2">0</pdfrwt>
<totfact> 0.13579190E+04</totfact>
</mgrwt>
</event>
<event>
 6    1  0.6513574E-002  0.3000000E+03  0.7818608E-02  0.1093470E+00
         21   -1    0    0  501  502  0.00000000000E+00  0.00000000000E+00  0.19714127176E+01  0.19714127176E+01  0.00000000000E+00 0. -1.
         13   -1    0    0    0    0 -0.00000000000E+00 -0.00000000000E+00 -0.10000000000E+04  0.10000000000E+04  0.00000000000E+00 0.  1.
    9000005    2    1    2  501    0  0.13557866717E+02 -0.42211948100E+02 -0.51773029838E+03  0.51963116908E+03  0.24951360402E+01 0.  0.
         13    1    3    3    0    0  0.13377735972E+02 -0.39908871814E+02 -0.48910205679E+03  0.49090987342E+03  0.00000000000E+00 0.  1.
          3    1    3    3  501    0  0.18013074522E+00 -0.23030762862E+01 -0.28628241594E+02  0.28721295657E+02  0.00000000000E+00 0.  1.
         -3    1    1    2    0  502 -0.13557866717E+02  0.42211948100E+02 -0.48029828890E+03  0.48234024364E+03  0.00000000000E+00 0. -1.
<mgrwt>
<rscale>  1 0.30000000E+03</rscale>
<asrwt>0</asrwt>
<pdfrwt beam="1">  1       21 0.71687886E-02 0.30000000E+03</pdfrwt>
<pdfrwt beam="2">0</pdfrwt>
<totfact> 0.15479262E+04</totfact>
</mgrwt>
</event>
<event>
 6    1  0.6513574E-002  0.3000000E+03  0.7818608E-02  0.1093470E+00
         21   -1    0    0  501  502  0.00000000000E+00  0.00000000000E+00  0.16514519330E+01  0.16514519330E+01  0.00000000000E+00 0. -1.
         13   -1    0    0    0    0 -0.00000000000E+00 -0.00000000000E+00 -0.10000000000E+04  0.10000000000E+04  0.00000000000E+00 0.  1.
    9000005    2    1    2  501    0 -0.13912809813E+02  0.35531910862E+02 -0.33046173156E+03  0.33267545637E+03  0.34525763638E+01 0.  0.
         13    1    3    3    0    0 -0.16146852151E+01  0.45687578928E+01 -0.52872642879E+02  0.53094228707E+02  0.00000000000E+00 0.  1.
          3    1    3    3  501    0 -0.12298124598E+02  0.30963152969E+02 -0.27758908868E+03  0.27958122767E+03  0.00000000000E+00 0.  1.
         -3    1    1    2    0  502  0.13912809813E+02 -0.35531910862E+02 -0.66788681651E+03  0.66897599556E+03  0.00000000000E+00 0. -1.
<mgrwt>
<rscale>  1 0.30000000E+03</rscale>
<asrwt>0</asrwt>
<pdfrwt beam="1">  1       21 0.60052924E-02 0.30000000E+03</pdfrwt>
<pdfrwt beam="2">0</pdfrwt>
<totfact> 0.21039648E+04</totfact>
</mgrwt>
</event>
<event>
 6    1  0.6513574E-002  0.3000000E+03  0.7818608E-02  0.1093470E+00
         21   -1    0    0  501  502  0.00000000000E+00  0.00000000000E+00  0.13626181515E+01  0.13626181515E+01  0.00000000000E+00 0. -1.
         13   -1    0    0    0    0 -0.00000000000E+00 -0.00000000000E+00 -0.10000000000E+04  0.10000000000E+04  0.00000000000E+00 0.  1.
    9000005    2    1    2  501    0 -0.85581818406E+01 -0.29669716743E+02 -0.77264091445E+03  0.77326628358E+03  0.36370417371E+01 0.  0.
         13    1    3    3    0    0 -0.35188892205E+01 -0.67978909403E+01 -0.17928934374E+03  0.17945267533E+03  0.00000000000E+00 0.  1.
          1    1    3    3  501    0 -0.50392926201E+01 -0.22871825803E+02 -0.59335157071E+03  0.59381360826E+03  0.00000000000E+00 0.  1.
         -3    1    1    2    0  502  0.85581818406E+01  0.29669716743E+02 -0.22599646740E+03  0.22809633457E+03  0.00000000000E+00 0. -1.
<mgrwt>
<rscale>  1 0.30000000E+03</rscale>
<asrwt>0</asrwt>
<pdfrwt beam="1">  1       21 0.49549855E-02 0.30000000E+03</pdfrwt>
<pdfrwt beam="2">0</pdfrwt>
<totfact> 0.29252077E+04</totfact>
</mgrwt>
</event>
<event>
 6    1  0.6513574E-002  0.3000000E+03  0.7818608E-02  0.1093470E+00
         21   -1    0    0  501  502  0.00000000000E+00  0.00000000000E+00  0.10636911644E+01  0.10636911644E+01  0.00000000000E+00 0. -1.
         13   -1    0    0    0    0 -0.00000000000E+00 -0.00000000000E+00 -0.10000000000E+04  0.10000000000E+04  0.00000000000E+00 0.  1.
    9000005    2    1    2  501    0  0.78619239439E+01  0.30772289945E+02 -0.60709438216E+03  0.60793668983E+03  0.38322729458E+01 0.  0.
         13    1    3    3    0    0  0.15857866847E+01  0.13655455629E+02 -0.26949372811E+03  0.26984413219E+03  0.00000000000E+00 0.  1.
          3    1    3    3  501    0  0.62761372592E+01  0.17116834316E+02 -0.33760065405E+03  0.33809255764E+03  0.00000000000E+00 0.  1.
         -3    1    1    2    0  502 -0.78619239439E+01 -0.30772289945E+02 -0.39184192667E+03  0.39312700133E+03  0.00000000000E+00 0. -1.
<mgrwt>
<rscale>  1 0.30000000E+03</rscale>
<asrwt>0</asrwt>
<pdfrwt beam="1">  1       21 0.38679760E-02 0.30000000E+03</pdfrwt>
<pdfrwt beam="2">0</pdfrwt>
<totfact> 0.44490305E+04</totfact>
</mgrwt>
</event>
<event>
 6    1  0.6513574E-002  0.3000000E+03  0.7818608E-02  0.1093470E+00
         21   -1    0    0  501  502  0.00000000000E+00  0.00000000000E+00  0.14347638864E+01  0.14347638864E+01  0.00000000000E+00 0. -1.
         13   -1    0    0    0    0 -0.00000000000E+00 -0.00000000000E+00 -0.10000000000E+04  0.10000000000E+04  0.00000000000E+00 0.  1.
    9000005    2    1    2  501    0  0.35044728860E+02 -0.13676338021E+02 -0.46152403637E+03  0.46307760970E+03  0.46109885064E+01 0.  0.
         13    1    3    3    0    0  0.21852510365E+02 -0.95478530145E+01 -0.31598349828E+03  0.31688209935E+03  0.00000000000E+00 0.  1.
          1    1    3    3  501    0  0.13192218494E+02 -0.41284850064E+01 -0.14554053809E+03  0.14619551034E+03  0.00000000000E+00 0.  1.
         -1    1    1    2    0  502 -0.35044728860E+02  0.13676338021E+02 -0.53704119975E+03  0.53835715419E+03  0.00000000000E+00 0. -1.
<mgrwt>
<rscale>  1 0.30000000E+03</rscale>
<asrwt>0</asrwt>
<pdfrwt beam="1">  1       21 0.52173342E-02 0.30000000E+03</pdfrwt>
<pdfrwt beam="2">0</pdfrwt>
<totfact> 0.26787142E+04</totfact>
</mgrwt>
</event>
<event>
 6    1  0.6513574E-002  0.3000000E+03  0.7818608E-02  0.1093470E+00
         21   -1    0    0  501  502  0.00000000000E+00  0.00000000000E+00  0.35568905441E+01  0.35568905441E+01  0.00000000000E+00 0. -1.
         13   -1    0    0    0    0 -0.00000000000E+00 -0.00000000000E+00 -0.10000000000E+04  0.10000000000E+04  0.00000000000E+00 0.  1.
    9000005    2    1    2  501    0 -0.33071161068E+02 -0.49556565298E+02 -0.50979861682E+03  0.51327899274E+03  0.33376371871E+01 0.  0.
         13    1    3    3    0    0 -0.63295902297E+00 -0.20248324472E+01 -0.19321399749E+02  0.19437517121E+02  0.00000000000E+00 0.  1.
          1    1    3    3  501    0 -0.32438202045E+02 -0.47531732851E+02 -0.49047721707E+03  0.49384147562E+03  0.00000000000E+00 0.  1.
         -3    1    1    2    0  502  0.33071161068E+02  0.49556565298E+02 -0.48664449264E+03  0.49027789780E+03  0.00000000000E+00 0. -1.
<mgrwt>
<rscale>  1 0.30000000E+03</rscale>
<asrwt>0</asrwt>
<pdfrwt beam="1">  1       21 0.12934175E-01 0.30000000E+03</pdfrwt>
<pdfrwt beam="2">0</pdfrwt>
<totfact> 0.54064018E+03</totfact>
</mgrwt>
</event>
<event>
 6    1  0.6513574E-002  0.3000000E+03  0.7818608E-02  0.1093470E+00
         21   -1    0    0  501  502  0.00000000000E+00  0.00000000000E+00  0.14487626603E+01  0.14487626603E+01  0.00000000000E+00 0. -1.
         13   -1    0    0    0    0 -0.00000000000E+00 -0.00000000000E+00 -0.10000000000E+04  0.10000000000E+04  0.00000000000E+00 0.  1.
    9000005    2    1    2  501    0 -0.14308634970E+02  0.33995506883E+02 -0.38187262877E+03  0.38366810758E+03  0.37524189627E+01 0.  0.
         13    1    3    3    0    0 -0.13007349654E+02  0.29282837289E+02 -0.31874822843E+03  0.32035466102E+03  0.00000000000E+00 0.  1.
          1    1    3    3  501    0 -0.13012853161E+01  0.47126695934E+01 -0.63124400340E+02  0.63313446569E+02  0.00000000000E+00 0.  1.
         -1    1    1    2    0  502  0.14308634970E+02 -0.33995506883E+02 -0.61667860857E+03  0.61778065508E+03  0.00000000000E+00 0. -1.
<mgrwt>
<rscale>  1 0.30000000E+03</rscale>
<asrwt>0</asrwt>
<pdfrwt beam="1">  1       21 0.52682390E-02 0.30000000E+03</pdfrwt>
<pdfrwt beam="2">0</pdfrwt>
<totfact> 0.26346271E+04</totfact>
</mgrwt>
</event>
<event>
 6    1  0.6513574E-002  0.3000000E+03  0.7818608E-02  0.1093470E+00
         21   -1    0    0  501  502  0.00000000000E+00  0.00000000000E+00  0.21678649418E+01  0.21678649418E+01  0.00000000000E+00 0. -1.
         13   -1    0    0    0    0 -0.00000000000E+00 -0.00000000000E+00 -0.10000000000E+04  0.10000000000E+04  0.00000000000E+00 0.  1.
    9000005    2    1    2  501    0 -0.40864964571E+02 -0.20528337034E+02 -0.43072171693E+03  0.43321656272E+03  0.80021764937E+01 0.  0.
         13    1    3    3    0    0 -0.13001806963E+02 -0.10546876737E+02 -0.14306796216E+03  0.14404417860E+03  0.00000000000E+00 0.  1.
          1    1    3    3  501    0 -0.27863157609E+02 -0.99814602976E+01 -0.28765375477E+03  0.28917238411E+03  0.00000000000E+00 0.  1.
         -3    1    1    2    0  502  0.40864964571E+02  0.20528337034E+02 -0.56711041813E+03  0.56895130222E+03  0.00000000000E+00 0. -1.
<mgrwt>
<rscale>  1 0.30000000E+03</rscale>
<asrwt>0</asrwt>
<pdfrwt beam="1">  1       21 0.78831619E-02 0.30000000E+03</pdfrwt>
<pdfrwt beam="2">0</pdfrwt>
<totfact> 0.13108133E+04</totfact>
</mgrwt>
</event>
<event>
 6    1  0.6513574E-002  0.3000000E+03  0.7818608E-02  0.1093470E+00
         21   -1    0    0  501  502  0.00000000000E+00  0.00000000000E+00  0.39212345887E+01  0.39212345887E+01  0.00000000000E+00 0. -1.
         13   -1    0    0    0    0 -0.00000000000E+00 -0.00000000000E+00 -0.10000000000E+04  0.10000000000E+04  0.00000000000E+00 0.  1.
    9000005    2    1    2  501    0  0.59723166687E+02 -0.18546152057E+02 -0.47941216283E+03  0.48348373150E+03  0.31113282295E+01 0.  0.
         13    1    3    3    0    0  0.55970775784E+01 -0.91190738384E+00 -0.46745269649E+02  0.47087993025E+02  0.00000000000E+00 0.  1.
          3    1    3    3  501    0  0.54126089109E+02 -0.17634244673E+02 -0.43266689318E+03  0.43639573848E+03  0.00000000000E+00 0.  1.
         -1    1    1    2    0  502 -0.59723166687E+02  0.18546152057E+02 -0.51666660258E+03  0.52043750309E+03  0.00000000000E+00 0. -1.
<mgrwt>
<rscale>  1 0.30000000E+03</rscale>
<asrwt>0</asrwt>
<pdfrwt beam="1">  1       21 0.14259065E-01 0.30000000E+03</pdfrwt>
<pdfrwt beam="2">0</pdfrwt>
<totfact> 0.45216162E+03</totfact>
</mgrwt>
</event>
<event>
 6    1  0.6513574E-002  0.3000000E+03  0.7818608E-02  0.1093470E+00
         21   -1    0    0  501  502  0.00000000000E+00  0.00000000000E+00  0.11138605179E+01  0.11138605179E+01  0.00000000000E+00 0. -1.
         13   -1    0    0    0    0 -0.00000000000E+00 -0.00000000000E+00 -0.10000000000E+04  0.10000000000E+04  0.00000000000E+00 0.  1.
    9000005    2    1    2  501    0  0.18682841017E+02  0.26178625321E+02 -0.37125757655E+03  0.37266180827E+03  0.32040945236E+01 0.  0.
         13    1    3    3    0    0  0.14039392736E+02  0.17119388093E+02 -0.25561064490E+03  0.25656769046E+03  0.00000000000E+00 0.  1.
          1    1    3    3  501    0  0.46434482811E+01  0.90592372281E+01 -0.11564693165E+03  0.11609411781E+03  0.00000000000E+00 0.  1.
         -1    1    1    2    0  502 -0.18682841017E+02 -0.26178625321E+02 -0.62762856293E+03  0.62845205225E+03  0.00000000000E+00 0. -1.
<mgrwt>
<rscale>  1 0.30000000E+03</rscale>
<asrwt>0</asrwt>
<pdfrwt beam="1">  1       21 0.40504104E-02 0.30000000E+03</pdfrwt>
<pdfrwt beam="2">0</pdfrwt>
<totfact> 0.41169529E+04</totfact>
</mgrwt>
</event>
<event>
 6    1  0.6513574E-002  0.3000000E+03  0.7818608E-02  0.1093470E+00
         21   -1    0    0  501  502  0.00000000000E+00  0.00000000000E+00  0.10251188380E+01  0.10251188380E+01  0.00000000000E+00 0. -1.
         13   -1    0    0    0    0 -0.00000000000E+00 -0.00000000000E+00 -0.10000000000E+04  0.10000000000E+04  0.00000000000E+00 0.  1.
    9000005    2    1    2  501    0  0.10779523291E+02 -0.28840515140E+02 -0.36906537389E+03  0.37036359251E+03  0.34593378046E+01 0.  0.
         13    1    3    3    0    0  0.79511074017E+00 -0.63839970761E+00 -0.90414134221E+01  0.90987313371E+01  0.00000000000E+00 0.  1.
          3    1    3    3  501    0  0.99844125510E+01 -0.28202115432E+02 -0.36002396047E+03  0.36126486117E+03  0.00000000000E+00 0.  1.
         -3    1    1    2    0  502 -0.10779523291E+02  0.28840515140E+02 -0.62990950727E+03  0.63066152633E+03  0.00000000000E+00 0. -1.
<mgrwt>
<rscale>  1 0.30000000E+03</rscale>
<asrwt>0</asrwt>
<pdfrwt beam="1">  1       21 0.37277127E-02 0.30000000E+03</pdfrwt>
<pdfrwt beam="2">0</pdfrwt>
<totfact> 0.47338727E+04</totfact>
</mgrwt>
</event>
<event>
 6    1  0.6513574E-002  0.3000000E+03  0.7818608E-02  0.1093470E+00
         21   -1    0    0  501  502  0.00000000000E+00  0.00000000000E+00  0.12418097712E+01  0.12418097712E+01  0.00000000000E+00 0. -1.
         13   -1    0    0    0    0 -0.00000000000E+00 -0.00000000000E+00 -0.10000000000E+04  0.10000000000E+04  0.00000000000E+00 0.  1.
    9000005    2    1    2  501    0 -0.38037926361E+01 -0.33510252415E+02 -0.64031103546E+03  0.64121157685E+03  0.40814579884E+01 0.  0.
         13    1    3    3    0    0 -0.23059897396E+01 -0.76261919584E+01 -0.16958492780E+03  0.16977197687E+03  0.00000000000E+00 0.  1.
          3    1    3    3  501    0 -0.14978028964E+01 -0.25884060457E+02 -0.47072610766E+03  0.47143959998E+03  0.00000000000E+00 0.  1.
         -3    1    1    2    0  502  0.38037926361E+01  0.33510252415E+02 -0.35844715477E+03  0.36003023292E+03  0.00000000000E+00 0. -1.
<mgrwt>
<rscale>  1 0.30000000E+03</rscale>
<asrwt>0</asrwt>
<pdfrwt beam="1">  1       21 0.45156814E-02 0.30000000E+03</pdfrwt>
<pdfrwt beam="2">0</pdfrwt>
<totfact> 0.34255352E+04</totfact>
</mgrwt>
</event>
<event>
 6    1  0.6513574E-002  0.3000000E+03  0.7818608E-02  0.1093470E+00
         21   -1    0    0  501  502  0.00000000000E+00  0.00000000000E+00  0.10934214111E+01  0.10934214111E+01  0.00000000000E+00 0. -1.
         13   -1    0    0    0    0 -0.00000000000E+00 -0.00000000000E+00 -0.10000000000E+04  0.10000000000E+04  0.00000000000E+00 0.  1.
    9000005    2    1    2  501    0  0.30740037213E+02 -0.84354611948E+01 -0.36959583518E+03  0.37097587788E+03  0.24318088634E+01 0.  0.
         13    1    3    3    0    0  0.95348925068E+01 -0.23819980465E+01 -0.10156094876E+03  0.10203535859E+03  0.00000000000E+00 0.  1.
          3    1    3    3  501    0  0.21205144706E+02 -0.60534631483E+01 -0.26803488642E+03  0.26894051929E+03  0.00000000000E+00 0.  1.
         -1    1    1    2    0  502 -0.30740037213E+02  0.84354611948E+01 -0.62931074341E+03  0.63011754353E+03  0.00000000000E+00 0. -1.
<mgrwt>
<rscale>  1 0.30000000E+03</rscale>
<asrwt>0</asrwt>
<pdfrwt beam="1">  1       21 0.39760862E-02 0.30000000E+03</pdfrwt>
<pdfrwt beam="2">0</pdfrwt>
<totfact> 0.42474008E+04</totfact>
</mgrwt>
</event>
<event>
 6    1  0.6513574E-002  0.3000000E+03  0.7818608E-02  0.1093470E+00
         21   -1    0    0  501  502  0.00000000000E+00  0.00000000000E+00  0.25739683532E+01  0.25739683532E+01  0.00000000000E+00 0. -1.
         13   -1    0    0    0    0 -0.00000000000E+00 -0.00000000000E+00 -0.10000000000E+04  0.10000000000E+04  0.00000000000E+00 0.  1.
    9000005    2    1    2  501    0 -0.32617300635E+01 -0.49748441648E+02 -0.58902119564E+03  0.59113739195E+03  0.34497706667E+01 0.  0.
         13    1    3    3    0    0 -0.71451454438E+00 -0.65381489786E+01 -0.92091249810E+02  0.92325815537E+02  0.00000000000E+00 0.  1.
          1    1    3    3  501    0 -0.25472155192E+01 -0.43210292670E+02 -0.49692994583E+03  0.49881157641E+03  0.00000000000E+00 0.  1.
         -1    1    1    2    0  502  0.32617300635E+01  0.49748441648E+02 -0.40840483600E+03  0.41143657640E+03  0.00000000000E+00 0. -1.
<mgrwt>
<rscale>  1 0.30000000E+03</rscale>
<asrwt>0</asrwt>
<pdfrwt beam="1">  1       21 0.93599047E-02 0.30000000E+03</pdfrwt>
<pdfrwt beam="2">0</pdfrwt>
<totfact> 0.96803530E+03</totfact>
</mgrwt>
</event>
<event>
 6    1  0.6513574E-002  0.3000000E+03  0.7818608E-02  0.1093470E+00
         21   -1    0    0  501  502  0.00000000000E+00  0.00000000000E+00  0.12737714264E+01  0.12737714264E+01  0.00000000000E+00 0. -1.
         13   -1    0    0    0    0 -0.00000000000E+00 -0.00000000000E+00 -0.10000000000E+04  0.10000000000E+04  0.00000000000E+00 0.  1.
    9000005    2    1    2  501    0  0.13152371311E+02  0.30972024907E+02 -0.33652609654E+03  0.33821927437E+03  0.31957325744E+01 0.  0.
         13    1    3    3    0    0  0.13070351083E+02  0.28816954106E+02 -0.31435426299E+03  0.31594280113E+03  0.00000000000E+00 0.  1.
          1    1    3    3  501    0  0.82020228814E-01  0.21550708009E+01 -0.22171833546E+02  0.22276473246E+02  0.00000000000E+00 0.  1.
         -3    1    1    2    0  502 -0.13152371311E+02 -0.30972024907E+02 -0.66220013203E+03  0.66305449705E+03  0.00000000000E+00 0. -1.
<mgrwt>
<rscale>  1 0.30000000E+03</rscale>
<asrwt>0</asrwt>
<pdfrwt beam="1">  1       21 0.46319059E-02 0.30000000E+03</pdfrwt>
<pdfrwt beam="2">0</pdfrwt>
<totfact> 0.32808188E+04</totfact>
</mgrwt>
</event>
<event>
 6    1  0.6513574E-002  0.3000000E+03  0.7818608E-02  0.1093470E+00
         21   -1    0    0  501  502  0.00000000000E+00  0.00000000000E+00  0.12009592454E+01  0.12009592454E+01  0.00000000000E+00 0. -1.
         13   -1    0    0    0    0 -0.00000000000E+00 -0.00000000000E+00 -0.10000000000E+04  0.10000000000E+04  0.00000000000E+00 0.  1.
    9000005    2    1    2  501    0 -0.45961939024E+01 -0.34143906463E+02 -0.46187273291E+03  0.46317048483E+03  0.36803889020E+01 0.  0.
         13    1    3    3    0    0 -0.39359903455E+01 -0.25148610400E+02 -0.36031792461E+03  0.36121593462E+03  0.00000000000E+00 0.  1.
          3    1    3    3  501    0 -0.66020355695E+00 -0.89952960631E+01 -0.10155480830E+03  0.10195455021E+03  0.00000000000E+00 0.  1.
         -3    1    1    2    0  502  0.45961939024E+01  0.34143906463E+02 -0.53692630784E+03  0.53803047442E+03  0.00000000000E+00 0. -1.
<mgrwt>
<rscale>  1 0.30000000E+03</rscale>
<asrwt>0</asrwt>
<pdfrwt beam="1">  1       21 0.43671337E-02 0.30000000E+03</pdfrwt>
<pdfrwt beam="2">0</pdfrwt>
<totfact> 0.36253818E+04</totfact>
</mgrwt>
</event>
<event>
 6    1  0.6513574E-002  0.3000000E+03  0.7818608E-02  0.1093470E+00
         21   -1    0    0  501  502  0.00000000000E+00  0.00000000000E+00  0.20016068719E+01  0.20016068719E+01  0.00000000000E+00 0. -1.
         13   -1    0    0    0    0 -0.00000000000E+00 -0.00000000000E+00 -0.10000000000E+04  0.10000000000E+04  0.00000000000E+00 0.  1.
    9000005    2    1    2  501    0 -0.19297441904E+02  0.34108846706E+02 -0.25967465650E+03  0.26263853994E+03  0.35029617754E+01 0.  0.
         13    1    3    3    0    0 -0.14767972871E+02  0.28698069550E+02 -0.21573955434E+03  0.21814038490E+03  0.00000000000E+00 0.  1.
          1    1    3    3  501    0 -0.45294690328E+01  0.54107771554E+01 -0.43935102167E+02  0.44498155035E+02  0.00000000000E+00 0.  1.
         -3    1    1    2    0  502  0.19297441904E+02 -0.34108846706E+02 -0.73832373662E+03  0.73936306694E+03  0.00000000000E+00 0. -1.
<mgrwt>
<rscale>  1 0.30000000E+03</rscale>
<asrwt>0</asrwt>
<pdfrwt beam="1">  1       21 0.72785858E-02 0.30000000E+03</pdfrwt>
<pdfrwt beam="2">0</pdfrwt>
<totfact> 0.15074077E+04</totfact>
</mgrwt>
</event>
<event>
 6    1  0.6513574E-002  0.3000000E+03  0.7818608E-02  0.1093470E+00
         21   -1    0    0  501  502  0.00000000000E+00  0.00000000000E+00  0.16451418084E+01  0.16451418084E+01  0.00000000000E+00 0. -1.
         13   -1    0    0    0    0 -0.00000000000E+00 -0.00000000000E+00 -0.10000000000E+04  0.10000000000E+04  0.00000000000E+00 0.  1.
    9000005    2    1    2  501    0 -0.34989304808E+02  0.66694096409E+01 -0.26569842861E+03  0.26812337916E+03  0.50753333678E+01 0.  0.
         13    1    3    3    0    0 -0.17135394619E+02  0.26725012630E+01 -0.14776081549E+03  0.14877507387E+03  0.00000000000E+00 0.  1.
          1    1    3    3  501    0 -0.17853910189E+02  0.39969083780E+01 -0.11793761312E+03  0.11934830529E+03  0.00000000000E+00 0.  1.
         -3    1    1    2    0  502  0.34989304808E+02 -0.66694096409E+01 -0.73265642958E+03  0.73352176265E+03  0.00000000000E+00 0. -1.
<mgrwt>
<rscale>  1 0.30000000E+03</rscale>
<asrwt>0</asrwt>
<pdfrwt beam="1">  1       21 0.59823465E-02 0.30000000E+03</pdfrwt>
<pdfrwt beam="2">0</pdfrwt>
<totfact> 0.21179014E+04</totfact>
</mgrwt>
</event>
<event>
 6    1  0.6513574E-002  0.3000000E+03  0.7818608E-02  0.1093470E+00
         21   -1    0    0  501  502  0.00000000000E+00  0.00000000000E+00  0.15795071286E+01  0.15795071286E+01  0.00000000000E+00 0. -1.
         13   -1    0    0    0    0 -0.00000000000E+00 -0.00000000000E+00 -0.10000000000E+04  0.10000000000E+04  0.00000000000E+00 0.  1.
    9000005    2    1    2  501    0  0.36153696634E+02  0.11951589599E+02 -0.35965027243E+03  0.36167535430E+03  0.32883401098E+01 0.  0.
         13    1    3    3    0    0  0.89619077463E+01  0.26425054875E+01 -0.75787601934E+02  0.76361372648E+02  0.00000000000E+00 0.  1.
          1    1    3    3  501    0  0.27191788887E+02  0.93090841120E+01 -0.28386267049E+03  0.28531398166E+03  0.00000000000E+00 0.  1.
         -1    1    1    2    0  502 -0.36153696634E+02 -0.11951589599E+02 -0.63877022045E+03  0.63990415282E+03  0.00000000000E+00 0. -1.
<mgrwt>
<rscale>  1 0.30000000E+03</rscale>
<asrwt>0</asrwt>
<pdfrwt beam="1">  1       21 0.57436744E-02 0.30000000E+03</pdfrwt>
<pdfrwt beam="2">0</pdfrwt>
<totfact> 0.22718019E+04</totfact>
</mgrwt>
</event>
<event>
 6    1  0.6513574E-002  0.3000000E+03  0.7818608E-02  0.1093470E+00
         21   -1    0    0  501  502  0.00000000000E+00  0.00000000000E+00  0.35383474862E+01  0.35383474862E+01  0.00000000000E+00 0. -1.
         13   -1    0    0    0    0 -0.00000000000E+00 -0.00000000000E+00 -0.10000000000E+04  0.10000000000E+04  0.00000000000E+00 0.  1.
    9000005    2    1    2  501    0 -0.42724383615E+02 -0.32925610191E+02 -0.28770479136E+03  0.29273193433E+03  0.29102644486E+01 0.  0.
         13    1    3    3    0    0 -0.37567017268E+02 -0.28078682226E+02 -0.25360983526E+03  0.25791014273E+03  0.00000000000E+00 0.  1.
          3    1    3    3  501    0 -0.51573663471E+01 -0.48469279645E+01 -0.34094956101E+02  0.34821791594E+02  0.00000000000E+00 0.  1.
         -3    1    1    2    0  502  0.42724383615E+02  0.32925610191E+02 -0.70875686115E+03  0.71080641316E+03  0.00000000000E+00 0. -1.
<mgrwt>
<rscale>  1 0.30000000E+03</rscale>
<asrwt>0</asrwt>
<pdfrwt beam="1">  1       21 0.12866745E-01 0.30000000E+03</pdfrwt>
<pdfrwt beam="2">0</pdfrwt>
<totfact> 0.54582252E+03</totfact>
</mgrwt>
</event>
<event>
 6    1  0.6513574E-002  0.3000000E+03  0.7818608E-02  0.1093470E+00
         21   -1    0    0  501  502  0.00000000000E+00  0.00000000000E+00  0.81533223438E+01  0.81533223438E+01  0.00000000000E+00 0. -1.
         13   -1    0    0    0    0 -0.00000000000E+00 -0.00000000000E+00 -0.10000000000E+04  0.10000000000E+04  0.00000000000E+00 0.  1.
    9000005    2    1    2  501    0  0.72619992664E+02 -0.32503834853E+02 -0.73412103325E+03  0.73842629292E+03  0.30880426964E+01 0.  0.
         13    1    3    3    0    0  0.56875869253E+02 -0.24879574133E+02 -0.56166705600E+03  0.56508737334E+03  0.00000000000E+00 0.  1.
          3    1    3    3  501    0  0.15744123411E+02 -0.76242607202E+01 -0.17245397724E+03  0.17333891958E+03  0.00000000000E+00 0.  1.
         -3    1    1    2    0  502 -0.72619992664E+02  0.32503834853E+02 -0.25772564441E+03  0.26972702942E+03  0.00000000000E+00 0. -1.
<mgrwt>
<rscale>  1 0.30000000E+03</rscale>
<asrwt>0</asrwt>
<pdfrwt beam="1">  1       21 0.29648507E-01 0.30000000E+03</pdfrwt>
<pdfrwt beam="2">0</pdfrwt>
<totfact> 0.11131963E+03</totfact>
</mgrwt>
</event>
<event>
 6    1  0.6513574E-002  0.3000000E+03  0.7818608E-02  0.1093470E+00
         21   -1    0    0  501  502  0.00000000000E+00  0.00000000000E+00  0.11380216884E+01  0.11380216884E+01  0.00000000000E+00 0. -1.
         13   -1    0    0    0    0 -0.00000000000E+00 -0.00000000000E+00 -0.10000000000E+04  0.10000000000E+04  0.00000000000E+00 0.  1.
    9000005    2    1    2  501    0  0.51222929904E+01 -0.32766979496E+02 -0.58566354472E+03  0.58661075075E+03  0.32361162550E+01 0.  0.
         13    1    3    3    0    0  0.21179584774E+01 -0.20386548151E+02 -0.34028660841E+03  0.34090331907E+03  0.00000000000E+00 0.  1.
          3    1    3    3  501    0  0.30043345130E+01 -0.12380431345E+02 -0.24537693632E+03  0.24570743168E+03  0.00000000000E+00 0.  1.
         -3    1    1    2    0  502 -0.51222929904E+01  0.32766979496E+02 -0.41319843359E+03  0.41452727094E+03  0.00000000000E+00 0. -1.
<mgrwt>
<rscale>  1 0.30000000E+03</rscale>
<asrwt>0</asrwt>
<pdfrwt beam="1">  1       21 0.41382694E-02 0.30000000E+03</pdfrwt>
<pdfrwt beam="2">0</pdfrwt>
<totfact> 0.39706513E+04</totfact>
</mgrwt>
</event>
<event>
 6    1  0.6513574E-002  0.3000000E+03  0.7818608E-02  0.1093470E+00
         21   -1    0    0  501  502  0.00000000000E+00  0.00000000000E+00  0.99716683314E+01  0.99716683314E+01  0.00000000000E+00 0. -1.
         13   -1    0    0    0    0 -0.00000000000E+00 -0.00000000000E+00 -0.10000000000E+04  0.10000000000E+04  0.00000000000E+00 0.  1.
    9000005    2    1    2  501    0  0.99342682421E+02  0.93203160955E+01 -0.50674281836E+03  0.51649347811E+03  0.46251633108E+01 0.  0.
         13    1    3    3    0    0  0.66695568484E+02  0.49816194549E+01 -0.33029275565E+03  0.33699617182E+03  0.00000000000E+00 0.  1.
          3    1    3    3  501    0  0.32647113938E+02  0.43386966406E+01 -0.17645006271E+03  0.17949730629E+03  0.00000000000E+00 0.  1.
         -1    1    1    2    0  502 -0.99342682421E+02 -0.93203160955E+01 -0.48328551331E+03  0.49347819022E+03  0.00000000000E+00 0. -1.
<mgrwt>
<rscale>  1 0.30000000E+03</rscale>
<asrwt>0</asrwt>
<pdfrwt beam="1">  1       21 0.36260689E-01 0.30000000E+03</pdfrwt>
<pdfrwt beam="2">0</pdfrwt>
<totfact> 0.74010962E+02</totfact>
</mgrwt>
</event>
<event>
 6    1  0.6513574E-002  0.3000000E+03  0.7818608E-02  0.1093470E+00
         21   -1    0    0  501  502  0.00000000000E+00  0.00000000000E+00  0.10093729375E+01  0.10093729375E+01  0.00000000000E+00 0. -1.
         13   -1    0    0    0    0 -0.00000000000E+00 -0.00000000000E+00 -0.10000000000E+04  0.10000000000E+04  0.00000000000E+00 0.  1.
    9000005    2    1    2  501    0 -0.30658248822E+02 -0.34059450456E-01 -0.37635553804E+03  0.37761994131E+03  0.36605575953E+01 0.  0.
         13    1    3    3    0    0 -0.29520854627E+02 -0.29381658091E+00 -0.36815928143E+03  0.36934106689E+03  0.00000000000E+00 0.  1.
          1    1    3    3  501    0 -0.11373941958E+01  0.25975713046E+00 -0.81962566053E+01  0.82788744200E+01  0.00000000000E+00 0.  1.
         -1    1    1    2    0  502  0.30658248822E+02  0.34059450456E-01 -0.62263508902E+03  0.62338943163E+03  0.00000000000E+00 0. -1.
<mgrwt>
<rscale>  1 0.30000000E+03</rscale>
<asrwt>0</asrwt>
<pdfrwt beam="1">  1       21 0.36704548E-02 0.30000000E+03</pdfrwt>
<pdfrwt beam="2">0</pdfrwt>
<totfact> 0.48584756E+04</totfact>
</mgrwt>
</event>
<event>
 6    1  0.6513574E-002  0.3000000E+03  0.7818608E-02  0.1093470E+00
         21   -1    0    0  501  502  0.00000000000E+00  0.00000000000E+00  0.15871686494E+01  0.15871686494E+01  0.00000000000E+00 0. -1.
         13   -1    0    0    0    0 -0.00000000000E+00 -0.00000000000E+00 -0.10000000000E+04  0.10000000000E+04  0.00000000000E+00 0.  1.
    9000005    2    1    2  501    0  0.12437397378E+02 -0.31439260189E+02 -0.23700960714E+03  0.23943365014E+03  0.34355507412E+01 0.  0.
         13    1    3    3    0    0  0.52810376444E+01 -0.13082480160E+02 -0.11101430053E+03  0.11190717389E+03  0.00000000000E+00 0.  1.
          1    1    3    3  501    0  0.71563597338E+01 -0.18356780029E+02 -0.12599530661E+03  0.12752647625E+03  0.00000000000E+00 0.  1.
         -1    1    1    2    0  502 -0.12437397378E+02  0.31439260189E+02 -0.76140322421E+03  0.76215351851E+03  0.00000000000E+00 0. -1.
<mgrwt>
<rscale>  1 0.30000000E+03</rscale>
<asrwt>0</asrwt>
<pdfrwt beam="1">  1       21 0.57715345E-02 0.30000000E+03</pdfrwt>
<pdfrwt beam="2">0</pdfrwt>
<totfact> 0.22529614E+04</totfact>
</mgrwt>
</event>
<event>
 6    1  0.6513574E-002  0.3000000E+03  0.7818608E-02  0.1093470E+00
         21   -1    0    0  501  502  0.00000000000E+00  0.00000000000E+00  0.25942055008E+01  0.25942055008E+01  0.00000000000E+00 0. -1.
         13   -1    0    0    0    0 -0.00000000000E+00 -0.00000000000E+00 -0.10000000000E+04  0.10000000000E+04  0.00000000000E+00 0.  1.
    9000005    2    1    2  501    0  0.39571001946E+01 -0.49800076158E+02 -0.59426230175E+03  0.59636719757E+03  0.32318458627E+01 0.  0.
         13    1    3    3    0    0  0.32287033996E+01 -0.33746985763E+02 -0.38600285352E+03  0.38748869209E+03  0.00000000000E+00 0.  1.
          3    1    3    3  501    0  0.72839679502E+00 -0.16053090395E+02 -0.20825944823E+03  0.20887850548E+03  0.00000000000E+00 0.  1.
         -1    1    1    2    0  502 -0.39571001946E+01  0.49800076158E+02 -0.40314349275E+03  0.40622700793E+03  0.00000000000E+00 0. -1.
<mgrwt>
<rscale>  1 0.30000000E+03</rscale>
<asrwt>0</asrwt>
<pdfrwt beam="1">  1       21 0.94334944E-02 0.30000000E+03</pdfrwt>
<pdfrwt beam="2">0</pdfrwt>
<totfact> 0.95464015E+03</totfact>
</mgrwt>
</event>
<event>
 6    1  0.6513574E-002  0.3000000E+03  0.7818608E-02  0.1093470E+00
         21   -1    0    0  501  502  0.00000000000E+00  0.00000000000E+00  0.14875645861E+01  0.14875645861E+01  0.00000000000E+00 0. -1.
         13   -1    0    0    0    0 -0.00000000000E+00 -0.00000000000E+00 -0.10000000000E+04  0.10000000000E+04  0.00000000000E+00 0.  1.
    9000005    2    1    2  501    0 -0.29501151813E+02 -0.23094097488E+02 -0.38828078221E+03  0.39010689277E+03  0.42150512258E+01 0.  0.
         13    1    3    3    0    0 -0.13789882362E+02 -0.85228626054E+01 -0.15620117270E+03  0.15704014262E+03  0.00000000000E+00 0.  1.
          3    1    3    3  501    0 -0.15711269452E+02 -0.14571234882E+02 -0.23207960951E+03  0.23306675015E+03  0.00000000000E+00 0.  1.
         -3    1    1    2    0  502  0.29501151813E+02  0.23094097488E+02 -0.61023165320E+03  0.61138067181E+03  0.00000000000E+00 0. -1.
<mgrwt>
<rscale>  1 0.30000000E+03</rscale>
<asrwt>0</asrwt>
<pdfrwt beam="1">  1       21 0.54093372E-02 0.30000000E+03</pdfrwt>
<pdfrwt beam="2">0</pdfrwt>
<totfact> 0.25181279E+04</totfact>
</mgrwt>
</event>
<event>
 6    1  0.6513574E-002  0.3000000E+03  0.7818608E-02  0.1093470E+00
         21   -1    0    0  501  502  0.00000000000E+00  0.00000000000E+00  0.10911981481E+01  0.10911981481E+01  0.00000000000E+00 0. -1.
         13   -1    0    0    0    0 -0.00000000000E+00 -0.00000000000E+00 -0.10000000000E+04  0.10000000000E+04  0.00000000000E+00 0.  1.
    9000005    2    1    2  501    0 -0.31219034891E+02 -0.70353962488E+01 -0.38328663213E+03  0.38463780916E+03  0.36710934406E+01 0.  0.
         13    1    3    3    0    0 -0.21762260586E+01  0.29120433876E+00 -0.32954015246E+02  0.33027077992E+02  0.00000000000E+00 0.  1.
          1    1    3    3  501    0 -0.29042808832E+02 -0.73266005875E+01 -0.35033261688E+03  0.35161073117E+03  0.00000000000E+00 0.  1.
         -3    1    1    2    0  502  0.31219034891E+02  0.70353962488E+01 -0.61562216972E+03  0.61645338899E+03  0.00000000000E+00 0. -1.
<mgrwt>
<rscale>  1 0.30000000E+03</rscale>
<asrwt>0</asrwt>
<pdfrwt beam="1">  1       21 0.39680016E-02 0.30000000E+03</pdfrwt>
<pdfrwt beam="2">0</pdfrwt>
<totfact> 0.42619793E+04</totfact>
</mgrwt>
</event>
<event>
 6    1  0.6513574E-002  0.3000000E+03  0.7818608E-02  0.1093470E+00
         21   -1    0    0  501  502  0.00000000000E+00  0.00000000000E+00  0.10166782673E+01  0.10166782673E+01  0.00000000000E+00 0. -1.
         13   -1    0    0    0    0 -0.00000000000E+00 -0.00000000000E+00 -0.10000000000E+04  0.10000000000E+04  0.00000000000E+00 0.  1.
    9000005    2    1    2  501    0 -0.26106935304E+02 -0.17014857956E+02 -0.48921206249E+03  0.49029384324E+03  0.94092070401E+01 0.  0.
         13    1    3    3    0    0 -0.86660901052E+01 -0.88977175230E+01 -0.13900024689E+03  0.13955407243E+03  0.00000000000E+00 0.  1.
          1    1    3    3  501    0 -0.17440845199E+02 -0.81171404331E+01 -0.35021181559E+03  0.35073977081E+03  0.00000000000E+00 0.  1.
         -3    1    1    2    0  502  0.26106935304E+02  0.17014857956E+02 -0.50977125925E+03  0.51072283502E+03  0.00000000000E+00 0. -1.
<mgrwt>
<rscale>  1 0.30000000E+03</rscale>
<asrwt>0</asrwt>
<pdfrwt beam="1">  1       21 0.36970197E-02 0.30000000E+03</pdfrwt>
<pdfrwt beam="2">0</pdfrwt>
<totfact> 0.48000315E+04</totfact>
</mgrwt>
</event>
<event>
 6    1  0.6513574E-002  0.3000000E+03  0.7818608E-02  0.1093470E+00
         21   -1    0    0  501  502  0.00000000000E+00  0.00000000000E+00  0.15871070212E+01  0.15871070212E+01  0.00000000000E+00 0. -1.
         13   -1    0    0    0    0 -0.00000000000E+00 -0.00000000000E+00 -0.10000000000E+04  0.10000000000E+04  0.00000000000E+00 0.  1.
    9000005    2    1    2  501    0  0.25246102641E+02 -0.23135894255E+02 -0.75416380085E+03  0.75494920582E+03  0.35538091290E+01 0.  0.
         13    1    3    3    0    0  0.19963373350E+02 -0.18711699378E+02 -0.63074742839E+03  0.63134062311E+03  0.00000000000E+00 0.  1.
          3    1    3    3  501    0  0.52827292916E+01 -0.44241948768E+01 -0.12341637246E+03  0.12360858271E+03  0.00000000000E+00 0.  1.
         -3    1    1    2    0  502 -0.25246102641E+02  0.23135894255E+02 -0.24424909213E+03  0.24663790120E+03  0.00000000000E+00 0. -1.
<mgrwt>
<rscale>  1 0.30000000E+03</rscale>
<asrwt>0</asrwt>
<pdfrwt beam="1">  1       21 0.57713104E-02 0.30000000E+03</pdfrwt>
<pdfrwt beam="2">0</pdfrwt>
<totfact> 0.22531120E+04</totfact>
</mgrwt>
</event>
<event>
 6    1  0.6513574E-002  0.3000000E+03  0.7818608E-02  0.1093470E+00
         21   -1    0    0  501  502  0.00000000000E+00  0.00000000000E+00  0.23372265220E+01  0.23372265220E+01  0.00000000000E+00 0. -1.
         13   -1    0    0    0    0 -0.00000000000E+00 -0.00000000000E+00 -0.10000000000E+04  0.10000000000E+04  0.00000000000E+00 0.  1.
    9000005    2    1    2  501    0  0.16264911581E+02 -0.39212796553E+02 -0.26068624809E+03  0.26413902161E+03  0.31483379347E+01 0.  0.
         13    1    3    3    0    0  0.14564131847E+02 -0.36943222687E+02 -0.24105631440E+03  0.24430526468E+03  0.00000000000E+00 0.  1.
          3    1    3    3  501    0  0.17007797344E+01 -0.22695738656E+01 -0.19629933697E+02  0.19833756935E+02  0.00000000000E+00 0.  1.
         -1    1    1    2    0  502 -0.16264911581E+02  0.39212796553E+02 -0.73697652538E+03  0.73819820491E+03  0.00000000000E+00 0. -1.
<mgrwt>
<rscale>  1 0.30000000E+03</rscale>
<asrwt>0</asrwt>
<pdfrwt beam="1">  1       21 0.84990235E-02 0.30000000E+03</pdfrwt>
<pdfrwt beam="2">0</pdfrwt>
<totfact> 0.11483588E+04</totfact>
</mgrwt>
</event>
<event>
 6    1  0.6513574E-002  0.3000000E+03  0.7818608E-02  0.1093470E+00
         21   -1    0    0  501  502  0.00000000000E+00  0.00000000000E+00  0.99327229354E+00  0.99327229354E+00  0.00000000000E+00 0. -1.
         13   -1    0    0    0    0 -0.00000000000E+00 -0.00000000000E+00 -0.10000000000E+04  0.10000000000E+04  0.00000000000E+00 0.  1.
    9000005    2    1    2  501    0  0.28180406139E+02  0.12474592279E+02 -0.59860138507E+03  0.59940369430E+03  0.33793176523E+01 0.  0.
         13    1    3    3    0    0  0.25438715111E+01  0.38098942133E+00 -0.63462666805E+02  0.63514773975E+02  0.00000000000E+00 0.  1.
          1    1    3    3  501    0  0.25636534628E+02  0.12093602858E+02 -0.53513871827E+03  0.53588892033E+03  0.00000000000E+00 0.  1.
         -3    1    1    2    0  502 -0.28180406139E+02 -0.12474592279E+02 -0.40040534263E+03  0.40158957799E+03  0.00000000000E+00 0. -1.
<mgrwt>
<rscale>  1 0.30000000E+03</rscale>
<asrwt>0</asrwt>
<pdfrwt beam="1">  1       21 0.36119069E-02 0.30000000E+03</pdfrwt>
<pdfrwt beam="2">0</pdfrwt>
<totfact> 0.49913146E+04</totfact>
</mgrwt>
</event>
<event>
 6    1  0.6513574E-002  0.3000000E+03  0.7818608E-02  0.1093470E+00
         21   -1    0    0  501  502  0.00000000000E+00  0.00000000000E+00  0.16154362416E+01  0.16154362416E+01  0.00000000000E+00 0. -1.
         13   -1    0    0    0    0 -0.00000000000E+00 -0.00000000000E+00 -0.10000000000E+04  0.10000000000E+04  0.00000000000E+00 0.  1.
    9000005    2    1    2  501    0  0.98581833734E+01 -0.34070168228E+02 -0.26549561176E+03  0.26786876599E+03  0.27920936993E+01 0.  0.
         13    1    3    3    0    0  0.42810540255E+01 -0.10652556831E+02 -0.90423287317E+02  0.91149192425E+02  0.00000000000E+00 0.  1.
          1    1    3    3  501    0  0.55771293479E+01 -0.23417611397E+02 -0.17507232444E+03  0.17671957357E+03  0.00000000000E+00 0.  1.
         -3    1    1    2    0  502 -0.98581833734E+01  0.34070168228E+02 -0.73288895200E+03  0.73374667025E+03  0.00000000000E+00 0. -1.
<mgrwt>
<rscale>  1 0.30000000E+03</rscale>
<asrwt>0</asrwt>
<pdfrwt beam="1">  1       21 0.58743260E-02 0.30000000E+03</pdfrwt>
<pdfrwt beam="2">0</pdfrwt>
<totfact> 0.21854831E+04</totfact>
</mgrwt>
</event>
<event>
 6    1  0.6513574E-002  0.3000000E+03  0.7818608E-02  0.1093470E+00
         21   -1    0    0  501  502  0.00000000000E+00  0.00000000000E+00  0.18726350025E+01  0.18726350025E+01  0.00000000000E+00 0. -1.
         13   -1    0    0    0    0 -0.00000000000E+00 -0.00000000000E+00 -0.10000000000E+04  0.10000000000E+04  0.00000000000E+00 0.  1.
    9000005    2    1    2  501    0 -0.41012007495E+02  0.82196071331E+01 -0.62703906926E+03  0.62843446082E+03  0.15265885918E+01 0.  0.
         13    1    3    3    0    0 -0.23405412227E+02  0.54502728669E+01 -0.35816055313E+03  0.35896587667E+03  0.00000000000E+00 0.  1.
          1    1    3    3  501    0 -0.17606595269E+02  0.27693342662E+01 -0.26887851613E+03  0.26946858415E+03  0.00000000000E+00 0.  1.
         -3    1    1    2    0  502  0.41012007495E+02 -0.82196071331E+01 -0.37108829574E+03  0.37343817418E+03  0.00000000000E+00 0. -1.
<mgrwt>
<rscale>  1 0.30000000E+03</rscale>
<asrwt>0</asrwt>
<pdfrwt beam="1">  1       21 0.68095962E-02 0.30000000E+03</pdfrwt>
<pdfrwt beam="2">0</pdfrwt>
<totfact> 0.16927690E+04</totfact>
</mgrwt>
</event>
<event>
 6    1  0.6513574E-002  0.3000000E+03  0.7818608E-02  0.1093470E+00
         21   -1    0    0  501  502  0.00000000000E+00  0.00000000000E+00  0.10260473358E+01  0.10260473358E+01  0.00000000000E+00 0. -1.
         13   -1    0    0    0    0 -0.00000000000E+00 -0.00000000000E+00 -0.10000000000E+04  0.10000000000E+04  0.00000000000E+00 0.  1.
    9000005    2    1    2  501    0  0.23619779290E+02  0.20931296234E+02 -0.46410164427E+03  0.46522347229E+03  0.68212771702E+01 0.  0.
         13    1    3    3    0    0  0.21985020901E+02  0.19121454244E+02 -0.39236202977E+03  0.39344241454E+03  0.00000000000E+00 0.  1.
          1    1    3    3  501    0  0.16347583890E+01  0.18098419899E+01 -0.71739614493E+02  0.71781057743E+02  0.00000000000E+00 0.  1.
         -1    1    1    2    0  502 -0.23619779290E+02 -0.20931296234E+02 -0.53487230840E+03  0.53580257505E+03  0.00000000000E+00 0. -1.
<mgrwt>
<rscale>  1 0.30000000E+03</rscale>
<asrwt>0</asrwt>
<pdfrwt beam="1">  1       21 0.37310891E-02 0.30000000E+03</pdfrwt>
<pdfrwt beam="2">0</pdfrwt>
<totfact> 0.47266827E+04</totfact>
</mgrwt>
</event>
<event>
 6    1  0.6513574E-002  0.3000000E+03  0.7818608E-02  0.1093470E+00
         21   -1    0    0  501  502  0.00000000000E+00  0.00000000000E+00  0.17311983023E+01  0.17311983023E+01  0.00000000000E+00 0. -1.
         13   -1    0    0    0    0 -0.00000000000E+00 -0.00000000000E+00 -0.10000000000E+04  0.10000000000E+04  0.00000000000E+00 0.  1.
    9000005    2    1    2  501    0 -0.23181343793E+02  0.27081348020E+02 -0.75671640919E+03  0.75756254258E+03  0.32415850305E+01 0.  0.
         13    1    3    3    0    0 -0.67077357822E+01  0.85379824021E+01 -0.20141685931E+03  0.20170930091E+03  0.00000000000E+00 0.  1.
          3    1    3    3  501    0 -0.16473608011E+02  0.18543365618E+02 -0.55529954989E+03  0.55585324167E+03  0.00000000000E+00 0.  1.
         -3    1    1    2    0  502  0.23181343793E+02 -0.27081348020E+02 -0.24155239251E+03  0.24416865572E+03  0.00000000000E+00 0. -1.
<mgrwt>
<rscale>  1 0.30000000E+03</rscale>
<asrwt>0</asrwt>
<pdfrwt beam="1">  1       21 0.62952798E-02 0.30000000E+03</pdfrwt>
<pdfrwt beam="2">0</pdfrwt>
<totfact> 0.19394520E+04</totfact>
</mgrwt>
</event>
<event>
 6    1  0.6513574E-002  0.3000000E+03  0.7818608E-02  0.1093470E+00
         21   -1    0    0  501  502  0.00000000000E+00  0.00000000000E+00  0.50918918886E+01  0.50918918886E+01  0.00000000000E+00 0. -1.
         13   -1    0    0    0    0 -0.00000000000E+00 -0.00000000000E+00 -0.10000000000E+04  0.10000000000E+04  0.00000000000E+00 0.  1.
    9000005    2    1    2  501    0  0.40458175309E+02 -0.55316360921E+02 -0.37125975381E+03  0.37768928306E+03  0.10891556761E+02 0.  0.
         13    1    3    3    0    0  0.37099582896E+02 -0.53814501855E+02 -0.35848846992E+03  0.36439863162E+03  0.00000000000E+00 0.  1.
          3    1    3    3  501    0  0.33585924131E+01 -0.15018590668E+01 -0.12771283892E+02  0.13290651448E+02  0.00000000000E+00 0.  1.
         -3    1    1    2    0  502 -0.40458175309E+02  0.55316360921E+02 -0.62364835430E+03  0.62740260882E+03  0.00000000000E+00 0. -1.
<mgrwt>
<rscale>  1 0.30000000E+03</rscale>
<asrwt>0</asrwt>
<pdfrwt beam="1">  1       21 0.18516010E-01 0.30000000E+03</pdfrwt>
<pdfrwt beam="2">0</pdfrwt>
<totfact> 0.27774509E+03</totfact>
</mgrwt>
</event>
<event>
 6    1  0.6513574E-002  0.3000000E+03  0.7818608E-02  0.1093470E+00
         21   -1    0    0  501  502  0.00000000000E+00  0.00000000000E+00  0.19712693105E+01  0.19712693105E+01  0.00000000000E+00 0. -1.
         13   -1    0    0    0    0 -0.00000000000E+00 -0.00000000000E+00 -0.10000000000E+04  0.10000000000E+04  0.00000000000E+00 0.  1.
    9000005    2    1    2  501    0 -0.36480923205E+02 -0.25246644225E+02 -0.49597766867E+03  0.49796380937E+03  0.24200865234E+01 0.  0.
         13    1    3    3    0    0 -0.35799357570E+02 -0.24469528559E+02 -0.48703644035E+03  0.48896303138E+03  0.00000000000E+00 0.  1.
          1    1    3    3  501    0 -0.68156563472E+00 -0.77711566615E+00 -0.89412283194E+01  0.90007779849E+01  0.00000000000E+00 0.  1.
         -3    1    1    2    0  502  0.36480923205E+02  0.25246644225E+02 -0.50205106202E+03  0.50400745994E+03  0.00000000000E+00 0. -1.
<mgrwt>
<rscale>  1 0.30000000E+03</rscale>
<asrwt>0</asrwt>
<pdfrwt beam="1">  1       21 0.71682672E-02 0.30000000E+03</pdfrwt>
<pdfrwt beam="2">0</pdfrwt>
<totfact> 0.15481226E+04</totfact>
</mgrwt>
</event>
<event>
 6    1  0.6513574E-002  0.3000000E+03  0.7818608E-02  0.1093470E+00
         21   -1    0    0  501  502  0.00000000000E+00  0.00000000000E+00  0.26056488922E+01  0.26056488922E+01  0.00000000000E+00 0. -1.
         13   -1    0    0    0    0 -0.00000000000E+00 -0.00000000000E+00 -0.10000000000E+04  0.10000000000E+04  0.00000000000E+00 0.  1.
    9000005    2    1    2  501    0  0.29302866660E+02 -0.30153294779E+02 -0.21606360725E+03  0.22014439715E+03  0.34919962875E+01 0.  0.
         13    1    3    3    0    0  0.17951995531E+02 -0.18426786643E+02 -0.12315308630E+03  0.12581137975E+03  0.00000000000E+00 0.  1.
          1    1    3    3  501    0  0.11350871129E+02 -0.11726508136E+02 -0.92910520949E+02  0.94333017398E+02  0.00000000000E+00 0.  1.
         -1    1    1    2    0  502 -0.29302866660E+02  0.30153294779E+02 -0.78133074386E+03  0.78246125175E+03  0.00000000000E+00 0. -1.
<mgrwt>
<rscale>  1 0.30000000E+03</rscale>
<asrwt>0</asrwt>
<pdfrwt beam="1">  1       21 0.94751069E-02 0.30000000E+03</pdfrwt>
<pdfrwt beam="2">0</pdfrwt>
<totfact> 0.94718846E+03</totfact>
</mgrwt>
</event>
<event>
 6    1  0.6513574E-002  0.3000000E+03  0.7818608E-02  0.1093470E+00
         21   -1    0    0  501  502  0.00000000000E+00  0.00000000000E+00  0.40264963523E+01  0.40264963523E+01  0.00000000000E+00 0. -1.
         13   -1    0    0    0    0 -0.00000000000E+00 -0.00000000000E+00 -0.10000000000E+04  0.10000000000E+04  0.00000000000E+00 0.  1.
    9000005    2    1    2  501    0 -0.17490575765E+02 -0.60619243313E+02 -0.44820194043E+03  0.45263344383E+03  0.33826272940E+01 0.  0.
         13    1    3    3    0    0 -0.13120915317E+01 -0.31817092716E+01 -0.29678571786E+02  0.29877457746E+02  0.00000000000E+00 0.  1.
          3    1    3    3  501    0 -0.16178484233E+02 -0.57437534041E+02 -0.41852336864E+03  0.42275598608E+03  0.00000000000E+00 0.  1.
         -3    1    1    2    0  502  0.17490575765E+02  0.60619243313E+02 -0.54777156322E+03  0.55139305252E+03  0.00000000000E+00 0. -1.
<mgrwt>
<rscale>  1 0.30000000E+03</rscale>
<asrwt>0</asrwt>
<pdfrwt beam="1">  1       21 0.14641836E-01 0.30000000E+03</pdfrwt>
<pdfrwt beam="2">0</pdfrwt>
<totfact> 0.43061509E+03</totfact>
</mgrwt>
</event>
<event>
 6    1  0.6513574E-002  0.3000000E+03  0.7818608E-02  0.1093470E+00
         21   -1    0    0  501  502  0.00000000000E+00  0.00000000000E+00  0.99955976272E+00  0.99955976272E+00  0.00000000000E+00 0. -1.
         13   -1    0    0    0    0 -0.00000000000E+00 -0.00000000000E+00 -0.10000000000E+04  0.10000000000E+04  0.00000000000E+00 0.  1.
    9000005    2    1    2  501    0 -0.49821693880E+01 -0.31138643811E+02 -0.48976050431E+03  0.49078416457E+03  0.30508128028E+01 0.  0.
         13    1    3    3    0    0 -0.32530384731E+01 -0.25516141447E+02 -0.38454068158E+03  0.38540004090E+03  0.00000000000E+00 0.  1.
          3    1    3    3  501    0 -0.17291309149E+01 -0.56225023647E+01 -0.10521982273E+03  0.10538412368E+03  0.00000000000E+00 0.  1.
         -1    1    1    2    0  502  0.49821693880E+01  0.31138643811E+02 -0.50923993592E+03  0.51021539519E+03  0.00000000000E+00 0. -1.
<mgrwt>
<rscale>  1 0.30000000E+03</rscale>
<asrwt>0</asrwt>
<pdfrwt beam="1">  1       21 0.36347704E-02 0.30000000E+03</pdfrwt>
<pdfrwt beam="2">0</pdfrwt>
<totfact> 0.49387658E+04</totfact>
</mgrwt>
</event>
<event>
 6    1  0.6513574E-002  0.3000000E+03  0.7818608E-02  0.1093470E+00
         21   -1    0    0  501  502  0.00000000000E+00  0.00000000000E+00  0.11730762313E+01  0.11730762313E+01  0.00000000000E+00 0. -1.
         13   -1    0    0    0    0 -0.00000000000E+00 -0.00000000000E+00 -0.10000000000E+04  0.10000000000E+04  0.00000000000E+00 0.  1.
    9000005    2    1    2  501    0  0.21544842245E+02  0.26295909240E+02 -0.44634752446E+03  0.44764878433E+03  0.27688347340E+01 0.  0.
         13    1    3    3    0    0  0.18000792991E+02  0.23412181938E+02 -0.38359634344E+03  0.38473148235E+03  0.00000000000E+00 0.  1.
          1    1    3    3  501    0  0.35440492536E+01  0.28837273018E+01 -0.62751181028E+02  0.62917301981E+02  0.00000000000E+00 0.  1.
         -1    1    1    2    0  502 -0.21544842245E+02 -0.26295909240E+02 -0.55247939930E+03  0.55352429190E+03  0.00000000000E+00 0. -1.
<mgrwt>
<rscale>  1 0.30000000E+03</rscale>
<asrwt>0</asrwt>
<pdfrwt beam="1">  1       21 0.42657407E-02 0.30000000E+03</pdfrwt>
<pdfrwt beam="2">0</pdfrwt>
<totfact> 0.37723507E+04</totfact>
</mgrwt>
</event>
<event>
 6    1  0.6513574E-002  0.3000000E+03  0.7818608E-02  0.1093470E+00
         21   -1    0    0  501  502  0.00000000000E+00  0.00000000000E+00  0.15401888037E+01  0.15401888037E+01  0.00000000000E+00 0. -1.
         13   -1    0    0    0    0 -0.00000000000E+00 -0.00000000000E+00 -0.10000000000E+04  0.10000000000E+04  0.00000000000E+00 0.  1.
    9000005    2    1    2  501    0  0.38497027717E+02 -0.68597219221E+01 -0.49128242839E+03  0.49285760156E+03  0.45950026611E+01 0.  0.
         13    1    3    3    0    0  0.12062618076E+02 -0.81918674487E+00 -0.17320646235E+03  0.17362792523E+03  0.00000000000E+00 0.  1.
          3    1    3    3  501    0  0.26434409641E+02 -0.60405351773E+01 -0.31807596604E+03  0.31922967633E+03  0.00000000000E+00 0.  1.
         -1    1    1    2    0  502 -0.38497027717E+02  0.68597219221E+01 -0.50717738281E+03  0.50868258724E+03  0.00000000000E+00 0. -1.
<mgrwt>
<rscale>  1 0.30000000E+03</rscale>
<asrwt>0</asrwt>
<pdfrwt beam="1">  1       21 0.56006984E-02 0.30000000E+03</pdfrwt>
<pdfrwt beam="2">0</pdfrwt>
<totfact> 0.23723981E+04</totfact>
</mgrwt>
</event>
<event>
 6    1  0.6513574E-002  0.3000000E+03  0.7818608E-02  0.1093470E+00
         21   -1    0    0  501  502  0.00000000000E+00  0.00000000000E+00  0.16659762925E+01  0.16659762925E+01  0.00000000000E+00 0. -1.
         13   -1    0    0    0    0 -0.00000000000E+00 -0.00000000000E+00 -0.10000000000E+04  0.10000000000E+04  0.00000000000E+00 0.  1.
    9000005    2    1    2  501    0  0.20536161124E+02 -0.28324285723E+02 -0.75640094683E+03  0.75721636438E+03  0.31986009563E+01 0.  0.
         13    1    3    3    0    0  0.29978608789E+01 -0.26705354462E+01 -0.75567925452E+02  0.75674502222E+02  0.00000000000E+00 0.  1.
          1    1    3    3  501    0  0.17538300245E+02 -0.25653750277E+02 -0.68083302138E+03  0.68154186216E+03  0.00000000000E+00 0.  1.
         -3    1    1    2    0  502 -0.20536161124E+02  0.28324285723E+02 -0.24193307688E+03  0.24444961191E+03  0.00000000000E+00 0. -1.
<mgrwt>
<rscale>  1 0.30000000E+03</rscale>
<asrwt>0</asrwt>
<pdfrwt beam="1">  1       21 0.60581084E-02 0.30000000E+03</pdfrwt>
<pdfrwt beam="2">0</pdfrwt>
<totfact> 0.20724233E+04</totfact>
</mgrwt>
</event>
<event>
 6    1  0.6513574E-002  0.3000000E+03  0.7818608E-02  0.1093470E+00
         21   -1    0    0  501  502  0.00000000000E+00  0.00000000000E+00  0.10311891195E+01  0.10311891195E+01  0.00000000000E+00 0. -1.
         13   -1    0    0    0    0 -0.00000000000E+00 -0.00000000000E+00 -0.10000000000E+04  0.10000000000E+04  0.00000000000E+00 0.  1.
    9000005    2    1    2  501    0 -0.23585224067E+02  0.21669363213E+02 -0.50028432973E+03  0.50131923625E+03  0.32774942462E+01 0.  0.
         13    1    3    3    0    0 -0.13281848281E+02  0.11599998068E+02 -0.29952707114E+03  0.30004571951E+03  0.00000000000E+00 0.  1.
          1    1    3    3  501    0 -0.10303375786E+02  0.10069365145E+02 -0.20075725859E+03  0.20127351674E+03  0.00000000000E+00 0.  1.
         -3    1    1    2    0  502  0.23585224067E+02 -0.21669363213E+02 -0.49868448115E+03  0.49971195287E+03  0.00000000000E+00 0. -1.
<mgrwt>
<rscale>  1 0.30000000E+03</rscale>
<asrwt>0</asrwt>
<pdfrwt beam="1">  1       21 0.37497865E-02 0.30000000E+03</pdfrwt>
<pdfrwt beam="2">0</pdfrwt>
<totfact> 0.46871754E+04</totfact>
</mgrwt>
</event>
<event>
 6    1  0.6513574E-002  0.3000000E+03  0.7818608E-02  0.1093470E+00
         21   -1    0    0  501  502  0.00000000000E+00  0.00000000000E+00  0.12251931704E+01  0.12251931704E+01  0.00000000000E+00 0. -1.
         13   -1    0    0    0    0 -0.00000000000E+00 -0.00000000000E+00 -0.10000000000E+04  0.10000000000E+04  0.00000000000E+00 0.  1.
    9000005    2    1    2  501    0 -0.29434114554E+02 -0.18805189097E+02 -0.48937122431E+03  0.49062553383E+03  0.30359553729E+01 0.  0.
         13    1    3    3    0    0 -0.29241053289E+02 -0.18922450419E+02 -0.48680362357E+03  0.48804801633E+03  0.00000000000E+00 0.  1.
          1    1    3    3  501    0 -0.19306126440E+00  0.11726132214E+00 -0.25676007401E+01  0.25775174936E+01  0.00000000000E+00 0.  1.
         -3    1    1    2    0  502  0.29434114554E+02  0.18805189097E+02 -0.50940358252E+03  0.51059965934E+03  0.00000000000E+00 0. -1.
<mgrwt>
<rscale>  1 0.30000000E+03</rscale>
<asrwt>0</asrwt>
<pdfrwt beam="1">  1       21 0.44552573E-02 0.30000000E+03</pdfrwt>
<pdfrwt beam="2">0</pdfrwt>
<totfact> 0.35047223E+04</totfact>
</mgrwt>
</event>
<event>
 6    1  0.6513574E-002  0.3000000E+03  0.7818608E-02  0.1093470E+00
         21   -1    0    0  501  502  0.00000000000E+00  0.00000000000E+00  0.51441397109E+01  0.51441397109E+01  0.00000000000E+00 0. -1.
         13   -1    0    0    0    0 -0.00000000000E+00 -0.00000000000E+00 -0.10000000000E+04  0.10000000000E+04  0.00000000000E+00 0.  1.
    9000005    2    1    2  501    0  0.66088184915E+02 -0.19903666313E+02 -0.36230588486E+03  0.36883975066E+03  0.36610572383E+01 0.  0.
         13    1    3    3    0    0  0.37837506739E+02 -0.11258348700E+02 -0.19750884141E+03  0.20141541591E+03  0.00000000000E+00 0.  1.
          3    1    3    3  501    0  0.28250678176E+02 -0.86453176139E+01 -0.16479704346E+03  0.16742433475E+03  0.00000000000E+00 0.  1.
         -3    1    1    2    0  502 -0.66088184915E+02  0.19903666313E+02 -0.63254997542E+03  0.63630438905E+03  0.00000000000E+00 0. -1.
<mgrwt>
<rscale>  1 0.30000000E+03</rscale>
<asrwt>0</asrwt>
<pdfrwt beam="1">  1       21 0.18706002E-01 0.30000000E+03</pdfrwt>
<pdfrwt beam="2">0</pdfrwt>
<totfact> 0.27243599E+03</totfact>
</mgrwt>
</event>
<event>
 6    1  0.6513574E-002  0.3000000E+03  0.7818608E-02  0.1093470E+00
         21   -1    0    0  501  502  0.00000000000E+00  0.00000000000E+00  0.33062062547E+01  0.33062062547E+01  0.00000000000E+00 0. -1.
         13   -1    0    0    0    0 -0.00000000000E+00 -0.00000000000E+00 -0.10000000000E+04  0.10000000000E+04  0.00000000000E+00 0.  1.
    9000005    2    1    2  501    0  0.13015151081E+02 -0.55510164577E+02 -0.48423696727E+03  0.48768738239E+03  0.10137550814E+02 0.  0.
         13    1    3    3    0    0  0.53525451443E+01 -0.34180917546E+02 -0.32706047988E+03  0.32888530275E+03  0.00000000000E+00 0.  1.
          3    1    3    3  501    0  0.76626059362E+01 -0.21329247030E+02 -0.15717648739E+03  0.15880207964E+03  0.00000000000E+00 0.  1.
         -3    1    1    2    0  502 -0.13015151081E+02  0.55510164577E+02 -0.51245682647E+03  0.51561882387E+03  0.00000000000E+00 0. -1.
<mgrwt>
<rscale>  1 0.30000000E+03</rscale>
<asrwt>0</asrwt>
<pdfrwt beam="1">  1       21 0.12022594E-01 0.30000000E+03</pdfrwt>
<pdfrwt beam="2">0</pdfrwt>
<totfact> 0.61759972E+03</totfact>
</mgrwt>
</event>
<event>
 6    1  0.6513574E-002  0.3000000E+03  0.7818608E-02  0.1093470E+00
         21   -1    0    0  501  502  0.00000000000E+00  0.00000000000E+00  0.11085196980E+01  0.11085196980E+01  0.00000000000E+00 0. -1.
         13   -1    0    0    0    0 -0.00000000000E+00 -0.00000000000E+00 -0.10000000000E+04  0.10000000000E+04  0.00000000000E+00 0.  1.
    9000005    2    1    2  501    0 -0.29506867594E+02  0.15161085587E+02 -0.52543866991E+03  0.52649491115E+03  0.32529798903E+01 0.  0.
         13    1    3    3    0    0 -0.21312086994E+02  0.12514260341E+02 -0.39428975479E+03  0.39506356767E+03  0.00000000000E+00 0.  1.
          1    1    3    3  501    0 -0.81947805996E+01  0.26468252454E+01 -0.13114891512E+03  0.13143134349E+03  0.00000000000E+00 0.  1.
         -3    1    1    2    0  502  0.29506867594E+02 -0.15161085587E+02 -0.47345281039E+03  0.47461360855E+03  0.00000000000E+00 0. -1.
<mgrwt>
<rscale>  1 0.30000000E+03</rscale>
<asrwt>0</asrwt>
<pdfrwt beam="1">  1       21 0.40309892E-02 0.30000000E+03</pdfrwt>
<pdfrwt beam="2">0</pdfrwt>
<totfact> 0.41504288E+04</totfact>
</mgrwt>
</event>
<event>
 6    1  0.6513574E-002  0.3000000E+03  0.7818608E-02  0.1093470E+00
         21   -1    0    0  501  502  0.00000000000E+00  0.00000000000E+00  0.16072503896E+01  0.16072503896E+01  0.00000000000E+00 0. -1.
         13   -1    0    0    0    0 -0.00000000000E+00 -0.00000000000E+00 -0.10000000000E+04  0.10000000000E+04  0.00000000000E+00 0.  1.
    9000005    2    1    2  501    0  0.27833125139E+02 -0.28185515306E+02 -0.43094399440E+03  0.43277757824E+03  0.38209671139E+01 0.  0.
         13    1    3    3    0    0  0.16972286284E+02 -0.17107289831E+02 -0.28201351185E+03  0.28304123151E+03  0.00000000000E+00 0.  1.
          1    1    3    3  501    0  0.10860838856E+02 -0.11078225476E+02 -0.14893048255E+03  0.14973634673E+03  0.00000000000E+00 0.  1.
         -1    1    1    2    0  502 -0.27833125139E+02  0.28185515306E+02 -0.56744875521E+03  0.56882967215E+03  0.00000000000E+00 0. -1.
<mgrwt>
<rscale>  1 0.30000000E+03</rscale>
<asrwt>0</asrwt>
<pdfrwt beam="1">  1       21 0.58445592E-02 0.30000000E+03</pdfrwt>
<pdfrwt beam="2">0</pdfrwt>
<totfact> 0.22046982E+04</totfact>
</mgrwt>
</event>
<event>
 6    1  0.6513574E-002  0.3000000E+03  0.7818608E-02  0.1093470E+00
         21   -1    0    0  501  502  0.00000000000E+00  0.00000000000E+00  0.15180671736E+01  0.15180671736E+01  0.00000000000E+00 0. -1.
         13   -1    0    0    0    0 -0.00000000000E+00 -0.00000000000E+00 -0.10000000000E+04  0.10000000000E+04  0.00000000000E+00 0.  1.
    9000005    2    1    2  501    0  0.90300975172E+01  0.37538690297E+02 -0.55984876520E+03  0.56118892701E+03  0.34170130779E+01 0.  0.
         13    1    3    3    0    0  0.90091567383E+01  0.36476774730E+02 -0.53517486018E+03  0.53649217233E+03  0.00000000000E+00 0.  1.
          1    1    3    3  501    0  0.20940778956E-01  0.10619155672E+01 -0.24673905013E+02  0.24696754681E+02  0.00000000000E+00 0.  1.
         -3    1    1    2    0  502 -0.90300975172E+01 -0.37538690297E+02 -0.43863316763E+03  0.44032914016E+03  0.00000000000E+00 0. -1.
<mgrwt>
<rscale>  1 0.30000000E+03</rscale>
<asrwt>0</asrwt>
<pdfrwt beam="1">  1       21 0.55202559E-02 0.30000000E+03</pdfrwt>
<pdfrwt beam="2">0</pdfrwt>
<totfact> 0.24320344E+04</totfact>
</mgrwt>
</event>
<event>
 6    1  0.6513574E-002  0.3000000E+03  0.7818608E-02  0.1093470E+00
         21   -1    0    0  501  502  0.00000000000E+00  0.00000000000E+00  0.99028417424E+00  0.99028417424E+00  0.00000000000E+00 0. -1.
         13   -1    0    0    0    0 -0.00000000000E+00 -0.00000000000E+00 -0.10000000000E+04  0.10000000000E+04  0.00000000000E+00 0.  1.
    9000005    2    1    2  501    0  0.29907992562E+02 -0.25518775892E+01 -0.64640474051E+03  0.64710998137E+03  0.33525111896E+01 0.  0.
         13    1    3    3    0    0  0.14770073886E+02 -0.25507740604E+01 -0.29857066565E+03  0.29894665731E+03  0.00000000000E+00 0.  1.
          1    1    3    3  501    0  0.15137918676E+02 -0.11035288065E-02 -0.34783407487E+03  0.34816332406E+03  0.00000000000E+00 0.  1.
         -1    1    1    2    0  502 -0.29907992562E+02  0.25518775892E+01 -0.35260497531E+03  0.35388030281E+03  0.00000000000E+00 0. -1.
<mgrwt>
<rscale>  1 0.30000000E+03</rscale>
<asrwt>0</asrwt>
<pdfrwt beam="1">  1       21 0.36010410E-02 0.30000000E+03</pdfrwt>
<pdfrwt beam="2">0</pdfrwt>
<totfact> 0.50165984E+04</totfact>
</mgrwt>
</event>
<event>
 6    1  0.6513574E-002  0.3000000E+03  0.7818608E-02  0.1093470E+00
         21   -1    0    0  501  502  0.00000000000E+00  0.00000000000E+00  0.13003664016E+01  0.13003664016E+01  0.00000000000E+00 0. -1.
         13   -1    0    0    0    0 -0.00000000000E+00 -0.00000000000E+00 -0.10000000000E+04  0.10000000000E+04  0.00000000000E+00 0.  1.
    9000005    2    1    2  501    0 -0.32779372455E+02  0.10960590023E+02 -0.63934183232E+03  0.64028422946E+03  0.33606769168E+01 0.  0.
         13    1    3    3    0    0 -0.26351096901E+02  0.96126359981E+01 -0.49692565597E+03  0.49771667708E+03  0.00000000000E+00 0.  1.
          1    1    3    3  501    0 -0.64282755540E+01  0.13479540249E+01 -0.14241617635E+03  0.14256755238E+03  0.00000000000E+00 0.  1.
         -3    1    1    2    0  502  0.32779372455E+02 -0.10960590023E+02 -0.35935780128E+03  0.36101613694E+03  0.00000000000E+00 0. -1.
<mgrwt>
<rscale>  1 0.30000000E+03</rscale>
<asrwt>0</asrwt>
<pdfrwt beam="1">  1       21 0.47286151E-02 0.30000000E+03</pdfrwt>
<pdfrwt beam="2">0</pdfrwt>
<totfact> 0.31675706E+04</totfact>
</mgrwt>
</event>
<event>
 6    1  0.6513574E-002  0.3000000E+03  0.7818608E-02  0.1093470E+00
         21   -1    0    0  501  502  0.00000000000E+00  0.00000000000E+00  0.15840564291E+01  0.15840564291E+01  0.00000000000E+00 0. -1.
         13   -1    0    0    0    0 -0.00000000000E+00 -0.00000000000E+00 -0.10000000000E+04  0.10000000000E+04  0.00000000000E+00 0.  1.
    9000005    2    1    2  501    0 -0.81578064193E+01 -0.31295376014E+02 -0.21132097513E+03  0.21382493099E+03  0.43123332616E+01 0.  0.
         13    1    3    3    0    0 -0.62678937025E+01 -0.15681275242E+02 -0.11228633616E+03  0.11354915311E+03  0.00000000000E+00 0.  1.
          3    1    3    3  501    0 -0.18899127168E+01 -0.15614100772E+02 -0.99034638975E+02  0.10027577788E+03  0.00000000000E+00 0.  1.
         -1    1    1    2    0  502  0.81578064193E+01  0.31295376014E+02 -0.78709496844E+03  0.78775912544E+03  0.00000000000E+00 0. -1.
<mgrwt>
<rscale>  1 0.30000000E+03</rscale>
<asrwt>0</asrwt>
<pdfrwt beam="1">  1       21 0.57602173E-02 0.30000000E+03</pdfrwt>
<pdfrwt beam="2">0</pdfrwt>
<totfact> 0.22605858E+04</totfact>
</mgrwt>
</event>
<event>
 6    1  0.6513574E-002  0.3000000E+03  0.7818608E-02  0.1093470E+00
         21   -1    0    0  501  502  0.00000000000E+00  0.00000000000E+00  0.11834747842E+01  0.11834747842E+01  0.00000000000E+00 0. -1.
         13   -1    0    0    0    0 -0.00000000000E+00 -0.00000000000E+00 -0.10000000000E+04  0.10000000000E+04  0.00000000000E+00 0.  1.
    9000005    2    1    2  501    0  0.24625828664E+02 -0.23882601653E+02 -0.48528008580E+03  0.48650252050E+03  0.33362667513E+01 0.  0.
         13    1    3    3    0    0  0.14013661654E+02 -0.15395217906E+02 -0.30743040565E+03  0.30813446702E+03  0.00000000000E+00 0.  1.
          3    1    3    3  501    0  0.10612167010E+02 -0.84873837467E+01 -0.17784968015E+03  0.17836805347E+03  0.00000000000E+00 0.  1.
         -1    1    1    2    0  502 -0.24625828664E+02  0.23882601653E+02 -0.51353643941E+03  0.51468095429E+03  0.00000000000E+00 0. -1.
<mgrwt>
<rscale>  1 0.30000000E+03</rscale>
<asrwt>0</asrwt>
<pdfrwt beam="1">  1       21 0.43035537E-02 0.30000000E+03</pdfrwt>
<pdfrwt beam="2">0</pdfrwt>
<totfact> 0.37164782E+04</totfact>
</mgrwt>
</event>
<event>
 6    1  0.6513574E-002  0.3000000E+03  0.7818608E-02  0.1093470E+00
         21   -1    0    0  501  502  0.00000000000E+00  0.00000000000E+00  0.26702480530E+01  0.26702480530E+01  0.00000000000E+00 0. -1.
         13   -1    0    0    0    0 -0.00000000000E+00 -0.00000000000E+00 -0.10000000000E+04  0.10000000000E+04  0.00000000000E+00 0.  1.
    9000005    2    1    2  501    0 -0.43953692317E+02  0.25667761815E+02 -0.58219451944E+03  0.58442627340E+03  0.35846212403E+01 0.  0.
         13    1    3    3    0    0 -0.27378447266E+02  0.16229785844E+02 -0.34394526325E+03  0.34541472093E+03  0.00000000000E+00 0.  1.
          1    1    3    3  501    0 -0.16575245052E+02  0.94379759707E+01 -0.23824925619E+03  0.23901155247E+03  0.00000000000E+00 0.  1.
         -1    1    1    2    0  502  0.43953692317E+02 -0.25667761815E+02 -0.41513523251E+03  0.41824397466E+03  0.00000000000E+00 0. -1.
<mgrwt>
<rscale>  1 0.30000000E+03</rscale>
<asrwt>0</asrwt>
<pdfrwt beam="1">  1       21 0.97100134E-02 0.30000000E+03</pdfrwt>
<pdfrwt beam="2">0</pdfrwt>
<totfact> 0.90672742E+03</totfact>
</mgrwt>
</event>
<event>
 6    1  0.6513574E-002  0.3000000E+03  0.7818608E-02  0.1093470E+00
         21   -1    0    0  501  502  0.00000000000E+00  0.00000000000E+00  0.15172702724E+01  0.15172702724E+01  0.00000000000E+00 0. -1.
         13   -1    0    0    0    0 -0.00000000000E+00 -0.00000000000E+00 -0.10000000000E+04  0.10000000000E+04  0.00000000000E+00 0.  1.
    9000005    2    1    2  501    0 -0.34821539113E+02 -0.91198310876E+01 -0.68913684499E+03  0.69008415175E+03  0.32915764605E+01 0.  0.
         13    1    3    3    0    0 -0.25773338656E+02 -0.53911629865E+01 -0.51437100115E+03  0.51504451890E+03  0.00000000000E+00 0.  1.
          1    1    3    3  501    0 -0.90482004574E+01 -0.37286681011E+01 -0.17476584384E+03  0.17503963285E+03  0.00000000000E+00 0.  1.
         -1    1    1    2    0  502  0.34821539113E+02  0.91198310876E+01 -0.30934588474E+03  0.31143311852E+03  0.00000000000E+00 0. -1.
<mgrwt>
<rscale>  1 0.30000000E+03</rscale>
<asrwt>0</asrwt>
<pdfrwt beam="1">  1       21 0.55173581E-02 0.30000000E+03</pdfrwt>
<pdfrwt beam="2">0</pdfrwt>
<totfact> 0.24342256E+04</totfact>
</mgrwt>
</event>
<event>
 6    1  0.6513574E-002  0.3000000E+03  0.7818608E-02  0.1093470E+00
         21   -1    0    0  501  502  0.00000000000E+00  0.00000000000E+00  0.13515206329E+01  0.13515206329E+01  0.00000000000E+00 0. -1.
         13   -1    0    0    0    0 -0.00000000000E+00 -0.00000000000E+00 -0.10000000000E+04  0.10000000000E+04  0.00000000000E+00 0.  1.
    9000005    2    1    2  501    0 -0.25065016407E+02  0.25073033823E+02 -0.62980369087E+03  0.63080679988E+03  0.27600136209E+01 0.  0.
         13    1    3    3    0    0 -0.10789528225E+02  0.97728450688E+01 -0.27903538009E+03  0.27941486317E+03  0.00000000000E+00 0.  1.
          3    1    3    3  501    0 -0.14275488182E+02  0.15300188755E+02 -0.35076831078E+03  0.35139193671E+03  0.00000000000E+00 0.  1.
         -1    1    1    2    0  502  0.25065016407E+02 -0.25073033823E+02 -0.36884478850E+03  0.37054472075E+03  0.00000000000E+00 0. -1.
<mgrwt>
<rscale>  1 0.30000000E+03</rscale>
<asrwt>0</asrwt>
<pdfrwt beam="1">  1       21 0.49146308E-02 0.30000000E+03</pdfrwt>
<pdfrwt beam="2">0</pdfrwt>
<totfact> 0.29662464E+04</totfact>
</mgrwt>
</event>
<event>
 6    1  0.6513574E-002  0.3000000E+03  0.7818608E-02  0.1093470E+00
         21   -1    0    0  501  502  0.00000000000E+00  0.00000000000E+00  0.11183540743E+01  0.11183540743E+01  0.00000000000E+00 0. -1.
         13   -1    0    0    0    0 -0.00000000000E+00 -0.00000000000E+00 -0.10000000000E+04  0.10000000000E+04  0.00000000000E+00 0.  1.
    9000005    2    1    2  501    0  0.84795724997E+01  0.31233304761E+02 -0.60258003350E+03  0.60349744103E+03  0.76838847757E+01 0.  0.
         13    1    3    3    0    0  0.74330046726E+01  0.15012750553E+02 -0.34321135078E+03  0.34361994055E+03  0.00000000000E+00 0.  1.
          3    1    3    3  501    0  0.10465678271E+01  0.16220554208E+02 -0.25936868272E+03  0.25987750049E+03  0.00000000000E+00 0.  1.
         -3    1    1    2    0  502 -0.84795724997E+01 -0.31233304761E+02 -0.39630161243E+03  0.39762091304E+03  0.00000000000E+00 0. -1.
<mgrwt>
<rscale>  1 0.30000000E+03</rscale>
<asrwt>0</asrwt>
<pdfrwt beam="1">  1       21 0.40667507E-02 0.30000000E+03</pdfrwt>
<pdfrwt beam="2">0</pdfrwt>
<totfact> 0.40891130E+04</totfact>
</mgrwt>
</event>
<event>
 6    1  0.6513574E-002  0.3000000E+03  0.7818608E-02  0.1093470E+00
         21   -1    0    0  501  502  0.00000000000E+00  0.00000000000E+00  0.14420535545E+01  0.14420535545E+01  0.00000000000E+00 0. -1.
         13   -1    0    0    0    0 -0.00000000000E+00 -0.00000000000E+00 -0.10000000000E+04  0.10000000000E+04  0.00000000000E+00 0.  1.
    9000005    2    1    2  501    0  0.36700597149E+02  0.86425323822E+01 -0.44901025326E+03  0.45060242691E+03  0.32729813697E+01 0.  0.
         13    1    3    3    0    0  0.20943013476E+02  0.45299517403E+01 -0.27363275064E+03  0.27447042190E+03  0.00000000000E+00 0.  1.
          3    1    3    3  501    0  0.15757583673E+02  0.41125806419E+01 -0.17537750262E+03  0.17613200501E+03  0.00000000000E+00 0.  1.
         -1    1    1    2    0  502 -0.36700597149E+02 -0.86425323822E+01 -0.54954769318E+03  0.55083962664E+03  0.00000000000E+00 0. -1.
<mgrwt>
<rscale>  1 0.30000000E+03</rscale>
<asrwt>0</asrwt>
<pdfrwt beam="1">  1       21 0.52438422E-02 0.30000000E+03</pdfrwt>
<pdfrwt beam="2">0</pdfrwt>
<totfact> 0.26556150E+04</totfact>
</mgrwt>
</event>
<event>
 6    1  0.6513574E-002  0.3000000E+03  0.7818608E-02  0.1093470E+00
         21   -1    0    0  501  502  0.00000000000E+00  0.00000000000E+00  0.17759423325E+01  0.17759423325E+01  0.00000000000E+00 0. -1.
         13   -1    0    0    0    0 -0.00000000000E+00 -0.00000000000E+00 -0.10000000000E+04  0.10000000000E+04  0.00000000000E+00 0.  1.
    9000005    2    1    2  501    0 -0.27892483107E+02  0.26378977350E+02 -0.70498446958E+03  0.70603399894E+03  0.26578656904E+01 0.  0.
         13    1    3    3    0    0 -0.27533434491E+02  0.26316332081E+02 -0.69495669628E+03  0.69599960420E+03  0.00000000000E+00 0.  1.
          3    1    3    3  501    0 -0.35904861607E+00  0.62645269461E-01 -0.10027773304E+02  0.10034394739E+02  0.00000000000E+00 0.  1.
         -3    1    1    2    0  502  0.27892483107E+02 -0.26378977350E+02 -0.29323958809E+03  0.29574194339E+03  0.00000000000E+00 0. -1.
<mgrwt>
<rscale>  1 0.30000000E+03</rscale>
<asrwt>0</asrwt>
<pdfrwt beam="1">  1       21 0.64579857E-02 0.30000000E+03</pdfrwt>
<pdfrwt beam="2">0</pdfrwt>
<totfact> 0.18557193E+04</totfact>
</mgrwt>
</event>
<event>
 6    1  0.6513574E-002  0.3000000E+03  0.7818608E-02  0.1093470E+00
         21   -1    0    0  501  502  0.00000000000E+00  0.00000000000E+00  0.21889375718E+01  0.21889375718E+01  0.00000000000E+00 0. -1.
         13   -1    0    0    0    0 -0.00000000000E+00 -0.00000000000E+00 -0.10000000000E+04  0.10000000000E+04  0.00000000000E+00 0.  1.
    9000005    2    1    2  501    0 -0.33435288933E+02  0.28848711151E+02 -0.33618050438E+03  0.33908625923E+03  0.34630899724E+01 0.  0.
         13    1    3    3    0    0 -0.84777724643E+01  0.70260762242E+01 -0.95677673683E+02  0.96309166825E+02  0.00000000000E+00 0.  1.
          3    1    3    3  501    0 -0.24957516469E+02  0.21822634927E+02 -0.24050283070E+03  0.24277709241E+03  0.00000000000E+00 0.  1.
         -1    1    1    2    0  502  0.33435288933E+02 -0.28848711151E+02 -0.66163055804E+03  0.66310267834E+03  0.00000000000E+00 0. -1.
<mgrwt>
<rscale>  1 0.30000000E+03</rscale>
<asrwt>0</asrwt>
<pdfrwt beam="1">  1       21 0.79597898E-02 0.30000000E+03</pdfrwt>
<pdfrwt beam="2">0</pdfrwt>
<totfact> 0.12887412E+04</totfact>
</mgrwt>
</event>
<event>
 6    1  0.6513574E-002  0.3000000E+03  0.7818608E-02  0.1093470E+00
         21   -1    0    0  501  502  0.00000000000E+00  0.00000000000E+00  0.66544054985E+02  0.66544054985E+02  0.00000000000E+00 0. -1.
         13   -1    0    0    0    0 -0.00000000000E+00 -0.00000000000E+00 -0.10000000000E+04  0.10000000000E+04  0.00000000000E+00 0.  1.
    9000005    2    1    2  501    0 -0.17046167258E+03  0.19352149337E+03 -0.47828329392E+03  0.54339026066E+03  0.32118400822E+01 0.  0.
         13    1    3    3    0    0 -0.31532100526E+02  0.37216935755E+02 -0.88705919300E+02  0.10123296790E+03  0.00000000000E+00 0.  1.
          3    1    3    3  501    0 -0.13892957206E+03  0.15630455762E+03 -0.38957737462E+03  0.44215729276E+03  0.00000000000E+00 0.  1.
         -1    1    1    2    0  502  0.17046167258E+03 -0.19352149337E+03 -0.45517265109E+03  0.52315379433E+03  0.00000000000E+00 0. -1.
<mgrwt>
<rscale>  1 0.30000000E+03</rscale>
<asrwt>0</asrwt>
<pdfrwt beam="1">  1       21 0.24197889E+00 0.30000000E+03</pdfrwt>
<pdfrwt beam="2">0</pdfrwt>
<totfact> 0.46913228E+00</totfact>
</mgrwt>
</event>
<event>
 6    1  0.6513574E-002  0.3000000E+03  0.7818608E-02  0.1093470E+00
         21   -1    0    0  501  502  0.00000000000E+00  0.00000000000E+00  0.15123708238E+01  0.15123708238E+01  0.00000000000E+00 0. -1.
         13   -1    0    0    0    0 -0.00000000000E+00 -0.00000000000E+00 -0.10000000000E+04  0.10000000000E+04  0.00000000000E+00 0.  1.
    9000005    2    1    2  501    0  0.12959166195E+02 -0.29129679604E+02 -0.78395805990E+03  0.78462665365E+03  0.56804670451E+01 0.  0.
         13    1    3    3    0    0  0.68419351841E+01 -0.18042636799E+02 -0.53324951846E+03  0.53359853613E+03  0.00000000000E+00 0.  1.
          3    1    3    3  501    0  0.61172310106E+01 -0.11087042805E+02 -0.25070854144E+03  0.25102811752E+03  0.00000000000E+00 0.  1.
         -3    1    1    2    0  502 -0.12959166195E+02  0.29129679604E+02 -0.21452956927E+03  0.21688571718E+03  0.00000000000E+00 0. -1.
<mgrwt>
<rscale>  1 0.30000000E+03</rscale>
<asrwt>0</asrwt>
<pdfrwt beam="1">  1       21 0.54995419E-02 0.30000000E+03</pdfrwt>
<pdfrwt beam="2">0</pdfrwt>
<totfact> 0.24477645E+04</totfact>
</mgrwt>
</event>
<event>
 6    1  0.6513574E-002  0.3000000E+03  0.7818608E-02  0.1093470E+00
         21   -1    0    0  501  502  0.00000000000E+00  0.00000000000E+00  0.12654010171E+01  0.12654010171E+01  0.00000000000E+00 0. -1.
         13   -1    0    0    0    0 -0.00000000000E+00 -0.00000000000E+00 -0.10000000000E+04  0.10000000000E+04  0.00000000000E+00 0.  1.
    9000005    2    1    2  501    0  0.69717527583E+01  0.31718373808E+02 -0.70210934272E+03  0.70286767444E+03  0.32829961981E+01 0.  0.
         13    1    3    3    0    0  0.38925803545E+01  0.23307058917E+02 -0.52664400070E+03  0.52717385619E+03  0.00000000000E+00 0.  1.
          3    1    3    3  501    0  0.30791724038E+01  0.84113148905E+01 -0.17546534202E+03  0.17569381825E+03  0.00000000000E+00 0.  1.
         -3    1    1    2    0  502 -0.69717527583E+01 -0.31718373808E+02 -0.29662525626E+03  0.29839772658E+03  0.00000000000E+00 0. -1.
<mgrwt>
<rscale>  1 0.30000000E+03</rscale>
<asrwt>0</asrwt>
<pdfrwt beam="1">  1       21 0.46014679E-02 0.30000000E+03</pdfrwt>
<pdfrwt beam="2">0</pdfrwt>
<totfact> 0.33177794E+04</totfact>
</mgrwt>
</event>
<event>
 6    1  0.6513574E-002  0.3000000E+03  0.7818608E-02  0.1093470E+00
         21   -1    0    0  501  502  0.00000000000E+00  0.00000000000E+00  0.14581653687E+01  0.14581653687E+01  0.00000000000E+00 0. -1.
         13   -1    0    0    0    0 -0.00000000000E+00 -0.00000000000E+00 -0.10000000000E+04  0.10000000000E+04  0.00000000000E+00 0.  1.
    9000005    2    1    2  501    0 -0.37503809265E+02  0.40454862107E+01 -0.57410805407E+03  0.57535144664E+03  0.25154978328E+01 0.  0.
         13    1    3    3    0    0 -0.62343238018E+01  0.21052146603E+00 -0.83134699510E+02  0.83368395541E+02  0.00000000000E+00 0.  1.
          1    1    3    3  501    0 -0.31269485463E+02  0.38349647447E+01 -0.49097335457E+03  0.49198305110E+03  0.00000000000E+00 0.  1.
         -3    1    1    2    0  502  0.37503809265E+02 -0.40454862107E+01 -0.42443378056E+03  0.42610671873E+03  0.00000000000E+00 0. -1.
<mgrwt>
<rscale>  1 0.30000000E+03</rscale>
<asrwt>0</asrwt>
<pdfrwt beam="1">  1       21 0.53024307E-02 0.30000000E+03</pdfrwt>
<pdfrwt beam="2">0</pdfrwt>
<totfact> 0.26056422E+04</totfact>
</mgrwt>
</event>
<event>
 6    1  0.6513574E-002  0.3000000E+03  0.7818608E-02  0.1093470E+00
         21   -1    0    0  501  502  0.00000000000E+00  0.00000000000E+00  0.10219641246E+01  0.10219641246E+01  0.00000000000E+00 0. -1.
         13   -1    0    0    0    0 -0.00000000000E+00 -0.00000000000E+00 -0.10000000000E+04  0.10000000000E+04  0.00000000000E+00 0.  1.
    9000005    2    1    2  501    0  0.27556885526E+02  0.11920242738E+02 -0.66912589584E+03  0.66980616074E+03  0.30584886130E+01 0.  0.
         13    1    3    3    0    0  0.27212237011E+02  0.11706416213E+02 -0.66521971158E+03  0.66587897601E+03  0.00000000000E+00 0.  1.
          3    1    3    3  501    0  0.34464851512E+00  0.21382652495E+00 -0.39061842637E+01  0.39271847275E+01  0.00000000000E+00 0.  1.
         -3    1    1    2    0  502 -0.27556885526E+02 -0.11920242738E+02 -0.32985214003E+03  0.33121580338E+03  0.00000000000E+00 0. -1.
<mgrwt>
<rscale>  1 0.30000000E+03</rscale>
<asrwt>0</asrwt>
<pdfrwt beam="1">  1       21 0.37162410E-02 0.30000000E+03</pdfrwt>
<pdfrwt beam="2">0</pdfrwt>
<totfact> 0.47584310E+04</totfact>
</mgrwt>
</event>
<event>
 6    1  0.6513574E-002  0.3000000E+03  0.7818608E-02  0.1093470E+00
         21   -1    0    0  501  502  0.00000000000E+00  0.00000000000E+00  0.21061394067E+01  0.21061394067E+01  0.00000000000E+00 0. -1.
         13   -1    0    0    0    0 -0.00000000000E+00 -0.00000000000E+00 -0.10000000000E+04  0.10000000000E+04  0.00000000000E+00 0.  1.
    9000005    2    1    2  501    0  0.20003126911E+02 -0.41208758574E+02 -0.51938622657E+03  0.52141097333E+03  0.30106295919E+01 0.  0.
         13    1    3    3    0    0  0.32534359743E+01 -0.94098066793E+01 -0.11696781262E+03  0.11739079391E+03  0.00000000000E+00 0.  1.
          3    1    3    3  501    0  0.16749690937E+02 -0.31798951895E+02 -0.40241841395E+03  0.40402017942E+03  0.00000000000E+00 0.  1.
         -1    1    1    2    0  502 -0.20003126911E+02  0.41208758574E+02 -0.47850763402E+03  0.48069516608E+03  0.00000000000E+00 0. -1.
<mgrwt>
<rscale>  1 0.30000000E+03</rscale>
<asrwt>0</asrwt>
<pdfrwt beam="1">  1       21 0.76587049E-02 0.30000000E+03</pdfrwt>
<pdfrwt beam="2">0</pdfrwt>
<totfact> 0.13789284E+04</totfact>
</mgrwt>
</event>
<event>
 6    1  0.6513574E-002  0.3000000E+03  0.7818608E-02  0.1093470E+00
         21   -1    0    0  501  502  0.00000000000E+00  0.00000000000E+00  0.12045563133E+01  0.12045563133E+01  0.00000000000E+00 0. -1.
         13   -1    0    0    0    0 -0.00000000000E+00 -0.00000000000E+00 -0.10000000000E+04  0.10000000000E+04  0.00000000000E+00 0.  1.
    9000005    2    1    2  501    0 -0.31684060228E+02 -0.99066966648E+01 -0.64316912653E+03  0.64403218929E+03  0.29854995529E+01 0.  0.
         13    1    3    3    0    0 -0.10104651984E+02 -0.26323968829E+01 -0.17806055288E+03  0.17836645985E+03  0.00000000000E+00 0.  1.
          1    1    3    3  501    0 -0.21579408244E+02 -0.72742997819E+01 -0.46510857365E+03  0.46566572944E+03  0.00000000000E+00 0.  1.
         -3    1    1    2    0  502  0.31684060228E+02  0.99066966648E+01 -0.35562631716E+03  0.35717236702E+03  0.00000000000E+00 0. -1.
<mgrwt>
<rscale>  1 0.30000000E+03</rscale>
<asrwt>0</asrwt>
<pdfrwt beam="1">  1       21 0.43802140E-02 0.30000000E+03</pdfrwt>
<pdfrwt beam="2">0</pdfrwt>
<totfact> 0.36070697E+04</totfact>
</mgrwt>
</event>
<event>
 6    1  0.6513574E-002  0.3000000E+03  0.7818608E-02  0.1093470E+00
         21   -1    0    0  501  502  0.00000000000E+00  0.00000000000E+00  0.10054319943E+01  0.10054319943E+01  0.00000000000E+00 0. -1.
         13   -1    0    0    0    0 -0.00000000000E+00 -0.00000000000E+00 -0.10000000000E+04  0.10000000000E+04  0.00000000000E+00 0.  1.
    9000005    2    1    2  501    0  0.27132305432E+02 -0.15168492641E+02 -0.40647256359E+03  0.40766862134E+03  0.27412957327E+01 0.  0.
         13    1    3    3    0    0  0.10514310748E+02 -0.53618431354E+01 -0.17095504610E+03  0.17136197909E+03  0.00000000000E+00 0.  1.
          1    1    3    3  501    0  0.16617994683E+02 -0.98066495059E+01 -0.23551751750E+03  0.23630664225E+03  0.00000000000E+00 0.  1.
         -3    1    1    2    0  502 -0.27132305432E+02  0.15168492641E+02 -0.59252200441E+03  0.59333681066E+03  0.00000000000E+00 0. -1.
<mgrwt>
<rscale>  1 0.30000000E+03</rscale>
<asrwt>0</asrwt>
<pdfrwt beam="1">  1       21 0.36561241E-02 0.30000000E+03</pdfrwt>
<pdfrwt beam="2">0</pdfrwt>
<totfact> 0.48904709E+04</totfact>
</mgrwt>
</event>
<event>
 6    1  0.6513574E-002  0.3000000E+03  0.7818608E-02  0.1093470E+00
         21   -1    0    0  501  502  0.00000000000E+00  0.00000000000E+00  0.11281342546E+01  0.11281342546E+01  0.00000000000E+00 0. -1.
         13   -1    0    0    0    0 -0.00000000000E+00 -0.00000000000E+00 -0.10000000000E+04  0.10000000000E+04  0.00000000000E+00 0.  1.
    9000005    2    1    2  501    0 -0.43864452199E+01 -0.31760583486E+02 -0.64594199341E+03  0.64674490898E+03  0.31532338807E+01 0.  0.
         13    1    3    3    0    0 -0.35518547455E+01 -0.20597061551E+02 -0.39321250882E+03  0.39376761130E+03  0.00000000000E+00 0.  1.
          1    1    3    3  501    0 -0.83459047442E+00 -0.11163521935E+02 -0.25272948459E+03  0.25297729768E+03  0.00000000000E+00 0.  1.
         -1    1    1    2    0  502  0.43864452199E+01  0.31760583486E+02 -0.35292987234E+03  0.35438322527E+03  0.00000000000E+00 0. -1.
<mgrwt>
<rscale>  1 0.30000000E+03</rscale>
<asrwt>0</asrwt>
<pdfrwt beam="1">  1       21 0.41023150E-02 0.30000000E+03</pdfrwt>
<pdfrwt beam="2">0</pdfrwt>
<totfact> 0.40295262E+04</totfact>
</mgrwt>
</event>
<event>
 6    1  0.6513574E-002  0.3000000E+03  0.7818608E-02  0.1093470E+00
         21   -1    0    0  501  502  0.00000000000E+00  0.00000000000E+00  0.16755124361E+01  0.16755124361E+01  0.00000000000E+00 0. -1.
         13   -1    0    0    0    0 -0.00000000000E+00 -0.00000000000E+00 -0.10000000000E+04  0.10000000000E+04  0.00000000000E+00 0.  1.
    9000005    2    1    2  501    0  0.28308348026E+02 -0.26351453752E+02 -0.65796939485E+03  0.65913011279E+03  0.57462460594E+01 0.  0.
         13    1    3    3    0    0  0.25921598426E+02 -0.23486832574E+02 -0.56133510450E+03  0.56242391496E+03  0.00000000000E+00 0.  1.
          1    1    3    3  501    0  0.23867496003E+01 -0.28646211776E+01 -0.96634290344E+02  0.96706197828E+02  0.00000000000E+00 0.  1.
         -3    1    1    2    0  502 -0.28308348026E+02  0.26351453752E+02 -0.34035509272E+03  0.34254539965E+03  0.00000000000E+00 0. -1.
<mgrwt>
<rscale>  1 0.30000000E+03</rscale>
<asrwt>0</asrwt>
<pdfrwt beam="1">  1       21 0.60927853E-02 0.30000000E+03</pdfrwt>
<pdfrwt beam="2">0</pdfrwt>
<totfact> 0.20521126E+04</totfact>
</mgrwt>
</event>
<event>
 6    1  0.6513574E-002  0.3000000E+03  0.7818608E-02  0.1093470E+00
         21   -1    0    0  501  502  0.00000000000E+00  0.00000000000E+00  0.11477798068E+01  0.11477798068E+01  0.00000000000E+00 0. -1.
         13   -1    0    0    0    0 -0.00000000000E+00 -0.00000000000E+00 -0.10000000000E+04  0.10000000000E+04  0.00000000000E+00 0.  1.
    9000005    2    1    2  501    0 -0.22856329704E+02  0.24333530864E+02 -0.57810324468E+03  0.57907641982E+03  0.34067494510E+01 0.  0.
         13    1    3    3    0    0 -0.15841295844E+02  0.17152750565E+02 -0.37634794858E+03  0.37707153421E+03  0.00000000000E+00 0.  1.
          3    1    3    3  501    0 -0.70150338593E+01  0.71807802994E+01 -0.20175529610E+03  0.20200488561E+03  0.00000000000E+00 0.  1.
         -1    1    1    2    0  502  0.22856329704E+02 -0.24333530864E+02 -0.42074897551E+03  0.42207135999E+03  0.00000000000E+00 0. -1.
<mgrwt>
<rscale>  1 0.30000000E+03</rscale>
<asrwt>0</asrwt>
<pdfrwt beam="1">  1       21 0.41737536E-02 0.30000000E+03</pdfrwt>
<pdfrwt beam="2">0</pdfrwt>
<totfact> 0.39138501E+04</totfact>
</mgrwt>
</event>
<event>
 6    1  0.6513574E-002  0.3000000E+03  0.7818608E-02  0.1093470E+00
         21   -1    0    0  501  502  0.00000000000E+00  0.00000000000E+00  0.13363203642E+01  0.13363203642E+01  0.00000000000E+00 0. -1.
         13   -1    0    0    0    0 -0.00000000000E+00 -0.00000000000E+00 -0.10000000000E+04  0.10000000000E+04  0.00000000000E+00 0.  1.
    9000005    2    1    2  501    0  0.12801905303E+02 -0.29897277231E+02 -0.72686109184E+03  0.72759486808E+03  0.30837092884E+01 0.  0.
         13    1    3    3    0    0  0.38061279597E+01 -0.10020948760E+02 -0.27120222714E+03  0.27141399011E+03  0.00000000000E+00 0.  1.
          1    1    3    3  501    0  0.89957773430E+01 -0.19876328471E+02 -0.45565886470E+03  0.45618087797E+03  0.00000000000E+00 0.  1.
         -3    1    1    2    0  502 -0.12801905303E+02  0.29897277231E+02 -0.27180258780E+03  0.27374145228E+03  0.00000000000E+00 0. -1.
<mgrwt>
<rscale>  1 0.30000000E+03</rscale>
<asrwt>0</asrwt>
<pdfrwt beam="1">  1       21 0.48593570E-02 0.30000000E+03</pdfrwt>
<pdfrwt beam="2">0</pdfrwt>
<totfact> 0.30239321E+04</totfact>
</mgrwt>
</event>
<event>
 6    1  0.6513574E-002  0.3000000E+03  0.7818608E-02  0.1093470E+00
         21   -1    0    0  501  502  0.00000000000E+00  0.00000000000E+00  0.11063453310E+01  0.11063453310E+01  0.00000000000E+00 0. -1.
         13   -1    0    0    0    0 -0.00000000000E+00 -0.00000000000E+00 -0.10000000000E+04  0.10000000000E+04  0.00000000000E+00 0.  1.
    9000005    2    1    2  501    0  0.28384289763E+02 -0.17021091246E+02 -0.53805573241E+03  0.53908148015E+03  0.30798717567E+01 0.  0.
         13    1    3    3    0    0  0.13654221080E+02 -0.99723407078E+01 -0.27095541087E+03  0.27148244881E+03  0.00000000000E+00 0.  1.
          3    1    3    3  501    0  0.14730068683E+02 -0.70487505385E+01 -0.26710032153E+03  0.26759903133E+03  0.00000000000E+00 0.  1.
         -3    1    1    2    0  502 -0.28384289763E+02  0.17021091246E+02 -0.46083792226E+03  0.46202486518E+03  0.00000000000E+00 0. -1.
<mgrwt>
<rscale>  1 0.30000000E+03</rscale>
<asrwt>0</asrwt>
<pdfrwt beam="1">  1       21 0.40230824E-02 0.30000000E+03</pdfrwt>
<pdfrwt beam="2">0</pdfrwt>
<totfact> 0.41641796E+04</totfact>
</mgrwt>
</event>
<event>
 6    1  0.6513574E-002  0.3000000E+03  0.7818608E-02  0.1093470E+00
         21   -1    0    0  501  502  0.00000000000E+00  0.00000000000E+00  0.11503349582E+01  0.11503349582E+01  0.00000000000E+00 0. -1.
         13   -1    0    0    0    0 -0.00000000000E+00 -0.00000000000E+00 -0.10000000000E+04  0.10000000000E+04  0.00000000000E+00 0.  1.
    9000005    2    1    2  501    0 -0.10617904075E+02  0.31179510727E+02 -0.38664102598E+03  0.38805628058E+03  0.33900070747E+01 0.  0.
         13    1    3    3    0    0 -0.84787004855E+01  0.23198346731E+02 -0.30484908200E+03  0.30584802508E+03  0.00000000000E+00 0.  1.
          1    1    3    3  501    0 -0.21392035899E+01  0.79811639955E+01 -0.81791943982E+02  0.82208255493E+02  0.00000000000E+00 0.  1.
         -1    1    1    2    0  502  0.10617904075E+02 -0.31179510727E+02 -0.61220863906E+03  0.61309405438E+03  0.00000000000E+00 0. -1.
<mgrwt>
<rscale>  1 0.30000000E+03</rscale>
<asrwt>0</asrwt>
<pdfrwt beam="1">  1       21 0.41830450E-02 0.30000000E+03</pdfrwt>
<pdfrwt beam="2">0</pdfrwt>
<totfact> 0.38991858E+04</totfact>
</mgrwt>
</event>
<event>
 6    1  0.6513574E-002  0.3000000E+03  0.7818608E-02  0.1093470E+00
         21   -1    0    0  501  502  0.00000000000E+00  0.00000000000E+00  0.18261117264E+01  0.18261117264E+01  0.00000000000E+00 0. -1.
         13   -1    0    0    0    0 -0.00000000000E+00 -0.00000000000E+00 -0.10000000000E+04  0.10000000000E+04  0.00000000000E+00 0.  1.
    9000005    2    1    2  501    0 -0.35728270897E+02  0.21969891496E+02 -0.59195557426E+03  0.59344821796E+03  0.31937491684E+01 0.  0.
         13    1    3    3    0    0 -0.25099254343E+02  0.13973155226E+02 -0.39298518991E+03  0.39403373095E+03  0.00000000000E+00 0.  1.
          3    1    3    3  501    0 -0.10629016554E+02  0.79967362700E+01 -0.19897038435E+03  0.19941448701E+03  0.00000000000E+00 0.  1.
         -1    1    1    2    0  502  0.35728270897E+02 -0.21969891496E+02 -0.40621831402E+03  0.40837789376E+03  0.00000000000E+00 0. -1.
<mgrwt>
<rscale>  1 0.30000000E+03</rscale>
<asrwt>0</asrwt>
<pdfrwt beam="1">  1       21 0.66404203E-02 0.30000000E+03</pdfrwt>
<pdfrwt beam="2">0</pdfrwt>
<totfact> 0.17682983E+04</totfact>
</mgrwt>
</event>
<event>
 6    1  0.6513574E-002  0.3000000E+03  0.7818608E-02  0.1093470E+00
         21   -1    0    0  501  502  0.00000000000E+00  0.00000000000E+00  0.94050107841E+00  0.94050107841E+00  0.00000000000E+00 0. -1.
         13   -1    0    0    0    0 -0.00000000000E+00 -0.00000000000E+00 -0.10000000000E+04  0.10000000000E+04  0.00000000000E+00 0.  1.
    9000005    2    1    2  501    0  0.18853030260E+02 -0.23492247480E+02 -0.58705927494E+03  0.58784062574E+03  0.32690271703E+01 0.  0.
         13    1    3    3    0    0  0.11368551787E+02 -0.13366379211E+02 -0.37102413947E+03  0.37143884575E+03  0.00000000000E+00 0.  1.
          1    1    3    3  501    0  0.74844784730E+01 -0.10125868269E+02 -0.21603513547E+03  0.21640177999E+03  0.00000000000E+00 0.  1.
         -3    1    1    2    0  502 -0.18853030260E+02  0.23492247480E+02 -0.41200022398E+03  0.41309987534E+03  0.00000000000E+00 0. -1.
<mgrwt>
<rscale>  1 0.30000000E+03</rscale>
<asrwt>0</asrwt>
<pdfrwt beam="1">  1       21 0.34200111E-02 0.30000000E+03</pdfrwt>
<pdfrwt beam="2">0</pdfrwt>
<totfact> 0.54691929E+04</totfact>
</mgrwt>
</event>
<event>
 6    1  0.6513574E-002  0.3000000E+03  0.7818608E-02  0.1093470E+00
         21   -1    0    0  501  502  0.00000000000E+00  0.00000000000E+00  0.12701324850E+01  0.12701324850E+01  0.00000000000E+00 0. -1.
         13   -1    0    0    0    0 -0.00000000000E+00 -0.00000000000E+00 -0.10000000000E+04  0.10000000000E+04  0.00000000000E+00 0.  1.
    9000005    2    1    2  501    0  0.30783553428E+02 -0.41183791565E+01 -0.26230827067E+03  0.26419391085E+03  0.53108809730E+01 0.  0.
         13    1    3    3    0    0  0.50672615308E+01  0.16796224040E+00 -0.59754407188E+02  0.59969113126E+02  0.00000000000E+00 0.  1.
          1    1    3    3  501    0  0.25716291898E+02 -0.42863413969E+01 -0.20255386348E+03  0.20422479772E+03  0.00000000000E+00 0.  1.
         -1    1    1    2    0  502 -0.30783553428E+02  0.41183791565E+01 -0.73642159684E+03  0.73707622164E+03  0.00000000000E+00 0. -1.
<mgrwt>
<rscale>  1 0.30000000E+03</rscale>
<asrwt>0</asrwt>
<pdfrwt beam="1">  1       21 0.46186733E-02 0.30000000E+03</pdfrwt>
<pdfrwt beam="2">0</pdfrwt>
<totfact> 0.32968072E+04</totfact>
</mgrwt>
</event>
<event>
 6    1  0.6513574E-002  0.3000000E+03  0.7818608E-02  0.1093470E+00
         21   -1    0    0  501  502  0.00000000000E+00  0.00000000000E+00  0.22346608361E+01  0.22346608361E+01  0.00000000000E+00 0. -1.
         13   -1    0    0    0    0 -0.00000000000E+00 -0.00000000000E+00 -0.10000000000E+04  0.10000000000E+04  0.00000000000E+00 0.  1.
    9000005    2    1    2  501    0  0.40874011059E+02  0.10980583581E+02 -0.71930805453E+03  0.72057934425E+03  0.62654649942E+01 0.  0.
         13    1    3    3    0    0  0.68816149257E+01  0.45974603515E+00 -0.15204853467E+03  0.15220487799E+03  0.00000000000E+00 0.  1.
          3    1    3    3  501    0  0.33992396133E+02  0.10520837546E+02 -0.56725951986E+03  0.56837446625E+03  0.00000000000E+00 0.  1.
         -1    1    1    2    0  502 -0.40874011059E+02 -0.10980583581E+02 -0.27845728464E+03  0.28165531659E+03  0.00000000000E+00 0. -1.
<mgrwt>
<rscale>  1 0.30000000E+03</rscale>
<asrwt>0</asrwt>
<pdfrwt beam="1">  1       21 0.81260565E-02 0.30000000E+03</pdfrwt>
<pdfrwt beam="2">0</pdfrwt>
<totfact> 0.12427705E+04</totfact>
</mgrwt>
</event>
<event>
 6    1  0.6513574E-002  0.3000000E+03  0.7818608E-02  0.1093470E+00
         21   -1    0    0  501  502  0.00000000000E+00  0.00000000000E+00  0.29200795652E+01  0.29200795652E+01  0.00000000000E+00 0. -1.
         13   -1    0    0    0    0 -0.00000000000E+00 -0.00000000000E+00 -0.10000000000E+04  0.10000000000E+04  0.00000000000E+00 0.  1.
    9000005    2    1    2  501    0  0.17425555326E+02  0.50747524975E+02 -0.44554840222E+03  0.44878473793E+03  0.39244113913E+01 0.  0.
         13    1    3    3    0    0  0.17291103458E+02  0.48193781686E+02 -0.42034764546E+03  0.42345456179E+03  0.00000000000E+00 0.  1.
          3    1    3    3  501    0  0.13445186856E+00  0.25537432890E+01 -0.25200756760E+02  0.25330176141E+02  0.00000000000E+00 0.  1.
         -3    1    1    2    0  502 -0.17425555326E+02 -0.50747524975E+02 -0.55153151821E+03  0.55413534164E+03  0.00000000000E+00 0. -1.
<mgrwt>
<rscale>  1 0.30000000E+03</rscale>
<asrwt>0</asrwt>
<pdfrwt beam="1">  1       21 0.10618494E-01 0.30000000E+03</pdfrwt>
<pdfrwt beam="2">0</pdfrwt>
<totfact> 0.77267981E+03</totfact>
</mgrwt>
</event>
<event>
 6    1  0.6513574E-002  0.3000000E+03  0.7818608E-02  0.1093470E+00
         21   -1    0    0  501  502  0.00000000000E+00  0.00000000000E+00  0.39110456643E+01  0.39110456643E+01  0.00000000000E+00 0. -1.
         13   -1    0    0    0    0 -0.00000000000E+00 -0.00000000000E+00 -0.10000000000E+04  0.10000000000E+04  0.00000000000E+00 0.  1.
    9000005    2    1    2  501    0  0.36300764788E+02 -0.50846001933E+02 -0.51164736712E+03  0.51545765703E+03  0.32413702732E+01 0.  0.
         13    1    3    3    0    0  0.15334099369E+02 -0.24241241164E+02 -0.23605579817E+03  0.23779216183E+03  0.00000000000E+00 0.  1.
          1    1    3    3  501    0  0.20966665419E+02 -0.26604760768E+02 -0.27559156895E+03  0.27766549521E+03  0.00000000000E+00 0.  1.
         -3    1    1    2    0  502 -0.36300764788E+02  0.50846001933E+02 -0.48444158722E+03  0.48845338863E+03  0.00000000000E+00 0. -1.
<mgrwt>
<rscale>  1 0.30000000E+03</rscale>
<asrwt>0</asrwt>
<pdfrwt beam="1">  1       21 0.14222014E-01 0.30000000E+03</pdfrwt>
<pdfrwt beam="2">0</pdfrwt>
<totfact> 0.45433188E+03</totfact>
</mgrwt>
</event>
<event>
 6    1  0.6513574E-002  0.3000000E+03  0.7818608E-02  0.1093470E+00
         21   -1    0    0  501  502  0.00000000000E+00  0.00000000000E+00  0.11575437092E+01  0.11575437092E+01  0.00000000000E+00 0. -1.
         13   -1    0    0    0    0 -0.00000000000E+00 -0.00000000000E+00 -0.10000000000E+04  0.10000000000E+04  0.00000000000E+00 0.  1.
    9000005    2    1    2  501    0 -0.26272071695E+02  0.21452218640E+02 -0.52182819976E+03  0.52293895314E+03  0.31716252965E+01 0.  0.
         13    1    3    3    0    0 -0.61006234075E+01  0.38098501264E+01 -0.96891122602E+02  0.97157718185E+02  0.00000000000E+00 0.  1.
          3    1    3    3  501    0 -0.20171448287E+02  0.17642368513E+02 -0.42493707716E+03  0.42578123495E+03  0.00000000000E+00 0.  1.
         -3    1    1    2    0  502  0.26272071695E+02 -0.21452218640E+02 -0.47701425653E+03  0.47821859057E+03  0.00000000000E+00 0. -1.
<mgrwt>
<rscale>  1 0.30000000E+03</rscale>
<asrwt>0</asrwt>
<pdfrwt beam="1">  1       21 0.42092587E-02 0.30000000E+03</pdfrwt>
<pdfrwt beam="2">0</pdfrwt>
<totfact> 0.38582714E+04</totfact>
</mgrwt>
</event>
<event>
 6    1  0.6513574E-002  0.3000000E+03  0.7818608E-02  0.1093470E+00
         21   -1    0    0  501  502  0.00000000000E+00  0.00000000000E+00  0.16267512007E+01  0.16267512007E+01  0.00000000000E+00 0. -1.
         13   -1    0    0    0    0 -0.00000000000E+00 -0.00000000000E+00 -0.10000000000E+04  0.10000000000E+04  0.00000000000E+00 0.  1.
    9000005    2    1    2  501    0  0.34621029482E+02  0.66063320361E+01 -0.74182040739E+03  0.74266416753E+03  0.32077421476E+01 0.  0.
         13    1    3    3    0    0  0.88917931379E+01  0.27060699247E+01 -0.17484118847E+03  0.17508805781E+03  0.00000000000E+00 0.  1.
          3    1    3    3  501    0  0.25729236345E+02  0.39002621114E+01 -0.56697921892E+03  0.56757610973E+03  0.00000000000E+00 0.  1.
         -3    1    1    2    0  502 -0.34621029482E+02 -0.66063320361E+01 -0.25655284141E+03  0.25896258367E+03  0.00000000000E+00 0. -1.
<mgrwt>
<rscale>  1 0.30000000E+03</rscale>
<asrwt>0</asrwt>
<pdfrwt beam="1">  1       21 0.59154714E-02 0.30000000E+03</pdfrwt>
<pdfrwt beam="2">0</pdfrwt>
<totfact> 0.21593498E+04</totfact>
</mgrwt>
</event>
<event>
 6    1  0.6513574E-002  0.3000000E+03  0.7818608E-02  0.1093470E+00
         21   -1    0    0  501  502  0.00000000000E+00  0.00000000000E+00  0.30503763124E+01  0.30503763124E+01  0.00000000000E+00 0. -1.
         13   -1    0    0    0    0 -0.00000000000E+00 -0.00000000000E+00 -0.10000000000E+04  0.10000000000E+04  0.00000000000E+00 0.  1.
    9000005    2    1    2  501    0  0.44031898378E+02 -0.32612959139E+02 -0.55602826499E+03  0.55873735857E+03  0.41941884583E+01 0.  0.
         13    1    3    3    0    0  0.98651951641E+01 -0.92512458200E+01 -0.12793486666E+03  0.12864772727E+03  0.00000000000E+00 0.  1.
          1    1    3    3  501    0  0.34166703214E+02 -0.23361713319E+02 -0.42809339833E+03  0.43008963130E+03  0.00000000000E+00 0.  1.
         -3    1    1    2    0  502 -0.44031898378E+02  0.32612959139E+02 -0.44092135870E+03  0.44431301774E+03  0.00000000000E+00 0. -1.
<mgrwt>
<rscale>  1 0.30000000E+03</rscale>
<asrwt>0</asrwt>
<pdfrwt beam="1">  1       21 0.11092301E-01 0.30000000E+03</pdfrwt>
<pdfrwt beam="2">0</pdfrwt>
<totfact> 0.71437760E+03</totfact>
</mgrwt>
</event>
<event>
 6    1  0.6513574E-002  0.3000000E+03  0.7818608E-02  0.1093470E+00
         21   -1    0    0  501  502  0.00000000000E+00  0.00000000000E+00  0.14065979450E+01  0.14065979450E+01  0.00000000000E+00 0. -1.
         13   -1    0    0    0    0 -0.00000000000E+00 -0.00000000000E+00 -0.10000000000E+04  0.10000000000E+04  0.00000000000E+00 0.  1.
    9000005    2    1    2  501    0  0.17999131520E+02 -0.31784943238E+02 -0.39182070771E+03  0.39353543235E+03  0.35239433717E+01 0.  0.
         13    1    3    3    0    0  0.63181913215E+01 -0.12566210853E+02 -0.16792238825E+03  0.16851040821E+03  0.00000000000E+00 0.  1.
          1    1    3    3  501    0  0.11680940198E+02 -0.19218732385E+02 -0.22389831946E+03  0.22502502415E+03  0.00000000000E+00 0.  1.
         -3    1    1    2    0  502 -0.17999131520E+02  0.31784943238E+02 -0.60677269435E+03  0.60787116559E+03  0.00000000000E+00 0. -1.
<mgrwt>
<rscale>  1 0.30000000E+03</rscale>
<asrwt>0</asrwt>
<pdfrwt beam="1">  1       21 0.51149124E-02 0.30000000E+03</pdfrwt>
<pdfrwt beam="2">0</pdfrwt>
<totfact> 0.27709607E+04</totfact>
</mgrwt>
</event>
<event>
 6    1  0.6513574E-002  0.3000000E+03  0.7818608E-02  0.1093470E+00
         21   -1    0    0  501  502  0.00000000000E+00  0.00000000000E+00  0.16613866718E+01  0.16613866718E+01  0.00000000000E+00 0. -1.
         13   -1    0    0    0    0 -0.00000000000E+00 -0.00000000000E+00 -0.10000000000E+04  0.10000000000E+04  0.00000000000E+00 0.  1.
    9000005    2    1    2  501    0 -0.35558536895E+02  0.17902095029E+02 -0.60421221722E+03  0.60552945075E+03  0.29355966968E+01 0.  0.
         13    1    3    3    0    0 -0.59043173105E+01  0.19003718241E+01 -0.87174770132E+02  0.87395153891E+02  0.00000000000E+00 0.  1.
          3    1    3    3  501    0 -0.29654219585E+02  0.16001723205E+02 -0.51703744709E+03  0.51813429686E+03  0.00000000000E+00 0.  1.
         -3    1    1    2    0  502  0.35558536895E+02 -0.17902095029E+02 -0.39412639611E+03  0.39613193593E+03  0.00000000000E+00 0. -1.
<mgrwt>
<rscale>  1 0.30000000E+03</rscale>
<asrwt>0</asrwt>
<pdfrwt beam="1">  1       21 0.60414188E-02 0.30000000E+03</pdfrwt>
<pdfrwt beam="2">0</pdfrwt>
<totfact> 0.20823103E+04</totfact>
</mgrwt>
</event>
<event>
 6    1  0.6513574E-002  0.3000000E+03  0.7818608E-02  0.1093470E+00
         21   -1    0    0  501  502  0.00000000000E+00  0.00000000000E+00  0.11114783072E+01  0.11114783072E+01  0.00000000000E+00 0. -1.
         13   -1    0    0    0    0 -0.00000000000E+00 -0.00000000000E+00 -0.10000000000E+04  0.10000000000E+04  0.00000000000E+00 0.  1.
    9000005    2    1    2  501    0  0.21888326282E+02 -0.24069491804E+02 -0.39690859532E+03  0.39825306124E+03  0.32601367221E+01 0.  0.
         13    1    3    3    0    0  0.18893828067E+02 -0.19990631429E+02 -0.32124569975E+03  0.32242115578E+03  0.00000000000E+00 0.  1.
          3    1    3    3  501    0  0.29944982153E+01 -0.40788603751E+01 -0.75662895564E+02  0.75831905466E+02  0.00000000000E+00 0.  1.
         -3    1    1    2    0  502 -0.21888326282E+02  0.24069491804E+02 -0.60197992638E+03  0.60285841706E+03  0.00000000000E+00 0. -1.
<mgrwt>
<rscale>  1 0.30000000E+03</rscale>
<asrwt>0</asrwt>
<pdfrwt beam="1">  1       21 0.40417478E-02 0.30000000E+03</pdfrwt>
<pdfrwt beam="2">0</pdfrwt>
<totfact> 0.41318321E+04</totfact>
</mgrwt>
</event>
<event>
 6    1  0.6513574E-002  0.3000000E+03  0.7818608E-02  0.1093470E+00
         21   -1    0    0  501  502  0.00000000000E+00  0.00000000000E+00  0.92433001563E+00  0.92433001563E+00  0.00000000000E+00 0. -1.
         13   -1    0    0    0    0 -0.00000000000E+00 -0.00000000000E+00 -0.10000000000E+04  0.10000000000E+04  0.00000000000E+00 0.  1.
    9000005    2    1    2  501    0  0.19938528204E+02  0.22714546032E+02 -0.53799662597E+03  0.53885574167E+03  0.34125159425E+01 0.  0.
         13    1    3    3    0    0  0.13754494845E+02  0.17407391671E+02 -0.37533476367E+03  0.37598987783E+03  0.00000000000E+00 0.  1.
          1    1    3    3  501    0  0.61840333587E+01  0.53071543612E+01 -0.16266186230E+03  0.16286586383E+03  0.00000000000E+00 0.  1.
         -1    1    1    2    0  502 -0.19938528204E+02 -0.22714546032E+02 -0.46107904402E+03  0.46206858835E+03  0.00000000000E+00 0. -1.
<mgrwt>
<rscale>  1 0.30000000E+03</rscale>
<asrwt>0</asrwt>
<pdfrwt beam="1">  1       21 0.33612071E-02 0.30000000E+03</pdfrwt>
<pdfrwt beam="2">0</pdfrwt>
<totfact> 0.56299973E+04</totfact>
</mgrwt>
</event>
<event>
 6    1  0.6513574E-002  0.3000000E+03  0.7818608E-02  0.1093470E+00
         21   -1    0    0  501  502  0.00000000000E+00  0.00000000000E+00  0.51796276070E+01  0.51796276070E+01  0.00000000000E+00 0. -1.
         13   -1    0    0    0    0 -0.00000000000E+00 -0.00000000000E+00 -0.10000000000E+04  0.10000000000E+04  0.00000000000E+00 0.  1.
    9000005    2    1    2  501    0 -0.51944393392E+02 -0.48818816997E+02 -0.43116695058E+03  0.43703644423E+03  0.37970269714E+01 0.  0.
         13    1    3    3    0    0 -0.50812575209E+02 -0.47827370206E+02 -0.41811020118E+03  0.42389328312E+03  0.00000000000E+00 0.  1.
          3    1    3    3  501    0 -0.11318181831E+01 -0.99144679083E+00 -0.13056749398E+02  0.13143161110E+02  0.00000000000E+00 0.  1.
         -3    1    1    2    0  502  0.51944393392E+02  0.48818816997E+02 -0.56365342181E+03  0.56814318338E+03  0.00000000000E+00 0. -1.
<mgrwt>
<rscale>  1 0.30000000E+03</rscale>
<asrwt>0</asrwt>
<pdfrwt beam="1">  1       21 0.18835049E-01 0.30000000E+03</pdfrwt>
<pdfrwt beam="2">0</pdfrwt>
<totfact> 0.26891428E+03</totfact>
</mgrwt>
</event>
<event>
 6    1  0.6513574E-002  0.3000000E+03  0.7818608E-02  0.1093470E+00
         21   -1    0    0  501  502  0.00000000000E+00  0.00000000000E+00  0.13287753164E+01  0.13287753164E+01  0.00000000000E+00 0. -1.
         13   -1    0    0    0    0 -0.00000000000E+00 -0.00000000000E+00 -0.10000000000E+04  0.10000000000E+04  0.00000000000E+00 0.  1.
    9000005    2    1    2  501    0 -0.16714445765E+02 -0.32181365859E+02 -0.46230484137E+03  0.46373793634E+03  0.34776771047E+01 0.  0.
         13    1    3    3    0    0 -0.80683799717E+01 -0.13011227688E+02 -0.21103011115E+03  0.21158473152E+03  0.00000000000E+00 0.  1.
          3    1    3    3  501    0 -0.86460657935E+01 -0.19170138171E+02 -0.25127473023E+03  0.25215320482E+03  0.00000000000E+00 0.  1.
         -3    1    1    2    0  502  0.16714445765E+02  0.32181365859E+02 -0.53636638331E+03  0.53759083898E+03  0.00000000000E+00 0. -1.
<mgrwt>
<rscale>  1 0.30000000E+03</rscale>
<asrwt>0</asrwt>
<pdfrwt beam="1">  1       21 0.48319204E-02 0.30000000E+03</pdfrwt>
<pdfrwt beam="2">0</pdfrwt>
<totfact> 0.30532192E+04</totfact>
</mgrwt>
</event>
<event>
 6    1  0.6513574E-002  0.3000000E+03  0.7818608E-02  0.1093470E+00
         21   -1    0    0  501  502  0.00000000000E+00  0.00000000000E+00  0.13356781993E+01  0.13356781993E+01  0.00000000000E+00 0. -1.
         13   -1    0    0    0    0 -0.00000000000E+00 -0.00000000000E+00 -0.10000000000E+04  0.10000000000E+04  0.00000000000E+00 0.  1.
    9000005    2    1    2  501    0 -0.12277834441E+02  0.27430947969E+02 -0.21873739966E+03  0.22082994087E+03  0.40756164404E+01 0.  0.
         13    1    3    3    0    0 -0.30274087970E+01  0.11089604117E+02 -0.76697060395E+02  0.77553746504E+02  0.00000000000E+00 0.  1.
          1    1    3    3  501    0 -0.92504256438E+01  0.16341343852E+02 -0.14204033927E+03  0.14327619437E+03  0.00000000000E+00 0.  1.
         -3    1    1    2    0  502  0.12277834441E+02 -0.27430947969E+02 -0.77992692214E+03  0.78050573733E+03  0.00000000000E+00 0. -1.
<mgrwt>
<rscale>  1 0.30000000E+03</rscale>
<asrwt>0</asrwt>
<pdfrwt beam="1">  1       21 0.48570219E-02 0.30000000E+03</pdfrwt>
<pdfrwt beam="2">0</pdfrwt>
<totfact> 0.30264076E+04</totfact>
</mgrwt>
</event>
<event>
 6    1  0.6513574E-002  0.3000000E+03  0.7818608E-02  0.1093470E+00
         21   -1    0    0  501  502  0.00000000000E+00  0.00000000000E+00  0.11416690901E+01  0.11416690901E+01  0.00000000000E+00 0. -1.
         13   -1    0    0    0    0 -0.00000000000E+00 -0.00000000000E+00 -0.10000000000E+04  0.10000000000E+04  0.00000000000E+00 0.  1.
    9000005    2    1    2  501    0 -0.23887403864E+01 -0.33383904764E+02 -0.55603430768E+03  0.55705462050E+03  0.39379846295E+01 0.  0.
         13    1    3    3    0    0  0.62467479954E+00 -0.16448684933E+01 -0.37329556970E+02  0.37370999914E+02  0.00000000000E+00 0.  1.
          3    1    3    3  501    0 -0.30134151860E+01 -0.31739036270E+02 -0.51870475071E+03  0.51968362059E+03  0.00000000000E+00 0.  1.
         -3    1    1    2    0  502  0.23887403864E+01  0.33383904764E+02 -0.44282402323E+03  0.44408704859E+03  0.00000000000E+00 0. -1.
<mgrwt>
<rscale>  1 0.30000000E+03</rscale>
<asrwt>0</asrwt>
<pdfrwt beam="1">  1       21 0.41515327E-02 0.30000000E+03</pdfrwt>
<pdfrwt beam="2">0</pdfrwt>
<totfact> 0.39492707E+04</totfact>
</mgrwt>
</event>
<event>
 6    1  0.6513574E-002  0.3000000E+03  0.7818608E-02  0.1093470E+00
         21   -1    0    0  501  502  0.00000000000E+00  0.00000000000E+00  0.27079914227E+01  0.27079914227E+01  0.00000000000E+00 0. -1.
         13   -1    0    0    0    0 -0.00000000000E+00 -0.00000000000E+00 -0.10000000000E+04  0.10000000000E+04  0.00000000000E+00 0.  1.
    9000005    2    1    2  501    0 -0.43916401066E+02  0.27710195281E+02 -0.51572388858E+03  0.51834824970E+03  0.41561410621E+01 0.  0.
         13    1    3    3    0    0 -0.14375195657E+02  0.10832680205E+02 -0.19158359359E+03  0.19242730197E+03  0.00000000000E+00 0.  1.
          1    1    3    3  501    0 -0.29541205409E+02  0.16877515076E+02 -0.32414029499E+03  0.32592094773E+03  0.00000000000E+00 0.  1.
         -3    1    1    2    0  502  0.43916401066E+02 -0.27710195281E+02 -0.48156811999E+03  0.48435974172E+03  0.00000000000E+00 0. -1.
<mgrwt>
<rscale>  1 0.30000000E+03</rscale>
<asrwt>0</asrwt>
<pdfrwt beam="1">  1       21 0.98472623E-02 0.30000000E+03</pdfrwt>
<pdfrwt beam="2">0</pdfrwt>
<totfact> 0.88429799E+03</totfact>
</mgrwt>
</event>
<event>
 6    1  0.6513574E-002  0.3000000E+03  0.7818608E-02  0.1093470E+00
         21   -1    0    0  501  502  0.00000000000E+00  0.00000000000E+00  0.12602699131E+01  0.12602699131E+01  0.00000000000E+00 0. -1.
         13   -1    0    0    0    0 -0.00000000000E+00 -0.00000000000E+00 -0.10000000000E+04  0.10000000000E+04  0.00000000000E+00 0.  1.
    9000005    2    1    2  501    0  0.30435174571E+02 -0.16463860723E+02 -0.60704887863E+03  0.60804394056E+03  0.34254977968E+01 0.  0.
         13    1    3    3    0    0  0.27148056589E+02 -0.14355160731E+02 -0.55482191353E+03  0.55567116476E+03  0.00000000000E+00 0.  1.
          3    1    3    3  501    0  0.32871179827E+01 -0.21086999920E+01 -0.52226965105E+02  0.52372775794E+02  0.00000000000E+00 0.  1.
         -1    1    1    2    0  502 -0.30435174571E+02  0.16463860723E+02 -0.39169085145E+03  0.39321632936E+03  0.00000000000E+00 0. -1.
<mgrwt>
<rscale>  1 0.30000000E+03</rscale>
<asrwt>0</asrwt>
<pdfrwt beam="1">  1       21 0.45828093E-02 0.30000000E+03</pdfrwt>
<pdfrwt beam="2">0</pdfrwt>
<totfact> 0.33407606E+04</totfact>
</mgrwt>
</event>
<event>
 6    1  0.6513574E-002  0.3000000E+03  0.7818608E-02  0.1093470E+00
         21   -1    0    0  501  502  0.00000000000E+00  0.00000000000E+00  0.16927753195E+01  0.16927753195E+01  0.00000000000E+00 0. -1.
         13   -1    0    0    0    0 -0.00000000000E+00 -0.00000000000E+00 -0.10000000000E+04  0.10000000000E+04  0.00000000000E+00 0.  1.
    9000005    2    1    2  501    0 -0.31843338315E+02  0.23984826559E+02 -0.38099139440E+03  0.38309104204E+03  0.38773425323E+01 0.  0.
         13    1    3    3    0    0 -0.25157507459E+02  0.20354242957E+02 -0.29813996083E+03  0.29989103293E+03  0.00000000000E+00 0.  1.
          1    1    3    3  501    0 -0.66858308565E+01  0.36305836014E+01 -0.82851433568E+02  0.83200009109E+02  0.00000000000E+00 0.  1.
         -1    1    1    2    0  502  0.31843338315E+02 -0.23984826559E+02 -0.61731583028E+03  0.61860173328E+03  0.00000000000E+00 0. -1.
<mgrwt>
<rscale>  1 0.30000000E+03</rscale>
<asrwt>0</asrwt>
<pdfrwt beam="1">  1       21 0.61555596E-02 0.30000000E+03</pdfrwt>
<pdfrwt beam="2">0</pdfrwt>
<totfact> 0.20161233E+04</totfact>
</mgrwt>
</event>
<event>
 6    1  0.6513574E-002  0.3000000E+03  0.7818608E-02  0.1093470E+00
         21   -1    0    0  501  502  0.00000000000E+00  0.00000000000E+00  0.11750434936E+01  0.11750434936E+01  0.00000000000E+00 0. -1.
         13   -1    0    0    0    0 -0.00000000000E+00 -0.00000000000E+00 -0.10000000000E+04  0.10000000000E+04  0.00000000000E+00 0.  1.
    9000005    2    1    2  501    0  0.31646047860E+02 -0.63945392002E+01 -0.66602134276E+03  0.66680906466E+03  0.27454012818E+01 0.  0.
         13    1    3    3    0    0  0.15642549697E+02 -0.28322312168E+01 -0.30044976381E+03  0.30087002421E+03  0.00000000000E+00 0.  1.
          1    1    3    3  501    0  0.16003498163E+02 -0.35623079834E+01 -0.36557157895E+03  0.36593904046E+03  0.00000000000E+00 0.  1.
         -1    1    1    2    0  502 -0.31646047860E+02  0.63945392002E+01 -0.33280361375E+03  0.33436597883E+03  0.00000000000E+00 0. -1.
<mgrwt>
<rscale>  1 0.30000000E+03</rscale>
<asrwt>0</asrwt>
<pdfrwt beam="1">  1       21 0.42728944E-02 0.30000000E+03</pdfrwt>
<pdfrwt beam="2">0</pdfrwt>
<totfact> 0.37616808E+04</totfact>
</mgrwt>
</event>
<event>
 6    1  0.6513574E-002  0.3000000E+03  0.7818608E-02  0.1093470E+00
         21   -1    0    0  501  502  0.00000000000E+00  0.00000000000E+00  0.15217961969E+01  0.15217961969E+01  0.00000000000E+00 0. -1.
         13   -1    0    0    0    0 -0.00000000000E+00 -0.00000000000E+00 -0.10000000000E+04  0.10000000000E+04  0.00000000000E+00 0.  1.
    9000005    2    1    2  501    0 -0.14777996967E+02  0.35330057495E+02 -0.51820625185E+03  0.51972541805E+03  0.10497073874E+02 0.  0.
         13    1    3    3    0    0 -0.12937313041E+02  0.21234717526E+02 -0.28313639978E+03  0.28422615674E+03  0.00000000000E+00 0.  1.
          3    1    3    3  501    0 -0.18406839258E+01  0.14095339969E+02 -0.23506985207E+03  0.23549926131E+03  0.00000000000E+00 0.  1.
         -1    1    1    2    0  502  0.14777996967E+02 -0.35330057495E+02 -0.48027195196E+03  0.48179637815E+03  0.00000000000E+00 0. -1.
<mgrwt>
<rscale>  1 0.30000000E+03</rscale>
<asrwt>0</asrwt>
<pdfrwt beam="1">  1       21 0.55338160E-02 0.30000000E+03</pdfrwt>
<pdfrwt beam="2">0</pdfrwt>
<totfact> 0.24218211E+04</totfact>
</mgrwt>
</event>
<event>
 6    1  0.6513574E-002  0.3000000E+03  0.7818608E-02  0.1093470E+00
         21   -1    0    0  501  502  0.00000000000E+00  0.00000000000E+00  0.83993942666E+01  0.83993942666E+01  0.00000000000E+00 0. -1.
         13   -1    0    0    0    0 -0.00000000000E+00 -0.00000000000E+00 -0.10000000000E+04  0.10000000000E+04  0.00000000000E+00 0.  1.
    9000005    2    1    2  501    0 -0.28486678220E+02  0.85480451066E+02 -0.58758760202E+03  0.59446110717E+03  0.25336823313E+01 0.  0.
         13    1    3    3    0    0 -0.19803790536E+02  0.59205663769E+02 -0.39934273553E+03  0.40419317308E+03  0.00000000000E+00 0.  1.
          1    1    3    3  501    0 -0.86828876845E+01  0.26274787298E+02 -0.18824486648E+03  0.19026793409E+03  0.00000000000E+00 0.  1.
         -1    1    1    2    0  502  0.28486678220E+02 -0.85480451066E+02 -0.40401300372E+03  0.41393828709E+03  0.00000000000E+00 0. -1.
<mgrwt>
<rscale>  1 0.30000000E+03</rscale>
<asrwt>0</asrwt>
<pdfrwt beam="1">  1       21 0.30543316E-01 0.30000000E+03</pdfrwt>
<pdfrwt beam="2">0</pdfrwt>
<totfact> 0.10488832E+03</totfact>
</mgrwt>
</event>
<event>
 6    1  0.6513574E-002  0.3000000E+03  0.7818608E-02  0.1093470E+00
         21   -1    0    0  501  502  0.00000000000E+00  0.00000000000E+00  0.25705680596E+01  0.25705680596E+01  0.00000000000E+00 0. -1.
         13   -1    0    0    0    0 -0.00000000000E+00 -0.00000000000E+00 -0.10000000000E+04  0.10000000000E+04  0.00000000000E+00 0.  1.
    9000005    2    1    2  501    0 -0.45138472529E+02  0.21665389799E+02 -0.42454854493E+03  0.42750589211E+03  0.35986071590E+01 0.  0.
         13    1    3    3    0    0 -0.31627368720E+02  0.16980901138E+02 -0.30373616220E+03  0.30585012291E+03  0.00000000000E+00 0.  1.
          1    1    3    3  501    0 -0.13511103809E+02  0.46844886613E+01 -0.12081238273E+03  0.12165576920E+03  0.00000000000E+00 0.  1.
         -1    1    1    2    0  502  0.45138472529E+02 -0.21665389799E+02 -0.57288088701E+03  0.57506467595E+03  0.00000000000E+00 0. -1.
<mgrwt>
<rscale>  1 0.30000000E+03</rscale>
<asrwt>0</asrwt>
<pdfrwt beam="1">  1       21 0.93475399E-02 0.30000000E+03</pdfrwt>
<pdfrwt beam="2">0</pdfrwt>
<totfact> 0.97031368E+03</totfact>
</mgrwt>
</event>
<event>
 6    1  0.6513574E-002  0.3000000E+03  0.7818608E-02  0.1093470E+00
         21   -1    0    0  501  502  0.00000000000E+00  0.00000000000E+00  0.96342571675E+00  0.96342571675E+00  0.00000000000E+00 0. -1.
         13   -1    0    0    0    0 -0.00000000000E+00 -0.00000000000E+00 -0.10000000000E+04  0.10000000000E+04  0.00000000000E+00 0.  1.
    9000005    2    1    2  501    0  0.25589376484E+02  0.16507869670E+02 -0.59058746666E+03  0.59138071188E+03  0.32038517876E+01 0.  0.
         13    1    3    3    0    0  0.24808524842E+02  0.16547486457E+02 -0.57834254094E+03  0.57911085025E+03  0.00000000000E+00 0.  1.
          1    1    3    3  501    0  0.78085164245E+00 -0.39616787625E-01 -0.12244925716E+02  0.12269861636E+02  0.00000000000E+00 0.  1.
         -3    1    1    2    0  502 -0.25589376484E+02 -0.16507869670E+02 -0.40844910763E+03  0.40958271383E+03  0.00000000000E+00 0. -1.
<mgrwt>
<rscale>  1 0.30000000E+03</rscale>
<asrwt>0</asrwt>
<pdfrwt beam="1">  1       21 0.35033736E-02 0.30000000E+03</pdfrwt>
<pdfrwt beam="2">0</pdfrwt>
<totfact> 0.52531990E+04</totfact>
</mgrwt>
</event>
<event>
 6    1  0.6513574E-002  0.3000000E+03  0.7818608E-02  0.1093470E+00
         21   -1    0    0  501  502  0.00000000000E+00  0.00000000000E+00  0.26704229120E+01  0.26704229120E+01  0.00000000000E+00 0. -1.
         13   -1    0    0    0    0 -0.00000000000E+00 -0.00000000000E+00 -0.10000000000E+04  0.10000000000E+04  0.00000000000E+00 0.  1.
    9000005    2    1    2  501    0  0.32228782850E+00 -0.51356949997E+02 -0.54945658074E+03  0.55186241385E+03  0.34568066895E+01 0.  0.
         13    1    3    3    0    0 -0.42529892195E+00 -0.20447651250E+02 -0.23612516149E+03  0.23700923866E+03  0.00000000000E+00 0.  1.
          3    1    3    3  501    0  0.74758675045E+00 -0.30909298748E+02 -0.31333141926E+03  0.31485317519E+03  0.00000000000E+00 0.  1.
         -1    1    1    2    0  502 -0.32228782850E+00  0.51356949997E+02 -0.44787299635E+03  0.45080800907E+03  0.00000000000E+00 0. -1.
<mgrwt>
<rscale>  1 0.30000000E+03</rscale>
<asrwt>0</asrwt>
<pdfrwt beam="1">  1       21 0.97106492E-02 0.30000000E+03</pdfrwt>
<pdfrwt beam="2">0</pdfrwt>
<totfact> 0.90662151E+03</totfact>
</mgrwt>
</event>
<event>
 6    1  0.6513574E-002  0.3000000E+03  0.7818608E-02  0.1093470E+00
         21   -1    0    0  501  502  0.00000000000E+00  0.00000000000E+00  0.17947517559E+01  0.17947517559E+01  0.00000000000E+00 0. -1.
         13   -1    0    0    0    0 -0.00000000000E+00 -0.00000000000E+00 -0.10000000000E+04  0.10000000000E+04  0.00000000000E+00 0.  1.
    9000005    2    1    2  501    0 -0.27964758520E+02 -0.31225083517E+02 -0.43278155647E+03  0.43481945707E+03  0.33243149942E+01 0.  0.
         13    1    3    3    0    0 -0.11688264613E+01 -0.23572402810E+01 -0.31357660100E+02  0.31467850006E+02  0.00000000000E+00 0.  1.
          1    1    3    3  501    0 -0.26795932058E+02 -0.28867843236E+02 -0.40142389637E+03  0.40335160707E+03  0.00000000000E+00 0.  1.
         -1    1    1    2    0  502  0.27964758520E+02  0.31225083517E+02 -0.56542369178E+03  0.56697529468E+03  0.00000000000E+00 0. -1.
<mgrwt>
<rscale>  1 0.30000000E+03</rscale>
<asrwt>0</asrwt>
<pdfrwt beam="1">  1       21 0.65263838E-02 0.30000000E+03</pdfrwt>
<pdfrwt beam="2">0</pdfrwt>
<totfact> 0.18221781E+04</totfact>
</mgrwt>
</event>
<event>
 6    1  0.6513574E-002  0.3000000E+03  0.7818608E-02  0.1093470E+00
         21   -1    0    0  501  502  0.00000000000E+00  0.00000000000E+00  0.11946853648E+01  0.11946853648E+01  0.00000000000E+00 0. -1.
         13   -1    0    0    0    0 -0.00000000000E+00 -0.00000000000E+00 -0.10000000000E+04  0.10000000000E+04  0.00000000000E+00 0.  1.
    9000005    2    1    2  501    0 -0.11242431975E+02  0.30412563306E+02 -0.66981941631E+03  0.67061483483E+03  0.38587488958E+01 0.  0.
         13    1    3    3    0    0 -0.83493431015E+01  0.20653402018E+02 -0.49237835347E+03  0.49288205233E+03  0.00000000000E+00 0.  1.
          1    1    3    3  501    0 -0.28930888736E+01  0.97591612890E+01 -0.17744106284E+03  0.17773278250E+03  0.00000000000E+00 0.  1.
         -3    1    1    2    0  502  0.11242431975E+02 -0.30412563306E+02 -0.32898589832E+03  0.33057985053E+03  0.00000000000E+00 0. -1.
<mgrwt>
<rscale>  1 0.30000000E+03</rscale>
<asrwt>0</asrwt>
<pdfrwt beam="1">  1       21 0.43443196E-02 0.30000000E+03</pdfrwt>
<pdfrwt beam="2">0</pdfrwt>
<totfact> 0.36576676E+04</totfact>
</mgrwt>
</event>
<event>
 6    1  0.6513574E-002  0.3000000E+03  0.7818608E-02  0.1093470E+00
         21   -1    0    0  501  502  0.00000000000E+00  0.00000000000E+00  0.19607824385E+01  0.19607824385E+01  0.00000000000E+00 0. -1.
         13   -1    0    0    0    0 -0.00000000000E+00 -0.00000000000E+00 -0.10000000000E+04  0.10000000000E+04  0.00000000000E+00 0.  1.
    9000005    2    1    2  501    0  0.15322763913E+02  0.40271534069E+02 -0.60947742148E+03  0.61101724057E+03  0.47704755179E+01 0.  0.
         13    1    3    3    0    0  0.10656568928E+02  0.28370498860E+02 -0.39647366602E+03  0.39763024975E+03  0.00000000000E+00 0.  1.
          3    1    3    3  501    0  0.46661949851E+01  0.11901035209E+02 -0.21300375546E+03  0.21338699083E+03  0.00000000000E+00 0.  1.
         -3    1    1    2    0  502 -0.15322763913E+02 -0.40271534069E+02 -0.38856179608E+03  0.39094354186E+03  0.00000000000E+00 0. -1.
<mgrwt>
<rscale>  1 0.30000000E+03</rscale>
<asrwt>0</asrwt>
<pdfrwt beam="1">  1       21 0.71301330E-02 0.30000000E+03</pdfrwt>
<pdfrwt beam="2">0</pdfrwt>
<totfact> 0.15625867E+04</totfact>
</mgrwt>
</event>
<event>
 6    1  0.6513574E-002  0.3000000E+03  0.7818608E-02  0.1093470E+00
         21   -1    0    0  501  502  0.00000000000E+00  0.00000000000E+00  0.12844730193E+01  0.12844730193E+01  0.00000000000E+00 0. -1.
         13   -1    0    0    0    0 -0.00000000000E+00 -0.00000000000E+00 -0.10000000000E+04  0.10000000000E+04  0.00000000000E+00 0.  1.
    9000005    2    1    2  501    0  0.35664004689E+02 -0.45035327611E+00 -0.53629228976E+03  0.53748777793E+03  0.34010771842E+01 0.  0.
         13    1    3    3    0    0  0.15095730053E+01 -0.64371370349E+00 -0.20216553058E+02  0.20283051929E+02  0.00000000000E+00 0.  1.
          3    1    3    3  501    0  0.34154431684E+02  0.19336042738E+00 -0.51607573670E+03  0.51720472600E+03  0.00000000000E+00 0.  1.
         -3    1    1    2    0  502 -0.35664004689E+02  0.45035327611E+00 -0.46242323722E+03  0.46379669509E+03  0.00000000000E+00 0. -1.
<mgrwt>
<rscale>  1 0.30000000E+03</rscale>
<asrwt>0</asrwt>
<pdfrwt beam="1">  1       21 0.46708208E-02 0.30000000E+03</pdfrwt>
<pdfrwt beam="2">0</pdfrwt>
<totfact> 0.32344972E+04</totfact>
</mgrwt>
</event>
<event>
 6    1  0.6513574E-002  0.3000000E+03  0.7818608E-02  0.1093470E+00
         21   -1    0    0  501  502  0.00000000000E+00  0.00000000000E+00  0.10938829950E+01  0.10938829950E+01  0.00000000000E+00 0. -1.
         13   -1    0    0    0    0 -0.00000000000E+00 -0.00000000000E+00 -0.10000000000E+04  0.10000000000E+04  0.00000000000E+00 0.  1.
    9000005    2    1    2  501    0 -0.85142344535E+00 -0.32875099794E+02 -0.54806538098E+03  0.54905531565E+03  0.21402583125E+01 0.  0.
         13    1    3    3    0    0 -0.61664320363E+00 -0.51514039704E+01 -0.97089054886E+02  0.97227577314E+02  0.00000000000E+00 0.  1.
          3    1    3    3  501    0 -0.23478024172E+00 -0.27723695823E+02 -0.45097632610E+03  0.45182773834E+03  0.00000000000E+00 0.  1.
         -1    1    1    2    0  502  0.85142344535E+00  0.32875099794E+02 -0.45084073602E+03  0.45203856734E+03  0.00000000000E+00 0. -1.
<mgrwt>
<rscale>  1 0.30000000E+03</rscale>
<asrwt>0</asrwt>
<pdfrwt beam="1">  1       21 0.39777647E-02 0.30000000E+03</pdfrwt>
<pdfrwt beam="2">0</pdfrwt>
<totfact> 0.42443839E+04</totfact>
</mgrwt>
</event>
<event>
 6    1  0.6513574E-002  0.3000000E+03  0.7818608E-02  0.1093470E+00
         21   -1    0    0  501  502  0.00000000000E+00  0.00000000000E+00  0.68083781635E+01  0.68083781635E+01  0.00000000000E+00 0. -1.
         13   -1    0    0    0    0 -0.00000000000E+00 -0.00000000000E+00 -0.10000000000E+04  0.10000000000E+04  0.00000000000E+00 0.  1.
    9000005    2    1    2  501    0  0.67006055182E+02 -0.47018926498E+02 -0.55283501865E+03  0.55890824549E+03  0.71608763105E+01 0.  0.
         13    1    3    3    0    0  0.15858424409E+02 -0.14766220919E+02 -0.13890763367E+03  0.14058755847E+03  0.00000000000E+00 0.  1.
          3    1    3    3  501    0  0.51147630773E+02 -0.32252705578E+02 -0.41392738499E+03  0.41832068702E+03  0.00000000000E+00 0.  1.
         -3    1    1    2    0  502 -0.67006055182E+02  0.47018926498E+02 -0.44035660318E+03  0.44790013267E+03  0.00000000000E+00 0. -1.
<mgrwt>
<rscale>  1 0.30000000E+03</rscale>
<asrwt>0</asrwt>
<pdfrwt beam="1">  1       21 0.24757791E-01 0.30000000E+03</pdfrwt>
<pdfrwt beam="2">0</pdfrwt>
<totfact> 0.15895782E+03</totfact>
</mgrwt>
</event>
<event>
 6    1  0.6513574E-002  0.3000000E+03  0.7818608E-02  0.1093470E+00
         21   -1    0    0  501  502  0.00000000000E+00  0.00000000000E+00  0.17743905750E+01  0.17743905750E+01  0.00000000000E+00 0. -1.
         13   -1    0    0    0    0 -0.00000000000E+00 -0.00000000000E+00 -0.10000000000E+04  0.10000000000E+04  0.00000000000E+00 0.  1.
    9000005    2    1    2  501    0  0.23225356933E+02  0.30533619286E+02 -0.70496156175E+03  0.70601178177E+03  0.31801469700E+01 0.  0.
         13    1    3    3    0    0  0.21842192053E+02  0.29722932728E+02 -0.67302028933E+03  0.67403029897E+03  0.00000000000E+00 0.  1.
          3    1    3    3  501    0  0.13831648795E+01  0.81068655844E+00 -0.31941272424E+02  0.31981482796E+02  0.00000000000E+00 0.  1.
         -3    1    1    2    0  502 -0.23225356933E+02 -0.30533619286E+02 -0.29326404767E+03  0.29576260881E+03  0.00000000000E+00 0. -1.
<mgrwt>
<rscale>  1 0.30000000E+03</rscale>
<asrwt>0</asrwt>
<pdfrwt beam="1">  1       21 0.64523430E-02 0.30000000E+03</pdfrwt>
<pdfrwt beam="2">0</pdfrwt>
<totfact> 0.18585290E+04</totfact>
</mgrwt>
</event>
<event>
 6    1  0.6513574E-002  0.3000000E+03  0.7818608E-02  0.1093470E+00
         21   -1    0    0  501  502  0.00000000000E+00  0.00000000000E+00  0.56392071901E+01  0.56392071901E+01  0.00000000000E+00 0. -1.
         13   -1    0    0    0    0 -0.00000000000E+00 -0.00000000000E+00 -0.10000000000E+04  0.10000000000E+04  0.00000000000E+00 0.  1.
    9000005    2    1    2  501    0  0.21668753885E+02  0.71742978317E+02 -0.52491316514E+03  0.53024709013E+03  0.33993862929E+01 0.  0.
         13    1    3    3    0    0  0.46800210139E+01  0.18144407100E+02 -0.14028957187E+03  0.14153545874E+03  0.00000000000E+00 0.  1.
          1    1    3    3  501    0  0.16988732871E+02  0.53598571217E+02 -0.38462359327E+03  0.38871163140E+03  0.00000000000E+00 0.  1.
         -3    1    1    2    0  502 -0.21668753885E+02 -0.71742978317E+02 -0.46944762767E+03  0.47539211706E+03  0.00000000000E+00 0. -1.
<mgrwt>
<rscale>  1 0.30000000E+03</rscale>
<asrwt>0</asrwt>
<pdfrwt beam="1">  1       21 0.20506251E-01 0.30000000E+03</pdfrwt>
<pdfrwt beam="2">0</pdfrwt>
<totfact> 0.22872969E+03</totfact>
</mgrwt>
</event>
<event>
 6    1  0.6513574E-002  0.3000000E+03  0.7818608E-02  0.1093470E+00
         21   -1    0    0  501  502  0.00000000000E+00  0.00000000000E+00  0.36652747332E+01  0.36652747332E+01  0.00000000000E+00 0. -1.
         13   -1    0    0    0    0 -0.00000000000E+00 -0.00000000000E+00 -0.10000000000E+04  0.10000000000E+04  0.00000000000E+00 0.  1.
    9000005    2    1    2  501    0  0.33470342599E+02 -0.47173861679E+02 -0.64530433827E+03  0.64790135068E+03  0.35824808687E+01 0.  0.
         13    1    3    3    0    0  0.19513002159E+02 -0.25989467825E+02 -0.37959091328E+03  0.38097962037E+03  0.00000000000E+00 0.  1.
          3    1    3    3  501    0  0.13957340441E+02 -0.21184393854E+02 -0.26571342499E+03  0.26692173031E+03  0.00000000000E+00 0.  1.
         -1    1    1    2    0  502 -0.33470342599E+02  0.47173861679E+02 -0.35103038700E+03  0.35576392405E+03  0.00000000000E+00 0. -1.
<mgrwt>
<rscale>  1 0.30000000E+03</rscale>
<asrwt>0</asrwt>
<pdfrwt beam="1">  1       21 0.13328300E-01 0.30000000E+03</pdfrwt>
<pdfrwt beam="2">0</pdfrwt>
<totfact> 0.51178213E+03</totfact>
</mgrwt>
</event>
<event>
 6    1  0.6513574E-002  0.3000000E+03  0.7818608E-02  0.1093470E+00
         21   -1    0    0  501  502  0.00000000000E+00  0.00000000000E+00  0.20468570761E+01  0.20468570761E+01  0.00000000000E+00 0. -1.
         13   -1    0    0    0    0 -0.00000000000E+00 -0.00000000000E+00 -0.10000000000E+04  0.10000000000E+04  0.00000000000E+00 0.  1.
    9000005    2    1    2  501    0  0.26369624555E+02  0.19989105163E+02 -0.15852014617E+03  0.16196193430E+03  0.28478058876E+01 0.  0.
         13    1    3    3    0    0  0.24385982878E+02  0.18485475102E+02 -0.14979824559E+03  0.15289180270E+03  0.00000000000E+00 0.  1.
          3    1    3    3  501    0  0.19836416773E+01  0.15036300611E+01 -0.87219005774E+01  0.90701316058E+01  0.00000000000E+00 0.  1.
         -3    1    1    2    0  502 -0.26369624555E+02 -0.19989105163E+02 -0.83943299676E+03  0.84008492277E+03  0.00000000000E+00 0. -1.
<mgrwt>
<rscale>  1 0.30000000E+03</rscale>
<asrwt>0</asrwt>
<pdfrwt beam="1">  1       21 0.74431323E-02 0.30000000E+03</pdfrwt>
<pdfrwt beam="2">0</pdfrwt>
<totfact> 0.14496331E+04</totfact>
</mgrwt>
</event>
<event>
 6    1  0.6513574E-002  0.3000000E+03  0.7818608E-02  0.1093470E+00
         21   -1    0    0  501  502  0.00000000000E+00  0.00000000000E+00  0.15025275353E+01  0.15025275353E+01  0.00000000000E+00 0. -1.
         13   -1    0    0    0    0 -0.00000000000E+00 -0.00000000000E+00 -0.10000000000E+04  0.10000000000E+04  0.00000000000E+00 0.  1.
    9000005    2    1    2  501    0 -0.52477963867E+00  0.38416093642E+02 -0.56006571807E+03  0.56139063845E+03  0.31254996648E+01 0.  0.
         13    1    3    3    0    0  0.90145888783E+00  0.14159344483E+02 -0.22179599036E+03  0.22224932172E+03  0.00000000000E+00 0.  1.
          3    1    3    3  501    0 -0.14262385265E+01  0.24256749159E+02 -0.33826972771E+03  0.33914131674E+03  0.00000000000E+00 0.  1.
         -1    1    1    2    0  502  0.52477963867E+00 -0.38416093642E+02 -0.43843175440E+03  0.44011188908E+03  0.00000000000E+00 0. -1.
<mgrwt>
<rscale>  1 0.30000000E+03</rscale>
<asrwt>0</asrwt>
<pdfrwt beam="1">  1       21 0.54637480E-02 0.30000000E+03</pdfrwt>
<pdfrwt beam="2">0</pdfrwt>
<totfact> 0.24753180E+04</totfact>
</mgrwt>
</event>
<event>
 6    1  0.6513574E-002  0.3000000E+03  0.7818608E-02  0.1093470E+00
         21   -1    0    0  501  502  0.00000000000E+00  0.00000000000E+00  0.25621243450E+01  0.25621243450E+01  0.00000000000E+00 0. -1.
         13   -1    0    0    0    0 -0.00000000000E+00 -0.00000000000E+00 -0.10000000000E+04  0.10000000000E+04  0.00000000000E+00 0.  1.
    9000005    2    1    2  501    0  0.47938699969E+02  0.61115317298E+01 -0.35213436015E+03  0.35545154886E+03  0.34243565231E+01 0.  0.
         13    1    3    3    0    0  0.31825603938E+02  0.55006143408E+01 -0.22935036587E+03  0.23161329009E+03  0.00000000000E+00 0.  1.
          1    1    3    3  501    0  0.16113096031E+02  0.61091738901E+00 -0.12278399428E+03  0.12383825877E+03  0.00000000000E+00 0.  1.
         -3    1    1    2    0  502 -0.47938699969E+02 -0.61115317298E+01 -0.64530351551E+03  0.64711057548E+03  0.00000000000E+00 0. -1.
<mgrwt>
<rscale>  1 0.30000000E+03</rscale>
<asrwt>0</asrwt>
<pdfrwt beam="1">  1       21 0.93168354E-02 0.30000000E+03</pdfrwt>
<pdfrwt beam="2">0</pdfrwt>
<totfact> 0.97600640E+03</totfact>
</mgrwt>
</event>
<event>
 6    1  0.6513574E-002  0.3000000E+03  0.7818608E-02  0.1093470E+00
         21   -1    0    0  501  502  0.00000000000E+00  0.00000000000E+00  0.31784677294E+01  0.31784677294E+01  0.00000000000E+00 0. -1.
         13   -1    0    0    0    0 -0.00000000000E+00 -0.00000000000E+00 -0.10000000000E+04  0.10000000000E+04  0.00000000000E+00 0.  1.
    9000005    2    1    2  501    0  0.15329778278E+02  0.46002597861E+02 -0.24398235686E+03  0.24877932593E+03  0.35385646966E+01 0.  0.
         13    1    3    3    0    0  0.12122111109E+02  0.31368101239E+02 -0.16672408625E+03  0.17008181646E+03  0.00000000000E+00 0.  1.
          1    1    3    3  501    0  0.32076671690E+01  0.14634496622E+02 -0.77258270608E+02  0.78697509474E+02  0.00000000000E+00 0.  1.
         -3    1    1    2    0  502 -0.15329778278E+02 -0.46002597861E+02 -0.75283917541E+03  0.75439914180E+03  0.00000000000E+00 0. -1.
<mgrwt>
<rscale>  1 0.30000000E+03</rscale>
<asrwt>0</asrwt>
<pdfrwt beam="1">  1       21 0.11558089E-01 0.30000000E+03</pdfrwt>
<pdfrwt beam="2">0</pdfrwt>
<totfact> 0.66328872E+03</totfact>
</mgrwt>
</event>
<event>
 6    1  0.6513574E-002  0.3000000E+03  0.7818608E-02  0.1093470E+00
         21   -1    0    0  501  502  0.00000000000E+00  0.00000000000E+00  0.63362778391E+01  0.63362778391E+01  0.00000000000E+00 0. -1.
         13   -1    0    0    0    0 -0.00000000000E+00 -0.00000000000E+00 -0.10000000000E+04  0.10000000000E+04  0.00000000000E+00 0.  1.
    9000005    2    1    2  501    0 -0.46149923606E+02 -0.49183372274E+02 -0.23044163133E+03  0.24013997173E+03  0.38782750140E+01 0.  0.
         13    1    3    3    0    0 -0.43623661760E+02 -0.47173327260E+02 -0.22162255182E+03  0.23074856911E+03  0.00000000000E+00 0.  1.
          3    1    3    3  501    0 -0.25262618460E+01 -0.20100450142E+01 -0.88190795073E+01  0.93914026231E+01  0.00000000000E+00 0.  1.
         -3    1    1    2    0  502  0.46149923606E+02  0.49183372274E+02 -0.76322209083E+03  0.76619630611E+03  0.00000000000E+00 0. -1.
<mgrwt>
<rscale>  1 0.30000000E+03</rscale>
<asrwt>0</asrwt>
<pdfrwt beam="1">  1       21 0.23041059E-01 0.30000000E+03</pdfrwt>
<pdfrwt beam="2">0</pdfrwt>
<totfact> 0.18279578E+03</totfact>
</mgrwt>
</event>
<event>
 6    1  0.6513574E-002  0.3000000E+03  0.7818608E-02  0.1093470E+00
         21   -1    0    0  501  502  0.00000000000E+00  0.00000000000E+00  0.31999024541E+01  0.31999024541E+01  0.00000000000E+00 0. -1.
         13   -1    0    0    0    0 -0.00000000000E+00 -0.00000000000E+00 -0.10000000000E+04  0.10000000000E+04  0.00000000000E+00 0.  1.
    9000005    2    1    2  501    0  0.69342194276E+01  0.46335362875E+02 -0.21883914641E+03  0.22382945732E+03  0.37422870119E+01 0.  0.
         13    1    3    3    0    0  0.35348270174E+00  0.78403104651E+01 -0.31501315991E+02  0.32464262311E+02  0.00000000000E+00 0.  1.
          1    1    3    3  501    0  0.65807367259E+01  0.38495052410E+02 -0.18733783042E+03  0.19136519501E+03  0.00000000000E+00 0.  1.
         -1    1    1    2    0  502 -0.69342194276E+01 -0.46335362875E+02 -0.77796095114E+03  0.77937044513E+03  0.00000000000E+00 0. -1.
<mgrwt>
<rscale>  1 0.30000000E+03</rscale>
<asrwt>0</asrwt>
<pdfrwt beam="1">  1       21 0.11636033E-01 0.30000000E+03</pdfrwt>
<pdfrwt beam="2">0</pdfrwt>
<totfact> 0.65527684E+03</totfact>
</mgrwt>
</event>
<event>
 6    1  0.6513574E-002  0.3000000E+03  0.7818608E-02  0.1093470E+00
         21   -1    0    0  501  502  0.00000000000E+00  0.00000000000E+00  0.94661934576E+00  0.94661934576E+00  0.00000000000E+00 0. -1.
         13   -1    0    0    0    0 -0.00000000000E+00 -0.00000000000E+00 -0.10000000000E+04  0.10000000000E+04  0.00000000000E+00 0.  1.
    9000005    2    1    2  501    0  0.87569310124E+00 -0.30650878617E+02 -0.52185496210E+03  0.52276404557E+03  0.30663768641E+01 0.  0.
         13    1    3    3    0    0  0.71514284859E+00 -0.10705923825E+02 -0.20707978861E+03  0.20735758266E+03  0.00000000000E+00 0.  1.
          1    1    3    3  501    0  0.16055025265E+00 -0.19944954791E+02 -0.31477517349E+03  0.31540646291E+03  0.00000000000E+00 0.  1.
         -3    1    1    2    0  502 -0.87569310124E+00  0.30650878617E+02 -0.47719841855E+03  0.47818257378E+03  0.00000000000E+00 0. -1.
<mgrwt>
<rscale>  1 0.30000000E+03</rscale>
<asrwt>0</asrwt>
<pdfrwt beam="1">  1       21 0.34422594E-02 0.30000000E+03</pdfrwt>
<pdfrwt beam="2">0</pdfrwt>
<totfact> 0.54102135E+04</totfact>
</mgrwt>
</event>
<event>
 6    1  0.6513574E-002  0.3000000E+03  0.7818608E-02  0.1093470E+00
         21   -1    0    0  501  502  0.00000000000E+00  0.00000000000E+00  0.20131270605E+01  0.20131270605E+01  0.00000000000E+00 0. -1.
         13   -1    0    0    0    0 -0.00000000000E+00 -0.00000000000E+00 -0.10000000000E+04  0.10000000000E+04  0.00000000000E+00 0.  1.
    9000005    2    1    2  501    0 -0.27641544018E+02 -0.30676225136E+02 -0.69252578836E+03  0.69377367479E+03  0.49858341344E+01 0.  0.
         13    1    3    3    0    0 -0.48313942690E+01 -0.50236467204E+01 -0.15121880782E+03  0.15137934877E+03  0.00000000000E+00 0.  1.
          1    1    3    3  501    0 -0.22810149749E+02 -0.25652578415E+02 -0.54130698054E+03  0.54239432601E+03  0.00000000000E+00 0.  1.
         -1    1    1    2    0  502  0.27641544018E+02  0.30676225136E+02 -0.30546108458E+03  0.30823945227E+03  0.00000000000E+00 0. -1.
<mgrwt>
<rscale>  1 0.30000000E+03</rscale>
<asrwt>0</asrwt>
<pdfrwt beam="1">  1       21 0.73204775E-02 0.30000000E+03</pdfrwt>
<pdfrwt beam="2">0</pdfrwt>
<totfact> 0.14923720E+04</totfact>
</mgrwt>
</event>
<event>
 6    1  0.6513574E-002  0.3000000E+03  0.7818608E-02  0.1093470E+00
         21   -1    0    0  501  502  0.00000000000E+00  0.00000000000E+00  0.18268945877E+01  0.18268945877E+01  0.00000000000E+00 0. -1.
         13   -1    0    0    0    0 -0.00000000000E+00 -0.00000000000E+00 -0.10000000000E+04  0.10000000000E+04  0.00000000000E+00 0.  1.
    9000005    2    1    2  501    0  0.28432551886E+02 -0.20495779107E+02 -0.78488372405E+03  0.78567683752E+03  0.41407452031E+01 0.  0.
         13    1    3    3    0    0  0.23195513049E+02 -0.15996831966E+02 -0.59319997649E+03  0.59386879238E+03  0.00000000000E+00 0.  1.
          3    1    3    3  501    0  0.52370388364E+01 -0.44989471419E+01 -0.19168374756E+03  0.19180804514E+03  0.00000000000E+00 0.  1.
         -1    1    1    2    0  502 -0.28432551886E+02  0.20495779107E+02 -0.21328938136E+03  0.21615005707E+03  0.00000000000E+00 0. -1.
<mgrwt>
<rscale>  1 0.30000000E+03</rscale>
<asrwt>0</asrwt>
<pdfrwt beam="1">  1       21 0.66432671E-02 0.30000000E+03</pdfrwt>
<pdfrwt beam="2">0</pdfrwt>
<totfact> 0.17669848E+04</totfact>
</mgrwt>
</event>
<event>
 6    1  0.6513574E-002  0.3000000E+03  0.7818608E-02  0.1093470E+00
         21   -1    0    0  501  502  0.00000000000E+00  0.00000000000E+00  0.14788975196E+01  0.14788975196E+01  0.00000000000E+00 0. -1.
         13   -1    0    0    0    0 -0.00000000000E+00 -0.00000000000E+00 -0.10000000000E+04  0.10000000000E+04  0.00000000000E+00 0.  1.
    9000005    2    1    2  501    0  0.35850156953E+02 -0.39868522620E+01 -0.67090419973E+03  0.67188222929E+03  0.34865551907E+01 0.  0.
         13    1    3    3    0    0  0.10849648799E+02 -0.19586334324E+01 -0.17943468782E+03  0.17977307451E+03  0.00000000000E+00 0.  1.
          3    1    3    3  501    0  0.25000508155E+02 -0.20282188296E+01 -0.49146951191E+03  0.49210915478E+03  0.00000000000E+00 0.  1.
         -3    1    1    2    0  502 -0.35850156953E+02  0.39868522620E+01 -0.32761690275E+03  0.32959666823E+03  0.00000000000E+00 0. -1.
<mgrwt>
<rscale>  1 0.30000000E+03</rscale>
<asrwt>0</asrwt>
<pdfrwt beam="1">  1       21 0.53778205E-02 0.30000000E+03</pdfrwt>
<pdfrwt beam="2">0</pdfrwt>
<totfact> 0.25434498E+04</totfact>
</mgrwt>
</event>
<event>
 6    1  0.6513574E-002  0.3000000E+03  0.7818608E-02  0.1093470E+00
         21   -1    0    0  501  502  0.00000000000E+00  0.00000000000E+00  0.21843792539E+01  0.21843792539E+01  0.00000000000E+00 0. -1.
         13   -1    0    0    0    0 -0.00000000000E+00 -0.00000000000E+00 -0.10000000000E+04  0.10000000000E+04  0.00000000000E+00 0.  1.
    9000005    2    1    2  501    0 -0.40641742706E+02  0.21897928452E+02 -0.42343325060E+03  0.42594972422E+03  0.24858265859E+01 0.  0.
         13    1    3    3    0    0 -0.24116094174E+02  0.12874248998E+02 -0.23941098132E+03  0.24096669949E+03  0.00000000000E+00 0.  1.
          3    1    3    3  501    0 -0.16525648532E+02  0.90236794541E+01 -0.18402226928E+03  0.18498302474E+03  0.00000000000E+00 0.  1.
         -1    1    1    2    0  502  0.40641742706E+02 -0.21897928452E+02 -0.57438237015E+03  0.57623465503E+03  0.00000000000E+00 0. -1.
<mgrwt>
<rscale>  1 0.30000000E+03</rscale>
<asrwt>0</asrwt>
<pdfrwt beam="1">  1       21 0.79432140E-02 0.30000000E+03</pdfrwt>
<pdfrwt beam="2">0</pdfrwt>
<totfact> 0.12934670E+04</totfact>
</mgrwt>
</event>
<event>
 6    1  0.6513574E-002  0.3000000E+03  0.7818608E-02  0.1093470E+00
         21   -1    0    0  501  502  0.00000000000E+00  0.00000000000E+00  0.15790584531E+02  0.15790584531E+02  0.00000000000E+00 0. -1.
         13   -1    0    0    0    0 -0.00000000000E+00 -0.00000000000E+00 -0.10000000000E+04  0.10000000000E+04  0.00000000000E+00 0.  1.
    9000005    2    1    2  501    0  0.47643255354E+01 -0.10460715377E+03 -0.77279032077E+03  0.77985968571E+03  0.33006206248E+01 0.  0.
         13    1    3    3    0    0  0.29274765515E+01 -0.55766599044E+02 -0.40016945706E+03  0.40404712355E+03  0.00000000000E+00 0.  1.
          1    1    3    3  501    0  0.18368489839E+01 -0.48840554724E+02 -0.37262086371E+03  0.37581256215E+03  0.00000000000E+00 0.  1.
         -1    1    1    2    0  502 -0.47643255354E+01  0.10460715377E+03 -0.21141909470E+03  0.23593089883E+03  0.00000000000E+00 0. -1.
<mgrwt>
<rscale>  1 0.30000000E+03</rscale>
<asrwt>0</asrwt>
<pdfrwt beam="1">  1       21 0.57420428E-01 0.30000000E+03</pdfrwt>
<pdfrwt beam="2">0</pdfrwt>
<totfact> 0.27707084E+02</totfact>
</mgrwt>
</event>
<event>
 6    1  0.6513574E-002  0.3000000E+03  0.7818608E-02  0.1093470E+00
         21   -1    0    0  501  502  0.00000000000E+00  0.00000000000E+00  0.16470899148E+01  0.16470899148E+01  0.00000000000E+00 0. -1.
         13   -1    0    0    0    0 -0.00000000000E+00 -0.00000000000E+00 -0.10000000000E+04  0.10000000000E+04  0.00000000000E+00 0.  1.
    9000005    2    1    2  501    0 -0.13488596716E+02 -0.34033434233E+02 -0.71389593033E+03  0.71484403865E+03  0.37925394497E+01 0.  0.
         13    1    3    3    0    0 -0.99721943001E+01 -0.27631921802E+02 -0.59382866853E+03  0.59455483795E+03  0.00000000000E+00 0.  1.
          1    1    3    3  501    0 -0.35164024160E+01 -0.64015124307E+01 -0.12006726181E+03  0.12028920070E+03  0.00000000000E+00 0.  1.
         -3    1    1    2    0  502  0.13488596716E+02  0.34033434233E+02 -0.28445697975E+03  0.28680305127E+03  0.00000000000E+00 0. -1.
<mgrwt>
<rscale>  1 0.30000000E+03</rscale>
<asrwt>0</asrwt>
<pdfrwt beam="1">  1       21 0.59894305E-02 0.30000000E+03</pdfrwt>
<pdfrwt beam="2">0</pdfrwt>
<totfact> 0.21135835E+04</totfact>
</mgrwt>
</event>
<event>
 6    1  0.6513574E-002  0.3000000E+03  0.7818608E-02  0.1093470E+00
         21   -1    0    0  501  502  0.00000000000E+00  0.00000000000E+00  0.42279706610E+01  0.42279706610E+01  0.00000000000E+00 0. -1.
         13   -1    0    0    0    0 -0.00000000000E+00 -0.00000000000E+00 -0.10000000000E+04  0.10000000000E+04  0.00000000000E+00 0.  1.
    9000005    2    1    2  501    0 -0.45969537926E+02  0.27830318710E+02 -0.78038605690E+03  0.78223958767E+03  0.29410317844E+01 0.  0.
         13    1    3    3    0    0 -0.36844409722E+02  0.21461952714E+02 -0.60466394628E+03  0.60616550040E+03  0.00000000000E+00 0.  1.
          1    1    3    3  501    0 -0.91251282039E+01  0.63683659958E+01 -0.17572211062E+03  0.17607408728E+03  0.00000000000E+00 0.  1.
         -3    1    1    2    0  502  0.45969537926E+02 -0.27830318710E+02 -0.21538597244E+03  0.22198838299E+03  0.00000000000E+00 0. -1.
<mgrwt>
<rscale>  1 0.30000000E+03</rscale>
<asrwt>0</asrwt>
<pdfrwt beam="1">  1       21 0.15374471E-01 0.30000000E+03</pdfrwt>
<pdfrwt beam="2">0</pdfrwt>
<totfact> 0.39340418E+03</totfact>
</mgrwt>
</event>
<event>
 6    1  0.6513574E-002  0.3000000E+03  0.7818608E-02  0.1093470E+00
         21   -1    0    0  501  502  0.00000000000E+00  0.00000000000E+00  0.41193320819E+01  0.41193320819E+01  0.00000000000E+00 0. -1.
         13   -1    0    0    0    0 -0.00000000000E+00 -0.00000000000E+00 -0.10000000000E+04  0.10000000000E+04  0.00000000000E+00 0.  1.
    9000005    2    1    2  501    0 -0.29979104149E+02 -0.54184402256E+02 -0.36713957057E+03  0.37233609107E+03  0.28291870025E+01 0.  0.
         13    1    3    3    0    0 -0.16866466056E+02 -0.29585824890E+02 -0.19381470758E+03  0.19678399220E+03  0.00000000000E+00 0.  1.
          1    1    3    3  501    0 -0.13112638093E+02 -0.24598577365E+02 -0.17332486299E+03  0.17555209887E+03  0.00000000000E+00 0.  1.
         -1    1    1    2    0  502  0.29979104149E+02  0.54184402256E+02 -0.62874109735E+03  0.63178324101E+03  0.00000000000E+00 0. -1.
<mgrwt>
<rscale>  1 0.30000000E+03</rscale>
<asrwt>0</asrwt>
<pdfrwt beam="1">  1       21 0.14979421E-01 0.30000000E+03</pdfrwt>
<pdfrwt beam="2">0</pdfrwt>
<totfact> 0.41285126E+03</totfact>
</mgrwt>
</event>
<event>
 6    1  0.6513574E-002  0.3000000E+03  0.7818608E-02  0.1093470E+00
         21   -1    0    0  501  502  0.00000000000E+00  0.00000000000E+00  0.21814475995E+01  0.21814475995E+01  0.00000000000E+00 0. -1.
         13   -1    0    0    0    0 -0.00000000000E+00 -0.00000000000E+00 -0.10000000000E+04  0.10000000000E+04  0.00000000000E+00 0.  1.
    9000005    2    1    2  501    0  0.37230693066E+02 -0.30481209963E+01 -0.19986803714E+03  0.20335703613E+03  0.33817639484E+01 0.  0.
         13    1    3    3    0    0  0.13225368512E+02  0.27171133257E+00 -0.75463457789E+02  0.76614082654E+02  0.00000000000E+00 0.  1.
          1    1    3    3  501    0  0.24005324554E+02 -0.33198323289E+01 -0.12440457935E+03  0.12674295348E+03  0.00000000000E+00 0.  1.
         -1    1    1    2    0  502 -0.37230693066E+02  0.30481209963E+01 -0.79795051526E+03  0.79882441147E+03  0.00000000000E+00 0. -1.
<mgrwt>
<rscale>  1 0.30000000E+03</rscale>
<asrwt>0</asrwt>
<pdfrwt beam="1">  1       21 0.79325535E-02 0.30000000E+03</pdfrwt>
<pdfrwt beam="2">0</pdfrwt>
<totfact> 0.12965205E+04</totfact>
</mgrwt>
</event>
<event>
 6    1  0.6513574E-002  0.3000000E+03  0.7818608E-02  0.1093470E+00
         21   -1    0    0  501  502  0.00000000000E+00  0.00000000000E+00  0.19418571231E+01  0.19418571231E+01  0.00000000000E+00 0. -1.
         13   -1    0    0    0    0 -0.00000000000E+00 -0.00000000000E+00 -0.10000000000E+04  0.10000000000E+04  0.00000000000E+00 0.  1.
    9000005    2    1    2  501    0  0.42878066338E+02  0.48765826932E+01 -0.40450531862E+03  0.40682231887E+03  0.41876848319E+01 0.  0.
         13    1    3    3    0    0  0.34022182711E+02  0.40324446057E+01 -0.30416302070E+03  0.30608644642E+03  0.00000000000E+00 0.  1.
          1    1    3    3  501    0  0.88558836269E+01  0.84413808754E+00 -0.10034229793E+03  0.10073587244E+03  0.00000000000E+00 0.  1.
         -3    1    1    2    0  502 -0.42878066338E+02 -0.48765826932E+01 -0.59355282425E+03  0.59511953825E+03  0.00000000000E+00 0. -1.
<mgrwt>
<rscale>  1 0.30000000E+03</rscale>
<asrwt>0</asrwt>
<pdfrwt beam="1">  1       21 0.70613135E-02 0.30000000E+03</pdfrwt>
<pdfrwt beam="2">0</pdfrwt>
<totfact> 0.15892159E+04</totfact>
</mgrwt>
</event>
<event>
 6    1  0.6513574E-002  0.3000000E+03  0.7818608E-02  0.1093470E+00
         21   -1    0    0  501  502  0.00000000000E+00  0.00000000000E+00  0.10275180447E+01  0.10275180447E+01  0.00000000000E+00 0. -1.
         13   -1    0    0    0    0 -0.00000000000E+00 -0.00000000000E+00 -0.10000000000E+04  0.10000000000E+04  0.00000000000E+00 0.  1.
    9000005    2    1    2  501    0 -0.13076141459E+02  0.27246514265E+02 -0.66347311929E+03  0.66416971368E+03  0.33868169869E+01 0.  0.
         13    1    3    3    0    0 -0.97023711795E+01  0.17297951862E+02 -0.41139798089E+03  0.41187577475E+03  0.00000000000E+00 0.  1.
          1    1    3    3  501    0 -0.33737702794E+01  0.99485624035E+01 -0.25207513840E+03  0.25229393893E+03  0.00000000000E+00 0.  1.
         -1    1    1    2    0  502  0.13076141459E+02 -0.27246514265E+02 -0.33549936266E+03  0.33685780437E+03  0.00000000000E+00 0. -1.
<mgrwt>
<rscale>  1 0.30000000E+03</rscale>
<asrwt>0</asrwt>
<pdfrwt beam="1">  1       21 0.37364371E-02 0.30000000E+03</pdfrwt>
<pdfrwt beam="2">0</pdfrwt>
<totfact> 0.47153291E+04</totfact>
</mgrwt>
</event>
<event>
 6    1  0.6513574E-002  0.3000000E+03  0.7818608E-02  0.1093470E+00
         21   -1    0    0  501  502  0.00000000000E+00  0.00000000000E+00  0.98521786342E+00  0.98521786342E+00  0.00000000000E+00 0. -1.
         13   -1    0    0    0    0 -0.00000000000E+00 -0.00000000000E+00 -0.10000000000E+04  0.10000000000E+04  0.00000000000E+00 0.  1.
    9000005    2    1    2  501    0  0.27008602469E+02  0.14626808742E+02 -0.40299961237E+03  0.40417914322E+03  0.29468798972E+01 0.  0.
         13    1    3    3    0    0  0.11861662737E+02  0.79640775634E+01 -0.19421556385E+03  0.19474036771E+03  0.00000000000E+00 0.  1.
          3    1    3    3  501    0  0.15146939732E+02  0.66627311781E+01 -0.20878404852E+03  0.20943877551E+03  0.00000000000E+00 0.  1.
         -1    1    1    2    0  502 -0.27008602469E+02 -0.14626808742E+02 -0.59601516977E+03  0.59680607465E+03  0.00000000000E+00 0. -1.
<mgrwt>
<rscale>  1 0.30000000E+03</rscale>
<asrwt>0</asrwt>
<pdfrwt beam="1">  1       21 0.35826180E-02 0.30000000E+03</pdfrwt>
<pdfrwt beam="2">0</pdfrwt>
<totfact> 0.50599309E+04</totfact>
</mgrwt>
</event>
<event>
 6    1  0.6513574E-002  0.3000000E+03  0.7818608E-02  0.1093470E+00
         21   -1    0    0  501  502  0.00000000000E+00  0.00000000000E+00  0.31133426413E+01  0.31133426413E+01  0.00000000000E+00 0. -1.
         13   -1    0    0    0    0 -0.00000000000E+00 -0.00000000000E+00 -0.10000000000E+04  0.10000000000E+04  0.00000000000E+00 0.  1.
    9000005    2    1    2  501    0  0.13858493279E+02  0.53630293532E+02 -0.55588303607E+03  0.55864460335E+03  0.30946466354E+01 0.  0.
         13    1    3    3    0    0  0.80186843423E+01  0.36426004724E+02 -0.37915379246E+03  0.38098392546E+03  0.00000000000E+00 0.  1.
          3    1    3    3  501    0  0.58398089365E+01  0.17204288808E+02 -0.17672924362E+03  0.17766067790E+03  0.00000000000E+00 0.  1.
         -1    1    1    2    0  502 -0.13858493279E+02 -0.53630293532E+02 -0.44100362128E+03  0.44446873929E+03  0.00000000000E+00 0. -1.
<mgrwt>
<rscale>  1 0.30000000E+03</rscale>
<asrwt>0</asrwt>
<pdfrwt beam="1">  1       21 0.11321270E-01 0.30000000E+03</pdfrwt>
<pdfrwt beam="2">0</pdfrwt>
<totfact> 0.68855217E+03</totfact>
</mgrwt>
</event>
<event>
 6    1  0.6513574E-002  0.3000000E+03  0.7818608E-02  0.1093470E+00
         21   -1    0    0  501  502  0.00000000000E+00  0.00000000000E+00  0.15632512845E+01  0.15632512845E+01  0.00000000000E+00 0. -1.
         13   -1    0    0    0    0 -0.00000000000E+00 -0.00000000000E+00 -0.10000000000E+04  0.10000000000E+04  0.00000000000E+00 0.  1.
    9000005    2    1    2  501    0 -0.10968691534E+02 -0.36772907686E+02 -0.38434934280E+03  0.38627803203E+03  0.37069909037E+01 0.  0.
         13    1    3    3    0    0 -0.31107377113E+01 -0.16780509536E+02 -0.17323943672E+03  0.17407804177E+03  0.00000000000E+00 0.  1.
          3    1    3    3  501    0 -0.78579538228E+01 -0.19992398150E+02 -0.21110990608E+03  0.21219999026E+03  0.00000000000E+00 0.  1.
         -1    1    1    2    0  502  0.10968691534E+02  0.36772907686E+02 -0.61408740591E+03  0.61528521925E+03  0.00000000000E+00 0. -1.
<mgrwt>
<rscale>  1 0.30000000E+03</rscale>
<asrwt>0</asrwt>
<pdfrwt beam="1">  1       21 0.56845621E-02 0.30000000E+03</pdfrwt>
<pdfrwt beam="2">0</pdfrwt>
<totfact> 0.23125844E+04</totfact>
</mgrwt>
</event>
<event>
 6    1  0.6513574E-002  0.3000000E+03  0.7818608E-02  0.1093470E+00
         21   -1    0    0  501  502  0.00000000000E+00  0.00000000000E+00  0.94166749234E+00  0.94166749234E+00  0.00000000000E+00 0. -1.
         13   -1    0    0    0    0 -0.00000000000E+00 -0.00000000000E+00 -0.10000000000E+04  0.10000000000E+04  0.00000000000E+00 0.  1.
    9000005    2    1    2  501    0 -0.15491540079E+02 -0.26326249157E+02 -0.53171583536E+03  0.53260197363E+03  0.31738826652E+01 0.  0.
         13    1    3    3    0    0 -0.71947509642E+01 -0.15197390695E+02 -0.28300488248E+03  0.28350394818E+03  0.00000000000E+00 0.  1.
          3    1    3    3  501    0 -0.82967891148E+01 -0.11128858462E+02 -0.24871095288E+03  0.24909802545E+03  0.00000000000E+00 0.  1.
         -3    1    1    2    0  502  0.15491540079E+02  0.26326249157E+02 -0.46734249714E+03  0.46833969386E+03  0.00000000000E+00 0. -1.
<mgrwt>
<rscale>  1 0.30000000E+03</rscale>
<asrwt>0</asrwt>
<pdfrwt beam="1">  1       21 0.34242526E-02 0.30000000E+03</pdfrwt>
<pdfrwt beam="2">0</pdfrwt>
<totfact> 0.54578718E+04</totfact>
</mgrwt>
</event>
<event>
 6    1  0.6513574E-002  0.3000000E+03  0.7818608E-02  0.1093470E+00
         21   -1    0    0  501  502  0.00000000000E+00  0.00000000000E+00  0.45902741648E+01  0.45902741648E+01  0.00000000000E+00 0. -1.
         13   -1    0    0    0    0 -0.00000000000E+00 -0.00000000000E+00 -0.10000000000E+04  0.10000000000E+04  0.00000000000E+00 0.  1.
    9000005    2    1    2  501    0 -0.12469194281E+01  0.67109089230E+02 -0.43109297155E+03  0.43629582247E+03  0.27766735004E+01 0.  0.
         13    1    3    3    0    0  0.49423992513E-01  0.34198047209E+02 -0.22743353526E+03  0.22999026466E+03  0.00000000000E+00 0.  1.
          1    1    3    3  501    0 -0.12963434206E+01  0.32911042021E+02 -0.20365943629E+03  0.20630555781E+03  0.00000000000E+00 0.  1.
         -3    1    1    2    0  502  0.12469194281E+01 -0.67109089230E+02 -0.56431675428E+03  0.56829445170E+03  0.00000000000E+00 0. -1.
<mgrwt>
<rscale>  1 0.30000000E+03</rscale>
<asrwt>0</asrwt>
<pdfrwt beam="1">  1       21 0.16691941E-01 0.30000000E+03</pdfrwt>
<pdfrwt beam="2">0</pdfrwt>
<totfact> 0.33750757E+03</totfact>
</mgrwt>
</event>
<event>
 6    1  0.6513574E-002  0.3000000E+03  0.7818608E-02  0.1093470E+00
         21   -1    0    0  501  502  0.00000000000E+00  0.00000000000E+00  0.28561120901E+01  0.28561120901E+01  0.00000000000E+00 0. -1.
         13   -1    0    0    0    0 -0.00000000000E+00 -0.00000000000E+00 -0.10000000000E+04  0.10000000000E+04  0.00000000000E+00 0.  1.
    9000005    2    1    2  501    0  0.32265867706E+02  0.29391776642E+02 -0.21022178520E+03  0.21472455043E+03  0.29104692594E+01 0.  0.
         13    1    3    3    0    0  0.45201339522E+01  0.51966254720E+01 -0.36697422703E+02  0.37338148860E+02  0.00000000000E+00 0.  1.
          1    1    3    3  501    0  0.27745733754E+02  0.24195151170E+02 -0.17352436250E+03  0.17738640157E+03  0.00000000000E+00 0.  1.
         -1    1    1    2    0  502 -0.32265867706E+02 -0.29391776642E+02 -0.78692210271E+03  0.78813156166E+03  0.00000000000E+00 0. -1.
<mgrwt>
<rscale>  1 0.30000000E+03</rscale>
<asrwt>0</asrwt>
<pdfrwt beam="1">  1       21 0.10385884E-01 0.30000000E+03</pdfrwt>
<pdfrwt beam="2">0</pdfrwt>
<totfact> 0.80397637E+03</totfact>
</mgrwt>
</event>
<event>
 6    1  0.6513574E-002  0.3000000E+03  0.7818608E-02  0.1093470E+00
         21   -1    0    0  501  502  0.00000000000E+00  0.00000000000E+00  0.13670943339E+01  0.13670943339E+01  0.00000000000E+00 0. -1.
         13   -1    0    0    0    0 -0.00000000000E+00 -0.00000000000E+00 -0.10000000000E+04  0.10000000000E+04  0.00000000000E+00 0.  1.
    9000005    2    1    2  501    0  0.32885084138E+02  0.15613525937E+02 -0.42675556190E+03  0.42833227230E+03  0.47973878091E+01 0.  0.
         13    1    3    3    0    0  0.51032130695E+01  0.17934271809E+01 -0.84521231155E+02  0.84694141950E+02  0.00000000000E+00 0.  1.
          3    1    3    3  501    0  0.27781871068E+02  0.13820098756E+02 -0.34223433075E+03  0.34363813035E+03  0.00000000000E+00 0.  1.
         -1    1    1    2    0  502 -0.32885084138E+02 -0.15613525937E+02 -0.57187734376E+03  0.57303482203E+03  0.00000000000E+00 0. -1.
<mgrwt>
<rscale>  1 0.30000000E+03</rscale>
<asrwt>0</asrwt>
<pdfrwt beam="1">  1       21 0.49712626E-02 0.30000000E+03</pdfrwt>
<pdfrwt beam="2">0</pdfrwt>
<totfact> 0.29089049E+04</totfact>
</mgrwt>
</event>
<event>
 6    1  0.6513574E-002  0.3000000E+03  0.7818608E-02  0.1093470E+00
         21   -1    0    0  501  502  0.00000000000E+00  0.00000000000E+00  0.20955763312E+01  0.20955763312E+01  0.00000000000E+00 0. -1.
         13   -1    0    0    0    0 -0.00000000000E+00 -0.00000000000E+00 -0.10000000000E+04  0.10000000000E+04  0.00000000000E+00 0.  1.
    9000005    2    1    2  501    0 -0.31915556257E+02 -0.27514723088E+02 -0.69360793842E+03  0.69489529369E+03  0.34400931238E+01 0.  0.
         13    1    3    3    0    0 -0.12414961121E+02 -0.12849237463E+02 -0.30137243708E+03  0.30190160648E+03  0.00000000000E+00 0.  1.
          3    1    3    3  501    0 -0.19500595136E+02 -0.14665485625E+02 -0.39223550134E+03  0.39299368721E+03  0.00000000000E+00 0.  1.
         -1    1    1    2    0  502  0.31915556257E+02  0.27514723088E+02 -0.30429648525E+03  0.30720028264E+03  0.00000000000E+00 0. -1.
<mgrwt>
<rscale>  1 0.30000000E+03</rscale>
<asrwt>0</asrwt>
<pdfrwt beam="1">  1       21 0.76202936E-02 0.30000000E+03</pdfrwt>
<pdfrwt beam="2">0</pdfrwt>
<totfact> 0.13911312E+04</totfact>
</mgrwt>
</event>
<event>
 6    1  0.6513574E-002  0.3000000E+03  0.7818608E-02  0.1093470E+00
         21   -1    0    0  501  502  0.00000000000E+00  0.00000000000E+00  0.19830361306E+01  0.19830361306E+01  0.00000000000E+00 0. -1.
         13   -1    0    0    0    0 -0.00000000000E+00 -0.00000000000E+00 -0.10000000000E+04  0.10000000000E+04  0.00000000000E+00 0.  1.
    9000005    2    1    2  501    0  0.36140810984E+02 -0.21070436125E+02 -0.66925863752E+03  0.67057368406E+03  0.34380748747E+01 0.  0.
         13    1    3    3    0    0  0.20185443063E+02 -0.10833386431E+02 -0.34194662009E+03  0.34271315318E+03  0.00000000000E+00 0.  1.
          1    1    3    3  501    0  0.15955367921E+02 -0.10237049694E+02 -0.32731201743E+03  0.32786053088E+03  0.00000000000E+00 0.  1.
         -1    1    1    2    0  502 -0.36140810984E+02  0.21070436125E+02 -0.32875832635E+03  0.33140935207E+03  0.00000000000E+00 0. -1.
<mgrwt>
<rscale>  1 0.30000000E+03</rscale>
<asrwt>0</asrwt>
<pdfrwt beam="1">  1       21 0.72110557E-02 0.30000000E+03</pdfrwt>
<pdfrwt beam="2">0</pdfrwt>
<totfact> 0.15321345E+04</totfact>
</mgrwt>
</event>
<event>
 6    1  0.6513574E-002  0.3000000E+03  0.7818608E-02  0.1093470E+00
         21   -1    0    0  501  502  0.00000000000E+00  0.00000000000E+00  0.51909481859E+01  0.51909481859E+01  0.00000000000E+00 0. -1.
         13   -1    0    0    0    0 -0.00000000000E+00 -0.00000000000E+00 -0.10000000000E+04  0.10000000000E+04  0.00000000000E+00 0.  1.
    9000005    2    1    2  501    0 -0.66513929622E+02 -0.12398793034E+02 -0.66971230179E+03  0.67312810808E+03  0.30082914279E+01 0.  0.
         13    1    3    3    0    0 -0.40415018461E+02 -0.87287753417E+01 -0.41767858085E+03  0.41972009975E+03  0.00000000000E+00 0.  1.
          3    1    3    3  501    0 -0.26098911161E+02 -0.36700176920E+01 -0.25203372094E+03  0.25340800833E+03  0.00000000000E+00 0.  1.
         -1    1    1    2    0  502  0.66513929622E+02  0.12398793034E+02 -0.32509675003E+03  0.33206284011E+03  0.00000000000E+00 0. -1.
<mgrwt>
<rscale>  1 0.30000000E+03</rscale>
<asrwt>0</asrwt>
<pdfrwt beam="1">  1       21 0.18876215E-01 0.30000000E+03</pdfrwt>
<pdfrwt beam="2">0</pdfrwt>
<totfact> 0.26780486E+03</totfact>
</mgrwt>
</event>
<event>
 6    1  0.6513574E-002  0.3000000E+03  0.7818608E-02  0.1093470E+00
         21   -1    0    0  501  502  0.00000000000E+00  0.00000000000E+00  0.13138370200E+01  0.13138370200E+01  0.00000000000E+00 0. -1.
         13   -1    0    0    0    0 -0.00000000000E+00 -0.00000000000E+00 -0.10000000000E+04  0.10000000000E+04  0.00000000000E+00 0.  1.
    9000005    2    1    2  501    0 -0.33484912828E+02 -0.13640189652E+02 -0.49531673575E+03  0.49664753695E+03  0.35795361896E+01 0.  0.
         13    1    3    3    0    0 -0.65017061415E+01 -0.41712918775E+01 -0.11069158408E+03  0.11096079779E+03  0.00000000000E+00 0.  1.
          3    1    3    3  501    0 -0.26983206687E+02 -0.94688977741E+01 -0.38462515167E+03  0.38568673916E+03  0.00000000000E+00 0.  1.
         -3    1    1    2    0  502  0.33484912828E+02  0.13640189652E+02 -0.50336942723E+03  0.50466630007E+03  0.00000000000E+00 0. -1.
<mgrwt>
<rscale>  1 0.30000000E+03</rscale>
<asrwt>0</asrwt>
<pdfrwt beam="1">  1       21 0.47775992E-02 0.30000000E+03</pdfrwt>
<pdfrwt beam="2">0</pdfrwt>
<totfact> 0.31125283E+04</totfact>
</mgrwt>
</event>
<event>
 6    1  0.6513574E-002  0.3000000E+03  0.7818608E-02  0.1093470E+00
         21   -1    0    0  501  502  0.00000000000E+00  0.00000000000E+00  0.28188267922E+01  0.28188267922E+01  0.00000000000E+00 0. -1.
         13   -1    0    0    0    0 -0.00000000000E+00 -0.00000000000E+00 -0.10000000000E+04  0.10000000000E+04  0.00000000000E+00 0.  1.
    9000005    2    1    2  501    0 -0.17062050614E+02 -0.31963563488E+02 -0.86494359704E+03  0.86570734108E+03  0.29985640546E+01 0.  0.
         13    1    3    3    0    0 -0.15456086953E+02 -0.27791766876E+02 -0.77637311956E+03  0.77702412685E+03  0.00000000000E+00 0.  1.
          1    1    3    3  501    0 -0.16059636615E+01 -0.41717966122E+01 -0.88570477480E+02  0.88683214236E+02  0.00000000000E+00 0.  1.
         -1    1    1    2    0  502  0.17062050614E+02  0.31963563488E+02 -0.13223757617E+03  0.13711148571E+03  0.00000000000E+00 0. -1.
<mgrwt>
<rscale>  1 0.30000000E+03</rscale>
<asrwt>0</asrwt>
<pdfrwt beam="1">  1       21 0.10250301E-01 0.30000000E+03</pdfrwt>
<pdfrwt beam="2">0</pdfrwt>
<totfact> 0.82311544E+03</totfact>
</mgrwt>
</event>
<event>
 6    1  0.6513574E-002  0.3000000E+03  0.7818608E-02  0.1093470E+00
         21   -1    0    0  501  502  0.00000000000E+00  0.00000000000E+00  0.12970096060E+01  0.12970096060E+01  0.00000000000E+00 0. -1.
         13   -1    0    0    0    0 -0.00000000000E+00 -0.00000000000E+00 -0.10000000000E+04  0.10000000000E+04  0.00000000000E+00 0.  1.
    9000005    2    1    2  501    0  0.11214994103E+02 -0.31810866563E+02 -0.32819114927E+03  0.32993731733E+03  0.33905138442E+01 0.  0.
         13    1    3    3    0    0  0.34412993456E+01 -0.14725563146E+02 -0.14974861314E+03  0.15051023848E+03  0.00000000000E+00 0.  1.
          1    1    3    3  501    0  0.77736947570E+01 -0.17085303417E+02 -0.17844253613E+03  0.17942707885E+03  0.00000000000E+00 0.  1.
         -1    1    1    2    0  502 -0.11214994103E+02  0.31810866563E+02 -0.67051184113E+03  0.67135969228E+03  0.00000000000E+00 0. -1.
<mgrwt>
<rscale>  1 0.30000000E+03</rscale>
<asrwt>0</asrwt>
<pdfrwt beam="1">  1       21 0.47164085E-02 0.30000000E+03</pdfrwt>
<pdfrwt beam="2">0</pdfrwt>
<totfact> 0.31815242E+04</totfact>
</mgrwt>
</event>
<event>
 6    1  0.6513574E-002  0.3000000E+03  0.7818608E-02  0.1093470E+00
         21   -1    0    0  501  502  0.00000000000E+00  0.00000000000E+00  0.92229982747E+00  0.92229982747E+00  0.00000000000E+00 0. -1.
         13   -1    0    0    0    0 -0.00000000000E+00 -0.00000000000E+00 -0.10000000000E+04  0.10000000000E+04  0.00000000000E+00 0.  1.
    9000005    2    1    2  501    0  0.30107031240E+02 -0.28839339567E+01 -0.50029281831E+03  0.50122128044E+03  0.38881236279E+01 0.  0.
         13    1    3    3    0    0  0.15853237792E+02 -0.32225809289E+01 -0.28134347438E+03  0.28180819852E+03  0.00000000000E+00 0.  1.
          3    1    3    3  501    0  0.14253793448E+02  0.33864697224E+00 -0.21894934393E+03  0.21941308192E+03  0.00000000000E+00 0.  1.
         -3    1    1    2    0  502 -0.30107031240E+02  0.28839339567E+01 -0.49878488186E+03  0.49970101939E+03  0.00000000000E+00 0. -1.
<mgrwt>
<rscale>  1 0.30000000E+03</rscale>
<asrwt>0</asrwt>
<pdfrwt beam="1">  1       21 0.33538246E-02 0.30000000E+03</pdfrwt>
<pdfrwt beam="2">0</pdfrwt>
<totfact> 0.56507058E+04</totfact>
</mgrwt>
</event>
<event>
 6    1  0.6513574E-002  0.3000000E+03  0.7818608E-02  0.1093470E+00
         21   -1    0    0  501  502  0.00000000000E+00  0.00000000000E+00  0.14470892863E+01  0.14470892863E+01  0.00000000000E+00 0. -1.
         13   -1    0    0    0    0 -0.00000000000E+00 -0.00000000000E+00 -0.10000000000E+04  0.10000000000E+04  0.00000000000E+00 0.  1.
    9000005    2    1    2  501    0 -0.34825433625E+02 -0.13256073129E+02 -0.59680183738E+03  0.59797161391E+03  0.30139085945E+01 0.  0.
         13    1    3    3    0    0 -0.19611777450E+02 -0.83581534239E+01 -0.32112491958E+03  0.32183177985E+03  0.00000000000E+00 0.  1.
          3    1    3    3  501    0 -0.15213656175E+02 -0.48979197050E+01 -0.27567691779E+03  0.27613983406E+03  0.00000000000E+00 0.  1.
         -3    1    1    2    0  502  0.34825433625E+02  0.13256073129E+02 -0.40175107334E+03  0.40347547538E+03  0.00000000000E+00 0. -1.
<mgrwt>
<rscale>  1 0.30000000E+03</rscale>
<asrwt>0</asrwt>
<pdfrwt beam="1">  1       21 0.52621540E-02 0.30000000E+03</pdfrwt>
<pdfrwt beam="2">0</pdfrwt>
<totfact> 0.26398377E+04</totfact>
</mgrwt>
</event>
<event>
 6    1  0.6513574E-002  0.3000000E+03  0.7818608E-02  0.1093470E+00
         21   -1    0    0  501  502  0.00000000000E+00  0.00000000000E+00  0.67057235269E+01  0.67057235269E+01  0.00000000000E+00 0. -1.
         13   -1    0    0    0    0 -0.00000000000E+00 -0.00000000000E+00 -0.10000000000E+04  0.10000000000E+04  0.00000000000E+00 0.  1.
    9000005    2    1    2  501    0 -0.67690186490E+02 -0.44619597056E+02 -0.42824146745E+03  0.43586638819E+03  0.39854883622E+01 0.  0.
         13    1    3    3    0    0 -0.14896044498E+02 -0.90938735501E+01 -0.10060197309E+03  0.10210459181E+03  0.00000000000E+00 0.  1.
          1    1    3    3  501    0 -0.52794141991E+02 -0.35525723506E+02 -0.32763949436E+03  0.33376179638E+03  0.00000000000E+00 0.  1.
         -3    1    1    2    0  502  0.67690186490E+02  0.44619597056E+02 -0.56505280902E+03  0.57083933534E+03  0.00000000000E+00 0. -1.
<mgrwt>
<rscale>  1 0.30000000E+03</rscale>
<asrwt>0</asrwt>
<pdfrwt beam="1">  1       21 0.24384501E-01 0.30000000E+03</pdfrwt>
<pdfrwt beam="2">0</pdfrwt>
<totfact> 0.16374264E+03</totfact>
</mgrwt>
</event>
<event>
 6    1  0.6513574E-002  0.3000000E+03  0.7818608E-02  0.1093470E+00
         21   -1    0    0  501  502  0.00000000000E+00  0.00000000000E+00  0.17409717999E+01  0.17409717999E+01  0.00000000000E+00 0. -1.
         13   -1    0    0    0    0 -0.00000000000E+00 -0.00000000000E+00 -0.10000000000E+04  0.10000000000E+04  0.00000000000E+00 0.  1.
    9000005    2    1    2  501    0  0.94215459783E+00  0.39475797118E+02 -0.65025877164E+03  0.65150761420E+03  0.81532230328E+01 0.  0.
         13    1    3    3    0    0  0.31236551378E+01  0.36278290785E+02 -0.59550044508E+03  0.59661264795E+03  0.00000000000E+00 0.  1.
          1    1    3    3  501    0 -0.21815005400E+01  0.31975063327E+01 -0.54758326559E+02  0.54894966244E+02  0.00000000000E+00 0.  1.
         -1    1    1    2    0  502 -0.94215459783E+00 -0.39475797118E+02 -0.34800025656E+03  0.35023335760E+03  0.00000000000E+00 0. -1.
<mgrwt>
<rscale>  1 0.30000000E+03</rscale>
<asrwt>0</asrwt>
<pdfrwt beam="1">  1       21 0.63308199E-02 0.30000000E+03</pdfrwt>
<pdfrwt beam="2">0</pdfrwt>
<totfact> 0.19206698E+04</totfact>
</mgrwt>
</event>
<event>
 6    1  0.6513574E-002  0.3000000E+03  0.7818608E-02  0.1093470E+00
         21   -1    0    0  501  502  0.00000000000E+00  0.00000000000E+00  0.22902852008E+02  0.22902852008E+02  0.00000000000E+00 0. -1.
         13   -1    0    0    0    0 -0.00000000000E+00 -0.00000000000E+00 -0.10000000000E+04  0.10000000000E+04  0.00000000000E+00 0.  1.
    9000005    2    1    2  501    0  0.45779179214E+02 -0.13717619207E+03 -0.63915014169E+03  0.65531446809E+03  0.33327991737E+01 0.  0.
         13    1    3    3    0    0  0.71815163119E+01 -0.18339357885E+02 -0.84606206957E+02  0.86868385963E+02  0.00000000000E+00 0.  1.
          1    1    3    3  501    0  0.38597662902E+02 -0.11883683418E+03 -0.55454393473E+03  0.56844608213E+03  0.00000000000E+00 0.  1.
         -1    1    1    2    0  502 -0.45779179214E+02  0.13717619207E+03 -0.33794700631E+03  0.36758838392E+03  0.00000000000E+00 0. -1.
<mgrwt>
<rscale>  1 0.30000000E+03</rscale>
<asrwt>0</asrwt>
<pdfrwt beam="1">  1       21 0.83283274E-01 0.30000000E+03</pdfrwt>
<pdfrwt beam="2">0</pdfrwt>
<totfact> 0.11674333E+02</totfact>
</mgrwt>
</event>
<event>
 6    1  0.6513574E-002  0.3000000E+03  0.7818608E-02  0.1093470E+00
         21   -1    0    0  501  502  0.00000000000E+00  0.00000000000E+00  0.56045743963E+01  0.56045743963E+01  0.00000000000E+00 0. -1.
         13   -1    0    0    0    0 -0.00000000000E+00 -0.00000000000E+00 -0.10000000000E+04  0.10000000000E+04  0.00000000000E+00 0.  1.
    9000005    2    1    2  501    0 -0.71102916086E+02 -0.23201336763E+02 -0.51078870074E+03  0.51624847600E+03  0.36695321359E+01 0.  0.
         13    1    3    3    0    0 -0.62564702172E+02 -0.19150600156E+02 -0.44760599046E+03  0.45236291862E+03  0.00000000000E+00 0.  1.
          3    1    3    3  501    0 -0.85382139140E+01 -0.40507366070E+01 -0.63182710271E+02  0.63885557375E+02  0.00000000000E+00 0.  1.
         -1    1    1    2    0  502  0.71102916086E+02  0.23201336763E+02 -0.48360672487E+03  0.48935609840E+03  0.00000000000E+00 0. -1.
<mgrwt>
<rscale>  1 0.30000000E+03</rscale>
<asrwt>0</asrwt>
<pdfrwt beam="1">  1       21 0.20380314E-01 0.30000000E+03</pdfrwt>
<pdfrwt beam="2">0</pdfrwt>
<totfact> 0.23144055E+03</totfact>
</mgrwt>
</event>
<event>
 6    1  0.6513574E-002  0.3000000E+03  0.7818608E-02  0.1093470E+00
         21   -1    0    0  501  502  0.00000000000E+00  0.00000000000E+00  0.14653860980E+01  0.14653860980E+01  0.00000000000E+00 0. -1.
         13   -1    0    0    0    0 -0.00000000000E+00 -0.00000000000E+00 -0.10000000000E+04  0.10000000000E+04  0.00000000000E+00 0.  1.
    9000005    2    1    2  501    0  0.34632550595E+02  0.14004524259E+02 -0.60577439826E+03  0.60693258993E+03  0.30011451651E+01 0.  0.
         13    1    3    3    0    0  0.19435062508E+02  0.74608638583E+01 -0.36069621754E+03  0.36129648143E+03  0.00000000000E+00 0.  1.
          1    1    3    3  501    0  0.15197488087E+02  0.65436604008E+01 -0.24507818072E+03  0.24563610850E+03  0.00000000000E+00 0.  1.
         -3    1    1    2    0  502 -0.34632550595E+02 -0.14004524259E+02 -0.39276021564E+03  0.39453279617E+03  0.00000000000E+00 0. -1.
<mgrwt>
<rscale>  1 0.30000000E+03</rscale>
<asrwt>0</asrwt>
<pdfrwt beam="1">  1       21 0.53286880E-02 0.30000000E+03</pdfrwt>
<pdfrwt beam="2">0</pdfrwt>
<totfact> 0.25837171E+04</totfact>
</mgrwt>
</event>
<event>
 6    1  0.6513574E-002  0.3000000E+03  0.7818608E-02  0.1093470E+00
         21   -1    0    0  501  502  0.00000000000E+00  0.00000000000E+00  0.13522073217E+01  0.13522073217E+01  0.00000000000E+00 0. -1.
         13   -1    0    0    0    0 -0.00000000000E+00 -0.00000000000E+00 -0.10000000000E+04  0.10000000000E+04  0.00000000000E+00 0.  1.
    9000005    2    1    2  501    0  0.36074161554E+02  0.66571441807E+01 -0.50631031944E+03  0.50765001951E+03  0.35693180600E+01 0.  0.
         13    1    3    3    0    0  0.26944474461E+02  0.61097970606E+01 -0.39445705127E+03  0.39542344344E+03  0.00000000000E+00 0.  1.
          1    1    3    3  501    0  0.91296870929E+01  0.54734712011E+00 -0.11185326817E+03  0.11222657607E+03  0.00000000000E+00 0.  1.
         -3    1    1    2    0  502 -0.36074161554E+02 -0.66571441807E+01 -0.49233747323E+03  0.49370218781E+03  0.00000000000E+00 0. -1.
<mgrwt>
<rscale>  1 0.30000000E+03</rscale>
<asrwt>0</asrwt>
<pdfrwt beam="1">  1       21 0.49171279E-02 0.30000000E+03</pdfrwt>
<pdfrwt beam="2">0</pdfrwt>
<totfact> 0.29636810E+04</totfact>
</mgrwt>
</event>
<event>
 6    1  0.6513574E-002  0.3000000E+03  0.7818608E-02  0.1093470E+00
         21   -1    0    0  501  502  0.00000000000E+00  0.00000000000E+00  0.12153049622E+01  0.12153049622E+01  0.00000000000E+00 0. -1.
         13   -1    0    0    0    0 -0.00000000000E+00 -0.00000000000E+00 -0.10000000000E+04  0.10000000000E+04  0.00000000000E+00 0.  1.
    9000005    2    1    2  501    0  0.31272220215E+02 -0.15228750524E+02 -0.49631794184E+03  0.49754606362E+03  0.32740551444E+01 0.  0.
         13    1    3    3    0    0  0.22217701260E+02 -0.11010401077E+02 -0.33190627088E+03  0.33283123025E+03  0.00000000000E+00 0.  1.
          3    1    3    3  501    0  0.90545189542E+01 -0.42183494467E+01 -0.16441167096E+03  0.16471483337E+03  0.00000000000E+00 0.  1.
         -3    1    1    2    0  502 -0.31272220215E+02  0.15228750524E+02 -0.50246675320E+03  0.50366924134E+03  0.00000000000E+00 0. -1.
<mgrwt>
<rscale>  1 0.30000000E+03</rscale>
<asrwt>0</asrwt>
<pdfrwt beam="1">  1       21 0.44193001E-02 0.30000000E+03</pdfrwt>
<pdfrwt beam="2">0</pdfrwt>
<totfact> 0.35531944E+04</totfact>
</mgrwt>
</event>
<event>
 6    1  0.6513574E-002  0.3000000E+03  0.7818608E-02  0.1093470E+00
         21   -1    0    0  501  502  0.00000000000E+00  0.00000000000E+00  0.91429826562E+00  0.91429826562E+00  0.00000000000E+00 0. -1.
         13   -1    0    0    0    0 -0.00000000000E+00 -0.00000000000E+00 -0.10000000000E+04  0.10000000000E+04  0.00000000000E+00 0.  1.
    9000005    2    1    2  501    0 -0.29894107935E+02  0.35717032561E+01 -0.47244526011E+03  0.47341399542E+03  0.31420535953E+01 0.  0.
         13    1    3    3    0    0 -0.11822177486E+02  0.12350643570E+01 -0.16317518549E+03  0.16360755002E+03  0.00000000000E+00 0.  1.
          1    1    3    3  501    0 -0.18071930449E+02  0.23366388992E+01 -0.30927007462E+03  0.30980644540E+03  0.00000000000E+00 0.  1.
         -1    1    1    2    0  502  0.29894107935E+02 -0.35717032561E+01 -0.52664044162E+03  0.52750030285E+03  0.00000000000E+00 0. -1.
<mgrwt>
<rscale>  1 0.30000000E+03</rscale>
<asrwt>0</asrwt>
<pdfrwt beam="1">  1       21 0.33247280E-02 0.30000000E+03</pdfrwt>
<pdfrwt beam="2">0</pdfrwt>
<totfact> 0.57334936E+04</totfact>
</mgrwt>
</event>
<event>
 6    1  0.6513574E-002  0.3000000E+03  0.7818608E-02  0.1093470E+00
         21   -1    0    0  501  502  0.00000000000E+00  0.00000000000E+00  0.23060282814E+01  0.23060282814E+01  0.00000000000E+00 0. -1.
         13   -1    0    0    0    0 -0.00000000000E+00 -0.00000000000E+00 -0.10000000000E+04  0.10000000000E+04  0.00000000000E+00 0.  1.
    9000005    2    1    2  501    0  0.10843375576E+02 -0.45349312461E+02 -0.61391242941E+03  0.61570234083E+03  0.51732566492E+01 0.  0.
         13    1    3    3    0    0  0.10977215923E+02 -0.45399854956E+02 -0.61315903279E+03  0.61493548083E+03  0.00000000000E+00 0.  1.
          3    1    3    3  501    0 -0.13384034722E+00  0.50542494616E-01 -0.75339662301E+00  0.76685999626E+00  0.00000000000E+00 0.  1.
         -3    1    1    2    0  502 -0.10843375576E+02  0.45349312461E+02 -0.38378154231E+03  0.38660368745E+03  0.00000000000E+00 0. -1.
<mgrwt>
<rscale>  1 0.30000000E+03</rscale>
<asrwt>0</asrwt>
<pdfrwt beam="1">  1       21 0.83855751E-02 0.30000000E+03</pdfrwt>
<pdfrwt beam="2">0</pdfrwt>
<totfact> 0.11758824E+04</totfact>
</mgrwt>
</event>
<event>
 6    1  0.6513574E-002  0.3000000E+03  0.7818608E-02  0.1093470E+00
         21   -1    0    0  501  502  0.00000000000E+00  0.00000000000E+00  0.12353567541E+01  0.12353567541E+01  0.00000000000E+00 0. -1.
         13   -1    0    0    0    0 -0.00000000000E+00 -0.00000000000E+00 -0.10000000000E+04  0.10000000000E+04  0.00000000000E+00 0.  1.
    9000005    2    1    2  501    0 -0.26184066457E+02 -0.16473759693E+02 -0.26505516971E+03  0.26687401405E+03  0.32413412596E+01 0.  0.
         13    1    3    3    0    0 -0.34501773934E+01 -0.34522311770E+01 -0.45649953021E+02  0.45910127804E+02  0.00000000000E+00 0.  1.
          1    1    3    3  501    0 -0.22733889064E+02 -0.13021528516E+02 -0.21940521669E+03  0.22096388625E+03  0.00000000000E+00 0.  1.
         -3    1    1    2    0  502  0.26184066457E+02  0.16473759693E+02 -0.73370947354E+03  0.73436134270E+03  0.00000000000E+00 0. -1.
<mgrwt>
<rscale>  1 0.30000000E+03</rscale>
<asrwt>0</asrwt>
<pdfrwt beam="1">  1       21 0.44922159E-02 0.30000000E+03</pdfrwt>
<pdfrwt beam="2">0</pdfrwt>
<totfact> 0.34559564E+04</totfact>
</mgrwt>
</event>
<event>
 6    1  0.6513574E-002  0.3000000E+03  0.7818608E-02  0.1093470E+00
         21   -1    0    0  501  502  0.00000000000E+00  0.00000000000E+00  0.10902668295E+01  0.10902668295E+01  0.00000000000E+00 0. -1.
         13   -1    0    0    0    0 -0.00000000000E+00 -0.00000000000E+00 -0.10000000000E+04  0.10000000000E+04  0.00000000000E+00 0.  1.
    9000005    2    1    2  501    0 -0.27839647590E+02 -0.14156582226E+02 -0.34217927069E+03  0.34361756386E+03  0.33048609521E+01 0.  0.
         13    1    3    3    0    0 -0.15019591797E+02 -0.58199700339E+01 -0.17200528279E+03  0.17275785799E+03  0.00000000000E+00 0.  1.
          3    1    3    3  501    0 -0.12820055793E+02 -0.83366121921E+01 -0.17017398790E+03  0.17085970587E+03  0.00000000000E+00 0.  1.
         -1    1    1    2    0  502  0.27839647590E+02  0.14156582226E+02 -0.65673046248E+03  0.65747270297E+03  0.00000000000E+00 0. -1.
<mgrwt>
<rscale>  1 0.30000000E+03</rscale>
<asrwt>0</asrwt>
<pdfrwt beam="1">  1       21 0.39646150E-02 0.30000000E+03</pdfrwt>
<pdfrwt beam="2">0</pdfrwt>
<totfact> 0.42681094E+04</totfact>
</mgrwt>
</event>
<event>
 6    1  0.6513574E-002  0.3000000E+03  0.7818608E-02  0.1093470E+00
         21   -1    0    0  501  502  0.00000000000E+00  0.00000000000E+00  0.17193337307E+01  0.17193337307E+01  0.00000000000E+00 0. -1.
         13   -1    0    0    0    0 -0.00000000000E+00 -0.00000000000E+00 -0.10000000000E+04  0.10000000000E+04  0.00000000000E+00 0.  1.
    9000005    2    1    2  501    0  0.27385148706E+02 -0.19250484713E+02 -0.20587329039E+03  0.20860523294E+03  0.34356922128E+01 0.  0.
         13    1    3    3    0    0  0.70055828893E+01 -0.63261802324E+01 -0.51681855030E+02  0.52536776522E+02  0.00000000000E+00 0.  1.
          3    1    3    3  501    0  0.20379565817E+02 -0.12924304480E+02 -0.15419143536E+03  0.15606845642E+03  0.00000000000E+00 0.  1.
         -1    1    1    2    0  502 -0.27385148706E+02  0.19250484713E+02 -0.79240737588E+03  0.79311410079E+03  0.00000000000E+00 0. -1.
<mgrwt>
<rscale>  1 0.30000000E+03</rscale>
<asrwt>0</asrwt>
<pdfrwt beam="1">  1       21 0.62521358E-02 0.30000000E+03</pdfrwt>
<pdfrwt beam="2">0</pdfrwt>
<totfact> 0.19626378E+04</totfact>
</mgrwt>
</event>
<event>
 6    1  0.6513574E-002  0.3000000E+03  0.7818608E-02  0.1093470E+00
         21   -1    0    0  501  502  0.00000000000E+00  0.00000000000E+00  0.10219436712E+01  0.10219436712E+01  0.00000000000E+00 0. -1.
         13   -1    0    0    0    0 -0.00000000000E+00 -0.00000000000E+00 -0.10000000000E+04  0.10000000000E+04  0.00000000000E+00 0.  1.
    9000005    2    1    2  501    0 -0.30489662019E+02  0.78832764074E+00 -0.35267150182E+03  0.35399613016E+03  0.24147506698E+01 0.  0.
         13    1    3    3    0    0 -0.24984577486E+01 -0.57434205936E+00 -0.31774544368E+02  0.31877795245E+02  0.00000000000E+00 0.  1.
          3    1    3    3  501    0 -0.27991204271E+02  0.13626697001E+01 -0.32089695746E+03  0.32211833492E+03  0.00000000000E+00 0.  1.
         -3    1    1    2    0  502  0.30489662019E+02 -0.78832764074E+00 -0.64630655450E+03  0.64702581351E+03  0.00000000000E+00 0. -1.
<mgrwt>
<rscale>  1 0.30000000E+03</rscale>
<asrwt>0</asrwt>
<pdfrwt beam="1">  1       21 0.37161666E-02 0.30000000E+03</pdfrwt>
<pdfrwt beam="2">0</pdfrwt>
<totfact> 0.47585909E+04</totfact>
</mgrwt>
</event>
<event>
 6    1  0.6513574E-002  0.3000000E+03  0.7818608E-02  0.1093470E+00
         21   -1    0    0  501  502  0.00000000000E+00  0.00000000000E+00  0.37629713819E+01  0.37629713819E+01  0.00000000000E+00 0. -1.
         13   -1    0    0    0    0 -0.00000000000E+00 -0.00000000000E+00 -0.10000000000E+04  0.10000000000E+04  0.00000000000E+00 0.  1.
    9000005    2    1    2  501    0 -0.37874091899E+02  0.35075861950E+02 -0.23418320082E+03  0.23996273612E+03  0.86936902334E+01 0.  0.
         13    1    3    3    0    0 -0.21620785714E+02  0.15859537582E+02 -0.13490772915E+03  0.13754664188E+03  0.00000000000E+00 0.  1.
          3    1    3    3  501    0 -0.16253306186E+02  0.19216324367E+02 -0.99275471673E+02  0.10241609424E+03  0.00000000000E+00 0.  1.
         -3    1    1    2    0  502  0.37874091899E+02 -0.35075861950E+02 -0.76205382779E+03  0.76380023526E+03  0.00000000000E+00 0. -1.
<mgrwt>
<rscale>  1 0.30000000E+03</rscale>
<asrwt>0</asrwt>
<pdfrwt beam="1">  1       21 0.13683561E-01 0.30000000E+03</pdfrwt>
<pdfrwt beam="2">0</pdfrwt>
<totfact> 0.48770932E+03</totfact>
</mgrwt>
</event>
<event>
 6    1  0.6513574E-002  0.3000000E+03  0.7818608E-02  0.1093470E+00
         21   -1    0    0  501  502  0.00000000000E+00  0.00000000000E+00  0.33446177450E+01  0.33446177450E+01  0.00000000000E+00 0. -1.
         13   -1    0    0    0    0 -0.00000000000E+00 -0.00000000000E+00 -0.10000000000E+04  0.10000000000E+04  0.00000000000E+00 0.  1.
    9000005    2    1    2  501    0 -0.48697018293E+02 -0.78310318134E+01 -0.23741712524E+03  0.24250596496E+03  0.30865897254E+01 0.  0.
         13    1    3    3    0    0 -0.33642306642E+02 -0.64184012387E+01 -0.15962259014E+03  0.16325554187E+03  0.00000000000E+00 0.  1.
          3    1    3    3  501    0 -0.15054711651E+02 -0.14126305747E+01 -0.77794535098E+02  0.79250423085E+02  0.00000000000E+00 0.  1.
         -3    1    1    2    0  502  0.48697018293E+02  0.78310318134E+01 -0.75923825702E+03  0.76083865278E+03  0.00000000000E+00 0. -1.
<mgrwt>
<rscale>  1 0.30000000E+03</rscale>
<asrwt>0</asrwt>
<pdfrwt beam="1">  1       21 0.12162272E-01 0.30000000E+03</pdfrwt>
<pdfrwt beam="2">0</pdfrwt>
<totfact> 0.60477552E+03</totfact>
</mgrwt>
</event>
<event>
 6    1  0.6513574E-002  0.3000000E+03  0.7818608E-02  0.1093470E+00
         21   -1    0    0  501  502  0.00000000000E+00  0.00000000000E+00  0.10206385058E+01  0.10206385058E+01  0.00000000000E+00 0. -1.
         13   -1    0    0    0    0 -0.00000000000E+00 -0.00000000000E+00 -0.10000000000E+04  0.10000000000E+04  0.00000000000E+00 0.  1.
    9000005    2    1    2  501    0 -0.29534265412E+02  0.11211966934E+02 -0.56840245433E+03  0.56928639847E+03  0.27699023285E+01 0.  0.
         13    1    3    3    0    0 -0.21070356135E+02  0.81413918266E+01 -0.38315033699E+03  0.38381561055E+03  0.00000000000E+00 0.  1.
          1    1    3    3  501    0 -0.84639092774E+01  0.30705751078E+01 -0.18525211734E+03  0.18547078792E+03  0.00000000000E+00 0.  1.
         -3    1    1    2    0  502  0.29534265412E+02 -0.11211966934E+02 -0.43057690717E+03  0.43173424004E+03  0.00000000000E+00 0. -1.
<mgrwt>
<rscale>  1 0.30000000E+03</rscale>
<asrwt>0</asrwt>
<pdfrwt beam="1">  1       21 0.37114206E-02 0.30000000E+03</pdfrwt>
<pdfrwt beam="2">0</pdfrwt>
<totfact> 0.47688104E+04</totfact>
</mgrwt>
</event>
<event>
 6    1  0.6513574E-002  0.3000000E+03  0.7818608E-02  0.1093470E+00
         21   -1    0    0  501  502  0.00000000000E+00  0.00000000000E+00  0.18945663650E+01  0.18945663650E+01  0.00000000000E+00 0. -1.
         13   -1    0    0    0    0 -0.00000000000E+00 -0.00000000000E+00 -0.10000000000E+04  0.10000000000E+04  0.00000000000E+00 0.  1.
    9000005    2    1    2  501    0 -0.43314092878E+02  0.25187248291E+01 -0.52322104229E+03  0.52503228041E+03  0.40226568349E+01 0.  0.
         13    1    3    3    0    0 -0.30094068036E+02  0.48829361005E+00 -0.34534640463E+03  0.34665549260E+03  0.00000000000E+00 0.  1.
          1    1    3    3  501    0 -0.13220024842E+02  0.20304312190E+01 -0.17787463766E+03  0.17837678781E+03  0.00000000000E+00 0.  1.
         -3    1    1    2    0  502  0.43314092878E+02 -0.25187248291E+01 -0.47488439135E+03  0.47686228595E+03  0.00000000000E+00 0. -1.
<mgrwt>
<rscale>  1 0.30000000E+03</rscale>
<asrwt>0</asrwt>
<pdfrwt beam="1">  1       21 0.68893468E-02 0.30000000E+03</pdfrwt>
<pdfrwt beam="2">0</pdfrwt>
<totfact> 0.16588694E+04</totfact>
</mgrwt>
</event>
<event>
 6    1  0.6513574E-002  0.3000000E+03  0.7818608E-02  0.1093470E+00
         21   -1    0    0  501  502  0.00000000000E+00  0.00000000000E+00  0.14013183001E+01  0.14013183001E+01  0.00000000000E+00 0. -1.
         13   -1    0    0    0    0 -0.00000000000E+00 -0.00000000000E+00 -0.10000000000E+04  0.10000000000E+04  0.00000000000E+00 0.  1.
    9000005    2    1    2  501    0  0.28888405163E+02 -0.17672520514E+02 -0.71145218553E+03  0.71226472740E+03  0.31577950862E+01 0.  0.
         13    1    3    3    0    0  0.21251725492E+02 -0.11652218295E+02 -0.48959216678E+03  0.49019169699E+03  0.00000000000E+00 0.  1.
          1    1    3    3  501    0  0.76366796706E+01 -0.60203022190E+01 -0.22186001876E+03  0.22207303042E+03  0.00000000000E+00 0.  1.
         -3    1    1    2    0  502 -0.28888405163E+02  0.17672520514E+02 -0.28714649617E+03  0.28913659090E+03  0.00000000000E+00 0. -1.
<mgrwt>
<rscale>  1 0.30000000E+03</rscale>
<asrwt>0</asrwt>
<pdfrwt beam="1">  1       21 0.50957137E-02 0.30000000E+03</pdfrwt>
<pdfrwt beam="2">0</pdfrwt>
<totfact> 0.27888008E+04</totfact>
</mgrwt>
</event>
<event>
 6    1  0.6513574E-002  0.3000000E+03  0.7818608E-02  0.1093470E+00
         21   -1    0    0  501  502  0.00000000000E+00  0.00000000000E+00  0.16922218663E+01  0.16922218663E+01  0.00000000000E+00 0. -1.
         13   -1    0    0    0    0 -0.00000000000E+00 -0.00000000000E+00 -0.10000000000E+04  0.10000000000E+04  0.00000000000E+00 0.  1.
    9000005    2    1    2  501    0 -0.24127183765E+02  0.28207292125E+02 -0.28583647789E+03  0.28825468011E+03  0.32397814056E+01 0.  0.
         13    1    3    3    0    0 -0.10970157363E+02  0.11050999379E+02 -0.11119668458E+03  0.11228166191E+03  0.00000000000E+00 0.  1.
          3    1    3    3  501    0 -0.13157026402E+02  0.17156292746E+02 -0.17463979331E+03  0.17597301819E+03  0.00000000000E+00 0.  1.
         -1    1    1    2    0  502  0.24127183765E+02 -0.28207292125E+02 -0.71247130024E+03  0.71343754176E+03  0.00000000000E+00 0. -1.
<mgrwt>
<rscale>  1 0.30000000E+03</rscale>
<asrwt>0</asrwt>
<pdfrwt beam="1">  1       21 0.61535470E-02 0.30000000E+03</pdfrwt>
<pdfrwt beam="2">0</pdfrwt>
<totfact> 0.20172619E+04</totfact>
</mgrwt>
</event>
<event>
 6    1  0.6513574E-002  0.3000000E+03  0.7818608E-02  0.1093470E+00
         21   -1    0    0  501  502  0.00000000000E+00  0.00000000000E+00  0.99743119172E+00  0.99743119172E+00  0.00000000000E+00 0. -1.
         13   -1    0    0    0    0 -0.00000000000E+00 -0.00000000000E+00 -0.10000000000E+04  0.10000000000E+04  0.00000000000E+00 0.  1.
    9000005    2    1    2  501    0 -0.14283657088E+02  0.26737905129E+02 -0.36801327712E+03  0.36928038642E+03  0.39106555794E+01 0.  0.
         13    1    3    3    0    0 -0.56703261282E+00  0.33481837431E+00 -0.40711189321E+01  0.41240318484E+01  0.00000000000E+00 0.  1.
          1    1    3    3  501    0 -0.13716624475E+02  0.26403086754E+02 -0.36394215819E+03  0.36515635457E+03  0.00000000000E+00 0.  1.
         -3    1    1    2    0  502  0.14283657088E+02 -0.26737905129E+02 -0.63098929169E+03  0.63171704477E+03  0.00000000000E+00 0. -1.
<mgrwt>
<rscale>  1 0.30000000E+03</rscale>
<asrwt>0</asrwt>
<pdfrwt beam="1">  1       21 0.36270302E-02 0.30000000E+03</pdfrwt>
<pdfrwt beam="2">0</pdfrwt>
<totfact> 0.49564577E+04</totfact>
</mgrwt>
</event>
<event>
 6    1  0.6513574E-002  0.3000000E+03  0.7818608E-02  0.1093470E+00
         21   -1    0    0  501  502  0.00000000000E+00  0.00000000000E+00  0.12605936614E+01  0.12605936614E+01  0.00000000000E+00 0. -1.
         13   -1    0    0    0    0 -0.00000000000E+00 -0.00000000000E+00 -0.10000000000E+04  0.10000000000E+04  0.00000000000E+00 0.  1.
    9000005    2    1    2  501    0  0.24403496063E+02 -0.24212004029E+02 -0.42598256853E+03  0.42747304847E+03  0.95029847137E+01 0.  0.
         13    1    3    3    0    0  0.36376758773E+01 -0.80442523179E+01 -0.78384236638E+02  0.78879853160E+02  0.00000000000E+00 0.  1.
          1    1    3    3  501    0  0.20765820186E+02 -0.16167751711E+02 -0.34759833189E+03  0.34859319531E+03  0.00000000000E+00 0.  1.
         -3    1    1    2    0  502 -0.24403496063E+02  0.24212004029E+02 -0.57275683781E+03  0.57378754519E+03  0.00000000000E+00 0. -1.
<mgrwt>
<rscale>  1 0.30000000E+03</rscale>
<asrwt>0</asrwt>
<pdfrwt beam="1">  1       21 0.45839866E-02 0.30000000E+03</pdfrwt>
<pdfrwt beam="2">0</pdfrwt>
<totfact> 0.33393032E+04</totfact>
</mgrwt>
</event>
<event>
 6    1  0.6513574E-002  0.3000000E+03  0.7818608E-02  0.1093470E+00
         21   -1    0    0  501  502  0.00000000000E+00  0.00000000000E+00  0.22910040637E+01  0.22910040637E+01  0.00000000000E+00 0. -1.
         13   -1    0    0    0    0 -0.00000000000E+00 -0.00000000000E+00 -0.10000000000E+04  0.10000000000E+04  0.00000000000E+00 0.  1.
    9000005    2    1    2  501    0 -0.36309961334E+02  0.29265646396E+02 -0.40296239192E+03  0.40571878351E+03  0.73587116754E+01 0.  0.
         13    1    3    3    0    0 -0.21763457770E+02  0.12880524254E+02 -0.22059304970E+03  0.22203794625E+03  0.00000000000E+00 0.  1.
          1    1    3    3  501    0 -0.14546503564E+02  0.16385122142E+02 -0.18236934222E+03  0.18368083726E+03  0.00000000000E+00 0.  1.
         -3    1    1    2    0  502  0.36309961334E+02 -0.29265646396E+02 -0.59474660401E+03  0.59657222055E+03  0.00000000000E+00 0. -1.
<mgrwt>
<rscale>  1 0.30000000E+03</rscale>
<asrwt>0</asrwt>
<pdfrwt beam="1">  1       21 0.83309414E-02 0.30000000E+03</pdfrwt>
<pdfrwt beam="2">0</pdfrwt>
<totfact> 0.11894981E+04</totfact>
</mgrwt>
</event>
<event>
 6    1  0.6513574E-002  0.3000000E+03  0.7818608E-02  0.1093470E+00
         21   -1    0    0  501  502  0.00000000000E+00  0.00000000000E+00  0.29258921863E+01  0.29258921863E+01  0.00000000000E+00 0. -1.
         13   -1    0    0    0    0 -0.00000000000E+00 -0.00000000000E+00 -0.10000000000E+04  0.10000000000E+04  0.00000000000E+00 0.  1.
    9000005    2    1    2  501    0 -0.37208407733E+02  0.39058346339E+02 -0.46862804275E+03  0.47173358830E+03  0.32118305723E+01 0.  0.
         13    1    3    3    0    0 -0.62670322499E+00  0.13984666169E+01 -0.12227103990E+02  0.12322765023E+02  0.00000000000E+00 0.  1.
          1    1    3    3  501    0 -0.36581704508E+02  0.37659879722E+02 -0.45640093876E+03  0.45941082328E+03  0.00000000000E+00 0.  1.
         -3    1    1    2    0  502  0.37208407733E+02 -0.39058346339E+02 -0.52844606506E+03  0.53119230388E+03  0.00000000000E+00 0. -1.
<mgrwt>
<rscale>  1 0.30000000E+03</rscale>
<asrwt>0</asrwt>
<pdfrwt beam="1">  1       21 0.10639630E-01 0.30000000E+03</pdfrwt>
<pdfrwt beam="2">0</pdfrwt>
<totfact> 0.76992789E+03</totfact>
</mgrwt>
</event>
<event>
 6    1  0.6513574E-002  0.3000000E+03  0.7818608E-02  0.1093470E+00
         21   -1    0    0  501  502  0.00000000000E+00  0.00000000000E+00  0.11093842473E+01  0.11093842473E+01  0.00000000000E+00 0. -1.
         13   -1    0    0    0    0 -0.00000000000E+00 -0.00000000000E+00 -0.10000000000E+04  0.10000000000E+04  0.00000000000E+00 0.  1.
    9000005    2    1    2  501    0  0.21942044925E+02  0.20476143697E+02 -0.31618300634E+03  0.31774242152E+03  0.93716134939E+01 0.  0.
         13    1    3    3    0    0  0.11751118962E+02  0.12023999559E+02 -0.12886974345E+03  0.12996182570E+03  0.00000000000E+00 0.  1.
          1    1    3    3  501    0  0.10190925963E+02  0.84521441378E+01 -0.18731326289E+03  0.18778059582E+03  0.00000000000E+00 0.  1.
         -1    1    1    2    0  502 -0.21942044925E+02 -0.20476143697E+02 -0.68270760941E+03  0.68336696272E+03  0.00000000000E+00 0. -1.
<mgrwt>
<rscale>  1 0.30000000E+03</rscale>
<asrwt>0</asrwt>
<pdfrwt beam="1">  1       21 0.40341330E-02 0.30000000E+03</pdfrwt>
<pdfrwt beam="2">0</pdfrwt>
<totfact> 0.41449811E+04</totfact>
</mgrwt>
</event>
<event>
 6    1  0.6513574E-002  0.3000000E+03  0.7818608E-02  0.1093470E+00
         21   -1    0    0  501  502  0.00000000000E+00  0.00000000000E+00  0.26456193221E+01  0.26456193221E+01  0.00000000000E+00 0. -1.
         13   -1    0    0    0    0 -0.00000000000E+00 -0.00000000000E+00 -0.10000000000E+04  0.10000000000E+04  0.00000000000E+00 0.  1.
    9000005    2    1    2  501    0 -0.27976152943E+02  0.42510925485E+02 -0.47113523455E+03  0.47397139669E+03  0.95200699113E+01 0.  0.
         13    1    3    3    0    0 -0.14032172541E+02  0.28621286722E+02 -0.31183448478E+03  0.31345944845E+03  0.00000000000E+00 0.  1.
          1    1    3    3  501    0 -0.13943980403E+02  0.13889638764E+02 -0.15930074976E+03  0.16051194825E+03  0.00000000000E+00 0.  1.
         -1    1    1    2    0  502  0.27976152943E+02 -0.42510925485E+02 -0.52621914613E+03  0.52867422263E+03  0.00000000000E+00 0. -1.
<mgrwt>
<rscale>  1 0.30000000E+03</rscale>
<asrwt>0</asrwt>
<pdfrwt beam="1">  1       21 0.96204542E-02 0.30000000E+03</pdfrwt>
<pdfrwt beam="2">0</pdfrwt>
<totfact> 0.92183636E+03</totfact>
</mgrwt>
</event>
<event>
 6    1  0.6513574E-002  0.3000000E+03  0.7818608E-02  0.1093470E+00
         21   -1    0    0  501  502  0.00000000000E+00  0.00000000000E+00  0.10955503838E+01  0.10955503838E+01  0.00000000000E+00 0. -1.
         13   -1    0    0    0    0 -0.00000000000E+00 -0.00000000000E+00 -0.10000000000E+04  0.10000000000E+04  0.00000000000E+00 0.  1.
    9000005    2    1    2  501    0  0.90447420341E+01  0.29664243092E+02 -0.67236551222E+03  0.67308723904E+03  0.30454318033E+01 0.  0.
         13    1    3    3    0    0  0.86670264300E+01  0.24632608419E+02 -0.56687394537E+03  0.56747506790E+03  0.00000000000E+00 0.  1.
          1    1    3    3  501    0  0.37771560414E+00  0.50316346731E+01 -0.10549156685E+03  0.10561217114E+03  0.00000000000E+00 0.  1.
         -3    1    1    2    0  502 -0.90447420341E+01 -0.29664243092E+02 -0.32653893740E+03  0.32800831135E+03  0.00000000000E+00 0. -1.
<mgrwt>
<rscale>  1 0.30000000E+03</rscale>
<asrwt>0</asrwt>
<pdfrwt beam="1">  1       21 0.39838280E-02 0.30000000E+03</pdfrwt>
<pdfrwt beam="2">0</pdfrwt>
<totfact> 0.42335136E+04</totfact>
</mgrwt>
</event>
<event>
 6    1  0.6513574E-002  0.3000000E+03  0.7818608E-02  0.1093470E+00
         21   -1    0    0  501  502  0.00000000000E+00  0.00000000000E+00  0.34448369025E+01  0.34448369025E+01  0.00000000000E+00 0. -1.
         13   -1    0    0    0    0 -0.00000000000E+00 -0.00000000000E+00 -0.10000000000E+04  0.10000000000E+04  0.00000000000E+00 0.  1.
    9000005    2    1    2  501    0  0.36404713147E+02 -0.39322339474E+02 -0.70233732104E+03  0.70438683566E+03  0.33988538008E+01 0.  0.
         13    1    3    3    0    0  0.19548049956E+02 -0.21558973054E+02 -0.35942642247E+03  0.36060264661E+03  0.00000000000E+00 0.  1.
          1    1    3    3  501    0  0.16856663191E+02 -0.17763366420E+02 -0.34291089857E+03  0.34378418905E+03  0.00000000000E+00 0.  1.
         -3    1    1    2    0  502 -0.36404713147E+02  0.39322339474E+02 -0.29421784206E+03  0.29905800124E+03  0.00000000000E+00 0. -1.
<mgrwt>
<rscale>  1 0.30000000E+03</rscale>
<asrwt>0</asrwt>
<pdfrwt beam="1">  1       21 0.12526706E-01 0.30000000E+03</pdfrwt>
<pdfrwt beam="2">0</pdfrwt>
<totfact> 0.57313704E+03</totfact>
</mgrwt>
</event>
<event>
 6    1  0.6513574E-002  0.3000000E+03  0.7818608E-02  0.1093470E+00
         21   -1    0    0  501  502  0.00000000000E+00  0.00000000000E+00  0.18461627794E+01  0.18461627794E+01  0.00000000000E+00 0. -1.
         13   -1    0    0    0    0 -0.00000000000E+00 -0.00000000000E+00 -0.10000000000E+04  0.10000000000E+04  0.00000000000E+00 0.  1.
    9000005    2    1    2  501    0 -0.98907890663E+01 -0.41199340577E+02 -0.41901765339E+03  0.42116214130E+03  0.25577421603E+01 0.  0.
         13    1    3    3    0    0 -0.81037943336E+01 -0.32918136362E+02 -0.34477399573E+03  0.34643669453E+03  0.00000000000E+00 0.  1.
          1    1    3    3  501    0 -0.17869947327E+01 -0.82812042153E+01 -0.74243657656E+02  0.74725446774E+02  0.00000000000E+00 0.  1.
         -1    1    1    2    0  502  0.98907890663E+01  0.41199340577E+02 -0.57913618384E+03  0.58068402148E+03  0.00000000000E+00 0. -1.
<mgrwt>
<rscale>  1 0.30000000E+03</rscale>
<asrwt>0</asrwt>
<pdfrwt beam="1">  1       21 0.67133334E-02 0.30000000E+03</pdfrwt>
<pdfrwt beam="2">0</pdfrwt>
<totfact> 0.17351234E+04</totfact>
</mgrwt>
</event>
<event>
 6    1  0.6513574E-002  0.3000000E+03  0.7818608E-02  0.1093470E+00
         21   -1    0    0  501  502  0.00000000000E+00  0.00000000000E+00  0.31275520157E+01  0.31275520157E+01  0.00000000000E+00 0. -1.
         13   -1    0    0    0    0 -0.00000000000E+00 -0.00000000000E+00 -0.10000000000E+04  0.10000000000E+04  0.00000000000E+00 0.  1.
    9000005    2    1    2  501    0  0.42474229746E+02  0.31518254632E+02 -0.33681489307E+03  0.34095428438E+03  0.28445171867E+01 0.  0.
         13    1    3    3    0    0  0.24814585911E+02  0.18840926928E+02 -0.20704515286E+03  0.20937631080E+03  0.00000000000E+00 0.  1.
          3    1    3    3  501    0  0.17659643835E+02  0.12677327704E+02 -0.12976974021E+03  0.13157797358E+03  0.00000000000E+00 0.  1.
         -1    1    1    2    0  502 -0.42474229746E+02 -0.31518254632E+02 -0.66005755492E+03  0.66217326764E+03  0.00000000000E+00 0. -1.
<mgrwt>
<rscale>  1 0.30000000E+03</rscale>
<asrwt>0</asrwt>
<pdfrwt beam="1">  1       21 0.11372940E-01 0.30000000E+03</pdfrwt>
<pdfrwt beam="2">0</pdfrwt>
<totfact> 0.68291840E+03</totfact>
</mgrwt>
</event>
<event>
 6    1  0.6513574E-002  0.3000000E+03  0.7818608E-02  0.1093470E+00
         21   -1    0    0  501  502  0.00000000000E+00  0.00000000000E+00  0.26731350348E+01  0.26731350348E+01  0.00000000000E+00 0. -1.
         13   -1    0    0    0    0 -0.00000000000E+00 -0.00000000000E+00 -0.10000000000E+04  0.10000000000E+04  0.00000000000E+00 0.  1.
    9000005    2    1    2  501    0  0.27056316301E+02 -0.37704822894E+02 -0.71908207766E+03  0.72058474537E+03  0.31053062439E+01 0.  0.
         13    1    3    3    0    0  0.82672008177E+00 -0.22102051395E+01 -0.41071046269E+02  0.41138781150E+02  0.00000000000E+00 0.  1.
          1    1    3    3  501    0  0.26229596219E+02 -0.35494617754E+02 -0.67801103139E+03  0.67944596422E+03  0.00000000000E+00 0.  1.
         -1    1    1    2    0  502 -0.27056316301E+02  0.37704822894E+02 -0.27824478731E+03  0.28208838967E+03  0.00000000000E+00 0. -1.
<mgrwt>
<rscale>  1 0.30000000E+03</rscale>
<asrwt>0</asrwt>
<pdfrwt beam="1">  1       21 0.97205115E-02 0.30000000E+03</pdfrwt>
<pdfrwt beam="2">0</pdfrwt>
<totfact> 0.90498122E+03</totfact>
</mgrwt>
</event>
<event>
 6    1  0.6513574E-002  0.3000000E+03  0.7818608E-02  0.1093470E+00
         21   -1    0    0  501  502  0.00000000000E+00  0.00000000000E+00  0.12691529562E+01  0.12691529562E+01  0.00000000000E+00 0. -1.
         13   -1    0    0    0    0 -0.00000000000E+00 -0.00000000000E+00 -0.10000000000E+04  0.10000000000E+04  0.00000000000E+00 0.  1.
    9000005    2    1    2  501    0  0.18485013562E+02 -0.29537779599E+02 -0.59935263883E+03  0.60037374348E+03  0.32969724337E+01 0.  0.
         13    1    3    3    0    0  0.49338090657E+01 -0.10666169273E+02 -0.20989687956E+03  0.21022561616E+03  0.00000000000E+00 0.  1.
          1    1    3    3  501    0  0.13551204496E+02 -0.18871610327E+02 -0.38945575927E+03  0.39014812732E+03  0.00000000000E+00 0.  1.
         -3    1    1    2    0  502 -0.18485013562E+02  0.29537779599E+02 -0.39937820821E+03  0.40089540948E+03  0.00000000000E+00 0. -1.
<mgrwt>
<rscale>  1 0.30000000E+03</rscale>
<asrwt>0</asrwt>
<pdfrwt beam="1">  1       21 0.46151114E-02 0.30000000E+03</pdfrwt>
<pdfrwt beam="2">0</pdfrwt>
<totfact> 0.33011318E+04</totfact>
</mgrwt>
</event>
<event>
 6    1  0.6513574E-002  0.3000000E+03  0.7818608E-02  0.1093470E+00
         21   -1    0    0  501  502  0.00000000000E+00  0.00000000000E+00  0.19183790991E+01  0.19183790991E+01  0.00000000000E+00 0. -1.
         13   -1    0    0    0    0 -0.00000000000E+00 -0.00000000000E+00 -0.10000000000E+04  0.10000000000E+04  0.00000000000E+00 0.  1.
    9000005    2    1    2  501    0  0.16603903991E+02 -0.39726550528E+02 -0.58809884907E+03  0.58968087275E+03  0.30638150328E+01 0.  0.
         13    1    3    3    0    0  0.13063312149E+02 -0.33227420222E+02 -0.47468332646E+03  0.47602412964E+03  0.00000000000E+00 0.  1.
          1    1    3    3  501    0  0.35405918424E+01 -0.64991303060E+01 -0.11341552261E+03  0.11365674311E+03  0.00000000000E+00 0.  1.
         -1    1    1    2    0  502 -0.16603903991E+02  0.39726550528E+02 -0.40998277183E+03  0.41223750635E+03  0.00000000000E+00 0. -1.
<mgrwt>
<rscale>  1 0.30000000E+03</rscale>
<asrwt>0</asrwt>
<pdfrwt beam="1">  1       21 0.69759387E-02 0.30000000E+03</pdfrwt>
<pdfrwt beam="2">0</pdfrwt>
<totfact> 0.16232253E+04</totfact>
</mgrwt>
</event>
<event>
 6    1  0.6513574E-002  0.3000000E+03  0.7818608E-02  0.1093470E+00
         21   -1    0    0  501  502  0.00000000000E+00  0.00000000000E+00  0.14360153762E+01  0.14360153762E+01  0.00000000000E+00 0. -1.
         13   -1    0    0    0    0 -0.00000000000E+00 -0.00000000000E+00 -0.10000000000E+04  0.10000000000E+04  0.00000000000E+00 0.  1.
    9000005    2    1    2  501    0  0.27516286447E+02  0.15335984542E+02 -0.77680442587E+03  0.77745021149E+03  0.33729601856E+01 0.  0.
         13    1    3    3    0    0  0.93283920028E+01  0.44320961395E+01 -0.22044584232E+03  0.22068763393E+03  0.00000000000E+00 0.  1.
          3    1    3    3  501    0  0.18187894444E+02  0.10903888403E+02 -0.55635858355E+03  0.55676257756E+03  0.00000000000E+00 0.  1.
         -3    1    1    2    0  502 -0.27516286447E+02 -0.15335984542E+02 -0.22175955876E+03  0.22398580388E+03  0.00000000000E+00 0. -1.
<mgrwt>
<rscale>  1 0.30000000E+03</rscale>
<asrwt>0</asrwt>
<pdfrwt beam="1">  1       21 0.52218851E-02 0.30000000E+03</pdfrwt>
<pdfrwt beam="2">0</pdfrwt>
<totfact> 0.26747265E+04</totfact>
</mgrwt>
</event>
<event>
 6    1  0.6513574E-002  0.3000000E+03  0.7818608E-02  0.1093470E+00
         21   -1    0    0  501  502  0.00000000000E+00  0.00000000000E+00  0.18147587335E+01  0.18147587335E+01  0.00000000000E+00 0. -1.
         13   -1    0    0    0    0 -0.00000000000E+00 -0.00000000000E+00 -0.10000000000E+04  0.10000000000E+04  0.00000000000E+00 0.  1.
    9000005    2    1    2  501    0  0.42470214655E+02 -0.10842106375E+01 -0.52305225788E+03  0.52478619926E+03  0.34634984580E+01 0.  0.
         13    1    3    3    0    0  0.41802673160E+02 -0.14648094202E+01 -0.51584717740E+03  0.51754025890E+03  0.00000000000E+00 0.  1.
          1    1    3    3  501    0  0.66754149527E+00  0.38059878266E+00 -0.72050804758E+01  0.72459403630E+01  0.00000000000E+00 0.  1.
         -1    1    1    2    0  502 -0.42470214655E+02  0.10842106375E+01 -0.47513298339E+03  0.47702855947E+03  0.00000000000E+00 0. -1.
<mgrwt>
<rscale>  1 0.30000000E+03</rscale>
<asrwt>0</asrwt>
<pdfrwt beam="1">  1       21 0.65991366E-02 0.30000000E+03</pdfrwt>
<pdfrwt beam="2">0</pdfrwt>
<totfact> 0.17875170E+04</totfact>
</mgrwt>
</event>
<event>
 6    1  0.6513574E-002  0.3000000E+03  0.7818608E-02  0.1093470E+00
         21   -1    0    0  501  502  0.00000000000E+00  0.00000000000E+00  0.11894825231E+01  0.11894825231E+01  0.00000000000E+00 0. -1.
         13   -1    0    0    0    0 -0.00000000000E+00 -0.00000000000E+00 -0.10000000000E+04  0.10000000000E+04  0.00000000000E+00 0.  1.
    9000005    2    1    2  501    0 -0.13713390814E+02  0.27241628943E+02 -0.26924827407E+03  0.27099003687E+03  0.32868762000E+01 0.  0.
         13    1    3    3    0    0 -0.36697920536E+01  0.46310653235E+01 -0.56402994025E+02  0.56711655545E+02  0.00000000000E+00 0.  1.
          3    1    3    3  501    0 -0.10043598760E+02  0.22610563620E+02 -0.21284528005E+03  0.21427838132E+03  0.00000000000E+00 0.  1.
         -3    1    1    2    0  502  0.13713390814E+02 -0.27241628943E+02 -0.72956224340E+03  0.73019944566E+03  0.00000000000E+00 0. -1.
<mgrwt>
<rscale>  1 0.30000000E+03</rscale>
<asrwt>0</asrwt>
<pdfrwt beam="1">  1       21 0.43254001E-02 0.30000000E+03</pdfrwt>
<pdfrwt beam="2">0</pdfrwt>
<totfact> 0.36847809E+04</totfact>
</mgrwt>
</event>
<event>
 6    1  0.6513574E-002  0.3000000E+03  0.7818608E-02  0.1093470E+00
         21   -1    0    0  501  502  0.00000000000E+00  0.00000000000E+00  0.10459111494E+01  0.10459111494E+01  0.00000000000E+00 0. -1.
         13   -1    0    0    0    0 -0.00000000000E+00 -0.00000000000E+00 -0.10000000000E+04  0.10000000000E+04  0.00000000000E+00 0.  1.
    9000005    2    1    2  501    0  0.19499334087E+02  0.25704064276E+02 -0.49637546213E+03  0.49743276697E+03  0.31361288605E+01 0.  0.
         13    1    3    3    0    0  0.19392952331E+02  0.25220129679E+02 -0.49237341024E+03  0.49340015875E+03  0.00000000000E+00 0.  1.
          3    1    3    3  501    0  0.10638175623E+00  0.48393459693E+00 -0.40020518846E+01  0.40326082204E+01  0.00000000000E+00 0.  1.
         -3    1    1    2    0  502 -0.19499334087E+02 -0.25704064276E+02 -0.50257862673E+03  0.50361314418E+03  0.00000000000E+00 0. -1.
<mgrwt>
<rscale>  1 0.30000000E+03</rscale>
<asrwt>0</asrwt>
<pdfrwt beam="1">  1       21 0.38033213E-02 0.30000000E+03</pdfrwt>
<pdfrwt beam="2">0</pdfrwt>
<totfact> 0.45768849E+04</totfact>
</mgrwt>
</event>
<event>
 6    1  0.6513574E-002  0.3000000E+03  0.7818608E-02  0.1093470E+00
         21   -1    0    0  501  502  0.00000000000E+00  0.00000000000E+00  0.57892252839E+01  0.57892252839E+01  0.00000000000E+00 0. -1.
         13   -1    0    0    0    0 -0.00000000000E+00 -0.00000000000E+00 -0.10000000000E+04  0.10000000000E+04  0.00000000000E+00 0.  1.
    9000005    2    1    2  501    0  0.67899562357E+02  0.10053063731E+02 -0.28106176502E+03  0.28934458353E+03  0.36273415663E+01 0.  0.
         13    1    3    3    0    0  0.58259451113E+02  0.81165846202E+01 -0.23565659066E+03  0.24288695171E+03  0.00000000000E+00 0.  1.
          1    1    3    3  501    0  0.96401112435E+01  0.19364791112E+01 -0.45405174360E+02  0.46457631825E+02  0.00000000000E+00 0.  1.
         -1    1    1    2    0  502 -0.67899562357E+02 -0.10053063731E+02 -0.71314900970E+03  0.71644464175E+03  0.00000000000E+00 0. -1.
<mgrwt>
<rscale>  1 0.30000000E+03</rscale>
<asrwt>0</asrwt>
<pdfrwt beam="1">  1       21 0.21051773E-01 0.30000000E+03</pdfrwt>
<pdfrwt beam="2">0</pdfrwt>
<totfact> 0.21751308E+03</totfact>
</mgrwt>
</event>
<event>
 6    1  0.6513574E-002  0.3000000E+03  0.7818608E-02  0.1093470E+00
         21   -1    0    0  501  502  0.00000000000E+00  0.00000000000E+00  0.14139072318E+01  0.14139072318E+01  0.00000000000E+00 0. -1.
         13   -1    0    0    0    0 -0.00000000000E+00 -0.00000000000E+00 -0.10000000000E+04  0.10000000000E+04  0.00000000000E+00 0.  1.
    9000005    2    1    2  501    0  0.22408955695E+02 -0.27697527196E+02 -0.34275051379E+03  0.34461133343E+03  0.31212356819E+01 0.  0.
         13    1    3    3    0    0  0.15805893931E+02 -0.17630993064E+02 -0.21878796015E+03  0.22006555775E+03  0.00000000000E+00 0.  1.
          3    1    3    3  501    0  0.66030617640E+01 -0.10066534132E+02 -0.12396255364E+03  0.12454577568E+03  0.00000000000E+00 0.  1.
         -1    1    1    2    0  502 -0.22408955695E+02  0.27697527196E+02 -0.65583557898E+03  0.65680257381E+03  0.00000000000E+00 0. -1.
<mgrwt>
<rscale>  1 0.30000000E+03</rscale>
<asrwt>0</asrwt>
<pdfrwt beam="1">  1       21 0.51414917E-02 0.30000000E+03</pdfrwt>
<pdfrwt beam="2">0</pdfrwt>
<totfact> 0.27465535E+04</totfact>
</mgrwt>
</event>
<event>
 6    1  0.6513574E-002  0.3000000E+03  0.7818608E-02  0.1093470E+00
         21   -1    0    0  501  502  0.00000000000E+00  0.00000000000E+00  0.28393959875E+01  0.28393959875E+01  0.00000000000E+00 0. -1.
         13   -1    0    0    0    0 -0.00000000000E+00 -0.00000000000E+00 -0.10000000000E+04  0.10000000000E+04  0.00000000000E+00 0.  1.
    9000005    2    1    2  501    0  0.67008654359E+01 -0.50806343897E+02 -0.63453241992E+03  0.63660806735E+03  0.35004724096E+01 0.  0.
         13    1    3    3    0    0 -0.29917793181E-01 -0.10544546875E+02 -0.13153129526E+03  0.13195328718E+03  0.00000000000E+00 0.  1.
          3    1    3    3  501    0  0.67307832290E+01 -0.40261797022E+02 -0.50300112466E+03  0.50465478017E+03  0.00000000000E+00 0.  1.
         -3    1    1    2    0  502 -0.67008654359E+01  0.50806343897E+02 -0.36262818409E+03  0.36623132864E+03  0.00000000000E+00 0. -1.
<mgrwt>
<rscale>  1 0.30000000E+03</rscale>
<asrwt>0</asrwt>
<pdfrwt beam="1">  1       21 0.10325098E-01 0.30000000E+03</pdfrwt>
<pdfrwt beam="2">0</pdfrwt>
<totfact> 0.81247236E+03</totfact>
</mgrwt>
</event>
<event>
 6    1  0.6513574E-002  0.3000000E+03  0.7818608E-02  0.1093470E+00
         21   -1    0    0  501  502  0.00000000000E+00  0.00000000000E+00  0.10200005295E+01  0.10200005295E+01  0.00000000000E+00 0. -1.
         13   -1    0    0    0    0 -0.00000000000E+00 -0.00000000000E+00 -0.10000000000E+04  0.10000000000E+04  0.00000000000E+00 0.  1.
    9000005    2    1    2  501    0  0.29659017093E+02 -0.11438018193E+02 -0.46782937841E+03  0.46891900653E+03  0.31971601056E+01 0.  0.
         13    1    3    3    0    0  0.25456895834E+02 -0.90420116297E+01 -0.38271114791E+03  0.38366343877E+03  0.00000000000E+00 0.  1.
          1    1    3    3  501    0  0.42021212597E+01 -0.23960065632E+01 -0.85118230500E+02  0.85255567759E+02  0.00000000000E+00 0.  1.
         -1    1    1    2    0  502 -0.29659017093E+02  0.11438018193E+02 -0.53115062106E+03  0.53210099400E+03  0.00000000000E+00 0. -1.
<mgrwt>
<rscale>  1 0.30000000E+03</rscale>
<asrwt>0</asrwt>
<pdfrwt beam="1">  1       21 0.37091007E-02 0.30000000E+03</pdfrwt>
<pdfrwt beam="2">0</pdfrwt>
<totfact> 0.47738183E+04</totfact>
</mgrwt>
</event>
<event>
 6    1  0.6513574E-002  0.3000000E+03  0.7818608E-02  0.1093470E+00
         21   -1    0    0  501  502  0.00000000000E+00  0.00000000000E+00  0.36163472647E+01  0.36163472647E+01  0.00000000000E+00 0. -1.
         13   -1    0    0    0    0 -0.00000000000E+00 -0.00000000000E+00 -0.10000000000E+04  0.10000000000E+04  0.00000000000E+00 0.  1.
    9000005    2    1    2  501    0  0.32181173866E+02 -0.16677435157E+02 -0.98617247241E+02  0.10511855449E+03  0.32839380201E+01 0.  0.
         13    1    3    3    0    0  0.19934521809E+02 -0.11857500204E+02 -0.65221062990E+02  0.69222630176E+02  0.00000000000E+00 0.  1.
          3    1    3    3  501    0  0.12246652057E+02 -0.48199349524E+01 -0.33396184251E+02  0.35895924310E+02  0.00000000000E+00 0.  1.
         -3    1    1    2    0  502 -0.32181173866E+02  0.16677435157E+02 -0.89776640549E+03  0.89849779278E+03  0.00000000000E+00 0. -1.
<mgrwt>
<rscale>  1 0.30000000E+03</rscale>
<asrwt>0</asrwt>
<pdfrwt beam="1">  1       21 0.13150381E-01 0.30000000E+03</pdfrwt>
<pdfrwt beam="2">0</pdfrwt>
<totfact> 0.52451472E+03</totfact>
</mgrwt>
</event>
<event>
 6    1  0.6513574E-002  0.3000000E+03  0.7818608E-02  0.1093470E+00
         21   -1    0    0  501  502  0.00000000000E+00  0.00000000000E+00  0.11623882119E+01  0.11623882119E+01  0.00000000000E+00 0. -1.
         13   -1    0    0    0    0 -0.00000000000E+00 -0.00000000000E+00 -0.10000000000E+04  0.10000000000E+04  0.00000000000E+00 0.  1.
    9000005    2    1    2  501    0  0.20724086391E+02 -0.26504605963E+02 -0.56856125924E+03  0.56957262761E+03  0.43692928860E+01 0.  0.
         13    1    3    3    0    0  0.57557827340E+01 -0.60065679722E+01 -0.11385238061E+03  0.11415591296E+03  0.00000000000E+00 0.  1.
          1    1    3    3  501    0  0.14968303657E+02 -0.20498037991E+02 -0.45470887864E+03  0.45541671465E+03  0.00000000000E+00 0.  1.
         -3    1    1    2    0  502 -0.20724086391E+02  0.26504605963E+02 -0.43027635255E+03  0.43158976060E+03  0.00000000000E+00 0. -1.
<mgrwt>
<rscale>  1 0.30000000E+03</rscale>
<asrwt>0</asrwt>
<pdfrwt beam="1">  1       21 0.42268751E-02 0.30000000E+03</pdfrwt>
<pdfrwt beam="2">0</pdfrwt>
<totfact> 0.38311496E+04</totfact>
</mgrwt>
</event>
<event>
 6    1  0.6513574E-002  0.3000000E+03  0.7818608E-02  0.1093470E+00
         21   -1    0    0  501  502  0.00000000000E+00  0.00000000000E+00  0.11160019471E+01  0.11160019471E+01  0.00000000000E+00 0. -1.
         13   -1    0    0    0    0 -0.00000000000E+00 -0.00000000000E+00 -0.10000000000E+04  0.10000000000E+04  0.00000000000E+00 0.  1.
    9000005    2    1    2  501    0 -0.28475861273E+02 -0.17062490430E+02 -0.54785900139E+03  0.54887098996E+03  0.28062354957E+01 0.  0.
         13    1    3    3    0    0 -0.12342132519E+02 -0.59323620190E+01 -0.23488147080E+03  0.23528031469E+03  0.00000000000E+00 0.  1.
          1    1    3    3  501    0 -0.16133728754E+02 -0.11130128411E+02 -0.31297753059E+03  0.31359067527E+03  0.00000000000E+00 0.  1.
         -3    1    1    2    0  502  0.28475861273E+02  0.17062490430E+02 -0.45102499666E+03  0.45224501199E+03  0.00000000000E+00 0. -1.
<mgrwt>
<rscale>  1 0.30000000E+03</rscale>
<asrwt>0</asrwt>
<pdfrwt beam="1">  1       21 0.40581975E-02 0.30000000E+03</pdfrwt>
<pdfrwt beam="2">0</pdfrwt>
<totfact> 0.41036488E+04</totfact>
</mgrwt>
</event>
<event>
 6    1  0.6513574E-002  0.3000000E+03  0.7818608E-02  0.1093470E+00
         21   -1    0    0  501  502  0.00000000000E+00  0.00000000000E+00  0.10730736156E+01  0.10730736156E+01  0.00000000000E+00 0. -1.
         13   -1    0    0    0    0 -0.00000000000E+00 -0.00000000000E+00 -0.10000000000E+04  0.10000000000E+04  0.00000000000E+00 0.  1.
    9000005    2    1    2  501    0 -0.79166187761E+00  0.32222102972E+02 -0.42003790692E+03  0.42128743435E+03  0.35168790858E+01 0.  0.
         13    1    3    3    0    0 -0.20298091089E+01  0.12707583167E+02 -0.16806411247E+03  0.16855606989E+03  0.00000000000E+00 0.  1.
          3    1    3    3  501    0  0.12381472313E+01  0.19514519804E+02 -0.25197379445E+03  0.25273136446E+03  0.00000000000E+00 0.  1.
         -3    1    1    2    0  502  0.79166187761E+00 -0.32222102972E+02 -0.57888901946E+03  0.57978563927E+03  0.00000000000E+00 0. -1.
<mgrwt>
<rscale>  1 0.30000000E+03</rscale>
<asrwt>0</asrwt>
<pdfrwt beam="1">  1       21 0.39020941E-02 0.30000000E+03</pdfrwt>
<pdfrwt beam="2">0</pdfrwt>
<totfact> 0.43838068E+04</totfact>
</mgrwt>
</event>
<event>
 6    1  0.6513574E-002  0.3000000E+03  0.7818608E-02  0.1093470E+00
         21   -1    0    0  501  502  0.00000000000E+00  0.00000000000E+00  0.17519344147E+01  0.17519344147E+01  0.00000000000E+00 0. -1.
         13   -1    0    0    0    0 -0.00000000000E+00 -0.00000000000E+00 -0.10000000000E+04  0.10000000000E+04  0.00000000000E+00 0.  1.
    9000005    2    1    2  501    0 -0.35573388324E+02  0.21679221921E+02 -0.46051100861E+03  0.46240362667E+03  0.33571250893E+01 0.  0.
         13    1    3    3    0    0 -0.53130280767E+01  0.34812894486E+01 -0.58021727485E+02  0.58368386168E+02  0.00000000000E+00 0.  1.
          3    1    3    3  501    0 -0.30260360247E+02  0.18197932472E+02 -0.40248928113E+03  0.40403524051E+03  0.00000000000E+00 0.  1.
         -3    1    1    2    0  502  0.35573388324E+02 -0.21679221921E+02 -0.53773705697E+03  0.53934830774E+03  0.00000000000E+00 0. -1.
<mgrwt>
<rscale>  1 0.30000000E+03</rscale>
<asrwt>0</asrwt>
<pdfrwt beam="1">  1       21 0.63706840E-02 0.30000000E+03</pdfrwt>
<pdfrwt beam="2">0</pdfrwt>
<totfact> 0.18999355E+04</totfact>
</mgrwt>
</event>
<event>
 6    1  0.6513574E-002  0.3000000E+03  0.7818608E-02  0.1093470E+00
         21   -1    0    0  501  502  0.00000000000E+00  0.00000000000E+00  0.23351309243E+01  0.23351309243E+01  0.00000000000E+00 0. -1.
         13   -1    0    0    0    0 -0.00000000000E+00 -0.00000000000E+00 -0.10000000000E+04  0.10000000000E+04  0.00000000000E+00 0.  1.
    9000005    2    1    2  501    0 -0.24406383217E+02 -0.41262574618E+02 -0.44102413476E+03  0.44363379864E+03  0.32230795808E+01 0.  0.
         13    1    3    3    0    0 -0.10716826815E+02 -0.20067999134E+02 -0.19744498078E+03  0.19875134062E+03  0.00000000000E+00 0.  1.
          3    1    3    3  501    0 -0.13689556402E+02 -0.21194575483E+02 -0.24357915399E+03  0.24488245801E+03  0.00000000000E+00 0.  1.
         -3    1    1    2    0  502  0.24406383217E+02  0.41262574618E+02 -0.55664073431E+03  0.55870133229E+03  0.00000000000E+00 0. -1.
<mgrwt>
<rscale>  1 0.30000000E+03</rscale>
<asrwt>0</asrwt>
<pdfrwt beam="1">  1       21 0.84914031E-02 0.30000000E+03</pdfrwt>
<pdfrwt beam="2">0</pdfrwt>
<totfact> 0.11501766E+04</totfact>
</mgrwt>
</event>
<event>
 6    1  0.6513574E-002  0.3000000E+03  0.7818608E-02  0.1093470E+00
         21   -1    0    0  501  502  0.00000000000E+00  0.00000000000E+00  0.97928256590E+00  0.97928256590E+00  0.00000000000E+00 0. -1.
         13   -1    0    0    0    0 -0.00000000000E+00 -0.00000000000E+00 -0.10000000000E+04  0.10000000000E+04  0.00000000000E+00 0.  1.
    9000005    2    1    2  501    0  0.21562332191E+02 -0.22507210001E+02 -0.48478860260E+03  0.48580341299E+03  0.36685399840E+01 0.  0.
         13    1    3    3    0    0  0.99318429401E+01 -0.89454675100E+01 -0.23142932049E+03  0.23181499795E+03  0.00000000000E+00 0.  1.
          1    1    3    3  501    0  0.11630489250E+02 -0.13561742491E+02 -0.25335928211E+03  0.25398841504E+03  0.00000000000E+00 0.  1.
         -3    1    1    2    0  502 -0.21562332191E+02  0.22507210001E+02 -0.51423211483E+03  0.51517586958E+03  0.00000000000E+00 0. -1.
<mgrwt>
<rscale>  1 0.30000000E+03</rscale>
<asrwt>0</asrwt>
<pdfrwt beam="1">  1       21 0.35610350E-02 0.30000000E+03</pdfrwt>
<pdfrwt beam="2">0</pdfrwt>
<totfact> 0.51114523E+04</totfact>
</mgrwt>
</event>
<event>
 6    1  0.6513574E-002  0.3000000E+03  0.7818608E-02  0.1093470E+00
         21   -1    0    0  501  502  0.00000000000E+00  0.00000000000E+00  0.27631748129E+01  0.27631748129E+01  0.00000000000E+00 0. -1.
         13   -1    0    0    0    0 -0.00000000000E+00 -0.00000000000E+00 -0.10000000000E+04  0.10000000000E+04  0.00000000000E+00 0.  1.
    9000005    2    1    2  501    0  0.60657276419E+01  0.38778413944E+02 -0.16623707299E+03  0.17083700827E+03  0.31560285052E+01 0.  0.
         13    1    3    3    0    0  0.46568515706E+00  0.10849109086E+02 -0.42848167290E+02  0.44202776731E+02  0.00000000000E+00 0.  1.
          3    1    3    3  501    0  0.56000424848E+01  0.27929304858E+02 -0.12338890570E+03  0.12663423153E+03  0.00000000000E+00 0.  1.
         -3    1    1    2    0  502 -0.60657276419E+01 -0.38778413944E+02 -0.83099975219E+03  0.83192616655E+03  0.00000000000E+00 0. -1.
<mgrwt>
<rscale>  1 0.30000000E+03</rscale>
<asrwt>0</asrwt>
<pdfrwt beam="1">  1       21 0.10047930E-01 0.30000000E+03</pdfrwt>
<pdfrwt beam="2">0</pdfrwt>
<totfact> 0.85299966E+03</totfact>
</mgrwt>
</event>
<event>
 6    1  0.6513574E-002  0.3000000E+03  0.7818608E-02  0.1093470E+00
         21   -1    0    0  501  502  0.00000000000E+00  0.00000000000E+00  0.13151715290E+01  0.13151715290E+01  0.00000000000E+00 0. -1.
         13   -1    0    0    0    0 -0.00000000000E+00 -0.00000000000E+00 -0.10000000000E+04  0.10000000000E+04  0.00000000000E+00 0.  1.
    9000005    2    1    2  501    0  0.18782536574E+02  0.25989446068E+02 -0.73214585690E+03  0.73285426496E+03  0.30956282851E+01 0.  0.
         13    1    3    3    0    0  0.14971228882E+02  0.18752526825E+02 -0.56153353058E+03  0.56204599538E+03  0.00000000000E+00 0.  1.
          1    1    3    3  501    0  0.38113076924E+01  0.72369192422E+01 -0.17061232632E+03  0.17080826958E+03  0.00000000000E+00 0.  1.
         -3    1    1    2    0  502 -0.18782536574E+02 -0.25989446068E+02 -0.26653897157E+03  0.26846090657E+03  0.00000000000E+00 0. -1.
<mgrwt>
<rscale>  1 0.30000000E+03</rscale>
<asrwt>0</asrwt>
<pdfrwt beam="1">  1       21 0.47824520E-02 0.30000000E+03</pdfrwt>
<pdfrwt beam="2">0</pdfrwt>
<totfact> 0.31071569E+04</totfact>
</mgrwt>
</event>
<event>
 6    1  0.6513574E-002  0.3000000E+03  0.7818608E-02  0.1093470E+00
         21   -1    0    0  501  502  0.00000000000E+00  0.00000000000E+00  0.99853409980E+00  0.99853409980E+00  0.00000000000E+00 0. -1.
         13   -1    0    0    0    0 -0.00000000000E+00 -0.00000000000E+00 -0.10000000000E+04  0.10000000000E+04  0.00000000000E+00 0.  1.
    9000005    2    1    2  501    0 -0.10975306845E+02  0.27999675927E+02 -0.64646375575E+03  0.64718039396E+03  0.47576904648E+01 0.  0.
         13    1    3    3    0    0 -0.60936549982E+01  0.99572316501E+01 -0.22572551297E+03  0.22602718044E+03  0.00000000000E+00 0.  1.
          3    1    3    3  501    0 -0.48816518467E+01  0.18042444277E+02 -0.42073824278E+03  0.42115321352E+03  0.00000000000E+00 0.  1.
         -1    1    1    2    0  502  0.10975306845E+02 -0.27999675927E+02 -0.35253771015E+03  0.35381814014E+03  0.00000000000E+00 0. -1.
<mgrwt>
<rscale>  1 0.30000000E+03</rscale>
<asrwt>0</asrwt>
<pdfrwt beam="1">  1       21 0.36310407E-02 0.30000000E+03</pdfrwt>
<pdfrwt beam="2">0</pdfrwt>
<totfact> 0.49472782E+04</totfact>
</mgrwt>
</event>
<event>
 6    1  0.6513574E-002  0.3000000E+03  0.7818608E-02  0.1093470E+00
         21   -1    0    0  501  502  0.00000000000E+00  0.00000000000E+00  0.10580501540E+01  0.10580501540E+01  0.00000000000E+00 0. -1.
         13   -1    0    0    0    0 -0.00000000000E+00 -0.00000000000E+00 -0.10000000000E+04  0.10000000000E+04  0.00000000000E+00 0.  1.
    9000005    2    1    2  501    0  0.26780729785E+02 -0.16696921955E+02 -0.61740539485E+03  0.61821847867E+03  0.29446726552E+01 0.  0.
         13    1    3    3    0    0  0.11547411536E+02 -0.78249563514E+01 -0.24642285937E+03  0.24681733787E+03  0.00000000000E+00 0.  1.
          3    1    3    3  501    0  0.15233318249E+02 -0.88719656033E+01 -0.37098253548E+03  0.37140114080E+03  0.00000000000E+00 0.  1.
         -1    1    1    2    0  502 -0.26780729785E+02  0.16696921955E+02 -0.38153655500E+03  0.38283957148E+03  0.00000000000E+00 0. -1.
<mgrwt>
<rscale>  1 0.30000000E+03</rscale>
<asrwt>0</asrwt>
<pdfrwt beam="1">  1       21 0.38474632E-02 0.30000000E+03</pdfrwt>
<pdfrwt beam="2">0</pdfrwt>
<totfact> 0.44889808E+04</totfact>
</mgrwt>
</event>
<event>
 6    1  0.6513574E-002  0.3000000E+03  0.7818608E-02  0.1093470E+00
         21   -1    0    0  501  502  0.00000000000E+00  0.00000000000E+00  0.21525367142E+01  0.21525367142E+01  0.00000000000E+00 0. -1.
         13   -1    0    0    0    0 -0.00000000000E+00 -0.00000000000E+00 -0.10000000000E+04  0.10000000000E+04  0.00000000000E+00 0.  1.
    9000005    2    1    2  501    0  0.29631684223E+02  0.24345530305E+02 -0.21868128879E+03  0.22204314116E+03  0.33028643632E+01 0.  0.
         13    1    3    3    0    0  0.20129179832E+02  0.18306987991E+02 -0.15821461065E+03  0.16053720041E+03  0.00000000000E+00 0.  1.
          3    1    3    3  501    0  0.95025043909E+01  0.60385423141E+01 -0.60466678135E+02  0.61505940751E+02  0.00000000000E+00 0.  1.
         -1    1    1    2    0  502 -0.29631684223E+02 -0.24345530305E+02 -0.77916617450E+03  0.78010939556E+03  0.00000000000E+00 0. -1.
<mgrwt>
<rscale>  1 0.30000000E+03</rscale>
<asrwt>0</asrwt>
<pdfrwt beam="1">  1       21 0.78274227E-02 0.30000000E+03</pdfrwt>
<pdfrwt beam="2">0</pdfrwt>
<totfact> 0.13272362E+04</totfact>
</mgrwt>
</event>
<event>
 6    1  0.6513574E-002  0.3000000E+03  0.7818608E-02  0.1093470E+00
         21   -1    0    0  501  502  0.00000000000E+00  0.00000000000E+00  0.12705805726E+01  0.12705805726E+01  0.00000000000E+00 0. -1.
         13   -1    0    0    0    0 -0.00000000000E+00 -0.00000000000E+00 -0.10000000000E+04  0.10000000000E+04  0.00000000000E+00 0.  1.
    9000005    2    1    2  501    0  0.33479074350E+02 -0.10279470988E+02 -0.58812458008E+03  0.58917489988E+03  0.31662313640E+01 0.  0.
         13    1    3    3    0    0  0.14910873509E+02 -0.59354384679E+01 -0.25380691715E+03  0.25431381160E+03  0.00000000000E+00 0.  1.
          1    1    3    3  501    0  0.18568200840E+02 -0.43440325206E+01 -0.33431766293E+03  0.33486108828E+03  0.00000000000E+00 0.  1.
         -1    1    1    2    0  502 -0.33479074350E+02  0.10279470988E+02 -0.41060483935E+03  0.41209568069E+03  0.00000000000E+00 0. -1.
<mgrwt>
<rscale>  1 0.30000000E+03</rscale>
<asrwt>0</asrwt>
<pdfrwt beam="1">  1       21 0.46203027E-02 0.30000000E+03</pdfrwt>
<pdfrwt beam="2">0</pdfrwt>
<totfact> 0.32948318E+04</totfact>
</mgrwt>
</event>
<event>
 6    1  0.6513574E-002  0.3000000E+03  0.7818608E-02  0.1093470E+00
         21   -1    0    0  501  502  0.00000000000E+00  0.00000000000E+00  0.11349085074E+01  0.11349085074E+01  0.00000000000E+00 0. -1.
         13   -1    0    0    0    0 -0.00000000000E+00 -0.00000000000E+00 -0.10000000000E+04  0.10000000000E+04  0.00000000000E+00 0.  1.
    9000005    2    1    2  501    0 -0.12892629011E+02 -0.31023314310E+02 -0.48853024175E+03  0.48969544505E+03  0.33415401900E+01 0.  0.
         13    1    3    3    0    0 -0.28080365314E+01 -0.52608202271E+01 -0.10443614294E+03  0.10460625818E+03  0.00000000000E+00 0.  1.
          3    1    3    3  501    0 -0.10084592480E+02 -0.25762494083E+02 -0.38409409881E+03  0.38508918687E+03  0.00000000000E+00 0.  1.
         -3    1    1    2    0  502  0.12892629011E+02  0.31023314310E+02 -0.51033484974E+03  0.51143946345E+03  0.00000000000E+00 0. -1.
<mgrwt>
<rscale>  1 0.30000000E+03</rscale>
<asrwt>0</asrwt>
<pdfrwt beam="1">  1       21 0.41269487E-02 0.30000000E+03</pdfrwt>
<pdfrwt beam="2">0</pdfrwt>
<totfact> 0.39890433E+04</totfact>
</mgrwt>
</event>
<event>
 6    1  0.6513574E-002  0.3000000E+03  0.7818608E-02  0.1093470E+00
         21   -1    0    0  501  502  0.00000000000E+00  0.00000000000E+00  0.14778603233E+01  0.14778603233E+01  0.00000000000E+00 0. -1.
         13   -1    0    0    0    0 -0.00000000000E+00 -0.00000000000E+00 -0.10000000000E+04  0.10000000000E+04  0.00000000000E+00 0.  1.
    9000005    2    1    2  501    0 -0.14551137889E+02  0.33919230985E+02 -0.63688118905E+03  0.63795836014E+03  0.33121685327E+01 0.  0.
         13    1    3    3    0    0 -0.29448090093E+01  0.57707900598E+01 -0.92769764712E+02  0.92995715830E+02  0.00000000000E+00 0.  1.
          1    1    3    3  501    0 -0.11606328880E+02  0.28148440925E+02 -0.54411142434E+03  0.54496264431E+03  0.00000000000E+00 0.  1.
         -3    1    1    2    0  502  0.14551137889E+02 -0.33919230985E+02 -0.36164095063E+03  0.36351950018E+03  0.00000000000E+00 0. -1.
<mgrwt>
<rscale>  1 0.30000000E+03</rscale>
<asrwt>0</asrwt>
<pdfrwt beam="1">  1       21 0.53740489E-02 0.30000000E+03</pdfrwt>
<pdfrwt beam="2">0</pdfrwt>
<totfact> 0.25465064E+04</totfact>
</mgrwt>
</event>
<event>
 6    1  0.6513574E-002  0.3000000E+03  0.7818608E-02  0.1093470E+00
         21   -1    0    0  501  502  0.00000000000E+00  0.00000000000E+00  0.11908475208E+01  0.11908475208E+01  0.00000000000E+00 0. -1.
         13   -1    0    0    0    0 -0.00000000000E+00 -0.00000000000E+00 -0.10000000000E+04  0.10000000000E+04  0.00000000000E+00 0.  1.
    9000005    2    1    2  501    0 -0.32314444863E+02 -0.85784828913E+01 -0.38216813059E+03  0.38364411764E+03  0.35376887984E+01 0.  0.
         13    1    3    3    0    0 -0.14808465262E+02 -0.32930265635E+01 -0.19228324674E+03  0.19288074462E+03  0.00000000000E+00 0.  1.
          3    1    3    3  501    0 -0.17505979601E+02 -0.52854563278E+01 -0.18988488385E+03  0.19076337302E+03  0.00000000000E+00 0.  1.
         -1    1    1    2    0  502  0.32314444863E+02  0.85784828913E+01 -0.61664102188E+03  0.61754672988E+03  0.00000000000E+00 0. -1.
<mgrwt>
<rscale>  1 0.30000000E+03</rscale>
<asrwt>0</asrwt>
<pdfrwt beam="1">  1       21 0.43303638E-02 0.30000000E+03</pdfrwt>
<pdfrwt beam="2">0</pdfrwt>
<totfact> 0.36776375E+04</totfact>
</mgrwt>
</event>
<event>
 6    1  0.6513574E-002  0.3000000E+03  0.7818608E-02  0.1093470E+00
         21   -1    0    0  501  502  0.00000000000E+00  0.00000000000E+00  0.27579070576E+01  0.27579070576E+01  0.00000000000E+00 0. -1.
         13   -1    0    0    0    0 -0.00000000000E+00 -0.00000000000E+00 -0.10000000000E+04  0.10000000000E+04  0.00000000000E+00 0.  1.
    9000005    2    1    2  501    0 -0.33224380539E+02  0.55879547096E+01 -0.11537583683E+03  0.12024831596E+03  0.36040349930E+01 0.  0.
         13    1    3    3    0    0 -0.31131472718E+02  0.60706691552E+01 -0.10895068271E+03  0.11347366602E+03  0.00000000000E+00 0.  1.
          1    1    3    3  501    0 -0.20929078215E+01 -0.48271444565E+00 -0.64251541208E+01  0.67746499438E+01  0.00000000000E+00 0.  1.
         -1    1    1    2    0  502  0.33224380539E+02 -0.55879547096E+01 -0.88186625612E+03  0.88250959110E+03  0.00000000000E+00 0. -1.
<mgrwt>
<rscale>  1 0.30000000E+03</rscale>
<asrwt>0</asrwt>
<pdfrwt beam="1">  1       21 0.10028774E-01 0.30000000E+03</pdfrwt>
<pdfrwt beam="2">0</pdfrwt>
<totfact> 0.85591376E+03</totfact>
</mgrwt>
</event>
<event>
 6    1  0.6513574E-002  0.3000000E+03  0.7818608E-02  0.1093470E+00
         21   -1    0    0  501  502  0.00000000000E+00  0.00000000000E+00  0.11838633472E+01  0.11838633472E+01  0.00000000000E+00 0. -1.
         13   -1    0    0    0    0 -0.00000000000E+00 -0.00000000000E+00 -0.10000000000E+04  0.10000000000E+04  0.00000000000E+00 0.  1.
    9000005    2    1    2  501    0  0.21951049112E+02  0.24613826458E+02 -0.38068493231E+03  0.38217346377E+03  0.69173482924E+01 0.  0.
         13    1    3    3    0    0  0.15149872909E+01  0.54909711605E+01 -0.60373568268E+02  0.60641682827E+02  0.00000000000E+00 0.  1.
          1    1    3    3  501    0  0.20436061821E+02  0.19122855297E+02 -0.32031136404E+03  0.32153178094E+03  0.00000000000E+00 0.  1.
         -1    1    1    2    0  502 -0.21951049112E+02 -0.24613826458E+02 -0.61813120434E+03  0.61901039958E+03  0.00000000000E+00 0. -1.
<mgrwt>
<rscale>  1 0.30000000E+03</rscale>
<asrwt>0</asrwt>
<pdfrwt beam="1">  1       21 0.43049667E-02 0.30000000E+03</pdfrwt>
<pdfrwt beam="2">0</pdfrwt>
<totfact> 0.37144154E+04</totfact>
</mgrwt>
</event>
<event>
 6    1  0.6513574E-002  0.3000000E+03  0.7818608E-02  0.1093470E+00
         21   -1    0    0  501  502  0.00000000000E+00  0.00000000000E+00  0.15861129017E+01  0.15861129017E+01  0.00000000000E+00 0. -1.
         13   -1    0    0    0    0 -0.00000000000E+00 -0.00000000000E+00 -0.10000000000E+04  0.10000000000E+04  0.00000000000E+00 0.  1.
    9000005    2    1    2  501    0 -0.70023835420E+01 -0.37456333127E+02 -0.64199948066E+03  0.64314052514E+03  0.37936324878E+01 0.  0.
         13    1    3    3    0    0 -0.49335078170E+01 -0.18634816000E+02 -0.34488236405E+03  0.34542067237E+03  0.00000000000E+00 0.  1.
          1    1    3    3  501    0 -0.20688757250E+01 -0.18821517127E+02 -0.29711711661E+03  0.29771985277E+03  0.00000000000E+00 0.  1.
         -1    1    1    2    0  502  0.70023835420E+01  0.37456333127E+02 -0.35641440644E+03  0.35844558776E+03  0.00000000000E+00 0. -1.
<mgrwt>
<rscale>  1 0.30000000E+03</rscale>
<asrwt>0</asrwt>
<pdfrwt beam="1">  1       21 0.57676954E-02 0.30000000E+03</pdfrwt>
<pdfrwt beam="2">0</pdfrwt>
<totfact> 0.22555434E+04</totfact>
</mgrwt>
</event>
<event>
 6    1  0.6513574E-002  0.3000000E+03  0.7818608E-02  0.1093470E+00
         21   -1    0    0  501  502  0.00000000000E+00  0.00000000000E+00  0.11887892038E+01  0.11887892038E+01  0.00000000000E+00 0. -1.
         13   -1    0    0    0    0 -0.00000000000E+00 -0.00000000000E+00 -0.10000000000E+04  0.10000000000E+04  0.00000000000E+00 0.  1.
    9000005    2    1    2  501    0 -0.22552941874E+02 -0.20935206233E+02 -0.27765448341E+03  0.27937583316E+03  0.34533973488E+01 0.  0.
         13    1    3    3    0    0 -0.20740105660E+02 -0.17795605557E+02 -0.24750745158E+03  0.24901159441E+03  0.00000000000E+00 0.  1.
          3    1    3    3  501    0 -0.18128362145E+01 -0.31396006767E+01 -0.30147031823E+02  0.30364238757E+02  0.00000000000E+00 0.  1.
         -1    1    1    2    0  502  0.22552941874E+02  0.20935206233E+02 -0.72115672739E+03  0.72181295604E+03  0.00000000000E+00 0. -1.
<mgrwt>
<rscale>  1 0.30000000E+03</rscale>
<asrwt>0</asrwt>
<pdfrwt beam="1">  1       21 0.43228789E-02 0.30000000E+03</pdfrwt>
<pdfrwt beam="2">0</pdfrwt>
<totfact> 0.36884175E+04</totfact>
</mgrwt>
</event>
<event>
 6    1  0.6513574E-002  0.3000000E+03  0.7818608E-02  0.1093470E+00
         21   -1    0    0  501  502  0.00000000000E+00  0.00000000000E+00  0.32903338319E+01  0.32903338319E+01  0.00000000000E+00 0. -1.
         13   -1    0    0    0    0 -0.00000000000E+00 -0.00000000000E+00 -0.10000000000E+04  0.10000000000E+04  0.00000000000E+00 0.  1.
    9000005    2    1    2  501    0  0.55787417931E+02 -0.11397621030E+02 -0.55586151603E+03  0.55878022906E+03  0.33432947880E+01 0.  0.
         13    1    3    3    0    0  0.10088362733E+02 -0.33544255333E+01 -0.10652283712E+03  0.10705205305E+03  0.00000000000E+00 0.  1.
          3    1    3    3  501    0  0.45699055198E+02 -0.80431954962E+01 -0.44933867891E+03  0.45172817602E+03  0.00000000000E+00 0.  1.
         -3    1    1    2    0  502 -0.55787417931E+02  0.11397621030E+02 -0.44084815013E+03  0.44451010477E+03  0.00000000000E+00 0. -1.
<mgrwt>
<rscale>  1 0.30000000E+03</rscale>
<asrwt>0</asrwt>
<pdfrwt beam="1">  1       21 0.11964876E-01 0.30000000E+03</pdfrwt>
<pdfrwt beam="2">0</pdfrwt>
<totfact> 0.62301716E+03</totfact>
</mgrwt>
</event>
<event>
 6    1  0.6513574E-002  0.3000000E+03  0.7818608E-02  0.1093470E+00
         21   -1    0    0  501  502  0.00000000000E+00  0.00000000000E+00  0.50294089326E+01  0.50294089326E+01  0.00000000000E+00 0. -1.
         13   -1    0    0    0    0 -0.00000000000E+00 -0.00000000000E+00 -0.10000000000E+04  0.10000000000E+04  0.00000000000E+00 0.  1.
    9000005    2    1    2  501    0 -0.59133648645E+02  0.37279052291E+02 -0.41785076721E+03  0.42369146313E+03  0.53550097018E+01 0.  0.
         13    1    3    3    0    0 -0.34388935449E+02  0.20171032455E+02 -0.22397540585E+03  0.22749604800E+03  0.00000000000E+00 0.  1.
          3    1    3    3  501    0 -0.24744713196E+02  0.17108019836E+02 -0.19387536136E+03  0.19619541513E+03  0.00000000000E+00 0.  1.
         -1    1    1    2    0  502  0.59133648645E+02 -0.37279052291E+02 -0.57711982386E+03  0.58133794581E+03  0.00000000000E+00 0. -1.
<mgrwt>
<rscale>  1 0.30000000E+03</rscale>
<asrwt>0</asrwt>
<pdfrwt beam="1">  1       21 0.18288798E-01 0.30000000E+03</pdfrwt>
<pdfrwt beam="2">0</pdfrwt>
<totfact> 0.28429586E+03</totfact>
</mgrwt>
</event>
<event>
 6    1  0.6513574E-002  0.3000000E+03  0.7818608E-02  0.1093470E+00
         21   -1    0    0  501  502  0.00000000000E+00  0.00000000000E+00  0.14051205922E+01  0.14051205922E+01  0.00000000000E+00 0. -1.
         13   -1    0    0    0    0 -0.00000000000E+00 -0.00000000000E+00 -0.10000000000E+04  0.10000000000E+04  0.00000000000E+00 0.  1.
    9000005    2    1    2  501    0  0.15914124080E+02 -0.32902277050E+02 -0.60719088562E+03  0.60829838504E+03  0.32147296580E+01 0.  0.
         13    1    3    3    0    0  0.11532431612E+02 -0.25826714481E+02 -0.48555437040E+03  0.48637748999E+03  0.00000000000E+00 0.  1.
          1    1    3    3  501    0  0.43816924688E+01 -0.70755625695E+01 -0.12163651522E+03  0.12192089505E+03  0.00000000000E+00 0.  1.
         -3    1    1    2    0  502 -0.15914124080E+02  0.32902277050E+02 -0.39140399379E+03  0.39310673555E+03  0.00000000000E+00 0. -1.
<mgrwt>
<rscale>  1 0.30000000E+03</rscale>
<asrwt>0</asrwt>
<pdfrwt beam="1">  1       21 0.51095402E-02 0.30000000E+03</pdfrwt>
<pdfrwt beam="2">0</pdfrwt>
<totfact> 0.27759348E+04</totfact>
</mgrwt>
</event>
<event>
 6    1  0.6513574E-002  0.3000000E+03  0.7818608E-02  0.1093470E+00
         21   -1    0    0  501  502  0.00000000000E+00  0.00000000000E+00  0.98656276273E+00  0.98656276273E+00  0.00000000000E+00 0. -1.
         13   -1    0    0    0    0 -0.00000000000E+00 -0.00000000000E+00 -0.10000000000E+04  0.10000000000E+04  0.00000000000E+00 0.  1.
    9000005    2    1    2  501    0 -0.29105354896E+02  0.92257529723E+01 -0.61095092019E+03  0.61172475711E+03  0.37303325639E+01 0.  0.
         13    1    3    3    0    0 -0.45260765162E+01  0.17677943122E+00 -0.10139538182E+03  0.10149650277E+03  0.00000000000E+00 0.  1.
          3    1    3    3  501    0 -0.24579278380E+02  0.90489735411E+01 -0.50955553837E+03  0.51022825434E+03  0.00000000000E+00 0.  1.
         -1    1    1    2    0  502  0.29105354896E+02 -0.92257529723E+01 -0.38806251705E+03  0.38926180565E+03  0.00000000000E+00 0. -1.
<mgrwt>
<rscale>  1 0.30000000E+03</rscale>
<asrwt>0</asrwt>
<pdfrwt beam="1">  1       21 0.35875085E-02 0.30000000E+03</pdfrwt>
<pdfrwt beam="2">0</pdfrwt>
<totfact> 0.50483705E+04</totfact>
</mgrwt>
</event>
<event>
 6    1  0.6513574E-002  0.3000000E+03  0.7818608E-02  0.1093470E+00
         21   -1    0    0  501  502  0.00000000000E+00  0.00000000000E+00  0.14207364180E+01  0.14207364180E+01  0.00000000000E+00 0. -1.
         13   -1    0    0    0    0 -0.00000000000E+00 -0.00000000000E+00 -0.10000000000E+04  0.10000000000E+04  0.00000000000E+00 0.  1.
    9000005    2    1    2  501    0  0.83972447183E+01 -0.29771787065E+02 -0.21826987018E+03  0.22049844678E+03  0.45777483092E+01 0.  0.
         13    1    3    3    0    0  0.20272591228E+01 -0.80541758943E+01 -0.45414640161E+02  0.46167835880E+02  0.00000000000E+00 0.  1.
          1    1    3    3  501    0  0.63699855955E+01 -0.21717611170E+02 -0.17285523002E+03  0.17433061090E+03  0.00000000000E+00 0.  1.
         -3    1    1    2    0  502 -0.83972447183E+01  0.29771787065E+02 -0.78030939340E+03  0.78092228964E+03  0.00000000000E+00 0. -1.
<mgrwt>
<rscale>  1 0.30000000E+03</rscale>
<asrwt>0</asrwt>
<pdfrwt beam="1">  1       21 0.51663251E-02 0.30000000E+03</pdfrwt>
<pdfrwt beam="2">0</pdfrwt>
<totfact> 0.27240498E+04</totfact>
</mgrwt>
</event>
<event>
 6    1  0.6513574E-002  0.3000000E+03  0.7818608E-02  0.1093470E+00
         21   -1    0    0  501  502  0.00000000000E+00  0.00000000000E+00  0.21212577779E+01  0.21212577779E+01  0.00000000000E+00 0. -1.
         13   -1    0    0    0    0 -0.00000000000E+00 -0.00000000000E+00 -0.10000000000E+04  0.10000000000E+04  0.00000000000E+00 0.  1.
    9000005    2    1    2  501    0  0.10180447090E+02 -0.35377731354E+02 -0.79955387120E+03  0.80040864081E+03  0.35176627718E+01 0.  0.
         13    1    3    3    0    0  0.60243454771E+01 -0.18027240010E+02 -0.37850048990E+03  0.37897743333E+03  0.00000000000E+00 0.  1.
          3    1    3    3  501    0  0.41561016128E+01 -0.17350491344E+02 -0.42105338130E+03  0.42143120748E+03  0.00000000000E+00 0.  1.
         -3    1    1    2    0  502 -0.10180447090E+02  0.35377731354E+02 -0.19832487102E+03  0.20171261697E+03  0.00000000000E+00 0. -1.
<mgrwt>
<rscale>  1 0.30000000E+03</rscale>
<asrwt>0</asrwt>
<pdfrwt beam="1">  1       21 0.77136809E-02 0.30000000E+03</pdfrwt>
<pdfrwt beam="2">0</pdfrwt>
<totfact> 0.13617486E+04</totfact>
</mgrwt>
</event>
<event>
 6    1  0.6513574E-002  0.3000000E+03  0.7818608E-02  0.1093470E+00
         21   -1    0    0  501  502  0.00000000000E+00  0.00000000000E+00  0.15668863034E+01  0.15668863034E+01  0.00000000000E+00 0. -1.
         13   -1    0    0    0    0 -0.00000000000E+00 -0.00000000000E+00 -0.10000000000E+04  0.10000000000E+04  0.00000000000E+00 0.  1.
    9000005    2    1    2  501    0  0.27706504700E+02 -0.24791492865E+02 -0.33117292727E+03  0.33327172329E+03  0.35021800190E+01 0.  0.
         13    1    3    3    0    0  0.11422729049E+02 -0.12298013386E+02 -0.14188257153E+03  0.14287191458E+03  0.00000000000E+00 0.  1.
          1    1    3    3  501    0  0.16283775651E+02 -0.12493479479E+02 -0.18929035575E+03  0.19039980871E+03  0.00000000000E+00 0.  1.
         -3    1    1    2    0  502 -0.27706504700E+02  0.24791492865E+02 -0.66726018642E+03  0.66829516301E+03  0.00000000000E+00 0. -1.
<mgrwt>
<rscale>  1 0.30000000E+03</rscale>
<asrwt>0</asrwt>
<pdfrwt beam="1">  1       21 0.56977804E-02 0.30000000E+03</pdfrwt>
<pdfrwt beam="2">0</pdfrwt>
<totfact> 0.23033681E+04</totfact>
</mgrwt>
</event>
<event>
 6    1  0.6513574E-002  0.3000000E+03  0.7818608E-02  0.1093470E+00
         21   -1    0    0  501  502  0.00000000000E+00  0.00000000000E+00  0.11066013466E+01  0.11066013466E+01  0.00000000000E+00 0. -1.
         13   -1    0    0    0    0 -0.00000000000E+00 -0.00000000000E+00 -0.10000000000E+04  0.10000000000E+04  0.00000000000E+00 0.  1.
    9000005    2    1    2  501    0  0.29961809766E+02  0.12867211019E+02 -0.53394899791E+03  0.53502015985E+03  0.90423400407E+01 0.  0.
         13    1    3    3    0    0  0.17597222363E+02  0.11081857771E+02 -0.28486503283E+03  0.28562310259E+03  0.00000000000E+00 0.  1.
          3    1    3    3  501    0  0.12364587403E+02  0.17853532485E+01 -0.24908396509E+03  0.24939705726E+03  0.00000000000E+00 0.  1.
         -1    1    1    2    0  502 -0.29961809766E+02 -0.12867211019E+02 -0.46494440074E+03  0.46608644149E+03  0.00000000000E+00 0. -1.
<mgrwt>
<rscale>  1 0.30000000E+03</rscale>
<asrwt>0</asrwt>
<pdfrwt beam="1">  1       21 0.40240134E-02 0.30000000E+03</pdfrwt>
<pdfrwt beam="2">0</pdfrwt>
<totfact> 0.41625568E+04</totfact>
</mgrwt>
</event>
<event>
 6    1  0.6513574E-002  0.3000000E+03  0.7818608E-02  0.1093470E+00
         21   -1    0    0  501  502  0.00000000000E+00  0.00000000000E+00  0.36155385048E+01  0.36155385048E+01  0.00000000000E+00 0. -1.
         13   -1    0    0    0    0 -0.00000000000E+00 -0.00000000000E+00 -0.10000000000E+04  0.10000000000E+04  0.00000000000E+00 0.  1.
    9000005    2    1    2  501    0 -0.59526640439E+02  0.14637338903E+01 -0.43101012847E+03  0.43511426333E+03  0.30212356995E+01 0.  0.
         13    1    3    3    0    0 -0.57691612303E+02  0.17240665673E+01 -0.41413170686E+03  0.41813438649E+03  0.00000000000E+00 0.  1.
          1    1    3    3  501    0 -0.18350281363E+01 -0.26033267707E+00 -0.16878421611E+02  0.16979876839E+02  0.00000000000E+00 0.  1.
         -1    1    1    2    0  502  0.59526640439E+02 -0.14637338903E+01 -0.56537433302E+03  0.56850127518E+03  0.00000000000E+00 0. -1.
<mgrwt>
<rscale>  1 0.30000000E+03</rscale>
<asrwt>0</asrwt>
<pdfrwt beam="1">  1       21 0.13147440E-01 0.30000000E+03</pdfrwt>
<pdfrwt beam="2">0</pdfrwt>
<totfact> 0.52472918E+03</totfact>
</mgrwt>
</event>
<event>
 6    1  0.6513574E-002  0.3000000E+03  0.7818608E-02  0.1093470E+00
         21   -1    0    0  501  502  0.00000000000E+00  0.00000000000E+00  0.97072652752E+00  0.97072652752E+00  0.00000000000E+00 0. -1.
         13   -1    0    0    0    0 -0.00000000000E+00 -0.00000000000E+00 -0.10000000000E+04  0.10000000000E+04  0.00000000000E+00 0.  1.
    9000005    2    1    2  501    0  0.18162880098E+02 -0.25199414223E+02 -0.51759503130E+03  0.51853541456E+03  0.30755556766E+01 0.  0.
         13    1    3    3    0    0  0.46390675164E+01 -0.43319957705E+01 -0.10357063893E+03  0.10376494776E+03  0.00000000000E+00 0.  1.
          1    1    3    3  501    0  0.13523812581E+02 -0.20867418452E+02 -0.41402439237E+03  0.41477046681E+03  0.00000000000E+00 0.  1.
         -3    1    1    2    0  502 -0.18162880098E+02  0.25199414223E+02 -0.48143424217E+03  0.48243531196E+03  0.00000000000E+00 0. -1.
<mgrwt>
<rscale>  1 0.30000000E+03</rscale>
<asrwt>0</asrwt>
<pdfrwt beam="1">  1       21 0.35299221E-02 0.30000000E+03</pdfrwt>
<pdfrwt beam="2">0</pdfrwt>
<totfact> 0.51871872E+04</totfact>
</mgrwt>
</event>
<event>
 6    1  0.6513574E-002  0.3000000E+03  0.7818608E-02  0.1093470E+00
         21   -1    0    0  501  502  0.00000000000E+00  0.00000000000E+00  0.15083812717E+01  0.15083812717E+01  0.00000000000E+00 0. -1.
         13   -1    0    0    0    0 -0.00000000000E+00 -0.00000000000E+00 -0.10000000000E+04  0.10000000000E+04  0.00000000000E+00 0.  1.
    9000005    2    1    2  501    0 -0.22380649114E+02 -0.30236441732E+02 -0.62058120494E+03  0.62173026617E+03  0.35151214630E+01 0.  0.
         13    1    3    3    0    0 -0.15073101392E+02 -0.21378712996E+02 -0.45508869492E+03  0.45583984907E+03  0.00000000000E+00 0.  1.
          3    1    3    3  501    0 -0.73075477221E+01 -0.88577287367E+01 -0.16549251002E+03  0.16589041710E+03  0.00000000000E+00 0.  1.
         -3    1    1    2    0  502  0.22380649114E+02  0.30236441732E+02 -0.37791041379E+03  0.37977811510E+03  0.00000000000E+00 0. -1.
<mgrwt>
<rscale>  1 0.30000000E+03</rscale>
<asrwt>0</asrwt>
<pdfrwt beam="1">  1       21 0.54850344E-02 0.30000000E+03</pdfrwt>
<pdfrwt beam="2">0</pdfrwt>
<totfact> 0.24588749E+04</totfact>
</mgrwt>
</event>
<event>
 6    1  0.6513574E-002  0.3000000E+03  0.7818608E-02  0.1093470E+00
         21   -1    0    0  501  502  0.00000000000E+00  0.00000000000E+00  0.23745019591E+01  0.23745019591E+01  0.00000000000E+00 0. -1.
         13   -1    0    0    0    0 -0.00000000000E+00 -0.00000000000E+00 -0.10000000000E+04  0.10000000000E+04  0.00000000000E+00 0.  1.
    9000005    2    1    2  501    0 -0.16970965334E+02 -0.39674185202E+02 -0.26782845603E+03  0.27130283846E+03  0.33307152413E+01 0.  0.
         13    1    3    3    0    0 -0.15578692645E+02 -0.38004232285E+02 -0.25188438001E+03  0.25521120318E+03  0.00000000000E+00 0.  1.
          1    1    3    3  501    0 -0.13922726885E+01 -0.16699529174E+01 -0.15944076020E+02  0.16091635284E+02  0.00000000000E+00 0.  1.
         -1    1    1    2    0  502  0.16970965334E+02  0.39674185202E+02 -0.72979704201E+03  0.73107166350E+03  0.00000000000E+00 0. -1.
<mgrwt>
<rscale>  1 0.30000000E+03</rscale>
<asrwt>0</asrwt>
<pdfrwt beam="1">  1       21 0.86345708E-02 0.30000000E+03</pdfrwt>
<pdfrwt beam="2">0</pdfrwt>
<totfact> 0.11167427E+04</totfact>
</mgrwt>
</event>
<event>
 6    1  0.6513574E-002  0.3000000E+03  0.7818608E-02  0.1093470E+00
         21   -1    0    0  501  502  0.00000000000E+00  0.00000000000E+00  0.21894251370E+01  0.21894251370E+01  0.00000000000E+00 0. -1.
         13   -1    0    0    0    0 -0.00000000000E+00 -0.00000000000E+00 -0.10000000000E+04  0.10000000000E+04  0.00000000000E+00 0.  1.
    9000005    2    1    2  501    0  0.45580031854E+02 -0.73936742185E+01 -0.57628218819E+03  0.57813944401E+03  0.34424661705E+01 0.  0.
         13    1    3    3    0    0  0.44401974352E+02 -0.77424848422E+01 -0.55982604858E+03  0.56163750415E+03  0.00000000000E+00 0.  1.
          1    1    3    3  501    0  0.11780575020E+01  0.34881062374E+00 -0.16456139611E+02  0.16501939863E+02  0.00000000000E+00 0.  1.
         -1    1    1    2    0  502 -0.45580031854E+02  0.73936742185E+01 -0.42152838667E+03  0.42404998113E+03  0.00000000000E+00 0. -1.
<mgrwt>
<rscale>  1 0.30000000E+03</rscale>
<asrwt>0</asrwt>
<pdfrwt beam="1">  1       21 0.79615627E-02 0.30000000E+03</pdfrwt>
<pdfrwt beam="2">0</pdfrwt>
<totfact> 0.12882373E+04</totfact>
</mgrwt>
</event>
<event>
 6    1  0.6513574E-002  0.3000000E+03  0.7818608E-02  0.1093470E+00
         21   -1    0    0  501  502  0.00000000000E+00  0.00000000000E+00  0.30115293697E+01  0.30115293697E+01  0.00000000000E+00 0. -1.
         13   -1    0    0    0    0 -0.00000000000E+00 -0.00000000000E+00 -0.10000000000E+04  0.10000000000E+04  0.00000000000E+00 0.  1.
    9000005    2    1    2  501    0  0.46083759295E+02  0.27978914703E+02 -0.58826664304E+03  0.59074939809E+03  0.45470310138E+01 0.  0.
         13    1    3    3    0    0  0.64733803455E+01  0.50507563187E+01 -0.10489140825E+03  0.10521227265E+03  0.00000000000E+00 0.  1.
          3    1    3    3  501    0  0.39610378950E+02  0.22928158384E+02 -0.48337523479E+03  0.48553712544E+03  0.00000000000E+00 0.  1.
         -1    1    1    2    0  502 -0.46083759295E+02 -0.27978914703E+02 -0.40872182759E+03  0.41226213128E+03  0.00000000000E+00 0. -1.
<mgrwt>
<rscale>  1 0.30000000E+03</rscale>
<asrwt>0</asrwt>
<pdfrwt beam="1">  1       21 0.10951039E-01 0.30000000E+03</pdfrwt>
<pdfrwt beam="2">0</pdfrwt>
<totfact> 0.73104492E+03</totfact>
</mgrwt>
</event>
<event>
 6    1  0.6513574E-002  0.3000000E+03  0.7818608E-02  0.1093470E+00
         21   -1    0    0  501  502  0.00000000000E+00  0.00000000000E+00  0.23855427824E+01  0.23855427824E+01  0.00000000000E+00 0. -1.
         13   -1    0    0    0    0 -0.00000000000E+00 -0.00000000000E+00 -0.10000000000E+04  0.10000000000E+04  0.00000000000E+00 0.  1.
    9000005    2    1    2  501    0  0.45834848877E+02  0.78919972506E+01 -0.34963883952E+03  0.35274293479E+03  0.41404044696E+01 0.  0.
         13    1    3    3    0    0  0.34645729073E+02  0.73779470156E+01 -0.27360745757E+03  0.27589092316E+03  0.00000000000E+00 0.  1.
          3    1    3    3  501    0  0.11189119804E+02  0.51405023504E+00 -0.76031381952E+02  0.76852011627E+02  0.00000000000E+00 0.  1.
         -1    1    1    2    0  502 -0.45834848877E+02 -0.78919972506E+01 -0.64797561770E+03  0.64964260800E+03  0.00000000000E+00 0. -1.
<mgrwt>
<rscale>  1 0.30000000E+03</rscale>
<asrwt>0</asrwt>
<pdfrwt beam="1">  1       21 0.86747193E-02 0.30000000E+03</pdfrwt>
<pdfrwt beam="2">0</pdfrwt>
<totfact> 0.11076324E+04</totfact>
</mgrwt>
</event>
<event>
 6    1  0.6513574E-002  0.3000000E+03  0.7818608E-02  0.1093470E+00
         21   -1    0    0  501  502  0.00000000000E+00  0.00000000000E+00  0.11820500031E+01  0.11820500031E+01  0.00000000000E+00 0. -1.
         13   -1    0    0    0    0 -0.00000000000E+00 -0.00000000000E+00 -0.10000000000E+04  0.10000000000E+04  0.00000000000E+00 0.  1.
    9000005    2    1    2  501    0 -0.31946711679E+02 -0.12441388328E+02 -0.51770090940E+03  0.51884504408E+03  0.32507909410E+01 0.  0.
         13    1    3    3    0    0 -0.18303614483E+01 -0.21657875527E+00 -0.37616042038E+02  0.37661170295E+02  0.00000000000E+00 0.  1.
          1    1    3    3  501    0 -0.30116350231E+02 -0.12224809573E+02 -0.48008486736E+03  0.48118387378E+03  0.00000000000E+00 0.  1.
         -3    1    1    2    0  502  0.31946711679E+02  0.12441388328E+02 -0.48111704060E+03  0.48233700592E+03  0.00000000000E+00 0. -1.
<mgrwt>
<rscale>  1 0.30000000E+03</rscale>
<asrwt>0</asrwt>
<pdfrwt beam="1">  1       21 0.42983727E-02 0.30000000E+03</pdfrwt>
<pdfrwt beam="2">0</pdfrwt>
<totfact> 0.37240575E+04</totfact>
</mgrwt>
</event>
<event>
 6    1  0.6513574E-002  0.3000000E+03  0.7818608E-02  0.1093470E+00
         21   -1    0    0  501  502  0.00000000000E+00  0.00000000000E+00  0.11288172509E+01  0.11288172509E+01  0.00000000000E+00 0. -1.
         13   -1    0    0    0    0 -0.00000000000E+00 -0.00000000000E+00 -0.10000000000E+04  0.10000000000E+04  0.00000000000E+00 0.  1.
    9000005    2    1    2  501    0  0.27411085633E+02 -0.17985981259E+02 -0.39643853241E+03  0.39780472413E+03  0.31977224135E+01 0.  0.
         13    1    3    3    0    0  0.26934212095E+02 -0.17783273971E+02 -0.39345215374E+03  0.39477372493E+03  0.00000000000E+00 0.  1.
          3    1    3    3  501    0  0.47687353768E+00 -0.20270728781E+00 -0.29863786637E+01  0.30309991980E+01  0.00000000000E+00 0.  1.
         -3    1    1    2    0  502 -0.27411085633E+02  0.17985981259E+02 -0.60243265034E+03  0.60332409312E+03  0.00000000000E+00 0. -1.
<mgrwt>
<rscale>  1 0.30000000E+03</rscale>
<asrwt>0</asrwt>
<pdfrwt beam="1">  1       21 0.41047987E-02 0.30000000E+03</pdfrwt>
<pdfrwt beam="2">0</pdfrwt>
<totfact> 0.40254156E+04</totfact>
</mgrwt>
</event>
<event>
 6    1  0.6513574E-002  0.3000000E+03  0.7818608E-02  0.1093470E+00
         21   -1    0    0  501  502  0.00000000000E+00  0.00000000000E+00  0.19764600127E+01  0.19764600127E+01  0.00000000000E+00 0. -1.
         13   -1    0    0    0    0 -0.00000000000E+00 -0.00000000000E+00 -0.10000000000E+04  0.10000000000E+04  0.00000000000E+00 0.  1.
    9000005    2    1    2  501    0  0.14517753882E+02 -0.33445657621E+02 -0.21425769147E+03  0.21736299945E+03  0.33072624794E+01 0.  0.
         13    1    3    3    0    0  0.63313721287E+01 -0.12205848989E+02 -0.73153577938E+02  0.74434635673E+02  0.00000000000E+00 0.  1.
          1    1    3    3  501    0  0.81863817537E+01 -0.21239808632E+02 -0.14110411353E+03  0.14292836378E+03  0.00000000000E+00 0.  1.
         -1    1    1    2    0  502 -0.14517753882E+02  0.33445657621E+02 -0.78376584852E+03  0.78461346056E+03  0.00000000000E+00 0. -1.
<mgrwt>
<rscale>  1 0.30000000E+03</rscale>
<asrwt>0</asrwt>
<pdfrwt beam="1">  1       21 0.71871425E-02 0.30000000E+03</pdfrwt>
<pdfrwt beam="2">0</pdfrwt>
<totfact> 0.15410386E+04</totfact>
</mgrwt>
</event>
<event>
 6    1  0.6513574E-002  0.3000000E+03  0.7818608E-02  0.1093470E+00
         21   -1    0    0  501  502  0.00000000000E+00  0.00000000000E+00  0.11331587265E+01  0.11331587265E+01  0.00000000000E+00 0. -1.
         13   -1    0    0    0    0 -0.00000000000E+00 -0.00000000000E+00 -0.10000000000E+04  0.10000000000E+04  0.00000000000E+00 0.  1.
    9000005    2    1    2  501    0  0.29078132968E+02 -0.16708612183E+02 -0.52585196801E+03  0.52693089612E+03  0.33408804034E+01 0.  0.
         13    1    3    3    0    0  0.37712222383E+01 -0.20548134566E+01 -0.86737132234E+02  0.86843390559E+02  0.00000000000E+00 0.  1.
          1    1    3    3  501    0  0.25306910730E+02 -0.14653798726E+02 -0.43911483578E+03  0.44008750556E+03  0.00000000000E+00 0.  1.
         -3    1    1    2    0  502 -0.29078132968E+02  0.16708612183E+02 -0.47301487326E+03  0.47420226261E+03  0.00000000000E+00 0. -1.
<mgrwt>
<rscale>  1 0.30000000E+03</rscale>
<asrwt>0</asrwt>
<pdfrwt beam="1">  1       21 0.41205859E-02 0.30000000E+03</pdfrwt>
<pdfrwt beam="2">0</pdfrwt>
<totfact> 0.39994390E+04</totfact>
</mgrwt>
</event>
<event>
 6    1  0.6513574E-002  0.3000000E+03  0.7818608E-02  0.1093470E+00
         21   -1    0    0  501  502  0.00000000000E+00  0.00000000000E+00  0.11071151335E+01  0.11071151335E+01  0.00000000000E+00 0. -1.
         13   -1    0    0    0    0 -0.00000000000E+00 -0.00000000000E+00 -0.10000000000E+04  0.10000000000E+04  0.00000000000E+00 0.  1.
    9000005    2    1    2  501    0 -0.27039056107E+02 -0.15051475321E+02 -0.31985483871E+03  0.32136427730E+03  0.31974068747E+01 0.  0.
         13    1    3    3    0    0 -0.26474892525E+02 -0.14081100356E+02 -0.30766944313E+03  0.30912729345E+03  0.00000000000E+00 0.  1.
          3    1    3    3  501    0 -0.56416358232E+00 -0.97037496476E+00 -0.12185395589E+02  0.12236983851E+02  0.00000000000E+00 0.  1.
         -1    1    1    2    0  502  0.27039056107E+02  0.15051475321E+02 -0.67903804615E+03  0.67974283783E+03  0.00000000000E+00 0. -1.
<mgrwt>
<rscale>  1 0.30000000E+03</rscale>
<asrwt>0</asrwt>
<pdfrwt beam="1">  1       21 0.40258817E-02 0.30000000E+03</pdfrwt>
<pdfrwt beam="2">0</pdfrwt>
<totfact> 0.41593032E+04</totfact>
</mgrwt>
</event>
<event>
 6    1  0.6513574E-002  0.3000000E+03  0.7818608E-02  0.1093470E+00
         21   -1    0    0  501  502  0.00000000000E+00  0.00000000000E+00  0.24107188439E+02  0.24107188439E+02  0.00000000000E+00 0. -1.
         13   -1    0    0    0    0 -0.00000000000E+00 -0.00000000000E+00 -0.10000000000E+04  0.10000000000E+04  0.00000000000E+00 0.  1.
    9000005    2    1    2  501    0 -0.53669923461E+02  0.14562326768E+03 -0.49993129600E+03  0.52348161870E+03  0.38868531799E+01 0.  0.
         13    1    3    3    0    0 -0.46252764207E+02  0.12823817216E+03 -0.44186049339E+03  0.46241219990E+03  0.00000000000E+00 0.  1.
          3    1    3    3  501    0 -0.74171592539E+01  0.17385095523E+02 -0.58070802603E+02  0.61069418801E+02  0.00000000000E+00 0.  1.
         -1    1    1    2    0  502  0.53669923461E+02 -0.14562326768E+03 -0.47596151557E+03  0.50062556974E+03  0.00000000000E+00 0. -1.
<mgrwt>
<rscale>  1 0.30000000E+03</rscale>
<asrwt>0</asrwt>
<pdfrwt beam="1">  1       21 0.87662688E-01 0.30000000E+03</pdfrwt>
<pdfrwt beam="2">0</pdfrwt>
<totfact> 0.10280838E+02</totfact>
</mgrwt>
</event>
<event>
 6    1  0.6513574E-002  0.3000000E+03  0.7818608E-02  0.1093470E+00
         21   -1    0    0  501  502  0.00000000000E+00  0.00000000000E+00  0.11383362090E+01  0.11383362090E+01  0.00000000000E+00 0. -1.
         13   -1    0    0    0    0 -0.00000000000E+00 -0.00000000000E+00 -0.10000000000E+04  0.10000000000E+04  0.00000000000E+00 0.  1.
    9000005    2    1    2  501    0  0.84581901983E+01  0.32341529816E+02 -0.52198498748E+03  0.52309139296E+03  0.62259706734E+01 0.  0.
         13    1    3    3    0    0  0.84572762661E+00  0.53733961636E+01 -0.55638381846E+02  0.55903650829E+02  0.00000000000E+00 0.  1.
          3    1    3    3  501    0  0.76124625717E+01  0.26968133652E+02 -0.46634660563E+03  0.46718774214E+03  0.00000000000E+00 0.  1.
         -3    1    1    2    0  502 -0.84581901983E+01 -0.32341529816E+02 -0.47687667631E+03  0.47804694324E+03  0.00000000000E+00 0. -1.
<mgrwt>
<rscale>  1 0.30000000E+03</rscale>
<asrwt>0</asrwt>
<pdfrwt beam="1">  1       21 0.41394131E-02 0.30000000E+03</pdfrwt>
<pdfrwt beam="2">0</pdfrwt>
<totfact> 0.39688005E+04</totfact>
</mgrwt>
</event>
<event>
 6    1  0.6513574E-002  0.3000000E+03  0.7818608E-02  0.1093470E+00
         21   -1    0    0  501  502  0.00000000000E+00  0.00000000000E+00  0.19268651510E+01  0.19268651510E+01  0.00000000000E+00 0. -1.
         13   -1    0    0    0    0 -0.00000000000E+00 -0.00000000000E+00 -0.10000000000E+04  0.10000000000E+04  0.00000000000E+00 0.  1.
    9000005    2    1    2  501    0  0.15275736278E+02 -0.37103459314E+02 -0.70088844061E+03  0.70204562649E+03  0.36661531490E+01 0.  0.
         13    1    3    3    0    0  0.48311967506E+01 -0.16093959852E+02 -0.28008062120E+03  0.28058423045E+03  0.00000000000E+00 0.  1.
          1    1    3    3  501    0  0.10444539527E+02 -0.21009499462E+02 -0.42080781941E+03  0.42146139604E+03  0.00000000000E+00 0.  1.
         -3    1    1    2    0  502 -0.15275736278E+02  0.37103459314E+02 -0.29718469424E+03  0.29988123866E+03  0.00000000000E+00 0. -1.
<mgrwt>
<rscale>  1 0.30000000E+03</rscale>
<asrwt>0</asrwt>
<pdfrwt beam="1">  1       21 0.70067971E-02 0.30000000E+03</pdfrwt>
<pdfrwt beam="2">0</pdfrwt>
<totfact> 0.16108055E+04</totfact>
</mgrwt>
</event>
<event>
 6    1  0.6513574E-002  0.3000000E+03  0.7818608E-02  0.1093470E+00
         21   -1    0    0  501  502  0.00000000000E+00  0.00000000000E+00  0.21169319341E+01  0.21169319341E+01  0.00000000000E+00 0. -1.
         13   -1    0    0    0    0 -0.00000000000E+00 -0.00000000000E+00 -0.10000000000E+04  0.10000000000E+04  0.00000000000E+00 0.  1.
    9000005    2    1    2  501    0 -0.31374577989E+02  0.29825379023E+02 -0.33065090136E+03  0.33348199292E+03  0.25107083796E+01 0.  0.
         13    1    3    3    0    0 -0.23058305946E+02  0.20365395574E+02 -0.23590880015E+03  0.23790627734E+03  0.00000000000E+00 0.  1.
          3    1    3    3  501    0 -0.83162720428E+01  0.94599834492E+01 -0.94742101203E+02  0.95575715576E+02  0.00000000000E+00 0.  1.
         -3    1    1    2    0  502  0.31374577989E+02 -0.29825379023E+02 -0.66723216671E+03  0.66863493901E+03  0.00000000000E+00 0. -1.
<mgrwt>
<rscale>  1 0.30000000E+03</rscale>
<asrwt>0</asrwt>
<pdfrwt beam="1">  1       21 0.76979505E-02 0.30000000E+03</pdfrwt>
<pdfrwt beam="2">0</pdfrwt>
<totfact> 0.13666304E+04</totfact>
</mgrwt>
</event>
<event>
 6    1  0.6513574E-002  0.3000000E+03  0.7818608E-02  0.1093470E+00
         21   -1    0    0  501  502  0.00000000000E+00  0.00000000000E+00  0.41725530238E+01  0.41725530238E+01  0.00000000000E+00 0. -1.
         13   -1    0    0    0    0 -0.00000000000E+00 -0.00000000000E+00 -0.10000000000E+04  0.10000000000E+04  0.00000000000E+00 0.  1.
    9000005    2    1    2  501    0 -0.53039214155E+02  0.34306561179E+02 -0.39471897205E+03  0.39975424009E+03  0.32073661935E+01 0.  0.
         13    1    3    3    0    0 -0.22141985244E+02  0.15589601988E+02 -0.17659709689E+03  0.17866123763E+03  0.00000000000E+00 0.  1.
          3    1    3    3  501    0 -0.30897228911E+02  0.18716959192E+02 -0.21812187516E+03  0.22109300247E+03  0.00000000000E+00 0.  1.
         -3    1    1    2    0  502  0.53039214155E+02 -0.34306561179E+02 -0.60110847493E+03  0.60441831293E+03  0.00000000000E+00 0. -1.
<mgrwt>
<rscale>  1 0.30000000E+03</rscale>
<asrwt>0</asrwt>
<pdfrwt beam="1">  1       21 0.15172952E-01 0.30000000E+03</pdfrwt>
<pdfrwt beam="2">0</pdfrwt>
<totfact> 0.40315168E+03</totfact>
</mgrwt>
</event>
<event>
 6    1  0.6513574E-002  0.3000000E+03  0.7818608E-02  0.1093470E+00
         21   -1    0    0  501  502  0.00000000000E+00  0.00000000000E+00  0.31275412526E+01  0.31275412526E+01  0.00000000000E+00 0. -1.
         13   -1    0    0    0    0 -0.00000000000E+00 -0.00000000000E+00 -0.10000000000E+04  0.10000000000E+04  0.00000000000E+00 0.  1.
    9000005    2    1    2  501    0  0.54413756802E+02  0.10899973886E+02 -0.44227244136E+03  0.44575796400E+03  0.39476224928E+01 0.  0.
         13    1    3    3    0    0  0.44592338445E+02  0.74847164893E+01 -0.35475126619E+03  0.35762125005E+03  0.00000000000E+00 0.  1.
          1    1    3    3  501    0  0.98214183573E+01  0.34152573962E+01 -0.87521175176E+02  0.88136713949E+02  0.00000000000E+00 0.  1.
         -1    1    1    2    0  502 -0.54413756802E+02 -0.10899973886E+02 -0.55460001738E+03  0.55736957725E+03  0.00000000000E+00 0. -1.
<mgrwt>
<rscale>  1 0.30000000E+03</rscale>
<asrwt>0</asrwt>
<pdfrwt beam="1">  1       21 0.11372901E-01 0.30000000E+03</pdfrwt>
<pdfrwt beam="2">0</pdfrwt>
<totfact> 0.68292264E+03</totfact>
</mgrwt>
</event>
<event>
 6    1  0.6513574E-002  0.3000000E+03  0.7818608E-02  0.1093470E+00
         21   -1    0    0  501  502  0.00000000000E+00  0.00000000000E+00  0.29551933209E+01  0.29551933209E+01  0.00000000000E+00 0. -1.
         13   -1    0    0    0    0 -0.00000000000E+00 -0.00000000000E+00 -0.10000000000E+04  0.10000000000E+04  0.00000000000E+00 0.  1.
    9000005    2    1    2  501    0 -0.37866376197E+02 -0.38815446246E+02 -0.47035957893E+03  0.47348580757E+03  0.31898541782E+01 0.  0.
         13    1    3    3    0    0 -0.41179732112E-01  0.49083160030E-01 -0.23908158748E+00  0.24751753959E+00  0.00000000000E+00 0.  1.
          3    1    3    3  501    0 -0.37825196465E+02 -0.38864529406E+02 -0.47012049734E+03  0.47323829003E+03  0.00000000000E+00 0.  1.
         -1    1    1    2    0  502  0.37866376197E+02  0.38815446246E+02 -0.52668522775E+03  0.52946938575E+03  0.00000000000E+00 0. -1.
<mgrwt>
<rscale>  1 0.30000000E+03</rscale>
<asrwt>0</asrwt>
<pdfrwt beam="1">  1       21 0.10746180E-01 0.30000000E+03</pdfrwt>
<pdfrwt beam="2">0</pdfrwt>
<totfact> 0.75627905E+03</totfact>
</mgrwt>
</event>
<event>
 6    1  0.6513574E-002  0.3000000E+03  0.7818608E-02  0.1093470E+00
         21   -1    0    0  501  502  0.00000000000E+00  0.00000000000E+00  0.12655824888E+01  0.12655824888E+01  0.00000000000E+00 0. -1.
         13   -1    0    0    0    0 -0.00000000000E+00 -0.00000000000E+00 -0.10000000000E+04  0.10000000000E+04  0.00000000000E+00 0.  1.
    9000005    2    1    2  501    0  0.18112005487E+02 -0.29477997489E+02 -0.61220978932E+03  0.61319563354E+03  0.33259246329E+01 0.  0.
         13    1    3    3    0    0  0.15044210330E+02 -0.21889969789E+02 -0.46128928113E+03  0.46205335182E+03  0.00000000000E+00 0.  1.
          1    1    3    3  501    0  0.30677951566E+01 -0.75880277006E+01 -0.15092050819E+03  0.15114228172E+03  0.00000000000E+00 0.  1.
         -1    1    1    2    0  502 -0.18112005487E+02  0.29477997489E+02 -0.38652462819E+03  0.38806994895E+03  0.00000000000E+00 0. -1.
<mgrwt>
<rscale>  1 0.30000000E+03</rscale>
<asrwt>0</asrwt>
<pdfrwt beam="1">  1       21 0.46021278E-02 0.30000000E+03</pdfrwt>
<pdfrwt beam="2">0</pdfrwt>
<totfact> 0.33169712E+04</totfact>
</mgrwt>
</event>
<event>
 6    1  0.6513574E-002  0.3000000E+03  0.7818608E-02  0.1093470E+00
         21   -1    0    0  501  502  0.00000000000E+00  0.00000000000E+00  0.15123126913E+01  0.15123126913E+01  0.00000000000E+00 0. -1.
         13   -1    0    0    0    0 -0.00000000000E+00 -0.00000000000E+00 -0.10000000000E+04  0.10000000000E+04  0.00000000000E+00 0.  1.
    9000005    2    1    2  501    0  0.24152085903E+02  0.19725629721E+02 -0.79760694512E+03  0.79822557849E+03  0.38485744513E+01 0.  0.
         13    1    3    3    0    0  0.55809729790E+01  0.36052845288E+01 -0.13690109160E+03  0.13706222753E+03  0.00000000000E+00 0.  1.
          1    1    3    3  501    0  0.18571112924E+02  0.16120345192E+02 -0.66070585353E+03  0.66116335096E+03  0.00000000000E+00 0.  1.
         -1    1    1    2    0  502 -0.24152085903E+02 -0.19725629721E+02 -0.20088074219E+03  0.20328673420E+03  0.00000000000E+00 0. -1.
<mgrwt>
<rscale>  1 0.30000000E+03</rscale>
<asrwt>0</asrwt>
<pdfrwt beam="1">  1       21 0.54993305E-02 0.30000000E+03</pdfrwt>
<pdfrwt beam="2">0</pdfrwt>
<totfact> 0.24479259E+04</totfact>
</mgrwt>
</event>
<event>
 6    1  0.6513574E-002  0.3000000E+03  0.7818608E-02  0.1093470E+00
         21   -1    0    0  501  502  0.00000000000E+00  0.00000000000E+00  0.63397539666E+01  0.63397539666E+01  0.00000000000E+00 0. -1.
         13   -1    0    0    0    0 -0.00000000000E+00 -0.00000000000E+00 -0.10000000000E+04  0.10000000000E+04  0.00000000000E+00 0.  1.
    9000005    2    1    2  501    0 -0.68035510794E+02 -0.12832032627E+02 -0.74500775970E+03  0.74822824561E+03  0.39311211033E+01 0.  0.
         13    1    3    3    0    0 -0.23016452759E+02 -0.37671550705E+01 -0.27038657382E+03  0.27139058174E+03  0.00000000000E+00 0.  1.
          3    1    3    3  501    0 -0.45019058035E+02 -0.90648775570E+01 -0.47462118588E+03  0.47683766386E+03  0.00000000000E+00 0.  1.
         -3    1    1    2    0  502  0.68035510794E+02  0.12832032627E+02 -0.24865248633E+03  0.25811150836E+03  0.00000000000E+00 0. -1.
<mgrwt>
<rscale>  1 0.30000000E+03</rscale>
<asrwt>0</asrwt>
<pdfrwt beam="1">  1       21 0.23053699E-01 0.30000000E+03</pdfrwt>
<pdfrwt beam="2">0</pdfrwt>
<totfact> 0.18260185E+03</totfact>
</mgrwt>
</event>
<event>
 6    1  0.6513574E-002  0.3000000E+03  0.7818608E-02  0.1093470E+00
         21   -1    0    0  501  502  0.00000000000E+00  0.00000000000E+00  0.15214020522E+01  0.15214020522E+01  0.00000000000E+00 0. -1.
         13   -1    0    0    0    0 -0.00000000000E+00 -0.00000000000E+00 -0.10000000000E+04  0.10000000000E+04  0.00000000000E+00 0.  1.
    9000005    2    1    2  501    0 -0.50216042815E+01  0.37991806739E+02 -0.41027603914E+03  0.41207179091E+03  0.28528374833E+01 0.  0.
         13    1    3    3    0    0 -0.33566762927E+01  0.30487909403E+02 -0.33756246740E+03  0.33895309305E+03  0.00000000000E+00 0.  1.
          1    1    3    3  501    0 -0.16649279889E+01  0.75038973358E+01 -0.72713571741E+02  0.73118697853E+02  0.00000000000E+00 0.  1.
         -1    1    1    2    0  502  0.50216042815E+01 -0.37991806739E+02 -0.58820255881E+03  0.58944961115E+03  0.00000000000E+00 0. -1.
<mgrwt>
<rscale>  1 0.30000000E+03</rscale>
<asrwt>0</asrwt>
<pdfrwt beam="1">  1       21 0.55323828E-02 0.30000000E+03</pdfrwt>
<pdfrwt beam="2">0</pdfrwt>
<totfact> 0.24228975E+04</totfact>
</mgrwt>
</event>
<event>
 6    1  0.6513574E-002  0.3000000E+03  0.7818608E-02  0.1093470E+00
         21   -1    0    0  501  502  0.00000000000E+00  0.00000000000E+00  0.12463969069E+01  0.12463969069E+01  0.00000000000E+00 0. -1.
         13   -1    0    0    0    0 -0.00000000000E+00 -0.00000000000E+00 -0.10000000000E+04  0.10000000000E+04  0.00000000000E+00 0.  1.
    9000005    2    1    2  501    0  0.28067429054E+02 -0.12710902181E+02 -0.74278677131E+03  0.74343179961E+03  0.30504795290E+01 0.  0.
         13    1    3    3    0    0  0.17886680531E+02 -0.74762273706E+01 -0.49888142425E+03  0.49925795215E+03  0.00000000000E+00 0.  1.
          3    1    3    3  501    0  0.10180748524E+02 -0.52346748105E+01 -0.24390534706E+03  0.24417384747E+03  0.00000000000E+00 0.  1.
         -3    1    1    2    0  502 -0.28067429054E+02  0.12710902181E+02 -0.25596683178E+03  0.25781459730E+03  0.00000000000E+00 0. -1.
<mgrwt>
<rscale>  1 0.30000000E+03</rscale>
<asrwt>0</asrwt>
<pdfrwt beam="1">  1       21 0.45323619E-02 0.30000000E+03</pdfrwt>
<pdfrwt beam="2">0</pdfrwt>
<totfact> 0.34041605E+04</totfact>
</mgrwt>
</event>
<event>
 6    1  0.6513574E-002  0.3000000E+03  0.7818608E-02  0.1093470E+00
         21   -1    0    0  501  502  0.00000000000E+00  0.00000000000E+00  0.11366506980E+01  0.11366506980E+01  0.00000000000E+00 0. -1.
         13   -1    0    0    0    0 -0.00000000000E+00 -0.00000000000E+00 -0.10000000000E+04  0.10000000000E+04  0.00000000000E+00 0.  1.
    9000005    2    1    2  501    0 -0.27439097182E+02 -0.17622528292E+02 -0.37781552131E+03  0.37923323198E+03  0.31334547853E+01 0.  0.
         13    1    3    3    0    0 -0.19073385825E+02 -0.10591525011E+02 -0.24605865325E+03  0.24702395691E+03  0.00000000000E+00 0.  1.
          1    1    3    3  501    0 -0.83657113572E+01 -0.70310032811E+01 -0.13175686806E+03  0.13220927507E+03  0.00000000000E+00 0.  1.
         -1    1    1    2    0  502  0.27439097182E+02  0.17622528292E+02 -0.62104782799E+03  0.62190341872E+03  0.00000000000E+00 0. -1.
<mgrwt>
<rscale>  1 0.30000000E+03</rscale>
<asrwt>0</asrwt>
<pdfrwt beam="1">  1       21 0.41332840E-02 0.30000000E+03</pdfrwt>
<pdfrwt beam="2">0</pdfrwt>
<totfact> 0.39787345E+04</totfact>
</mgrwt>
</event>
<event>
 6    1  0.6513574E-002  0.3000000E+03  0.7818608E-02  0.1093470E+00
         21   -1    0    0  501  502  0.00000000000E+00  0.00000000000E+00  0.29188462859E+01  0.29188462859E+01  0.00000000000E+00 0. -1.
         13   -1    0    0    0    0 -0.00000000000E+00 -0.00000000000E+00 -0.10000000000E+04  0.10000000000E+04  0.00000000000E+00 0.  1.
    9000005    2    1    2  501    0  0.27757149389E+02  0.45271304121E+02 -0.58868914203E+03  0.59108880182E+03  0.33339723459E+01 0.  0.
         13    1    3    3    0    0  0.32936093703E+01  0.62269460481E+01 -0.90344066106E+02  0.90618281822E+02  0.00000000000E+00 0.  1.
          3    1    3    3  501    0  0.24463540019E+02  0.39044358072E+02 -0.49834507593E+03  0.50047052000E+03  0.00000000000E+00 0.  1.
         -3    1    1    2    0  502 -0.27757149389E+02 -0.45271304121E+02 -0.40839201168E+03  0.41183004446E+03  0.00000000000E+00 0. -1.
<mgrwt>
<rscale>  1 0.30000000E+03</rscale>
<asrwt>0</asrwt>
<pdfrwt beam="1">  1       21 0.10614009E-01 0.30000000E+03</pdfrwt>
<pdfrwt beam="2">0</pdfrwt>
<totfact> 0.77326560E+03</totfact>
</mgrwt>
</event>
<event>
 6    1  0.6513574E-002  0.3000000E+03  0.7818608E-02  0.1093470E+00
         21   -1    0    0  501  502  0.00000000000E+00  0.00000000000E+00  0.24810949102E+01  0.24810949102E+01  0.00000000000E+00 0. -1.
         13   -1    0    0    0    0 -0.00000000000E+00 -0.00000000000E+00 -0.10000000000E+04  0.10000000000E+04  0.00000000000E+00 0.  1.
    9000005    2    1    2  501    0 -0.47636468316E+02 -0.13909675256E+02 -0.53504479961E+03  0.53735206935E+03  0.34053877082E+01 0.  0.
         13    1    3    3    0    0 -0.38876349103E+02 -0.11197442894E+02 -0.44960551333E+03  0.45142205403E+03  0.00000000000E+00 0.  1.
          1    1    3    3  501    0 -0.87601192128E+01 -0.27122323613E+01 -0.85439286277E+02  0.85930015318E+02  0.00000000000E+00 0.  1.
         -1    1    1    2    0  502  0.47636468316E+02  0.13909675256E+02 -0.46247410548E+03  0.46512902556E+03  0.00000000000E+00 0. -1.
<mgrwt>
<rscale>  1 0.30000000E+03</rscale>
<asrwt>0</asrwt>
<pdfrwt beam="1">  1       21 0.90221823E-02 0.30000000E+03</pdfrwt>
<pdfrwt beam="2">0</pdfrwt>
<totfact> 0.10332922E+04</totfact>
</mgrwt>
</event>
<event>
 6    1  0.6513574E-002  0.3000000E+03  0.7818608E-02  0.1093470E+00
         21   -1    0    0  501  502  0.00000000000E+00  0.00000000000E+00  0.13796865285E+01  0.13796865285E+01  0.00000000000E+00 0. -1.
         13   -1    0    0    0    0 -0.00000000000E+00 -0.00000000000E+00 -0.10000000000E+04  0.10000000000E+04  0.00000000000E+00 0.  1.
    9000005    2    1    2  501    0 -0.19880081852E+02  0.31177543701E+02 -0.50296868869E+03  0.50435072356E+03  0.49893549182E+01 0.  0.
         13    1    3    3    0    0 -0.18601484091E+02  0.30703154680E+02 -0.48885130711E+03  0.49016762376E+03  0.00000000000E+00 0.  1.
          3    1    3    3  501    0 -0.12785977602E+01  0.47438902194E+00 -0.14117381587E+02  0.14183099804E+02  0.00000000000E+00 0.  1.
         -1    1    1    2    0  502  0.19880081852E+02 -0.31177543701E+02 -0.49565162478E+03  0.49702896297E+03  0.00000000000E+00 0. -1.
<mgrwt>
<rscale>  1 0.30000000E+03</rscale>
<asrwt>0</asrwt>
<pdfrwt beam="1">  1       21 0.50170525E-02 0.30000000E+03</pdfrwt>
<pdfrwt beam="2">0</pdfrwt>
<totfact> 0.28637941E+04</totfact>
</mgrwt>
</event>
<event>
 6    1  0.6513574E-002  0.3000000E+03  0.7818608E-02  0.1093470E+00
         21   -1    0    0  501  502  0.00000000000E+00  0.00000000000E+00  0.14856822195E+01  0.14856822195E+01  0.00000000000E+00 0. -1.
         13   -1    0    0    0    0 -0.00000000000E+00 -0.00000000000E+00 -0.10000000000E+04  0.10000000000E+04  0.00000000000E+00 0.  1.
    9000005    2    1    2  501    0 -0.39499738850E+00 -0.37147702804E+02 -0.62970281365E+03  0.63080787950E+03  0.35832219772E+01 0.  0.
         13    1    3    3    0    0 -0.19287806509E+01 -0.17266200803E+02 -0.29972988230E+03  0.30023298324E+03  0.00000000000E+00 0.  1.
          1    1    3    3  501    0  0.15337832624E+01 -0.19881502001E+02 -0.32997293135E+03  0.33057489626E+03  0.00000000000E+00 0.  1.
         -1    1    1    2    0  502  0.39499738850E+00  0.37147702804E+02 -0.36881150413E+03  0.37067780272E+03  0.00000000000E+00 0. -1.
<mgrwt>
<rscale>  1 0.30000000E+03</rscale>
<asrwt>0</asrwt>
<pdfrwt beam="1">  1       21 0.54024922E-02 0.30000000E+03</pdfrwt>
<pdfrwt beam="2">0</pdfrwt>
<totfact> 0.25235943E+04</totfact>
</mgrwt>
</event>
<event>
 6    1  0.6513574E-002  0.3000000E+03  0.7818608E-02  0.1093470E+00
         21   -1    0    0  501  502  0.00000000000E+00  0.00000000000E+00  0.15088019593E+01  0.15088019593E+01  0.00000000000E+00 0. -1.
         13   -1    0    0    0    0 -0.00000000000E+00 -0.00000000000E+00 -0.10000000000E+04  0.10000000000E+04  0.00000000000E+00 0.  1.
    9000005    2    1    2  501    0  0.18989185032E+02  0.24639282877E+02 -0.79863425918E+03  0.79924541076E+03  0.29771253549E+01 0.  0.
         13    1    3    3    0    0  0.74883854266E+01  0.74496832568E+01 -0.27663338240E+03  0.27683497242E+03  0.00000000000E+00 0.  1.
          1    1    3    3  501    0  0.11500799605E+02  0.17189599620E+02 -0.52200087678E+03  0.52241043834E+03  0.00000000000E+00 0.  1.
         -3    1    1    2    0  502 -0.18989185032E+02 -0.24639282877E+02 -0.19985693886E+03  0.20226339120E+03  0.00000000000E+00 0. -1.
<mgrwt>
<rscale>  1 0.30000000E+03</rscale>
<asrwt>0</asrwt>
<pdfrwt beam="1">  1       21 0.54865641E-02 0.30000000E+03</pdfrwt>
<pdfrwt beam="2">0</pdfrwt>
<totfact> 0.24576997E+04</totfact>
</mgrwt>
</event>
<event>
 6    1  0.6513574E-002  0.3000000E+03  0.7818608E-02  0.1093470E+00
         21   -1    0    0  501  502  0.00000000000E+00  0.00000000000E+00  0.12601593444E+02  0.12601593444E+02  0.00000000000E+00 0. -1.
         13   -1    0    0    0    0 -0.00000000000E+00 -0.00000000000E+00 -0.10000000000E+04  0.10000000000E+04  0.00000000000E+00 0.  1.
    9000005    2    1    2  501    0 -0.81317559298E+02 -0.75331832083E+02 -0.41468016417E+03  0.42925468505E+03  0.35377540223E+01 0.  0.
         13    1    3    3    0    0 -0.51605338976E+02 -0.47639773910E+02 -0.26926216235E+03  0.27827103900E+03  0.00000000000E+00 0.  1.
          3    1    3    3  501    0 -0.29712220322E+02 -0.27692058173E+02 -0.14541800182E+03  0.15098364605E+03  0.00000000000E+00 0.  1.
         -1    1    1    2    0  502  0.81317559298E+02  0.75331832083E+02 -0.57271824239E+03  0.58334690840E+03  0.00000000000E+00 0. -1.
<mgrwt>
<rscale>  1 0.30000000E+03</rscale>
<asrwt>0</asrwt>
<pdfrwt beam="1">  1       21 0.45824073E-01 0.30000000E+03</pdfrwt>
<pdfrwt beam="2">0</pdfrwt>
<totfact> 0.45322045E+02</totfact>
</mgrwt>
</event>
<event>
 6    1  0.6513574E-002  0.3000000E+03  0.7818608E-02  0.1093470E+00
         21   -1    0    0  501  502  0.00000000000E+00  0.00000000000E+00  0.24707868146E+01  0.24707868146E+01  0.00000000000E+00 0. -1.
         13   -1    0    0    0    0 -0.00000000000E+00 -0.00000000000E+00 -0.10000000000E+04  0.10000000000E+04  0.00000000000E+00 0.  1.
    9000005    2    1    2  501    0  0.81484591977E+01 -0.44395081619E+02 -0.70793730821E+03  0.70938241774E+03  0.32956918059E+01 0.  0.
         13    1    3    3    0    0  0.22752351051E+00 -0.46968485711E+01 -0.62195557726E+02  0.62373067540E+02  0.00000000000E+00 0.  1.
          3    1    3    3  501    0  0.79209356871E+01 -0.39698233048E+02 -0.64574175048E+03  0.64700935020E+03  0.00000000000E+00 0.  1.
         -1    1    1    2    0  502 -0.81484591977E+01  0.44395081619E+02 -0.28959190498E+03  0.29308836908E+03  0.00000000000E+00 0. -1.
<mgrwt>
<rscale>  1 0.30000000E+03</rscale>
<asrwt>0</asrwt>
<pdfrwt beam="1">  1       21 0.89846983E-02 0.30000000E+03</pdfrwt>
<pdfrwt beam="2">0</pdfrwt>
<totfact> 0.10409421E+04</totfact>
</mgrwt>
</event>
<event>
 6    1  0.6513574E-002  0.3000000E+03  0.7818608E-02  0.1093470E+00
         21   -1    0    0  501  502  0.00000000000E+00  0.00000000000E+00  0.10825790651E+01  0.10825790651E+01  0.00000000000E+00 0. -1.
         13   -1    0    0    0    0 -0.00000000000E+00 -0.00000000000E+00 -0.10000000000E+04  0.10000000000E+04  0.00000000000E+00 0.  1.
    9000005    2    1    2  501    0 -0.15197794987E+02 -0.28672685043E+02 -0.57527134316E+03  0.57619542339E+03  0.33093563317E+01 0.  0.
         13    1    3    3    0    0 -0.12084031926E+02 -0.24201894679E+02 -0.49595927802E+03  0.49669644753E+03  0.00000000000E+00 0.  1.
          1    1    3    3  501    0 -0.31137630612E+01 -0.44707903640E+01 -0.79312065140E+02  0.79498975865E+02  0.00000000000E+00 0.  1.
         -3    1    1    2    0  502  0.15197794987E+02  0.28672685043E+02 -0.42364607778E+03  0.42488715567E+03  0.00000000000E+00 0. -1.
<mgrwt>
<rscale>  1 0.30000000E+03</rscale>
<asrwt>0</asrwt>
<pdfrwt beam="1">  1       21 0.39366594E-02 0.30000000E+03</pdfrwt>
<pdfrwt beam="2">0</pdfrwt>
<totfact> 0.43192438E+04</totfact>
</mgrwt>
</event>
<event>
 6    1  0.6513574E-002  0.3000000E+03  0.7818608E-02  0.1093470E+00
         21   -1    0    0  501  502  0.00000000000E+00  0.00000000000E+00  0.30910689001E+01  0.30910689001E+01  0.00000000000E+00 0. -1.
         13   -1    0    0    0    0 -0.00000000000E+00 -0.00000000000E+00 -0.10000000000E+04  0.10000000000E+04  0.00000000000E+00 0.  1.
    9000005    2    1    2  501    0  0.12770392575E+02 -0.39420903680E+02 -0.83263742686E+03  0.83367378029E+03  0.31299789081E+01 0.  0.
         13    1    3    3    0    0  0.11307736108E+02 -0.36179393850E+02 -0.77545215056E+03  0.77637803372E+03  0.00000000000E+00 0.  1.
          1    1    3    3  501    0  0.14626564665E+01 -0.32415098299E+01 -0.57185276299E+02  0.57295746572E+02  0.00000000000E+00 0.  1.
         -3    1    1    2    0  502 -0.12770392575E+02  0.39420903680E+02 -0.16427150424E+03  0.16941728861E+03  0.00000000000E+00 0. -1.
<mgrwt>
<rscale>  1 0.30000000E+03</rscale>
<asrwt>0</asrwt>
<pdfrwt beam="1">  1       21 0.11240274E-01 0.30000000E+03</pdfrwt>
<pdfrwt beam="2">0</pdfrwt>
<totfact> 0.69752481E+03</totfact>
</mgrwt>
</event>
<event>
 6    1  0.6513574E-002  0.3000000E+03  0.7818608E-02  0.1093470E+00
         21   -1    0    0  501  502  0.00000000000E+00  0.00000000000E+00  0.11253420316E+01  0.11253420316E+01  0.00000000000E+00 0. -1.
         13   -1    0    0    0    0 -0.00000000000E+00 -0.00000000000E+00 -0.10000000000E+04  0.10000000000E+04  0.00000000000E+00 0.  1.
    9000005    2    1    2  501    0  0.29688971018E+02 -0.97885366118E+01 -0.67882184347E+03  0.67954944971E+03  0.33330152440E+01 0.  0.
         13    1    3    3    0    0  0.29627626053E+02 -0.95633375841E+01 -0.66800729621E+03  0.66873238403E+03  0.00000000000E+00 0.  1.
          1    1    3    3  501    0  0.61344965268E-01 -0.22519902769E+00 -0.10814547253E+02  0.10817065688E+02  0.00000000000E+00 0.  1.
         -3    1    1    2    0  502 -0.29688971018E+02  0.97885366118E+01 -0.32005281450E+03  0.32157589232E+03  0.00000000000E+00 0. -1.
<mgrwt>
<rscale>  1 0.30000000E+03</rscale>
<asrwt>0</asrwt>
<pdfrwt beam="1">  1       21 0.40921615E-02 0.30000000E+03</pdfrwt>
<pdfrwt beam="2">0</pdfrwt>
<totfact> 0.40463992E+04</totfact>
</mgrwt>
</event>
<event>
 6    1  0.6513574E-002  0.3000000E+03  0.7818608E-02  0.1093470E+00
         21   -1    0    0  501  502  0.00000000000E+00  0.00000000000E+00  0.11885184957E+01  0.11885184957E+01  0.00000000000E+00 0. -1.
         13   -1    0    0    0    0 -0.00000000000E+00 -0.00000000000E+00 -0.10000000000E+04  0.10000000000E+04  0.00000000000E+00 0.  1.
    9000005    2    1    2  501    0  0.10727566720E+02 -0.30385744348E+02 -0.32496071689E+03  0.32656771603E+03  0.29379388229E+01 0.  0.
         13    1    3    3    0    0  0.10061409613E+02 -0.28810035039E+02 -0.31321198273E+03  0.31469508450E+03  0.00000000000E+00 0.  1.
          3    1    3    3  501    0  0.66615710673E+00 -0.15757093098E+01 -0.11748734159E+02  0.11872631531E+02  0.00000000000E+00 0.  1.
         -3    1    1    2    0  502 -0.10727566720E+02  0.30385744348E+02 -0.67385076461E+03  0.67462080246E+03  0.00000000000E+00 0. -1.
<mgrwt>
<rscale>  1 0.30000000E+03</rscale>
<asrwt>0</asrwt>
<pdfrwt beam="1">  1       21 0.43218946E-02 0.30000000E+03</pdfrwt>
<pdfrwt beam="2">0</pdfrwt>
<totfact> 0.36898389E+04</totfact>
</mgrwt>
</event>
<event>
 6    1  0.6513574E-002  0.3000000E+03  0.7818608E-02  0.1093470E+00
         21   -1    0    0  501  502  0.00000000000E+00  0.00000000000E+00  0.27871598989E+01  0.27871598989E+01  0.00000000000E+00 0. -1.
         13   -1    0    0    0    0 -0.00000000000E+00 -0.00000000000E+00 -0.10000000000E+04  0.10000000000E+04  0.00000000000E+00 0.  1.
    9000005    2    1    2  501    0  0.16379563102E+02 -0.37066010372E+02 -0.81955867500E+03  0.82056975790E+03  0.40157944838E+01 0.  0.
         13    1    3    3    0    0  0.21944938440E+01 -0.91162772645E+01 -0.19241049487E+03  0.19263883526E+03  0.00000000000E+00 0.  1.
          3    1    3    3  501    0  0.14185069258E+02 -0.27949733108E+02 -0.62714818012E+03  0.62793092264E+03  0.00000000000E+00 0.  1.
         -1    1    1    2    0  502 -0.16379563102E+02  0.37066010372E+02 -0.17765416511E+03  0.18221740200E+03  0.00000000000E+00 0. -1.
<mgrwt>
<rscale>  1 0.30000000E+03</rscale>
<asrwt>0</asrwt>
<pdfrwt beam="1">  1       21 0.10135148E-01 0.30000000E+03</pdfrwt>
<pdfrwt beam="2">0</pdfrwt>
<totfact> 0.83992058E+03</totfact>
</mgrwt>
</event>
<event>
 6    1  0.6513574E-002  0.3000000E+03  0.7818608E-02  0.1093470E+00
         21   -1    0    0  501  502  0.00000000000E+00  0.00000000000E+00  0.22635534961E+01  0.22635534961E+01  0.00000000000E+00 0. -1.
         13   -1    0    0    0    0 -0.00000000000E+00 -0.00000000000E+00 -0.10000000000E+04  0.10000000000E+04  0.00000000000E+00 0.  1.
    9000005    2    1    2  501    0 -0.38940242778E+02  0.24300537095E+02 -0.37121050225E+03  0.37405847756E+03  0.39558869769E+01 0.  0.
         13    1    3    3    0    0 -0.24974194534E+02  0.13914348595E+02 -0.24108530440E+03  0.24277447042E+03  0.00000000000E+00 0.  1.
          1    1    3    3  501    0 -0.13966048244E+02  0.10386188500E+02 -0.13012519785E+03  0.13128400714E+03  0.00000000000E+00 0.  1.
         -1    1    1    2    0  502  0.38940242778E+02 -0.24300537095E+02 -0.62652594425E+03  0.62820507594E+03  0.00000000000E+00 0. -1.
<mgrwt>
<rscale>  1 0.30000000E+03</rscale>
<asrwt>0</asrwt>
<pdfrwt beam="1">  1       21 0.82311210E-02 0.30000000E+03</pdfrwt>
<pdfrwt beam="2">0</pdfrwt>
<totfact> 0.12150061E+04</totfact>
</mgrwt>
</event>
<event>
 6    1  0.6513574E-002  0.3000000E+03  0.7818608E-02  0.1093470E+00
         21   -1    0    0  501  502  0.00000000000E+00  0.00000000000E+00  0.14576413194E+01  0.14576413194E+01  0.00000000000E+00 0. -1.
         13   -1    0    0    0    0 -0.00000000000E+00 -0.00000000000E+00 -0.10000000000E+04  0.10000000000E+04  0.00000000000E+00 0.  1.
    9000005    2    1    2  501    0 -0.43650317935E+01 -0.37337378759E+02 -0.44636779527E+03  0.44800494972E+03  0.71479345895E+01 0.  0.
         13    1    3    3    0    0 -0.63418073797E+01 -0.30168961702E+02 -0.36084426660E+03  0.36215876285E+03  0.00000000000E+00 0.  1.
          1    1    3    3  501    0  0.19767755863E+01 -0.71684170568E+01 -0.85523528671E+02  0.85846186876E+02  0.00000000000E+00 0.  1.
         -1    1    1    2    0  502  0.43650317935E+01  0.37337378759E+02 -0.55217456341E+03  0.55345269160E+03  0.00000000000E+00 0. -1.
<mgrwt>
<rscale>  1 0.30000000E+03</rscale>
<asrwt>0</asrwt>
<pdfrwt beam="1">  1       21 0.53005251E-02 0.30000000E+03</pdfrwt>
<pdfrwt beam="2">0</pdfrwt>
<totfact> 0.26072446E+04</totfact>
</mgrwt>
</event>
<event>
 6    1  0.6513574E-002  0.3000000E+03  0.7818608E-02  0.1093470E+00
         21   -1    0    0  501  502  0.00000000000E+00  0.00000000000E+00  0.14794128710E+01  0.14794128710E+01  0.00000000000E+00 0. -1.
         13   -1    0    0    0    0 -0.00000000000E+00 -0.00000000000E+00 -0.10000000000E+04  0.10000000000E+04  0.00000000000E+00 0.  1.
    9000005    2    1    2  501    0 -0.27469505185E+02  0.20933201308E+02 -0.71809431713E+03  0.71893443320E+03  0.38076650490E+01 0.  0.
         13    1    3    3    0    0 -0.20878657072E+01  0.14990630117E+01 -0.78034116283E+02  0.78076434839E+02  0.00000000000E+00 0.  1.
          3    1    3    3  501    0 -0.25381639478E+02  0.19434138297E+02 -0.64006020085E+03  0.64085799836E+03  0.00000000000E+00 0.  1.
         -1    1    1    2    0  502  0.27469505185E+02 -0.20933201308E+02 -0.28042627000E+03  0.28254497967E+03  0.00000000000E+00 0. -1.
<mgrwt>
<rscale>  1 0.30000000E+03</rscale>
<asrwt>0</asrwt>
<pdfrwt beam="1">  1       21 0.53796945E-02 0.30000000E+03</pdfrwt>
<pdfrwt beam="2">0</pdfrwt>
<totfact> 0.25419332E+04</totfact>
</mgrwt>
</event>
<event>
 6    1  0.6513574E-002  0.3000000E+03  0.7818608E-02  0.1093470E+00
         21   -1    0    0  501  502  0.00000000000E+00  0.00000000000E+00  0.12387395336E+01  0.12387395336E+01  0.00000000000E+00 0. -1.
         13   -1    0    0    0    0 -0.00000000000E+00 -0.00000000000E+00 -0.10000000000E+04  0.10000000000E+04  0.00000000000E+00 0.  1.
    9000005    2    1    2  501    0  0.16830434905E+02  0.26483879468E+02 -0.72370202481E+03  0.72439538575E+03  0.44039505292E+01 0.  0.
         13    1    3    3    0    0  0.12107275095E+02  0.15305119886E+02 -0.42917478662E+03  0.42961823783E+03  0.00000000000E+00 0.  1.
          1    1    3    3  501    0  0.47231598100E+01  0.11178759583E+02 -0.29452723819E+03  0.29477714792E+03  0.00000000000E+00 0.  1.
         -1    1    1    2    0  502 -0.16830434905E+02 -0.26483879468E+02 -0.27505923566E+03  0.27684335378E+03  0.00000000000E+00 0. -1.
<mgrwt>
<rscale>  1 0.30000000E+03</rscale>
<asrwt>0</asrwt>
<pdfrwt beam="1">  1       21 0.45045169E-02 0.30000000E+03</pdfrwt>
<pdfrwt beam="2">0</pdfrwt>
<totfact> 0.34399574E+04</totfact>
</mgrwt>
</event>
<event>
 6    1  0.6513574E-002  0.3000000E+03  0.7818608E-02  0.1093470E+00
         21   -1    0    0  501  502  0.00000000000E+00  0.00000000000E+00  0.13362988577E+02  0.13362988577E+02  0.00000000000E+00 0. -1.
         13   -1    0    0    0    0 -0.00000000000E+00 -0.00000000000E+00 -0.10000000000E+04  0.10000000000E+04  0.00000000000E+00 0.  1.
    9000005    2    1    2  501    0  0.55685900990E+02  0.88543889186E+02 -0.27798666778E+03  0.29703467737E+03  0.34745099062E+01 0.  0.
         13    1    3    3    0    0  0.33036820772E+01  0.64045128703E+01 -0.17423079535E+02  0.18854596279E+02  0.00000000000E+00 0.  1.
          3    1    3    3  501    0  0.52382218913E+02  0.82139376316E+02 -0.26056358824E+03  0.27818008109E+03  0.00000000000E+00 0.  1.
         -3    1    1    2    0  502 -0.55685900990E+02 -0.88543889186E+02 -0.70865034365E+03  0.71632831120E+03  0.00000000000E+00 0. -1.
<mgrwt>
<rscale>  1 0.30000000E+03</rscale>
<asrwt>0</asrwt>
<pdfrwt beam="1">  1       21 0.48592788E-01 0.30000000E+03</pdfrwt>
<pdfrwt beam="2">0</pdfrwt>
<totfact> 0.39964200E+02</totfact>
</mgrwt>
</event>
<event>
 6    1  0.6513574E-002  0.3000000E+03  0.7818608E-02  0.1093470E+00
         21   -1    0    0  501  502  0.00000000000E+00  0.00000000000E+00  0.18421777037E+01  0.18421777037E+01  0.00000000000E+00 0. -1.
         13   -1    0    0    0    0 -0.00000000000E+00 -0.00000000000E+00 -0.10000000000E+04  0.10000000000E+04  0.00000000000E+00 0.  1.
    9000005    2    1    2  501    0 -0.31136885577E+02 -0.14006695182E+02 -0.80209647871E+03  0.80283025946E+03  0.34599415410E+01 0.  0.
         13    1    3    3    0    0 -0.80230402465E+01 -0.49209970454E+01 -0.24400686407E+03  0.24418831893E+03  0.00000000000E+00 0.  1.
          1    1    3    3  501    0 -0.23113845331E+02 -0.90856981369E+01 -0.55808961464E+03  0.55864194053E+03  0.00000000000E+00 0.  1.
         -3    1    1    2    0  502  0.31136885577E+02  0.14006695182E+02 -0.19606134359E+03  0.19901191825E+03  0.00000000000E+00 0. -1.
<mgrwt>
<rscale>  1 0.30000000E+03</rscale>
<asrwt>0</asrwt>
<pdfrwt beam="1">  1       21 0.66988421E-02 0.30000000E+03</pdfrwt>
<pdfrwt beam="2">0</pdfrwt>
<totfact> 0.17416401E+04</totfact>
</mgrwt>
</event>
<event>
 6    1  0.6513574E-002  0.3000000E+03  0.7818608E-02  0.1093470E+00
         21   -1    0    0  501  502  0.00000000000E+00  0.00000000000E+00  0.27270962612E+01  0.27270962612E+01  0.00000000000E+00 0. -1.
         13   -1    0    0    0    0 -0.00000000000E+00 -0.00000000000E+00 -0.10000000000E+04  0.10000000000E+04  0.00000000000E+00 0.  1.
    9000005    2    1    2  501    0 -0.34420277716E+02  0.13772414618E+02 -0.14643260104E+03  0.15107948391E+03  0.28405790791E+01 0.  0.
         13    1    3    3    0    0 -0.27711269071E+02  0.10627259213E+02 -0.11267700930E+03  0.11652021926E+03  0.00000000000E+00 0.  1.
          1    1    3    3  501    0 -0.67090086454E+01  0.31451554052E+01 -0.33755591746E+02  0.34559264657E+02  0.00000000000E+00 0.  1.
         -3    1    1    2    0  502  0.34420277716E+02 -0.13772414618E+02 -0.85084030270E+03  0.85164761235E+03  0.00000000000E+00 0. -1.
<mgrwt>
<rscale>  1 0.30000000E+03</rscale>
<asrwt>0</asrwt>
<pdfrwt beam="1">  1       21 0.99167346E-02 0.30000000E+03</pdfrwt>
<pdfrwt beam="2">0</pdfrwt>
<totfact> 0.87326662E+03</totfact>
</mgrwt>
</event>
<event>
 6    1  0.6513574E-002  0.3000000E+03  0.7818608E-02  0.1093470E+00
         21   -1    0    0  501  502  0.00000000000E+00  0.00000000000E+00  0.16681399161E+01  0.16681399161E+01  0.00000000000E+00 0. -1.
         13   -1    0    0    0    0 -0.00000000000E+00 -0.00000000000E+00 -0.10000000000E+04  0.10000000000E+04  0.00000000000E+00 0.  1.
    9000005    2    1    2  501    0  0.36069399369E+02  0.10906291595E+02 -0.30915841330E+03  0.31146527950E+03  0.34273978398E+01 0.  0.
         13    1    3    3    0    0  0.99106139189E-01  0.33033987375E+00 -0.28581599599E+01  0.28788929843E+01  0.00000000000E+00 0.  1.
          1    1    3    3  501    0  0.35970293230E+02  0.10575951721E+02 -0.30630025334E+03  0.30858638652E+03  0.00000000000E+00 0.  1.
         -1    1    1    2    0  502 -0.36069399369E+02 -0.10906291595E+02 -0.68917344679E+03  0.69020286041E+03  0.00000000000E+00 0. -1.
<mgrwt>
<rscale>  1 0.30000000E+03</rscale>
<asrwt>0</asrwt>
<pdfrwt beam="1">  1       21 0.60659761E-02 0.30000000E+03</pdfrwt>
<pdfrwt beam="2">0</pdfrwt>
<totfact> 0.20677878E+04</totfact>
</mgrwt>
</event>
<event>
 6    1  0.6513574E-002  0.3000000E+03  0.7818608E-02  0.1093470E+00
         21   -1    0    0  501  502  0.00000000000E+00  0.00000000000E+00  0.23510513102E+01  0.23510513102E+01  0.00000000000E+00 0. -1.
         13   -1    0    0    0    0 -0.00000000000E+00 -0.00000000000E+00 -0.10000000000E+04  0.10000000000E+04  0.00000000000E+00 0.  1.
    9000005    2    1    2  501    0  0.28730296522E+02  0.34926538627E+02 -0.67870583095E+03  0.68021753025E+03  0.29984082157E+01 0.  0.
         13    1    3    3    0    0  0.24625833228E+02  0.28683135977E+02 -0.57788373218E+03  0.57911895313E+03  0.00000000000E+00 0.  1.
          1    1    3    3  501    0  0.41044632942E+01  0.62434026497E+01 -0.10082209877E+03  0.10109857712E+03  0.00000000000E+00 0.  1.
         -1    1    1    2    0  502 -0.28730296522E+02 -0.34926538627E+02 -0.31894311774E+03  0.32213352106E+03  0.00000000000E+00 0. -1.
<mgrwt>
<rscale>  1 0.30000000E+03</rscale>
<asrwt>0</asrwt>
<pdfrwt beam="1">  1       21 0.85492955E-02 0.30000000E+03</pdfrwt>
<pdfrwt beam="2">0</pdfrwt>
<totfact> 0.11364756E+04</totfact>
</mgrwt>
</event>
<event>
 6    1  0.6513574E-002  0.3000000E+03  0.7818608E-02  0.1093470E+00
         21   -1    0    0  501  502  0.00000000000E+00  0.00000000000E+00  0.14226289305E+01  0.14226289305E+01  0.00000000000E+00 0. -1.
         13   -1    0    0    0    0 -0.00000000000E+00 -0.00000000000E+00 -0.10000000000E+04  0.10000000000E+04  0.00000000000E+00 0.  1.
    9000005    2    1    2  501    0 -0.32734647690E+02 -0.14957480027E+02 -0.35373393355E+03  0.35557563290E+03  0.33243947022E+01 0.  0.
         13    1    3    3    0    0 -0.41770703886E+01 -0.15292873742E+01 -0.54978629242E+02  0.55158284149E+02  0.00000000000E+00 0.  1.
          1    1    3    3  501    0 -0.28557577301E+02 -0.13428192653E+02 -0.29875530431E+03  0.30041734875E+03  0.00000000000E+00 0.  1.
         -3    1    1    2    0  502  0.32734647690E+02  0.14957480027E+02 -0.64484343752E+03  0.64584699603E+03  0.00000000000E+00 0. -1.
<mgrwt>
<rscale>  1 0.30000000E+03</rscale>
<asrwt>0</asrwt>
<pdfrwt beam="1">  1       21 0.51732070E-02 0.30000000E+03</pdfrwt>
<pdfrwt beam="2">0</pdfrwt>
<totfact> 0.27178642E+04</totfact>
</mgrwt>
</event>
<event>
 6    1  0.6513574E-002  0.3000000E+03  0.7818608E-02  0.1093470E+00
         21   -1    0    0  501  502  0.00000000000E+00  0.00000000000E+00  0.17932729569E+01  0.17932729569E+01  0.00000000000E+00 0. -1.
         13   -1    0    0    0    0 -0.00000000000E+00 -0.00000000000E+00 -0.10000000000E+04  0.10000000000E+04  0.00000000000E+00 0.  1.
    9000005    2    1    2  501    0 -0.33225249043E+02 -0.12531677821E+01 -0.80883228774E+03  0.80952219904E+03  0.33216631352E+01 0.  0.
         13    1    3    3    0    0 -0.30524662164E+02 -0.18435457762E+01 -0.72588893604E+03  0.72653279425E+03  0.00000000000E+00 0.  1.
          1    1    3    3  501    0 -0.27005868783E+01  0.59037799405E+00 -0.82943351700E+02  0.82989404787E+02  0.00000000000E+00 0.  1.
         -3    1    1    2    0  502  0.33225249043E+02  0.12531677821E+01 -0.18937443931E+03  0.19227107392E+03  0.00000000000E+00 0. -1.
<mgrwt>
<rscale>  1 0.30000000E+03</rscale>
<asrwt>0</asrwt>
<pdfrwt beam="1">  1       21 0.65210063E-02 0.30000000E+03</pdfrwt>
<pdfrwt beam="2">0</pdfrwt>
<totfact> 0.18247811E+04</totfact>
</mgrwt>
</event>
<event>
 6    1  0.6513574E-002  0.3000000E+03  0.7818608E-02  0.1093470E+00
         21   -1    0    0  501  502  0.00000000000E+00  0.00000000000E+00  0.10438262714E+01  0.10438262714E+01  0.00000000000E+00 0. -1.
         13   -1    0    0    0    0 -0.00000000000E+00 -0.00000000000E+00 -0.10000000000E+04  0.10000000000E+04  0.00000000000E+00 0.  1.
    9000005    2    1    2  501    0  0.35189508936E+01 -0.32011568191E+02 -0.52004708526E+03  0.52105316122E+03  0.32097386239E+01 0.  0.
         13    1    3    3    0    0  0.29144753033E-01 -0.48590475177E+00 -0.17093819664E+02  0.17100749210E+02  0.00000000000E+00 0.  1.
          1    1    3    3  501    0  0.34898061405E+01 -0.31525663440E+02 -0.50295326559E+03  0.50395241201E+03  0.00000000000E+00 0.  1.
         -1    1    1    2    0  502 -0.35189508936E+01  0.32011568191E+02 -0.47890908847E+03  0.47999066505E+03  0.00000000000E+00 0. -1.
<mgrwt>
<rscale>  1 0.30000000E+03</rscale>
<asrwt>0</asrwt>
<pdfrwt beam="1">  1       21 0.37957399E-02 0.30000000E+03</pdfrwt>
<pdfrwt beam="2">0</pdfrwt>
<totfact> 0.45922544E+04</totfact>
</mgrwt>
</event>
<event>
 6    1  0.6513574E-002  0.3000000E+03  0.7818608E-02  0.1093470E+00
         21   -1    0    0  501  502  0.00000000000E+00  0.00000000000E+00  0.13754009087E+01  0.13754009087E+01  0.00000000000E+00 0. -1.
         13   -1    0    0    0    0 -0.00000000000E+00 -0.00000000000E+00 -0.10000000000E+04  0.10000000000E+04  0.00000000000E+00 0.  1.
    9000005    2    1    2  501    0  0.32245483064E+02  0.14708189547E+02 -0.64488161224E+03  0.64586140292E+03  0.29250575523E+01 0.  0.
         13    1    3    3    0    0  0.47760350183E+01  0.15105425212E+01 -0.10690908662E+03  0.10702637549E+03  0.00000000000E+00 0.  1.
          3    1    3    3  501    0  0.27469448046E+02  0.13197647026E+02 -0.53797252562E+03  0.53883502743E+03  0.00000000000E+00 0.  1.
         -3    1    1    2    0  502 -0.32245483064E+02 -0.14708189547E+02 -0.35374298685E+03  0.35551399799E+03  0.00000000000E+00 0. -1.
<mgrwt>
<rscale>  1 0.30000000E+03</rscale>
<asrwt>0</asrwt>
<pdfrwt beam="1">  1       21 0.50014684E-02 0.30000000E+03</pdfrwt>
<pdfrwt beam="2">0</pdfrwt>
<totfact> 0.28790240E+04</totfact>
</mgrwt>
</event>
<event>
 6    1  0.6513574E-002  0.3000000E+03  0.7818608E-02  0.1093470E+00
         21   -1    0    0  501  502  0.00000000000E+00  0.00000000000E+00  0.16404601554E+01  0.16404601554E+01  0.00000000000E+00 0. -1.
         13   -1    0    0    0    0 -0.00000000000E+00 -0.00000000000E+00 -0.10000000000E+04  0.10000000000E+04  0.00000000000E+00 0.  1.
    9000005    2    1    2  501    0  0.14664426654E+02 -0.32517503462E+02 -0.73543178743E+03  0.73630400124E+03  0.33518409062E+01 0.  0.
         13    1    3    3    0    0  0.71026200300E+01 -0.11820693046E+02 -0.28769565798E+03  0.28802598427E+03  0.00000000000E+00 0.  1.
          3    1    3    3  501    0  0.75618066244E+01 -0.20696810417E+02 -0.44773612945E+03  0.44827801697E+03  0.00000000000E+00 0.  1.
         -3    1    1    2    0  502 -0.14664426654E+02  0.32517503462E+02 -0.26292775242E+03  0.26533645892E+03  0.00000000000E+00 0. -1.
<mgrwt>
<rscale>  1 0.30000000E+03</rscale>
<asrwt>0</asrwt>
<pdfrwt beam="1">  1       21 0.59653222E-02 0.30000000E+03</pdfrwt>
<pdfrwt beam="2">0</pdfrwt>
<totfact> 0.21283345E+04</totfact>
</mgrwt>
</event>
<event>
 6    1  0.6513574E-002  0.3000000E+03  0.7818608E-02  0.1093470E+00
         21   -1    0    0  501  502  0.00000000000E+00  0.00000000000E+00  0.16122635165E+01  0.16122635165E+01  0.00000000000E+00 0. -1.
         13   -1    0    0    0    0 -0.00000000000E+00 -0.00000000000E+00 -0.10000000000E+04  0.10000000000E+04  0.00000000000E+00 0.  1.
    9000005    2    1    2  501    0  0.23712224122E+02 -0.31800326991E+02 -0.42860530364E+03  0.43045068292E+03  0.34283743281E+01 0.  0.
         13    1    3    3    0    0  0.22778456354E+02 -0.29361087426E+02 -0.39509475554E+03  0.39683850290E+03  0.00000000000E+00 0.  1.
          1    1    3    3  501    0  0.93376776826E+00 -0.24392395652E+01 -0.33510548101E+02  0.33612180023E+02  0.00000000000E+00 0.  1.
         -1    1    1    2    0  502 -0.23712224122E+02  0.31800326991E+02 -0.56978243284E+03  0.57116158059E+03  0.00000000000E+00 0. -1.
<mgrwt>
<rscale>  1 0.30000000E+03</rscale>
<asrwt>0</asrwt>
<pdfrwt beam="1">  1       21 0.58627888E-02 0.30000000E+03</pdfrwt>
<pdfrwt beam="2">0</pdfrwt>
<totfact> 0.21928995E+04</totfact>
</mgrwt>
</event>
<event>
 6    1  0.6513574E-002  0.3000000E+03  0.7818608E-02  0.1093470E+00
         21   -1    0    0  501  502  0.00000000000E+00  0.00000000000E+00  0.20043207546E+01  0.20043207546E+01  0.00000000000E+00 0. -1.
         13   -1    0    0    0    0 -0.00000000000E+00 -0.00000000000E+00 -0.10000000000E+04  0.10000000000E+04  0.00000000000E+00 0.  1.
    9000005    2    1    2  501    0 -0.37781735062E+02 -0.22948559400E+02 -0.56366517298E+03  0.56543006069E+03  0.62153368843E+01 0.  0.
         13    1    3    3    0    0 -0.52237653507E+01 -0.34438798351E+01 -0.11120382257E+03  0.11137970276E+03  0.00000000000E+00 0.  1.
          3    1    3    3  501    0 -0.32557969711E+02 -0.19504679565E+02 -0.45246135042E+03  0.45405035793E+03  0.00000000000E+00 0.  1.
         -1    1    1    2    0  502  0.37781735062E+02  0.22948559400E+02 -0.43433050626E+03  0.43657426007E+03  0.00000000000E+00 0. -1.
<mgrwt>
<rscale>  1 0.30000000E+03</rscale>
<asrwt>0</asrwt>
<pdfrwt beam="1">  1       21 0.72884545E-02 0.30000000E+03</pdfrwt>
<pdfrwt beam="2">0</pdfrwt>
<totfact> 0.15038450E+04</totfact>
</mgrwt>
</event>
<event>
 6    1  0.6513574E-002  0.3000000E+03  0.7818608E-02  0.1093470E+00
         21   -1    0    0  501  502  0.00000000000E+00  0.00000000000E+00  0.15693739539E+01  0.15693739539E+01  0.00000000000E+00 0. -1.
         13   -1    0    0    0    0 -0.00000000000E+00 -0.00000000000E+00 -0.10000000000E+04  0.10000000000E+04  0.00000000000E+00 0.  1.
    9000005    2    1    2  501    0 -0.37617142177E+02 -0.53191616956E+01 -0.63868721600E+03  0.63982545356E+03  0.34508377498E+01 0.  0.
         13    1    3    3    0    0 -0.91329307108E+01  0.17318399800E-01 -0.14165045823E+03  0.14194457735E+03  0.00000000000E+00 0.  1.
          1    1    3    3  501    0 -0.28484211466E+02 -0.53364800954E+01 -0.49703675777E+03  0.49788087621E+03  0.00000000000E+00 0.  1.
         -3    1    1    2    0  502  0.37617142177E+02  0.53191616956E+01 -0.35974341005E+03  0.36174392039E+03  0.00000000000E+00 0. -1.
<mgrwt>
<rscale>  1 0.30000000E+03</rscale>
<asrwt>0</asrwt>
<pdfrwt beam="1">  1       21 0.57068264E-02 0.30000000E+03</pdfrwt>
<pdfrwt beam="2">0</pdfrwt>
<totfact> 0.22970933E+04</totfact>
</mgrwt>
</event>
<event>
 6    1  0.6513574E-002  0.3000000E+03  0.7818608E-02  0.1093470E+00
         21   -1    0    0  501  502  0.00000000000E+00  0.00000000000E+00  0.17542897904E+01  0.17542897904E+01  0.00000000000E+00 0. -1.
         13   -1    0    0    0    0 -0.00000000000E+00 -0.00000000000E+00 -0.10000000000E+04  0.10000000000E+04  0.00000000000E+00 0.  1.
    9000005    2    1    2  501    0  0.41186775729E+02  0.22937275025E+01 -0.42225589606E+03  0.42428924523E+03  0.44396151482E+01 0.  0.
         13    1    3    3    0    0  0.16551276550E+02  0.30903000594E+01 -0.17394568845E+03  0.17475868287E+03  0.00000000000E+00 0.  1.
          1    1    3    3  501    0  0.24635499179E+02 -0.79657255689E+00 -0.24831020761E+03  0.24953056236E+03  0.00000000000E+00 0.  1.
         -1    1    1    2    0  502 -0.41186775729E+02 -0.22937275025E+01 -0.57598981415E+03  0.57746504456E+03  0.00000000000E+00 0. -1.
<mgrwt>
<rscale>  1 0.30000000E+03</rscale>
<asrwt>0</asrwt>
<pdfrwt beam="1">  1       21 0.63792491E-02 0.30000000E+03</pdfrwt>
<pdfrwt beam="2">0</pdfrwt>
<totfact> 0.18955258E+04</totfact>
</mgrwt>
</event>
<event>
 6    1  0.6513574E-002  0.3000000E+03  0.7818608E-02  0.1093470E+00
         21   -1    0    0  501  502  0.00000000000E+00  0.00000000000E+00  0.31974473568E+01  0.31974473568E+01  0.00000000000E+00 0. -1.
         13   -1    0    0    0    0 -0.00000000000E+00 -0.00000000000E+00 -0.10000000000E+04  0.10000000000E+04  0.00000000000E+00 0.  1.
    9000005    2    1    2  501    0 -0.55417173392E+02  0.90743242833E+01 -0.44368123653E+03  0.44723288301E+03  0.32871766999E+01 0.  0.
         13    1    3    3    0    0 -0.53167224580E+02  0.93538987538E+01 -0.42551343512E+03  0.42892415723E+03  0.00000000000E+00 0.  1.
          1    1    3    3  501    0 -0.22499488120E+01 -0.27957447053E+00 -0.18167801407E+02  0.18308725776E+02  0.00000000000E+00 0.  1.
         -3    1    1    2    0  502  0.55417173392E+02 -0.90743242833E+01 -0.55312131612E+03  0.55596456435E+03  0.00000000000E+00 0. -1.
<mgrwt>
<rscale>  1 0.30000000E+03</rscale>
<asrwt>0</asrwt>
<pdfrwt beam="1">  1       21 0.11627106E-01 0.30000000E+03</pdfrwt>
<pdfrwt beam="2">0</pdfrwt>
<totfact> 0.65618714E+03</totfact>
</mgrwt>
</event>
<event>
 6    1  0.6513574E-002  0.3000000E+03  0.7818608E-02  0.1093470E+00
         21   -1    0    0  501  502  0.00000000000E+00  0.00000000000E+00  0.14518455275E+01  0.14518455275E+01  0.00000000000E+00 0. -1.
         13   -1    0    0    0    0 -0.00000000000E+00 -0.00000000000E+00 -0.10000000000E+04  0.10000000000E+04  0.00000000000E+00 0.  1.
    9000005    2    1    2  501    0 -0.11954375455E+02 -0.33686175903E+02 -0.32954839873E+03  0.33149786298E+03  0.33197167646E+01 0.  0.
         13    1    3    3    0    0 -0.57443071141E+01 -0.13600406540E+02 -0.12332343551E+03  0.12420401712E+03  0.00000000000E+00 0.  1.
          3    1    3    3  501    0 -0.62100683411E+01 -0.20085769364E+02 -0.20622496322E+03  0.20729384586E+03  0.00000000000E+00 0.  1.
         -3    1    1    2    0  502  0.11954375455E+02  0.33686175903E+02 -0.66899975574E+03  0.66995398254E+03  0.00000000000E+00 0. -1.
<mgrwt>
<rscale>  1 0.30000000E+03</rscale>
<asrwt>0</asrwt>
<pdfrwt beam="1">  1       21 0.52794494E-02 0.30000000E+03</pdfrwt>
<pdfrwt beam="2">0</pdfrwt>
<totfact> 0.26250690E+04</totfact>
</mgrwt>
</event>
<event>
 6    1  0.6513574E-002  0.3000000E+03  0.7818608E-02  0.1093470E+00
         21   -1    0    0  501  502  0.00000000000E+00  0.00000000000E+00  0.14982957892E+01  0.14982957892E+01  0.00000000000E+00 0. -1.
         13   -1    0    0    0    0 -0.00000000000E+00 -0.00000000000E+00 -0.10000000000E+04  0.10000000000E+04  0.00000000000E+00 0.  1.
    9000005    2    1    2  501    0 -0.33943424123E+02 -0.16686657605E+02 -0.59711941034E+03  0.59833784830E+03  0.50980315214E+01 0.  0.
         13    1    3    3    0    0 -0.91798909460E+01 -0.60618642898E+01 -0.14552378911E+03  0.14593899340E+03  0.00000000000E+00 0.  1.
          3    1    3    3  501    0 -0.24763533177E+02 -0.10624793315E+02 -0.45159562123E+03  0.45239885490E+03  0.00000000000E+00 0.  1.
         -1    1    1    2    0  502  0.33943424123E+02  0.16686657605E+02 -0.40138229388E+03  0.40316044749E+03  0.00000000000E+00 0. -1.
<mgrwt>
<rscale>  1 0.30000000E+03</rscale>
<asrwt>0</asrwt>
<pdfrwt beam="1">  1       21 0.54483598E-02 0.30000000E+03</pdfrwt>
<pdfrwt beam="2">0</pdfrwt>
<totfact> 0.24873108E+04</totfact>
</mgrwt>
</event>
<event>
 6    1  0.6513574E-002  0.3000000E+03  0.7818608E-02  0.1093470E+00
         21   -1    0    0  501  502  0.00000000000E+00  0.00000000000E+00  0.99669411980E+00  0.99669411980E+00  0.00000000000E+00 0. -1.
         13   -1    0    0    0    0 -0.00000000000E+00 -0.00000000000E+00 -0.10000000000E+04  0.10000000000E+04  0.00000000000E+00 0.  1.
    9000005    2    1    2  501    0 -0.37101055859E+00 -0.31490236100E+02 -0.50899335523E+03  0.50997579400E+03  0.30499473627E+01 0.  0.
         13    1    3    3    0    0  0.76838834022E+00 -0.35846452936E+01 -0.68324965247E+02  0.68423248816E+02  0.00000000000E+00 0.  1.
          3    1    3    3  501    0 -0.11393988988E+01 -0.27905590807E+02 -0.44066838998E+03  0.44155254519E+03  0.00000000000E+00 0.  1.
         -1    1    1    2    0  502  0.37101055859E+00  0.31490236100E+02 -0.49000995065E+03  0.49102090012E+03  0.00000000000E+00 0. -1.
<mgrwt>
<rscale>  1 0.30000000E+03</rscale>
<asrwt>0</asrwt>
<pdfrwt beam="1">  1       21 0.36243499E-02 0.30000000E+03</pdfrwt>
<pdfrwt beam="2">0</pdfrwt>
<totfact> 0.49626072E+04</totfact>
</mgrwt>
</event>
<event>
 6    1  0.6513574E-002  0.3000000E+03  0.7818608E-02  0.1093470E+00
         21   -1    0    0  501  502  0.00000000000E+00  0.00000000000E+00  0.10646777258E+02  0.10646777258E+02  0.00000000000E+00 0. -1.
         13   -1    0    0    0    0 -0.00000000000E+00 -0.00000000000E+00 -0.10000000000E+04  0.10000000000E+04  0.00000000000E+00 0.  1.
    9000005    2    1    2  501    0  0.53265131001E+01  0.10191551322E+03 -0.56851483755E+03  0.57761087802E+03  0.31721152393E+01 0.  0.
         13    1    3    3    0    0 -0.34944127861E+00  0.14100962406E+02 -0.77747465567E+02  0.79016628959E+02  0.00000000000E+00 0.  1.
          1    1    3    3  501    0  0.56759543787E+01  0.87814550816E+02 -0.49076737199E+03  0.49859424906E+03  0.00000000000E+00 0.  1.
         -3    1    1    2    0  502 -0.53265131001E+01 -0.10191551322E+03 -0.42083838519E+03  0.43303589923E+03  0.00000000000E+00 0. -1.
<mgrwt>
<rscale>  1 0.30000000E+03</rscale>
<asrwt>0</asrwt>
<pdfrwt beam="1">  1       21 0.38715635E-01 0.30000000E+03</pdfrwt>
<pdfrwt beam="2">0</pdfrwt>
<totfact> 0.64647777E+02</totfact>
</mgrwt>
</event>
<event>
 6    1  0.6513574E-002  0.3000000E+03  0.7818608E-02  0.1093470E+00
         21   -1    0    0  501  502  0.00000000000E+00  0.00000000000E+00  0.23798819620E+01  0.23798819620E+01  0.00000000000E+00 0. -1.
         13   -1    0    0    0    0 -0.00000000000E+00 -0.00000000000E+00 -0.10000000000E+04  0.10000000000E+04  0.00000000000E+00 0.  1.
    9000005    2    1    2  501    0 -0.20292254064E+02 -0.42406674843E+02 -0.36812499244E+03  0.37113174153E+03  0.35577895465E+01 0.  0.
         13    1    3    3    0    0 -0.12511993061E+02 -0.23409879459E+02 -0.21782387665E+03  0.21943521519E+03  0.00000000000E+00 0.  1.
          3    1    3    3  501    0 -0.77802610027E+01 -0.18996795384E+02 -0.15030111580E+03  0.15169652635E+03  0.00000000000E+00 0.  1.
         -3    1    1    2    0  502  0.20292254064E+02  0.42406674843E+02 -0.62949512560E+03  0.63124814043E+03  0.00000000000E+00 0. -1.
<mgrwt>
<rscale>  1 0.30000000E+03</rscale>
<asrwt>0</asrwt>
<pdfrwt beam="1">  1       21 0.86541345E-02 0.30000000E+03</pdfrwt>
<pdfrwt beam="2">0</pdfrwt>
<totfact> 0.11122892E+04</totfact>
</mgrwt>
</event>
<event>
 6    1  0.6513574E-002  0.3000000E+03  0.7818608E-02  0.1093470E+00
         21   -1    0    0  501  502  0.00000000000E+00  0.00000000000E+00  0.11101678067E+01  0.11101678067E+01  0.00000000000E+00 0. -1.
         13   -1    0    0    0    0 -0.00000000000E+00 -0.00000000000E+00 -0.10000000000E+04  0.10000000000E+04  0.00000000000E+00 0.  1.
    9000005    2    1    2  501    0  0.30279978081E+02  0.12498376333E+01 -0.29573384016E+03  0.29730139527E+03  0.33430894731E+01 0.  0.
         13    1    3    3    0    0  0.53200978342E+01 -0.53863900582E+00 -0.62809549106E+02  0.63036759370E+02  0.00000000000E+00 0.  1.
          1    1    3    3  501    0  0.24959880247E+02  0.17884766391E+01 -0.23292429105E+03  0.23426463590E+03  0.00000000000E+00 0.  1.
         -3    1    1    2    0  502 -0.30279978081E+02 -0.12498376333E+01 -0.70315599203E+03  0.70380877254E+03  0.00000000000E+00 0. -1.
<mgrwt>
<rscale>  1 0.30000000E+03</rscale>
<asrwt>0</asrwt>
<pdfrwt beam="1">  1       21 0.40369824E-02 0.30000000E+03</pdfrwt>
<pdfrwt beam="2">0</pdfrwt>
<totfact> 0.41400533E+04</totfact>
</mgrwt>
</event>
<event>
 6    1  0.6513574E-002  0.3000000E+03  0.7818608E-02  0.1093470E+00
         21   -1    0    0  501  502  0.00000000000E+00  0.00000000000E+00  0.14935220162E+01  0.14935220162E+01  0.00000000000E+00 0. -1.
         13   -1    0    0    0    0 -0.00000000000E+00 -0.00000000000E+00 -0.10000000000E+04  0.10000000000E+04  0.00000000000E+00 0.  1.
    9000005    2    1    2  501    0 -0.17755281930E+02  0.31422632067E+02 -0.67609458099E+03  0.67706777833E+03  0.37765285296E+01 0.  0.
         13    1    3    3    0    0 -0.12710925308E+01  0.47171389967E+01 -0.83604491739E+02  0.83747108102E+02  0.00000000000E+00 0.  1.
          3    1    3    3  501    0 -0.16484189399E+02  0.26705493070E+02 -0.59249008925E+03  0.59332067023E+03  0.00000000000E+00 0.  1.
         -3    1    1    2    0  502  0.17755281930E+02 -0.31422632067E+02 -0.32241189699E+03  0.32442574368E+03  0.00000000000E+00 0. -1.
<mgrwt>
<rscale>  1 0.30000000E+03</rscale>
<asrwt>0</asrwt>
<pdfrwt beam="1">  1       21 0.54310006E-02 0.30000000E+03</pdfrwt>
<pdfrwt beam="2">0</pdfrwt>
<totfact> 0.25009475E+04</totfact>
</mgrwt>
</event>
<event>
 6    1  0.6513574E-002  0.3000000E+03  0.7818608E-02  0.1093470E+00
         21   -1    0    0  501  502  0.00000000000E+00  0.00000000000E+00  0.17814693284E+01  0.17814693284E+01  0.00000000000E+00 0. -1.
         13   -1    0    0    0    0 -0.00000000000E+00 -0.00000000000E+00 -0.10000000000E+04  0.10000000000E+04  0.00000000000E+00 0.  1.
    9000005    2    1    2  501    0  0.31993089168E+02  0.25153055932E+02 -0.61452852735E+03  0.61593920541E+03  0.89196331745E+01 0.  0.
         13    1    3    3    0    0  0.22252708717E+02  0.18790703458E+02 -0.37556669874E+03  0.37669433071E+03  0.00000000000E+00 0.  1.
          3    1    3    3  501    0  0.97403804510E+01  0.63623524744E+01 -0.23896182861E+03  0.23924487471E+03  0.00000000000E+00 0.  1.
         -1    1    1    2    0  502 -0.31993089168E+02 -0.25153055932E+02 -0.38369000332E+03  0.38584226392E+03  0.00000000000E+00 0. -1.
<mgrwt>
<rscale>  1 0.30000000E+03</rscale>
<asrwt>0</asrwt>
<pdfrwt beam="1">  1       21 0.64780839E-02 0.30000000E+03</pdfrwt>
<pdfrwt beam="2">0</pdfrwt>
<totfact> 0.18457653E+04</totfact>
</mgrwt>
</event>
<event>
 6    1  0.6513574E-002  0.3000000E+03  0.7818608E-02  0.1093470E+00
         21   -1    0    0  501  502  0.00000000000E+00  0.00000000000E+00  0.21143667606E+01  0.21143667606E+01  0.00000000000E+00 0. -1.
         13   -1    0    0    0    0 -0.00000000000E+00 -0.00000000000E+00 -0.10000000000E+04  0.10000000000E+04  0.00000000000E+00 0.  1.
    9000005    2    1    2  501    0 -0.38270734724E+02  0.22393511494E+02 -0.62885422579E+03  0.63042861484E+03  0.40598802210E+01 0.  0.
         13    1    3    3    0    0 -0.12378311575E+02  0.67416537173E+01 -0.17468909237E+03  0.17525681580E+03  0.00000000000E+00 0.  1.
          1    1    3    3  501    0 -0.25892423150E+02  0.15651857777E+02 -0.45416513342E+03  0.45517179904E+03  0.00000000000E+00 0.  1.
         -3    1    1    2    0  502  0.38270734724E+02 -0.22393511494E+02 -0.36903140745E+03  0.37168575192E+03  0.00000000000E+00 0. -1.
<mgrwt>
<rscale>  1 0.30000000E+03</rscale>
<asrwt>0</asrwt>
<pdfrwt beam="1">  1       21 0.76886226E-02 0.30000000E+03</pdfrwt>
<pdfrwt beam="2">0</pdfrwt>
<totfact> 0.13695380E+04</totfact>
</mgrwt>
</event>
<event>
 6    1  0.6513574E-002  0.3000000E+03  0.7818608E-02  0.1093470E+00
         21   -1    0    0  501  502  0.00000000000E+00  0.00000000000E+00  0.17741973843E+01  0.17741973843E+01  0.00000000000E+00 0. -1.
         13   -1    0    0    0    0 -0.00000000000E+00 -0.00000000000E+00 -0.10000000000E+04  0.10000000000E+04  0.00000000000E+00 0.  1.
    9000005    2    1    2  501    0 -0.34930179123E+02 -0.89072036977E+01 -0.75744717755E+03  0.75831208128E+03  0.33956059242E+01 0.  0.
         13    1    3    3    0    0 -0.13161416408E+02 -0.16743476667E+01 -0.28047138849E+03  0.28078501756E+03  0.00000000000E+00 0.  1.
          1    1    3    3  501    0 -0.21768762716E+02 -0.72328560310E+01 -0.47697578906E+03  0.47752706372E+03  0.00000000000E+00 0.  1.
         -1    1    1    2    0  502  0.34930179123E+02  0.89072036977E+01 -0.24077862506E+03  0.24346211610E+03  0.00000000000E+00 0. -1.
<mgrwt>
<rscale>  1 0.30000000E+03</rscale>
<asrwt>0</asrwt>
<pdfrwt beam="1">  1       21 0.64516405E-02 0.30000000E+03</pdfrwt>
<pdfrwt beam="2">0</pdfrwt>
<totfact> 0.18588792E+04</totfact>
</mgrwt>
</event>
<event>
 6    1  0.6513574E-002  0.3000000E+03  0.7818608E-02  0.1093470E+00
         21   -1    0    0  501  502  0.00000000000E+00  0.00000000000E+00  0.10598303125E+01  0.10598303125E+01  0.00000000000E+00 0. -1.
         13   -1    0    0    0    0 -0.00000000000E+00 -0.00000000000E+00 -0.10000000000E+04  0.10000000000E+04  0.00000000000E+00 0.  1.
    9000005    2    1    2  501    0  0.26837696666E+02 -0.15608471566E+02 -0.35442664152E+03  0.35579897272E+03  0.32830510444E+01 0.  0.
         13    1    3    3    0    0  0.26487356802E+02 -0.15523174867E+02 -0.34435019180E+03  0.34571607371E+03  0.00000000000E+00 0.  1.
          3    1    3    3  501    0  0.35033986417E+00 -0.85296699758E-01 -0.10076449720E+02  0.10082899013E+02  0.00000000000E+00 0.  1.
         -3    1    1    2    0  502 -0.26837696666E+02  0.15608471566E+02 -0.64451352817E+03  0.64526085759E+03  0.00000000000E+00 0. -1.
<mgrwt>
<rscale>  1 0.30000000E+03</rscale>
<asrwt>0</asrwt>
<pdfrwt beam="1">  1       21 0.38539365E-02 0.30000000E+03</pdfrwt>
<pdfrwt beam="2">0</pdfrwt>
<totfact> 0.44763129E+04</totfact>
</mgrwt>
</event>
<event>
 6    1  0.6513574E-002  0.3000000E+03  0.7818608E-02  0.1093470E+00
         21   -1    0    0  501  502  0.00000000000E+00  0.00000000000E+00  0.31798083617E+02  0.31798083617E+02  0.00000000000E+00 0. -1.
         13   -1    0    0    0    0 -0.00000000000E+00 -0.00000000000E+00 -0.10000000000E+04  0.10000000000E+04  0.00000000000E+00 0.  1.
    9000005    2    1    2  501    0 -0.55866428315E+02 -0.15761330792E+03 -0.66316583578E+03  0.68393313408E+03  0.35487321175E+01 0.  0.
         13    1    3    3    0    0 -0.97617900898E+00 -0.33139266200E+01 -0.11902478879E+02  0.12393709637E+02  0.00000000000E+00 0.  1.
          3    1    3    3  501    0 -0.54890249306E+02 -0.15429938130E+03 -0.65126335691E+03  0.67153942445E+03  0.00000000000E+00 0.  1.
         -3    1    1    2    0  502  0.55866428315E+02  0.15761330792E+03 -0.30503608060E+03  0.34786494953E+03  0.00000000000E+00 0. -1.
<mgrwt>
<rscale>  1 0.30000000E+03</rscale>
<asrwt>0</asrwt>
<pdfrwt beam="1">  1       21 0.11562964E+00 0.30000000E+03</pdfrwt>
<pdfrwt beam="2">0</pdfrwt>
<totfact> 0.50223006E+01</totfact>
</mgrwt>
</event>
<event>
 6    1  0.6513574E-002  0.3000000E+03  0.7818608E-02  0.1093470E+00
         21   -1    0    0  501  502  0.00000000000E+00  0.00000000000E+00  0.39652856258E+01  0.39652856258E+01  0.00000000000E+00 0. -1.
         13   -1    0    0    0    0 -0.00000000000E+00 -0.00000000000E+00 -0.10000000000E+04  0.10000000000E+04  0.00000000000E+00 0.  1.
    9000005    2    1    2  501    0 -0.39287621459E+02  0.49153784524E+02 -0.50560657288E+03  0.50951673046E+03  0.31113259884E+01 0.  0.
         13    1    3    3    0    0 -0.23620001330E+02  0.30808442203E+02 -0.30125970874E+03  0.30375068178E+03  0.00000000000E+00 0.  1.
          1    1    3    3  501    0 -0.15667620130E+02  0.18345342321E+02 -0.20434686414E+03  0.20576604868E+03  0.00000000000E+00 0.  1.
         -1    1    1    2    0  502  0.39287621459E+02 -0.49153784524E+02 -0.49042814149E+03  0.49444855516E+03  0.00000000000E+00 0. -1.
<mgrwt>
<rscale>  1 0.30000000E+03</rscale>
<asrwt>0</asrwt>
<pdfrwt beam="1">  1       21 0.14419251E-01 0.30000000E+03</pdfrwt>
<pdfrwt beam="2">0</pdfrwt>
<totfact> 0.44295396E+03</totfact>
</mgrwt>
</event>
<event>
 6    1  0.6513574E-002  0.3000000E+03  0.7818608E-02  0.1093470E+00
         21   -1    0    0  501  502  0.00000000000E+00  0.00000000000E+00  0.11543515868E+01  0.11543515868E+01  0.00000000000E+00 0. -1.
         13   -1    0    0    0    0 -0.00000000000E+00 -0.00000000000E+00 -0.10000000000E+04  0.10000000000E+04  0.00000000000E+00 0.  1.
    9000005    2    1    2  501    0  0.33422100381E+02  0.19331740623E+01 -0.57948016852E+03  0.58045472040E+03  0.31052808703E+01 0.  0.
         13    1    3    3    0    0  0.16497600849E+02  0.25092379445E+01 -0.28718612541E+03  0.28767053679E+03  0.00000000000E+00 0.  1.
          3    1    3    3  501    0  0.16924499531E+02 -0.57606388214E+00 -0.29229404311E+03  0.29278418361E+03  0.00000000000E+00 0.  1.
         -1    1    1    2    0  502 -0.33422100381E+02 -0.19331740623E+01 -0.41936547989E+03  0.42069963119E+03  0.00000000000E+00 0. -1.
<mgrwt>
<rscale>  1 0.30000000E+03</rscale>
<asrwt>0</asrwt>
<pdfrwt beam="1">  1       21 0.41976510E-02 0.30000000E+03</pdfrwt>
<pdfrwt beam="2">0</pdfrwt>
<totfact> 0.38763060E+04</totfact>
</mgrwt>
</event>
<event>
 6    1  0.6513574E-002  0.3000000E+03  0.7818608E-02  0.1093470E+00
         21   -1    0    0  501  502  0.00000000000E+00  0.00000000000E+00  0.13359972038E+01  0.13359972038E+01  0.00000000000E+00 0. -1.
         13   -1    0    0    0    0 -0.00000000000E+00 -0.00000000000E+00 -0.10000000000E+04  0.10000000000E+04  0.00000000000E+00 0.  1.
    9000005    2    1    2  501    0 -0.78441767478E+01 -0.35599643924E+02 -0.51419561544E+03  0.51549807762E+03  0.35030468822E+01 0.  0.
         13    1    3    3    0    0 -0.12567798395E+00 -0.58264137340E+01 -0.90662431750E+02  0.90849542777E+02  0.00000000000E+00 0.  1.
          3    1    3    3  501    0 -0.77184987639E+01 -0.29773230190E+02 -0.42353318369E+03  0.42464853485E+03  0.00000000000E+00 0.  1.
         -3    1    1    2    0  502  0.78441767478E+01  0.35599643924E+02 -0.48446838735E+03  0.48583791958E+03  0.00000000000E+00 0. -1.
<mgrwt>
<rscale>  1 0.30000000E+03</rscale>
<asrwt>0</asrwt>
<pdfrwt beam="1">  1       21 0.48581819E-02 0.30000000E+03</pdfrwt>
<pdfrwt beam="2">0</pdfrwt>
<totfact> 0.30251775E+04</totfact>
</mgrwt>
</event>
<event>
 6    1  0.6513574E-002  0.3000000E+03  0.7818608E-02  0.1093470E+00
         21   -1    0    0  501  502  0.00000000000E+00  0.00000000000E+00  0.22500932095E+01  0.22500932095E+01  0.00000000000E+00 0. -1.
         13   -1    0    0    0    0 -0.00000000000E+00 -0.00000000000E+00 -0.10000000000E+04  0.10000000000E+04  0.00000000000E+00 0.  1.
    9000005    2    1    2  501    0 -0.45964008888E+02  0.28153264290E+01 -0.38173675183E+03  0.38451809366E+03  0.32558382199E+01 0.  0.
         13    1    3    3    0    0 -0.20385585921E+02 -0.35037830335E+00 -0.16645600018E+03  0.16770001454E+03  0.00000000000E+00 0.  1.
          3    1    3    3  501    0 -0.25578422967E+02  0.31657047323E+01 -0.21528075164E+03  0.21681807912E+03  0.00000000000E+00 0.  1.
         -1    1    1    2    0  502  0.45964008888E+02 -0.28153264290E+01 -0.61601315497E+03  0.61773199955E+03  0.00000000000E+00 0. -1.
<mgrwt>
<rscale>  1 0.30000000E+03</rscale>
<asrwt>0</asrwt>
<pdfrwt beam="1">  1       21 0.81821744E-02 0.30000000E+03</pdfrwt>
<pdfrwt beam="2">0</pdfrwt>
<totfact> 0.12278212E+04</totfact>
</mgrwt>
</event>
<event>
 6    1  0.6513574E-002  0.3000000E+03  0.7818608E-02  0.1093470E+00
         21   -1    0    0  501  502  0.00000000000E+00  0.00000000000E+00  0.20488614935E+01  0.20488614935E+01  0.00000000000E+00 0. -1.
         13   -1    0    0    0    0 -0.00000000000E+00 -0.00000000000E+00 -0.10000000000E+04  0.10000000000E+04  0.00000000000E+00 0.  1.
    9000005    2    1    2  501    0 -0.17125189110E+02 -0.40854018533E+02 -0.40069745011E+03  0.40315463775E+03  0.35906100939E+01 0.  0.
         13    1    3    3    0    0 -0.14284140653E+02 -0.32743845891E+02 -0.31028536897E+03  0.31233508659E+03  0.00000000000E+00 0.  1.
          3    1    3    3  501    0 -0.28410484565E+01 -0.81101726418E+01 -0.90412081145E+02  0.90819551164E+02  0.00000000000E+00 0.  1.
         -1    1    1    2    0  502  0.17125189110E+02  0.40854018533E+02 -0.59725368839E+03  0.59889422374E+03  0.00000000000E+00 0. -1.
<mgrwt>
<rscale>  1 0.30000000E+03</rscale>
<asrwt>0</asrwt>
<pdfrwt beam="1">  1       21 0.74504211E-02 0.30000000E+03</pdfrwt>
<pdfrwt beam="2">0</pdfrwt>
<totfact> 0.14471519E+04</totfact>
</mgrwt>
</event>
<event>
 6    1  0.6513574E-002  0.3000000E+03  0.7818608E-02  0.1093470E+00
         21   -1    0    0  501  502  0.00000000000E+00  0.00000000000E+00  0.12543942185E+01  0.12543942185E+01  0.00000000000E+00 0. -1.
         13   -1    0    0    0    0 -0.00000000000E+00 -0.00000000000E+00 -0.10000000000E+04  0.10000000000E+04  0.00000000000E+00 0.  1.
    9000005    2    1    2  501    0 -0.69458728929E+01 -0.34503494305E+02 -0.45650105014E+03  0.45786880885E+03  0.34497919065E+01 0.  0.
         13    1    3    3    0    0  0.29235741628E+00 -0.81257957797E+00 -0.82194158662E+01  0.82646570172E+01  0.00000000000E+00 0.  1.
          1    1    3    3  501    0 -0.72382303091E+01 -0.33690914727E+02 -0.44828163428E+03  0.44960415183E+03  0.00000000000E+00 0.  1.
         -1    1    1    2    0  502  0.69458728929E+01  0.34503494305E+02 -0.54224455564E+03  0.54338558537E+03  0.00000000000E+00 0. -1.
<mgrwt>
<rscale>  1 0.30000000E+03</rscale>
<asrwt>0</asrwt>
<pdfrwt beam="1">  1       21 0.45614431E-02 0.30000000E+03</pdfrwt>
<pdfrwt beam="2">0</pdfrwt>
<totfact> 0.33673850E+04</totfact>
</mgrwt>
</event>
<event>
 6    1  0.6513574E-002  0.3000000E+03  0.7818608E-02  0.1093470E+00
         21   -1    0    0  501  502  0.00000000000E+00  0.00000000000E+00  0.13212238375E+01  0.13212238375E+01  0.00000000000E+00 0. -1.
         13   -1    0    0    0    0 -0.00000000000E+00 -0.00000000000E+00 -0.10000000000E+04  0.10000000000E+04  0.00000000000E+00 0.  1.
    9000005    2    1    2  501    0  0.35824681277E+02  0.41691029050E+01 -0.44663413381E+03  0.44809968018E+03  0.32380075619E+01 0.  0.
         13    1    3    3    0    0  0.25852387002E+02  0.27834909255E+01 -0.30341999354E+03  0.30453207748E+03  0.00000000000E+00 0.  1.
          1    1    3    3  501    0  0.99722942745E+01  0.13856119795E+01 -0.14321414026E+03  0.14356760270E+03  0.00000000000E+00 0.  1.
         -1    1    1    2    0  502 -0.35824681277E+02 -0.41691029050E+01 -0.55204464236E+03  0.55322154365E+03  0.00000000000E+00 0. -1.
<mgrwt>
<rscale>  1 0.30000000E+03</rscale>
<asrwt>0</asrwt>
<pdfrwt beam="1">  1       21 0.48044604E-02 0.30000000E+03</pdfrwt>
<pdfrwt beam="2">0</pdfrwt>
<totfact> 0.30829776E+04</totfact>
</mgrwt>
</event>
<event>
 6    1  0.6513574E-002  0.3000000E+03  0.7818608E-02  0.1093470E+00
         21   -1    0    0  501  502  0.00000000000E+00  0.00000000000E+00  0.10795120039E+01  0.10795120039E+01  0.00000000000E+00 0. -1.
         13   -1    0    0    0    0 -0.00000000000E+00 -0.00000000000E+00 -0.10000000000E+04  0.10000000000E+04  0.00000000000E+00 0.  1.
    9000005    2    1    2  501    0  0.31157197788E+02  0.55094155277E+01 -0.62768402789E+03  0.62849712655E+03  0.45027312193E+01 0.  0.
         13    1    3    3    0    0  0.26827283496E+01  0.18262754712E+01 -0.66056446171E+02  0.66136120194E+02  0.00000000000E+00 0.  1.
          3    1    3    3  501    0  0.28474469438E+02  0.36831400565E+01 -0.56162758172E+03  0.56236100636E+03  0.00000000000E+00 0.  1.
         -3    1    1    2    0  502 -0.31157197788E+02 -0.55094155277E+01 -0.37123646011E+03  0.37258238545E+03  0.00000000000E+00 0. -1.
<mgrwt>
<rscale>  1 0.30000000E+03</rscale>
<asrwt>0</asrwt>
<pdfrwt beam="1">  1       21 0.39255065E-02 0.30000000E+03</pdfrwt>
<pdfrwt beam="2">0</pdfrwt>
<totfact> 0.43399122E+04</totfact>
</mgrwt>
</event>
<event>
 6    1  0.6513574E-002  0.3000000E+03  0.7818608E-02  0.1093470E+00
         21   -1    0    0  501  502  0.00000000000E+00  0.00000000000E+00  0.19195547960E+01  0.19195547960E+01  0.00000000000E+00 0. -1.
         13   -1    0    0    0    0 -0.00000000000E+00 -0.00000000000E+00 -0.10000000000E+04  0.10000000000E+04  0.00000000000E+00 0.  1.
    9000005    2    1    2  501    0 -0.29233570437E+02 -0.22703815137E+02 -0.23354397346E+03  0.23648759735E+03  0.36784909585E+01 0.  0.
         13    1    3    3    0    0 -0.16365871637E+02 -0.14037818811E+02 -0.14511288075E+03  0.14670599944E+03  0.00000000000E+00 0.  1.
          3    1    3    3  501    0 -0.12867698800E+02 -0.86659963261E+01 -0.88431092712E+02  0.89781597908E+02  0.00000000000E+00 0.  1.
         -3    1    1    2    0  502  0.29233570437E+02  0.22703815137E+02 -0.76453647174E+03  0.76543195745E+03  0.00000000000E+00 0. -1.
<mgrwt>
<rscale>  1 0.30000000E+03</rscale>
<asrwt>0</asrwt>
<pdfrwt beam="1">  1       21 0.69802140E-02 0.30000000E+03</pdfrwt>
<pdfrwt beam="2">0</pdfrwt>
<totfact> 0.16214958E+04</totfact>
</mgrwt>
</event>
<event>
 6    1  0.6513574E-002  0.3000000E+03  0.7818608E-02  0.1093470E+00
         21   -1    0    0  501  502  0.00000000000E+00  0.00000000000E+00  0.15509297323E+01  0.15509297323E+01  0.00000000000E+00 0. -1.
         13   -1    0    0    0    0 -0.00000000000E+00 -0.00000000000E+00 -0.10000000000E+04  0.10000000000E+04  0.00000000000E+00 0.  1.
    9000005    2    1    2  501    0 -0.36454126989E+02  0.53670073299E+00 -0.31270496862E+03  0.31483835204E+03  0.30982399368E+01 0.  0.
         13    1    3    3    0    0 -0.25691671987E+02  0.14709648531E+01 -0.21234339646E+03  0.21389704011E+03  0.00000000000E+00 0.  1.
          3    1    3    3  501    0 -0.10762455002E+02 -0.93426412011E+00 -0.10036157217E+03  0.10094131193E+03  0.00000000000E+00 0.  1.
         -1    1    1    2    0  502  0.36454126989E+02 -0.53670073299E+00 -0.68574410164E+03  0.68671257769E+03  0.00000000000E+00 0. -1.
<mgrwt>
<rscale>  1 0.30000000E+03</rscale>
<asrwt>0</asrwt>
<pdfrwt beam="1">  1       21 0.56397564E-02 0.30000000E+03</pdfrwt>
<pdfrwt beam="2">0</pdfrwt>
<totfact> 0.23442492E+04</totfact>
</mgrwt>
</event>
<event>
 6    1  0.6513574E-002  0.3000000E+03  0.7818608E-02  0.1093470E+00
         21   -1    0    0  501  502  0.00000000000E+00  0.00000000000E+00  0.13838798414E+01  0.13838798414E+01  0.00000000000E+00 0. -1.
         13   -1    0    0    0    0 -0.00000000000E+00 -0.00000000000E+00 -0.10000000000E+04  0.10000000000E+04  0.00000000000E+00 0.  1.
    9000005    2    1    2  501    0  0.15755273156E+02  0.32541013435E+02 -0.38707928634E+03  0.38877923955E+03  0.34317641731E+01 0.  0.
         13    1    3    3    0    0  0.69327478558E+01  0.17879085217E+02 -0.21230952937E+03  0.21317378108E+03  0.00000000000E+00 0.  1.
          1    1    3    3  501    0  0.88225252997E+01  0.14661928218E+02 -0.17476975698E+03  0.17560545847E+03  0.00000000000E+00 0.  1.
         -1    1    1    2    0  502 -0.15755273156E+02 -0.32541013435E+02 -0.61153683382E+03  0.61260464029E+03  0.00000000000E+00 0. -1.
<mgrwt>
<rscale>  1 0.30000000E+03</rscale>
<asrwt>0</asrwt>
<pdfrwt beam="1">  1       21 0.50323009E-02 0.30000000E+03</pdfrwt>
<pdfrwt beam="2">0</pdfrwt>
<totfact> 0.28490134E+04</totfact>
</mgrwt>
</event>
<event>
 6    1  0.6513574E-002  0.3000000E+03  0.7818608E-02  0.1093470E+00
         21   -1    0    0  501  502  0.00000000000E+00  0.00000000000E+00  0.17558507818E+01  0.17558507818E+01  0.00000000000E+00 0. -1.
         13   -1    0    0    0    0 -0.00000000000E+00 -0.00000000000E+00 -0.10000000000E+04  0.10000000000E+04  0.00000000000E+00 0.  1.
    9000005    2    1    2  501    0 -0.12750661596E+02 -0.33447800275E+02 -0.75835241109E+03  0.75920816323E+03  0.41618499815E+01 0.  0.
         13    1    3    3    0    0 -0.13011355977E+02 -0.33113833131E+02 -0.75238160438E+03  0.75322234429E+03  0.00000000000E+00 0.  1.
          1    1    3    3  501    0  0.26069438096E+00 -0.33396714347E+00 -0.59708067109E+01  0.59858189408E+01  0.00000000000E+00 0.  1.
         -1    1    1    2    0  502  0.12750661596E+02  0.33447800275E+02 -0.23989173813E+03  0.24254768755E+03  0.00000000000E+00 0. -1.
<mgrwt>
<rscale>  1 0.30000000E+03</rscale>
<asrwt>0</asrwt>
<pdfrwt beam="1">  1       21 0.63849254E-02 0.30000000E+03</pdfrwt>
<pdfrwt beam="2">0</pdfrwt>
<totfact> 0.18926121E+04</totfact>
</mgrwt>
</event>
<event>
 6    1  0.6513574E-002  0.3000000E+03  0.7818608E-02  0.1093470E+00
         21   -1    0    0  501  502  0.00000000000E+00  0.00000000000E+00  0.38393247403E+01  0.38393247403E+01  0.00000000000E+00 0. -1.
         13   -1    0    0    0    0 -0.00000000000E+00 -0.00000000000E+00 -0.10000000000E+04  0.10000000000E+04  0.00000000000E+00 0.  1.
    9000005    2    1    2  501    0  0.30797715627E+02  0.17082824473E+02 -0.85613529088E+02  0.92611346910E+02  0.26197392519E+01 0.  0.
         13    1    3    3    0    0  0.15137811932E+01  0.25268827533E+00 -0.40507436511E+01  0.43317327933E+01  0.00000000000E+00 0.  1.
          3    1    3    3  501    0  0.29283934433E+02  0.16830136198E+02 -0.81562785437E+02  0.88279614117E+02  0.00000000000E+00 0.  1.
         -1    1    1    2    0  502 -0.30797715627E+02 -0.17082824473E+02 -0.91054714617E+03  0.91122797783E+03  0.00000000000E+00 0. -1.
<mgrwt>
<rscale>  1 0.30000000E+03</rscale>
<asrwt>0</asrwt>
<pdfrwt beam="1">  1       21 0.13961210E-01 0.30000000E+03</pdfrwt>
<pdfrwt beam="2">0</pdfrwt>
<totfact> 0.47005753E+03</totfact>
</mgrwt>
</event>
<event>
 6    1  0.6513574E-002  0.3000000E+03  0.7818608E-02  0.1093470E+00
         21   -1    0    0  501  502  0.00000000000E+00  0.00000000000E+00  0.35926911822E+01  0.35926911822E+01  0.00000000000E+00 0. -1.
         13   -1    0    0    0    0 -0.00000000000E+00 -0.00000000000E+00 -0.10000000000E+04  0.10000000000E+04  0.00000000000E+00 0.  1.
    9000005    2    1    2  501    0  0.58500437578E+02 -0.12763144057E+02 -0.48881618086E+03  0.49248218237E+03  0.34988901597E+01 0.  0.
         13    1    3    3    0    0  0.24929283113E+01  0.49860999572E-01 -0.17402558237E+02  0.17580279033E+02  0.00000000000E+00 0.  1.
          3    1    3    3  501    0  0.56007509266E+02 -0.12813005056E+02 -0.47141362263E+03  0.47490190333E+03  0.00000000000E+00 0.  1.
         -3    1    1    2    0  502 -0.58500437578E+02  0.12763144057E+02 -0.50759112796E+03  0.51111050882E+03  0.00000000000E+00 0. -1.
<mgrwt>
<rscale>  1 0.30000000E+03</rscale>
<asrwt>0</asrwt>
<pdfrwt beam="1">  1       21 0.13064359E-01 0.30000000E+03</pdfrwt>
<pdfrwt beam="2">0</pdfrwt>
<totfact> 0.53084257E+03</totfact>
</mgrwt>
</event>
<event>
 6    1  0.6513574E-002  0.3000000E+03  0.7818608E-02  0.1093470E+00
         21   -1    0    0  501  502  0.00000000000E+00  0.00000000000E+00  0.22738103849E+01  0.22738103849E+01  0.00000000000E+00 0. -1.
         13   -1    0    0    0    0 -0.00000000000E+00 -0.00000000000E+00 -0.10000000000E+04  0.10000000000E+04  0.00000000000E+00 0.  1.
    9000005    2    1    2  501    0 -0.15275935423E+01 -0.40874094988E+02 -0.75446050564E+03  0.75559341354E+03  0.61422182702E+01 0.  0.
         13    1    3    3    0    0 -0.13568670929E+01 -0.61702393893E+01 -0.85334397332E+02  0.85567939735E+02  0.00000000000E+00 0.  1.
          3    1    3    3  501    0 -0.17072644938E+00 -0.34703855599E+02 -0.66912610830E+03  0.67002547381E+03  0.00000000000E+00 0.  1.
         -3    1    1    2    0  502  0.15275935423E+01  0.40874094988E+02 -0.24326568398E+03  0.24668039684E+03  0.00000000000E+00 0. -1.
<mgrwt>
<rscale>  1 0.30000000E+03</rscale>
<asrwt>0</asrwt>
<pdfrwt beam="1">  1       21 0.82684188E-02 0.30000000E+03</pdfrwt>
<pdfrwt beam="2">0</pdfrwt>
<totfact> 0.12053779E+04</totfact>
</mgrwt>
</event>
<event>
 6    1  0.6513574E-002  0.3000000E+03  0.7818608E-02  0.1093470E+00
         21   -1    0    0  501  502  0.00000000000E+00  0.00000000000E+00  0.25286249623E+01  0.25286249623E+01  0.00000000000E+00 0. -1.
         13   -1    0    0    0    0 -0.00000000000E+00 -0.00000000000E+00 -0.10000000000E+04  0.10000000000E+04  0.00000000000E+00 0.  1.
    9000005    2    1    2  501    0  0.31411064605E+02  0.57026178527E+01 -0.11366727201E+03  0.11814812576E+03  0.44222240811E+01 0.  0.
         13    1    3    3    0    0  0.18834703134E+02  0.54006742389E+01 -0.72567408380E+02  0.75166096635E+02  0.00000000000E+00 0.  1.
          3    1    3    3  501    0  0.12576361471E+02  0.30194361379E+00 -0.41099863629E+02  0.42982029129E+02  0.00000000000E+00 0.  1.
         -3    1    1    2    0  502 -0.31411064605E+02 -0.57026178527E+01 -0.88380410303E+03  0.88438049920E+03  0.00000000000E+00 0. -1.
<mgrwt>
<rscale>  1 0.30000000E+03</rscale>
<asrwt>0</asrwt>
<pdfrwt beam="1">  1       21 0.91950193E-02 0.30000000E+03</pdfrwt>
<pdfrwt beam="2">0</pdfrwt>
<totfact> 0.99909421E+03</totfact>
</mgrwt>
</event>
<event>
 6    1  0.6513574E-002  0.3000000E+03  0.7818608E-02  0.1093470E+00
         21   -1    0    0  501  502  0.00000000000E+00  0.00000000000E+00  0.14464565643E+01  0.14464565643E+01  0.00000000000E+00 0. -1.
         13   -1    0    0    0    0 -0.00000000000E+00 -0.00000000000E+00 -0.10000000000E+04  0.10000000000E+04  0.00000000000E+00 0.  1.
    9000005    2    1    2  501    0 -0.28645087630E+02 -0.20056311516E+02 -0.30577186709E+03  0.30778281491E+03  0.33211099599E+01 0.  0.
         13    1    3    3    0    0 -0.13285732299E+02 -0.11202413873E+02 -0.14629661342E+03  0.14732516369E+03  0.00000000000E+00 0.  1.
          1    1    3    3  501    0 -0.15359355331E+02 -0.88538976432E+01 -0.15947525367E+03  0.16045765121E+03  0.00000000000E+00 0.  1.
         -3    1    1    2    0  502  0.28645087630E+02  0.20056311516E+02 -0.69278167635E+03  0.69366364166E+03  0.00000000000E+00 0. -1.
<mgrwt>
<rscale>  1 0.30000000E+03</rscale>
<asrwt>0</asrwt>
<pdfrwt beam="1">  1       21 0.52598531E-02 0.30000000E+03</pdfrwt>
<pdfrwt beam="2">0</pdfrwt>
<totfact> 0.26418121E+04</totfact>
</mgrwt>
</event>
<event>
 6    1  0.6513574E-002  0.3000000E+03  0.7818608E-02  0.1093470E+00
         21   -1    0    0  501  502  0.00000000000E+00  0.00000000000E+00  0.11479047357E+01  0.11479047357E+01  0.00000000000E+00 0. -1.
         13   -1    0    0    0    0 -0.00000000000E+00 -0.00000000000E+00 -0.10000000000E+04  0.10000000000E+04  0.00000000000E+00 0.  1.
    9000005    2    1    2  501    0  0.33482450428E+02  0.21376117187E+01 -0.44994203999E+03  0.45121346078E+03  0.44837446235E+01 0.  0.
         13    1    3    3    0    0  0.24359066500E+02  0.19186278483E+01 -0.29964017873E+03  0.30063479832E+03  0.00000000000E+00 0.  1.
          3    1    3    3  501    0  0.91233839275E+01  0.21898387038E+00 -0.15030186126E+03  0.15057866246E+03  0.00000000000E+00 0.  1.
         -3    1    1    2    0  502 -0.33482450428E+02 -0.21376117187E+01 -0.54891005527E+03  0.54993444396E+03  0.00000000000E+00 0. -1.
<mgrwt>
<rscale>  1 0.30000000E+03</rscale>
<asrwt>0</asrwt>
<pdfrwt beam="1">  1       21 0.41742078E-02 0.30000000E+03</pdfrwt>
<pdfrwt beam="2">0</pdfrwt>
<totfact> 0.39131312E+04</totfact>
</mgrwt>
</event>
<event>
 6    1  0.6513574E-002  0.3000000E+03  0.7818608E-02  0.1093470E+00
         21   -1    0    0  501  502  0.00000000000E+00  0.00000000000E+00  0.18574445517E+01  0.18574445517E+01  0.00000000000E+00 0. -1.
         13   -1    0    0    0    0 -0.00000000000E+00 -0.00000000000E+00 -0.10000000000E+04  0.10000000000E+04  0.00000000000E+00 0.  1.
    9000005    2    1    2  501    0  0.21516664782E+02 -0.31724706756E+02 -0.27435510858E+03  0.27705561500E+03  0.44344464415E+01 0.  0.
         13    1    3    3    0    0  0.16208648579E+02 -0.23636882522E+02 -0.19040848941E+03  0.19255340907E+03  0.00000000000E+00 0.  1.
          1    1    3    3  501    0  0.53080162037E+01 -0.80878242331E+01 -0.83946619171E+02  0.84502205930E+02  0.00000000000E+00 0.  1.
         -1    1    1    2    0  502 -0.21516664782E+02  0.31724706756E+02 -0.72378744687E+03  0.72480182956E+03  0.00000000000E+00 0. -1.
<mgrwt>
<rscale>  1 0.30000000E+03</rscale>
<asrwt>0</asrwt>
<pdfrwt beam="1">  1       21 0.67543581E-02 0.30000000E+03</pdfrwt>
<pdfrwt beam="2">0</pdfrwt>
<totfact> 0.17168762E+04</totfact>
</mgrwt>
</event>
<event>
 6    1  0.6513574E-002  0.3000000E+03  0.7818608E-02  0.1093470E+00
         21   -1    0    0  501  502  0.00000000000E+00  0.00000000000E+00  0.99798775917E+00  0.99798775917E+00  0.00000000000E+00 0. -1.
         13   -1    0    0    0    0 -0.00000000000E+00 -0.00000000000E+00 -0.10000000000E+04  0.10000000000E+04  0.00000000000E+00 0.  1.
    9000005    2    1    2  501    0  0.26513085321E+02 -0.16573805336E+02 -0.56071906144E+03  0.56160115154E+03  0.35146596699E+01 0.  0.
         13    1    3    3    0    0  0.62593033746E+00 -0.55508152650E+00 -0.78143784859E+01  0.78590339998E+01  0.00000000000E+00 0.  1.
          3    1    3    3  501    0  0.25887154983E+02 -0.16018723810E+02 -0.55290468295E+03  0.55374211754E+03  0.00000000000E+00 0.  1.
         -1    1    1    2    0  502 -0.26513085321E+02  0.16573805336E+02 -0.43828295081E+03  0.43939683622E+03  0.00000000000E+00 0. -1.
<mgrwt>
<rscale>  1 0.30000000E+03</rscale>
<asrwt>0</asrwt>
<pdfrwt beam="1">  1       21 0.36290540E-02 0.30000000E+03</pdfrwt>
<pdfrwt beam="2">0</pdfrwt>
<totfact> 0.49518220E+04</totfact>
</mgrwt>
</event>
<event>
 6    1  0.6513574E-002  0.3000000E+03  0.7818608E-02  0.1093470E+00
         21   -1    0    0  501  502  0.00000000000E+00  0.00000000000E+00  0.12171146650E+01  0.12171146650E+01  0.00000000000E+00 0. -1.
         13   -1    0    0    0    0 -0.00000000000E+00 -0.00000000000E+00 -0.10000000000E+04  0.10000000000E+04  0.00000000000E+00 0.  1.
    9000005    2    1    2  501    0 -0.18680558282E+02 -0.27947899177E+02 -0.37274227798E+03  0.37427462098E+03  0.38259368006E+01 0.  0.
         13    1    3    3    0    0 -0.16327844472E+02 -0.23898997322E+02 -0.33358158873E+03  0.33483493981E+03  0.00000000000E+00 0.  1.
          3    1    3    3  501    0 -0.23527138105E+01 -0.40489018550E+01 -0.39160689248E+02  0.39439681171E+02  0.00000000000E+00 0.  1.
         -1    1    1    2    0  502  0.18680558282E+02  0.27947899177E+02 -0.62604060736E+03  0.62694249368E+03  0.00000000000E+00 0. -1.
<mgrwt>
<rscale>  1 0.30000000E+03</rscale>
<asrwt>0</asrwt>
<pdfrwt beam="1">  1       21 0.44258808E-02 0.30000000E+03</pdfrwt>
<pdfrwt beam="2">0</pdfrwt>
<totfact> 0.35442460E+04</totfact>
</mgrwt>
</event>
<event>
 6    1  0.6513574E-002  0.3000000E+03  0.7818608E-02  0.1093470E+00
         21   -1    0    0  501  502  0.00000000000E+00  0.00000000000E+00  0.16447488424E+01  0.16447488424E+01  0.00000000000E+00 0. -1.
         13   -1    0    0    0    0 -0.00000000000E+00 -0.00000000000E+00 -0.10000000000E+04  0.10000000000E+04  0.00000000000E+00 0.  1.
    9000005    2    1    2  501    0 -0.35804092446E+02 -0.15113191679E+02 -0.36624312094E+03  0.36833906691E+03  0.54132225458E+01 0.  0.
         13    1    3    3    0    0 -0.15650100529E+02 -0.73862814809E+01 -0.18766739063E+03  0.18846361003E+03  0.00000000000E+00 0.  1.
          1    1    3    3  501    0 -0.20153991917E+02 -0.77269101985E+01 -0.17857573031E+03  0.17987545688E+03  0.00000000000E+00 0.  1.
         -1    1    1    2    0  502  0.35804092446E+02  0.15113191679E+02 -0.63211213022E+03  0.63330568193E+03  0.00000000000E+00 0. -1.
<mgrwt>
<rscale>  1 0.30000000E+03</rscale>
<asrwt>0</asrwt>
<pdfrwt beam="1">  1       21 0.59809175E-02 0.30000000E+03</pdfrwt>
<pdfrwt beam="2">0</pdfrwt>
<totfact> 0.21187740E+04</totfact>
</mgrwt>
</event>
<event>
 6    1  0.6513574E-002  0.3000000E+03  0.7818608E-02  0.1093470E+00
         21   -1    0    0  501  502  0.00000000000E+00  0.00000000000E+00  0.38542360854E+01  0.38542360854E+01  0.00000000000E+00 0. -1.
         13   -1    0    0    0    0 -0.00000000000E+00 -0.00000000000E+00 -0.10000000000E+04  0.10000000000E+04  0.00000000000E+00 0.  1.
    9000005    2    1    2  501    0 -0.24228309370E+02 -0.54554911487E+02 -0.36217531888E+03  0.36707972770E+03  0.36490472487E+01 0.  0.
         13    1    3    3    0    0 -0.17148003630E+02 -0.34759941529E+02 -0.23949100775E+03  0.24260719354E+03  0.00000000000E+00 0.  1.
          1    1    3    3  501    0 -0.70803057400E+01 -0.19794969958E+02 -0.12268431112E+03  0.12447253416E+03  0.00000000000E+00 0.  1.
         -1    1    1    2    0  502  0.24228309370E+02  0.54554911487E+02 -0.63397044504E+03  0.63677450838E+03  0.00000000000E+00 0. -1.
<mgrwt>
<rscale>  1 0.30000000E+03</rscale>
<asrwt>0</asrwt>
<pdfrwt beam="1">  1       21 0.14015434E-01 0.30000000E+03</pdfrwt>
<pdfrwt beam="2">0</pdfrwt>
<totfact> 0.46672187E+03</totfact>
</mgrwt>
</event>
<event>
 6    1  0.6513574E-002  0.3000000E+03  0.7818608E-02  0.1093470E+00
         21   -1    0    0  501  502  0.00000000000E+00  0.00000000000E+00  0.93137105750E+00  0.93137105750E+00  0.00000000000E+00 0. -1.
         13   -1    0    0    0    0 -0.00000000000E+00 -0.00000000000E+00 -0.10000000000E+04  0.10000000000E+04  0.00000000000E+00 0.  1.
    9000005    2    1    2  501    0  0.23432641605E+02 -0.18899812169E+02 -0.57431922711E+03  0.57511645123E+03  0.31727357070E+01 0.  0.
         13    1    3    3    0    0  0.31583325715E+00 -0.16118443438E+00 -0.16702875668E+02  0.16706638999E+02  0.00000000000E+00 0.  1.
          1    1    3    3  501    0  0.23116808348E+02 -0.18738627734E+02 -0.55761635144E+03  0.55840981223E+03  0.00000000000E+00 0.  1.
         -1    1    1    2    0  502 -0.23432641605E+02  0.18899812169E+02 -0.42474940183E+03  0.42581491983E+03  0.00000000000E+00 0. -1.
<mgrwt>
<rscale>  1 0.30000000E+03</rscale>
<asrwt>0</asrwt>
<pdfrwt beam="1">  1       21 0.33868110E-02 0.30000000E+03</pdfrwt>
<pdfrwt beam="2">0</pdfrwt>
<totfact> 0.55590870E+04</totfact>
</mgrwt>
</event>
<event>
 6    1  0.6513574E-002  0.3000000E+03  0.7818608E-02  0.1093470E+00
         21   -1    0    0  501  502  0.00000000000E+00  0.00000000000E+00  0.98067454714E+00  0.98067454714E+00  0.00000000000E+00 0. -1.
         13   -1    0    0    0    0 -0.00000000000E+00 -0.00000000000E+00 -0.10000000000E+04  0.10000000000E+04  0.00000000000E+00 0.  1.
    9000005    2    1    2  501    0  0.67280993874E+01  0.30155949795E+02 -0.42878616816E+03  0.42991106206E+03  0.33607509978E+01 0.  0.
         13    1    3    3    0    0  0.27910811383E+01  0.17626090290E+02 -0.26383016433E+03  0.26443302518E+03  0.00000000000E+00 0.  1.
          1    1    3    3  501    0  0.39370182491E+01  0.12529859505E+02 -0.16495600383E+03  0.16547803689E+03  0.00000000000E+00 0.  1.
         -3    1    1    2    0  502 -0.67280993874E+01 -0.30155949795E+02 -0.57023315729E+03  0.57106961248E+03  0.00000000000E+00 0. -1.
<mgrwt>
<rscale>  1 0.30000000E+03</rscale>
<asrwt>0</asrwt>
<pdfrwt beam="1">  1       21 0.35660968E-02 0.30000000E+03</pdfrwt>
<pdfrwt beam="2">0</pdfrwt>
<totfact> 0.50992950E+04</totfact>
</mgrwt>
</event>
<event>
 6    1  0.6513574E-002  0.3000000E+03  0.7818608E-02  0.1093470E+00
         21   -1    0    0  501  502  0.00000000000E+00  0.00000000000E+00  0.14870979434E+01  0.14870979434E+01  0.00000000000E+00 0. -1.
         13   -1    0    0    0    0 -0.00000000000E+00 -0.00000000000E+00 -0.10000000000E+04  0.10000000000E+04  0.00000000000E+00 0.  1.
    9000005    2    1    2  501    0 -0.17441428096E+02 -0.26621342288E+02 -0.78129021743E+03  0.78194531605E+03  0.33427781803E+01 0.  0.
         13    1    3    3    0    0 -0.14962834520E+02 -0.24189193748E+02 -0.71252044614E+03  0.71308792563E+03  0.00000000000E+00 0.  1.
          3    1    3    3  501    0 -0.24785935761E+01 -0.24321485402E+01 -0.68769771283E+02  0.68857390417E+02  0.00000000000E+00 0.  1.
         -3    1    1    2    0  502  0.17441428096E+02  0.26621342288E+02 -0.21722268463E+03  0.21954178189E+03  0.00000000000E+00 0. -1.
<mgrwt>
<rscale>  1 0.30000000E+03</rscale>
<asrwt>0</asrwt>
<pdfrwt beam="1">  1       21 0.54076403E-02 0.30000000E+03</pdfrwt>
<pdfrwt beam="2">0</pdfrwt>
<totfact> 0.25194813E+04</totfact>
</mgrwt>
</event>
<event>
 6    1  0.6513574E-002  0.3000000E+03  0.7818608E-02  0.1093470E+00
         21   -1    0    0  501  502  0.00000000000E+00  0.00000000000E+00  0.24545473249E+01  0.24545473249E+01  0.00000000000E+00 0. -1.
         13   -1    0    0    0    0 -0.00000000000E+00 -0.00000000000E+00 -0.10000000000E+04  0.10000000000E+04  0.00000000000E+00 0.  1.
    9000005    2    1    2  501    0 -0.14415546886E+01 -0.48302464782E+02 -0.60743292739E+03  0.60936042555E+03  0.31875968778E+01 0.  0.
         13    1    3    3    0    0 -0.60306333994E+00 -0.42612741883E+02 -0.52472806513E+03  0.52645584030E+03  0.00000000000E+00 0.  1.
          3    1    3    3  501    0 -0.83849134862E+00 -0.56897228987E+01 -0.82704862257E+02  0.82904585249E+02  0.00000000000E+00 0.  1.
         -3    1    1    2    0  502  0.14415546886E+01  0.48302464782E+02 -0.39011252529E+03  0.39309412177E+03  0.00000000000E+00 0. -1.
<mgrwt>
<rscale>  1 0.30000000E+03</rscale>
<asrwt>0</asrwt>
<pdfrwt beam="1">  1       21 0.89256455E-02 0.30000000E+03</pdfrwt>
<pdfrwt beam="2">0</pdfrwt>
<totfact> 0.10531691E+04</totfact>
</mgrwt>
</event>
<event>
 6    1  0.6513574E-002  0.3000000E+03  0.7818608E-02  0.1093470E+00
         21   -1    0    0  501  502  0.00000000000E+00  0.00000000000E+00  0.11268218604E+02  0.11268218604E+02  0.00000000000E+00 0. -1.
         13   -1    0    0    0    0 -0.00000000000E+00 -0.00000000000E+00 -0.10000000000E+04  0.10000000000E+04  0.00000000000E+00 0.  1.
    9000005    2    1    2  501    0 -0.26238559929E+02  0.69684464442E+02 -0.13426338288E+03  0.15356160754E+03  0.31819356498E+01 0.  0.
         13    1    3    3    0    0 -0.15700135442E+02  0.44857388758E+02 -0.87797047270E+02  0.99834869102E+02  0.00000000000E+00 0.  1.
          1    1    3    3  501    0 -0.10538424486E+02  0.24827075684E+02 -0.46466335614E+02  0.53726738437E+02  0.00000000000E+00 0.  1.
         -3    1    1    2    0  502  0.26238559929E+02 -0.69684464442E+02 -0.85446839851E+03  0.85770661107E+03  0.00000000000E+00 0. -1.
<mgrwt>
<rscale>  1 0.30000000E+03</rscale>
<asrwt>0</asrwt>
<pdfrwt beam="1">  1       21 0.40975427E-01 0.30000000E+03</pdfrwt>
<pdfrwt beam="2">0</pdfrwt>
<totfact> 0.57431753E+02</totfact>
</mgrwt>
</event>
<event>
 6    1  0.6513574E-002  0.3000000E+03  0.7818608E-02  0.1093470E+00
         21   -1    0    0  501  502  0.00000000000E+00  0.00000000000E+00  0.51654690604E+01  0.51654690604E+01  0.00000000000E+00 0. -1.
         13   -1    0    0    0    0 -0.00000000000E+00 -0.00000000000E+00 -0.10000000000E+04  0.10000000000E+04  0.00000000000E+00 0.  1.
    9000005    2    1    2  501    0  0.63444171443E+02  0.73092837576E+01 -0.26871609538E+03  0.27624395684E+03  0.48780380258E+01 0.  0.
         13    1    3    3    0    0  0.32936227960E+02  0.36422441645E+01 -0.14988943918E+03  0.15350864807E+03  0.00000000000E+00 0.  1.
          3    1    3    3  501    0  0.30507943483E+02  0.36670395932E+01 -0.11882665621E+03  0.12273530877E+03  0.00000000000E+00 0.  1.
         -3    1    1    2    0  502 -0.63444171443E+02 -0.73092837576E+01 -0.72611843556E+03  0.72892151222E+03  0.00000000000E+00 0. -1.
<mgrwt>
<rscale>  1 0.30000000E+03</rscale>
<asrwt>0</asrwt>
<pdfrwt beam="1">  1       21 0.18783563E-01 0.30000000E+03</pdfrwt>
<pdfrwt beam="2">0</pdfrwt>
<totfact> 0.27031130E+03</totfact>
</mgrwt>
</event>
<event>
 6    1  0.6513574E-002  0.3000000E+03  0.7818608E-02  0.1093470E+00
         21   -1    0    0  501  502  0.00000000000E+00  0.00000000000E+00  0.10940624242E+01  0.10940624242E+01  0.00000000000E+00 0. -1.
         13   -1    0    0    0    0 -0.00000000000E+00 -0.00000000000E+00 -0.10000000000E+04  0.10000000000E+04  0.00000000000E+00 0.  1.
    9000005    2    1    2  501    0  0.12476158817E+02  0.30461096477E+02 -0.52718392643E+03  0.52822495925E+03  0.38964536426E+01 0.  0.
         13    1    3    3    0    0  0.82690347652E+01  0.18539381515E+02 -0.29559660269E+03  0.29629282328E+03  0.00000000000E+00 0.  1.
          3    1    3    3  501    0  0.42071240518E+01  0.11921714962E+02 -0.23158732374E+03  0.23193213597E+03  0.00000000000E+00 0.  1.
         -3    1    1    2    0  502 -0.12476158817E+02 -0.30461096477E+02 -0.47172201115E+03  0.47286910317E+03  0.00000000000E+00 0. -1.
<mgrwt>
<rscale>  1 0.30000000E+03</rscale>
<asrwt>0</asrwt>
<pdfrwt beam="1">  1       21 0.39784172E-02 0.30000000E+03</pdfrwt>
<pdfrwt beam="2">0</pdfrwt>
<totfact> 0.42432120E+04</totfact>
</mgrwt>
</event>
<event>
 6    1  0.6513574E-002  0.3000000E+03  0.7818608E-02  0.1093470E+00
         21   -1    0    0  501  502  0.00000000000E+00  0.00000000000E+00  0.38991020286E+01  0.38991020286E+01  0.00000000000E+00 0. -1.
         13   -1    0    0    0    0 -0.00000000000E+00 -0.00000000000E+00 -0.10000000000E+04  0.10000000000E+04  0.00000000000E+00 0.  1.
    9000005    2    1    2  501    0 -0.57358036905E+02  0.68777799468E+01 -0.68804933775E+03  0.69047764136E+03  0.31990282008E+01 0.  0.
         13    1    3    3    0    0 -0.19238769183E+02  0.27203159178E+01 -0.24907476986E+03  0.24983148588E+03  0.00000000000E+00 0.  1.
          1    1    3    3  501    0 -0.38119267722E+02  0.41574640290E+01 -0.43897456789E+03  0.44064615548E+03  0.00000000000E+00 0.  1.
         -1    1    1    2    0  502  0.57358036905E+02 -0.68777799468E+01 -0.30805156022E+03  0.31342146067E+03  0.00000000000E+00 0. -1.
<mgrwt>
<rscale>  1 0.30000000E+03</rscale>
<asrwt>0</asrwt>
<pdfrwt beam="1">  1       21 0.14178583E-01 0.30000000E+03</pdfrwt>
<pdfrwt beam="2">0</pdfrwt>
<totfact> 0.45689571E+03</totfact>
</mgrwt>
</event>
<event>
 6    1  0.6513574E-002  0.3000000E+03  0.7818608E-02  0.1093470E+00
         21   -1    0    0  501  502  0.00000000000E+00  0.00000000000E+00  0.10200673762E+01  0.10200673762E+01  0.00000000000E+00 0. -1.
         13   -1    0    0    0    0 -0.00000000000E+00 -0.00000000000E+00 -0.10000000000E+04  0.10000000000E+04  0.00000000000E+00 0.  1.
    9000005    2    1    2  501    0 -0.30132556493E+02 -0.60171110229E+00 -0.66311427169E+03  0.66380489095E+03  0.28395271216E+01 0.  0.
         13    1    3    3    0    0 -0.20170024604E+02  0.85697330044E+00 -0.45220109693E+03  0.45265151757E+03  0.00000000000E+00 0.  1.
          3    1    3    3  501    0 -0.99625318898E+01 -0.14586844027E+01 -0.21091317476E+03  0.21115337338E+03  0.00000000000E+00 0.  1.
         -3    1    1    2    0  502  0.30132556493E+02  0.60171110229E+00 -0.33586566093E+03  0.33721517643E+03  0.00000000000E+00 0. -1.
<mgrwt>
<rscale>  1 0.30000000E+03</rscale>
<asrwt>0</asrwt>
<pdfrwt beam="1">  1       21 0.37093437E-02 0.30000000E+03</pdfrwt>
<pdfrwt beam="2">0</pdfrwt>
<totfact> 0.47732932E+04</totfact>
</mgrwt>
</event>
<event>
 6    1  0.6513574E-002  0.3000000E+03  0.7818608E-02  0.1093470E+00
         21   -1    0    0  501  502  0.00000000000E+00  0.00000000000E+00  0.11977496621E+01  0.11977496621E+01  0.00000000000E+00 0. -1.
         13   -1    0    0    0    0 -0.00000000000E+00 -0.00000000000E+00 -0.10000000000E+04  0.10000000000E+04  0.00000000000E+00 0.  1.
    9000005    2    1    2  501    0 -0.94716837426E+01  0.31538540662E+02 -0.35095259175E+03  0.35251171430E+03  0.35206140536E+01 0.  0.
         13    1    3    3    0    0 -0.13607834265E+01  0.23163997711E+01 -0.37185363912E+02  0.37282284382E+02  0.00000000000E+00 0.  1.
          3    1    3    3  501    0 -0.81109003161E+01  0.29222140891E+02 -0.31376722784E+03  0.31522942992E+03  0.00000000000E+00 0.  1.
         -3    1    1    2    0  502  0.94716837426E+01 -0.31538540662E+02 -0.64784965859E+03  0.64868603536E+03  0.00000000000E+00 0. -1.
<mgrwt>
<rscale>  1 0.30000000E+03</rscale>
<asrwt>0</asrwt>
<pdfrwt beam="1">  1       21 0.43554625E-02 0.30000000E+03</pdfrwt>
<pdfrwt beam="2">0</pdfrwt>
<totfact> 0.36418432E+04</totfact>
</mgrwt>
</event>
<event>
 6    1  0.6513574E-002  0.3000000E+03  0.7818608E-02  0.1093470E+00
         21   -1    0    0  501  502  0.00000000000E+00  0.00000000000E+00  0.14290406794E+01  0.14290406794E+01  0.00000000000E+00 0. -1.
         13   -1    0    0    0    0 -0.00000000000E+00 -0.00000000000E+00 -0.10000000000E+04  0.10000000000E+04  0.00000000000E+00 0.  1.
    9000005    2    1    2  501    0  0.21780541664E+02 -0.26431286449E+02 -0.28972137376E+03  0.29175253702E+03  0.28396381818E+01 0.  0.
         13    1    3    3    0    0  0.50334805830E+01 -0.43739430369E+01 -0.54547791518E+02  0.54953879426E+02  0.00000000000E+00 0.  1.
          3    1    3    3  501    0  0.16747061081E+02 -0.22057343413E+02 -0.23517358225E+03  0.23679865760E+03  0.00000000000E+00 0.  1.
         -1    1    1    2    0  502 -0.21780541664E+02  0.26431286449E+02 -0.70884958556E+03  0.70967650366E+03  0.00000000000E+00 0. -1.
<mgrwt>
<rscale>  1 0.30000000E+03</rscale>
<asrwt>0</asrwt>
<pdfrwt beam="1">  1       21 0.51965225E-02 0.30000000E+03</pdfrwt>
<pdfrwt beam="2">0</pdfrwt>
<totfact> 0.26970688E+04</totfact>
</mgrwt>
</event>
<event>
 6    1  0.6513574E-002  0.3000000E+03  0.7818608E-02  0.1093470E+00
         21   -1    0    0  501  502  0.00000000000E+00  0.00000000000E+00  0.24195378421E+01  0.24195378421E+01  0.00000000000E+00 0. -1.
         13   -1    0    0    0    0 -0.00000000000E+00 -0.00000000000E+00 -0.10000000000E+04  0.10000000000E+04  0.00000000000E+00 0.  1.
    9000005    2    1    2  501    0 -0.23778742530E+02  0.42643007488E+02 -0.55809736453E+03  0.56023264547E+03  0.20233814797E+01 0.  0.
         13    1    3    3    0    0 -0.14516929814E+02  0.27541462059E+02 -0.34832728897E+03  0.34971584697E+03  0.00000000000E+00 0.  1.
          1    1    3    3  501    0 -0.92618127158E+01  0.15101545429E+02 -0.20977007556E+03  0.21051679850E+03  0.00000000000E+00 0.  1.
         -3    1    1    2    0  502  0.23778742530E+02 -0.42643007488E+02 -0.43948309763E+03  0.44218689237E+03  0.00000000000E+00 0. -1.
<mgrwt>
<rscale>  1 0.30000000E+03</rscale>
<asrwt>0</asrwt>
<pdfrwt beam="1">  1       21 0.87983380E-02 0.30000000E+03</pdfrwt>
<pdfrwt beam="2">0</pdfrwt>
<totfact> 0.10802800E+04</totfact>
</mgrwt>
</event>
<event>
 6    1  0.6513574E-002  0.3000000E+03  0.7818608E-02  0.1093470E+00
         21   -1    0    0  501  502  0.00000000000E+00  0.00000000000E+00  0.19101829265E+01  0.19101829265E+01  0.00000000000E+00 0. -1.
         13   -1    0    0    0    0 -0.00000000000E+00 -0.00000000000E+00 -0.10000000000E+04  0.10000000000E+04  0.00000000000E+00 0.  1.
    9000005    2    1    2  501    0 -0.87030247929E+01  0.42582420400E+02 -0.45439572496E+03  0.45648166243E+03  0.33208596406E+01 0.  0.
         13    1    3    3    0    0 -0.45781459552E+01  0.14608133579E+02 -0.15670216334E+03  0.15744816602E+03  0.00000000000E+00 0.  1.
          1    1    3    3  501    0 -0.41248788377E+01  0.27974286821E+02 -0.29769356161E+03  0.29903349641E+03  0.00000000000E+00 0.  1.
         -3    1    1    2    0  502  0.87030247929E+01 -0.42582420400E+02 -0.54369409212E+03  0.54542852049E+03  0.00000000000E+00 0. -1.
<mgrwt>
<rscale>  1 0.30000000E+03</rscale>
<asrwt>0</asrwt>
<pdfrwt beam="1">  1       21 0.69461344E-02 0.30000000E+03</pdfrwt>
<pdfrwt beam="2">0</pdfrwt>
<totfact> 0.16353603E+04</totfact>
</mgrwt>
</event>
<event>
 6    1  0.6513574E-002  0.3000000E+03  0.7818608E-02  0.1093470E+00
         21   -1    0    0  501  502  0.00000000000E+00  0.00000000000E+00  0.84547122108E+01  0.84547122108E+01  0.00000000000E+00 0. -1.
         13   -1    0    0    0    0 -0.00000000000E+00 -0.00000000000E+00 -0.10000000000E+04  0.10000000000E+04  0.00000000000E+00 0.  1.
    9000005    2    1    2  501    0 -0.66061995742E+02 -0.34159991751E+02 -0.79216596489E+03  0.79565620019E+03  0.32833908610E+01 0.  0.
         13    1    3    3    0    0 -0.54431177967E+02 -0.28605014431E+02 -0.66699576111E+03  0.66982411521E+03  0.00000000000E+00 0.  1.
          1    1    3    3  501    0 -0.11630817775E+02 -0.55549773198E+01 -0.12517020378E+03  0.12583208498E+03  0.00000000000E+00 0.  1.
         -1    1    1    2    0  502  0.66061995742E+02  0.34159991751E+02 -0.19937932290E+03  0.21279851202E+03  0.00000000000E+00 0. -1.
<mgrwt>
<rscale>  1 0.30000000E+03</rscale>
<asrwt>0</asrwt>
<pdfrwt beam="1">  1       21 0.30744473E-01 0.30000000E+03</pdfrwt>
<pdfrwt beam="2">0</pdfrwt>
<totfact> 0.10351563E+03</totfact>
</mgrwt>
</event>
<event>
 6    1  0.6513574E-002  0.3000000E+03  0.7818608E-02  0.1093470E+00
         21   -1    0    0  501  502  0.00000000000E+00  0.00000000000E+00  0.71853022614E+01  0.71853022614E+01  0.00000000000E+00 0. -1.
         13   -1    0    0    0    0 -0.00000000000E+00 -0.00000000000E+00 -0.10000000000E+04  0.10000000000E+04  0.00000000000E+00 0.  1.
    9000005    2    1    2  501    0 -0.24723850070E+02  0.77319138561E+02 -0.64072611386E+03  0.64586011790E+03  0.39775586105E+01 0.  0.
         13    1    3    3    0    0 -0.16762283017E+01  0.27225755746E+01 -0.25459035400E+02  0.25659007046E+02  0.00000000000E+00 0.  1.
          3    1    3    3  501    0 -0.23047621768E+02  0.74596562987E+02 -0.61526707846E+03  0.62020111086E+03  0.00000000000E+00 0.  1.
         -1    1    1    2    0  502  0.24723850070E+02 -0.77319138561E+02 -0.35208858388E+03  0.36132518436E+03  0.00000000000E+00 0. -1.
<mgrwt>
<rscale>  1 0.30000000E+03</rscale>
<asrwt>0</asrwt>
<pdfrwt beam="1">  1       21 0.26128427E-01 0.30000000E+03</pdfrwt>
<pdfrwt beam="2">0</pdfrwt>
<totfact> 0.14300785E+03</totfact>
</mgrwt>
</event>
<event>
 6    1  0.6513574E-002  0.3000000E+03  0.7818608E-02  0.1093470E+00
         21   -1    0    0  501  502  0.00000000000E+00  0.00000000000E+00  0.18860056774E+01  0.18860056774E+01  0.00000000000E+00 0. -1.
         13   -1    0    0    0    0 -0.00000000000E+00 -0.00000000000E+00 -0.10000000000E+04  0.10000000000E+04  0.00000000000E+00 0.  1.
    9000005    2    1    2  501    0  0.35726250339E+02  0.10532707975E+02 -0.75584079206E+03  0.75676642785E+03  0.35805692130E+01 0.  0.
         13    1    3    3    0    0  0.21878760919E+02  0.65520659486E+01 -0.42745677174E+03  0.42806646850E+03  0.00000000000E+00 0.  1.
          3    1    3    3  501    0  0.13847489419E+02  0.39806420268E+01 -0.32838402032E+03  0.32869995935E+03  0.00000000000E+00 0.  1.
         -1    1    1    2    0  502 -0.35726250339E+02 -0.10532707975E+02 -0.24227320226E+03  0.24511957783E+03  0.00000000000E+00 0. -1.
<mgrwt>
<rscale>  1 0.30000000E+03</rscale>
<asrwt>0</asrwt>
<pdfrwt beam="1">  1       21 0.68582169E-02 0.30000000E+03</pdfrwt>
<pdfrwt beam="2">0</pdfrwt>
<totfact> 0.16719769E+04</totfact>
</mgrwt>
</event>
<event>
 6    1  0.6513574E-002  0.3000000E+03  0.7818608E-02  0.1093470E+00
         21   -1    0    0  501  502  0.00000000000E+00  0.00000000000E+00  0.22781992814E+01  0.22781992814E+01  0.00000000000E+00 0. -1.
         13   -1    0    0    0    0 -0.00000000000E+00 -0.00000000000E+00 -0.10000000000E+04  0.10000000000E+04  0.00000000000E+00 0.  1.
    9000005    2    1    2  501    0  0.33784058708E+02  0.76151005482E+01 -0.84272286416E+03  0.84345747421E+03  0.62715737310E+01 0.  0.
         13    1    3    3    0    0  0.22590213275E+02  0.63453437630E+01 -0.50139712705E+03  0.50194587371E+03  0.00000000000E+00 0.  1.
          1    1    3    3  501    0  0.11193845432E+02  0.12697567851E+01 -0.34132573711E+03  0.34151160050E+03  0.00000000000E+00 0.  1.
         -3    1    1    2    0  502 -0.33784058708E+02 -0.76151005482E+01 -0.15499893656E+03  0.15882072507E+03  0.00000000000E+00 0. -1.
<mgrwt>
<rscale>  1 0.30000000E+03</rscale>
<asrwt>0</asrwt>
<pdfrwt beam="1">  1       21 0.82843785E-02 0.30000000E+03</pdfrwt>
<pdfrwt beam="2">0</pdfrwt>
<totfact> 0.12012937E+04</totfact>
</mgrwt>
</event>
<event>
 6    1  0.6513574E-002  0.3000000E+03  0.7818608E-02  0.1093470E+00
         21   -1    0    0  501  502  0.00000000000E+00  0.00000000000E+00  0.16756026820E+01  0.16756026820E+01  0.00000000000E+00 0. -1.
         13   -1    0    0    0    0 -0.00000000000E+00 -0.00000000000E+00 -0.10000000000E+04  0.10000000000E+04  0.00000000000E+00 0.  1.
    9000005    2    1    2  501    0 -0.38032075393E+02 -0.10748176531E+02 -0.62452679949E+03  0.62579449621E+03  0.48027235350E+01 0.  0.
         13    1    3    3    0    0 -0.12355234696E+02 -0.55716600679E+01 -0.23030545092E+03  0.23070391402E+03  0.00000000000E+00 0.  1.
          1    1    3    3  501    0 -0.25676840697E+02 -0.51765164634E+01 -0.39422134857E+03  0.39509058219E+03  0.00000000000E+00 0.  1.
         -3    1    1    2    0  502  0.38032075393E+02  0.10748176531E+02 -0.37379759783E+03  0.37588110647E+03  0.00000000000E+00 0. -1.
<mgrwt>
<rscale>  1 0.30000000E+03</rscale>
<asrwt>0</asrwt>
<pdfrwt beam="1">  1       21 0.60931135E-02 0.30000000E+03</pdfrwt>
<pdfrwt beam="2">0</pdfrwt>
<totfact> 0.20519219E+04</totfact>
</mgrwt>
</event>
<event>
 6    1  0.6513574E-002  0.3000000E+03  0.7818608E-02  0.1093470E+00
         21   -1    0    0  501  502  0.00000000000E+00  0.00000000000E+00  0.14167830963E+01  0.14167830963E+01  0.00000000000E+00 0. -1.
         13   -1    0    0    0    0 -0.00000000000E+00 -0.00000000000E+00 -0.10000000000E+04  0.10000000000E+04  0.00000000000E+00 0.  1.
    9000005    2    1    2  501    0  0.16089802976E+02  0.33832515520E+02 -0.48522646566E+03  0.48669484368E+03  0.48607637535E+01 0.  0.
         13    1    3    3    0    0  0.86403992103E+01  0.23259760908E+02 -0.32824167039E+03  0.32917816932E+03  0.00000000000E+00 0.  1.
          3    1    3    3  501    0  0.74494037654E+01  0.10572754612E+02 -0.15698479527E+03  0.15751667437E+03  0.00000000000E+00 0.  1.
         -3    1    1    2    0  502 -0.16089802976E+02 -0.33832515520E+02 -0.51335675124E+03  0.51472193941E+03  0.00000000000E+00 0. -1.
<mgrwt>
<rscale>  1 0.30000000E+03</rscale>
<asrwt>0</asrwt>
<pdfrwt beam="1">  1       21 0.51519494E-02 0.30000000E+03</pdfrwt>
<pdfrwt beam="2">0</pdfrwt>
<totfact> 0.27370418E+04</totfact>
</mgrwt>
</event>
<event>
 6    1  0.6513574E-002  0.3000000E+03  0.7818608E-02  0.1093470E+00
         21   -1    0    0  501  502  0.00000000000E+00  0.00000000000E+00  0.16810642807E+01  0.16810642807E+01  0.00000000000E+00 0. -1.
         13   -1    0    0    0    0 -0.00000000000E+00 -0.00000000000E+00 -0.10000000000E+04  0.10000000000E+04  0.00000000000E+00 0.  1.
    9000005    2    1    2  501    0 -0.25926623137E+02 -0.20359723923E+02 -0.20891120100E+03  0.21158532339E+03  0.61441861594E+01 0.  0.
         13    1    3    3    0    0 -0.69731037659E+01 -0.71158885467E+01 -0.79861841976E+02  0.80480891209E+02  0.00000000000E+00 0.  1.
          1    1    3    3  501    0 -0.18953519371E+02 -0.13243835376E+02 -0.12904935902E+03  0.13110443218E+03  0.00000000000E+00 0.  1.
         -1    1    1    2    0  502  0.25926623137E+02  0.20359723923E+02 -0.78940773472E+03  0.79009574089E+03  0.00000000000E+00 0. -1.
<mgrwt>
<rscale>  1 0.30000000E+03</rscale>
<asrwt>0</asrwt>
<pdfrwt beam="1">  1       21 0.61129739E-02 0.30000000E+03</pdfrwt>
<pdfrwt beam="2">0</pdfrwt>
<totfact> 0.20404300E+04</totfact>
</mgrwt>
</event>
<event>
 6    1  0.6513574E-002  0.3000000E+03  0.7818608E-02  0.1093470E+00
         21   -1    0    0  501  502  0.00000000000E+00  0.00000000000E+00  0.14073834850E+01  0.14073834850E+01  0.00000000000E+00 0. -1.
         13   -1    0    0    0    0 -0.00000000000E+00 -0.00000000000E+00 -0.10000000000E+04  0.10000000000E+04  0.00000000000E+00 0.  1.
    9000005    2    1    2  501    0 -0.26233525803E+02 -0.22517267630E+02 -0.30856881869E+03  0.31051805314E+03  0.33941481267E+01 0.  0.
         13    1    3    3    0    0 -0.45052505605E+01 -0.32995735348E+01 -0.61207058268E+02  0.61461276020E+02  0.00000000000E+00 0.  1.
          1    1    3    3  501    0 -0.21728275243E+02 -0.19217694095E+02 -0.24736176042E+03  0.24905677712E+03  0.00000000000E+00 0.  1.
         -3    1    1    2    0  502  0.26233525803E+02  0.22517267630E+02 -0.69002379782E+03  0.69088933034E+03  0.00000000000E+00 0. -1.
<mgrwt>
<rscale>  1 0.30000000E+03</rscale>
<asrwt>0</asrwt>
<pdfrwt beam="1">  1       21 0.51177689E-02 0.30000000E+03</pdfrwt>
<pdfrwt beam="2">0</pdfrwt>
<totfact> 0.27683215E+04</totfact>
</mgrwt>
</event>
<event>
 6    1  0.6513574E-002  0.3000000E+03  0.7818608E-02  0.1093470E+00
         21   -1    0    0  501  502  0.00000000000E+00  0.00000000000E+00  0.24474583421E+01  0.24474583421E+01  0.00000000000E+00 0. -1.
         13   -1    0    0    0    0 -0.00000000000E+00 -0.00000000000E+00 -0.10000000000E+04  0.10000000000E+04  0.00000000000E+00 0.  1.
    9000005    2    1    2  501    0 -0.29422079117E+02  0.28286900232E+02 -0.21677437716E+03  0.22060326055E+03  0.29766605272E+01 0.  0.
         13    1    3    3    0    0 -0.71315823340E+01  0.86383556092E+01 -0.57580011994E+02  0.58659512745E+02  0.00000000000E+00 0.  1.
          3    1    3    3  501    0 -0.22290496783E+02  0.19648544623E+02 -0.15919436517E+03  0.16194374781E+03  0.00000000000E+00 0.  1.
         -3    1    1    2    0  502  0.29422079117E+02 -0.28286900232E+02 -0.78077816450E+03  0.78184419779E+03  0.00000000000E+00 0. -1.
<mgrwt>
<rscale>  1 0.30000000E+03</rscale>
<asrwt>0</asrwt>
<pdfrwt beam="1">  1       21 0.88998673E-02 0.30000000E+03</pdfrwt>
<pdfrwt beam="2">0</pdfrwt>
<totfact> 0.10585748E+04</totfact>
</mgrwt>
</event>
<event>
 6    1  0.6513574E-002  0.3000000E+03  0.7818608E-02  0.1093470E+00
         21   -1    0    0  501  502  0.00000000000E+00  0.00000000000E+00  0.10425084592E+01  0.10425084592E+01  0.00000000000E+00 0. -1.
         13   -1    0    0    0    0 -0.00000000000E+00 -0.00000000000E+00 -0.10000000000E+04  0.10000000000E+04  0.00000000000E+00 0.  1.
    9000005    2    1    2  501    0  0.15703292868E+02 -0.26256896730E+02 -0.34509496306E+03  0.34646461074E+03  0.33428927862E+01 0.  0.
         13    1    3    3    0    0  0.73049160922E+01 -0.10810182366E+02 -0.16399107903E+03  0.16450925762E+03  0.00000000000E+00 0.  1.
          1    1    3    3  501    0  0.83983767760E+01 -0.15446714364E+02 -0.18110388404E+03  0.18195535312E+03  0.00000000000E+00 0.  1.
         -3    1    1    2    0  502 -0.15703292868E+02  0.26256896730E+02 -0.65386252848E+03  0.65457789772E+03  0.00000000000E+00 0. -1.
<mgrwt>
<rscale>  1 0.30000000E+03</rscale>
<asrwt>0</asrwt>
<pdfrwt beam="1">  1       21 0.37909478E-02 0.30000000E+03</pdfrwt>
<pdfrwt beam="2">0</pdfrwt>
<totfact> 0.46020111E+04</totfact>
</mgrwt>
</event>
<event>
 6    1  0.6513574E-002  0.3000000E+03  0.7818608E-02  0.1093470E+00
         21   -1    0    0  501  502  0.00000000000E+00  0.00000000000E+00  0.33983094658E+01  0.33983094658E+01  0.00000000000E+00 0. -1.
         13   -1    0    0    0    0 -0.00000000000E+00 -0.00000000000E+00 -0.10000000000E+04  0.10000000000E+04  0.00000000000E+00 0.  1.
    9000005    2    1    2  501    0  0.55774095138E+02  0.90970949989E+01 -0.62041238664E+03  0.62298813717E+03  0.30303012302E+01 0.  0.
         13    1    3    3    0    0  0.40944786130E+02  0.54962737773E+01 -0.46031699586E+03  0.46216709231E+03  0.00000000000E+00 0.  1.
          3    1    3    3  501    0  0.14829309008E+02  0.36008212215E+01 -0.16009539078E+03  0.16082104485E+03  0.00000000000E+00 0.  1.
         -3    1    1    2    0  502 -0.55774095138E+02 -0.90970949989E+01 -0.37618930389E+03  0.38041017230E+03  0.00000000000E+00 0. -1.
<mgrwt>
<rscale>  1 0.30000000E+03</rscale>
<asrwt>0</asrwt>
<pdfrwt beam="1">  1       21 0.12357515E-01 0.30000000E+03</pdfrwt>
<pdfrwt beam="2">0</pdfrwt>
<totfact> 0.58750558E+03</totfact>
</mgrwt>
</event>
<event>
 6    1  0.6513574E-002  0.3000000E+03  0.7818608E-02  0.1093470E+00
         21   -1    0    0  501  502  0.00000000000E+00  0.00000000000E+00  0.12646397171E+01  0.12646397171E+01  0.00000000000E+00 0. -1.
         13   -1    0    0    0    0 -0.00000000000E+00 -0.00000000000E+00 -0.10000000000E+04  0.10000000000E+04  0.00000000000E+00 0.  1.
    9000005    2    1    2  501    0 -0.34767442281E+02 -0.69284198839E+01 -0.47671369765E+03  0.47804060137E+03  0.31763166433E+01 0.  0.
         13    1    3    3    0    0 -0.10920601962E+02 -0.87922586913E+00 -0.15685129176E+03  0.15723345799E+03  0.00000000000E+00 0.  1.
          1    1    3    3  501    0 -0.23846840319E+02 -0.60491940148E+01 -0.31986240590E+03  0.32080714338E+03  0.00000000000E+00 0.  1.
         -3    1    1    2    0  502  0.34767442281E+02  0.69284198839E+01 -0.52202166263E+03  0.52322403834E+03  0.00000000000E+00 0. -1.
<mgrwt>
<rscale>  1 0.30000000E+03</rscale>
<asrwt>0</asrwt>
<pdfrwt beam="1">  1       21 0.45986996E-02 0.30000000E+03</pdfrwt>
<pdfrwt beam="2">0</pdfrwt>
<totfact> 0.33211734E+04</totfact>
</mgrwt>
</event>
<event>
 6    1  0.6513574E-002  0.3000000E+03  0.7818608E-02  0.1093470E+00
         21   -1    0    0  501  502  0.00000000000E+00  0.00000000000E+00  0.16091204738E+01  0.16091204738E+01  0.00000000000E+00 0. -1.
         13   -1    0    0    0    0 -0.00000000000E+00 -0.00000000000E+00 -0.10000000000E+04  0.10000000000E+04  0.00000000000E+00 0.  1.
    9000005    2    1    2  501    0  0.33780178413E+02 -0.21389354970E+02 -0.47432928799E+03  0.47602453481E+03  0.35326109727E+01 0.  0.
         13    1    3    3    0    0  0.29058405850E+02 -0.19260753895E+02 -0.40100708933E+03  0.40251963093E+03  0.00000000000E+00 0.  1.
          3    1    3    3  501    0  0.47217725624E+01 -0.21286010746E+01 -0.73322198658E+02  0.73504903882E+02  0.00000000000E+00 0.  1.
         -3    1    1    2    0  502 -0.33780178413E+02  0.21389354970E+02 -0.52406159154E+03  0.52558458566E+03  0.00000000000E+00 0. -1.
<mgrwt>
<rscale>  1 0.30000000E+03</rscale>
<asrwt>0</asrwt>
<pdfrwt beam="1">  1       21 0.58513595E-02 0.30000000E+03</pdfrwt>
<pdfrwt beam="2">0</pdfrwt>
<totfact> 0.22002853E+04</totfact>
</mgrwt>
</event>
<event>
 6    1  0.6513574E-002  0.3000000E+03  0.7818608E-02  0.1093470E+00
         21   -1    0    0  501  502  0.00000000000E+00  0.00000000000E+00  0.11279522665E+01  0.11279522665E+01  0.00000000000E+00 0. -1.
         13   -1    0    0    0    0 -0.00000000000E+00 -0.00000000000E+00 -0.10000000000E+04  0.10000000000E+04  0.00000000000E+00 0.  1.
    9000005    2    1    2  501    0  0.20917782057E+02  0.24761744067E+02 -0.62685118660E+03  0.62769761245E+03  0.33443924108E+01 0.  0.
         13    1    3    3    0    0  0.12099743987E+02  0.15765609612E+02 -0.40893441067E+03  0.40941703737E+03  0.00000000000E+00 0.  1.
          1    1    3    3  501    0  0.88180380706E+01  0.89961344552E+01 -0.21791677593E+03  0.21828057509E+03  0.00000000000E+00 0.  1.
         -3    1    1    2    0  502 -0.20917782057E+02 -0.24761744067E+02 -0.37202086113E+03  0.37343033981E+03  0.00000000000E+00 0. -1.
<mgrwt>
<rscale>  1 0.30000000E+03</rscale>
<asrwt>0</asrwt>
<pdfrwt beam="1">  1       21 0.41016533E-02 0.30000000E+03</pdfrwt>
<pdfrwt beam="2">0</pdfrwt>
<totfact> 0.40306225E+04</totfact>
</mgrwt>
</event>
<event>
 6    1  0.6513574E-002  0.3000000E+03  0.7818608E-02  0.1093470E+00
         21   -1    0    0  501  502  0.00000000000E+00  0.00000000000E+00  0.10563336294E+01  0.10563336294E+01  0.00000000000E+00 0. -1.
         13   -1    0    0    0    0 -0.00000000000E+00 -0.00000000000E+00 -0.10000000000E+04  0.10000000000E+04  0.00000000000E+00 0.  1.
    9000005    2    1    2  501    0  0.50878239135E+01  0.32019481598E+02 -0.50200279307E+03  0.50305897951E+03  0.32248194762E+01 0.  0.
         13    1    3    3    0    0  0.46577499099E+00  0.64330644494E+01 -0.82983431101E+02  0.83233713734E+02  0.00000000000E+00 0.  1.
          1    1    3    3  501    0  0.46220489225E+01  0.25586417149E+02 -0.41901936197E+03  0.41982526578E+03  0.00000000000E+00 0.  1.
         -3    1    1    2    0  502 -0.50878239135E+01 -0.32019481598E+02 -0.49694087330E+03  0.49799735412E+03  0.00000000000E+00 0. -1.
<mgrwt>
<rscale>  1 0.30000000E+03</rscale>
<asrwt>0</asrwt>
<pdfrwt beam="1">  1       21 0.38412213E-02 0.30000000E+03</pdfrwt>
<pdfrwt beam="2">0</pdfrwt>
<totfact> 0.45012493E+04</totfact>
</mgrwt>
</event>
<event>
 6    1  0.6513574E-002  0.3000000E+03  0.7818608E-02  0.1093470E+00
         21   -1    0    0  501  502  0.00000000000E+00  0.00000000000E+00  0.54218722054E+01  0.54218722054E+01  0.00000000000E+00 0. -1.
         13   -1    0    0    0    0 -0.00000000000E+00 -0.00000000000E+00 -0.10000000000E+04  0.10000000000E+04  0.00000000000E+00 0.  1.
    9000005    2    1    2  501    0  0.53623362832E+02 -0.37630146774E+02 -0.72592364521E+03  0.72889569984E+03  0.56841525033E+01 0.  0.
         13    1    3    3    0    0  0.43591395484E+02 -0.33018516492E+02 -0.61194011529E+03  0.61437865921E+03  0.00000000000E+00 0.  1.
          1    1    3    3  501    0  0.10031967348E+02 -0.46116302812E+01 -0.11398352992E+03  0.11451704064E+03  0.00000000000E+00 0.  1.
         -1    1    1    2    0  502 -0.53623362832E+02  0.37630146774E+02 -0.26865448258E+03  0.27652617236E+03  0.00000000000E+00 0. -1.
<mgrwt>
<rscale>  1 0.30000000E+03</rscale>
<asrwt>0</asrwt>
<pdfrwt beam="1">  1       21 0.19715941E-01 0.30000000E+03</pdfrwt>
<pdfrwt beam="2">0</pdfrwt>
<totfact> 0.24655710E+03</totfact>
</mgrwt>
</event>
<event>
 6    1  0.6513574E-002  0.3000000E+03  0.7818608E-02  0.1093470E+00
         21   -1    0    0  501  502  0.00000000000E+00  0.00000000000E+00  0.30541040223E+01  0.30541040223E+01  0.00000000000E+00 0. -1.
         13   -1    0    0    0    0 -0.00000000000E+00 -0.00000000000E+00 -0.10000000000E+04  0.10000000000E+04  0.00000000000E+00 0.  1.
    9000005    2    1    2  501    0  0.35326726021E+02 -0.42047085820E+02 -0.55136024002E+03  0.55409696598E+03  0.30656881963E+01 0.  0.
         13    1    3    3    0    0  0.29637351061E+02 -0.36569937057E+02 -0.47875091271E+03  0.48105942387E+03  0.00000000000E+00 0.  1.
          1    1    3    3  501    0  0.56893749598E+01 -0.54771487622E+01 -0.72609327303E+02  0.73037542110E+02  0.00000000000E+00 0.  1.
         -1    1    1    2    0  502 -0.35326726021E+02  0.42047085820E+02 -0.44558565596E+03  0.44895713804E+03  0.00000000000E+00 0. -1.
<mgrwt>
<rscale>  1 0.30000000E+03</rscale>
<asrwt>0</asrwt>
<pdfrwt beam="1">  1       21 0.11105856E-01 0.30000000E+03</pdfrwt>
<pdfrwt beam="2">0</pdfrwt>
<totfact> 0.71280841E+03</totfact>
</mgrwt>
</event>
<event>
 6    1  0.6513574E-002  0.3000000E+03  0.7818608E-02  0.1093470E+00
         21   -1    0    0  501  502  0.00000000000E+00  0.00000000000E+00  0.19798250517E+01  0.19798250517E+01  0.00000000000E+00 0. -1.
         13   -1    0    0    0    0 -0.00000000000E+00 -0.00000000000E+00 -0.10000000000E+04  0.10000000000E+04  0.00000000000E+00 0.  1.
    9000005    2    1    2  501    0 -0.37348228736E+02 -0.24106872859E+02 -0.49621555692E+03  0.49821012948E+03  0.27244580455E+01 0.  0.
         13    1    3    3    0    0 -0.40716442902E+01 -0.32926419435E+01 -0.51244341977E+02  0.51511186774E+02  0.00000000000E+00 0.  1.
          1    1    3    3  501    0 -0.33276584446E+02 -0.20814230915E+02 -0.44497121494E+03  0.44669894270E+03  0.00000000000E+00 0.  1.
         -3    1    1    2    0  502  0.37348228736E+02  0.24106872859E+02 -0.50180461803E+03  0.50376969558E+03  0.00000000000E+00 0. -1.
<mgrwt>
<rscale>  1 0.30000000E+03</rscale>
<asrwt>0</asrwt>
<pdfrwt beam="1">  1       21 0.71993790E-02 0.30000000E+03</pdfrwt>
<pdfrwt beam="2">0</pdfrwt>
<totfact> 0.15364726E+04</totfact>
</mgrwt>
</event>
<event>
 6    1  0.6513574E-002  0.3000000E+03  0.7818608E-02  0.1093470E+00
         21   -1    0    0  501  502  0.00000000000E+00  0.00000000000E+00  0.40942641265E+01  0.40942641265E+01  0.00000000000E+00 0. -1.
         13   -1    0    0    0    0 -0.00000000000E+00 -0.00000000000E+00 -0.10000000000E+04  0.10000000000E+04  0.00000000000E+00 0.  1.
    9000005    2    1    2  501    0 -0.61013989848E+02 -0.17502295384E+02 -0.43751436220E+03  0.44210675226E+03  0.32443738696E+01 0.  0.
         13    1    3    3    0    0 -0.20466532119E+02 -0.55729233371E+01 -0.15684103987E+03  0.15826891103E+03  0.00000000000E+00 0.  1.
          1    1    3    3  501    0 -0.40547457729E+02 -0.11929372047E+02 -0.28067332233E+03  0.28383784123E+03  0.00000000000E+00 0.  1.
         -3    1    1    2    0  502  0.61013989848E+02  0.17502295384E+02 -0.55839137367E+03  0.56198751187E+03  0.00000000000E+00 0. -1.
<mgrwt>
<rscale>  1 0.30000000E+03</rscale>
<asrwt>0</asrwt>
<pdfrwt beam="1">  1       21 0.14888265E-01 0.30000000E+03</pdfrwt>
<pdfrwt beam="2">0</pdfrwt>
<totfact> 0.41753958E+03</totfact>
</mgrwt>
</event>
<event>
 6    1  0.6513574E-002  0.3000000E+03  0.7818608E-02  0.1093470E+00
         21   -1    0    0  501  502  0.00000000000E+00  0.00000000000E+00  0.51032636612E+01  0.51032636612E+01  0.00000000000E+00 0. -1.
         13   -1    0    0    0    0 -0.00000000000E+00 -0.00000000000E+00 -0.10000000000E+04  0.10000000000E+04  0.00000000000E+00 0.  1.
    9000005    2    1    2  501    0  0.63926793182E+02  0.25669996878E+02 -0.36710239279E+03  0.37354066073E+03  0.47827609171E+01 0.  0.
         13    1    3    3    0    0  0.61974002459E+02  0.24159291760E+02 -0.35051524358E+03  0.35677077282E+03  0.00000000000E+00 0.  1.
          1    1    3    3  501    0  0.19527907229E+01  0.15107051178E+01 -0.16587149211E+02  0.16769887910E+02  0.00000000000E+00 0.  1.
         -3    1    1    2    0  502 -0.63926793182E+02 -0.25669996878E+02 -0.62779434355E+03  0.63156260293E+03  0.00000000000E+00 0. -1.
<mgrwt>
<rscale>  1 0.30000000E+03</rscale>
<asrwt>0</asrwt>
<pdfrwt beam="1">  1       21 0.18557362E-01 0.30000000E+03</pdfrwt>
<pdfrwt beam="2">0</pdfrwt>
<totfact> 0.27657673E+03</totfact>
</mgrwt>
</event>
<event>
 6    1  0.6513574E-002  0.3000000E+03  0.7818608E-02  0.1093470E+00
         21   -1    0    0  501  502  0.00000000000E+00  0.00000000000E+00  0.94803728706E+00  0.94803728706E+00  0.00000000000E+00 0. -1.
         13   -1    0    0    0    0 -0.00000000000E+00 -0.00000000000E+00 -0.10000000000E+04  0.10000000000E+04  0.00000000000E+00 0.  1.
    9000005    2    1    2  501    0 -0.11879362946E+02 -0.27939718538E+02 -0.42715070230E+03  0.42824148172E+03  0.33611081595E+01 0.  0.
         13    1    3    3    0    0 -0.35039187218E+01 -0.48749881644E+01 -0.86702422898E+02  0.86910028721E+02  0.00000000000E+00 0.  1.
          3    1    3    3  501    0 -0.83754442240E+01 -0.23064730374E+02 -0.34044827941E+03  0.34133145299E+03  0.00000000000E+00 0.  1.
         -3    1    1    2    0  502  0.11879362946E+02  0.27939718538E+02 -0.57190126041E+03  0.57270655557E+03  0.00000000000E+00 0. -1.
<mgrwt>
<rscale>  1 0.30000000E+03</rscale>
<asrwt>0</asrwt>
<pdfrwt beam="1">  1       21 0.34474156E-02 0.30000000E+03</pdfrwt>
<pdfrwt beam="2">0</pdfrwt>
<totfact> 0.53966860E+04</totfact>
</mgrwt>
</event>
<event>
 6    1  0.6513574E-002  0.3000000E+03  0.7818608E-02  0.1093470E+00
         21   -1    0    0  501  502  0.00000000000E+00  0.00000000000E+00  0.12993984860E+01  0.12993984860E+01  0.00000000000E+00 0. -1.
         13   -1    0    0    0    0 -0.00000000000E+00 -0.00000000000E+00 -0.10000000000E+04  0.10000000000E+04  0.00000000000E+00 0.  1.
    9000005    2    1    2  501    0  0.51955461627E+01  0.35587936527E+02 -0.48406779624E+03  0.48541140755E+03  0.30179957492E+01 0.  0.
         13    1    3    3    0    0  0.19352281840E+01  0.86697745377E+01 -0.10501358184E+03  0.10538862590E+03  0.00000000000E+00 0.  1.
          3    1    3    3  501    0  0.32603179787E+01  0.26918161989E+02 -0.37905421440E+03  0.38002278165E+03  0.00000000000E+00 0.  1.
         -3    1    1    2    0  502 -0.51955461627E+01 -0.35587936527E+02 -0.51463280528E+03  0.51588799094E+03  0.00000000000E+00 0. -1.
<mgrwt>
<rscale>  1 0.30000000E+03</rscale>
<asrwt>0</asrwt>
<pdfrwt beam="1">  1       21 0.47250954E-02 0.30000000E+03</pdfrwt>
<pdfrwt beam="2">0</pdfrwt>
<totfact> 0.31715842E+04</totfact>
</mgrwt>
</event>
<event>
 6    1  0.6513574E-002  0.3000000E+03  0.7818608E-02  0.1093470E+00
         21   -1    0    0  501  502  0.00000000000E+00  0.00000000000E+00  0.11266181207E+01  0.11266181207E+01  0.00000000000E+00 0. -1.
         13   -1    0    0    0    0 -0.00000000000E+00 -0.00000000000E+00 -0.10000000000E+04  0.10000000000E+04  0.00000000000E+00 0.  1.
    9000005    2    1    2  501    0  0.20250383173E+02  0.24013307961E+02 -0.33220547830E+03  0.33371908847E+03  0.46079513535E+01 0.  0.
         13    1    3    3    0    0  0.85890018001E+01  0.12162524303E+02 -0.17721249373E+03  0.17783690810E+03  0.00000000000E+00 0.  1.
          1    1    3    3  501    0  0.11661381372E+02  0.11850783659E+02 -0.15499298458E+03  0.15588218037E+03  0.00000000000E+00 0.  1.
         -1    1    1    2    0  502 -0.20250383173E+02 -0.24013307961E+02 -0.66666790358E+03  0.66740752965E+03  0.00000000000E+00 0. -1.
<mgrwt>
<rscale>  1 0.30000000E+03</rscale>
<asrwt>0</asrwt>
<pdfrwt beam="1">  1       21 0.40968018E-02 0.30000000E+03</pdfrwt>
<pdfrwt beam="2">0</pdfrwt>
<totfact> 0.40386743E+04</totfact>
</mgrwt>
</event>
<event>
 6    1  0.6513574E-002  0.3000000E+03  0.7818608E-02  0.1093470E+00
         21   -1    0    0  501  502  0.00000000000E+00  0.00000000000E+00  0.95757041630E+00  0.95757041630E+00  0.00000000000E+00 0. -1.
         13   -1    0    0    0    0 -0.00000000000E+00 -0.00000000000E+00 -0.10000000000E+04  0.10000000000E+04  0.00000000000E+00 0.  1.
    9000005    2    1    2  501    0 -0.28858617996E+02  0.10761475960E+02 -0.47135041739E+03  0.47236747504E+03  0.33445932416E+01 0.  0.
         13    1    3    3    0    0 -0.26864969572E+02  0.10797102610E+02 -0.44594343994E+03  0.44688237339E+03  0.00000000000E+00 0.  1.
          3    1    3    3  501    0 -0.19936484237E+01 -0.35626650225E-01 -0.25406977446E+02  0.25485101652E+02  0.00000000000E+00 0.  1.
         -3    1    1    2    0  502  0.28858617996E+02 -0.10761475960E+02 -0.52769201219E+03  0.52859009538E+03  0.00000000000E+00 0. -1.
<mgrwt>
<rscale>  1 0.30000000E+03</rscale>
<asrwt>0</asrwt>
<pdfrwt beam="1">  1       21 0.34820816E-02 0.30000000E+03</pdfrwt>
<pdfrwt beam="2">0</pdfrwt>
<totfact> 0.53070888E+04</totfact>
</mgrwt>
</event>
<event>
 6    1  0.6513574E-002  0.3000000E+03  0.7818608E-02  0.1093470E+00
         21   -1    0    0  501  502  0.00000000000E+00  0.00000000000E+00  0.11636631905E+01  0.11636631905E+01  0.00000000000E+00 0. -1.
         13   -1    0    0    0    0 -0.00000000000E+00 -0.00000000000E+00 -0.10000000000E+04  0.10000000000E+04  0.00000000000E+00 0.  1.
    9000005    2    1    2  501    0  0.83296944323E+01  0.30037669484E+02 -0.30042970779E+03  0.30206176443E+03  0.34139139016E+01 0.  0.
         13    1    3    3    0    0  0.28729479493E+01  0.10219727562E+02 -0.11847401729E+03  0.11894868404E+03  0.00000000000E+00 0.  1.
          3    1    3    3  501    0  0.54567464831E+01  0.19817941923E+02 -0.18195569050E+03  0.18311308039E+03  0.00000000000E+00 0.  1.
         -3    1    1    2    0  502 -0.83296944323E+01 -0.30037669484E+02 -0.69840662902E+03  0.69910189876E+03  0.00000000000E+00 0. -1.
<mgrwt>
<rscale>  1 0.30000000E+03</rscale>
<asrwt>0</asrwt>
<pdfrwt beam="1">  1       21 0.42315114E-02 0.30000000E+03</pdfrwt>
<pdfrwt beam="2">0</pdfrwt>
<totfact> 0.38240609E+04</totfact>
</mgrwt>
</event>
<event>
 6    1  0.6513574E-002  0.3000000E+03  0.7818608E-02  0.1093470E+00
         21   -1    0    0  501  502  0.00000000000E+00  0.00000000000E+00  0.10365850815E+01  0.10365850815E+01  0.00000000000E+00 0. -1.
         13   -1    0    0    0    0 -0.00000000000E+00 -0.00000000000E+00 -0.10000000000E+04  0.10000000000E+04  0.00000000000E+00 0.  1.
    9000005    2    1    2  501    0 -0.22639907636E+02  0.22212731095E+02 -0.57811987757E+03  0.57899955618E+03  0.34528783074E+01 0.  0.
         13    1    3    3    0    0 -0.21398365423E+02  0.20750175257E+02 -0.52544747916E+03  0.52629223172E+03  0.00000000000E+00 0.  1.
          1    1    3    3  501    0 -0.12415422131E+01  0.14625558376E+01 -0.52672398414E+02  0.52707324457E+02  0.00000000000E+00 0.  1.
         -1    1    1    2    0  502  0.22639907636E+02 -0.22212731095E+02 -0.42084353735E+03  0.42203702890E+03  0.00000000000E+00 0. -1.
<mgrwt>
<rscale>  1 0.30000000E+03</rscale>
<asrwt>0</asrwt>
<pdfrwt beam="1">  1       21 0.37694082E-02 0.30000000E+03</pdfrwt>
<pdfrwt beam="2">0</pdfrwt>
<totfact> 0.46462710E+04</totfact>
</mgrwt>
</event>
<event>
 6    1  0.6513574E-002  0.3000000E+03  0.7818608E-02  0.1093470E+00
         21   -1    0    0  501  502  0.00000000000E+00  0.00000000000E+00  0.54409659296E+01  0.54409659296E+01  0.00000000000E+00 0. -1.
         13   -1    0    0    0    0 -0.00000000000E+00 -0.00000000000E+00 -0.10000000000E+04  0.10000000000E+04  0.00000000000E+00 0.  1.
    9000005    2    1    2  501    0 -0.25652174630E+02 -0.68109809579E+02 -0.42937039598E+03  0.43558556598E+03  0.88807726533E+01 0.  0.
         13    1    3    3    0    0 -0.81355437030E+01 -0.31829728656E+02 -0.20813330835E+03  0.21071021034E+03  0.00000000000E+00 0.  1.
          1    1    3    3  501    0 -0.17516630927E+02 -0.36280080923E+02 -0.22123708763E+03  0.22487535564E+03  0.00000000000E+00 0.  1.
         -1    1    1    2    0  502  0.25652174630E+02  0.68109809579E+02 -0.56518863809E+03  0.56985539994E+03  0.00000000000E+00 0. -1.
<mgrwt>
<rscale>  1 0.30000000E+03</rscale>
<asrwt>0</asrwt>
<pdfrwt beam="1">  1       21 0.19785372E-01 0.30000000E+03</pdfrwt>
<pdfrwt beam="2">0</pdfrwt>
<totfact> 0.24491106E+03</totfact>
</mgrwt>
</event>
<event>
 6    1  0.6513574E-002  0.3000000E+03  0.7818608E-02  0.1093470E+00
         21   -1    0    0  501  502  0.00000000000E+00  0.00000000000E+00  0.20858522897E+01  0.20858522897E+01  0.00000000000E+00 0. -1.
         13   -1    0    0    0    0 -0.00000000000E+00 -0.00000000000E+00 -0.10000000000E+04  0.10000000000E+04  0.00000000000E+00 0.  1.
    9000005    2    1    2  501    0  0.41730697373E+02 -0.14210182669E+02 -0.62796855803E+03  0.62952294522E+03  0.33538483694E+01 0.  0.
         13    1    3    3    0    0  0.22856590236E+02 -0.64199336746E+01 -0.35269483570E+03  0.35349297927E+03  0.00000000000E+00 0.  1.
          3    1    3    3  501    0  0.18874107137E+02 -0.77902489945E+01 -0.27527372233E+03  0.27602996596E+03  0.00000000000E+00 0.  1.
         -3    1    1    2    0  502 -0.41730697373E+02  0.14210182669E+02 -0.36994558968E+03  0.37256290707E+03  0.00000000000E+00 0. -1.
<mgrwt>
<rscale>  1 0.30000000E+03</rscale>
<asrwt>0</asrwt>
<pdfrwt beam="1">  1       21 0.75849334E-02 0.30000000E+03</pdfrwt>
<pdfrwt beam="2">0</pdfrwt>
<totfact> 0.14025128E+04</totfact>
</mgrwt>
</event>
<event>
 6    1  0.6513574E-002  0.3000000E+03  0.7818608E-02  0.1093470E+00
         21   -1    0    0  501  502  0.00000000000E+00  0.00000000000E+00  0.15087287861E+01  0.15087287861E+01  0.00000000000E+00 0. -1.
         13   -1    0    0    0    0 -0.00000000000E+00 -0.00000000000E+00 -0.10000000000E+04  0.10000000000E+04  0.00000000000E+00 0.  1.
    9000005    2    1    2  501    0 -0.25625249330E+01  0.35695548216E+02 -0.69249844173E+03  0.69343024788E+03  0.32677503209E+01 0.  0.
         13    1    3    3    0    0 -0.33072494972E+01  0.30757854911E+02 -0.60108027842E+03  0.60187580500E+03  0.00000000000E+00 0.  1.
          1    1    3    3  501    0  0.74472456426E+00  0.49376933042E+01 -0.91418163301E+02  0.91554442880E+02  0.00000000000E+00 0.  1.
         -1    1    1    2    0  502  0.25625249330E+01 -0.35695548216E+02 -0.30599282949E+03  0.30807848090E+03  0.00000000000E+00 0. -1.
<mgrwt>
<rscale>  1 0.30000000E+03</rscale>
<asrwt>0</asrwt>
<pdfrwt beam="1">  1       21 0.54862981E-02 0.30000000E+03</pdfrwt>
<pdfrwt beam="2">0</pdfrwt>
<totfact> 0.24579040E+04</totfact>
</mgrwt>
</event>
<event>
 6    1  0.7064766E-002  0.3000000E+03  0.7818608E-02  0.1093470E+00
         21   -1    0    0  501  502  0.00000000000E+00  0.00000000000E+00  0.32855340746E+01  0.32855340746E+01  0.00000000000E+00 0. -1.
         13   -1    0    0    0    0 -0.00000000000E+00 -0.00000000000E+00 -0.10000000000E+04  0.10000000000E+04  0.00000000000E+00 0.  1.
    9000005    2    1    2  501    0 -0.29500274565E+02  0.47706003708E+02 -0.58463907025E+03  0.58741023942E+03  0.10090486347E+02 0.  0.
         13    1    3    3    0    0 -0.25763626535E+02  0.41243963755E+02 -0.53603082653E+03  0.53823217665E+03  0.00000000000E+00 0.  1.
          3    1    3    3  501    0 -0.37366480296E+01  0.64620399534E+01 -0.48608243729E+02  0.49178062765E+02  0.00000000000E+00 0.  1.
         -1    1    1    2    0  502  0.29500274565E+02 -0.47706003708E+02 -0.41207539567E+03  0.41587529466E+03  0.00000000000E+00 0. -1.
<mgrwt>
<rscale>  1 0.30000000E+03</rscale>
<asrwt>0</asrwt>
<pdfrwt beam="1">  1       21 0.11947422E-01 0.30000000E+03</pdfrwt>
<pdfrwt beam="2">0</pdfrwt>
<totfact> 0.62466930E+03</totfact>
</mgrwt>
</event>
<event>
 6    1  0.6513574E-002  0.3000000E+03  0.7818608E-02  0.1093470E+00
         21   -1    0    0  501  502  0.00000000000E+00  0.00000000000E+00  0.13480271053E+01  0.13480271053E+01  0.00000000000E+00 0. -1.
         13   -1    0    0    0    0 -0.00000000000E+00 -0.00000000000E+00 -0.10000000000E+04  0.10000000000E+04  0.00000000000E+00 0.  1.
    9000005    2    1    2  501    0 -0.13115672329E+02 -0.32514446107E+02 -0.64549667948E+03  0.64645667566E+03  0.33256901388E+01 0.  0.
         13    1    3    3    0    0 -0.10855868328E+02 -0.24360727942E+02 -0.50856983919E+03  0.50926866807E+03  0.00000000000E+00 0.  1.
          1    1    3    3  501    0 -0.22598040007E+01 -0.81537181645E+01 -0.13692684029E+03  0.13718800759E+03  0.00000000000E+00 0.  1.
         -3    1    1    2    0  502  0.13115672329E+02  0.32514446107E+02 -0.35315529341E+03  0.35489135145E+03  0.00000000000E+00 0. -1.
<mgrwt>
<rscale>  1 0.30000000E+03</rscale>
<asrwt>0</asrwt>
<pdfrwt beam="1">  1       21 0.49019271E-02 0.30000000E+03</pdfrwt>
<pdfrwt beam="2">0</pdfrwt>
<totfact> 0.29793515E+04</totfact>
</mgrwt>
</event>
<event>
 6    1  0.6513574E-002  0.3000000E+03  0.7818608E-02  0.1093470E+00
         21   -1    0    0  501  502  0.00000000000E+00  0.00000000000E+00  0.10070031173E+01  0.10070031173E+01  0.00000000000E+00 0. -1.
         13   -1    0    0    0    0 -0.00000000000E+00 -0.00000000000E+00 -0.10000000000E+04  0.10000000000E+04  0.00000000000E+00 0.  1.
    9000005    2    1    2  501    0 -0.30964033120E+02  0.22850632670E+01 -0.59712038616E+03  0.59793680066E+03  0.34160141373E+01 0.  0.
         13    1    3    3    0    0 -0.14776386833E+02  0.82027609179E+00 -0.31698819708E+03  0.31733347058E+03  0.00000000000E+00 0.  1.
          3    1    3    3  501    0 -0.16187646287E+02  0.14647871753E+01 -0.28013218908E+03  0.28060333008E+03  0.00000000000E+00 0.  1.
         -3    1    1    2    0  502  0.30964033120E+02 -0.22850632670E+01 -0.40187261072E+03  0.40307020246E+03  0.00000000000E+00 0. -1.
<mgrwt>
<rscale>  1 0.30000000E+03</rscale>
<asrwt>0</asrwt>
<pdfrwt beam="1">  1       21 0.36618372E-02 0.30000000E+03</pdfrwt>
<pdfrwt beam="2">0</pdfrwt>
<totfact> 0.48776758E+04</totfact>
</mgrwt>
</event>
<event>
 6    1  0.6513574E-002  0.3000000E+03  0.7818608E-02  0.1093470E+00
         21   -1    0    0  501  502  0.00000000000E+00  0.00000000000E+00  0.16946156251E+01  0.16946156251E+01  0.00000000000E+00 0. -1.
         13   -1    0    0    0    0 -0.00000000000E+00 -0.00000000000E+00 -0.10000000000E+04  0.10000000000E+04  0.00000000000E+00 0.  1.
    9000005    2    1    2  501    0 -0.11752813722E+02 -0.38965990501E+02 -0.56640476899E+03  0.56788057872E+03  0.41847707710E+01 0.  0.
         13    1    3    3    0    0 -0.10056129458E+02 -0.33417697596E+02 -0.46312881793E+03  0.46444178348E+03  0.00000000000E+00 0.  1.
          3    1    3    3  501    0 -0.16966842642E+01 -0.55482929049E+01 -0.10327595107E+03  0.10343879524E+03  0.00000000000E+00 0.  1.
         -1    1    1    2    0  502  0.11752813722E+02  0.38965990501E+02 -0.43190061538E+03  0.43381403690E+03  0.00000000000E+00 0. -1.
<mgrwt>
<rscale>  1 0.30000000E+03</rscale>
<asrwt>0</asrwt>
<pdfrwt beam="1">  1       21 0.61622516E-02 0.30000000E+03</pdfrwt>
<pdfrwt beam="2">0</pdfrwt>
<totfact> 0.20123446E+04</totfact>
</mgrwt>
</event>
<event>
 6    1  0.6513574E-002  0.3000000E+03  0.7818608E-02  0.1093470E+00
         21   -1    0    0  501  502  0.00000000000E+00  0.00000000000E+00  0.12686985195E+01  0.12686985195E+01  0.00000000000E+00 0. -1.
         13   -1    0    0    0    0 -0.00000000000E+00 -0.00000000000E+00 -0.10000000000E+04  0.10000000000E+04  0.00000000000E+00 0.  1.
    9000005    2    1    2  501    0 -0.35222527154E+02 -0.33263659790E+01 -0.44956185235E+03  0.45096080743E+03  0.28459841573E+01 0.  0.
         13    1    3    3    0    0 -0.13792001395E+02 -0.40615058425E+00 -0.16177872775E+03  0.16236607100E+03  0.00000000000E+00 0.  1.
          3    1    3    3  501    0 -0.21430525759E+02 -0.29202153948E+01 -0.28778312460E+03  0.28859473643E+03  0.00000000000E+00 0.  1.
         -3    1    1    2    0  502  0.35222527154E+02  0.33263659790E+01 -0.54916944914E+03  0.55030789109E+03  0.00000000000E+00 0. -1.
<mgrwt>
<rscale>  1 0.30000000E+03</rscale>
<asrwt>0</asrwt>
<pdfrwt beam="1">  1       21 0.46134589E-02 0.30000000E+03</pdfrwt>
<pdfrwt beam="2">0</pdfrwt>
<totfact> 0.33031412E+04</totfact>
</mgrwt>
</event>
<event>
 6    1  0.6513574E-002  0.3000000E+03  0.7818608E-02  0.1093470E+00
         21   -1    0    0  501  502  0.00000000000E+00  0.00000000000E+00  0.14896053741E+01  0.14896053741E+01  0.00000000000E+00 0. -1.
         13   -1    0    0    0    0 -0.00000000000E+00 -0.00000000000E+00 -0.10000000000E+04  0.10000000000E+04  0.00000000000E+00 0.  1.
    9000005    2    1    2  501    0  0.14427528641E+02  0.30170993272E+02 -0.25244212040E+03  0.25467214961E+03  0.35266443703E+01 0.  0.
         13    1    3    3    0    0  0.11008505906E+02  0.23028393410E+02 -0.20331500650E+03  0.20491092204E+03  0.00000000000E+00 0.  1.
          3    1    3    3  501    0  0.34190227354E+01  0.71425998621E+01 -0.49127113897E+02  0.49761227568E+02  0.00000000000E+00 0.  1.
         -3    1    1    2    0  502 -0.14427528641E+02 -0.30170993272E+02 -0.74606827423E+03  0.74681745576E+03  0.00000000000E+00 0. -1.
<mgrwt>
<rscale>  1 0.30000000E+03</rscale>
<asrwt>0</asrwt>
<pdfrwt beam="1">  1       21 0.54167582E-02 0.30000000E+03</pdfrwt>
<pdfrwt beam="2">0</pdfrwt>
<totfact> 0.25122221E+04</totfact>
</mgrwt>
</event>
<event>
 6    1  0.6513574E-002  0.3000000E+03  0.7818608E-02  0.1093470E+00
         21   -1    0    0  501  502  0.00000000000E+00  0.00000000000E+00  0.16289469668E+01  0.16289469668E+01  0.00000000000E+00 0. -1.
         13   -1    0    0    0    0 -0.00000000000E+00 -0.00000000000E+00 -0.10000000000E+04  0.10000000000E+04  0.00000000000E+00 0.  1.
    9000005    2    1    2  501    0 -0.18641908504E+02  0.35205668154E+02 -0.57489750368E+03  0.57628578336E+03  0.33473192183E+01 0.  0.
         13    1    3    3    0    0 -0.10682126890E+02  0.17045353674E+02 -0.27782109172E+03  0.27854839960E+03  0.00000000000E+00 0.  1.
          1    1    3    3  501    0 -0.79597816141E+01  0.18160314480E+02 -0.29707641197E+03  0.29773738377E+03  0.00000000000E+00 0.  1.
         -3    1    1    2    0  502  0.18641908504E+02 -0.35205668154E+02 -0.42347354935E+03  0.42534316360E+03  0.00000000000E+00 0. -1.
<mgrwt>
<rscale>  1 0.30000000E+03</rscale>
<asrwt>0</asrwt>
<pdfrwt beam="1">  1       21 0.59234560E-02 0.30000000E+03</pdfrwt>
<pdfrwt beam="2">0</pdfrwt>
<totfact> 0.21543349E+04</totfact>
</mgrwt>
</event>
<event>
 6    1  0.6513574E-002  0.3000000E+03  0.7818608E-02  0.1093470E+00
         21   -1    0    0  501  502  0.00000000000E+00  0.00000000000E+00  0.16620611116E+01  0.16620611116E+01  0.00000000000E+00 0. -1.
         13   -1    0    0    0    0 -0.00000000000E+00 -0.00000000000E+00 -0.10000000000E+04  0.10000000000E+04  0.00000000000E+00 0.  1.
    9000005    2    1    2  501    0  0.14725789653E+02 -0.32611391741E+02 -0.26086826465E+03  0.26332482639E+03  0.27131053635E+01 0.  0.
         13    1    3    3    0    0  0.81655861423E+01 -0.21253063009E+02 -0.16501099070E+03  0.16657429734E+03  0.00000000000E+00 0.  1.
          1    1    3    3  501    0  0.65602035104E+01 -0.11358328732E+02 -0.95857273954E+02  0.96750529050E+02  0.00000000000E+00 0.  1.
         -1    1    1    2    0  502 -0.14725789653E+02  0.32611391741E+02 -0.73746967424E+03  0.73833723472E+03  0.00000000000E+00 0. -1.
<mgrwt>
<rscale>  1 0.30000000E+03</rscale>
<asrwt>0</asrwt>
<pdfrwt beam="1">  1       21 0.60438713E-02 0.30000000E+03</pdfrwt>
<pdfrwt beam="2">0</pdfrwt>
<totfact> 0.20808528E+04</totfact>
</mgrwt>
</event>
<event>
 6    1  0.6513574E-002  0.3000000E+03  0.7818608E-02  0.1093470E+00
         21   -1    0    0  501  502  0.00000000000E+00  0.00000000000E+00  0.12044721772E+01  0.12044721772E+01  0.00000000000E+00 0. -1.
         13   -1    0    0    0    0 -0.00000000000E+00 -0.00000000000E+00 -0.10000000000E+04  0.10000000000E+04  0.00000000000E+00 0.  1.
    9000005    2    1    2  501    0  0.10571103635E+02  0.32895495330E+02 -0.49132638658E+03  0.49256040098E+03  0.45020688569E+01 0.  0.
         13    1    3    3    0    0  0.36227322047E+01  0.18192342215E+02 -0.25115771427E+03  0.25184178156E+03  0.00000000000E+00 0.  1.
          3    1    3    3  501    0  0.69483714303E+01  0.14703153115E+02 -0.24016867231E+03  0.24071861942E+03  0.00000000000E+00 0.  1.
         -3    1    1    2    0  502 -0.10571103635E+02 -0.32895495330E+02 -0.50746914125E+03  0.50864407119E+03  0.00000000000E+00 0. -1.
<mgrwt>
<rscale>  1 0.30000000E+03</rscale>
<asrwt>0</asrwt>
<pdfrwt beam="1">  1       21 0.43799081E-02 0.30000000E+03</pdfrwt>
<pdfrwt beam="2">0</pdfrwt>
<totfact> 0.36074964E+04</totfact>
</mgrwt>
</event>
<event>
 6    1  0.6513574E-002  0.3000000E+03  0.7818608E-02  0.1093470E+00
         21   -1    0    0  501  502  0.00000000000E+00  0.00000000000E+00  0.15214168388E+01  0.15214168388E+01  0.00000000000E+00 0. -1.
         13   -1    0    0    0    0 -0.00000000000E+00 -0.00000000000E+00 -0.10000000000E+04  0.10000000000E+04  0.00000000000E+00 0.  1.
    9000005    2    1    2  501    0  0.40316766421E+01 -0.32104940049E+02 -0.22099664471E+03  0.22336645399E+03  0.24645895688E+01 0.  0.
         13    1    3    3    0    0  0.10393038171E+00 -0.51931304766E+01 -0.40692902946E+02  0.41023063707E+02  0.00000000000E+00 0.  1.
          3    1    3    3  501    0  0.39277462604E+01 -0.26911809573E+02 -0.18030374176E+03  0.18234339028E+03  0.00000000000E+00 0.  1.
         -1    1    1    2    0  502 -0.40316766421E+01  0.32104940049E+02 -0.77748193845E+03  0.77815496285E+03  0.00000000000E+00 0. -1.
<mgrwt>
<rscale>  1 0.30000000E+03</rscale>
<asrwt>0</asrwt>
<pdfrwt beam="1">  1       21 0.55324365E-02 0.30000000E+03</pdfrwt>
<pdfrwt beam="2">0</pdfrwt>
<totfact> 0.24228571E+04</totfact>
</mgrwt>
</event>
<event>
 6    1  0.6513574E-002  0.3000000E+03  0.7818608E-02  0.1093470E+00
         21   -1    0    0  501  502  0.00000000000E+00  0.00000000000E+00  0.13684352423E+01  0.13684352423E+01  0.00000000000E+00 0. -1.
         13   -1    0    0    0    0 -0.00000000000E+00 -0.00000000000E+00 -0.10000000000E+04  0.10000000000E+04  0.00000000000E+00 0.  1.
    9000005    2    1    2  501    0  0.36653112224E+02 -0.31141585288E+01 -0.54328052597E+03  0.54453398258E+03  0.32217481891E+01 0.  0.
         13    1    3    3    0    0  0.11823143527E+02  0.47503880322E+00 -0.17843320790E+03  0.17882511587E+03  0.00000000000E+00 0.  1.
          3    1    3    3  501    0  0.24829968697E+02 -0.35891973320E+01 -0.36484731807E+03  0.36570886670E+03  0.00000000000E+00 0.  1.
         -1    1    1    2    0  502 -0.36653112224E+02  0.31141585288E+01 -0.45535103879E+03  0.45683445267E+03  0.00000000000E+00 0. -1.
<mgrwt>
<rscale>  1 0.30000000E+03</rscale>
<asrwt>0</asrwt>
<pdfrwt beam="1">  1       21 0.49761386E-02 0.30000000E+03</pdfrwt>
<pdfrwt beam="2">0</pdfrwt>
<totfact> 0.29040486E+04</totfact>
</mgrwt>
</event>
<event>
 6    1  0.6513574E-002  0.3000000E+03  0.7818608E-02  0.1093470E+00
         21   -1    0    0  501  502  0.00000000000E+00  0.00000000000E+00  0.10753024365E+01  0.10753024365E+01  0.00000000000E+00 0. -1.
         13   -1    0    0    0    0 -0.00000000000E+00 -0.00000000000E+00 -0.10000000000E+04  0.10000000000E+04  0.00000000000E+00 0.  1.
    9000005    2    1    2  501    0 -0.77993001975E+01 -0.30654018145E+02 -0.62722845407E+03  0.62803563251E+03  0.35670988902E+01 0.  0.
         13    1    3    3    0    0 -0.37489196870E+01 -0.21441510722E+02 -0.42687618797E+03  0.42743078110E+03  0.00000000000E+00 0.  1.
          1    1    3    3  501    0 -0.40503805105E+01 -0.92125074228E+01 -0.20035226611E+03  0.20060485141E+03  0.00000000000E+00 0.  1.
         -3    1    1    2    0  502  0.77993001975E+01  0.30654018145E+02 -0.37169624349E+03  0.37303966992E+03  0.00000000000E+00 0. -1.
<mgrwt>
<rscale>  1 0.30000000E+03</rscale>
<asrwt>0</asrwt>
<pdfrwt beam="1">  1       21 0.39101989E-02 0.30000000E+03</pdfrwt>
<pdfrwt beam="2">0</pdfrwt>
<totfact> 0.43685331E+04</totfact>
</mgrwt>
</event>
<event>
 6    1  0.6513574E-002  0.3000000E+03  0.7818608E-02  0.1093470E+00
         21   -1    0    0  501  502  0.00000000000E+00  0.00000000000E+00  0.96500937551E+00  0.96500937551E+00  0.00000000000E+00 0. -1.
         13   -1    0    0    0    0 -0.00000000000E+00 -0.00000000000E+00 -0.10000000000E+04  0.10000000000E+04  0.00000000000E+00 0.  1.
    9000005    2    1    2  501    0 -0.30072175138E+02 -0.68094087336E+01 -0.52414969457E+03  0.52507978353E+03  0.50172695890E+01 0.  0.
         13    1    3    3    0    0 -0.47181211482E+01  0.71797928701E+00 -0.73796753970E+02  0.73950909785E+02  0.00000000000E+00 0.  1.
          3    1    3    3  501    0 -0.25354053990E+02 -0.75273880207E+01 -0.45035294060E+03  0.45112887375E+03  0.00000000000E+00 0.  1.
         -3    1    1    2    0  502  0.30072175138E+02  0.68094087336E+01 -0.47488529606E+03  0.47588522585E+03  0.00000000000E+00 0. -1.
<mgrwt>
<rscale>  1 0.30000000E+03</rscale>
<asrwt>0</asrwt>
<pdfrwt beam="1">  1       21 0.35091324E-02 0.30000000E+03</pdfrwt>
<pdfrwt beam="2">0</pdfrwt>
<totfact> 0.52387696E+04</totfact>
</mgrwt>
</event>
<event>
 6    1  0.6513574E-002  0.3000000E+03  0.7818608E-02  0.1093470E+00
         21   -1    0    0  501  502  0.00000000000E+00  0.00000000000E+00  0.98034547297E+00  0.98034547297E+00  0.00000000000E+00 0. -1.
         13   -1    0    0    0    0 -0.00000000000E+00 -0.00000000000E+00 -0.10000000000E+04  0.10000000000E+04  0.00000000000E+00 0.  1.
    9000005    2    1    2  501    0 -0.11913159950E+02  0.27801583552E+02 -0.37590190629E+03  0.37712893720E+03  0.30233587364E+01 0.  0.
         13    1    3    3    0    0 -0.60397901077E+00  0.10334483288E+01 -0.23732010719E+02  0.23762178748E+02  0.00000000000E+00 0.  1.
          3    1    3    3  501    0 -0.11309180940E+02  0.26768135224E+02 -0.35216989557E+03  0.35336675845E+03  0.00000000000E+00 0.  1.
         -1    1    1    2    0  502  0.11913159950E+02 -0.27801583552E+02 -0.62311774824E+03  0.62385140827E+03  0.00000000000E+00 0. -1.
<mgrwt>
<rscale>  1 0.30000000E+03</rscale>
<asrwt>0</asrwt>
<pdfrwt beam="1">  1       21 0.35649001E-02 0.30000000E+03</pdfrwt>
<pdfrwt beam="2">0</pdfrwt>
<totfact> 0.51021650E+04</totfact>
</mgrwt>
</event>
<event>
 6    1  0.6513574E-002  0.3000000E+03  0.7818608E-02  0.1093470E+00
         21   -1    0    0  501  502  0.00000000000E+00  0.00000000000E+00  0.16712561929E+01  0.16712561929E+01  0.00000000000E+00 0. -1.
         13   -1    0    0    0    0 -0.00000000000E+00 -0.00000000000E+00 -0.10000000000E+04  0.10000000000E+04  0.00000000000E+00 0.  1.
    9000005    2    1    2  501    0 -0.17278389385E+02 -0.29252178451E+02 -0.77585306223E+03  0.77661645936E+03  0.55604042048E+01 0.  0.
         13    1    3    3    0    0 -0.11847079951E+02 -0.20680857268E+02 -0.59725901108E+03  0.59773437033E+03  0.00000000000E+00 0.  1.
          3    1    3    3  501    0 -0.54313094346E+01 -0.85713211826E+01 -0.17859405116E+03  0.17888208903E+03  0.00000000000E+00 0.  1.
         -3    1    1    2    0  502  0.17278389385E+02  0.29252178451E+02 -0.22247568158E+03  0.22505479683E+03  0.00000000000E+00 0. -1.
<mgrwt>
<rscale>  1 0.30000000E+03</rscale>
<asrwt>0</asrwt>
<pdfrwt beam="1">  1       21 0.60773081E-02 0.30000000E+03</pdfrwt>
<pdfrwt beam="2">0</pdfrwt>
<totfact> 0.20611394E+04</totfact>
</mgrwt>
</event>
<event>
 6    1  0.6513574E-002  0.3000000E+03  0.7818608E-02  0.1093470E+00
         21   -1    0    0  501  502  0.00000000000E+00  0.00000000000E+00  0.19509322706E+01  0.19509322706E+01  0.00000000000E+00 0. -1.
         13   -1    0    0    0    0 -0.00000000000E+00 -0.00000000000E+00 -0.10000000000E+04  0.10000000000E+04  0.00000000000E+00 0.  1.
    9000005    2    1    2  501    0  0.43320911348E+02  0.81910716615E+01 -0.50648340150E+03  0.50841207946E+03  0.36893812583E+01 0.  0.
         13    1    3    3    0    0  0.39705206989E+01  0.88074321460E+00 -0.35872194850E+02  0.36102009731E+02  0.00000000000E+00 0.  1.
          1    1    3    3  501    0  0.39350390649E+02  0.73103284469E+01 -0.47061120665E+03  0.47231006973E+03  0.00000000000E+00 0.  1.
         -3    1    1    2    0  502 -0.43320911348E+02 -0.81910716615E+01 -0.49156566623E+03  0.49353885281E+03  0.00000000000E+00 0. -1.
<mgrwt>
<rscale>  1 0.30000000E+03</rscale>
<asrwt>0</asrwt>
<pdfrwt beam="1">  1       21 0.70943141E-02 0.30000000E+03</pdfrwt>
<pdfrwt beam="2">0</pdfrwt>
<totfact> 0.15763609E+04</totfact>
</mgrwt>
</event>
<event>
 6    1  0.6513574E-002  0.3000000E+03  0.7818608E-02  0.1093470E+00
         21   -1    0    0  501  502  0.00000000000E+00  0.00000000000E+00  0.12453150061E+01  0.12453150061E+01  0.00000000000E+00 0. -1.
         13   -1    0    0    0    0 -0.00000000000E+00 -0.00000000000E+00 -0.10000000000E+04  0.10000000000E+04  0.00000000000E+00 0.  1.
    9000005    2    1    2  501    0  0.32396149355E+02  0.10092055062E+02 -0.40246239377E+03  0.40398837144E+03  0.89031336560E+01 0.  0.
         13    1    3    3    0    0  0.26990186435E+02  0.97824028982E+01 -0.36624492611E+03  0.36736835938E+03  0.00000000000E+00 0.  1.
          1    1    3    3  501    0  0.54059629198E+01  0.30965216394E+00 -0.36217467660E+02  0.36620012060E+02  0.00000000000E+00 0.  1.
         -3    1    1    2    0  502 -0.32396149355E+02 -0.10092055062E+02 -0.59629229122E+03  0.59725694357E+03  0.00000000000E+00 0. -1.
<mgrwt>
<rscale>  1 0.30000000E+03</rscale>
<asrwt>0</asrwt>
<pdfrwt beam="1">  1       21 0.45284278E-02 0.30000000E+03</pdfrwt>
<pdfrwt beam="2">0</pdfrwt>
<totfact> 0.34091833E+04</totfact>
</mgrwt>
</event>
<event>
 6    1  0.6513574E-002  0.3000000E+03  0.7818608E-02  0.1093470E+00
         21   -1    0    0  501  502  0.00000000000E+00  0.00000000000E+00  0.17988078033E+01  0.17988078033E+01  0.00000000000E+00 0. -1.
         13   -1    0    0    0    0 -0.00000000000E+00 -0.00000000000E+00 -0.10000000000E+04  0.10000000000E+04  0.00000000000E+00 0.  1.
    9000005    2    1    2  501    0  0.39459764426E+02 -0.14348939614E+02 -0.56325079319E+03  0.56482648068E+03  0.38121083535E+01 0.  0.
         13    1    3    3    0    0  0.26707859915E+02 -0.85918624666E+01 -0.35581778233E+03  0.35692215412E+03  0.00000000000E+00 0.  1.
          1    1    3    3  501    0  0.12751904511E+02 -0.57570771473E+01 -0.20743301087E+03  0.20790432656E+03  0.00000000000E+00 0.  1.
         -1    1    1    2    0  502 -0.39459764426E+02  0.14348939614E+02 -0.43495039900E+03  0.43697232712E+03  0.00000000000E+00 0. -1.
<mgrwt>
<rscale>  1 0.30000000E+03</rscale>
<asrwt>0</asrwt>
<pdfrwt beam="1">  1       21 0.65411331E-02 0.30000000E+03</pdfrwt>
<pdfrwt beam="2">0</pdfrwt>
<totfact> 0.18150679E+04</totfact>
</mgrwt>
</event>
<event>
 6    1  0.6513574E-002  0.3000000E+03  0.7818608E-02  0.1093470E+00
         21   -1    0    0  501  502  0.00000000000E+00  0.00000000000E+00  0.14933177007E+01  0.14933177007E+01  0.00000000000E+00 0. -1.
         13   -1    0    0    0    0 -0.00000000000E+00 -0.00000000000E+00 -0.10000000000E+04  0.10000000000E+04  0.00000000000E+00 0.  1.
    9000005    2    1    2  501    0  0.97837935798E+01  0.35862809827E+02 -0.63532553048E+03  0.63641467853E+03  0.18026694465E+01 0.  0.
         13    1    3    3    0    0  0.76188964663E+00  0.42345270496E+01 -0.81246608581E+02  0.81360451701E+02  0.00000000000E+00 0.  1.
          3    1    3    3  501    0  0.90219039331E+01  0.31628282777E+02 -0.55407892190E+03  0.55505422683E+03  0.00000000000E+00 0.  1.
         -3    1    1    2    0  502 -0.97837935798E+01 -0.35862809827E+02 -0.36318115182E+03  0.36507863917E+03  0.00000000000E+00 0. -1.
<mgrwt>
<rscale>  1 0.30000000E+03</rscale>
<asrwt>0</asrwt>
<pdfrwt beam="1">  1       21 0.54302576E-02 0.30000000E+03</pdfrwt>
<pdfrwt beam="2">0</pdfrwt>
<totfact> 0.25015337E+04</totfact>
</mgrwt>
</event>
<event>
 6    1  0.6513574E-002  0.3000000E+03  0.7818608E-02  0.1093470E+00
         21   -1    0    0  501  502  0.00000000000E+00  0.00000000000E+00  0.96675949882E+00  0.96675949882E+00  0.00000000000E+00 0. -1.
         13   -1    0    0    0    0 -0.00000000000E+00 -0.00000000000E+00 -0.10000000000E+04  0.10000000000E+04  0.00000000000E+00 0.  1.
    9000005    2    1    2  501    0 -0.12080561372E+02  0.28169633018E+02 -0.42733909592E+03  0.42845155172E+03  0.35441619239E+01 0.  0.
         13    1    3    3    0    0 -0.90914226532E+00  0.51140347949E+01 -0.80709409154E+02  0.80876378613E+02  0.00000000000E+00 0.  1.
          3    1    3    3  501    0 -0.11171419107E+02  0.23055598223E+02 -0.34662968677E+03  0.34757517311E+03  0.00000000000E+00 0.  1.
         -3    1    1    2    0  502  0.12080561372E+02 -0.28169633018E+02 -0.57169414458E+03  0.57251520778E+03  0.00000000000E+00 0. -1.
<mgrwt>
<rscale>  1 0.30000000E+03</rscale>
<asrwt>0</asrwt>
<pdfrwt beam="1">  1       21 0.35154965E-02 0.30000000E+03</pdfrwt>
<pdfrwt beam="2">0</pdfrwt>
<totfact> 0.52228950E+04</totfact>
</mgrwt>
</event>
<event>
 6    1  0.6513574E-002  0.3000000E+03  0.7818608E-02  0.1093470E+00
         21   -1    0    0  501  502  0.00000000000E+00  0.00000000000E+00  0.19299876048E+01  0.19299876048E+01  0.00000000000E+00 0. -1.
         13   -1    0    0    0    0 -0.00000000000E+00 -0.00000000000E+00 -0.10000000000E+04  0.10000000000E+04  0.00000000000E+00 0.  1.
    9000005    2    1    2  501    0  0.30312750578E+02 -0.31325878456E+02 -0.44983864544E+03  0.45196834783E+03  0.45174109407E+01 0.  0.
         13    1    3    3    0    0  0.18481778361E+02 -0.16367972418E+02 -0.24145886938E+03  0.24271768014E+03  0.00000000000E+00 0.  1.
          3    1    3    3  501    0  0.11830972217E+02 -0.14957906038E+02 -0.20837977606E+03  0.20925066769E+03  0.00000000000E+00 0.  1.
         -1    1    1    2    0  502 -0.30312750578E+02  0.31325878456E+02 -0.54823136696E+03  0.54996163978E+03  0.00000000000E+00 0. -1.
<mgrwt>
<rscale>  1 0.30000000E+03</rscale>
<asrwt>0</asrwt>
<pdfrwt beam="1">  1       21 0.70181515E-02 0.30000000E+03</pdfrwt>
<pdfrwt beam="2">0</pdfrwt>
<totfact> 0.16062721E+04</totfact>
</mgrwt>
</event>
<event>
 6    1  0.6513574E-002  0.3000000E+03  0.7818608E-02  0.1093470E+00
         21   -1    0    0  501  502  0.00000000000E+00  0.00000000000E+00  0.15313815425E+01  0.15313815425E+01  0.00000000000E+00 0. -1.
         13   -1    0    0    0    0 -0.00000000000E+00 -0.00000000000E+00 -0.10000000000E+04  0.10000000000E+04  0.00000000000E+00 0.  1.
    9000005    2    1    2  501    0  0.35973551055E+02 -0.93319599090E+01 -0.35740315230E+03  0.35938956407E+03  0.65317405717E+01 0.  0.
         13    1    3    3    0    0  0.65310009247E+01  0.11166300945E+00 -0.47336249395E+02  0.47784798299E+02  0.00000000000E+00 0.  1.
          3    1    3    3  501    0  0.29442550130E+02 -0.94436229185E+01 -0.31006690291E+03  0.31160476577E+03  0.00000000000E+00 0.  1.
         -3    1    1    2    0  502 -0.35973551055E+02  0.93319599090E+01 -0.64106546615E+03  0.64214181747E+03  0.00000000000E+00 0. -1.
<mgrwt>
<rscale>  1 0.30000000E+03</rscale>
<asrwt>0</asrwt>
<pdfrwt beam="1">  1       21 0.55686719E-02 0.30000000E+03</pdfrwt>
<pdfrwt beam="2">0</pdfrwt>
<totfact> 0.23958687E+04</totfact>
</mgrwt>
</event>
<event>
 6    1  0.6513574E-002  0.3000000E+03  0.7818608E-02  0.1093470E+00
         21   -1    0    0  501  502  0.00000000000E+00  0.00000000000E+00  0.16343116396E+01  0.16343116396E+01  0.00000000000E+00 0. -1.
         13   -1    0    0    0    0 -0.00000000000E+00 -0.00000000000E+00 -0.10000000000E+04  0.10000000000E+04  0.00000000000E+00 0.  1.
    9000005    2    1    2  501    0  0.17310426092E+02 -0.35325530971E+02 -0.39097973117E+03  0.39297574974E+03  0.41527945661E+01 0.  0.
         13    1    3    3    0    0  0.25785473511E+01 -0.68652832668E+01 -0.88393093620E+02  0.88696786980E+02  0.00000000000E+00 0.  1.
          3    1    3    3  501    0  0.14731878741E+02 -0.28460247705E+02 -0.30258663755E+03  0.30427896276E+03  0.00000000000E+00 0.  1.
         -3    1    1    2    0  502 -0.17310426092E+02  0.35325530971E+02 -0.60738595719E+03  0.60865856190E+03  0.00000000000E+00 0. -1.
<mgrwt>
<rscale>  1 0.30000000E+03</rscale>
<asrwt>0</asrwt>
<pdfrwt beam="1">  1       21 0.59429639E-02 0.30000000E+03</pdfrwt>
<pdfrwt beam="2">0</pdfrwt>
<totfact> 0.21421585E+04</totfact>
</mgrwt>
</event>
<event>
 6    1  0.6513574E-002  0.3000000E+03  0.7818608E-02  0.1093470E+00
         21   -1    0    0  501  502  0.00000000000E+00  0.00000000000E+00  0.19722363260E+01  0.19722363260E+01  0.00000000000E+00 0. -1.
         13   -1    0    0    0    0 -0.00000000000E+00 -0.00000000000E+00 -0.10000000000E+04  0.10000000000E+04  0.00000000000E+00 0.  1.
    9000005    2    1    2  501    0 -0.42470623250E+02  0.37477114489E+01 -0.63546375701E+03  0.63690997026E+03  0.47248869850E+01 0.  0.
         13    1    3    3    0    0 -0.26983294073E+02  0.37598298935E+00 -0.38375032400E+03  0.38469799934E+03  0.00000000000E+00 0.  1.
          3    1    3    3  501    0 -0.15487329178E+02  0.33717284595E+01 -0.25171343301E+03  0.25221197092E+03  0.00000000000E+00 0.  1.
         -1    1    1    2    0  502  0.42470623250E+02 -0.37477114489E+01 -0.36256400666E+03  0.36506226607E+03  0.00000000000E+00 0. -1.
<mgrwt>
<rscale>  1 0.30000000E+03</rscale>
<asrwt>0</asrwt>
<pdfrwt beam="1">  1       21 0.71717836E-02 0.30000000E+03</pdfrwt>
<pdfrwt beam="2">0</pdfrwt>
<totfact> 0.15467991E+04</totfact>
</mgrwt>
</event>
<event>
 6    1  0.6513574E-002  0.3000000E+03  0.7818608E-02  0.1093470E+00
         21   -1    0    0  501  502  0.00000000000E+00  0.00000000000E+00  0.61918728628E+01  0.61918728628E+01  0.00000000000E+00 0. -1.
         13   -1    0    0    0    0 -0.00000000000E+00 -0.00000000000E+00 -0.10000000000E+04  0.10000000000E+04  0.00000000000E+00 0.  1.
    9000005    2    1    2  501    0  0.40322353022E+02 -0.64999966317E+02 -0.38034111638E+03  0.38797454776E+03  0.37412729131E+01 0.  0.
         13    1    3    3    0    0  0.37235944384E+02 -0.61492176884E+02 -0.35929798979E+03  0.36641895262E+03  0.00000000000E+00 0.  1.
          1    1    3    3  501    0  0.30864086387E+01 -0.35077894327E+01 -0.21043126593E+02  0.21555595139E+02  0.00000000000E+00 0.  1.
         -1    1    1    2    0  502 -0.40322353022E+02  0.64999966317E+02 -0.61346701076E+03  0.61821732511E+03  0.00000000000E+00 0. -1.
<mgrwt>
<rscale>  1 0.30000000E+03</rscale>
<asrwt>0</asrwt>
<pdfrwt beam="1">  1       21 0.22515949E-01 0.30000000E+03</pdfrwt>
<pdfrwt beam="2">0</pdfrwt>
<totfact> 0.19112467E+03</totfact>
</mgrwt>
</event>
<event>
 6    1  0.6513574E-002  0.3000000E+03  0.7818608E-02  0.1093470E+00
         21   -1    0    0  501  502  0.00000000000E+00  0.00000000000E+00  0.24170098038E+01  0.24170098038E+01  0.00000000000E+00 0. -1.
         13   -1    0    0    0    0 -0.00000000000E+00 -0.00000000000E+00 -0.10000000000E+04  0.10000000000E+04  0.00000000000E+00 0.  1.
    9000005    2    1    2  501    0 -0.44379381081E+02  0.20889205798E+02 -0.52436608380E+03  0.52666483810E+03  0.31895868875E+01 0.  0.
         13    1    3    3    0    0 -0.32910071363E+02  0.16861931294E+02 -0.40090092684E+03  0.40260272064E+03  0.00000000000E+00 0.  1.
          3    1    3    3  501    0 -0.11469309718E+02  0.40272745049E+01 -0.12346515696E+03  0.12406211746E+03  0.00000000000E+00 0.  1.
         -3    1    1    2    0  502  0.44379381081E+02 -0.20889205798E+02 -0.47321690639E+03  0.47575217170E+03  0.00000000000E+00 0. -1.
<mgrwt>
<rscale>  1 0.30000000E+03</rscale>
<asrwt>0</asrwt>
<pdfrwt beam="1">  1       21 0.87891451E-02 0.30000000E+03</pdfrwt>
<pdfrwt beam="2">0</pdfrwt>
<totfact> 0.10822785E+04</totfact>
</mgrwt>
</event>
<event>
 6    1  0.6513574E-002  0.3000000E+03  0.7818608E-02  0.1093470E+00
         21   -1    0    0  501  502  0.00000000000E+00  0.00000000000E+00  0.63226470031E+01  0.63226470031E+01  0.00000000000E+00 0. -1.
         13   -1    0    0    0    0 -0.00000000000E+00 -0.00000000000E+00 -0.10000000000E+04  0.10000000000E+04  0.00000000000E+00 0.  1.
    9000005    2    1    2  501    0  0.53245203518E+02  0.54431323227E+02 -0.64121390214E+03  0.64572826985E+03  0.34510197190E+01 0.  0.
         13    1    3    3    0    0  0.34958447338E+02  0.37139360020E+02 -0.44017032528E+03  0.44311549325E+03  0.00000000000E+00 0.  1.
          1    1    3    3  501    0  0.18286756181E+02  0.17291963207E+02 -0.20104357687E+03  0.20261277660E+03  0.00000000000E+00 0.  1.
         -3    1    1    2    0  502 -0.53245203518E+02 -0.54431323227E+02 -0.35246345085E+03  0.36059437715E+03  0.00000000000E+00 0. -1.
<mgrwt>
<rscale>  1 0.30000000E+03</rscale>
<asrwt>0</asrwt>
<pdfrwt beam="1">  1       21 0.22991492E-01 0.30000000E+03</pdfrwt>
<pdfrwt beam="2">0</pdfrwt>
<totfact> 0.18355913E+03</totfact>
</mgrwt>
</event>
<event>
 6    1  0.6513574E-002  0.3000000E+03  0.7818608E-02  0.1093470E+00
         21   -1    0    0  501  502  0.00000000000E+00  0.00000000000E+00  0.17191625857E+01  0.17191625857E+01  0.00000000000E+00 0. -1.
         13   -1    0    0    0    0 -0.00000000000E+00 -0.00000000000E+00 -0.10000000000E+04  0.10000000000E+04  0.00000000000E+00 0.  1.
    9000005    2    1    2  501    0  0.14151870414E+02  0.36650407653E+02 -0.65587183339E+03  0.65706360431E+03  0.46033085368E+01 0.  0.
         13    1    3    3    0    0  0.89747282221E+01  0.17119078259E+02 -0.30978460517E+03  0.31038703289E+03  0.00000000000E+00 0.  1.
          3    1    3    3  501    0  0.51771421919E+01  0.19531329395E+02 -0.34608722823E+03  0.34667657142E+03  0.00000000000E+00 0.  1.
         -1    1    1    2    0  502 -0.14151870414E+02 -0.36650407653E+02 -0.34240900402E+03  0.34465555828E+03  0.00000000000E+00 0. -1.
<mgrwt>
<rscale>  1 0.30000000E+03</rscale>
<asrwt>0</asrwt>
<pdfrwt beam="1">  1       21 0.62515135E-02 0.30000000E+03</pdfrwt>
<pdfrwt beam="2">0</pdfrwt>
<totfact> 0.19629753E+04</totfact>
</mgrwt>
</event>
<event>
 6    1  0.6513574E-002  0.3000000E+03  0.7818608E-02  0.1093470E+00
         21   -1    0    0  501  502  0.00000000000E+00  0.00000000000E+00  0.16967169735E+01  0.16967169735E+01  0.00000000000E+00 0. -1.
         13   -1    0    0    0    0 -0.00000000000E+00 -0.00000000000E+00 -0.10000000000E+04  0.10000000000E+04  0.00000000000E+00 0.  1.
    9000005    2    1    2  501    0  0.25304004207E+01 -0.40752026873E+02 -0.55804287702E+03  0.55954701866E+03  0.37259736156E+01 0.  0.
         13    1    3    3    0    0  0.33797778130E+01 -0.32240695532E+02 -0.44989143127E+03  0.45105785137E+03  0.00000000000E+00 0.  1.
          3    1    3    3  501    0 -0.84937739230E+00 -0.85113313412E+01 -0.10815144574E+03  0.10848916729E+03  0.00000000000E+00 0.  1.
         -1    1    1    2    0  502 -0.25304004207E+01  0.40752026873E+02 -0.44026040601E+03  0.44214969831E+03  0.00000000000E+00 0. -1.
<mgrwt>
<rscale>  1 0.30000000E+03</rscale>
<asrwt>0</asrwt>
<pdfrwt beam="1">  1       21 0.61698929E-02 0.30000000E+03</pdfrwt>
<pdfrwt beam="2">0</pdfrwt>
<totfact> 0.20080433E+04</totfact>
</mgrwt>
</event>
<event>
 6    1  0.6513574E-002  0.3000000E+03  0.7818608E-02  0.1093470E+00
         21   -1    0    0  501  502  0.00000000000E+00  0.00000000000E+00  0.97668662257E+00  0.97668662257E+00  0.00000000000E+00 0. -1.
         13   -1    0    0    0    0 -0.00000000000E+00 -0.00000000000E+00 -0.10000000000E+04  0.10000000000E+04  0.00000000000E+00 0.  1.
    9000005    2    1    2  501    0  0.10274968623E+02 -0.29226291863E+02 -0.44741482010E+03  0.44849892148E+03  0.33926702243E+01 0.  0.
         13    1    3    3    0    0  0.15533551655E+01 -0.73805237895E+01 -0.12481258190E+03  0.12504025609E+03  0.00000000000E+00 0.  1.
          3    1    3    3  501    0  0.87216134580E+01 -0.21845768074E+02 -0.32260223820E+03  0.32345866539E+03  0.00000000000E+00 0.  1.
         -3    1    1    2    0  502 -0.10274968623E+02  0.29226291863E+02 -0.55160849328E+03  0.55247776514E+03  0.00000000000E+00 0. -1.
<mgrwt>
<rscale>  1 0.30000000E+03</rscale>
<asrwt>0</asrwt>
<pdfrwt beam="1">  1       21 0.35515952E-02 0.30000000E+03</pdfrwt>
<pdfrwt beam="2">0</pdfrwt>
<totfact> 0.51342472E+04</totfact>
</mgrwt>
</event>
<event>
 6    1  0.6513574E-002  0.3000000E+03  0.7818608E-02  0.1093470E+00
         21   -1    0    0  501  502  0.00000000000E+00  0.00000000000E+00  0.26039450923E+01  0.26039450923E+01  0.00000000000E+00 0. -1.
         13   -1    0    0    0    0 -0.00000000000E+00 -0.00000000000E+00 -0.10000000000E+04  0.10000000000E+04  0.00000000000E+00 0.  1.
    9000005    2    1    2  501    0  0.46736687014E+02 -0.14989315327E+02 -0.36271672963E+03  0.36602964195E+03  0.22968119335E+01 0.  0.
         13    1    3    3    0    0  0.22931199920E+02 -0.78089788232E+01 -0.17107336384E+03  0.17277996381E+03  0.00000000000E+00 0.  1.
          1    1    3    3  501    0  0.23805487094E+02 -0.71803365042E+01 -0.19164336579E+03  0.19324967814E+03  0.00000000000E+00 0.  1.
         -1    1    1    2    0  502 -0.46736687014E+02  0.14989315327E+02 -0.63467932527E+03  0.63657430314E+03  0.00000000000E+00 0. -1.
<mgrwt>
<rscale>  1 0.30000000E+03</rscale>
<asrwt>0</asrwt>
<pdfrwt beam="1">  1       21 0.94689112E-02 0.30000000E+03</pdfrwt>
<pdfrwt beam="2">0</pdfrwt>
<totfact> 0.94829240E+03</totfact>
</mgrwt>
</event>
<event>
 6    1  0.6513574E-002  0.3000000E+03  0.7818608E-02  0.1093470E+00
         21   -1    0    0  501  502  0.00000000000E+00  0.00000000000E+00  0.12787017997E+02  0.12787017997E+02  0.00000000000E+00 0. -1.
         13   -1    0    0    0    0 -0.00000000000E+00 -0.00000000000E+00 -0.10000000000E+04  0.10000000000E+04  0.00000000000E+00 0.  1.
    9000005    2    1    2  501    0  0.51784767235E+02 -0.88244631061E+02 -0.27835651134E+03  0.29658434206E+03  0.33387897336E+01 0.  0.
         13    1    3    3    0    0  0.42650131136E+01 -0.56110379125E+01 -0.19445555344E+02  0.20683416206E+02  0.00000000000E+00 0.  1.
          3    1    3    3  501    0  0.47519754121E+02 -0.82633593149E+02 -0.25891095600E+03  0.27590092585E+03  0.00000000000E+00 0.  1.
         -1    1    1    2    0  502 -0.51784767235E+02  0.88244631061E+02 -0.70885647066E+03  0.71620267594E+03  0.00000000000E+00 0. -1.
<mgrwt>
<rscale>  1 0.30000000E+03</rscale>
<asrwt>0</asrwt>
<pdfrwt beam="1">  1       21 0.46498345E-01 0.30000000E+03</pdfrwt>
<pdfrwt beam="2">0</pdfrwt>
<totfact> 0.43929395E+02</totfact>
</mgrwt>
</event>
<event>
 6    1  0.6513574E-002  0.3000000E+03  0.7818608E-02  0.1093470E+00
         21   -1    0    0  501  502  0.00000000000E+00  0.00000000000E+00  0.13632868631E+01  0.13632868631E+01  0.00000000000E+00 0. -1.
         13   -1    0    0    0    0 -0.00000000000E+00 -0.00000000000E+00 -0.10000000000E+04  0.10000000000E+04  0.00000000000E+00 0.  1.
    9000005    2    1    2  501    0 -0.33516579277E+02  0.15298687411E+02 -0.49426303605E+03  0.49564575992E+03  0.33703997933E+01 0.  0.
         13    1    3    3    0    0 -0.41497330904E+01  0.31000572330E+01 -0.74679820339E+02  0.74859242619E+02  0.00000000000E+00 0.  1.
          3    1    3    3  501    0 -0.29366846186E+02  0.12198630178E+02 -0.41958321571E+03  0.42078651730E+03  0.00000000000E+00 0.  1.
         -1    1    1    2    0  502  0.33516579277E+02 -0.15298687411E+02 -0.50437367709E+03  0.50571752695E+03  0.00000000000E+00 0. -1.
<mgrwt>
<rscale>  1 0.30000000E+03</rscale>
<asrwt>0</asrwt>
<pdfrwt beam="1">  1       21 0.49574172E-02 0.30000000E+03</pdfrwt>
<pdfrwt beam="2">0</pdfrwt>
<totfact> 0.29227631E+04</totfact>
</mgrwt>
</event>
<event>
 6    1  0.6513574E-002  0.3000000E+03  0.7818608E-02  0.1093470E+00
         21   -1    0    0  501  502  0.00000000000E+00  0.00000000000E+00  0.42165874509E+01  0.42165874509E+01  0.00000000000E+00 0. -1.
         13   -1    0    0    0    0 -0.00000000000E+00 -0.00000000000E+00 -0.10000000000E+04  0.10000000000E+04  0.00000000000E+00 0.  1.
    9000005    2    1    2  501    0 -0.52786785336E+01  0.61390542947E+02 -0.65225358700E+03  0.65520454718E+03  0.78481643834E+01 0.  0.
         13    1    3    3    0    0 -0.73566631071E+01  0.46662450170E+02 -0.49374886567E+03  0.49600347488E+03  0.00000000000E+00 0.  1.
          3    1    3    3  501    0  0.20779845736E+01  0.14728092777E+02 -0.15850472133E+03  0.15920107230E+03  0.00000000000E+00 0.  1.
         -1    1    1    2    0  502  0.52786785336E+01 -0.61390542947E+02 -0.34352982555E+03  0.34901204027E+03  0.00000000000E+00 0. -1.
<mgrwt>
<rscale>  1 0.30000000E+03</rscale>
<asrwt>0</asrwt>
<pdfrwt beam="1">  1       21 0.15333078E-01 0.30000000E+03</pdfrwt>
<pdfrwt beam="2">0</pdfrwt>
<totfact> 0.39537791E+03</totfact>
</mgrwt>
</event>
<event>
 6    1  0.6513574E-002  0.3000000E+03  0.7818608E-02  0.1093470E+00
         21   -1    0    0  501  502  0.00000000000E+00  0.00000000000E+00  0.20071118162E+01  0.20071118162E+01  0.00000000000E+00 0. -1.
         13   -1    0    0    0    0 -0.00000000000E+00 -0.00000000000E+00 -0.10000000000E+04  0.10000000000E+04  0.00000000000E+00 0.  1.
    9000005    2    1    2  501    0 -0.19235103588E+02  0.38023445005E+02 -0.34706299918E+03  0.34968396185E+03  0.32212104923E+01 0.  0.
         13    1    3    3    0    0 -0.15982928725E+01  0.53690729647E+01 -0.49118061252E+02  0.49436478695E+02  0.00000000000E+00 0.  1.
          1    1    3    3  501    0 -0.17636810715E+02  0.32654372040E+02 -0.29794493793E+03  0.30024748315E+03  0.00000000000E+00 0.  1.
         -3    1    1    2    0  502  0.19235103588E+02 -0.38023445005E+02 -0.65092988901E+03  0.65232314997E+03  0.00000000000E+00 0. -1.
<mgrwt>
<rscale>  1 0.30000000E+03</rscale>
<asrwt>0</asrwt>
<pdfrwt beam="1">  1       21 0.72986038E-02 0.30000000E+03</pdfrwt>
<pdfrwt beam="2">0</pdfrwt>
<totfact> 0.15001944E+04</totfact>
</mgrwt>
</event>
<event>
 6    1  0.6513574E-002  0.3000000E+03  0.7818608E-02  0.1093470E+00
         21   -1    0    0  501  502  0.00000000000E+00  0.00000000000E+00  0.18061487357E+01  0.18061487357E+01  0.00000000000E+00 0. -1.
         13   -1    0    0    0    0 -0.00000000000E+00 -0.00000000000E+00 -0.10000000000E+04  0.10000000000E+04  0.00000000000E+00 0.  1.
    9000005    2    1    2  501    0  0.15660991789E+02 -0.34743861628E+02 -0.29417742561E+03  0.29675896579E+03  0.85512253654E+01 0.  0.
         13    1    3    3    0    0  0.10998111703E+02 -0.26560981970E+02 -0.19082470422E+03  0.19297800902E+03  0.00000000000E+00 0.  1.
          1    1    3    3  501    0  0.46628800863E+01 -0.81828796581E+01 -0.10335272139E+03  0.10378095677E+03  0.00000000000E+00 0.  1.
         -1    1    1    2    0  502 -0.15660991789E+02  0.34743861628E+02 -0.70401642565E+03  0.70504718294E+03  0.00000000000E+00 0. -1.
<mgrwt>
<rscale>  1 0.30000000E+03</rscale>
<asrwt>0</asrwt>
<pdfrwt beam="1">  1       21 0.65678274E-02 0.30000000E+03</pdfrwt>
<pdfrwt beam="2">0</pdfrwt>
<totfact> 0.18023077E+04</totfact>
</mgrwt>
</event>
<event>
 6    1  0.6513574E-002  0.3000000E+03  0.7818608E-02  0.1093470E+00
         21   -1    0    0  501  502  0.00000000000E+00  0.00000000000E+00  0.23851568758E+01  0.23851568758E+01  0.00000000000E+00 0. -1.
         13   -1    0    0    0    0 -0.00000000000E+00 -0.00000000000E+00 -0.10000000000E+04  0.10000000000E+04  0.00000000000E+00 0.  1.
    9000005    2    1    2  501    0 -0.37548282155E+02  0.29960785453E+02 -0.41396544457E+03  0.41676228968E+03  0.39868080022E+01 0.  0.
         13    1    3    3    0    0 -0.21661919572E+02  0.15520574578E+02 -0.21687791060E+03  0.21850893597E+03  0.00000000000E+00 0.  1.
          1    1    3    3  501    0 -0.15886362583E+02  0.14440210875E+02 -0.19708753398E+03  0.19825335370E+03  0.00000000000E+00 0.  1.
         -3    1    1    2    0  502  0.37548282155E+02 -0.29960785453E+02 -0.58364939855E+03  0.58562286720E+03  0.00000000000E+00 0. -1.
<mgrwt>
<rscale>  1 0.30000000E+03</rscale>
<asrwt>0</asrwt>
<pdfrwt beam="1">  1       21 0.86733160E-02 0.30000000E+03</pdfrwt>
<pdfrwt beam="2">0</pdfrwt>
<totfact> 0.11079489E+04</totfact>
</mgrwt>
</event>
<event>
 6    1  0.6513574E-002  0.3000000E+03  0.7818608E-02  0.1093470E+00
         21   -1    0    0  501  502  0.00000000000E+00  0.00000000000E+00  0.52517633522E+01  0.52517633522E+01  0.00000000000E+00 0. -1.
         13   -1    0    0    0    0 -0.00000000000E+00 -0.00000000000E+00 -0.10000000000E+04  0.10000000000E+04  0.00000000000E+00 0.  1.
    9000005    2    1    2  501    0 -0.27529551881E+02 -0.41445852963E+02 -0.13258836113E+03  0.14165736440E+03  0.33912278249E+01 0.  0.
         13    1    3    3    0    0 -0.13913791312E+02 -0.21490451174E+02 -0.63470669624E+02  0.68439454870E+02  0.00000000000E+00 0.  1.
          1    1    3    3  501    0 -0.13615760568E+02 -0.19955401789E+02 -0.69117691508E+02  0.73217909529E+02  0.00000000000E+00 0.  1.
         -3    1    1    2    0  502  0.27529551881E+02  0.41445852963E+02 -0.86215987552E+03  0.86359439895E+03  0.00000000000E+00 0. -1.
<mgrwt>
<rscale>  1 0.30000000E+03</rscale>
<asrwt>0</asrwt>
<pdfrwt beam="1">  1       21 0.19097362E-01 0.30000000E+03</pdfrwt>
<pdfrwt beam="2">0</pdfrwt>
<totfact> 0.26195791E+03</totfact>
</mgrwt>
</event>
<event>
 6    1  0.6513574E-002  0.3000000E+03  0.7818608E-02  0.1093470E+00
         21   -1    0    0  501  502  0.00000000000E+00  0.00000000000E+00  0.10522492429E+01  0.10522492429E+01  0.00000000000E+00 0. -1.
         13   -1    0    0    0    0 -0.00000000000E+00 -0.00000000000E+00 -0.10000000000E+04  0.10000000000E+04  0.00000000000E+00 0.  1.
    9000005    2    1    2  501    0 -0.32184708775E+02 -0.38414522557E+00 -0.45240070255E+03  0.45355825024E+03  0.35619715606E+01 0.  0.
         13    1    3    3    0    0 -0.20561888578E+02  0.80456827311E+00 -0.26914901674E+03  0.26993449539E+03  0.00000000000E+00 0.  1.
          1    1    3    3  501    0 -0.11622820198E+02 -0.11887134987E+01 -0.18325168582E+03  0.18362375485E+03  0.00000000000E+00 0.  1.
         -1    1    1    2    0  502  0.32184708775E+02  0.38414522557E+00 -0.54654704820E+03  0.54749399901E+03  0.00000000000E+00 0. -1.
<mgrwt>
<rscale>  1 0.30000000E+03</rscale>
<asrwt>0</asrwt>
<pdfrwt beam="1">  1       21 0.38263690E-02 0.30000000E+03</pdfrwt>
<pdfrwt beam="2">0</pdfrwt>
<totfact> 0.45306540E+04</totfact>
</mgrwt>
</event>
<event>
 6    1  0.6513574E-002  0.3000000E+03  0.7818608E-02  0.1093470E+00
         21   -1    0    0  501  502  0.00000000000E+00  0.00000000000E+00  0.15269103623E+01  0.15269103623E+01  0.00000000000E+00 0. -1.
         13   -1    0    0    0    0 -0.00000000000E+00 -0.00000000000E+00 -0.10000000000E+04  0.10000000000E+04  0.00000000000E+00 0.  1.
    9000005    2    1    2  501    0 -0.22770394052E+02  0.31541154992E+02 -0.53418868251E+03  0.53561560334E+03  0.36319034679E+01 0.  0.
         13    1    3    3    0    0 -0.20462067841E+01  0.29338136453E+01 -0.65481658710E+02  0.65579279137E+02  0.00000000000E+00 0.  1.
          1    1    3    3  501    0 -0.20724187268E+02  0.28607341346E+02 -0.46870702380E+03  0.47003632421E+03  0.00000000000E+00 0.  1.
         -3    1    1    2    0  502  0.22770394052E+02 -0.31541154992E+02 -0.46428440713E+03  0.46591130702E+03  0.00000000000E+00 0. -1.
<mgrwt>
<rscale>  1 0.30000000E+03</rscale>
<asrwt>0</asrwt>
<pdfrwt beam="1">  1       21 0.55524130E-02 0.30000000E+03</pdfrwt>
<pdfrwt beam="2">0</pdfrwt>
<totfact> 0.24079210E+04</totfact>
</mgrwt>
</event>
<event>
 6    1  0.6513574E-002  0.3000000E+03  0.7818608E-02  0.1093470E+00
         21   -1    0    0  501  502  0.00000000000E+00  0.00000000000E+00  0.26856688224E+01  0.26856688224E+01  0.00000000000E+00 0. -1.
         13   -1    0    0    0    0 -0.00000000000E+00 -0.00000000000E+00 -0.10000000000E+04  0.10000000000E+04  0.00000000000E+00 0.  1.
    9000005    2    1    2  501    0  0.51541086189E+02 -0.48463027462E+01 -0.48836088995E+03  0.49110617788E+03  0.29914717072E+01 0.  0.
         13    1    3    3    0    0  0.72067612841E+01  0.17737526906E+00 -0.73685768575E+02  0.74037567226E+02  0.00000000000E+00 0.  1.
          3    1    3    3  501    0  0.44334324905E+02 -0.50236780152E+01 -0.41467512138E+03  0.41706861065E+03  0.00000000000E+00 0.  1.
         -3    1    1    2    0  502 -0.51541086189E+02  0.48463027462E+01 -0.50895344123E+03  0.51157949094E+03  0.00000000000E+00 0. -1.
<mgrwt>
<rscale>  1 0.30000000E+03</rscale>
<asrwt>0</asrwt>
<pdfrwt beam="1">  1       21 0.97660890E-02 0.30000000E+03</pdfrwt>
<pdfrwt beam="2">0</pdfrwt>
<totfact> 0.89745944E+03</totfact>
</mgrwt>
</event>
<event>
 6    1  0.6513574E-002  0.3000000E+03  0.7818608E-02  0.1093470E+00
         21   -1    0    0  501  502  0.00000000000E+00  0.00000000000E+00  0.71794070446E+01  0.71794070446E+01  0.00000000000E+00 0. -1.
         13   -1    0    0    0    0 -0.00000000000E+00 -0.00000000000E+00 -0.10000000000E+04  0.10000000000E+04  0.00000000000E+00 0.  1.
    9000005    2    1    2  501    0 -0.19942283227E+02 -0.82288676917E+02 -0.48272298170E+03  0.49010233927E+03  0.31152669575E+01 0.  0.
         13    1    3    3    0    0 -0.12096048988E+02 -0.56062771977E+02 -0.32586845580E+03  0.33087701535E+03  0.00000000000E+00 0.  1.
          1    1    3    3  501    0 -0.78462342389E+01 -0.26225904940E+02 -0.15685452590E+03  0.15922532392E+03  0.00000000000E+00 0.  1.
         -3    1    1    2    0  502  0.19942283227E+02  0.82288676917E+02 -0.51009761125E+03  0.51707706777E+03  0.00000000000E+00 0. -1.
<mgrwt>
<rscale>  1 0.30000000E+03</rscale>
<asrwt>0</asrwt>
<pdfrwt beam="1">  1       21 0.26106990E-01 0.30000000E+03</pdfrwt>
<pdfrwt beam="2">0</pdfrwt>
<totfact> 0.14323914E+03</totfact>
</mgrwt>
</event>
<event>
 6    1  0.6513574E-002  0.3000000E+03  0.7818608E-02  0.1093470E+00
         21   -1    0    0  501  502  0.00000000000E+00  0.00000000000E+00  0.11195687365E+01  0.11195687365E+01  0.00000000000E+00 0. -1.
         13   -1    0    0    0    0 -0.00000000000E+00 -0.00000000000E+00 -0.10000000000E+04  0.10000000000E+04  0.00000000000E+00 0.  1.
    9000005    2    1    2  501    0  0.31767281242E+02  0.62459648939E+00 -0.63422223063E+03  0.63507974362E+03  0.88821539882E+01 0.  0.
         13    1    3    3    0    0  0.12916243344E+02  0.15713739181E+01 -0.18243488131E+03  0.18289828998E+03  0.00000000000E+00 0.  1.
          1    1    3    3  501    0  0.18851037898E+02 -0.94677742874E+00 -0.45178734932E+03  0.45218145364E+03  0.00000000000E+00 0.  1.
         -1    1    1    2    0  502 -0.31767281242E+02 -0.62459648939E+00 -0.36465820064E+03  0.36603982511E+03  0.00000000000E+00 0. -1.
<mgrwt>
<rscale>  1 0.30000000E+03</rscale>
<asrwt>0</asrwt>
<pdfrwt beam="1">  1       21 0.40711676E-02 0.30000000E+03</pdfrwt>
<pdfrwt beam="2">0</pdfrwt>
<totfact> 0.40816380E+04</totfact>
</mgrwt>
</event>
<event>
 6    1  0.6513574E-002  0.3000000E+03  0.7818608E-02  0.1093470E+00
         21   -1    0    0  501  502  0.00000000000E+00  0.00000000000E+00  0.15682498072E+01  0.15682498072E+01  0.00000000000E+00 0. -1.
         13   -1    0    0    0    0 -0.00000000000E+00 -0.00000000000E+00 -0.10000000000E+04  0.10000000000E+04  0.00000000000E+00 0.  1.
    9000005    2    1    2  501    0  0.38171423267E+02  0.84758037545E+01 -0.42414973968E+03  0.42595664082E+03  0.26760761496E+01 0.  0.
         13    1    3    3    0    0  0.29795129609E+02  0.56696834691E+01 -0.33515190637E+03  0.33652146351E+03  0.00000000000E+00 0.  1.
          3    1    3    3  501    0  0.83762936576E+01  0.28061202854E+01 -0.88997833311E+02  0.89435177310E+02  0.00000000000E+00 0.  1.
         -3    1    1    2    0  502 -0.38171423267E+02 -0.84758037545E+01 -0.57428201051E+03  0.57561160899E+03  0.00000000000E+00 0. -1.
<mgrwt>
<rscale>  1 0.30000000E+03</rscale>
<asrwt>0</asrwt>
<pdfrwt beam="1">  1       21 0.57027386E-02 0.30000000E+03</pdfrwt>
<pdfrwt beam="2">0</pdfrwt>
<totfact> 0.22999256E+04</totfact>
</mgrwt>
</event>
<event>
 6    1  0.6513574E-002  0.3000000E+03  0.7818608E-02  0.1093470E+00
         21   -1    0    0  501  502  0.00000000000E+00  0.00000000000E+00  0.30310948018E+01  0.30310948018E+01  0.00000000000E+00 0. -1.
         13   -1    0    0    0    0 -0.00000000000E+00 -0.00000000000E+00 -0.10000000000E+04  0.10000000000E+04  0.00000000000E+00 0.  1.
    9000005    2    1    2  501    0  0.18556721261E+02  0.42251166615E+02 -0.22610937971E+03  0.23079154581E+03  0.31261865416E+01 0.  0.
         13    1    3    3    0    0  0.73641881543E+01  0.15468398887E+02 -0.76965026425E+02  0.78848702741E+02  0.00000000000E+00 0.  1.
          1    1    3    3  501    0  0.11192533107E+02  0.26782767728E+02 -0.14914435328E+03  0.15194284307E+03  0.00000000000E+00 0.  1.
         -1    1    1    2    0  502 -0.18556721261E+02 -0.42251166615E+02 -0.77085952549E+03  0.77223954899E+03  0.00000000000E+00 0. -1.
<mgrwt>
<rscale>  1 0.30000000E+03</rscale>
<asrwt>0</asrwt>
<pdfrwt beam="1">  1       21 0.11022186E-01 0.30000000E+03</pdfrwt>
<pdfrwt beam="2">0</pdfrwt>
<totfact> 0.72257791E+03</totfact>
</mgrwt>
</event>
<event>
 6    1  0.6513574E-002  0.3000000E+03  0.7818608E-02  0.1093470E+00
         21   -1    0    0  501  502  0.00000000000E+00  0.00000000000E+00  0.17373119864E+01  0.17373119864E+01  0.00000000000E+00 0. -1.
         13   -1    0    0    0    0 -0.00000000000E+00 -0.00000000000E+00 -0.10000000000E+04  0.10000000000E+04  0.00000000000E+00 0.  1.
    9000005    2    1    2  501    0  0.12717504767E+02  0.39589437901E+02 -0.51819206052E+03  0.51986921188E+03  0.34535997220E+01 0.  0.
         13    1    3    3    0    0  0.72495416855E+00  0.25194749641E+01 -0.23683650694E+02  0.23828315568E+02  0.00000000000E+00 0.  1.
          3    1    3    3  501    0  0.11992550599E+02  0.37069962936E+02 -0.49450840983E+03  0.49604089631E+03  0.00000000000E+00 0.  1.
         -3    1    1    2    0  502 -0.12717504767E+02 -0.39589437901E+02 -0.48007062749E+03  0.48186810011E+03  0.00000000000E+00 0. -1.
<mgrwt>
<rscale>  1 0.30000000E+03</rscale>
<asrwt>0</asrwt>
<pdfrwt beam="1">  1       21 0.63175115E-02 0.30000000E+03</pdfrwt>
<pdfrwt beam="2">0</pdfrwt>
<totfact> 0.19276699E+04</totfact>
</mgrwt>
</event>
<event>
 6    1  0.6513574E-002  0.3000000E+03  0.7818608E-02  0.1093470E+00
         21   -1    0    0  501  502  0.00000000000E+00  0.00000000000E+00  0.97012800382E+00  0.97012800382E+00  0.00000000000E+00 0. -1.
         13   -1    0    0    0    0 -0.00000000000E+00 -0.00000000000E+00 -0.10000000000E+04  0.10000000000E+04  0.00000000000E+00 0.  1.
    9000005    2    1    2  501    0 -0.30193969761E+02 -0.60162392444E+01 -0.49749102591E+03  0.49848720781E+03  0.66561665416E+01 0.  0.
         13    1    3    3    0    0 -0.61996629984E+01 -0.19541937365E+01 -0.68942884901E+02  0.69248653943E+02  0.00000000000E+00 0.  1.
          3    1    3    3  501    0 -0.23994306763E+02 -0.40620455079E+01 -0.42854814101E+03  0.42923855387E+03  0.00000000000E+00 0.  1.
         -1    1    1    2    0  502  0.30193969761E+02  0.60162392444E+01 -0.50153884609E+03  0.50248292019E+03  0.00000000000E+00 0. -1.
<mgrwt>
<rscale>  1 0.30000000E+03</rscale>
<asrwt>0</asrwt>
<pdfrwt beam="1">  1       21 0.35277456E-02 0.30000000E+03</pdfrwt>
<pdfrwt beam="2">0</pdfrwt>
<totfact> 0.51925503E+04</totfact>
</mgrwt>
</event>
<event>
 6    1  0.6513574E-002  0.3000000E+03  0.7818608E-02  0.1093470E+00
         21   -1    0    0  501  502  0.00000000000E+00  0.00000000000E+00  0.14960954392E+01  0.14960954392E+01  0.00000000000E+00 0. -1.
         13   -1    0    0    0    0 -0.00000000000E+00 -0.00000000000E+00 -0.10000000000E+04  0.10000000000E+04  0.00000000000E+00 0.  1.
    9000005    2    1    2  501    0  0.17812347188E+02 -0.24788260914E+02 -0.19404822011E+03  0.19646150870E+03  0.32672746585E+01 0.  0.
         13    1    3    3    0    0  0.95773435482E+01 -0.16057848257E+02 -0.11783303063E+03  0.11930717961E+03  0.00000000000E+00 0.  1.
          1    1    3    3  501    0  0.82350036394E+01 -0.87304126570E+01 -0.76215189478E+02  0.77154329090E+02  0.00000000000E+00 0.  1.
         -3    1    1    2    0  502 -0.17812347188E+02  0.24788260914E+02 -0.80445568445E+03  0.80503458674E+03  0.00000000000E+00 0. -1.
<mgrwt>
<rscale>  1 0.30000000E+03</rscale>
<asrwt>0</asrwt>
<pdfrwt beam="1">  1       21 0.54403585E-02 0.30000000E+03</pdfrwt>
<pdfrwt beam="2">0</pdfrwt>
<totfact> 0.24935820E+04</totfact>
</mgrwt>
</event>
<event>
 6    1  0.6513574E-002  0.3000000E+03  0.7818608E-02  0.1093470E+00
         21   -1    0    0  501  502  0.00000000000E+00  0.00000000000E+00  0.19902177825E+01  0.19902177825E+01  0.00000000000E+00 0. -1.
         13   -1    0    0    0    0 -0.00000000000E+00 -0.00000000000E+00 -0.10000000000E+04  0.10000000000E+04  0.00000000000E+00 0.  1.
    9000005    2    1    2  501    0 -0.42988753970E+02  0.11644005720E+02 -0.49835134714E+03  0.50035073810E+03  0.36304378404E+01 0.  0.
         13    1    3    3    0    0 -0.34446824333E+02  0.80086195645E+01 -0.38627293986E+03  0.38788852234E+03  0.00000000000E+00 0.  1.
          3    1    3    3  501    0 -0.85419296371E+01  0.36353861552E+01 -0.11207840729E+03  0.11246221576E+03  0.00000000000E+00 0.  1.
         -1    1    1    2    0  502  0.42988753970E+02 -0.11644005720E+02 -0.49965843507E+03  0.50163947968E+03  0.00000000000E+00 0. -1.
<mgrwt>
<rscale>  1 0.30000000E+03</rscale>
<asrwt>0</asrwt>
<pdfrwt beam="1">  1       21 0.72371708E-02 0.30000000E+03</pdfrwt>
<pdfrwt beam="2">0</pdfrwt>
<totfact> 0.15224996E+04</totfact>
</mgrwt>
</event>
<event>
 6    1  0.6513574E-002  0.3000000E+03  0.7818608E-02  0.1093470E+00
         21   -1    0    0  501  502  0.00000000000E+00  0.00000000000E+00  0.12217188571E+01  0.12217188571E+01  0.00000000000E+00 0. -1.
         13   -1    0    0    0    0 -0.00000000000E+00 -0.00000000000E+00 -0.10000000000E+04  0.10000000000E+04  0.00000000000E+00 0.  1.
    9000005    2    1    2  501    0 -0.26878312977E+02 -0.19750868418E+02 -0.64661055735E+03  0.64747796104E+03  0.31554154486E+01 0.  0.
         13    1    3    3    0    0 -0.11065883932E+02 -0.10075777556E+02 -0.28735869764E+03  0.28774814716E+03  0.00000000000E+00 0.  1.
          1    1    3    3  501    0 -0.15812429044E+02 -0.96750908619E+01 -0.35925185970E+03  0.35972981388E+03  0.00000000000E+00 0.  1.
         -1    1    1    2    0  502  0.26878312977E+02  0.19750868418E+02 -0.35216772380E+03  0.35374375782E+03  0.00000000000E+00 0. -1.
<mgrwt>
<rscale>  1 0.30000000E+03</rscale>
<asrwt>0</asrwt>
<pdfrwt beam="1">  1       21 0.44426234E-02 0.30000000E+03</pdfrwt>
<pdfrwt beam="2">0</pdfrwt>
<totfact> 0.35216364E+04</totfact>
</mgrwt>
</event>
<event>
 6    1  0.6513574E-002  0.3000000E+03  0.7818608E-02  0.1093470E+00
         21   -1    0    0  501  502  0.00000000000E+00  0.00000000000E+00  0.16626804869E+01  0.16626804869E+01  0.00000000000E+00 0. -1.
         13   -1    0    0    0    0 -0.00000000000E+00 -0.00000000000E+00 -0.10000000000E+04  0.10000000000E+04  0.00000000000E+00 0.  1.
    9000005    2    1    2  501    0  0.31245824515E+02  0.24783746394E+02 -0.59911192025E+03  0.60045019931E+03  0.38487961045E+01 0.  0.
         13    1    3    3    0    0  0.15876293179E+02  0.11268747736E+02 -0.26784289341E+03  0.26854954275E+03  0.00000000000E+00 0.  1.
          3    1    3    3  501    0  0.15369531335E+02  0.13514998659E+02 -0.33126902683E+03  0.33190065655E+03  0.00000000000E+00 0.  1.
         -1    1    1    2    0  502 -0.31245824515E+02 -0.24783746394E+02 -0.39922539927E+03  0.40121248118E+03  0.00000000000E+00 0. -1.
<mgrwt>
<rscale>  1 0.30000000E+03</rscale>
<asrwt>0</asrwt>
<pdfrwt beam="1">  1       21 0.60461236E-02 0.30000000E+03</pdfrwt>
<pdfrwt beam="2">0</pdfrwt>
<totfact> 0.20795158E+04</totfact>
</mgrwt>
</event>
<event>
 6    1  0.6513574E-002  0.3000000E+03  0.7818608E-02  0.1093470E+00
         21   -1    0    0  501  502  0.00000000000E+00  0.00000000000E+00  0.14767202418E+01  0.14767202418E+01  0.00000000000E+00 0. -1.
         13   -1    0    0    0    0 -0.00000000000E+00 -0.00000000000E+00 -0.10000000000E+04  0.10000000000E+04  0.00000000000E+00 0.  1.
    9000005    2    1    2  501    0  0.27376383709E+02 -0.25246772798E+02 -0.62012432859E+03  0.62124964050E+03  0.31728526141E+01 0.  0.
         13    1    3    3    0    0  0.12481236057E+02 -0.12646066041E+02 -0.31803660865E+03  0.31853255513E+03  0.00000000000E+00 0.  1.
          3    1    3    3  501    0  0.14895147652E+02 -0.12600706757E+02 -0.30208771994E+03  0.30271708537E+03  0.00000000000E+00 0.  1.
         -1    1    1    2    0  502 -0.27376383709E+02  0.25246772798E+02 -0.37839895117E+03  0.38022707974E+03  0.00000000000E+00 0. -1.
<mgrwt>
<rscale>  1 0.30000000E+03</rscale>
<asrwt>0</asrwt>
<pdfrwt beam="1">  1       21 0.53699031E-02 0.30000000E+03</pdfrwt>
<pdfrwt beam="2">0</pdfrwt>
<totfact> 0.25498728E+04</totfact>
</mgrwt>
</event>
<event>
 6    1  0.6513574E-002  0.3000000E+03  0.7818608E-02  0.1093470E+00
         21   -1    0    0  501  502  0.00000000000E+00  0.00000000000E+00  0.10156089987E+01  0.10156089987E+01  0.00000000000E+00 0. -1.
         13   -1    0    0    0    0 -0.00000000000E+00 -0.00000000000E+00 -0.10000000000E+04  0.10000000000E+04  0.00000000000E+00 0.  1.
    9000005    2    1    2  501    0  0.63693706340E+01  0.31098943815E+02 -0.47757356819E+03  0.47863934678E+03  0.33761013271E+01 0.  0.
         13    1    3    3    0    0  0.53196082301E+01  0.20255181181E+02 -0.33049570266E+03  0.33115854220E+03  0.00000000000E+00 0.  1.
          1    1    3    3  501    0  0.10497624039E+01  0.10843762634E+02 -0.14707786553E+03  0.14748080458E+03  0.00000000000E+00 0.  1.
         -1    1    1    2    0  502 -0.63693706340E+01 -0.31098943815E+02 -0.52141082281E+03  0.52237626222E+03  0.00000000000E+00 0. -1.
<mgrwt>
<rscale>  1 0.30000000E+03</rscale>
<asrwt>0</asrwt>
<pdfrwt beam="1">  1       21 0.36931314E-02 0.30000000E+03</pdfrwt>
<pdfrwt beam="2">0</pdfrwt>
<totfact> 0.48085165E+04</totfact>
</mgrwt>
</event>
<event>
 6    1  0.6513574E-002  0.3000000E+03  0.7818608E-02  0.1093470E+00
         21   -1    0    0  501  502  0.00000000000E+00  0.00000000000E+00  0.13586686680E+01  0.13586686680E+01  0.00000000000E+00 0. -1.
         13   -1    0    0    0    0 -0.00000000000E+00 -0.00000000000E+00 -0.10000000000E+04  0.10000000000E+04  0.00000000000E+00 0.  1.
    9000005    2    1    2  501    0 -0.43075249051E+01 -0.36118534941E+02 -0.42548535539E+03  0.42704962635E+03  0.32391931148E+01 0.  0.
         13    1    3    3    0    0 -0.37355361898E+01 -0.32813925922E+02 -0.37410180363E+03  0.37555674331E+03  0.00000000000E+00 0.  1.
          3    1    3    3  501    0 -0.57198871525E+00 -0.33046090193E+01 -0.51383551760E+02  0.51492883035E+02  0.00000000000E+00 0.  1.
         -3    1    1    2    0  502  0.43075249051E+01  0.36118534941E+02 -0.57315597594E+03  0.57430904232E+03  0.00000000000E+00 0. -1.
<mgrwt>
<rscale>  1 0.30000000E+03</rscale>
<asrwt>0</asrwt>
<pdfrwt beam="1">  1       21 0.49406238E-02 0.30000000E+03</pdfrwt>
<pdfrwt beam="2">0</pdfrwt>
<totfact> 0.29397108E+04</totfact>
</mgrwt>
</event>
<event>
 6    1  0.6513574E-002  0.3000000E+03  0.7818608E-02  0.1093470E+00
         21   -1    0    0  501  502  0.00000000000E+00  0.00000000000E+00  0.12322738594E+01  0.12322738594E+01  0.00000000000E+00 0. -1.
         13   -1    0    0    0    0 -0.00000000000E+00 -0.00000000000E+00 -0.10000000000E+04  0.10000000000E+04  0.00000000000E+00 0.  1.
    9000005    2    1    2  501    0 -0.10440046224E+02 -0.32826023882E+02 -0.58944322591E+03  0.59046093978E+03  0.37765632750E+01 0.  0.
         13    1    3    3    0    0 -0.81234716160E+01 -0.29402132551E+02 -0.52453020722E+03  0.52541642007E+03  0.00000000000E+00 0.  1.
          1    1    3    3  501    0 -0.23165746083E+01 -0.34238913317E+01 -0.64913018686E+02  0.65044519713E+02  0.00000000000E+00 0.  1.
         -1    1    1    2    0  502  0.10440046224E+02  0.32826023882E+02 -0.40932450023E+03  0.41077133408E+03  0.00000000000E+00 0. -1.
<mgrwt>
<rscale>  1 0.30000000E+03</rscale>
<asrwt>0</asrwt>
<pdfrwt beam="1">  1       21 0.44810053E-02 0.30000000E+03</pdfrwt>
<pdfrwt beam="2">0</pdfrwt>
<totfact> 0.34706373E+04</totfact>
</mgrwt>
</event>
<event>
 6    1  0.6513574E-002  0.3000000E+03  0.7818608E-02  0.1093470E+00
         21   -1    0    0  501  502  0.00000000000E+00  0.00000000000E+00  0.12614592467E+01  0.12614592467E+01  0.00000000000E+00 0. -1.
         13   -1    0    0    0    0 -0.00000000000E+00 -0.00000000000E+00 -0.10000000000E+04  0.10000000000E+04  0.00000000000E+00 0.  1.
    9000005    2    1    2  501    0 -0.31451464217E+02 -0.14988235070E+02 -0.59369051647E+03  0.59471780382E+03  0.26448142110E+01 0.  0.
         13    1    3    3    0    0 -0.14438686633E+01 -0.50587083580E+00 -0.18572681435E+02  0.18635588472E+02  0.00000000000E+00 0.  1.
          1    1    3    3  501    0 -0.30007595554E+02 -0.14482364234E+02 -0.57511783504E+03  0.57608221535E+03  0.00000000000E+00 0.  1.
         -1    1    1    2    0  502  0.31451464217E+02  0.14988235070E+02 -0.40504802428E+03  0.40654365542E+03  0.00000000000E+00 0. -1.
<mgrwt>
<rscale>  1 0.30000000E+03</rscale>
<asrwt>0</asrwt>
<pdfrwt beam="1">  1       21 0.45871342E-02 0.30000000E+03</pdfrwt>
<pdfrwt beam="2">0</pdfrwt>
<totfact> 0.33354116E+04</totfact>
</mgrwt>
</event>
<event>
 6    1  0.6513574E-002  0.3000000E+03  0.7818608E-02  0.1093470E+00
         21   -1    0    0  501  502  0.00000000000E+00  0.00000000000E+00  0.97182731042E+01  0.97182731042E+01  0.00000000000E+00 0. -1.
         13   -1    0    0    0    0 -0.00000000000E+00 -0.00000000000E+00 -0.10000000000E+04  0.10000000000E+04  0.00000000000E+00 0.  1.
    9000005    2    1    2  501    0 -0.59413904740E+01  0.85612293058E+02 -0.74304897014E+03  0.74801462228E+03  0.62720227663E+01 0.  0.
         13    1    3    3    0    0 -0.17256922564E+01  0.45609850723E+01 -0.44786925827E+02  0.45051629534E+02  0.00000000000E+00 0.  1.
          1    1    3    3  501    0 -0.42156982176E+01  0.81051307986E+02 -0.69826204432E+03  0.70296299275E+03  0.00000000000E+00 0.  1.
         -3    1    1    2    0  502  0.59413904740E+01 -0.85612293058E+02 -0.24723275675E+03  0.26170365082E+03  0.00000000000E+00 0. -1.
<mgrwt>
<rscale>  1 0.30000000E+03</rscale>
<asrwt>0</asrwt>
<pdfrwt beam="1">  1       21 0.35339249E-01 0.30000000E+03</pdfrwt>
<pdfrwt beam="2">0</pdfrwt>
<totfact> 0.78023743E+02</totfact>
</mgrwt>
</event>
<event>
 6    1  0.6513574E-002  0.3000000E+03  0.7818608E-02  0.1093470E+00
         21   -1    0    0  501  502  0.00000000000E+00  0.00000000000E+00  0.12370063315E+01  0.12370063315E+01  0.00000000000E+00 0. -1.
         13   -1    0    0    0    0 -0.00000000000E+00 -0.00000000000E+00 -0.10000000000E+04  0.10000000000E+04  0.00000000000E+00 0.  1.
    9000005    2    1    2  501    0 -0.33083187390E+02 -0.11083338516E+02 -0.55360719039E+03  0.55471598010E+03  0.33999468370E+01 0.  0.
         13    1    3    3    0    0 -0.21695258295E+02 -0.89009831307E+01 -0.37670595282E+03  0.37743514228E+03  0.00000000000E+00 0.  1.
          3    1    3    3  501    0 -0.11387929095E+02 -0.21823553849E+01 -0.17690123757E+03  0.17728083782E+03  0.00000000000E+00 0.  1.
         -1    1    1    2    0  502  0.33083187390E+02  0.11083338516E+02 -0.44515580328E+03  0.44652102624E+03  0.00000000000E+00 0. -1.
<mgrwt>
<rscale>  1 0.30000000E+03</rscale>
<asrwt>0</asrwt>
<pdfrwt beam="1">  1       21 0.44982143E-02 0.30000000E+03</pdfrwt>
<pdfrwt beam="2">0</pdfrwt>
<totfact> 0.34481404E+04</totfact>
</mgrwt>
</event>
<event>
 6    1  0.6513574E-002  0.3000000E+03  0.7818608E-02  0.1093470E+00
         21   -1    0    0  501  502  0.00000000000E+00  0.00000000000E+00  0.14801411603E+01  0.14801411603E+01  0.00000000000E+00 0. -1.
         13   -1    0    0    0    0 -0.00000000000E+00 -0.00000000000E+00 -0.10000000000E+04  0.10000000000E+04  0.00000000000E+00 0.  1.
    9000005    2    1    2  501    0  0.33386317261E+02  0.10665587648E+02 -0.29602533461E+03  0.29811184680E+03  0.33576078867E+01 0.  0.
         13    1    3    3    0    0  0.19822625992E+01  0.10205467732E+01 -0.13490071900E+02  0.13673072830E+02  0.00000000000E+00 0.  1.
          1    1    3    3  501    0  0.31404054662E+02  0.96450408749E+01 -0.28253526271E+03  0.28443877397E+03  0.00000000000E+00 0.  1.
         -1    1    1    2    0  502 -0.33386317261E+02 -0.10665587648E+02 -0.70249452423E+03  0.70336829436E+03  0.00000000000E+00 0. -1.
<mgrwt>
<rscale>  1 0.30000000E+03</rscale>
<asrwt>0</asrwt>
<pdfrwt beam="1">  1       21 0.53823428E-02 0.30000000E+03</pdfrwt>
<pdfrwt beam="2">0</pdfrwt>
<totfact> 0.25397922E+04</totfact>
</mgrwt>
</event>
<event>
 6    1  0.6513574E-002  0.3000000E+03  0.7818608E-02  0.1093470E+00
         21   -1    0    0  501  502  0.00000000000E+00  0.00000000000E+00  0.14372818264E+01  0.14372818264E+01  0.00000000000E+00 0. -1.
         13   -1    0    0    0    0 -0.00000000000E+00 -0.00000000000E+00 -0.10000000000E+04  0.10000000000E+04  0.00000000000E+00 0.  1.
    9000005    2    1    2  501    0 -0.36643624253E+02 -0.18927321294E+01 -0.62404822508E+03  0.62512963751E+03  0.21304542672E+01 0.  0.
         13    1    3    3    0    0 -0.29624088116E+02 -0.73463614480E+00 -0.49846340188E+03  0.49934345825E+03  0.00000000000E+00 0.  1.
          3    1    3    3  501    0 -0.70195361364E+01 -0.11580959846E+01 -0.12558482320E+03  0.12578617925E+03  0.00000000000E+00 0.  1.
         -3    1    1    2    0  502  0.36643624253E+02  0.18927321294E+01 -0.37451449310E+03  0.37630764432E+03  0.00000000000E+00 0. -1.
<mgrwt>
<rscale>  1 0.30000000E+03</rscale>
<asrwt>0</asrwt>
<pdfrwt beam="1">  1       21 0.52264904E-02 0.30000000E+03</pdfrwt>
<pdfrwt beam="2">0</pdfrwt>
<totfact> 0.26707004E+04</totfact>
</mgrwt>
</event>
<event>
 6    1  0.6513574E-002  0.3000000E+03  0.7818608E-02  0.1093470E+00
         21   -1    0    0  501  502  0.00000000000E+00  0.00000000000E+00  0.12633199764E+02  0.12633199764E+02  0.00000000000E+00 0. -1.
         13   -1    0    0    0    0 -0.00000000000E+00 -0.00000000000E+00 -0.10000000000E+04  0.10000000000E+04  0.00000000000E+00 0.  1.
    9000005    2    1    2  501    0 -0.86817807073E+02  0.30753171634E+02 -0.78380868758E+03  0.78920760943E+03  0.30826704916E+01 0.  0.
         13    1    3    3    0    0 -0.20343684908E+02  0.67655222186E+01 -0.19322468588E+03  0.19441043450E+03  0.00000000000E+00 0.  1.
          3    1    3    3  501    0 -0.66474122165E+02  0.23987649415E+02 -0.59058400170E+03  0.59479717493E+03  0.00000000000E+00 0.  1.
         -1    1    1    2    0  502  0.86817807073E+02 -0.30753171634E+02 -0.20355811265E+03  0.22342559034E+03  0.00000000000E+00 0. -1.
<mgrwt>
<rscale>  1 0.30000000E+03</rscale>
<asrwt>0</asrwt>
<pdfrwt beam="1">  1       21 0.45939005E-01 0.30000000E+03</pdfrwt>
<pdfrwt beam="2">0</pdfrwt>
<totfact> 0.45080350E+02</totfact>
</mgrwt>
</event>
<event>
 6    1  0.6513574E-002  0.3000000E+03  0.7818608E-02  0.1093470E+00
         21   -1    0    0  501  502  0.00000000000E+00  0.00000000000E+00  0.17757290889E+01  0.17757290889E+01  0.00000000000E+00 0. -1.
         13   -1    0    0    0    0 -0.00000000000E+00 -0.00000000000E+00 -0.10000000000E+04  0.10000000000E+04  0.00000000000E+00 0.  1.
    9000005    2    1    2  501    0  0.26766551213E+02 -0.32462585741E+02 -0.51166200510E+03  0.51339769288E+03  0.29859434048E+01 0.  0.
         13    1    3    3    0    0  0.31486656465E+01 -0.26120804420E+01 -0.55185856113E+02  0.55337290993E+02  0.00000000000E+00 0.  1.
          3    1    3    3  501    0  0.23617885566E+02 -0.29850505299E+02 -0.45647614898E+03  0.45806040189E+03  0.00000000000E+00 0.  1.
         -1    1    1    2    0  502 -0.26766551213E+02  0.32462585741E+02 -0.48656226582E+03  0.48837803621E+03  0.00000000000E+00 0. -1.
<mgrwt>
<rscale>  1 0.30000000E+03</rscale>
<asrwt>0</asrwt>
<pdfrwt beam="1">  1       21 0.64572103E-02 0.30000000E+03</pdfrwt>
<pdfrwt beam="2">0</pdfrwt>
<totfact> 0.18561051E+04</totfact>
</mgrwt>
</event>
<event>
 6    1  0.6513574E-002  0.3000000E+03  0.7818608E-02  0.1093470E+00
         21   -1    0    0  501  502  0.00000000000E+00  0.00000000000E+00  0.23607208194E+01  0.23607208194E+01  0.00000000000E+00 0. -1.
         13   -1    0    0    0    0 -0.00000000000E+00 -0.00000000000E+00 -0.10000000000E+04  0.10000000000E+04  0.00000000000E+00 0.  1.
    9000005    2    1    2  501    0 -0.40828341104E+02 -0.26166985019E+02 -0.48244439065E+03  0.48488855952E+03  0.35581667046E+01 0.  0.
         13    1    3    3    0    0 -0.89067256465E+00 -0.13061787983E+01 -0.15600900057E+02  0.15680799829E+02  0.00000000000E+00 0.  1.
          3    1    3    3  501    0 -0.39937668539E+02 -0.24860806221E+02 -0.46684349059E+03  0.46920775970E+03  0.00000000000E+00 0.  1.
         -1    1    1    2    0  502  0.40828341104E+02  0.26166985019E+02 -0.51519488853E+03  0.51747216129E+03  0.00000000000E+00 0. -1.
<mgrwt>
<rscale>  1 0.30000000E+03</rscale>
<asrwt>0</asrwt>
<pdfrwt beam="1">  1       21 0.85844574E-02 0.30000000E+03</pdfrwt>
<pdfrwt beam="2">0</pdfrwt>
<totfact> 0.11282752E+04</totfact>
</mgrwt>
</event>
<event>
 6    1  0.6513574E-002  0.3000000E+03  0.7818608E-02  0.1093470E+00
         21   -1    0    0  501  502  0.00000000000E+00  0.00000000000E+00  0.12683425030E+01  0.12683425030E+01  0.00000000000E+00 0. -1.
         13   -1    0    0    0    0 -0.00000000000E+00 -0.00000000000E+00 -0.10000000000E+04  0.10000000000E+04  0.00000000000E+00 0.  1.
    9000005    2    1    2  501    0 -0.89972927405E+01 -0.31659012647E+02 -0.68899558516E+03  0.68978852154E+03  0.31691835331E+01 0.  0.
         13    1    3    3    0    0 -0.27548028087E+01 -0.15472095644E+02 -0.32547281492E+03  0.32585200312E+03  0.00000000000E+00 0.  1.
          3    1    3    3  501    0 -0.62424899318E+01 -0.16186917003E+02 -0.36352277024E+03  0.36393651843E+03  0.00000000000E+00 0.  1.
         -1    1    1    2    0  502  0.89972927405E+01  0.31659012647E+02 -0.30973607234E+03  0.31147982096E+03  0.00000000000E+00 0. -1.
<mgrwt>
<rscale>  1 0.30000000E+03</rscale>
<asrwt>0</asrwt>
<pdfrwt beam="1">  1       21 0.46121643E-02 0.30000000E+03</pdfrwt>
<pdfrwt beam="2">0</pdfrwt>
<totfact> 0.33047168E+04</totfact>
</mgrwt>
</event>
<event>
 6    1  0.6513574E-002  0.3000000E+03  0.7818608E-02  0.1093470E+00
         21   -1    0    0  501  502  0.00000000000E+00  0.00000000000E+00  0.74797470515E+01  0.74797470515E+01  0.00000000000E+00 0. -1.
         13   -1    0    0    0    0 -0.00000000000E+00 -0.00000000000E+00 -0.10000000000E+04  0.10000000000E+04  0.00000000000E+00 0.  1.
    9000005    2    1    2  501    0  0.29516459957E+02 -0.24812343088E+02 -0.94713740168E+03  0.94792744258E+03  0.32101354126E+01 0.  0.
         13    1    3    3    0    0  0.26712035487E+02 -0.22569266159E+02 -0.87920868201E+03  0.87990386472E+03  0.00000000000E+00 0.  1.
          1    1    3    3  501    0  0.28044244698E+01 -0.22430769294E+01 -0.67928719664E+02  0.68023577868E+02  0.00000000000E+00 0.  1.
         -1    1    1    2    0  502 -0.29516459957E+02  0.24812343088E+02 -0.45382851272E+02  0.59552304468E+02  0.00000000000E+00 0. -1.
<mgrwt>
<rscale>  1 0.30000000E+03</rscale>
<asrwt>0</asrwt>
<pdfrwt beam="1">  1       21 0.27199138E-01 0.30000000E+03</pdfrwt>
<pdfrwt beam="2">0</pdfrwt>
<totfact> 0.13211560E+03</totfact>
</mgrwt>
</event>
<event>
 6    1  0.6513574E-002  0.3000000E+03  0.7818608E-02  0.1093470E+00
         21   -1    0    0  501  502  0.00000000000E+00  0.00000000000E+00  0.11161564462E+01  0.11161564462E+01  0.00000000000E+00 0. -1.
         13   -1    0    0    0    0 -0.00000000000E+00 -0.00000000000E+00 -0.10000000000E+04  0.10000000000E+04  0.00000000000E+00 0.  1.
    9000005    2    1    2  501    0  0.29755918268E+02  0.12630197538E+02 -0.62263082997E+03  0.62347708697E+03  0.30969321928E+01 0.  0.
         13    1    3    3    0    0  0.11184622415E+02  0.35558322438E+01 -0.24516741473E+03  0.24544816350E+03  0.00000000000E+00 0.  1.
          1    1    3    3  501    0  0.18571295854E+02  0.90743652946E+01 -0.37746341524E+03  0.37802892347E+03  0.00000000000E+00 0.  1.
         -3    1    1    2    0  502 -0.29755918268E+02 -0.12630197538E+02 -0.37625301359E+03  0.37763906948E+03  0.00000000000E+00 0. -1.
<mgrwt>
<rscale>  1 0.30000000E+03</rscale>
<asrwt>0</asrwt>
<pdfrwt beam="1">  1       21 0.40587593E-02 0.30000000E+03</pdfrwt>
<pdfrwt beam="2">0</pdfrwt>
<totfact> 0.41026916E+04</totfact>
</mgrwt>
</event>
<event>
 6    1  0.6513574E-002  0.3000000E+03  0.7818608E-02  0.1093470E+00
         21   -1    0    0  501  502  0.00000000000E+00  0.00000000000E+00  0.13194294175E+01  0.13194294175E+01  0.00000000000E+00 0. -1.
         13   -1    0    0    0    0 -0.00000000000E+00 -0.00000000000E+00 -0.10000000000E+04  0.10000000000E+04  0.00000000000E+00 0.  1.
    9000005    2    1    2  501    0  0.24896661078E+02 -0.25077162650E+02 -0.38986651083E+03  0.39148070715E+03  0.35411845087E+01 0.  0.
         13    1    3    3    0    0  0.13320554472E+02 -0.13896678393E+02 -0.19309288611E+03  0.19405003867E+03  0.00000000000E+00 0.  1.
          1    1    3    3  501    0  0.11576106607E+02 -0.11180484257E+02 -0.19677362472E+03  0.19743066849E+03  0.00000000000E+00 0.  1.
         -1    1    1    2    0  502 -0.24896661078E+02  0.25077162650E+02 -0.60881405975E+03  0.60983872226E+03  0.00000000000E+00 0. -1.
<mgrwt>
<rscale>  1 0.30000000E+03</rscale>
<asrwt>0</asrwt>
<pdfrwt beam="1">  1       21 0.47979353E-02 0.30000000E+03</pdfrwt>
<pdfrwt beam="2">0</pdfrwt>
<totfact> 0.30901156E+04</totfact>
</mgrwt>
</event>
<event>
 6    1  0.6513574E-002  0.3000000E+03  0.7818608E-02  0.1093470E+00
         21   -1    0    0  501  502  0.00000000000E+00  0.00000000000E+00  0.11174324260E+01  0.11174324260E+01  0.00000000000E+00 0. -1.
         13   -1    0    0    0    0 -0.00000000000E+00 -0.00000000000E+00 -0.10000000000E+04  0.10000000000E+04  0.00000000000E+00 0.  1.
    9000005    2    1    2  501    0 -0.14382476529E+02  0.28999622018E+02 -0.39747866492E+03  0.39884300341E+03  0.62143866400E+01 0.  0.
         13    1    3    3    0    0 -0.61961727610E+01  0.10570762447E+02 -0.18681901944E+03  0.18722040380E+03  0.00000000000E+00 0.  1.
          1    1    3    3  501    0 -0.81863037682E+01  0.18428859571E+02 -0.21065964547E+03  0.21162259961E+03  0.00000000000E+00 0.  1.
         -1    1    1    2    0  502  0.14382476529E+02 -0.28999622018E+02 -0.60140390266E+03  0.60227442901E+03  0.00000000000E+00 0. -1.
<mgrwt>
<rscale>  1 0.30000000E+03</rscale>
<asrwt>0</asrwt>
<pdfrwt beam="1">  1       21 0.40633992E-02 0.30000000E+03</pdfrwt>
<pdfrwt beam="2">0</pdfrwt>
<totfact> 0.40947991E+04</totfact>
</mgrwt>
</event>
<event>
 6    1  0.6513574E-002  0.3000000E+03  0.7818608E-02  0.1093470E+00
         21   -1    0    0  501  502  0.00000000000E+00  0.00000000000E+00  0.21674823884E+01  0.21674823884E+01  0.00000000000E+00 0. -1.
         13   -1    0    0    0    0 -0.00000000000E+00 -0.00000000000E+00 -0.10000000000E+04  0.10000000000E+04  0.00000000000E+00 0.  1.
    9000005    2    1    2  501    0 -0.41086932022E+02  0.78942957501E+01 -0.28086649091E+03  0.28398175479E+03  0.30323994728E+01 0.  0.
         13    1    3    3    0    0 -0.53697466753E+00  0.37749797967E+00 -0.29601042811E+01  0.30320065754E+01  0.00000000000E+00 0.  1.
          3    1    3    3  501    0 -0.40549957354E+02  0.75167977704E+01 -0.27790638663E+03  0.28094974821E+03  0.00000000000E+00 0.  1.
         -1    1    1    2    0  502  0.41086932022E+02 -0.78942957501E+01 -0.71696602670E+03  0.71818572760E+03  0.00000000000E+00 0. -1.
<mgrwt>
<rscale>  1 0.30000000E+03</rscale>
<asrwt>0</asrwt>
<pdfrwt beam="1">  1       21 0.78817708E-02 0.30000000E+03</pdfrwt>
<pdfrwt beam="2">0</pdfrwt>
<totfact> 0.13112193E+04</totfact>
</mgrwt>
</event>
<event>
 6    1  0.6513574E-002  0.3000000E+03  0.7818608E-02  0.1093470E+00
         21   -1    0    0  501  502  0.00000000000E+00  0.00000000000E+00  0.14642549746E+01  0.14642549746E+01  0.00000000000E+00 0. -1.
         13   -1    0    0    0    0 -0.00000000000E+00 -0.00000000000E+00 -0.10000000000E+04  0.10000000000E+04  0.00000000000E+00 0.  1.
    9000005    2    1    2  501    0  0.37078882034E+02  0.33074243470E+01 -0.38893273448E+03  0.39072567505E+03  0.34783099954E+01 0.  0.
         13    1    3    3    0    0  0.13858103801E+02  0.81656526698E+00 -0.16243187397E+03  0.16302400897E+03  0.00000000000E+00 0.  1.
          3    1    3    3  501    0  0.23220778233E+02  0.24908590801E+01 -0.22650086051E+03  0.22770166607E+03  0.00000000000E+00 0.  1.
         -1    1    1    2    0  502 -0.37078882034E+02 -0.33074243470E+01 -0.60960301054E+03  0.61073857993E+03  0.00000000000E+00 0. -1.
<mgrwt>
<rscale>  1 0.30000000E+03</rscale>
<asrwt>0</asrwt>
<pdfrwt beam="1">  1       21 0.53245748E-02 0.30000000E+03</pdfrwt>
<pdfrwt beam="2">0</pdfrwt>
<totfact> 0.25871328E+04</totfact>
</mgrwt>
</event>
<event>
 6    1  0.6513574E-002  0.3000000E+03  0.7818608E-02  0.1093470E+00
         21   -1    0    0  501  502  0.00000000000E+00  0.00000000000E+00  0.77343348716E+01  0.77343348716E+01  0.00000000000E+00 0. -1.
         13   -1    0    0    0    0 -0.00000000000E+00 -0.00000000000E+00 -0.10000000000E+04  0.10000000000E+04  0.00000000000E+00 0.  1.
    9000005    2    1    2  501    0 -0.51516767648E+02 -0.82527491749E+01 -0.90886594465E+02  0.10484657094E+03  0.32163904740E+01 0.  0.
         13    1    3    3    0    0 -0.17523085591E+02 -0.13383071485E+01 -0.29658957499E+02  0.34474677005E+02  0.00000000000E+00 0.  1.
          3    1    3    3  501    0 -0.33993682057E+02 -0.69144420264E+01 -0.61227636966E+02  0.70371893940E+02  0.00000000000E+00 0.  1.
         -1    1    1    2    0  502  0.51516767648E+02  0.82527491749E+01 -0.90137907066E+03  0.90288776393E+03  0.00000000000E+00 0. -1.
<mgrwt>
<rscale>  1 0.30000000E+03</rscale>
<asrwt>0</asrwt>
<pdfrwt beam="1">  1       21 0.28124913E-01 0.30000000E+03</pdfrwt>
<pdfrwt beam="2">0</pdfrwt>
<totfact> 0.12364357E+03</totfact>
</mgrwt>
</event>
<event>
 6    1  0.6513574E-002  0.3000000E+03  0.7818608E-02  0.1093470E+00
         21   -1    0    0  501  502  0.00000000000E+00  0.00000000000E+00  0.10283533175E+01  0.10283533175E+01  0.00000000000E+00 0. -1.
         13   -1    0    0    0    0 -0.00000000000E+00 -0.00000000000E+00 -0.10000000000E+04  0.10000000000E+04  0.00000000000E+00 0.  1.
    9000005    2    1    2  501    0 -0.30476745738E+02  0.82659240816E+01 -0.43505763812E+03  0.43623089706E+03  0.50089459377E+01 0.  0.
         13    1    3    3    0    0 -0.21473949669E+02  0.75557173981E+01 -0.28972844999E+03  0.29062139307E+03  0.00000000000E+00 0.  1.
          3    1    3    3  501    0 -0.90027960683E+01  0.71020668353E+00 -0.14532918813E+03  0.14560950399E+03  0.00000000000E+00 0.  1.
         -1    1    1    2    0  502  0.30476745738E+02 -0.82659240816E+01 -0.56391400857E+03  0.56479745625E+03  0.00000000000E+00 0. -1.
<mgrwt>
<rscale>  1 0.30000000E+03</rscale>
<asrwt>0</asrwt>
<pdfrwt beam="1">  1       21 0.37394745E-02 0.30000000E+03</pdfrwt>
<pdfrwt beam="2">0</pdfrwt>
<totfact> 0.47089000E+04</totfact>
</mgrwt>
</event>
<event>
 6    1  0.6513574E-002  0.3000000E+03  0.7818608E-02  0.1093470E+00
         21   -1    0    0  501  502  0.00000000000E+00  0.00000000000E+00  0.40128394913E+01  0.40128394913E+01  0.00000000000E+00 0. -1.
         13   -1    0    0    0    0 -0.00000000000E+00 -0.00000000000E+00 -0.10000000000E+04  0.10000000000E+04  0.00000000000E+00 0.  1.
    9000005    2    1    2  501    0 -0.38350698007E+02 -0.23925403108E+02 -0.14950293125E+03  0.15632259457E+03  0.65135373780E+01 0.  0.
         13    1    3    3    0    0 -0.37647449309E+02 -0.22439082864E+02 -0.14072152881E+03  0.14738857333E+03  0.00000000000E+00 0.  1.
          1    1    3    3  501    0 -0.70324869783E+00 -0.14863202436E+01 -0.87814024429E+01  0.89340212369E+01  0.00000000000E+00 0.  1.
         -1    1    1    2    0  502  0.38350698007E+02  0.23925403108E+02 -0.84648422926E+03  0.84769024492E+03  0.00000000000E+00 0. -1.
<mgrwt>
<rscale>  1 0.30000000E+03</rscale>
<asrwt>0</asrwt>
<pdfrwt beam="1">  1       21 0.14592174E-01 0.30000000E+03</pdfrwt>
<pdfrwt beam="2">0</pdfrwt>
<totfact> 0.43332345E+03</totfact>
</mgrwt>
</event>
<event>
 6    1  0.6513574E-002  0.3000000E+03  0.7818608E-02  0.1093470E+00
         21   -1    0    0  501  502  0.00000000000E+00  0.00000000000E+00  0.14249116340E+01  0.14249116340E+01  0.00000000000E+00 0. -1.
         13   -1    0    0    0    0 -0.00000000000E+00 -0.00000000000E+00 -0.10000000000E+04  0.10000000000E+04  0.00000000000E+00 0.  1.
    9000005    2    1    2  501    0  0.10640683871E+02 -0.34016970763E+02 -0.66210170796E+03  0.66306901294E+03  0.33861181876E+01 0.  0.
         13    1    3    3    0    0  0.53615127114E+01 -0.21315538823E+02 -0.42690576550E+03  0.42747120445E+03  0.00000000000E+00 0.  1.
          3    1    3    3  501    0  0.52791711600E+01 -0.12701431940E+02 -0.23519594246E+03  0.23559780850E+03  0.00000000000E+00 0.  1.
         -3    1    1    2    0  502 -0.10640683871E+02  0.34016970763E+02 -0.33647338041E+03  0.33835589869E+03  0.00000000000E+00 0. -1.
<mgrwt>
<rscale>  1 0.30000000E+03</rscale>
<asrwt>0</asrwt>
<pdfrwt beam="1">  1       21 0.51815078E-02 0.30000000E+03</pdfrwt>
<pdfrwt beam="2">0</pdfrwt>
<totfact> 0.27104322E+04</totfact>
</mgrwt>
</event>
<event>
 6    1  0.6513574E-002  0.3000000E+03  0.7818608E-02  0.1093470E+00
         21   -1    0    0  501  502  0.00000000000E+00  0.00000000000E+00  0.12938628639E+01  0.12938628639E+01  0.00000000000E+00 0. -1.
         13   -1    0    0    0    0 -0.00000000000E+00 -0.00000000000E+00 -0.10000000000E+04  0.10000000000E+04  0.00000000000E+00 0.  1.
    9000005    2    1    2  501    0  0.18158551183E+02 -0.24944318456E+02 -0.24525877514E+03  0.24721503456E+03  0.33844530855E+01 0.  0.
         13    1    3    3    0    0  0.17267278421E+02 -0.24108509904E+02 -0.23944145201E+03  0.24127077754E+03  0.00000000000E+00 0.  1.
          1    1    3    3  501    0  0.89127276165E+00 -0.83580855229E+00 -0.58173231367E+01  0.59442570224E+01  0.00000000000E+00 0.  1.
         -3    1    1    2    0  502 -0.18158551183E+02  0.24944318456E+02 -0.75344736199E+03  0.75407882831E+03  0.00000000000E+00 0. -1.
<mgrwt>
<rscale>  1 0.30000000E+03</rscale>
<asrwt>0</asrwt>
<pdfrwt beam="1">  1       21 0.47049658E-02 0.30000000E+03</pdfrwt>
<pdfrwt beam="2">0</pdfrwt>
<totfact> 0.31946922E+04</totfact>
</mgrwt>
</event>
<event>
 6    1  0.6513574E-002  0.3000000E+03  0.7818608E-02  0.1093470E+00
         21   -1    0    0  501  502  0.00000000000E+00  0.00000000000E+00  0.15576456575E+01  0.15576456575E+01  0.00000000000E+00 0. -1.
         13   -1    0    0    0    0 -0.00000000000E+00 -0.00000000000E+00 -0.10000000000E+04  0.10000000000E+04  0.00000000000E+00 0.  1.
    9000005    2    1    2  501    0  0.34209422920E+02 -0.16387807806E+02 -0.63477594290E+03  0.63591833750E+03  0.35762296034E+01 0.  0.
         13    1    3    3    0    0  0.76225294228E+01 -0.21339607769E+01 -0.14003296253E+03  0.14025650551E+03  0.00000000000E+00 0.  1.
          3    1    3    3  501    0  0.26586893497E+02 -0.14253847029E+02 -0.49474298037E+03  0.49566183198E+03  0.00000000000E+00 0.  1.
         -3    1    1    2    0  502 -0.34209422920E+02  0.16387807806E+02 -0.36366641144E+03  0.36563930816E+03  0.00000000000E+00 0. -1.
<mgrwt>
<rscale>  1 0.30000000E+03</rscale>
<asrwt>0</asrwt>
<pdfrwt beam="1">  1       21 0.56641780E-02 0.30000000E+03</pdfrwt>
<pdfrwt beam="2">0</pdfrwt>
<totfact> 0.23269083E+04</totfact>
</mgrwt>
</event>
<event>
 6    1  0.6513574E-002  0.3000000E+03  0.7818608E-02  0.1093470E+00
         21   -1    0    0  501  502  0.00000000000E+00  0.00000000000E+00  0.10561252804E+01  0.10561252804E+01  0.00000000000E+00 0. -1.
         13   -1    0    0    0    0 -0.00000000000E+00 -0.00000000000E+00 -0.10000000000E+04  0.10000000000E+04  0.00000000000E+00 0.  1.
    9000005    2    1    2  501    0 -0.32059105112E+02  0.46014533452E+01 -0.51529361195E+03  0.51632265597E+03  0.35523171221E+01 0.  0.
         13    1    3    3    0    0 -0.26431366056E+02  0.34491303404E+01 -0.44297193863E+03  0.44377319886E+03  0.00000000000E+00 0.  1.
          1    1    3    3  501    0 -0.56277390565E+01  0.11523230048E+01 -0.72321673325E+02  0.72549457115E+02  0.00000000000E+00 0.  1.
         -1    1    1    2    0  502  0.32059105112E+02 -0.46014533452E+01 -0.48365026277E+03  0.48473346931E+03  0.00000000000E+00 0. -1.
<mgrwt>
<rscale>  1 0.30000000E+03</rscale>
<asrwt>0</asrwt>
<pdfrwt beam="1">  1       21 0.38404637E-02 0.30000000E+03</pdfrwt>
<pdfrwt beam="2">0</pdfrwt>
<totfact> 0.45027420E+04</totfact>
</mgrwt>
</event>
<event>
 6    1  0.6513574E-002  0.3000000E+03  0.7818608E-02  0.1093470E+00
         21   -1    0    0  501  502  0.00000000000E+00  0.00000000000E+00  0.14469415827E+01  0.14469415827E+01  0.00000000000E+00 0. -1.
         13   -1    0    0    0    0 -0.00000000000E+00 -0.00000000000E+00 -0.10000000000E+04  0.10000000000E+04  0.00000000000E+00 0.  1.
    9000005    2    1    2  501    0 -0.16543688667E+02  0.33763514748E+02 -0.52246204887E+03  0.52387357765E+03  0.79538852917E+01 0.  0.
         13    1    3    3    0    0 -0.86731495930E+01  0.12902672310E+02 -0.17112224291E+03  0.17182701910E+03  0.00000000000E+00 0.  1.
          3    1    3    3  501    0 -0.78705390735E+01  0.20860842438E+02 -0.35133980596E+03  0.35204655855E+03  0.00000000000E+00 0.  1.
         -3    1    1    2    0  502  0.16543688667E+02 -0.33763514748E+02 -0.47609100955E+03  0.47757336393E+03  0.00000000000E+00 0. -1.
<mgrwt>
<rscale>  1 0.30000000E+03</rscale>
<asrwt>0</asrwt>
<pdfrwt beam="1">  1       21 0.52616169E-02 0.30000000E+03</pdfrwt>
<pdfrwt beam="2">0</pdfrwt>
<totfact> 0.26402984E+04</totfact>
</mgrwt>
</event>
<event>
 6    1  0.6513574E-002  0.3000000E+03  0.7818608E-02  0.1093470E+00
         21   -1    0    0  501  502  0.00000000000E+00  0.00000000000E+00  0.98405327985E+00  0.98405327985E+00  0.00000000000E+00 0. -1.
         13   -1    0    0    0    0 -0.00000000000E+00 -0.00000000000E+00 -0.10000000000E+04  0.10000000000E+04  0.00000000000E+00 0.  1.
    9000005    2    1    2  501    0 -0.20415257728E+02  0.22276899282E+02 -0.62961225767E+03  0.63034659096E+03  0.34909510268E+01 0.  0.
         13    1    3    3    0    0 -0.14199540327E+02  0.14819333614E+02 -0.45852005829E+03  0.45897917540E+03  0.00000000000E+00 0.  1.
          3    1    3    3  501    0 -0.62157174006E+01  0.74575656684E+01 -0.17109219938E+03  0.17136741556E+03  0.00000000000E+00 0.  1.
         -3    1    1    2    0  502  0.20415257728E+02 -0.22276899282E+02 -0.36940368905E+03  0.37063746232E+03  0.00000000000E+00 0. -1.
<mgrwt>
<rscale>  1 0.30000000E+03</rscale>
<asrwt>0</asrwt>
<pdfrwt beam="1">  1       21 0.35783831E-02 0.30000000E+03</pdfrwt>
<pdfrwt beam="2">0</pdfrwt>
<totfact> 0.50699752E+04</totfact>
</mgrwt>
</event>
<event>
 6    1  0.6513574E-002  0.3000000E+03  0.7818608E-02  0.1093470E+00
         21   -1    0    0  501  502  0.00000000000E+00  0.00000000000E+00  0.36717237646E+01  0.36717237646E+01  0.00000000000E+00 0. -1.
         13   -1    0    0    0    0 -0.00000000000E+00 -0.00000000000E+00 -0.10000000000E+04  0.10000000000E+04  0.00000000000E+00 0.  1.
    9000005    2    1    2  501    0  0.32561588362E+02  0.50581500751E+02 -0.44564901791E+03  0.44971649922E+03  0.48101193275E+01 0.  0.
         13    1    3    3    0    0  0.32678349723E+02  0.50123038593E+02 -0.44333848865E+03  0.44735803229E+03  0.00000000000E+00 0.  1.
          1    1    3    3  501    0 -0.11676136167E+00  0.45846215803E+00 -0.23105292645E+01  0.23584669275E+01  0.00000000000E+00 0.  1.
         -1    1    1    2    0  502 -0.32561588362E+02 -0.50581500751E+02 -0.55067925832E+03  0.55395522455E+03  0.00000000000E+00 0. -1.
<mgrwt>
<rscale>  1 0.30000000E+03</rscale>
<asrwt>0</asrwt>
<pdfrwt beam="1">  1       21 0.13351751E-01 0.30000000E+03</pdfrwt>
<pdfrwt beam="2">0</pdfrwt>
<totfact> 0.51013862E+03</totfact>
</mgrwt>
</event>
<event>
 6    1  0.6513574E-002  0.3000000E+03  0.7818608E-02  0.1093470E+00
         21   -1    0    0  501  502  0.00000000000E+00  0.00000000000E+00  0.17780640532E+01  0.17780640532E+01  0.00000000000E+00 0. -1.
         13   -1    0    0    0    0 -0.00000000000E+00 -0.00000000000E+00 -0.10000000000E+04  0.10000000000E+04  0.00000000000E+00 0.  1.
    9000005    2    1    2  501    0 -0.36122624280E+02  0.18405395944E+02 -0.63440566685E+03  0.63570992798E+03  0.35999754128E+01 0.  0.
         13    1    3    3    0    0 -0.10145227603E+02  0.47186318357E+01 -0.20044760390E+03  0.20075963996E+03  0.00000000000E+00 0.  1.
          3    1    3    3  501    0 -0.25977396678E+02  0.13686764108E+02 -0.43395806295E+03  0.43495028802E+03  0.00000000000E+00 0.  1.
         -3    1    1    2    0  502  0.36122624280E+02 -0.18405395944E+02 -0.36381626910E+03  0.36606813607E+03  0.00000000000E+00 0. -1.
<mgrwt>
<rscale>  1 0.30000000E+03</rscale>
<asrwt>0</asrwt>
<pdfrwt beam="1">  1       21 0.64657011E-02 0.30000000E+03</pdfrwt>
<pdfrwt beam="2">0</pdfrwt>
<totfact> 0.18518884E+04</totfact>
</mgrwt>
</event>
<event>
 6    1  0.6513574E-002  0.3000000E+03  0.7818608E-02  0.1093470E+00
         21   -1    0    0  501  502  0.00000000000E+00  0.00000000000E+00  0.32757006475E+01  0.32757006475E+01  0.00000000000E+00 0. -1.
         13   -1    0    0    0    0 -0.00000000000E+00 -0.00000000000E+00 -0.10000000000E+04  0.10000000000E+04  0.00000000000E+00 0.  1.
    9000005    2    1    2  501    0  0.39585896090E+02  0.31654421401E+02 -0.26648636359E+03  0.27128083155E+03  0.30433569930E+01 0.  0.
         13    1    3    3    0    0  0.35749410510E+02  0.28879476792E+02 -0.23664618414E+03  0.24106733707E+03  0.00000000000E+00 0.  1.
          1    1    3    3  501    0  0.38364855796E+01  0.27749446084E+01 -0.29840179448E+02  0.30213494480E+02  0.00000000000E+00 0.  1.
         -3    1    1    2    0  502 -0.39585896090E+02 -0.31654421401E+02 -0.73023793576E+03  0.73199486910E+03  0.00000000000E+00 0. -1.
<mgrwt>
<rscale>  1 0.30000000E+03</rscale>
<asrwt>0</asrwt>
<pdfrwt beam="1">  1       21 0.11911664E-01 0.30000000E+03</pdfrwt>
<pdfrwt beam="2">0</pdfrwt>
<totfact> 0.62807451E+03</totfact>
</mgrwt>
</event>
<event>
 6    1  0.6513574E-002  0.3000000E+03  0.7818608E-02  0.1093470E+00
         21   -1    0    0  501  502  0.00000000000E+00  0.00000000000E+00  0.10826583833E+01  0.10826583833E+01  0.00000000000E+00 0. -1.
         13   -1    0    0    0    0 -0.00000000000E+00 -0.00000000000E+00 -0.10000000000E+04  0.10000000000E+04  0.00000000000E+00 0.  1.
    9000005    2    1    2  501    0  0.32258048533E+02  0.41871924057E+01 -0.44991969243E+03  0.45112217518E+03  0.50371643951E+01 0.  0.
         13    1    3    3    0    0  0.10600059506E+02  0.28771042526E+01 -0.17771183305E+03  0.17805093259E+03  0.00000000000E+00 0.  1.
          1    1    3    3  501    0  0.21657989027E+02  0.13100881530E+01 -0.27220785938E+03  0.27307124259E+03  0.00000000000E+00 0.  1.
         -1    1    1    2    0  502 -0.32258048533E+02 -0.41871924057E+01 -0.54899764918E+03  0.54996048320E+03  0.00000000000E+00 0. -1.
<mgrwt>
<rscale>  1 0.30000000E+03</rscale>
<asrwt>0</asrwt>
<pdfrwt beam="1">  1       21 0.39369479E-02 0.30000000E+03</pdfrwt>
<pdfrwt beam="2">0</pdfrwt>
<totfact> 0.43187113E+04</totfact>
</mgrwt>
</event>
<event>
 6    1  0.6513574E-002  0.3000000E+03  0.7818608E-02  0.1093470E+00
         21   -1    0    0  501  502  0.00000000000E+00  0.00000000000E+00  0.32543370390E+01  0.32543370390E+01  0.00000000000E+00 0. -1.
         13   -1    0    0    0    0 -0.00000000000E+00 -0.00000000000E+00 -0.10000000000E+04  0.10000000000E+04  0.00000000000E+00 0.  1.
    9000005    2    1    2  501    0  0.35865591366E+02  0.25128719469E+02 -0.81946268712E+03  0.82064259944E+03  0.41698016900E+01 0.  0.
         13    1    3    3    0    0  0.30423681417E+02  0.19457471038E+02 -0.66399068204E+03  0.66497204408E+03  0.00000000000E+00 0.  1.
          1    1    3    3  501    0  0.54419099487E+01  0.56712484310E+01 -0.15547200508E+03  0.15567055536E+03  0.00000000000E+00 0.  1.
         -1    1    1    2    0  502 -0.35865591366E+02 -0.25128719469E+02 -0.17728297584E+03  0.18261173760E+03  0.00000000000E+00 0. -1.
<mgrwt>
<rscale>  1 0.30000000E+03</rscale>
<asrwt>0</asrwt>
<pdfrwt beam="1">  1       21 0.11833978E-01 0.30000000E+03</pdfrwt>
<pdfrwt beam="2">0</pdfrwt>
<totfact> 0.63556842E+03</totfact>
</mgrwt>
</event>
<event>
 6    1  0.6513574E-002  0.3000000E+03  0.7818608E-02  0.1093470E+00
         21   -1    0    0  501  502  0.00000000000E+00  0.00000000000E+00  0.11671345472E+01  0.11671345472E+01  0.00000000000E+00 0. -1.
         13   -1    0    0    0    0 -0.00000000000E+00 -0.00000000000E+00 -0.10000000000E+04  0.10000000000E+04  0.00000000000E+00 0.  1.
    9000005    2    1    2  501    0  0.26809529080E+02 -0.18244378307E+02 -0.34632881292E+03  0.34785775396E+03  0.31244428885E+01 0.  0.
         13    1    3    3    0    0  0.15657463732E+02 -0.12493242022E+02 -0.21335283476E+03  0.21429108560E+03  0.00000000000E+00 0.  1.
          3    1    3    3  501    0  0.11152065347E+02 -0.57511362850E+01 -0.13297597817E+03  0.13356666837E+03  0.00000000000E+00 0.  1.
         -1    1    1    2    0  502 -0.26809529080E+02  0.18244378307E+02 -0.65250405253E+03  0.65330938058E+03  0.00000000000E+00 0. -1.
<mgrwt>
<rscale>  1 0.30000000E+03</rscale>
<asrwt>0</asrwt>
<pdfrwt beam="1">  1       21 0.42441346E-02 0.30000000E+03</pdfrwt>
<pdfrwt beam="2">0</pdfrwt>
<totfact> 0.38048637E+04</totfact>
</mgrwt>
</event>
<event>
 6    1  0.6513574E-002  0.3000000E+03  0.7818608E-02  0.1093470E+00
         21   -1    0    0  501  502  0.00000000000E+00  0.00000000000E+00  0.14036885176E+01  0.14036885176E+01  0.00000000000E+00 0. -1.
         13   -1    0    0    0    0 -0.00000000000E+00 -0.00000000000E+00 -0.10000000000E+04  0.10000000000E+04  0.00000000000E+00 0.  1.
    9000005    2    1    2  501    0 -0.23851394557E+02  0.28263361090E+02 -0.57387202338E+03  0.57507232971E+03  0.33732139305E+01 0.  0.
         13    1    3    3    0    0 -0.76423761140E+01  0.67261733527E+01 -0.15671761087E+03  0.15704794451E+03  0.00000000000E+00 0.  1.
          1    1    3    3  501    0 -0.16209018443E+02  0.21537187737E+02 -0.41715441251E+03  0.41802438519E+03  0.00000000000E+00 0.  1.
         -1    1    1    2    0  502  0.23851394557E+02 -0.28263361090E+02 -0.42472428810E+03  0.42633135881E+03  0.00000000000E+00 0. -1.
<mgrwt>
<rscale>  1 0.30000000E+03</rscale>
<asrwt>0</asrwt>
<pdfrwt beam="1">  1       21 0.51043326E-02 0.30000000E+03</pdfrwt>
<pdfrwt beam="2">0</pdfrwt>
<totfact> 0.27807698E+04</totfact>
</mgrwt>
</event>
<event>
 6    1  0.6513574E-002  0.3000000E+03  0.7818608E-02  0.1093470E+00
         21   -1    0    0  501  502  0.00000000000E+00  0.00000000000E+00  0.25773332292E+01  0.25773332292E+01  0.00000000000E+00 0. -1.
         13   -1    0    0    0    0 -0.00000000000E+00 -0.00000000000E+00 -0.10000000000E+04  0.10000000000E+04  0.00000000000E+00 0.  1.
    9000005    2    1    2  501    0  0.99718316110E+01  0.49630026343E+02 -0.48010666312E+03  0.48279043019E+03  0.46491470003E+01 0.  0.
         13    1    3    3    0    0  0.44095860731E+01  0.27666146803E+02 -0.24610511283E+03  0.24769454311E+03  0.00000000000E+00 0.  1.
          1    1    3    3  501    0  0.55622455378E+01  0.21963879540E+02 -0.23400155030E+03  0.23509588708E+03  0.00000000000E+00 0.  1.
         -1    1    1    2    0  502 -0.99718316110E+01 -0.49630026343E+02 -0.51731600365E+03  0.51978690304E+03  0.00000000000E+00 0. -1.
<mgrwt>
<rscale>  1 0.30000000E+03</rscale>
<asrwt>0</asrwt>
<pdfrwt beam="1">  1       21 0.93721406E-02 0.30000000E+03</pdfrwt>
<pdfrwt beam="2">0</pdfrwt>
<totfact> 0.96578856E+03</totfact>
</mgrwt>
</event>
<event>
 6    1  0.6513574E-002  0.3000000E+03  0.7818608E-02  0.1093470E+00
         21   -1    0    0  501  502  0.00000000000E+00  0.00000000000E+00  0.11835066340E+01  0.11835066340E+01  0.00000000000E+00 0. -1.
         13   -1    0    0    0    0 -0.00000000000E+00 -0.00000000000E+00 -0.10000000000E+04  0.10000000000E+04  0.00000000000E+00 0.  1.
    9000005    2    1    2  501    0  0.33647229795E+02  0.25604190683E+01 -0.57485961244E+03  0.57588581242E+03  0.64963923908E+01 0.  0.
         13    1    3    3    0    0  0.10861375827E+02 -0.10260869060E+01 -0.22725580746E+03  0.22751752539E+03  0.00000000000E+00 0.  1.
          3    1    3    3  501    0  0.22785853968E+02  0.35865059743E+01 -0.34760380498E+03  0.34836828703E+03  0.00000000000E+00 0.  1.
         -3    1    1    2    0  502 -0.33647229795E+02 -0.25604190683E+01 -0.42395688093E+03  0.42529769421E+03  0.00000000000E+00 0. -1.
<mgrwt>
<rscale>  1 0.30000000E+03</rscale>
<asrwt>0</asrwt>
<pdfrwt beam="1">  1       21 0.43036696E-02 0.30000000E+03</pdfrwt>
<pdfrwt beam="2">0</pdfrwt>
<totfact> 0.37163091E+04</totfact>
</mgrwt>
</event>
<event>
 6    1  0.6513574E-002  0.3000000E+03  0.7818608E-02  0.1093470E+00
         21   -1    0    0  501  502  0.00000000000E+00  0.00000000000E+00  0.11317736381E+01  0.11317736381E+01  0.00000000000E+00 0. -1.
         13   -1    0    0    0    0 -0.00000000000E+00 -0.00000000000E+00 -0.10000000000E+04  0.10000000000E+04  0.00000000000E+00 0.  1.
    9000005    2    1    2  501    0 -0.24373182839E+02  0.18411019848E+02 -0.29396902147E+03  0.29557106984E+03  0.33843826567E+01 0.  0.
         13    1    3    3    0    0 -0.24095696125E+02  0.18413113890E+02 -0.29293275091E+03  0.29449828843E+03  0.00000000000E+00 0.  1.
          1    1    3    3  501    0 -0.27748671379E+00 -0.20940425329E-02 -0.10362705636E+01  0.10727814047E+01  0.00000000000E+00 0.  1.
         -3    1    1    2    0  502  0.24373182839E+02 -0.18411019848E+02 -0.70489920489E+03  0.70556070380E+03  0.00000000000E+00 0. -1.
<mgrwt>
<rscale>  1 0.30000000E+03</rscale>
<asrwt>0</asrwt>
<pdfrwt beam="1">  1       21 0.41155492E-02 0.30000000E+03</pdfrwt>
<pdfrwt beam="2">0</pdfrwt>
<totfact> 0.40076981E+04</totfact>
</mgrwt>
</event>
<event>
 6    1  0.6513574E-002  0.3000000E+03  0.7818608E-02  0.1093470E+00
         21   -1    0    0  501  502  0.00000000000E+00  0.00000000000E+00  0.11569678628E+01  0.11569678628E+01  0.00000000000E+00 0. -1.
         13   -1    0    0    0    0 -0.00000000000E+00 -0.00000000000E+00 -0.10000000000E+04  0.10000000000E+04  0.00000000000E+00 0.  1.
    9000005    2    1    2  501    0 -0.84982842749E+01 -0.30279233964E+02 -0.31387735972E+03  0.31546970297E+03  0.36171401218E+01 0.  0.
         13    1    3    3    0    0 -0.72861020093E+01 -0.27199070821E+02 -0.29003625723E+03  0.29139990948E+03  0.00000000000E+00 0.  1.
          3    1    3    3  501    0 -0.12121822656E+01 -0.30801631430E+01 -0.23841102491E+02  0.24069793494E+02  0.00000000000E+00 0.  1.
         -1    1    1    2    0  502  0.84982842749E+01  0.30279233964E+02 -0.68496567242E+03  0.68568726489E+03  0.00000000000E+00 0. -1.
<mgrwt>
<rscale>  1 0.30000000E+03</rscale>
<asrwt>0</asrwt>
<pdfrwt beam="1">  1       21 0.42071647E-02 0.30000000E+03</pdfrwt>
<pdfrwt beam="2">0</pdfrwt>
<totfact> 0.38615151E+04</totfact>
</mgrwt>
</event>
<event>
 6    1  0.6513574E-002  0.3000000E+03  0.7818608E-02  0.1093470E+00
         21   -1    0    0  501  502  0.00000000000E+00  0.00000000000E+00  0.99087931206E+00  0.99087931206E+00  0.00000000000E+00 0. -1.
         13   -1    0    0    0    0 -0.00000000000E+00 -0.00000000000E+00 -0.10000000000E+04  0.10000000000E+04  0.00000000000E+00 0.  1.
    9000005    2    1    2  501    0 -0.29848659176E+02  0.94068515074E+01 -0.52445918216E+03  0.52541010230E+03  0.43486243006E+01 0.  0.
         13    1    3    3    0    0 -0.48098025416E+01  0.30774037277E+01 -0.83111757409E+02  0.83307675719E+02  0.00000000000E+00 0.  1.
          1    1    3    3  501    0 -0.25038856635E+02  0.63294477797E+01 -0.44134742475E+03  0.44210242658E+03  0.00000000000E+00 0.  1.
         -1    1    1    2    0  502  0.29848659176E+02 -0.94068515074E+01 -0.47454993853E+03  0.47558077701E+03  0.00000000000E+00 0. -1.
<mgrwt>
<rscale>  1 0.30000000E+03</rscale>
<asrwt>0</asrwt>
<pdfrwt beam="1">  1       21 0.36032051E-02 0.30000000E+03</pdfrwt>
<pdfrwt beam="2">0</pdfrwt>
<totfact> 0.50115465E+04</totfact>
</mgrwt>
</event>
<event>
 6    1  0.6513574E-002  0.3000000E+03  0.7818608E-02  0.1093470E+00
         21   -1    0    0  501  502  0.00000000000E+00  0.00000000000E+00  0.22052398889E+01  0.22052398889E+01  0.00000000000E+00 0. -1.
         13   -1    0    0    0    0 -0.00000000000E+00 -0.00000000000E+00 -0.10000000000E+04  0.10000000000E+04  0.00000000000E+00 0.  1.
    9000005    2    1    2  501    0 -0.28027329646E+01  0.46324534898E+02 -0.57279745541E+03  0.57468152493E+03  0.28482153867E+01 0.  0.
         13    1    3    3    0    0 -0.29102831450E+01  0.39357537043E+02 -0.47553563351E+03  0.47717043518E+03  0.00000000000E+00 0.  1.
          3    1    3    3  501    0  0.10755018040E+00  0.69669978549E+01 -0.97261821895E+02  0.97511089751E+02  0.00000000000E+00 0.  1.
         -1    1    1    2    0  502  0.28027329646E+01 -0.46324534898E+02 -0.42499730470E+03  0.42752371496E+03  0.00000000000E+00 0. -1.
<mgrwt>
<rscale>  1 0.30000000E+03</rscale>
<asrwt>0</asrwt>
<pdfrwt beam="1">  1       21 0.80190711E-02 0.30000000E+03</pdfrwt>
<pdfrwt beam="2">0</pdfrwt>
<totfact> 0.12720554E+04</totfact>
</mgrwt>
</event>
<event>
 6    1  0.6513574E-002  0.3000000E+03  0.7818608E-02  0.1093470E+00
         21   -1    0    0  501  502  0.00000000000E+00  0.00000000000E+00  0.16139863028E+01  0.16139863028E+01  0.00000000000E+00 0. -1.
         13   -1    0    0    0    0 -0.00000000000E+00 -0.00000000000E+00 -0.10000000000E+04  0.10000000000E+04  0.00000000000E+00 0.  1.
    9000005    2    1    2  501    0  0.27786129884E+02 -0.28302916405E+02 -0.57208718360E+03  0.57347403648E+03  0.39497832589E+01 0.  0.
         13    1    3    3    0    0  0.92817338636E+01 -0.11519691603E+02 -0.19516757680E+03  0.19572745569E+03  0.00000000000E+00 0.  1.
          3    1    3    3  501    0  0.18504396021E+02 -0.16783224803E+02 -0.37691960680E+03  0.37774658079E+03  0.00000000000E+00 0.  1.
         -3    1    1    2    0  502 -0.27786129884E+02  0.28302916405E+02 -0.42629883010E+03  0.42813994982E+03  0.00000000000E+00 0. -1.
<mgrwt>
<rscale>  1 0.30000000E+03</rscale>
<asrwt>0</asrwt>
<pdfrwt beam="1">  1       21 0.58690535E-02 0.30000000E+03</pdfrwt>
<pdfrwt beam="2">0</pdfrwt>
<totfact> 0.21888675E+04</totfact>
</mgrwt>
</event>
<event>
 6    1  0.6513574E-002  0.3000000E+03  0.7818608E-02  0.1093470E+00
         21   -1    0    0  501  502  0.00000000000E+00  0.00000000000E+00  0.20823650258E+01  0.20823650258E+01  0.00000000000E+00 0. -1.
         13   -1    0    0    0    0 -0.00000000000E+00 -0.00000000000E+00 -0.10000000000E+04  0.10000000000E+04  0.00000000000E+00 0.  1.
    9000005    2    1    2  501    0  0.24486034123E+02  0.21532395235E+02 -0.15301958782E+03  0.15655535777E+03  0.56014175631E+01 0.  0.
         13    1    3    3    0    0  0.55942566304E+01  0.58082225303E+01 -0.49862622053E+02  0.50510516076E+02  0.00000000000E+00 0.  1.
          3    1    3    3  501    0  0.18891777492E+02  0.15724172705E+02 -0.10315696577E+03  0.10604484170E+03  0.00000000000E+00 0.  1.
         -1    1    1    2    0  502 -0.24486034123E+02 -0.21532395235E+02 -0.84489804715E+03  0.84552700725E+03  0.00000000000E+00 0. -1.
<mgrwt>
<rscale>  1 0.30000000E+03</rscale>
<asrwt>0</asrwt>
<pdfrwt beam="1">  1       21 0.75722524E-02 0.30000000E+03</pdfrwt>
<pdfrwt beam="2">0</pdfrwt>
<totfact> 0.14066296E+04</totfact>
</mgrwt>
</event>
<event>
 6    1  0.6513574E-002  0.3000000E+03  0.7818608E-02  0.1093470E+00
         21   -1    0    0  501  502  0.00000000000E+00  0.00000000000E+00  0.34061352165E+01  0.34061352165E+01  0.00000000000E+00 0. -1.
         13   -1    0    0    0    0 -0.00000000000E+00 -0.00000000000E+00 -0.10000000000E+04  0.10000000000E+04  0.00000000000E+00 0.  1.
    9000005    2    1    2  501    0  0.49376648039E+02 -0.95248900224E+00 -0.76502202492E+03  0.76662674924E+03  0.43489569507E+01 0.  0.
         13    1    3    3    0    0  0.49006494991E+02 -0.89340758734E+00 -0.74992755899E+03  0.75152762987E+03  0.00000000000E+00 0.  1.
          3    1    3    3  501    0  0.37015304783E+00 -0.59081414899E-01 -0.15094465939E+02  0.15099119374E+02  0.00000000000E+00 0.  1.
         -1    1    1    2    0  502 -0.49376648039E+02  0.95248900224E+00 -0.23157183986E+03  0.23677938597E+03  0.00000000000E+00 0. -1.
<mgrwt>
<rscale>  1 0.30000000E+03</rscale>
<asrwt>0</asrwt>
<pdfrwt beam="1">  1       21 0.12385972E-01 0.30000000E+03</pdfrwt>
<pdfrwt beam="2">0</pdfrwt>
<totfact> 0.58505090E+03</totfact>
</mgrwt>
</event>
<event>
 6    1  0.6513574E-002  0.3000000E+03  0.7818608E-02  0.1093470E+00
         21   -1    0    0  501  502  0.00000000000E+00  0.00000000000E+00  0.10020283331E+01  0.10020283331E+01  0.00000000000E+00 0. -1.
         13   -1    0    0    0    0 -0.00000000000E+00 -0.00000000000E+00 -0.10000000000E+04  0.10000000000E+04  0.00000000000E+00 0.  1.
    9000005    2    1    2  501    0  0.30029617516E+02 -0.57406753143E+00 -0.63497858896E+03  0.63574565472E+03  0.85218290849E+01 0.  0.
         13    1    3    3    0    0  0.21668207485E+02 -0.33897928514E+01 -0.49847193118E+03  0.49895417433E+03  0.00000000000E+00 0.  1.
          1    1    3    3  501    0  0.83614100305E+01  0.28157253200E+01 -0.13650665778E+03  0.13679148038E+03  0.00000000000E+00 0.  1.
         -3    1    1    2    0  502 -0.30029617516E+02  0.57406753143E+00 -0.36401938271E+03  0.36525637362E+03  0.00000000000E+00 0. -1.
<mgrwt>
<rscale>  1 0.30000000E+03</rscale>
<asrwt>0</asrwt>
<pdfrwt beam="1">  1       21 0.36437471E-02 0.30000000E+03</pdfrwt>
<pdfrwt beam="2">0</pdfrwt>
<totfact> 0.49183724E+04</totfact>
</mgrwt>
</event>
<event>
 6    1  0.6513574E-002  0.3000000E+03  0.7818608E-02  0.1093470E+00
         21   -1    0    0  501  502  0.00000000000E+00  0.00000000000E+00  0.12532167965E+01  0.12532167965E+01  0.00000000000E+00 0. -1.
         13   -1    0    0    0    0 -0.00000000000E+00 -0.00000000000E+00 -0.10000000000E+04  0.10000000000E+04  0.00000000000E+00 0.  1.
    9000005    2    1    2  501    0 -0.34088303469E+02  0.91709355719E+01 -0.49239817048E+03  0.49367560096E+03  0.36772540225E+01 0.  0.
         13    1    3    3    0    0 -0.19349168703E+02  0.33653194664E+01 -0.27849650831E+03  0.27918814596E+03  0.00000000000E+00 0.  1.
          3    1    3    3  501    0 -0.14739134767E+02  0.58056161055E+01 -0.21390166217E+03  0.21448745500E+03  0.00000000000E+00 0.  1.
         -3    1    1    2    0  502  0.34088303469E+02 -0.91709355719E+01 -0.50634861272E+03  0.50757761584E+03  0.00000000000E+00 0. -1.
<mgrwt>
<rscale>  1 0.30000000E+03</rscale>
<asrwt>0</asrwt>
<pdfrwt beam="1">  1       21 0.45571616E-02 0.30000000E+03</pdfrwt>
<pdfrwt beam="2">0</pdfrwt>
<totfact> 0.33727603E+04</totfact>
</mgrwt>
</event>
<event>
 6    1  0.6513574E-002  0.3000000E+03  0.7818608E-02  0.1093470E+00
         21   -1    0    0  501  502  0.00000000000E+00  0.00000000000E+00  0.18139844474E+01  0.18139844474E+01  0.00000000000E+00 0. -1.
         13   -1    0    0    0    0 -0.00000000000E+00 -0.00000000000E+00 -0.10000000000E+04  0.10000000000E+04  0.00000000000E+00 0.  1.
    9000005    2    1    2  501    0  0.40303836998E+02 -0.46452601693E+00 -0.33982845093E+03  0.34222373440E+03  0.30155039952E+01 0.  0.
         13    1    3    3    0    0  0.31349837811E+02  0.67139696933E+00 -0.26975487131E+03  0.27157126818E+03  0.00000000000E+00 0.  1.
          1    1    3    3  501    0  0.89539991869E+01 -0.11359229863E+01 -0.70073579621E+02  0.70652466222E+02  0.00000000000E+00 0.  1.
         -1    1    1    2    0  502 -0.40303836998E+02  0.46452601693E+00 -0.65835756462E+03  0.65959025004E+03  0.00000000000E+00 0. -1.
<mgrwt>
<rscale>  1 0.30000000E+03</rscale>
<asrwt>0</asrwt>
<pdfrwt beam="1">  1       21 0.65963210E-02 0.30000000E+03</pdfrwt>
<pdfrwt beam="2">0</pdfrwt>
<totfact> 0.17888395E+04</totfact>
</mgrwt>
</event>
<event>
 6    1  0.6513574E-002  0.3000000E+03  0.7818608E-02  0.1093470E+00
         21   -1    0    0  501  502  0.00000000000E+00  0.00000000000E+00  0.21791245228E+01  0.21791245228E+01  0.00000000000E+00 0. -1.
         13   -1    0    0    0    0 -0.00000000000E+00 -0.00000000000E+00 -0.10000000000E+04  0.10000000000E+04  0.00000000000E+00 0.  1.
    9000005    2    1    2  501    0 -0.22433237828E+02  0.39177901525E+02 -0.37553432435E+03  0.37825708625E+03  0.37731163218E+01 0.  0.
         13    1    3    3    0    0 -0.12750658849E+02  0.18620350776E+02 -0.19148879042E+03  0.19281403896E+03  0.00000000000E+00 0.  1.
          1    1    3    3  501    0 -0.96825789784E+01  0.20557550749E+02 -0.18404553393E+03  0.18544304729E+03  0.00000000000E+00 0.  1.
         -3    1    1    2    0  502  0.22433237828E+02 -0.39177901525E+02 -0.62228655113E+03  0.62392203827E+03  0.00000000000E+00 0. -1.
<mgrwt>
<rscale>  1 0.30000000E+03</rscale>
<asrwt>0</asrwt>
<pdfrwt beam="1">  1       21 0.79241059E-02 0.30000000E+03</pdfrwt>
<pdfrwt beam="2">0</pdfrwt>
<totfact> 0.12989480E+04</totfact>
</mgrwt>
</event>
<event>
 6    1  0.6513574E-002  0.3000000E+03  0.7818608E-02  0.1093470E+00
         21   -1    0    0  501  502  0.00000000000E+00  0.00000000000E+00  0.24757828724E+01  0.24757828724E+01  0.00000000000E+00 0. -1.
         13   -1    0    0    0    0 -0.00000000000E+00 -0.00000000000E+00 -0.10000000000E+04  0.10000000000E+04  0.00000000000E+00 0.  1.
    9000005    2    1    2  501    0  0.10432406967E+02  0.39420421840E+02 -0.78537262782E+03  0.78644082825E+03  0.40257962702E+01 0.  0.
         13    1    3    3    0    0  0.92799844529E+01  0.32730640068E+02 -0.62613146067E+03  0.62705503662E+03  0.00000000000E+00 0.  1.
          3    1    3    3  501    0  0.11524225139E+01  0.66897817720E+01 -0.15924116716E+03  0.15938579164E+03  0.00000000000E+00 0.  1.
         -3    1    1    2    0  502 -0.10432406967E+02 -0.39420421840E+02 -0.21215158930E+03  0.21603495462E+03  0.00000000000E+00 0. -1.
<mgrwt>
<rscale>  1 0.30000000E+03</rscale>
<asrwt>0</asrwt>
<pdfrwt beam="1">  1       21 0.90028658E-02 0.30000000E+03</pdfrwt>
<pdfrwt beam="2">0</pdfrwt>
<totfact> 0.10372237E+04</totfact>
</mgrwt>
</event>
<event>
 6    1  0.6513574E-002  0.3000000E+03  0.7818608E-02  0.1093470E+00
         21   -1    0    0  501  502  0.00000000000E+00  0.00000000000E+00  0.14795085167E+01  0.14795085167E+01  0.00000000000E+00 0. -1.
         13   -1    0    0    0    0 -0.00000000000E+00 -0.00000000000E+00 -0.10000000000E+04  0.10000000000E+04  0.00000000000E+00 0.  1.
    9000005    2    1    2  501    0  0.26664282956E+02 -0.27087966687E+02 -0.42852682411E+03  0.43021991536E+03  0.30322711047E+01 0.  0.
         13    1    3    3    0    0  0.22640749814E+02 -0.22691246956E+02 -0.34821960147E+03  0.34969184590E+03  0.00000000000E+00 0.  1.
          3    1    3    3  501    0  0.40235331412E+01 -0.43967197311E+01 -0.80307222636E+02  0.80528069459E+02  0.00000000000E+00 0.  1.
         -3    1    1    2    0  502 -0.26664282956E+02  0.27087966687E+02 -0.56999366738E+03  0.57125959316E+03  0.00000000000E+00 0. -1.
<mgrwt>
<rscale>  1 0.30000000E+03</rscale>
<asrwt>0</asrwt>
<pdfrwt beam="1">  1       21 0.53800423E-02 0.30000000E+03</pdfrwt>
<pdfrwt beam="2">0</pdfrwt>
<totfact> 0.25416518E+04</totfact>
</mgrwt>
</event>
<event>
 6    1  0.6513574E-002  0.3000000E+03  0.7818608E-02  0.1093470E+00
         21   -1    0    0  501  502  0.00000000000E+00  0.00000000000E+00  0.28905153985E+01  0.28905153985E+01  0.00000000000E+00 0. -1.
         13   -1    0    0    0    0 -0.00000000000E+00 -0.00000000000E+00 -0.10000000000E+04  0.10000000000E+04  0.00000000000E+00 0.  1.
    9000005    2    1    2  501    0 -0.20519772925E+02 -0.47552747987E+02 -0.36627742366E+03  0.36993600358E+03  0.33422654682E+01 0.  0.
         13    1    3    3    0    0 -0.64849274529E+01 -0.12921844519E+02 -0.93536065248E+02  0.94646837517E+02  0.00000000000E+00 0.  1.
          3    1    3    3  501    0 -0.14034845472E+02 -0.34630903467E+02 -0.27274135841E+03  0.27528916606E+03  0.00000000000E+00 0.  1.
         -1    1    1    2    0  502  0.20519772925E+02  0.47552747987E+02 -0.63083206094E+03  0.63295451182E+03  0.00000000000E+00 0. -1.
<mgrwt>
<rscale>  1 0.30000000E+03</rscale>
<asrwt>0</asrwt>
<pdfrwt beam="1">  1       21 0.10510987E-01 0.30000000E+03</pdfrwt>
<pdfrwt beam="2">0</pdfrwt>
<totfact> 0.78691017E+03</totfact>
</mgrwt>
</event>
<event>
 6    1  0.6513574E-002  0.3000000E+03  0.7818608E-02  0.1093470E+00
         21   -1    0    0  501  502  0.00000000000E+00  0.00000000000E+00  0.18896449453E+01  0.18896449453E+01  0.00000000000E+00 0. -1.
         13   -1    0    0    0    0 -0.00000000000E+00 -0.00000000000E+00 -0.10000000000E+04  0.10000000000E+04  0.00000000000E+00 0.  1.
    9000005    2    1    2  501    0  0.13461879162E+02  0.39572788791E+02 -0.38747617380E+03  0.38982646919E+03  0.89254138549E+01 0.  0.
         13    1    3    3    0    0 -0.97582394947E+00  0.56548105928E+01 -0.42289381515E+02  0.42676936443E+02  0.00000000000E+00 0.  1.
          1    1    3    3  501    0  0.14437703112E+02  0.33917978198E+02 -0.34518679228E+03  0.34714953274E+03  0.00000000000E+00 0.  1.
         -3    1    1    2    0  502 -0.13461879162E+02 -0.39572788791E+02 -0.61063418126E+03  0.61206317576E+03  0.00000000000E+00 0. -1.
<mgrwt>
<rscale>  1 0.30000000E+03</rscale>
<asrwt>0</asrwt>
<pdfrwt beam="1">  1       21 0.68714507E-02 0.30000000E+03</pdfrwt>
<pdfrwt beam="2">0</pdfrwt>
<totfact> 0.16663854E+04</totfact>
</mgrwt>
</event>
<event>
 6    1  0.6513574E-002  0.3000000E+03  0.7818608E-02  0.1093470E+00
         21   -1    0    0  501  502  0.00000000000E+00  0.00000000000E+00  0.14830840730E+01  0.14830840730E+01  0.00000000000E+00 0. -1.
         13   -1    0    0    0    0 -0.00000000000E+00 -0.00000000000E+00 -0.10000000000E+04  0.10000000000E+04  0.00000000000E+00 0.  1.
    9000005    2    1    2  501    0  0.35095020876E+02  0.14887089966E+02 -0.56209702939E+03  0.56340135277E+03  0.38376964504E+01 0.  0.
         13    1    3    3    0    0  0.30877835258E+02  0.13941076135E+02 -0.51100632668E+03  0.51212816776E+03  0.00000000000E+00 0.  1.
          3    1    3    3  501    0  0.42171856180E+01  0.94601383150E+00 -0.51090702713E+02  0.51273185003E+02  0.00000000000E+00 0.  1.
         -3    1    1    2    0  502 -0.35095020876E+02 -0.14887089966E+02 -0.43641988654E+03  0.43808173131E+03  0.00000000000E+00 0. -1.
<mgrwt>
<rscale>  1 0.30000000E+03</rscale>
<asrwt>0</asrwt>
<pdfrwt beam="1">  1       21 0.53930444E-02 0.30000000E+03</pdfrwt>
<pdfrwt beam="2">0</pdfrwt>
<totfact> 0.25311694E+04</totfact>
</mgrwt>
</event>
<event>
 6    1  0.6513574E-002  0.3000000E+03  0.7818608E-02  0.1093470E+00
         21   -1    0    0  501  502  0.00000000000E+00  0.00000000000E+00  0.10388892874E+01  0.10388892874E+01  0.00000000000E+00 0. -1.
         13   -1    0    0    0    0 -0.00000000000E+00 -0.00000000000E+00 -0.10000000000E+04  0.10000000000E+04  0.00000000000E+00 0.  1.
    9000005    2    1    2  501    0 -0.29896385890E+02 -0.79474482396E+01 -0.63681384644E+03  0.63757280168E+03  0.32010307233E+01 0.  0.
         13    1    3    3    0    0 -0.41716505963E+01 -0.13730040909E+01 -0.11508546562E+03  0.11516923289E+03  0.00000000000E+00 0.  1.
          3    1    3    3  501    0 -0.25724735293E+02 -0.65744441488E+01 -0.52172838082E+03  0.52240356879E+03  0.00000000000E+00 0.  1.
         -3    1    1    2    0  502  0.29896385890E+02  0.79474482396E+01 -0.36214726427E+03  0.36346608761E+03  0.00000000000E+00 0. -1.
<mgrwt>
<rscale>  1 0.30000000E+03</rscale>
<asrwt>0</asrwt>
<pdfrwt beam="1">  1       21 0.37777872E-02 0.30000000E+03</pdfrwt>
<pdfrwt beam="2">0</pdfrwt>
<totfact> 0.46289746E+04</totfact>
</mgrwt>
</event>
<event>
 6    1  0.6513574E-002  0.3000000E+03  0.7818608E-02  0.1093470E+00
         21   -1    0    0  501  502  0.00000000000E+00  0.00000000000E+00  0.11374827637E+01  0.11374827637E+01  0.00000000000E+00 0. -1.
         13   -1    0    0    0    0 -0.00000000000E+00 -0.00000000000E+00 -0.10000000000E+04  0.10000000000E+04  0.00000000000E+00 0.  1.
    9000005    2    1    2  501    0 -0.14478298996E+02 -0.28657050662E+02 -0.64984433890E+03  0.65064563335E+03  0.33507769235E+01 0.  0.
         13    1    3    3    0    0 -0.76748495945E+01 -0.15349243114E+02 -0.38075500284E+03  0.38114154164E+03  0.00000000000E+00 0.  1.
          3    1    3    3  501    0 -0.68034494012E+01 -0.13307807548E+02 -0.26908933606E+03  0.26950409171E+03  0.00000000000E+00 0.  1.
         -1    1    1    2    0  502  0.14478298996E+02  0.28657050662E+02 -0.34901817833E+03  0.35049184941E+03  0.00000000000E+00 0. -1.
<mgrwt>
<rscale>  1 0.30000000E+03</rscale>
<asrwt>0</asrwt>
<pdfrwt beam="1">  1       21 0.41363097E-02 0.30000000E+03</pdfrwt>
<pdfrwt beam="2">0</pdfrwt>
<totfact> 0.39738256E+04</totfact>
</mgrwt>
</event>
<event>
 6    1  0.6513574E-002  0.3000000E+03  0.7818608E-02  0.1093470E+00
         21   -1    0    0  501  502  0.00000000000E+00  0.00000000000E+00  0.12599306140E+01  0.12599306140E+01  0.00000000000E+00 0. -1.
         13   -1    0    0    0    0 -0.00000000000E+00 -0.00000000000E+00 -0.10000000000E+04  0.10000000000E+04  0.00000000000E+00 0.  1.
    9000005    2    1    2  501    0 -0.59172133881E+01 -0.32434109027E+02 -0.68282427323E+03  0.68362842226E+03  0.34419119359E+01 0.  0.
         13    1    3    3    0    0 -0.22983296279E+01 -0.18798123216E+02 -0.41757804275E+03  0.41800726494E+03  0.00000000000E+00 0.  1.
          3    1    3    3  501    0 -0.36188837602E+01 -0.13635985811E+02 -0.26524623048E+03  0.26562115731E+03  0.00000000000E+00 0.  1.
         -3    1    1    2    0  502  0.59172133881E+01  0.32434109027E+02 -0.31591579615E+03  0.31763150836E+03  0.00000000000E+00 0. -1.
<mgrwt>
<rscale>  1 0.30000000E+03</rscale>
<asrwt>0</asrwt>
<pdfrwt beam="1">  1       21 0.45815755E-02 0.30000000E+03</pdfrwt>
<pdfrwt beam="2">0</pdfrwt>
<totfact> 0.33422890E+04</totfact>
</mgrwt>
</event>
<event>
 6    1  0.6513574E-002  0.3000000E+03  0.7818608E-02  0.1093470E+00
         21   -1    0    0  501  502  0.00000000000E+00  0.00000000000E+00  0.10489110635E+01  0.10489110635E+01  0.00000000000E+00 0. -1.
         13   -1    0    0    0    0 -0.00000000000E+00 -0.00000000000E+00 -0.10000000000E+04  0.10000000000E+04  0.00000000000E+00 0.  1.
    9000005    2    1    2  501    0 -0.28517506728E+02  0.13074512338E+02 -0.44512539966E+03  0.44633539477E+03  0.97196776568E+01 0.  0.
         13    1    3    3    0    0 -0.91743724257E+01 -0.52210306083E+00 -0.12960711057E+03  0.12993246250E+03  0.00000000000E+00 0.  1.
          3    1    3    3  501    0 -0.19343134302E+02  0.13596615398E+02 -0.31551828910E+03  0.31640293227E+03  0.00000000000E+00 0.  1.
         -3    1    1    2    0  502  0.28517506728E+02 -0.13074512338E+02 -0.55382568927E+03  0.55471351630E+03  0.00000000000E+00 0. -1.
<mgrwt>
<rscale>  1 0.30000000E+03</rscale>
<asrwt>0</asrwt>
<pdfrwt beam="1">  1       21 0.38142301E-02 0.30000000E+03</pdfrwt>
<pdfrwt beam="2">0</pdfrwt>
<totfact> 0.45549112E+04</totfact>
</mgrwt>
</event>
<event>
 6    1  0.6513574E-002  0.3000000E+03  0.7818608E-02  0.1093470E+00
         21   -1    0    0  501  502  0.00000000000E+00  0.00000000000E+00  0.25959713744E+01  0.25959713744E+01  0.00000000000E+00 0. -1.
         13   -1    0    0    0    0 -0.00000000000E+00 -0.00000000000E+00 -0.10000000000E+04  0.10000000000E+04  0.00000000000E+00 0.  1.
    9000005    2    1    2  501    0  0.99840762438E+01  0.49856186336E+02 -0.52116708496E+03  0.52365239682E+03  0.33735968685E+01 0.  0.
         13    1    3    3    0    0  0.78531539308E+01  0.44556986461E+02 -0.46109356991E+03  0.46330797239E+03  0.00000000000E+00 0.  1.
          1    1    3    3  501    0  0.21309223130E+01  0.52991998751E+01 -0.60073515049E+02  0.60344424428E+02  0.00000000000E+00 0.  1.
         -3    1    1    2    0  502 -0.99840762438E+01 -0.49856186336E+02 -0.47623694367E+03  0.47894357456E+03  0.00000000000E+00 0. -1.
<mgrwt>
<rscale>  1 0.30000000E+03</rscale>
<asrwt>0</asrwt>
<pdfrwt beam="1">  1       21 0.94399158E-02 0.30000000E+03</pdfrwt>
<pdfrwt beam="2">0</pdfrwt>
<totfact> 0.95348452E+03</totfact>
</mgrwt>
</event>
<event>
 6    1  0.6513574E-002  0.3000000E+03  0.7818608E-02  0.1093470E+00
         21   -1    0    0  501  502  0.00000000000E+00  0.00000000000E+00  0.14965837288E+01  0.14965837288E+01  0.00000000000E+00 0. -1.
         13   -1    0    0    0    0 -0.00000000000E+00 -0.00000000000E+00 -0.10000000000E+04  0.10000000000E+04  0.00000000000E+00 0.  1.
    9000005    2    1    2  501    0 -0.33067643409E+02  0.43819075145E+00 -0.24501096407E+03  0.24727875275E+03  0.47694855206E+01 0.  0.
         13    1    3    3    0    0 -0.28985959544E+02  0.19242023576E+01 -0.21021660415E+03  0.21221429987E+03  0.00000000000E+00 0.  1.
          3    1    3    3  501    0 -0.40816838659E+01 -0.14860116062E+01 -0.34794359918E+02  0.35064452880E+02  0.00000000000E+00 0.  1.
         -1    1    1    2    0  502  0.33067643409E+02 -0.43819075145E+00 -0.75349245220E+03  0.75421783098E+03  0.00000000000E+00 0. -1.
<mgrwt>
<rscale>  1 0.30000000E+03</rscale>
<asrwt>0</asrwt>
<pdfrwt beam="1">  1       21 0.54421341E-02 0.30000000E+03</pdfrwt>
<pdfrwt beam="2">0</pdfrwt>
<totfact> 0.24921882E+04</totfact>
</mgrwt>
</event>
<event>
 6    1  0.6513574E-002  0.3000000E+03  0.7818608E-02  0.1093470E+00
         21   -1    0    0  501  502  0.00000000000E+00  0.00000000000E+00  0.17664901041E+01  0.17664901041E+01  0.00000000000E+00 0. -1.
         13   -1    0    0    0    0 -0.00000000000E+00 -0.00000000000E+00 -0.10000000000E+04  0.10000000000E+04  0.00000000000E+00 0.  1.
    9000005    2    1    2  501    0 -0.37473312448E+02  0.13385871147E+02 -0.34252779394E+03  0.34485445898E+03  0.39846666112E+01 0.  0.
         13    1    3    3    0    0 -0.32698464604E+02  0.10516776335E+02 -0.28706349077E+03  0.28911112034E+03  0.00000000000E+00 0.  1.
          1    1    3    3  501    0 -0.47748478436E+01  0.28690948117E+01 -0.55464303169E+02  0.55743338643E+02  0.00000000000E+00 0.  1.
         -3    1    1    2    0  502  0.37473312448E+02 -0.13385871147E+02 -0.65570571596E+03  0.65691203112E+03  0.00000000000E+00 0. -1.
<mgrwt>
<rscale>  1 0.30000000E+03</rscale>
<asrwt>0</asrwt>
<pdfrwt beam="1">  1       21 0.64236139E-02 0.30000000E+03</pdfrwt>
<pdfrwt beam="2">0</pdfrwt>
<totfact> 0.18729360E+04</totfact>
</mgrwt>
</event>
<event>
 6    1  0.6513574E-002  0.3000000E+03  0.7818608E-02  0.1093470E+00
         21   -1    0    0  501  502  0.00000000000E+00  0.00000000000E+00  0.20608970301E+01  0.20608970301E+01  0.00000000000E+00 0. -1.
         13   -1    0    0    0    0 -0.00000000000E+00 -0.00000000000E+00 -0.10000000000E+04  0.10000000000E+04  0.00000000000E+00 0.  1.
    9000005    2    1    2  501    0 -0.11625917683E+02  0.32964779692E+02 -0.81820330559E+03  0.81895765970E+03  0.36277314822E+01 0.  0.
         13    1    3    3    0    0 -0.60633337956E+01  0.20354888120E+02 -0.52884776615E+03  0.52927407385E+03  0.00000000000E+00 0.  1.
          1    1    3    3  501    0 -0.55625838872E+01  0.12609891572E+02 -0.28935553944E+03  0.28968358585E+03  0.00000000000E+00 0.  1.
         -3    1    1    2    0  502  0.11625917683E+02 -0.32964779692E+02 -0.17973579738E+03  0.18310323733E+03  0.00000000000E+00 0. -1.
<mgrwt>
<rscale>  1 0.30000000E+03</rscale>
<asrwt>0</asrwt>
<pdfrwt beam="1">  1       21 0.74941868E-02 0.30000000E+03</pdfrwt>
<pdfrwt beam="2">0</pdfrwt>
<totfact> 0.14323896E+04</totfact>
</mgrwt>
</event>
<event>
 6    1  0.6513574E-002  0.3000000E+03  0.7818608E-02  0.1093470E+00
         21   -1    0    0  501  502  0.00000000000E+00  0.00000000000E+00  0.48305975655E+01  0.48305975655E+01  0.00000000000E+00 0. -1.
         13   -1    0    0    0    0 -0.00000000000E+00 -0.00000000000E+00 -0.10000000000E+04  0.10000000000E+04  0.00000000000E+00 0.  1.
    9000005    2    1    2  501    0 -0.26777448174E+02 -0.46226544198E+02 -0.17665952701E+03  0.18457920848E+03  0.26401898980E+01 0.  0.
         13    1    3    3    0    0 -0.12780741126E+02 -0.22604424043E+02 -0.90328620414E+02  0.93987057598E+02  0.00000000000E+00 0.  1.
          1    1    3    3  501    0 -0.13996707047E+02 -0.23622120155E+02 -0.86330906593E+02  0.90592150885E+02  0.00000000000E+00 0.  1.
         -1    1    1    2    0  502  0.26777448174E+02  0.46226544198E+02 -0.81850987543E+03  0.82025138908E+03  0.00000000000E+00 0. -1.
<mgrwt>
<rscale>  1 0.30000000E+03</rscale>
<asrwt>0</asrwt>
<pdfrwt beam="1">  1       21 0.17565846E-01 0.30000000E+03</pdfrwt>
<pdfrwt beam="2">0</pdfrwt>
<totfact> 0.30672310E+03</totfact>
</mgrwt>
</event>
<event>
 6    1  0.6513574E-002  0.3000000E+03  0.7818608E-02  0.1093470E+00
         21   -1    0    0  501  502  0.00000000000E+00  0.00000000000E+00  0.76169666609E+01  0.76169666609E+01  0.00000000000E+00 0. -1.
         13   -1    0    0    0    0 -0.00000000000E+00 -0.00000000000E+00 -0.10000000000E+04  0.10000000000E+04  0.00000000000E+00 0.  1.
    9000005    2    1    2  501    0 -0.27851890635E+02 -0.82038326271E+02 -0.55526024219E+03  0.56199117148E+03  0.37583871938E+01 0.  0.
         13    1    3    3    0    0 -0.10415409677E+02 -0.34736856308E+02 -0.22381904240E+03  0.22673794056E+03  0.00000000000E+00 0.  1.
          3    1    3    3  501    0 -0.17436480957E+02 -0.47301469963E+02 -0.33144119979E+03  0.33525323093E+03  0.00000000000E+00 0.  1.
         -3    1    1    2    0  502  0.27851890635E+02  0.82038326271E+02 -0.43712279115E+03  0.44562579518E+03  0.00000000000E+00 0. -1.
<mgrwt>
<rscale>  1 0.30000000E+03</rscale>
<asrwt>0</asrwt>
<pdfrwt beam="1">  1       21 0.27698119E-01 0.30000000E+03</pdfrwt>
<pdfrwt beam="2">0</pdfrwt>
<totfact> 0.12744835E+03</totfact>
</mgrwt>
</event>
<event>
 6    1  0.6513574E-002  0.3000000E+03  0.7818608E-02  0.1093470E+00
         21   -1    0    0  501  502  0.00000000000E+00  0.00000000000E+00  0.11122167781E+01  0.11122167781E+01  0.00000000000E+00 0. -1.
         13   -1    0    0    0    0 -0.00000000000E+00 -0.00000000000E+00 -0.10000000000E+04  0.10000000000E+04  0.00000000000E+00 0.  1.
    9000005    2    1    2  501    0 -0.15058413384E+02 -0.29144407419E+02 -0.41832318578E+03  0.41962154264E+03  0.34349666044E+01 0.  0.
         13    1    3    3    0    0 -0.14248664372E+02 -0.25997877900E+02 -0.38531857024E+03  0.38645739049E+03  0.00000000000E+00 0.  1.
          1    1    3    3  501    0 -0.80974901155E+00 -0.31465295192E+01 -0.33004615531E+02  0.33164152150E+02  0.00000000000E+00 0.  1.
         -1    1    1    2    0  502  0.15058413384E+02  0.29144407419E+02 -0.58056459745E+03  0.58149067414E+03  0.00000000000E+00 0. -1.
<mgrwt>
<rscale>  1 0.30000000E+03</rscale>
<asrwt>0</asrwt>
<pdfrwt beam="1">  1       21 0.40444332E-02 0.30000000E+03</pdfrwt>
<pdfrwt beam="2">0</pdfrwt>
<totfact> 0.41272107E+04</totfact>
</mgrwt>
</event>
<event>
 6    1  0.6513574E-002  0.3000000E+03  0.7818608E-02  0.1093470E+00
         21   -1    0    0  501  502  0.00000000000E+00  0.00000000000E+00  0.18749258761E+01  0.18749258761E+01  0.00000000000E+00 0. -1.
         13   -1    0    0    0    0 -0.00000000000E+00 -0.00000000000E+00 -0.10000000000E+04  0.10000000000E+04  0.00000000000E+00 0.  1.
    9000005    2    1    2  501    0 -0.13839532128E+02  0.37185383506E+02 -0.69838381167E+03  0.69951899355E+03  0.35480328100E+01 0.  0.
         13    1    3    3    0    0 -0.51790159532E+01  0.10444962645E+02 -0.22402080533E+03  0.22432396366E+03  0.00000000000E+00 0.  1.
          1    1    3    3  501    0 -0.86605161748E+01  0.26740420861E+02 -0.47436300634E+03  0.47519502989E+03  0.00000000000E+00 0.  1.
         -1    1    1    2    0  502  0.13839532128E+02 -0.37185383506E+02 -0.29974126245E+03  0.30235593232E+03  0.00000000000E+00 0. -1.
<mgrwt>
<rscale>  1 0.30000000E+03</rscale>
<asrwt>0</asrwt>
<pdfrwt beam="1">  1       21 0.68179267E-02 0.30000000E+03</pdfrwt>
<pdfrwt beam="2">0</pdfrwt>
<totfact> 0.16891785E+04</totfact>
</mgrwt>
</event>
<event>
 6    1  0.6513574E-002  0.3000000E+03  0.7818608E-02  0.1093470E+00
         21   -1    0    0  501  502  0.00000000000E+00  0.00000000000E+00  0.18230061763E+01  0.18230061763E+01  0.00000000000E+00 0. -1.
         13   -1    0    0    0    0 -0.00000000000E+00 -0.00000000000E+00 -0.10000000000E+04  0.10000000000E+04  0.00000000000E+00 0.  1.
    9000005    2    1    2  501    0 -0.27354108621E+02  0.28888332459E+02 -0.32082972708E+03  0.32330837644E+03  0.37161112310E+01 0.  0.
         13    1    3    3    0    0 -0.22276630671E+02  0.24375558011E+02 -0.25503297997E+03  0.25716188865E+03  0.00000000000E+00 0.  1.
          1    1    3    3  501    0 -0.50774779494E+01  0.45127744483E+01 -0.65796747116E+02  0.66146487787E+02  0.00000000000E+00 0.  1.
         -3    1    1    2    0  502  0.27354108621E+02 -0.28888332459E+02 -0.67734726674E+03  0.67851462974E+03  0.00000000000E+00 0. -1.
<mgrwt>
<rscale>  1 0.30000000E+03</rscale>
<asrwt>0</asrwt>
<pdfrwt beam="1">  1       21 0.66291273E-02 0.30000000E+03</pdfrwt>
<pdfrwt beam="2">0</pdfrwt>
<totfact> 0.17735238E+04</totfact>
</mgrwt>
</event>
<event>
 6    1  0.6513574E-002  0.3000000E+03  0.7818608E-02  0.1093470E+00
         21   -1    0    0  501  502  0.00000000000E+00  0.00000000000E+00  0.10881147155E+01  0.10881147155E+01  0.00000000000E+00 0. -1.
         13   -1    0    0    0    0 -0.00000000000E+00 -0.00000000000E+00 -0.10000000000E+04  0.10000000000E+04  0.00000000000E+00 0.  1.
    9000005    2    1    2  501    0  0.22667817991E+02 -0.23820861351E+02 -0.50729972057E+03  0.50837746545E+03  0.36575230970E+01 0.  0.
         13    1    3    3    0    0  0.50028429682E+01 -0.72941488250E+01 -0.12382278922E+03  0.12413829456E+03  0.00000000000E+00 0.  1.
          1    1    3    3  501    0  0.17664975023E+02 -0.16526712526E+02 -0.38347693135E+03  0.38423917089E+03  0.00000000000E+00 0.  1.
         -1    1    1    2    0  502 -0.22667817991E+02  0.23820861351E+02 -0.49161216472E+03  0.49271064927E+03  0.00000000000E+00 0. -1.
<mgrwt>
<rscale>  1 0.30000000E+03</rscale>
<asrwt>0</asrwt>
<pdfrwt beam="1">  1       21 0.39567891E-02 0.30000000E+03</pdfrwt>
<pdfrwt beam="2">0</pdfrwt>
<totfact> 0.42823281E+04</totfact>
</mgrwt>
</event>
<event>
 6    1  0.6513574E-002  0.3000000E+03  0.7818608E-02  0.1093470E+00
         21   -1    0    0  501  502  0.00000000000E+00  0.00000000000E+00  0.11035698851E+01  0.11035698851E+01  0.00000000000E+00 0. -1.
         13   -1    0    0    0    0 -0.00000000000E+00 -0.00000000000E+00 -0.10000000000E+04  0.10000000000E+04  0.00000000000E+00 0.  1.
    9000005    2    1    2  501    0  0.23429584259E+01 -0.32334465495E+02 -0.39926669984E+03  0.40059809902E+03  0.37325891514E+01 0.  0.
         13    1    3    3    0    0  0.10254708423E+01 -0.26213959438E+02 -0.30671123881E+03  0.30783113434E+03  0.00000000000E+00 0.  1.
          1    1    3    3  501    0  0.13174875836E+01 -0.61205060577E+01 -0.92555461036E+02  0.92766964677E+02  0.00000000000E+00 0.  1.
         -1    1    1    2    0  502 -0.23429584259E+01  0.32334465495E+02 -0.59962973027E+03  0.60050547086E+03  0.00000000000E+00 0. -1.
<mgrwt>
<rscale>  1 0.30000000E+03</rscale>
<asrwt>0</asrwt>
<pdfrwt beam="1">  1       21 0.40129899E-02 0.30000000E+03</pdfrwt>
<pdfrwt beam="2">0</pdfrwt>
<totfact> 0.41818353E+04</totfact>
</mgrwt>
</event>
<event>
 6    1  0.6513574E-002  0.3000000E+03  0.7818608E-02  0.1093470E+00
         21   -1    0    0  501  502  0.00000000000E+00  0.00000000000E+00  0.24259305277E+01  0.24259305277E+01  0.00000000000E+00 0. -1.
         13   -1    0    0    0    0 -0.00000000000E+00 -0.00000000000E+00 -0.10000000000E+04  0.10000000000E+04  0.00000000000E+00 0.  1.
    9000005    2    1    2  501    0 -0.68825733059E+00 -0.44000831453E+02 -0.72310456167E+03  0.72445100795E+03  0.35367995015E+01 0.  0.
         13    1    3    3    0    0 -0.21141315000E+01 -0.26737883973E+02 -0.43399379883E+03  0.43482180421E+03  0.00000000000E+00 0.  1.
          1    1    3    3  501    0  0.14258741694E+01 -0.17262947480E+02 -0.28911076284E+03  0.28962920374E+03  0.00000000000E+00 0.  1.
         -3    1    1    2    0  502  0.68825733059E+00  0.44000831453E+02 -0.27446950780E+03  0.27797492257E+03  0.00000000000E+00 0. -1.
<mgrwt>
<rscale>  1 0.30000000E+03</rscale>
<asrwt>0</asrwt>
<pdfrwt beam="1">  1       21 0.88215842E-02 0.30000000E+03</pdfrwt>
<pdfrwt beam="2">0</pdfrwt>
<totfact> 0.10752511E+04</totfact>
</mgrwt>
</event>
<event>
 6    1  0.6513574E-002  0.3000000E+03  0.7818608E-02  0.1093470E+00
         21   -1    0    0  501  502  0.00000000000E+00  0.00000000000E+00  0.53874854679E+01  0.53874854679E+01  0.00000000000E+00 0. -1.
         13   -1    0    0    0    0 -0.00000000000E+00 -0.00000000000E+00 -0.10000000000E+04  0.10000000000E+04  0.00000000000E+00 0.  1.
    9000005    2    1    2  501    0  0.21920312115E+02 -0.61554855339E+02 -0.27086556003E+03  0.27869693616E+03  0.58592078722E+01 0.  0.
         13    1    3    3    0    0  0.15011269232E+02 -0.34191786166E+02 -0.14943928303E+03  0.15403413829E+03  0.00000000000E+00 0.  1.
          1    1    3    3  501    0  0.69090428826E+01 -0.27363069173E+02 -0.12142627700E+03  0.12466279788E+03  0.00000000000E+00 0.  1.
         -1    1    1    2    0  502 -0.21920312115E+02  0.61554855339E+02 -0.72374695450E+03  0.72669054930E+03  0.00000000000E+00 0. -1.
<mgrwt>
<rscale>  1 0.30000000E+03</rscale>
<asrwt>0</asrwt>
<pdfrwt beam="1">  1       21 0.19590898E-01 0.30000000E+03</pdfrwt>
<pdfrwt beam="2">0</pdfrwt>
<totfact> 0.24956222E+03</totfact>
</mgrwt>
</event>
<event>
 6    1  0.6513574E-002  0.3000000E+03  0.7818608E-02  0.1093470E+00
         21   -1    0    0  501  502  0.00000000000E+00  0.00000000000E+00  0.12181335705E+01  0.12181335705E+01  0.00000000000E+00 0. -1.
         13   -1    0    0    0    0 -0.00000000000E+00 -0.00000000000E+00 -0.10000000000E+04  0.10000000000E+04  0.00000000000E+00 0.  1.
    9000005    2    1    2  501    0  0.19489003336E+02 -0.28716535771E+02 -0.54077598557E+03  0.54189923827E+03  0.34142629198E+01 0.  0.
         13    1    3    3    0    0  0.11674971022E+02 -0.16131144770E+02 -0.28523717013E+03  0.28593139388E+03  0.00000000000E+00 0.  1.
          3    1    3    3  501    0  0.78140323146E+01 -0.12585391001E+02 -0.25553881543E+03  0.25596784439E+03  0.00000000000E+00 0.  1.
         -3    1    1    2    0  502 -0.19489003336E+02  0.28716535771E+02 -0.45800588086E+03  0.45931889530E+03  0.00000000000E+00 0. -1.
<mgrwt>
<rscale>  1 0.30000000E+03</rscale>
<asrwt>0</asrwt>
<pdfrwt beam="1">  1       21 0.44295860E-02 0.30000000E+03</pdfrwt>
<pdfrwt beam="2">0</pdfrwt>
<totfact> 0.35392233E+04</totfact>
</mgrwt>
</event>
<event>
 6    1  0.6513574E-002  0.3000000E+03  0.7818608E-02  0.1093470E+00
         21   -1    0    0  501  502  0.00000000000E+00  0.00000000000E+00  0.12101335694E+01  0.12101335694E+01  0.00000000000E+00 0. -1.
         13   -1    0    0    0    0 -0.00000000000E+00 -0.00000000000E+00 -0.10000000000E+04  0.10000000000E+04  0.00000000000E+00 0.  1.
    9000005    2    1    2  501    0  0.32638360784E+02  0.10859476624E+02 -0.56744959300E+03  0.56850050540E+03  0.32547222921E+01 0.  0.
         13    1    3    3    0    0  0.22197813541E+02  0.59351263695E+01 -0.36635473728E+03  0.36707460029E+03  0.00000000000E+00 0.  1.
          3    1    3    3  501    0  0.10440547243E+02  0.49243502543E+01 -0.20109485572E+03  0.20142590511E+03  0.00000000000E+00 0.  1.
         -3    1    1    2    0  502 -0.32638360784E+02 -0.10859476624E+02 -0.43134027344E+03  0.43270962817E+03  0.00000000000E+00 0. -1.
<mgrwt>
<rscale>  1 0.30000000E+03</rscale>
<asrwt>0</asrwt>
<pdfrwt beam="1">  1       21 0.44004950E-02 0.30000000E+03</pdfrwt>
<pdfrwt beam="2">0</pdfrwt>
<totfact> 0.35789584E+04</totfact>
</mgrwt>
</event>
<event>
 6    1  0.6513574E-002  0.3000000E+03  0.7818608E-02  0.1093470E+00
         21   -1    0    0  501  502  0.00000000000E+00  0.00000000000E+00  0.94617882528E+00  0.94617882528E+00  0.00000000000E+00 0. -1.
         13   -1    0    0    0    0 -0.00000000000E+00 -0.00000000000E+00 -0.10000000000E+04  0.10000000000E+04  0.00000000000E+00 0.  1.
    9000005    2    1    2  501    0  0.29783667953E+02 -0.46435677736E+01 -0.59379473910E+03  0.59456759523E+03  0.31310573131E+01 0.  0.
         13    1    3    3    0    0  0.10724773355E+02 -0.23393219661E+01 -0.19012864773E+03  0.19044525690E+03  0.00000000000E+00 0.  1.
          1    1    3    3  501    0  0.19058894598E+02 -0.23042458075E+01 -0.40366609137E+03  0.40412233833E+03  0.00000000000E+00 0.  1.
         -3    1    1    2    0  502 -0.29783667953E+02  0.46435677736E+01 -0.40525908208E+03  0.40637858359E+03  0.00000000000E+00 0. -1.
<mgrwt>
<rscale>  1 0.30000000E+03</rscale>
<asrwt>0</asrwt>
<pdfrwt beam="1">  1       21 0.34406575E-02 0.30000000E+03</pdfrwt>
<pdfrwt beam="2">0</pdfrwt>
<totfact> 0.54144269E+04</totfact>
</mgrwt>
</event>
<event>
 6    1  0.6513574E-002  0.3000000E+03  0.7818608E-02  0.1093470E+00
         21   -1    0    0  501  502  0.00000000000E+00  0.00000000000E+00  0.20083067249E+01  0.20083067249E+01  0.00000000000E+00 0. -1.
         13   -1    0    0    0    0 -0.00000000000E+00 -0.00000000000E+00 -0.10000000000E+04  0.10000000000E+04  0.00000000000E+00 0.  1.
    9000005    2    1    2  501    0  0.44092189883E+02 -0.54856758811E+01 -0.44300926139E+03  0.44525008851E+03  0.40276286222E+01 0.  0.
         13    1    3    3    0    0  0.24928830964E+02 -0.42334711590E+01 -0.23516098868E+03  0.23651650997E+03  0.00000000000E+00 0.  1.
          3    1    3    3  501    0  0.19163358919E+02 -0.12522047221E+01 -0.20784827271E+03  0.20873357854E+03  0.00000000000E+00 0.  1.
         -3    1    1    2    0  502 -0.44092189883E+02  0.54856758811E+01 -0.55498243189E+03  0.55675821822E+03  0.00000000000E+00 0. -1.
<mgrwt>
<rscale>  1 0.30000000E+03</rscale>
<asrwt>0</asrwt>
<pdfrwt beam="1">  1       21 0.73029489E-02 0.30000000E+03</pdfrwt>
<pdfrwt beam="2">0</pdfrwt>
<totfact> 0.14986355E+04</totfact>
</mgrwt>
</event>
<event>
 6    1  0.6513574E-002  0.3000000E+03  0.7818608E-02  0.1093470E+00
         21   -1    0    0  501  502  0.00000000000E+00  0.00000000000E+00  0.13220110550E+01  0.13220110550E+01  0.00000000000E+00 0. -1.
         13   -1    0    0    0    0 -0.00000000000E+00 -0.00000000000E+00 -0.10000000000E+04  0.10000000000E+04  0.00000000000E+00 0.  1.
    9000005    2    1    2  501    0 -0.33238013595E+02 -0.99934081277E+01 -0.63623807936E+03  0.63722405471E+03  0.71392241360E+01 0.  0.
         13    1    3    3    0    0 -0.17047264372E+02 -0.81192094449E+01 -0.37909242941E+03  0.37956238067E+03  0.00000000000E+00 0.  1.
          3    1    3    3  501    0 -0.16190749222E+02 -0.18741986828E+01 -0.25714564994E+03  0.25766167403E+03  0.00000000000E+00 0.  1.
         -1    1    1    2    0  502  0.33238013595E+02  0.99934081277E+01 -0.36243990959E+03  0.36409795635E+03  0.00000000000E+00 0. -1.
<mgrwt>
<rscale>  1 0.30000000E+03</rscale>
<asrwt>0</asrwt>
<pdfrwt beam="1">  1       21 0.48073231E-02 0.30000000E+03</pdfrwt>
<pdfrwt beam="2">0</pdfrwt>
<totfact> 0.30798542E+04</totfact>
</mgrwt>
</event>
<event>
 6    1  0.6513574E-002  0.3000000E+03  0.7818608E-02  0.1093470E+00
         21   -1    0    0  501  502  0.00000000000E+00  0.00000000000E+00  0.53296557725E+01  0.53296557725E+01  0.00000000000E+00 0. -1.
         13   -1    0    0    0    0 -0.00000000000E+00 -0.00000000000E+00 -0.10000000000E+04  0.10000000000E+04  0.00000000000E+00 0.  1.
    9000005    2    1    2  501    0  0.57641201623E+02  0.14457257672E+02 -0.20638891721E+03  0.21481138995E+03  0.40034584625E+01 0.  0.
         13    1    3    3    0    0  0.46707709243E+01  0.19813370067E+01 -0.20666100252E+02  0.21279790812E+02  0.00000000000E+00 0.  1.
          3    1    3    3  501    0  0.52970430699E+02  0.12475920666E+02 -0.18572281696E+03  0.19353159914E+03  0.00000000000E+00 0.  1.
         -3    1    1    2    0  502 -0.57641201623E+02 -0.14457257672E+02 -0.78828142701E+03  0.79051826582E+03  0.00000000000E+00 0. -1.
<mgrwt>
<rscale>  1 0.30000000E+03</rscale>
<asrwt>0</asrwt>
<pdfrwt beam="1">  1       21 0.19380607E-01 0.30000000E+03</pdfrwt>
<pdfrwt beam="2">0</pdfrwt>
<totfact> 0.25473727E+03</totfact>
</mgrwt>
</event>
<event>
 6    1  0.6513574E-002  0.3000000E+03  0.7818608E-02  0.1093470E+00
         21   -1    0    0  501  502  0.00000000000E+00  0.00000000000E+00  0.16625322681E+01  0.16625322681E+01  0.00000000000E+00 0. -1.
         13   -1    0    0    0    0 -0.00000000000E+00 -0.00000000000E+00 -0.10000000000E+04  0.10000000000E+04  0.00000000000E+00 0.  1.
    9000005    2    1    2  501    0 -0.32439227372E+02 -0.22207594628E+02 -0.37293732447E+03  0.37502801365E+03  0.42757815366E+01 0.  0.
         13    1    3    3    0    0 -0.54904287311E+01 -0.20360622707E+01 -0.60335499470E+02  0.60618997463E+02  0.00000000000E+00 0.  1.
          1    1    3    3  501    0 -0.26948798641E+02 -0.20171532357E+02 -0.31260182500E+03  0.31440901618E+03  0.00000000000E+00 0.  1.
         -1    1    1    2    0  502  0.32439227372E+02  0.22207594628E+02 -0.62540014327E+03  0.62663451862E+03  0.00000000000E+00 0. -1.
<mgrwt>
<rscale>  1 0.30000000E+03</rscale>
<asrwt>0</asrwt>
<pdfrwt beam="1">  1       21 0.60455846E-02 0.30000000E+03</pdfrwt>
<pdfrwt beam="2">0</pdfrwt>
<totfact> 0.20798356E+04</totfact>
</mgrwt>
</event>
<event>
 6    1  0.6513574E-002  0.3000000E+03  0.7818608E-02  0.1093470E+00
         21   -1    0    0  501  502  0.00000000000E+00  0.00000000000E+00  0.23869246397E+01  0.23869246397E+01  0.00000000000E+00 0. -1.
         13   -1    0    0    0    0 -0.00000000000E+00 -0.00000000000E+00 -0.10000000000E+04  0.10000000000E+04  0.00000000000E+00 0.  1.
    9000005    2    1    2  501    0 -0.37018373414E+02  0.17546675677E+02 -0.76938298874E+03  0.77050933143E+03  0.74967091924E+01 0.  0.
         13    1    3    3    0    0 -0.34256744318E+02  0.16761605641E+02 -0.66972621796E+03  0.67081121263E+03  0.00000000000E+00 0.  1.
          1    1    3    3  501    0 -0.27616290961E+01  0.78507003559E+00 -0.99656770778E+02  0.99698118799E+02  0.00000000000E+00 0.  1.
         -1    1    1    2    0  502  0.37018373414E+02 -0.17546675677E+02 -0.22823008662E+03  0.23187759321E+03  0.00000000000E+00 0. -1.
<mgrwt>
<rscale>  1 0.30000000E+03</rscale>
<asrwt>0</asrwt>
<pdfrwt beam="1">  1       21 0.86797443E-02 0.30000000E+03</pdfrwt>
<pdfrwt beam="2">0</pdfrwt>
<totfact> 0.11065001E+04</totfact>
</mgrwt>
</event>
<event>
 6    1  0.6513574E-002  0.3000000E+03  0.7818608E-02  0.1093470E+00
         21   -1    0    0  501  502  0.00000000000E+00  0.00000000000E+00  0.13373518781E+01  0.13373518781E+01  0.00000000000E+00 0. -1.
         13   -1    0    0    0    0 -0.00000000000E+00 -0.00000000000E+00 -0.10000000000E+04  0.10000000000E+04  0.00000000000E+00 0.  1.
    9000005    2    1    2  501    0 -0.22493656652E+02 -0.25505642672E+02 -0.31762394313E+03  0.31945010307E+03  0.26261570379E+01 0.  0.
         13    1    3    3    0    0 -0.33683222255E+01 -0.47119666108E+01 -0.47025208767E+02  0.47380570739E+02  0.00000000000E+00 0.  1.
          3    1    3    3  501    0 -0.19125334426E+02 -0.20793676061E+02 -0.27059873437E+03  0.27206953233E+03  0.00000000000E+00 0.  1.
         -3    1    1    2    0  502  0.22493656652E+02  0.25505642672E+02 -0.68103870499E+03  0.68188724881E+03  0.00000000000E+00 0. -1.
<mgrwt>
<rscale>  1 0.30000000E+03</rscale>
<asrwt>0</asrwt>
<pdfrwt beam="1">  1       21 0.48631080E-02 0.30000000E+03</pdfrwt>
<pdfrwt beam="2">0</pdfrwt>
<totfact> 0.30199623E+04</totfact>
</mgrwt>
</event>
<event>
 6    1  0.6513574E-002  0.3000000E+03  0.7818608E-02  0.1093470E+00
         21   -1    0    0  501  502  0.00000000000E+00  0.00000000000E+00  0.18018022634E+01  0.18018022634E+01  0.00000000000E+00 0. -1.
         13   -1    0    0    0    0 -0.00000000000E+00 -0.00000000000E+00 -0.10000000000E+04  0.10000000000E+04  0.00000000000E+00 0.  1.
    9000005    2    1    2  501    0 -0.35398001076E+02 -0.12361858945E+02 -0.26719235247E+03  0.26983501350E+03  0.36533896628E+01 0.  0.
         13    1    3    3    0    0 -0.18782835606E+02 -0.83959913127E+01 -0.14204111727E+03  0.14352340081E+03  0.00000000000E+00 0.  1.
          1    1    3    3  501    0 -0.16615165470E+02 -0.39658676327E+01 -0.12515123520E+03  0.12631161269E+03  0.00000000000E+00 0.  1.
         -1    1    1    2    0  502  0.35398001076E+02  0.12361858945E+02 -0.73100584527E+03  0.73196678876E+03  0.00000000000E+00 0. -1.
<mgrwt>
<rscale>  1 0.30000000E+03</rscale>
<asrwt>0</asrwt>
<pdfrwt beam="1">  1       21 0.65520220E-02 0.30000000E+03</pdfrwt>
<pdfrwt beam="2">0</pdfrwt>
<totfact> 0.18098461E+04</totfact>
</mgrwt>
</event>
<event>
 6    1  0.6513574E-002  0.3000000E+03  0.7818608E-02  0.1093470E+00
         21   -1    0    0  501  502  0.00000000000E+00  0.00000000000E+00  0.11966998141E+01  0.11966998141E+01  0.00000000000E+00 0. -1.
         13   -1    0    0    0    0 -0.00000000000E+00 -0.00000000000E+00 -0.10000000000E+04  0.10000000000E+04  0.00000000000E+00 0.  1.
    9000005    2    1    2  501    0  0.34270015705E+02 -0.34285975692E+01 -0.47243437124E+03  0.47370220826E+03  0.36548222993E+01 0.  0.
         13    1    3    3    0    0  0.75369292750E+01 -0.16775398646E+01 -0.89990889536E+02  0.90321534766E+02  0.00000000000E+00 0.  1.
          1    1    3    3  501    0  0.26733086430E+02 -0.17510577046E+01 -0.38244348170E+03  0.38338067349E+03  0.00000000000E+00 0.  1.
         -1    1    1    2    0  502 -0.34270015705E+02  0.34285975692E+01 -0.52636892895E+03  0.52749449155E+03  0.00000000000E+00 0. -1.
<mgrwt>
<rscale>  1 0.30000000E+03</rscale>
<asrwt>0</asrwt>
<pdfrwt beam="1">  1       21 0.43516449E-02 0.30000000E+03</pdfrwt>
<pdfrwt beam="2">0</pdfrwt>
<totfact> 0.36472528E+04</totfact>
</mgrwt>
</event>
<event>
 6    1  0.6513574E-002  0.3000000E+03  0.7818608E-02  0.1093470E+00
         21   -1    0    0  501  502  0.00000000000E+00  0.00000000000E+00  0.49573967306E+01  0.49573967306E+01  0.00000000000E+00 0. -1.
         13   -1    0    0    0    0 -0.00000000000E+00 -0.00000000000E+00 -0.10000000000E+04  0.10000000000E+04  0.00000000000E+00 0.  1.
    9000005    2    1    2  501    0 -0.19313916632E+02 -0.67574939111E+02 -0.47554180196E+03  0.48072416397E+03  0.40393860736E+01 0.  0.
         13    1    3    3    0    0 -0.87408124218E+01 -0.24645077937E+02 -0.16947363437E+03  0.17147913697E+03  0.00000000000E+00 0.  1.
          3    1    3    3  501    0 -0.10573104210E+02 -0.42929861175E+02 -0.30606816759E+03  0.30924502700E+03  0.00000000000E+00 0.  1.
         -1    1    1    2    0  502  0.19313916632E+02  0.67574939111E+02 -0.51950080131E+03  0.52423323276E+03  0.00000000000E+00 0. -1.
<mgrwt>
<rscale>  1 0.30000000E+03</rscale>
<asrwt>0</asrwt>
<pdfrwt beam="1">  1       21 0.18026935E-01 0.30000000E+03</pdfrwt>
<pdfrwt beam="2">0</pdfrwt>
<totfact> 0.29213128E+03</totfact>
</mgrwt>
</event>
<event>
 6    1  0.6513574E-002  0.3000000E+03  0.7818608E-02  0.1093470E+00
         21   -1    0    0  501  502  0.00000000000E+00  0.00000000000E+00  0.13777126979E+01  0.13777126979E+01  0.00000000000E+00 0. -1.
         13   -1    0    0    0    0 -0.00000000000E+00 -0.00000000000E+00 -0.10000000000E+04  0.10000000000E+04  0.00000000000E+00 0.  1.
    9000005    2    1    2  501    0 -0.22124067874E+02  0.26398593247E+02 -0.31584582652E+03  0.31773302757E+03  0.30545988899E+01 0.  0.
         13    1    3    3    0    0 -0.26661189884E+01  0.19884672925E+01 -0.26375698977E+02  0.26584576152E+02  0.00000000000E+00 0.  1.
          1    1    3    3  501    0 -0.19457948886E+02  0.24410125954E+02 -0.28947012754E+03  0.29114845142E+03  0.00000000000E+00 0.  1.
         -1    1    1    2    0  502  0.22124067874E+02 -0.26398593247E+02 -0.68277646079E+03  0.68364468513E+03  0.00000000000E+00 0. -1.
<mgrwt>
<rscale>  1 0.30000000E+03</rscale>
<asrwt>0</asrwt>
<pdfrwt beam="1">  1       21 0.50098749E-02 0.30000000E+03</pdfrwt>
<pdfrwt beam="2">0</pdfrwt>
<totfact> 0.28707929E+04</totfact>
</mgrwt>
</event>
<event>
 6    1  0.6513574E-002  0.3000000E+03  0.7818608E-02  0.1093470E+00
         21   -1    0    0  501  502  0.00000000000E+00  0.00000000000E+00  0.16774115550E+01  0.16774115550E+01  0.00000000000E+00 0. -1.
         13   -1    0    0    0    0 -0.00000000000E+00 -0.00000000000E+00 -0.10000000000E+04  0.10000000000E+04  0.00000000000E+00 0.  1.
    9000005    2    1    2  501    0 -0.21919304206E+02  0.28410664988E+02 -0.73985792683E+03  0.74073373356E+03  0.30150221033E+01 0.  0.
         13    1    3    3    0    0 -0.16045638799E+02  0.20130247170E+02 -0.50291621849E+03  0.50357463419E+03  0.00000000000E+00 0.  1.
          1    1    3    3  501    0 -0.58736654068E+01  0.82804178177E+01 -0.23694170835E+03  0.23715909938E+03  0.00000000000E+00 0.  1.
         -3    1    1    2    0  502  0.21919304206E+02 -0.28410664988E+02 -0.25846466161E+03  0.26094367799E+03  0.00000000000E+00 0. -1.
<mgrwt>
<rscale>  1 0.30000000E+03</rscale>
<asrwt>0</asrwt>
<pdfrwt beam="1">  1       21 0.60996912E-02 0.30000000E+03</pdfrwt>
<pdfrwt beam="2">0</pdfrwt>
<totfact> 0.20481047E+04</totfact>
</mgrwt>
</event>
<event>
 6    1  0.6513574E-002  0.3000000E+03  0.7818608E-02  0.1093470E+00
         21   -1    0    0  501  502  0.00000000000E+00  0.00000000000E+00  0.19479910741E+01  0.19479910741E+01  0.00000000000E+00 0. -1.
         13   -1    0    0    0    0 -0.00000000000E+00 -0.00000000000E+00 -0.10000000000E+04  0.10000000000E+04  0.00000000000E+00 0.  1.
    9000005    2    1    2  501    0 -0.32073986860E+02  0.30187860290E+02 -0.49332656636E+03  0.49530430967E+03  0.39000706109E+01 0.  0.
         13    1    3    3    0    0 -0.74155684844E+01  0.81730553480E+01 -0.10793956240E+03  0.10850225168E+03  0.00000000000E+00 0.  1.
          1    1    3    3  501    0 -0.24658418376E+02  0.22014804942E+02 -0.38538700397E+03  0.38680205798E+03  0.00000000000E+00 0.  1.
         -1    1    1    2    0  502  0.32073986860E+02 -0.30187860290E+02 -0.50472544256E+03  0.50664368141E+03  0.00000000000E+00 0. -1.
<mgrwt>
<rscale>  1 0.30000000E+03</rscale>
<asrwt>0</asrwt>
<pdfrwt beam="1">  1       21 0.70836188E-02 0.30000000E+03</pdfrwt>
<pdfrwt beam="2">0</pdfrwt>
<totfact> 0.15805097E+04</totfact>
</mgrwt>
</event>
<event>
 6    1  0.6513574E-002  0.3000000E+03  0.7818608E-02  0.1093470E+00
         21   -1    0    0  501  502  0.00000000000E+00  0.00000000000E+00  0.39252557691E+01  0.39252557691E+01  0.00000000000E+00 0. -1.
         13   -1    0    0    0    0 -0.00000000000E+00 -0.00000000000E+00 -0.10000000000E+04  0.10000000000E+04  0.00000000000E+00 0.  1.
    9000005    2    1    2  501    0  0.26802443241E+02 -0.53398732463E+02 -0.64813756790E+03  0.65089540679E+03  0.35676425870E+01 0.  0.
         13    1    3    3    0    0  0.19664349865E+02 -0.37005425150E+02 -0.43974347792E+03  0.44173568400E+03  0.00000000000E+00 0.  1.
          3    1    3    3  501    0  0.71380933754E+01 -0.16393307313E+02 -0.20839408998E+03  0.20915972279E+03  0.00000000000E+00 0.  1.
         -3    1    1    2    0  502 -0.26802443241E+02  0.53398732463E+02 -0.34793717633E+03  0.35302984897E+03  0.00000000000E+00 0. -1.
<mgrwt>
<rscale>  1 0.30000000E+03</rscale>
<asrwt>0</asrwt>
<pdfrwt beam="1">  1       21 0.14273687E-01 0.30000000E+03</pdfrwt>
<pdfrwt beam="2">0</pdfrwt>
<totfact> 0.45130935E+03</totfact>
</mgrwt>
</event>
<event>
 6    1  0.6513574E-002  0.3000000E+03  0.7818608E-02  0.1093470E+00
         21   -1    0    0  501  502  0.00000000000E+00  0.00000000000E+00  0.13036021179E+01  0.13036021179E+01  0.00000000000E+00 0. -1.
         13   -1    0    0    0    0 -0.00000000000E+00 -0.00000000000E+00 -0.10000000000E+04  0.10000000000E+04  0.00000000000E+00 0.  1.
    9000005    2    1    2  501    0 -0.89620261711E+01  0.31025767692E+02 -0.72125953442E+03  0.72199350673E+03  0.40486546885E+01 0.  0.
         13    1    3    3    0    0 -0.40675829246E+00  0.81112392025E-01 -0.13108673335E+02  0.13115233438E+02  0.00000000000E+00 0.  1.
          3    1    3    3  501    0 -0.85552678786E+01  0.30944655300E+02 -0.70815086108E+03  0.70887827330E+03  0.00000000000E+00 0.  1.
         -1    1    1    2    0  502  0.89620261711E+01 -0.31025767692E+02 -0.27743686346E+03  0.27931009538E+03  0.00000000000E+00 0. -1.
<mgrwt>
<rscale>  1 0.30000000E+03</rscale>
<asrwt>0</asrwt>
<pdfrwt beam="1">  1       21 0.47403813E-02 0.30000000E+03</pdfrwt>
<pdfrwt beam="2">0</pdfrwt>
<totfact> 0.31542109E+04</totfact>
</mgrwt>
</event>
<event>
 6    1  0.6513574E-002  0.3000000E+03  0.7818608E-02  0.1093470E+00
         21   -1    0    0  501  502  0.00000000000E+00  0.00000000000E+00  0.20684277048E+01  0.20684277048E+01  0.00000000000E+00 0. -1.
         13   -1    0    0    0    0 -0.00000000000E+00 -0.00000000000E+00 -0.10000000000E+04  0.10000000000E+04  0.00000000000E+00 0.  1.
    9000005    2    1    2  501    0 -0.34895293905E+02 -0.20197521696E+02 -0.73009021008E+03  0.73120939290E+03  0.31368772121E+01 0.  0.
         13    1    3    3    0    0 -0.99575973357E+01 -0.53990641901E+01 -0.23085470924E+03  0.23113243047E+03  0.00000000000E+00 0.  1.
          3    1    3    3  501    0 -0.24937696569E+02 -0.14798457506E+02 -0.49923550084E+03  0.50007696243E+03  0.00000000000E+00 0.  1.
         -3    1    1    2    0  502  0.34895293905E+02  0.20197521696E+02 -0.26784136222E+03  0.27085903480E+03  0.00000000000E+00 0. -1.
<mgrwt>
<rscale>  1 0.30000000E+03</rscale>
<asrwt>0</asrwt>
<pdfrwt beam="1">  1       21 0.75215712E-02 0.30000000E+03</pdfrwt>
<pdfrwt beam="2">0</pdfrwt>
<totfact> 0.14232709E+04</totfact>
</mgrwt>
</event>
<event>
 6    1  0.6513574E-002  0.3000000E+03  0.7818608E-02  0.1093470E+00
         21   -1    0    0  501  502  0.00000000000E+00  0.00000000000E+00  0.94618165001E+00  0.94618165001E+00  0.00000000000E+00 0. -1.
         13   -1    0    0    0    0 -0.00000000000E+00 -0.00000000000E+00 -0.10000000000E+04  0.10000000000E+04  0.00000000000E+00 0.  1.
    9000005    2    1    2  501    0  0.29724504379E+02  0.47024426188E+01 -0.59390731024E+03  0.59468351764E+03  0.41150796099E+01 0.  0.
         13    1    3    3    0    0  0.26541764579E+02  0.52611609687E+01 -0.51549065846E+03  0.51620031388E+03  0.00000000000E+00 0.  1.
          1    1    3    3  501    0  0.31827398000E+01 -0.55871834990E+00 -0.78416651772E+02  0.78483203770E+02  0.00000000000E+00 0.  1.
         -3    1    1    2    0  502 -0.29724504379E+02 -0.47024426188E+01 -0.40514650811E+03  0.40626266401E+03  0.00000000000E+00 0. -1.
<mgrwt>
<rscale>  1 0.30000000E+03</rscale>
<asrwt>0</asrwt>
<pdfrwt beam="1">  1       21 0.34406678E-02 0.30000000E+03</pdfrwt>
<pdfrwt beam="2">0</pdfrwt>
<totfact> 0.54143999E+04</totfact>
</mgrwt>
</event>
<event>
 6    1  0.6513574E-002  0.3000000E+03  0.7818608E-02  0.1093470E+00
         21   -1    0    0  501  502  0.00000000000E+00  0.00000000000E+00  0.22115318233E+01  0.22115318233E+01  0.00000000000E+00 0. -1.
         13   -1    0    0    0    0 -0.00000000000E+00 -0.00000000000E+00 -0.10000000000E+04  0.10000000000E+04  0.00000000000E+00 0.  1.
    9000005    2    1    2  501    0  0.33112242536E+02 -0.32537704220E+02 -0.42540659693E+03  0.42795015463E+03  0.39292921104E+01 0.  0.
         13    1    3    3    0    0  0.62218734703E+01 -0.41008689012E+01 -0.68105640191E+02  0.68512094268E+02  0.00000000000E+00 0.  1.
          3    1    3    3  501    0  0.26890369065E+02 -0.28436835319E+02 -0.35730095674E+03  0.35943806036E+03  0.00000000000E+00 0.  1.
         -1    1    1    2    0  502 -0.33112242536E+02  0.32537704220E+02 -0.57238187125E+03  0.57426137719E+03  0.00000000000E+00 0. -1.
<mgrwt>
<rscale>  1 0.30000000E+03</rscale>
<asrwt>0</asrwt>
<pdfrwt beam="1">  1       21 0.80419509E-02 0.30000000E+03</pdfrwt>
<pdfrwt beam="2">0</pdfrwt>
<totfact> 0.12657041E+04</totfact>
</mgrwt>
</event>
<event>
 6    1  0.6513574E-002  0.3000000E+03  0.7818608E-02  0.1093470E+00
         21   -1    0    0  501  502  0.00000000000E+00  0.00000000000E+00  0.11579978544E+01  0.11579978544E+01  0.00000000000E+00 0. -1.
         13   -1    0    0    0    0 -0.00000000000E+00 -0.00000000000E+00 -0.10000000000E+04  0.10000000000E+04  0.00000000000E+00 0.  1.
    9000005    2    1    2  501    0 -0.20863298268E+02 -0.24467663734E+02 -0.65939393779E+03  0.66019035690E+03  0.41229075299E+01 0.  0.
         13    1    3    3    0    0 -0.10175117097E+02 -0.15000491388E+02 -0.35909942744E+03  0.35955659712E+03  0.00000000000E+00 0.  1.
          1    1    3    3  501    0 -0.10688181171E+02 -0.94671723453E+01 -0.30029451035E+03  0.30063375977E+03  0.00000000000E+00 0.  1.
         -1    1    1    2    0  502  0.20863298268E+02  0.24467663734E+02 -0.33944806436E+03  0.34096764096E+03  0.00000000000E+00 0. -1.
<mgrwt>
<rscale>  1 0.30000000E+03</rscale>
<asrwt>0</asrwt>
<pdfrwt beam="1">  1       21 0.42109102E-02 0.30000000E+03</pdfrwt>
<pdfrwt beam="2">0</pdfrwt>
<totfact> 0.38557162E+04</totfact>
</mgrwt>
</event>
<event>
 6    1  0.6513574E-002  0.3000000E+03  0.7818608E-02  0.1093470E+00
         21   -1    0    0  501  502  0.00000000000E+00  0.00000000000E+00  0.10701189701E+01  0.10701189701E+01  0.00000000000E+00 0. -1.
         13   -1    0    0    0    0 -0.00000000000E+00 -0.00000000000E+00 -0.10000000000E+04  0.10000000000E+04  0.00000000000E+00 0.  1.
    9000005    2    1    2  501    0  0.30639367642E+02  0.10962861087E+02 -0.52813811962E+03  0.52915504422E+03  0.40289261967E+01 0.  0.
         13    1    3    3    0    0  0.28674786355E+02  0.10432912926E+02 -0.50761655438E+03  0.50853284587E+03  0.00000000000E+00 0.  1.
          3    1    3    3  501    0  0.19645812863E+01  0.52994816030E+00 -0.20521565241E+02  0.20622198346E+02  0.00000000000E+00 0.  1.
         -1    1    1    2    0  502 -0.30639367642E+02 -0.10962861087E+02 -0.47079176141E+03  0.47191507475E+03  0.00000000000E+00 0. -1.
<mgrwt>
<rscale>  1 0.30000000E+03</rscale>
<asrwt>0</asrwt>
<pdfrwt beam="1">  1       21 0.38913499E-02 0.30000000E+03</pdfrwt>
<pdfrwt beam="2">0</pdfrwt>
<totfact> 0.44041839E+04</totfact>
</mgrwt>
</event>
<event>
 6    1  0.6513574E-002  0.3000000E+03  0.7818608E-02  0.1093470E+00
         21   -1    0    0  501  502  0.00000000000E+00  0.00000000000E+00  0.10501412053E+01  0.10501412053E+01  0.00000000000E+00 0. -1.
         13   -1    0    0    0    0 -0.00000000000E+00 -0.00000000000E+00 -0.10000000000E+04  0.10000000000E+04  0.00000000000E+00 0.  1.
    9000005    2    1    2  501    0  0.49544157973E+01  0.29815207424E+02 -0.32455652503E+03  0.32597987712E+03  0.35283872023E+01 0.  0.
         13    1    3    3    0    0  0.48742680718E+01  0.21028228119E+02 -0.22142259534E+03  0.22247226927E+03  0.00000000000E+00 0.  1.
          1    1    3    3  501    0  0.80147725494E-01  0.87869793051E+01 -0.10313392970E+03  0.10350760785E+03  0.00000000000E+00 0.  1.
         -1    1    1    2    0  502 -0.49544157973E+01 -0.29815207424E+02 -0.67439333376E+03  0.67507026408E+03  0.00000000000E+00 0. -1.
<mgrwt>
<rscale>  1 0.30000000E+03</rscale>
<asrwt>0</asrwt>
<pdfrwt beam="1">  1       21 0.38187033E-02 0.30000000E+03</pdfrwt>
<pdfrwt beam="2">0</pdfrwt>
<totfact> 0.45459486E+04</totfact>
</mgrwt>
</event>
<event>
 6    1  0.6513574E-002  0.3000000E+03  0.7818608E-02  0.1093470E+00
         21   -1    0    0  501  502  0.00000000000E+00  0.00000000000E+00  0.27184732359E+01  0.27184732359E+01  0.00000000000E+00 0. -1.
         13   -1    0    0    0    0 -0.00000000000E+00 -0.00000000000E+00 -0.10000000000E+04  0.10000000000E+04  0.00000000000E+00 0.  1.
    9000005    2    1    2  501    0 -0.47209030067E+02 -0.21990917613E+02 -0.50979681836E+03  0.51245973144E+03  0.31444176878E+01 0.  0.
         13    1    3    3    0    0 -0.43512694726E+02 -0.21001761162E+02 -0.46741617883E+03  0.46990670649E+03  0.00000000000E+00 0.  1.
          1    1    3    3  501    0 -0.36963353407E+01 -0.98915645086E+00 -0.42380639537E+02  0.42553024957E+02  0.00000000000E+00 0.  1.
         -1    1    1    2    0  502  0.47209030067E+02  0.21990917613E+02 -0.48748470840E+03  0.49025874179E+03  0.00000000000E+00 0. -1.
<mgrwt>
<rscale>  1 0.30000000E+03</rscale>
<asrwt>0</asrwt>
<pdfrwt beam="1">  1       21 0.98853781E-02 0.30000000E+03</pdfrwt>
<pdfrwt beam="2">0</pdfrwt>
<totfact> 0.87821947E+03</totfact>
</mgrwt>
</event>
<event>
 6    1  0.6513574E-002  0.3000000E+03  0.7818608E-02  0.1093470E+00
         21   -1    0    0  501  502  0.00000000000E+00  0.00000000000E+00  0.34054268529E+01  0.34054268529E+01  0.00000000000E+00 0. -1.
         13   -1    0    0    0    0 -0.00000000000E+00 -0.00000000000E+00 -0.10000000000E+04  0.10000000000E+04  0.00000000000E+00 0.  1.
    9000005    2    1    2  501    0 -0.42385691957E+02  0.16452166568E+02 -0.18494712962E+03  0.19048550875E+03  0.34738481430E+01 0.  0.
         13    1    3    3    0    0 -0.39671004516E+02  0.16245747795E+02 -0.17302060297E+03  0.17825218645E+03  0.00000000000E+00 0.  1.
          3    1    3    3  501    0 -0.27146874408E+01  0.20641877262E+00 -0.11926526646E+02  0.12233322298E+02  0.00000000000E+00 0.  1.
         -1    1    1    2    0  502  0.42385691957E+02 -0.16452166568E+02 -0.81164744353E+03  0.81291991810E+03  0.00000000000E+00 0. -1.
<mgrwt>
<rscale>  1 0.30000000E+03</rscale>
<asrwt>0</asrwt>
<pdfrwt beam="1">  1       21 0.12383396E-01 0.30000000E+03</pdfrwt>
<pdfrwt beam="2">0</pdfrwt>
<totfact> 0.58527245E+03</totfact>
</mgrwt>
</event>
<event>
 6    1  0.6513574E-002  0.3000000E+03  0.7818608E-02  0.1093470E+00
         21   -1    0    0  501  502  0.00000000000E+00  0.00000000000E+00  0.20514834375E+01  0.20514834375E+01  0.00000000000E+00 0. -1.
         13   -1    0    0    0    0 -0.00000000000E+00 -0.00000000000E+00 -0.10000000000E+04  0.10000000000E+04  0.00000000000E+00 0.  1.
    9000005    2    1    2  501    0 -0.85070223581E+01  0.42642780728E+02 -0.36519292712E+03  0.36780357280E+03  0.47768157087E+01 0.  0.
         13    1    3    3    0    0 -0.74781290108E+01  0.40747512638E+02 -0.35284557094E+03  0.35526930508E+03  0.00000000000E+00 0.  1.
          3    1    3    3  501    0 -0.10288933473E+01  0.18952680899E+01 -0.12347356183E+02  0.12534267724E+02  0.00000000000E+00 0.  1.
         -1    1    1    2    0  502  0.85070223581E+01 -0.42642780728E+02 -0.63275558944E+03  0.63424791063E+03  0.00000000000E+00 0. -1.
<mgrwt>
<rscale>  1 0.30000000E+03</rscale>
<asrwt>0</asrwt>
<pdfrwt beam="1">  1       21 0.74599555E-02 0.30000000E+03</pdfrwt>
<pdfrwt beam="2">0</pdfrwt>
<totfact> 0.14439160E+04</totfact>
</mgrwt>
</event>
<event>
 6    1  0.6513574E-002  0.3000000E+03  0.7818608E-02  0.1093470E+00
         21   -1    0    0  501  502  0.00000000000E+00  0.00000000000E+00  0.20158214802E+01  0.20158214802E+01  0.00000000000E+00 0. -1.
         13   -1    0    0    0    0 -0.00000000000E+00 -0.00000000000E+00 -0.10000000000E+04  0.10000000000E+04  0.00000000000E+00 0.  1.
    9000005    2    1    2  501    0  0.28133904368E+02 -0.31478875335E+02 -0.66720056533E+03  0.66854882923E+03  0.43019201728E+01 0.  0.
         13    1    3    3    0    0  0.19122695602E+02 -0.20230957475E+02 -0.46839931771E+03  0.46922584111E+03  0.00000000000E+00 0.  1.
          1    1    3    3  501    0  0.90112087659E+01 -0.11247917859E+02 -0.19880124762E+03  0.19932298812E+03  0.00000000000E+00 0.  1.
         -3    1    1    2    0  502 -0.28133904368E+02  0.31478875335E+02 -0.33078361319E+03  0.33346699225E+03  0.00000000000E+00 0. -1.
<mgrwt>
<rscale>  1 0.30000000E+03</rscale>
<asrwt>0</asrwt>
<pdfrwt beam="1">  1       21 0.73302754E-02 0.30000000E+03</pdfrwt>
<pdfrwt beam="2">0</pdfrwt>
<totfact> 0.14888882E+04</totfact>
</mgrwt>
</event>
<event>
 6    1  0.6513574E-002  0.3000000E+03  0.7818608E-02  0.1093470E+00
         21   -1    0    0  501  502  0.00000000000E+00  0.00000000000E+00  0.25147445851E+01  0.25147445851E+01  0.00000000000E+00 0. -1.
         13   -1    0    0    0    0 -0.00000000000E+00 -0.00000000000E+00 -0.10000000000E+04  0.10000000000E+04  0.00000000000E+00 0.  1.
    9000005    2    1    2  501    0 -0.11994590853E+02  0.43945937225E+02 -0.29103463379E+03  0.29459695529E+03  0.33305242383E+01 0.  0.
         13    1    3    3    0    0 -0.54632336699E+01  0.14068849721E+02 -0.96221794904E+02  0.97398220051E+02  0.00000000000E+00 0.  1.
          1    1    3    3  501    0 -0.65313571829E+01  0.29877087505E+02 -0.19481283889E+03  0.19719873524E+03  0.00000000000E+00 0.  1.
         -3    1    1    2    0  502  0.11994590853E+02 -0.43945937225E+02 -0.70645062162E+03  0.70791778929E+03  0.00000000000E+00 0. -1.
<mgrwt>
<rscale>  1 0.30000000E+03</rscale>
<asrwt>0</asrwt>
<pdfrwt beam="1">  1       21 0.91445450E-02 0.30000000E+03</pdfrwt>
<pdfrwt beam="2">0</pdfrwt>
<totfact> 0.10089024E+04</totfact>
</mgrwt>
</event>
<event>
 6    1  0.6513574E-002  0.3000000E+03  0.7818608E-02  0.1093470E+00
         21   -1    0    0  501  502  0.00000000000E+00  0.00000000000E+00  0.11183357720E+01  0.11183357720E+01  0.00000000000E+00 0. -1.
         13   -1    0    0    0    0 -0.00000000000E+00 -0.00000000000E+00 -0.10000000000E+04  0.10000000000E+04  0.00000000000E+00 0.  1.
    9000005    2    1    2  501    0  0.16667652533E+02 -0.27913855253E+02 -0.39103676056E+03  0.39240459281E+03  0.38239237458E+01 0.  0.
         13    1    3    3    0    0  0.49599960104E+01 -0.75480087339E+01 -0.12974262213E+03  0.13005661072E+03  0.00000000000E+00 0.  1.
          3    1    3    3  501    0  0.11707656523E+02 -0.20365846519E+02 -0.26129413843E+03  0.26234798208E+03  0.00000000000E+00 0.  1.
         -1    1    1    2    0  502 -0.16667652533E+02  0.27913855253E+02 -0.60784490367E+03  0.60871374297E+03  0.00000000000E+00 0. -1.
<mgrwt>
<rscale>  1 0.30000000E+03</rscale>
<asrwt>0</asrwt>
<pdfrwt beam="1">  1       21 0.40666841E-02 0.30000000E+03</pdfrwt>
<pdfrwt beam="2">0</pdfrwt>
<totfact> 0.40892258E+04</totfact>
</mgrwt>
</event>
<event>
 6    1  0.6513574E-002  0.3000000E+03  0.7818608E-02  0.1093470E+00
         21   -1    0    0  501  502  0.00000000000E+00  0.00000000000E+00  0.41057131563E+02  0.41057131563E+02  0.00000000000E+00 0. -1.
         13   -1    0    0    0    0 -0.00000000000E+00 -0.00000000000E+00 -0.10000000000E+04  0.10000000000E+04  0.00000000000E+00 0.  1.
    9000005    2    1    2  501    0  0.20014823309E+03 -0.78357393253E+01 -0.55789071495E+03  0.59276755569E+03  0.32574882621E+01 0.  0.
         13    1    3    3    0    0  0.78483594880E+02 -0.14842695896E+01 -0.21831575700E+03  0.23199924025E+03  0.00000000000E+00 0.  1.
          1    1    3    3  501    0  0.12166463821E+03 -0.63514697356E+01 -0.33957495795E+03  0.36076831544E+03  0.00000000000E+00 0.  1.
         -1    1    1    2    0  502 -0.20014823309E+03  0.78357393253E+01 -0.40105215349E+03  0.44828957587E+03  0.00000000000E+00 0. -1.
<mgrwt>
<rscale>  1 0.30000000E+03</rscale>
<asrwt>0</asrwt>
<pdfrwt beam="1">  1       21 0.14929898E+00 0.30000000E+03</pdfrwt>
<pdfrwt beam="2">0</pdfrwt>
<totfact> 0.24268015E+01</totfact>
</mgrwt>
</event>
<event>
 6    1  0.6513574E-002  0.3000000E+03  0.7818608E-02  0.1093470E+00
         21   -1    0    0  501  502  0.00000000000E+00  0.00000000000E+00  0.13609311768E+01  0.13609311768E+01  0.00000000000E+00 0. -1.
         13   -1    0    0    0    0 -0.00000000000E+00 -0.00000000000E+00 -0.10000000000E+04  0.10000000000E+04  0.00000000000E+00 0.  1.
    9000005    2    1    2  501    0  0.31228243436E+02  0.76299224815E+01 -0.25680528377E+03  0.25883094285E+03  0.33293098013E+01 0.  0.
         13    1    3    3    0    0  0.18225222614E+02  0.41196140030E+01 -0.16192063036E+03  0.16299515482E+03  0.00000000000E+00 0.  1.
          1    1    3    3  501    0  0.13003020822E+02  0.35103084784E+01 -0.94884653406E+02  0.95835788034E+02  0.00000000000E+00 0.  1.
         -3    1    1    2    0  502 -0.31228243436E+02 -0.76299224815E+01 -0.74183378506E+03  0.74252998832E+03  0.00000000000E+00 0. -1.
<mgrwt>
<rscale>  1 0.30000000E+03</rscale>
<asrwt>0</asrwt>
<pdfrwt beam="1">  1       21 0.49488511E-02 0.30000000E+03</pdfrwt>
<pdfrwt beam="2">0</pdfrwt>
<totfact> 0.29313889E+04</totfact>
</mgrwt>
</event>
<event>
 6    1  0.6513574E-002  0.3000000E+03  0.7818608E-02  0.1093470E+00
         21   -1    0    0  501  502  0.00000000000E+00  0.00000000000E+00  0.12074447287E+01  0.12074447287E+01  0.00000000000E+00 0. -1.
         13   -1    0    0    0    0 -0.00000000000E+00 -0.00000000000E+00 -0.10000000000E+04  0.10000000000E+04  0.00000000000E+00 0.  1.
    9000005    2    1    2  501    0 -0.21298491584E+02 -0.25284046596E+02 -0.34845122942E+03  0.35002640318E+03  0.27046046275E+01 0.  0.
         13    1    3    3    0    0 -0.17657464694E+02 -0.21483061237E+02 -0.30214064959E+03  0.30341766613E+03  0.00000000000E+00 0.  1.
          1    1    3    3  501    0 -0.36410268899E+01 -0.38009853588E+01 -0.46310579824E+02  0.46608737058E+02  0.00000000000E+00 0.  1.
         -3    1    1    2    0  502  0.21298491584E+02  0.25284046596E+02 -0.65034132585E+03  0.65118104155E+03  0.00000000000E+00 0. -1.
<mgrwt>
<rscale>  1 0.30000000E+03</rscale>
<asrwt>0</asrwt>
<pdfrwt beam="1">  1       21 0.43907174E-02 0.30000000E+03</pdfrwt>
<pdfrwt beam="2">0</pdfrwt>
<totfact> 0.35924686E+04</totfact>
</mgrwt>
</event>
<event>
 6    1  0.6513574E-002  0.3000000E+03  0.7818608E-02  0.1093470E+00
         21   -1    0    0  501  502  0.00000000000E+00  0.00000000000E+00  0.99125002632E+00  0.99125002632E+00  0.00000000000E+00 0. -1.
         13   -1    0    0    0    0 -0.00000000000E+00 -0.00000000000E+00 -0.10000000000E+04  0.10000000000E+04  0.00000000000E+00 0.  1.
    9000005    2    1    2  501    0  0.17002251421E+02  0.25634553309E+02 -0.60027727455E+03  0.60107501333E+03  0.34868949539E+01 0.  0.
         13    1    3    3    0    0  0.13208557094E+02  0.20146983787E+02 -0.44008685858E+03  0.44074574307E+03  0.00000000000E+00 0.  1.
          1    1    3    3  501    0  0.37936943273E+01  0.54875695211E+01 -0.16019041596E+03  0.16032927026E+03  0.00000000000E+00 0.  1.
         -1    1    1    2    0  502 -0.17002251421E+02 -0.25634553309E+02 -0.39873147543E+03  0.39991623670E+03  0.00000000000E+00 0. -1.
<mgrwt>
<rscale>  1 0.30000000E+03</rscale>
<asrwt>0</asrwt>
<pdfrwt beam="1">  1       21 0.36045532E-02 0.30000000E+03</pdfrwt>
<pdfrwt beam="2">0</pdfrwt>
<totfact> 0.50084038E+04</totfact>
</mgrwt>
</event>
<event>
 6    1  0.6513574E-002  0.3000000E+03  0.7818608E-02  0.1093470E+00
         21   -1    0    0  501  502  0.00000000000E+00  0.00000000000E+00  0.18101180076E+01  0.18101180076E+01  0.00000000000E+00 0. -1.
         13   -1    0    0    0    0 -0.00000000000E+00 -0.00000000000E+00 -0.10000000000E+04  0.10000000000E+04  0.00000000000E+00 0.  1.
    9000005    2    1    2  501    0  0.52665668959E+01 -0.42080961374E+02 -0.53265905626E+03  0.53435157038E+03  0.27178156026E+01 0.  0.
         13    1    3    3    0    0  0.51096402230E+00 -0.11491386209E+02 -0.13467293322E+03  0.13516327897E+03  0.00000000000E+00 0.  1.
          3    1    3    3  501    0  0.47556028736E+01 -0.30589575165E+02 -0.39798612304E+03  0.39918829141E+03  0.00000000000E+00 0.  1.
         -3    1    1    2    0  502 -0.52665668959E+01  0.42080961374E+02 -0.46553082574E+03  0.46745854762E+03  0.00000000000E+00 0. -1.
<mgrwt>
<rscale>  1 0.30000000E+03</rscale>
<asrwt>0</asrwt>
<pdfrwt beam="1">  1       21 0.65822612E-02 0.30000000E+03</pdfrwt>
<pdfrwt beam="2">0</pdfrwt>
<totfact> 0.17954658E+04</totfact>
</mgrwt>
</event>
<event>
 6    1  0.6513574E-002  0.3000000E+03  0.7818608E-02  0.1093470E+00
         21   -1    0    0  501  502  0.00000000000E+00  0.00000000000E+00  0.15392525746E+01  0.15392525746E+01  0.00000000000E+00 0. -1.
         13   -1    0    0    0    0 -0.00000000000E+00 -0.00000000000E+00 -0.10000000000E+04  0.10000000000E+04  0.00000000000E+00 0.  1.
    9000005    2    1    2  501    0 -0.16738097796E+02 -0.33103515154E+02 -0.33809843805E+03  0.34013590644E+03  0.24237171979E+01 0.  0.
         13    1    3    3    0    0 -0.11647724356E+02 -0.20945615540E+02 -0.21189249868E+03  0.21324356799E+03  0.00000000000E+00 0.  1.
          1    1    3    3  501    0 -0.50903734401E+01 -0.12157899615E+02 -0.12620593937E+03  0.12689233845E+03  0.00000000000E+00 0.  1.
         -1    1    1    2    0  502  0.16738097796E+02  0.33103515154E+02 -0.66036230938E+03  0.66140334613E+03  0.00000000000E+00 0. -1.
<mgrwt>
<rscale>  1 0.30000000E+03</rscale>
<asrwt>0</asrwt>
<pdfrwt beam="1">  1       21 0.55972939E-02 0.30000000E+03</pdfrwt>
<pdfrwt beam="2">0</pdfrwt>
<totfact> 0.23748762E+04</totfact>
</mgrwt>
</event>
<event>
 6    1  0.6513574E-002  0.3000000E+03  0.7818608E-02  0.1093470E+00
         21   -1    0    0  501  502  0.00000000000E+00  0.00000000000E+00  0.11093556595E+01  0.11093556595E+01  0.00000000000E+00 0. -1.
         13   -1    0    0    0    0 -0.00000000000E+00 -0.00000000000E+00 -0.10000000000E+04  0.10000000000E+04  0.00000000000E+00 0.  1.
    9000005    2    1    2  501    0 -0.29670857175E+02  0.14274035822E+02 -0.54071959699E+03  0.54175674981E+03  0.62117259273E+01 0.  0.
         13    1    3    3    0    0 -0.21628732979E+02  0.80520911325E+01 -0.34267076305E+03  0.34344707032E+03  0.00000000000E+00 0.  1.
          3    1    3    3  501    0 -0.80421241952E+01  0.62219446891E+01 -0.19804883394E+03  0.19830967949E+03  0.00000000000E+00 0.  1.
         -3    1    1    2    0  502  0.29670857175E+02 -0.14274035822E+02 -0.45817104735E+03  0.45935260585E+03  0.00000000000E+00 0. -1.
<mgrwt>
<rscale>  1 0.30000000E+03</rscale>
<asrwt>0</asrwt>
<pdfrwt beam="1">  1       21 0.40340291E-02 0.30000000E+03</pdfrwt>
<pdfrwt beam="2">0</pdfrwt>
<totfact> 0.41451610E+04</totfact>
</mgrwt>
</event>
<event>
 6    1  0.6513574E-002  0.3000000E+03  0.7818608E-02  0.1093470E+00
         21   -1    0    0  501  502  0.00000000000E+00  0.00000000000E+00  0.31594155094E+01  0.31594155094E+01  0.00000000000E+00 0. -1.
         13   -1    0    0    0    0 -0.00000000000E+00 -0.00000000000E+00 -0.10000000000E+04  0.10000000000E+04  0.00000000000E+00 0.  1.
    9000005    2    1    2  501    0  0.31338549007E+02  0.63570872603E+01 -0.86949446890E+02  0.92706561432E+02  0.34326383330E+01 0.  0.
         13    1    3    3    0    0  0.20198152871E+01  0.28814575739E+00 -0.84063791879E+01  0.86504273202E+01  0.00000000000E+00 0.  1.
          3    1    3    3  501    0  0.29318733720E+02  0.60689415029E+01 -0.78543067702E+02  0.84056134112E+02  0.00000000000E+00 0.  1.
         -3    1    1    2    0  502 -0.31338549007E+02 -0.63570872603E+01 -0.90989113760E+03  0.91045285408E+03  0.00000000000E+00 0. -1.
<mgrwt>
<rscale>  1 0.30000000E+03</rscale>
<asrwt>0</asrwt>
<pdfrwt beam="1">  1       21 0.11488808E-01 0.30000000E+03</pdfrwt>
<pdfrwt beam="2">0</pdfrwt>
<totfact> 0.67053378E+03</totfact>
</mgrwt>
</event>
<event>
 6    1  0.6513574E-002  0.3000000E+03  0.7818608E-02  0.1093470E+00
         21   -1    0    0  501  502  0.00000000000E+00  0.00000000000E+00  0.16169673205E+01  0.16169673205E+01  0.00000000000E+00 0. -1.
         13   -1    0    0    0    0 -0.00000000000E+00 -0.00000000000E+00 -0.10000000000E+04  0.10000000000E+04  0.00000000000E+00 0.  1.
    9000005    2    1    2  501    0  0.32666458770E+02  0.14639650912E+02 -0.28405232676E+03  0.28638988846E+03  0.72129723690E+01 0.  0.
         13    1    3    3    0    0  0.74879101544E+01  0.15765108175E+01 -0.43140016565E+02  0.43813413631E+02  0.00000000000E+00 0.  1.
          3    1    3    3  501    0  0.25178548616E+02  0.13063140094E+02 -0.24091231019E+03  0.24257647483E+03  0.00000000000E+00 0.  1.
         -1    1    1    2    0  502 -0.32666458770E+02 -0.14639650912E+02 -0.71433070592E+03  0.71522707886E+03  0.00000000000E+00 0. -1.
<mgrwt>
<rscale>  1 0.30000000E+03</rscale>
<asrwt>0</asrwt>
<pdfrwt beam="1">  1       21 0.58798936E-02 0.30000000E+03</pdfrwt>
<pdfrwt beam="2">0</pdfrwt>
<totfact> 0.21819181E+04</totfact>
</mgrwt>
</event>
<event>
 6    1  0.6513574E-002  0.3000000E+03  0.7818608E-02  0.1093470E+00
         21   -1    0    0  501  502  0.00000000000E+00  0.00000000000E+00  0.16839960466E+01  0.16839960466E+01  0.00000000000E+00 0. -1.
         13   -1    0    0    0    0 -0.00000000000E+00 -0.00000000000E+00 -0.10000000000E+04  0.10000000000E+04  0.00000000000E+00 0.  1.
    9000005    2    1    2  501    0 -0.19958604026E+02  0.35007977787E+02 -0.58970082906E+03  0.59108654655E+03  0.35118840952E+01 0.  0.
         13    1    3    3    0    0 -0.15818180327E+01  0.43421301720E+01 -0.80145820576E+02  0.80278943681E+02  0.00000000000E+00 0.  1.
          3    1    3    3  501    0 -0.18376785993E+02  0.30665847615E+02 -0.50955500849E+03  0.51080760287E+03  0.00000000000E+00 0.  1.
         -3    1    1    2    0  502  0.19958604026E+02 -0.35007977787E+02 -0.40861517489E+03  0.41059744950E+03  0.00000000000E+00 0. -1.
<mgrwt>
<rscale>  1 0.30000000E+03</rscale>
<asrwt>0</asrwt>
<pdfrwt beam="1">  1       21 0.61236349E-02 0.30000000E+03</pdfrwt>
<pdfrwt beam="2">0</pdfrwt>
<totfact> 0.20343025E+04</totfact>
</mgrwt>
</event>
<event>
 6    1  0.6513574E-002  0.3000000E+03  0.7818608E-02  0.1093470E+00
         21   -1    0    0  501  502  0.00000000000E+00  0.00000000000E+00  0.19107080211E+01  0.19107080211E+01  0.00000000000E+00 0. -1.
         13   -1    0    0    0    0 -0.00000000000E+00 -0.00000000000E+00 -0.10000000000E+04  0.10000000000E+04  0.00000000000E+00 0.  1.
    9000005    2    1    2  501    0 -0.38915075572E+02 -0.49107457049E+01 -0.71953427482E+03  0.72060767548E+03  0.27112350906E+01 0.  0.
         13    1    3    3    0    0 -0.20691451828E+02 -0.31831592099E+01 -0.40628309308E+03  0.40682209921E+03  0.00000000000E+00 0.  1.
          3    1    3    3  501    0 -0.18223623744E+02 -0.17275864950E+01 -0.31325118174E+03  0.31378557627E+03  0.00000000000E+00 0.  1.
         -3    1    1    2    0  502  0.38915075572E+02  0.49107457049E+01 -0.27855501716E+03  0.28130303254E+03  0.00000000000E+00 0. -1.
<mgrwt>
<rscale>  1 0.30000000E+03</rscale>
<asrwt>0</asrwt>
<pdfrwt beam="1">  1       21 0.69480438E-02 0.30000000E+03</pdfrwt>
<pdfrwt beam="2">0</pdfrwt>
<totfact> 0.16345787E+04</totfact>
</mgrwt>
</event>
<event>
 6    1  0.6513574E-002  0.3000000E+03  0.7818608E-02  0.1093470E+00
         21   -1    0    0  501  502  0.00000000000E+00  0.00000000000E+00  0.10109899938E+01  0.10109899938E+01  0.00000000000E+00 0. -1.
         13   -1    0    0    0    0 -0.00000000000E+00 -0.00000000000E+00 -0.10000000000E+04  0.10000000000E+04  0.00000000000E+00 0.  1.
    9000005    2    1    2  501    0 -0.11376328816E+02  0.29614690463E+02 -0.49133854875E+03  0.49237021148E+03  0.28991242339E+01 0.  0.
         13    1    3    3    0    0 -0.79045958040E+01  0.22802417409E+02 -0.38716882151E+03  0.38792026142E+03  0.00000000000E+00 0.  1.
          1    1    3    3  501    0 -0.34717330124E+01  0.68122730536E+01 -0.10416972724E+03  0.10444995006E+03  0.00000000000E+00 0.  1.
         -1    1    1    2    0  502  0.11376328816E+02 -0.29614690463E+02 -0.50765046126E+03  0.50864077851E+03  0.00000000000E+00 0. -1.
<mgrwt>
<rscale>  1 0.30000000E+03</rscale>
<asrwt>0</asrwt>
<pdfrwt beam="1">  1       21 0.36763350E-02 0.30000000E+03</pdfrwt>
<pdfrwt beam="2">0</pdfrwt>
<totfact> 0.48454426E+04</totfact>
</mgrwt>
</event>
<event>
 6    1  0.6513574E-002  0.3000000E+03  0.7818608E-02  0.1093470E+00
         21   -1    0    0  501  502  0.00000000000E+00  0.00000000000E+00  0.13439881569E+01  0.13439881569E+01  0.00000000000E+00 0. -1.
         13   -1    0    0    0    0 -0.00000000000E+00 -0.00000000000E+00 -0.10000000000E+04  0.10000000000E+04  0.00000000000E+00 0.  1.
    9000005    2    1    2  501    0 -0.28743385496E+02  0.10829585647E+02 -0.77156645528E+03  0.77218655573E+03  0.37175000604E+01 0.  0.
         13    1    3    3    0    0 -0.40413277039E+01  0.67478587226E+00 -0.80510164908E+02  0.80614355539E+02  0.00000000000E+00 0.  1.
          1    1    3    3  501    0 -0.24702057792E+02  0.10154799775E+02 -0.69105629037E+03  0.69157220019E+03  0.00000000000E+00 0.  1.
         -1    1    1    2    0  502  0.28743385496E+02 -0.10829585647E+02 -0.22708955657E+03  0.22915743243E+03  0.00000000000E+00 0. -1.
<mgrwt>
<rscale>  1 0.30000000E+03</rscale>
<asrwt>0</asrwt>
<pdfrwt beam="1">  1       21 0.48872400E-02 0.30000000E+03</pdfrwt>
<pdfrwt beam="2">0</pdfrwt>
<totfact> 0.29946157E+04</totfact>
</mgrwt>
</event>
<event>
 6    1  0.6513574E-002  0.3000000E+03  0.7818608E-02  0.1093470E+00
         21   -1    0    0  501  502  0.00000000000E+00  0.00000000000E+00  0.24702911376E+01  0.24702911376E+01  0.00000000000E+00 0. -1.
         13   -1    0    0    0    0 -0.00000000000E+00 -0.00000000000E+00 -0.10000000000E+04  0.10000000000E+04  0.00000000000E+00 0.  1.
    9000005    2    1    2  501    0 -0.40332681238E+02  0.27043640933E+02 -0.39545830368E+03  0.39844375147E+03  0.34741101334E+01 0.  0.
         13    1    3    3    0    0 -0.27823182342E+02  0.20434447788E+02 -0.28496163987E+03  0.28704500053E+03  0.00000000000E+00 0.  1.
          1    1    3    3  501    0 -0.12509498896E+02  0.66091931452E+01 -0.11049666381E+03  0.11139875094E+03  0.00000000000E+00 0.  1.
         -3    1    1    2    0  502  0.40332681238E+02 -0.27043640933E+02 -0.60207140518E+03  0.60402653967E+03  0.00000000000E+00 0. -1.
<mgrwt>
<rscale>  1 0.30000000E+03</rscale>
<asrwt>0</asrwt>
<pdfrwt beam="1">  1       21 0.89828958E-02 0.30000000E+03</pdfrwt>
<pdfrwt beam="2">0</pdfrwt>
<totfact> 0.10413122E+04</totfact>
</mgrwt>
</event>
<event>
 6    1  0.6513574E-002  0.3000000E+03  0.7818608E-02  0.1093470E+00
         21   -1    0    0  501  502  0.00000000000E+00  0.00000000000E+00  0.11831664325E+01  0.11831664325E+01  0.00000000000E+00 0. -1.
         13   -1    0    0    0    0 -0.00000000000E+00 -0.00000000000E+00 -0.10000000000E+04  0.10000000000E+04  0.00000000000E+00 0.  1.
    9000005    2    1    2  501    0 -0.76077355130E+01  0.33319873280E+02 -0.54526499425E+03  0.54634543433E+03  0.33657190480E+01 0.  0.
         13    1    3    3    0    0 -0.47228219673E+01  0.21442831428E+02 -0.32400872306E+03  0.32475183246E+03  0.00000000000E+00 0.  1.
          1    1    3    3  501    0 -0.28849135457E+01  0.11877041852E+02 -0.22125627119E+03  0.22159360187E+03  0.00000000000E+00 0.  1.
         -3    1    1    2    0  502  0.76077355130E+01 -0.33319873280E+02 -0.45355183932E+03  0.45483773210E+03  0.00000000000E+00 0. -1.
<mgrwt>
<rscale>  1 0.30000000E+03</rscale>
<asrwt>0</asrwt>
<pdfrwt beam="1">  1       21 0.43024325E-02 0.30000000E+03</pdfrwt>
<pdfrwt beam="2">0</pdfrwt>
<totfact> 0.37181165E+04</totfact>
</mgrwt>
</event>
<event>
 6    1  0.6513574E-002  0.3000000E+03  0.7818608E-02  0.1093470E+00
         21   -1    0    0  501  502  0.00000000000E+00  0.00000000000E+00  0.10848443239E+01  0.10848443239E+01  0.00000000000E+00 0. -1.
         13   -1    0    0    0    0 -0.00000000000E+00 -0.00000000000E+00 -0.10000000000E+04  0.10000000000E+04  0.00000000000E+00 0.  1.
    9000005    2    1    2  501    0  0.23074665163E+02 -0.23399975694E+02 -0.49877982912E+03  0.49987097390E+03  0.31102374408E+01 0.  0.
         13    1    3    3    0    0  0.67426113689E+01 -0.54211895407E+01 -0.14573299972E+03  0.14598958631E+03  0.00000000000E+00 0.  1.
          1    1    3    3  501    0  0.16332053794E+02 -0.17978786153E+02 -0.35304682940E+03  0.35388138759E+03  0.00000000000E+00 0.  1.
         -3    1    1    2    0  502 -0.23074665163E+02  0.23399975694E+02 -0.50013532655E+03  0.50121387042E+03  0.00000000000E+00 0. -1.
<mgrwt>
<rscale>  1 0.30000000E+03</rscale>
<asrwt>0</asrwt>
<pdfrwt beam="1">  1       21 0.39448968E-02 0.30000000E+03</pdfrwt>
<pdfrwt beam="2">0</pdfrwt>
<totfact> 0.43040774E+04</totfact>
</mgrwt>
</event>
<event>
 6    1  0.6513574E-002  0.3000000E+03  0.7818608E-02  0.1093470E+00
         21   -1    0    0  501  502  0.00000000000E+00  0.00000000000E+00  0.65991697705E+01  0.65991697705E+01  0.00000000000E+00 0. -1.
         13   -1    0    0    0    0 -0.00000000000E+00 -0.00000000000E+00 -0.10000000000E+04  0.10000000000E+04  0.00000000000E+00 0.  1.
    9000005    2    1    2  501    0 -0.90720033093E+01 -0.79191588836E+02 -0.59216320044E+03  0.59752063874E+03  0.44775869964E+01 0.  0.
         13    1    3    3    0    0 -0.33485059179E+01 -0.38754331570E+02 -0.27423437355E+03  0.27697942585E+03  0.00000000000E+00 0.  1.
          1    1    3    3  501    0 -0.57234973914E+01 -0.40437257266E+02 -0.31792882689E+03  0.32054121290E+03  0.00000000000E+00 0.  1.
         -3    1    1    2    0  502  0.90720033093E+01  0.79191588836E+02 -0.40123762979E+03  0.40907853103E+03  0.00000000000E+00 0. -1.
<mgrwt>
<rscale>  1 0.30000000E+03</rscale>
<asrwt>0</asrwt>
<pdfrwt beam="1">  1       21 0.23997032E-01 0.30000000E+03</pdfrwt>
<pdfrwt beam="2">0</pdfrwt>
<totfact> 0.16893141E+03</totfact>
</mgrwt>
</event>
<event>
 6    1  0.6513574E-002  0.3000000E+03  0.7818608E-02  0.1093470E+00
         21   -1    0    0  501  502  0.00000000000E+00  0.00000000000E+00  0.10535752663E+01  0.10535752663E+01  0.00000000000E+00 0. -1.
         13   -1    0    0    0    0 -0.00000000000E+00 -0.00000000000E+00 -0.10000000000E+04  0.10000000000E+04  0.00000000000E+00 0.  1.
    9000005    2    1    2  501    0 -0.11048296442E+02  0.28756166930E+02 -0.34549977991E+03  0.34688119766E+03  0.27359426130E+01 0.  0.
         13    1    3    3    0    0 -0.43295797341E+01  0.15082412024E+02 -0.17550044437E+03  0.17620054026E+03  0.00000000000E+00 0.  1.
          3    1    3    3  501    0 -0.67187167077E+01  0.13673754905E+02 -0.16999933554E+03  0.17068065740E+03  0.00000000000E+00 0.  1.
         -1    1    1    2    0  502  0.11048296442E+02 -0.28756166930E+02 -0.65344664482E+03  0.65417237761E+03  0.00000000000E+00 0. -1.
<mgrwt>
<rscale>  1 0.30000000E+03</rscale>
<asrwt>0</asrwt>
<pdfrwt beam="1">  1       21 0.38311909E-02 0.30000000E+03</pdfrwt>
<pdfrwt beam="2">0</pdfrwt>
<totfact> 0.45210746E+04</totfact>
</mgrwt>
</event>
<event>
 6    1  0.6513574E-002  0.3000000E+03  0.7818608E-02  0.1093470E+00
         21   -1    0    0  501  502  0.00000000000E+00  0.00000000000E+00  0.17582643973E+01  0.17582643973E+01  0.00000000000E+00 0. -1.
         13   -1    0    0    0    0 -0.00000000000E+00 -0.00000000000E+00 -0.10000000000E+04  0.10000000000E+04  0.00000000000E+00 0.  1.
    9000005    2    1    2  501    0  0.26339835671E+02  0.23718080030E+02 -0.23350840221E+03  0.23620395184E+03  0.31302877884E+01 0.  0.
         13    1    3    3    0    0  0.10864541380E+02  0.11871283918E+02 -0.10468804802E+03  0.10591767105E+03  0.00000000000E+00 0.  1.
          1    1    3    3  501    0  0.15475294290E+02  0.11846796112E+02 -0.12882035418E+03  0.13028628079E+03  0.00000000000E+00 0.  1.
         -1    1    1    2    0  502 -0.26339835671E+02 -0.23718080030E+02 -0.76473333340E+03  0.76555431256E+03  0.00000000000E+00 0. -1.
<mgrwt>
<rscale>  1 0.30000000E+03</rscale>
<asrwt>0</asrwt>
<pdfrwt beam="1">  1       21 0.63937022E-02 0.30000000E+03</pdfrwt>
<pdfrwt beam="2">0</pdfrwt>
<totfact> 0.18881205E+04</totfact>
</mgrwt>
</event>
<event>
 6    1  0.6513574E-002  0.3000000E+03  0.7818608E-02  0.1093470E+00
         21   -1    0    0  501  502  0.00000000000E+00  0.00000000000E+00  0.21928033371E+01  0.21928033371E+01  0.00000000000E+00 0. -1.
         13   -1    0    0    0    0 -0.00000000000E+00 -0.00000000000E+00 -0.10000000000E+04  0.10000000000E+04  0.00000000000E+00 0.  1.
    9000005    2    1    2  501    0  0.18401443655E+02  0.35993298568E+02 -0.24756372233E+03  0.25086105142E+03  0.30561138343E+01 0.  0.
         13    1    3    3    0    0  0.11985199147E+02  0.26301928353E+02 -0.17366085514E+03  0.17604979137E+03  0.00000000000E+00 0.  1.
          3    1    3    3  501    0  0.64162445076E+01  0.96913702149E+01 -0.73902867194E+02  0.74811260046E+02  0.00000000000E+00 0.  1.
         -1    1    1    2    0  502 -0.18401443655E+02 -0.35993298568E+02 -0.75024347433E+03  0.75133175192E+03  0.00000000000E+00 0. -1.
<mgrwt>
<rscale>  1 0.30000000E+03</rscale>
<asrwt>0</asrwt>
<pdfrwt beam="1">  1       21 0.79738471E-02 0.30000000E+03</pdfrwt>
<pdfrwt beam="2">0</pdfrwt>
<totfact> 0.12847542E+04</totfact>
</mgrwt>
</event>
<event>
 6    1  0.6513574E-002  0.3000000E+03  0.7818608E-02  0.1093470E+00
         21   -1    0    0  501  502  0.00000000000E+00  0.00000000000E+00  0.12255954787E+01  0.12255954787E+01  0.00000000000E+00 0. -1.
         13   -1    0    0    0    0 -0.00000000000E+00 -0.00000000000E+00 -0.10000000000E+04  0.10000000000E+04  0.00000000000E+00 0.  1.
    9000005    2    1    2  501    0  0.24683800328E+02  0.22275189769E+02 -0.65373740943E+03  0.65459033752E+03  0.32303884411E+01 0.  0.
         13    1    3    3    0    0 -0.63242874423E-01 -0.36575894275E-01 -0.81072814697E+00  0.81401325880E+00  0.00000000000E+00 0.  1.
          3    1    3    3  501    0  0.24747043202E+02  0.22311765664E+02 -0.65292668129E+03  0.65377632427E+03  0.00000000000E+00 0.  1.
         -1    1    1    2    0  502 -0.24683800328E+02 -0.22275189769E+02 -0.34503699509E+03  0.34663525795E+03  0.00000000000E+00 0. -1.
<mgrwt>
<rscale>  1 0.30000000E+03</rscale>
<asrwt>0</asrwt>
<pdfrwt beam="1">  1       21 0.44567202E-02 0.30000000E+03</pdfrwt>
<pdfrwt beam="2">0</pdfrwt>
<totfact> 0.35027719E+04</totfact>
</mgrwt>
</event>
<event>
 6    1  0.6513574E-002  0.3000000E+03  0.7818608E-02  0.1093470E+00
         21   -1    0    0  501  502  0.00000000000E+00  0.00000000000E+00  0.10821723279E+01  0.10821723279E+01  0.00000000000E+00 0. -1.
         13   -1    0    0    0    0 -0.00000000000E+00 -0.00000000000E+00 -0.10000000000E+04  0.10000000000E+04  0.00000000000E+00 0.  1.
    9000005    2    1    2  501    0  0.26254737240E+02 -0.16437146187E+02 -0.66383138701E+03  0.66456707056E+03  0.42178063907E+01 0.  0.
         13    1    3    3    0    0  0.72101789901E+01 -0.31035692058E+01 -0.19881735345E+03  0.19897225650E+03  0.00000000000E+00 0.  1.
          3    1    3    3  501    0  0.19044558250E+02 -0.13333576982E+02 -0.46501403356E+03  0.46559481406E+03  0.00000000000E+00 0.  1.
         -1    1    1    2    0  502 -0.26254737240E+02  0.16437146187E+02 -0.33508644067E+03  0.33651510177E+03  0.00000000000E+00 0. -1.
<mgrwt>
<rscale>  1 0.30000000E+03</rscale>
<asrwt>0</asrwt>
<pdfrwt beam="1">  1       21 0.39351804E-02 0.30000000E+03</pdfrwt>
<pdfrwt beam="2">0</pdfrwt>
<totfact> 0.43219758E+04</totfact>
</mgrwt>
</event>
<event>
 6    1  0.6513574E-002  0.3000000E+03  0.7818608E-02  0.1093470E+00
         21   -1    0    0  501  502  0.00000000000E+00  0.00000000000E+00  0.16617545996E+01  0.16617545996E+01  0.00000000000E+00 0. -1.
         13   -1    0    0    0    0 -0.00000000000E+00 -0.00000000000E+00 -0.10000000000E+04  0.10000000000E+04  0.00000000000E+00 0.  1.
    9000005    2    1    2  501    0  0.17523006380E+02 -0.24858841435E+02 -0.16686044286E+03  0.16962788879E+03  0.24890783732E+01 0.  0.
         13    1    3    3    0    0  0.24239393582E+01 -0.44231777431E+01 -0.31936505761E+02  0.32332342687E+02  0.00000000000E+00 0.  1.
          3    1    3    3  501    0  0.15099067022E+02 -0.20435663692E+02 -0.13492393710E+03  0.13729554610E+03  0.00000000000E+00 0.  1.
         -3    1    1    2    0  502 -0.17523006380E+02  0.24858841435E+02 -0.83147780254E+03  0.83203386581E+03  0.00000000000E+00 0. -1.
<mgrwt>
<rscale>  1 0.30000000E+03</rscale>
<asrwt>0</asrwt>
<pdfrwt beam="1">  1       21 0.60427567E-02 0.30000000E+03</pdfrwt>
<pdfrwt beam="2">0</pdfrwt>
<totfact> 0.20815150E+04</totfact>
</mgrwt>
</event>
<event>
 6    1  0.6513574E-002  0.3000000E+03  0.7818608E-02  0.1093470E+00
         21   -1    0    0  501  502  0.00000000000E+00  0.00000000000E+00  0.12287272154E+01  0.12287272154E+01  0.00000000000E+00 0. -1.
         13   -1    0    0    0    0 -0.00000000000E+00 -0.00000000000E+00 -0.10000000000E+04  0.10000000000E+04  0.00000000000E+00 0.  1.
    9000005    2    1    2  501    0  0.18526617585E+02  0.29677220078E+02 -0.52524521545E+03  0.52641202582E+03  0.17639791264E+01 0.  0.
         13    1    3    3    0    0  0.28348635869E+00  0.24460564420E+00 -0.38402015392E+01  0.38584121473E+01  0.00000000000E+00 0.  1.
          1    1    3    3  501    0  0.18243131226E+02  0.29432614434E+02 -0.52140501391E+03  0.52255361367E+03  0.00000000000E+00 0.  1.
         -3    1    1    2    0  502 -0.18526617585E+02 -0.29677220078E+02 -0.47352605733E+03  0.47481670139E+03  0.00000000000E+00 0. -1.
<mgrwt>
<rscale>  1 0.30000000E+03</rscale>
<asrwt>0</asrwt>
<pdfrwt beam="1">  1       21 0.44681084E-02 0.30000000E+03</pdfrwt>
<pdfrwt beam="2">0</pdfrwt>
<totfact> 0.34876459E+04</totfact>
</mgrwt>
</event>
<event>
 6    1  0.6513574E-002  0.3000000E+03  0.7818608E-02  0.1093470E+00
         21   -1    0    0  501  502  0.00000000000E+00  0.00000000000E+00  0.28612613691E+01  0.28612613691E+01  0.00000000000E+00 0. -1.
         13   -1    0    0    0    0 -0.00000000000E+00 -0.00000000000E+00 -0.10000000000E+04  0.10000000000E+04  0.00000000000E+00 0.  1.
    9000005    2    1    2  501    0 -0.19164254494E+02 -0.46160386167E+02 -0.67649980797E+03  0.67835028504E+03  0.30114999096E+01 0.  0.
         13    1    3    3    0    0 -0.16550133384E+02 -0.37156348670E+02 -0.54217458350E+03  0.54369824366E+03  0.00000000000E+00 0.  1.
          1    1    3    3  501    0 -0.26141211098E+01 -0.90040374968E+01 -0.13432522447E+03  0.13465204139E+03  0.00000000000E+00 0.  1.
         -1    1    1    2    0  502  0.19164254494E+02  0.46160386167E+02 -0.32063893066E+03  0.32451097632E+03  0.00000000000E+00 0. -1.
<mgrwt>
<rscale>  1 0.30000000E+03</rscale>
<asrwt>0</asrwt>
<pdfrwt beam="1">  1       21 0.10404609E-01 0.30000000E+03</pdfrwt>
<pdfrwt beam="2">0</pdfrwt>
<totfact> 0.80138643E+03</totfact>
</mgrwt>
</event>
<event>
 6    1  0.6513574E-002  0.3000000E+03  0.7818608E-02  0.1093470E+00
         21   -1    0    0  501  502  0.00000000000E+00  0.00000000000E+00  0.20483372815E+01  0.20483372815E+01  0.00000000000E+00 0. -1.
         13   -1    0    0    0    0 -0.00000000000E+00 -0.00000000000E+00 -0.10000000000E+04  0.10000000000E+04  0.00000000000E+00 0.  1.
    9000005    2    1    2  501    0 -0.16780315985E+02 -0.33048132034E+02 -0.21323184900E+03  0.21645369366E+03  0.32591468172E+01 0.  0.
         13    1    3    3    0    0 -0.10942059702E+02 -0.22505665538E+02 -0.13513910755E+03  0.13743657461E+03  0.00000000000E+00 0.  1.
          1    1    3    3  501    0 -0.58382562836E+01 -0.10542466496E+02 -0.78092741447E+02  0.79017119050E+02  0.00000000000E+00 0.  1.
         -1    1    1    2    0  502  0.16780315985E+02  0.33048132034E+02 -0.78471981372E+03  0.78559464362E+03  0.00000000000E+00 0. -1.
<mgrwt>
<rscale>  1 0.30000000E+03</rscale>
<asrwt>0</asrwt>
<pdfrwt beam="1">  1       21 0.74485149E-02 0.30000000E+03</pdfrwt>
<pdfrwt beam="2">0</pdfrwt>
<totfact> 0.14478002E+04</totfact>
</mgrwt>
</event>
<event>
 6    1  0.6513574E-002  0.3000000E+03  0.7818608E-02  0.1093470E+00
         21   -1    0    0  501  502  0.00000000000E+00  0.00000000000E+00  0.20307530126E+01  0.20307530126E+01  0.00000000000E+00 0. -1.
         13   -1    0    0    0    0 -0.00000000000E+00 -0.00000000000E+00 -0.10000000000E+04  0.10000000000E+04  0.00000000000E+00 0.  1.
    9000005    2    1    2  501    0  0.35508150888E+02 -0.27177595861E+02 -0.53127093099E+03  0.53319520759E+03  0.69911934852E+01 0.  0.
         13    1    3    3    0    0  0.39876514414E+01 -0.62153947624E+01 -0.81099358568E+02  0.81434872483E+02  0.00000000000E+00 0.  1.
          3    1    3    3  501    0  0.31520499447E+02 -0.20962201099E+02 -0.45017157242E+03  0.45176033511E+03  0.00000000000E+00 0.  1.
         -3    1    1    2    0  502 -0.35508150888E+02  0.27177595861E+02 -0.46669831600E+03  0.46883554542E+03  0.00000000000E+00 0. -1.
<mgrwt>
<rscale>  1 0.30000000E+03</rscale>
<asrwt>0</asrwt>
<pdfrwt beam="1">  1       21 0.73845720E-02 0.30000000E+03</pdfrwt>
<pdfrwt beam="2">0</pdfrwt>
<totfact> 0.14698038E+04</totfact>
</mgrwt>
</event>
<event>
 6    1  0.6513574E-002  0.3000000E+03  0.7818608E-02  0.1093470E+00
         21   -1    0    0  501  502  0.00000000000E+00  0.00000000000E+00  0.10151541920E+01  0.10151541920E+01  0.00000000000E+00 0. -1.
         13   -1    0    0    0    0 -0.00000000000E+00 -0.00000000000E+00 -0.10000000000E+04  0.10000000000E+04  0.00000000000E+00 0.  1.
    9000005    2    1    2  501    0  0.29680098246E+01 -0.31599846570E+02 -0.48083679236E+03  0.48189593409E+03  0.35087065333E+01 0.  0.
         13    1    3    3    0    0  0.18475990413E+00 -0.96784386311E+01 -0.16920563508E+03  0.16948230956E+03  0.00000000000E+00 0.  1.
          1    1    3    3  501    0  0.27832499204E+01 -0.21921407939E+02 -0.31163115728E+03  0.31241362454E+03  0.00000000000E+00 0.  1.
         -1    1    1    2    0  502 -0.29680098246E+01  0.31599846570E+02 -0.51814805345E+03  0.51911922010E+03  0.00000000000E+00 0. -1.
<mgrwt>
<rscale>  1 0.30000000E+03</rscale>
<asrwt>0</asrwt>
<pdfrwt beam="1">  1       21 0.36914776E-02 0.30000000E+03</pdfrwt>
<pdfrwt beam="2">0</pdfrwt>
<totfact> 0.48121327E+04</totfact>
</mgrwt>
</event>
<event>
 6    1  0.6513574E-002  0.3000000E+03  0.7818608E-02  0.1093470E+00
         21   -1    0    0  501  502  0.00000000000E+00  0.00000000000E+00  0.62906767320E+01  0.62906767320E+01  0.00000000000E+00 0. -1.
         13   -1    0    0    0    0 -0.00000000000E+00 -0.00000000000E+00 -0.10000000000E+04  0.10000000000E+04  0.00000000000E+00 0.  1.
    9000005    2    1    2  501    0  0.52078881644E+02  0.33580256448E+02 -0.18341178834E+03  0.19362719247E+03  0.34295811391E+01 0.  0.
         13    1    3    3    0    0  0.46583802602E+02  0.31184054557E+02 -0.16662105795E+03  0.17579838701E+03  0.00000000000E+00 0.  1.
          3    1    3    3  501    0  0.54950790413E+01  0.23962018903E+01 -0.16790730388E+02  0.17828805460E+02  0.00000000000E+00 0.  1.
         -3    1    1    2    0  502 -0.52078881644E+02 -0.33580256448E+02 -0.81029753493E+03  0.81266348426E+03  0.00000000000E+00 0. -1.
<mgrwt>
<rscale>  1 0.30000000E+03</rscale>
<asrwt>0</asrwt>
<pdfrwt beam="1">  1       21 0.22875236E-01 0.30000000E+03</pdfrwt>
<pdfrwt beam="2">0</pdfrwt>
<totfact> 0.18536781E+03</totfact>
</mgrwt>
</event>
<event>
 6    1  0.6513574E-002  0.3000000E+03  0.7818608E-02  0.1093470E+00
         21   -1    0    0  501  502  0.00000000000E+00  0.00000000000E+00  0.11556859986E+01  0.11556859986E+01  0.00000000000E+00 0. -1.
         13   -1    0    0    0    0 -0.00000000000E+00 -0.00000000000E+00 -0.10000000000E+04  0.10000000000E+04  0.00000000000E+00 0.  1.
    9000005    2    1    2  501    0  0.32001962121E+02  0.58173927109E+01 -0.64178567339E+03  0.64261860218E+03  0.34423338221E+01 0.  0.
         13    1    3    3    0    0  0.12869824386E+02  0.37895290453E+01 -0.24592882030E+03  0.24629449357E+03  0.00000000000E+00 0.  1.
          3    1    3    3  501    0  0.19132137735E+02  0.20278636656E+01 -0.39585685310E+03  0.39632410861E+03  0.00000000000E+00 0.  1.
         -3    1    1    2    0  502 -0.32001962121E+02 -0.58173927109E+01 -0.35705864061E+03  0.35853708382E+03  0.00000000000E+00 0. -1.
<mgrwt>
<rscale>  1 0.30000000E+03</rscale>
<asrwt>0</asrwt>
<pdfrwt beam="1">  1       21 0.42025034E-02 0.30000000E+03</pdfrwt>
<pdfrwt beam="2">0</pdfrwt>
<totfact> 0.38687510E+04</totfact>
</mgrwt>
</event>
<event>
 6    1  0.6513574E-002  0.3000000E+03  0.7818608E-02  0.1093470E+00
         21   -1    0    0  501  502  0.00000000000E+00  0.00000000000E+00  0.13298621949E+01  0.13298621949E+01  0.00000000000E+00 0. -1.
         13   -1    0    0    0    0 -0.00000000000E+00 -0.00000000000E+00 -0.10000000000E+04  0.10000000000E+04  0.00000000000E+00 0.  1.
    9000005    2    1    2  501    0  0.23293752418E+02  0.21561918336E+02 -0.25404043752E+03  0.25602394797E+03  0.20500774317E+01 0.  0.
         13    1    3    3    0    0  0.81127225828E+01  0.70558035852E+01 -0.93516762518E+02  0.94132807797E+02  0.00000000000E+00 0.  1.
          1    1    3    3  501    0  0.15181029835E+02  0.14506114750E+02 -0.16052367500E+03  0.16189114017E+03  0.00000000000E+00 0.  1.
         -3    1    1    2    0  502 -0.23293752418E+02 -0.21561918336E+02 -0.74462970029E+03  0.74530591422E+03  0.00000000000E+00 0. -1.
<mgrwt>
<rscale>  1 0.30000000E+03</rscale>
<asrwt>0</asrwt>
<pdfrwt beam="1">  1       21 0.48358727E-02 0.30000000E+03</pdfrwt>
<pdfrwt beam="2">0</pdfrwt>
<totfact> 0.30489731E+04</totfact>
</mgrwt>
</event>
<event>
 6    1  0.6513574E-002  0.3000000E+03  0.7818608E-02  0.1093470E+00
         21   -1    0    0  501  502  0.00000000000E+00  0.00000000000E+00  0.10420903872E+01  0.10420903872E+01  0.00000000000E+00 0. -1.
         13   -1    0    0    0    0 -0.00000000000E+00 -0.00000000000E+00 -0.10000000000E+04  0.10000000000E+04  0.00000000000E+00 0.  1.
    9000005    2    1    2  501    0  0.20284747631E+02 -0.24523653133E+02 -0.57657262098E+03  0.57745949796E+03  0.32563748603E+01 0.  0.
         13    1    3    3    0    0  0.14436375671E+02 -0.16808151106E+02 -0.42618680471E+03  0.42676236408E+03  0.00000000000E+00 0.  1.
          1    1    3    3  501    0  0.58483719595E+01 -0.77155020272E+01 -0.15038581627E+03  0.15069713388E+03  0.00000000000E+00 0.  1.
         -1    1    1    2    0  502 -0.20284747631E+02  0.24523653133E+02 -0.42238528863E+03  0.42358259242E+03  0.00000000000E+00 0. -1.
<mgrwt>
<rscale>  1 0.30000000E+03</rscale>
<asrwt>0</asrwt>
<pdfrwt beam="1">  1       21 0.37894276E-02 0.30000000E+03</pdfrwt>
<pdfrwt beam="2">0</pdfrwt>
<totfact> 0.46051132E+04</totfact>
</mgrwt>
</event>
<event>
 6    1  0.6513574E-002  0.3000000E+03  0.7818608E-02  0.1093470E+00
         21   -1    0    0  501  502  0.00000000000E+00  0.00000000000E+00  0.29425357495E+01  0.29425357495E+01  0.00000000000E+00 0. -1.
         13   -1    0    0    0    0 -0.00000000000E+00 -0.00000000000E+00 -0.10000000000E+04  0.10000000000E+04  0.00000000000E+00 0.  1.
    9000005    2    1    2  501    0  0.42815203729E+02  0.33190024536E+02 -0.51294023522E+03  0.51580373537E+03  0.33300310271E+01 0.  0.
         13    1    3    3    0    0  0.14243893560E+02  0.12066834569E+02 -0.16397454826E+03  0.16503378284E+03  0.00000000000E+00 0.  1.
          1    1    3    3  501    0  0.28571310169E+02  0.21123189967E+02 -0.34896568696E+03  0.35076995253E+03  0.00000000000E+00 0.  1.
         -3    1    1    2    0  502 -0.42815203729E+02 -0.33190024536E+02 -0.48411722903E+03  0.48713880038E+03  0.00000000000E+00 0. -1.
<mgrwt>
<rscale>  1 0.30000000E+03</rscale>
<asrwt>0</asrwt>
<pdfrwt beam="1">  1       21 0.10700153E-01 0.30000000E+03</pdfrwt>
<pdfrwt beam="2">0</pdfrwt>
<totfact> 0.76212979E+03</totfact>
</mgrwt>
</event>
<event>
 6    1  0.6513574E-002  0.3000000E+03  0.7818608E-02  0.1093470E+00
         21   -1    0    0  501  502  0.00000000000E+00  0.00000000000E+00  0.11549669186E+01  0.11549669186E+01  0.00000000000E+00 0. -1.
         13   -1    0    0    0    0 -0.00000000000E+00 -0.00000000000E+00 -0.10000000000E+04  0.10000000000E+04  0.00000000000E+00 0.  1.
    9000005    2    1    2  501    0  0.27625207803E+02  0.19588570867E+02 -0.47418513021E+03  0.47540324043E+03  0.31367328927E+01 0.  0.
         13    1    3    3    0    0  0.22773640486E+02  0.15568843551E+02 -0.40070762192E+03  0.40165610397E+03  0.00000000000E+00 0.  1.
          1    1    3    3  501    0  0.48515673169E+01  0.40197273159E+01 -0.73477508282E+02  0.73747136462E+02  0.00000000000E+00 0.  1.
         -1    1    1    2    0  502 -0.27625207803E+02 -0.19588570867E+02 -0.52465990288E+03  0.52575172648E+03  0.00000000000E+00 0. -1.
<mgrwt>
<rscale>  1 0.30000000E+03</rscale>
<asrwt>0</asrwt>
<pdfrwt beam="1">  1       21 0.41998886E-02 0.30000000E+03</pdfrwt>
<pdfrwt beam="2">0</pdfrwt>
<totfact> 0.38728193E+04</totfact>
</mgrwt>
</event>
<event>
 6    1  0.6513574E-002  0.3000000E+03  0.7818608E-02  0.1093470E+00
         21   -1    0    0  501  502  0.00000000000E+00  0.00000000000E+00  0.10642773873E+01  0.10642773873E+01  0.00000000000E+00 0. -1.
         13   -1    0    0    0    0 -0.00000000000E+00 -0.00000000000E+00 -0.10000000000E+04  0.10000000000E+04  0.00000000000E+00 0.  1.
    9000005    2    1    2  501    0  0.30576236427E+02 -0.10646649628E+01 -0.33047376629E+03  0.33190254298E+03  0.32168438719E+01 0.  0.
         13    1    3    3    0    0  0.29571404828E+02 -0.10592593222E+01 -0.31153181702E+03  0.31293395953E+03  0.00000000000E+00 0.  1.
          3    1    3    3  501    0  0.10048315989E+01 -0.54056405272E-02 -0.18941949274E+02  0.18968583449E+02  0.00000000000E+00 0.  1.
         -3    1    1    2    0  502 -0.30576236427E+02  0.10646649628E+01 -0.66846195632E+03  0.66916173441E+03  0.00000000000E+00 0. -1.
<mgrwt>
<rscale>  1 0.30000000E+03</rscale>
<asrwt>0</asrwt>
<pdfrwt beam="1">  1       21 0.38701078E-02 0.30000000E+03</pdfrwt>
<pdfrwt beam="2">0</pdfrwt>
<totfact> 0.44449108E+04</totfact>
</mgrwt>
</event>
<event>
 6    1  0.6513574E-002  0.3000000E+03  0.7818608E-02  0.1093470E+00
         21   -1    0    0  501  502  0.00000000000E+00  0.00000000000E+00  0.21893059126E+01  0.21893059126E+01  0.00000000000E+00 0. -1.
         13   -1    0    0    0    0 -0.00000000000E+00 -0.00000000000E+00 -0.10000000000E+04  0.10000000000E+04  0.00000000000E+00 0.  1.
    9000005    2    1    2  501    0  0.21129456265E+02 -0.39577961464E+02 -0.63976768449E+03  0.64134631280E+03  0.30876967064E+01 0.  0.
         13    1    3    3    0    0  0.12577123261E+02 -0.23989098807E+02 -0.36457518907E+03  0.36557999039E+03  0.00000000000E+00 0.  1.
          1    1    3    3  501    0  0.85523330032E+01 -0.15588862657E+02 -0.27519249542E+03  0.27576632241E+03  0.00000000000E+00 0.  1.
         -3    1    1    2    0  502 -0.21129456265E+02  0.39577961464E+02 -0.35804300960E+03  0.36084299311E+03  0.00000000000E+00 0. -1.
<mgrwt>
<rscale>  1 0.30000000E+03</rscale>
<asrwt>0</asrwt>
<pdfrwt beam="1">  1       21 0.79611292E-02 0.30000000E+03</pdfrwt>
<pdfrwt beam="2">0</pdfrwt>
<totfact> 0.12883605E+04</totfact>
</mgrwt>
</event>
<event>
 6    1  0.6513574E-002  0.3000000E+03  0.7818608E-02  0.1093470E+00
         21   -1    0    0  501  502  0.00000000000E+00  0.00000000000E+00  0.15156980244E+01  0.15156980244E+01  0.00000000000E+00 0. -1.
         13   -1    0    0    0    0 -0.00000000000E+00 -0.00000000000E+00 -0.10000000000E+04  0.10000000000E+04  0.00000000000E+00 0.  1.
    9000005    2    1    2  501    0  0.21975114549E+01  0.37834944822E+02 -0.61121775529E+03  0.61239914699E+03  0.30428189833E+01 0.  0.
         13    1    3    3    0    0 -0.80789127114E-01  0.15331897151E+02 -0.22886444499E+03  0.22937743519E+03  0.00000000000E+00 0.  1.
          3    1    3    3  501    0  0.22783005820E+01  0.22503047671E+02 -0.38235331030E+03  0.38302171180E+03  0.00000000000E+00 0.  1.
         -1    1    1    2    0  502 -0.21975114549E+01 -0.37834944822E+02 -0.38726654669E+03  0.38911655103E+03  0.00000000000E+00 0. -1.
<mgrwt>
<rscale>  1 0.30000000E+03</rscale>
<asrwt>0</asrwt>
<pdfrwt beam="1">  1       21 0.55116408E-02 0.30000000E+03</pdfrwt>
<pdfrwt beam="2">0</pdfrwt>
<totfact> 0.24385577E+04</totfact>
</mgrwt>
</event>
<event>
 6    1  0.6513574E-002  0.3000000E+03  0.7818608E-02  0.1093470E+00
         21   -1    0    0  501  502  0.00000000000E+00  0.00000000000E+00  0.11574931248E+01  0.11574931248E+01  0.00000000000E+00 0. -1.
         13   -1    0    0    0    0 -0.00000000000E+00 -0.00000000000E+00 -0.10000000000E+04  0.10000000000E+04  0.00000000000E+00 0.  1.
    9000005    2    1    2  501    0 -0.44348061670E-01  0.33943237738E+02 -0.50273524128E+03  0.50389039756E+03  0.32656658812E+01 0.  0.
         13    1    3    3    0    0  0.52194431741E+00  0.82612379288E+01 -0.10434132710E+03  0.10466915983E+03  0.00000000000E+00 0.  1.
          3    1    3    3  501    0 -0.56629237908E+00  0.25681999809E+02 -0.39839391418E+03  0.39922123773E+03  0.00000000000E+00 0.  1.
         -3    1    1    2    0  502  0.44348061670E-01 -0.33943237738E+02 -0.49610726559E+03  0.49726709556E+03  0.00000000000E+00 0. -1.
<mgrwt>
<rscale>  1 0.30000000E+03</rscale>
<asrwt>0</asrwt>
<pdfrwt beam="1">  1       21 0.42090748E-02 0.30000000E+03</pdfrwt>
<pdfrwt beam="2">0</pdfrwt>
<totfact> 0.38585562E+04</totfact>
</mgrwt>
</event>
<event>
 6    1  0.6513574E-002  0.3000000E+03  0.7818608E-02  0.1093470E+00
         21   -1    0    0  501  502  0.00000000000E+00  0.00000000000E+00  0.14353504343E+01  0.14353504343E+01  0.00000000000E+00 0. -1.
         13   -1    0    0    0    0 -0.00000000000E+00 -0.00000000000E+00 -0.10000000000E+04  0.10000000000E+04  0.00000000000E+00 0.  1.
    9000005    2    1    2  501    0  0.15738447000E+02 -0.34157674284E+02 -0.55473662269E+03  0.55601671267E+03  0.27237455092E+01 0.  0.
         13    1    3    3    0    0  0.57524199692E+00 -0.66605962068E+00 -0.18801196789E+02  0.18821783643E+02  0.00000000000E+00 0.  1.
          1    1    3    3  501    0  0.15163205003E+02 -0.33491614663E+02 -0.53593542590E+03  0.53719492903E+03  0.00000000000E+00 0.  1.
         -3    1    1    2    0  502 -0.15738447000E+02  0.34157674284E+02 -0.44382802688E+03  0.44541863777E+03  0.00000000000E+00 0. -1.
<mgrwt>
<rscale>  1 0.30000000E+03</rscale>
<asrwt>0</asrwt>
<pdfrwt beam="1">  1       21 0.52194671E-02 0.30000000E+03</pdfrwt>
<pdfrwt beam="2">0</pdfrwt>
<totfact> 0.26768441E+04</totfact>
</mgrwt>
</event>
<event>
 6    1  0.6513574E-002  0.3000000E+03  0.7818608E-02  0.1093470E+00
         21   -1    0    0  501  502  0.00000000000E+00  0.00000000000E+00  0.14516865398E+01  0.14516865398E+01  0.00000000000E+00 0. -1.
         13   -1    0    0    0    0 -0.00000000000E+00 -0.00000000000E+00 -0.10000000000E+04  0.10000000000E+04  0.00000000000E+00 0.  1.
    9000005    2    1    2  501    0  0.11626928607E+01  0.31797292422E+02 -0.77392775372E+03  0.77458869811E+03  0.33261999049E+01 0.  0.
         13    1    3    3    0    0  0.18778825805E+01  0.13005992891E+02 -0.29808400339E+03  0.29837351654E+03  0.00000000000E+00 0.  1.
          3    1    3    3  501    0 -0.71518971972E+00  0.18791299531E+02 -0.47584375033E+03  0.47621518158E+03  0.00000000000E+00 0.  1.
         -3    1    1    2    0  502 -0.11626928607E+01 -0.31797292422E+02 -0.22462055974E+03  0.22686298843E+03  0.00000000000E+00 0. -1.
<mgrwt>
<rscale>  1 0.30000000E+03</rscale>
<asrwt>0</asrwt>
<pdfrwt beam="1">  1       21 0.52788713E-02 0.30000000E+03</pdfrwt>
<pdfrwt beam="2">0</pdfrwt>
<totfact> 0.26255606E+04</totfact>
</mgrwt>
</event>
<event>
 6    1  0.6513574E-002  0.3000000E+03  0.7818608E-02  0.1093470E+00
         21   -1    0    0  501  502  0.00000000000E+00  0.00000000000E+00  0.19025372762E+01  0.19025372762E+01  0.00000000000E+00 0. -1.
         13   -1    0    0    0    0 -0.00000000000E+00 -0.00000000000E+00 -0.10000000000E+04  0.10000000000E+04  0.00000000000E+00 0.  1.
    9000005    2    1    2  501    0  0.36812782203E+02 -0.23264633858E+02 -0.50234171605E+03  0.50423780627E+03  0.34844614040E+01 0.  0.
         13    1    3    3    0    0  0.30550487746E+02 -0.17748428309E+02 -0.41051891900E+03  0.41203655404E+03  0.00000000000E+00 0.  1.
          3    1    3    3  501    0  0.62622944568E+01 -0.55162055484E+01 -0.91822797049E+02  0.92201252233E+02  0.00000000000E+00 0.  1.
         -1    1    1    2    0  502 -0.36812782203E+02  0.23264633858E+02 -0.49575574668E+03  0.49766473100E+03  0.00000000000E+00 0. -1.
<mgrwt>
<rscale>  1 0.30000000E+03</rscale>
<asrwt>0</asrwt>
<pdfrwt beam="1">  1       21 0.69183320E-02 0.30000000E+03</pdfrwt>
<pdfrwt beam="2">0</pdfrwt>
<totfact> 0.16468058E+04</totfact>
</mgrwt>
</event>
<event>
 6    1  0.6513574E-002  0.3000000E+03  0.7818608E-02  0.1093470E+00
         21   -1    0    0  501  502  0.00000000000E+00  0.00000000000E+00  0.33868607049E+01  0.33868607049E+01  0.00000000000E+00 0. -1.
         13   -1    0    0    0    0 -0.00000000000E+00 -0.00000000000E+00 -0.10000000000E+04  0.10000000000E+04  0.00000000000E+00 0.  1.
    9000005    2    1    2  501    0  0.55568135520E+02 -0.11954591572E+02 -0.60458463293E+03  0.60725925532E+03  0.32395759534E+01 0.  0.
         13    1    3    3    0    0  0.18195439095E+02 -0.54573087800E+01 -0.19918998874E+03  0.20009374762E+03  0.00000000000E+00 0.  1.
          1    1    3    3  501    0  0.37372696425E+02 -0.64972827924E+01 -0.40539464420E+03  0.40716550771E+03  0.00000000000E+00 0.  1.
         -3    1    1    2    0  502 -0.55568135520E+02  0.11954591572E+02 -0.39202850636E+03  0.39612760538E+03  0.00000000000E+00 0. -1.
<mgrwt>
<rscale>  1 0.30000000E+03</rscale>
<asrwt>0</asrwt>
<pdfrwt beam="1">  1       21 0.12315883E-01 0.30000000E+03</pdfrwt>
<pdfrwt beam="2">0</pdfrwt>
<totfact> 0.59112493E+03</totfact>
</mgrwt>
</event>
<event>
 6    1  0.6513574E-002  0.3000000E+03  0.7818608E-02  0.1093470E+00
         21   -1    0    0  501  502  0.00000000000E+00  0.00000000000E+00  0.17780026073E+01  0.17780026073E+01  0.00000000000E+00 0. -1.
         13   -1    0    0    0    0 -0.00000000000E+00 -0.00000000000E+00 -0.10000000000E+04  0.10000000000E+04  0.00000000000E+00 0.  1.
    9000005    2    1    2  501    0  0.22186361010E+02  0.34783188205E+02 -0.59404445258E+03  0.59550027429E+03  0.54461216283E+01 0.  0.
         13    1    3    3    0    0  0.13757933161E+01  0.53115716941E+01 -0.88741582456E+02  0.88911045759E+02  0.00000000000E+00 0.  1.
          1    1    3    3  501    0  0.20810567694E+02  0.29471616511E+02 -0.50530287012E+03  0.50658922853E+03  0.00000000000E+00 0.  1.
         -3    1    1    2    0  502 -0.22186361010E+02 -0.34783188205E+02 -0.40417754481E+03  0.40627772832E+03  0.00000000000E+00 0. -1.
<mgrwt>
<rscale>  1 0.30000000E+03</rscale>
<asrwt>0</asrwt>
<pdfrwt beam="1">  1       21 0.64654777E-02 0.30000000E+03</pdfrwt>
<pdfrwt beam="2">0</pdfrwt>
<totfact> 0.18519991E+04</totfact>
</mgrwt>
</event>
<event>
 6    1  0.6513574E-002  0.3000000E+03  0.7818608E-02  0.1093470E+00
         21   -1    0    0  501  502  0.00000000000E+00  0.00000000000E+00  0.12732749579E+01  0.12732749579E+01  0.00000000000E+00 0. -1.
         13   -1    0    0    0    0 -0.00000000000E+00 -0.00000000000E+00 -0.10000000000E+04  0.10000000000E+04  0.00000000000E+00 0.  1.
    9000005    2    1    2  501    0  0.31459442714E+02  0.15971277184E+02 -0.45379079955E+03  0.45519641121E+03  0.57362696869E+01 0.  0.
         13    1    3    3    0    0  0.82100078228E+01  0.32819655284E+01 -0.86079393153E+02  0.86532291382E+02  0.00000000000E+00 0.  1.
          1    1    3    3  501    0  0.23249434891E+02  0.12689311656E+02 -0.36771140640E+03  0.36866411982E+03  0.00000000000E+00 0.  1.
         -3    1    1    2    0  502 -0.31459442714E+02 -0.15971277184E+02 -0.54493592549E+03  0.54607686375E+03  0.00000000000E+00 0. -1.
<mgrwt>
<rscale>  1 0.30000000E+03</rscale>
<asrwt>0</asrwt>
<pdfrwt beam="1">  1       21 0.46301005E-02 0.30000000E+03</pdfrwt>
<pdfrwt beam="2">0</pdfrwt>
<totfact> 0.32829929E+04</totfact>
</mgrwt>
</event>
<event>
 6    1  0.6513574E-002  0.3000000E+03  0.7818608E-02  0.1093470E+00
         21   -1    0    0  501  502  0.00000000000E+00  0.00000000000E+00  0.18498748554E+01  0.18498748554E+01  0.00000000000E+00 0. -1.
         13   -1    0    0    0    0 -0.00000000000E+00 -0.00000000000E+00 -0.10000000000E+04  0.10000000000E+04  0.00000000000E+00 0.  1.
    9000005    2    1    2  501    0  0.27636741502E+02  0.25365169533E+02 -0.74339352196E+03  0.74434626678E+03  0.32023537087E+01 0.  0.
         13    1    3    3    0    0  0.89188177249E+01  0.10272391051E+02 -0.26776783845E+03  0.26811318997E+03  0.00000000000E+00 0.  1.
          1    1    3    3  501    0  0.18717923777E+02  0.15092778482E+02 -0.47562568351E+03  0.47623307681E+03  0.00000000000E+00 0.  1.
         -1    1    1    2    0  502 -0.27636741502E+02 -0.25365169533E+02 -0.25475660319E+03  0.25750360808E+03  0.00000000000E+00 0. -1.
<mgrwt>
<rscale>  1 0.30000000E+03</rscale>
<asrwt>0</asrwt>
<pdfrwt beam="1">  1       21 0.67268318E-02 0.30000000E+03</pdfrwt>
<pdfrwt beam="2">0</pdfrwt>
<totfact> 0.17290867E+04</totfact>
</mgrwt>
</event>
<event>
 6    1  0.6513574E-002  0.3000000E+03  0.7818608E-02  0.1093470E+00
         21   -1    0    0  501  502  0.00000000000E+00  0.00000000000E+00  0.11301888543E+01  0.11301888543E+01  0.00000000000E+00 0. -1.
         13   -1    0    0    0    0 -0.00000000000E+00 -0.00000000000E+00 -0.10000000000E+04  0.10000000000E+04  0.00000000000E+00 0.  1.
    9000005    2    1    2  501    0 -0.18023523595E+02  0.25106160162E+02 -0.30710430483E+03  0.30867464341E+03  0.34372607780E+01 0.  0.
         13    1    3    3    0    0 -0.69589769893E+01  0.72838516598E+01 -0.92021136094E+02  0.92570899011E+02  0.00000000000E+00 0.  1.
          1    1    3    3  501    0 -0.11064546606E+02  0.17822308502E+02 -0.21508316873E+03  0.21610374440E+03  0.00000000000E+00 0.  1.
         -1    1    1    2    0  502  0.18023523595E+02 -0.25106160162E+02 -0.69176550632E+03  0.69245554544E+03  0.00000000000E+00 0. -1.
<mgrwt>
<rscale>  1 0.30000000E+03</rscale>
<asrwt>0</asrwt>
<pdfrwt beam="1">  1       21 0.41097863E-02 0.30000000E+03</pdfrwt>
<pdfrwt beam="2">0</pdfrwt>
<totfact> 0.40171805E+04</totfact>
</mgrwt>
</event>
<event>
 6    1  0.6513574E-002  0.3000000E+03  0.7818608E-02  0.1093470E+00
         21   -1    0    0  501  502  0.00000000000E+00  0.00000000000E+00  0.91502262601E+00  0.91502262601E+00  0.00000000000E+00 0. -1.
         13   -1    0    0    0    0 -0.00000000000E+00 -0.00000000000E+00 -0.10000000000E+04  0.10000000000E+04  0.00000000000E+00 0.  1.
    9000005    2    1    2  501    0  0.70147396244E+01 -0.29242598734E+02 -0.46258783377E+03  0.46357572456E+03  0.32576517532E+01 0.  0.
         13    1    3    3    0    0  0.66028406831E+01 -0.21921923502E+02 -0.35763965258E+03  0.35837171950E+03  0.00000000000E+00 0.  1.
          3    1    3    3  501    0  0.41189894135E+00 -0.73206752320E+01 -0.10494818119E+03  0.10520400506E+03  0.00000000000E+00 0.  1.
         -1    1    1    2    0  502 -0.70147396244E+01  0.29242598734E+02 -0.53649714360E+03  0.53733929807E+03  0.00000000000E+00 0. -1.
<mgrwt>
<rscale>  1 0.30000000E+03</rscale>
<asrwt>0</asrwt>
<pdfrwt beam="1">  1       21 0.33273620E-02 0.30000000E+03</pdfrwt>
<pdfrwt beam="2">0</pdfrwt>
<totfact> 0.57259213E+04</totfact>
</mgrwt>
</event>
<event>
 6    1  0.6513574E-002  0.3000000E+03  0.7818608E-02  0.1093470E+00
         21   -1    0    0  501  502  0.00000000000E+00  0.00000000000E+00  0.13414540077E+01  0.13414540077E+01  0.00000000000E+00 0. -1.
         13   -1    0    0    0    0 -0.00000000000E+00 -0.00000000000E+00 -0.10000000000E+04  0.10000000000E+04  0.00000000000E+00 0.  1.
    9000005    2    1    2  501    0  0.24933434922E+02  0.21857252217E+02 -0.28939775836E+03  0.29130604607E+03  0.29553818792E+01 0.  0.
         13    1    3    3    0    0  0.80671418547E+01  0.89520938909E+01 -0.10363155967E+03  0.10432985634E+03  0.00000000000E+00 0.  1.
          1    1    3    3  501    0  0.16866293067E+02  0.12905158326E+02 -0.18576619868E+03  0.18697618973E+03  0.00000000000E+00 0.  1.
         -3    1    1    2    0  502 -0.24933434922E+02 -0.21857252217E+02 -0.70926078763E+03  0.71003540794E+03  0.00000000000E+00 0. -1.
<mgrwt>
<rscale>  1 0.30000000E+03</rscale>
<asrwt>0</asrwt>
<pdfrwt beam="1">  1       21 0.48780249E-02 0.30000000E+03</pdfrwt>
<pdfrwt beam="2">0</pdfrwt>
<totfact> 0.30042552E+04</totfact>
</mgrwt>
</event>
<event>
 6    1  0.6513574E-002  0.3000000E+03  0.7818608E-02  0.1093470E+00
         21   -1    0    0  501  502  0.00000000000E+00  0.00000000000E+00  0.32566143856E+01  0.32566143856E+01  0.00000000000E+00 0. -1.
         13   -1    0    0    0    0 -0.00000000000E+00 -0.00000000000E+00 -0.10000000000E+04  0.10000000000E+04  0.00000000000E+00 0.  1.
    9000005    2    1    2  501    0 -0.16653692686E+02  0.52568776695E+02 -0.62618096602E+03  0.62861367960E+03  0.34255249105E+01 0.  0.
         13    1    3    3    0    0 -0.16140889754E+02  0.49849051182E+02 -0.60156429256E+03  0.60384191169E+03  0.00000000000E+00 0.  1.
          1    1    3    3  501    0 -0.51280293155E+00  0.27197255131E+01 -0.24616673455E+02  0.24771767916E+02  0.00000000000E+00 0.  1.
         -1    1    1    2    0  502  0.16653692686E+02 -0.52568776695E+02 -0.37056241960E+03  0.37464293478E+03  0.00000000000E+00 0. -1.
<mgrwt>
<rscale>  1 0.30000000E+03</rscale>
<asrwt>0</asrwt>
<pdfrwt beam="1">  1       21 0.11842259E-01 0.30000000E+03</pdfrwt>
<pdfrwt beam="2">0</pdfrwt>
<totfact> 0.63476325E+03</totfact>
</mgrwt>
</event>
<event>
 6    1  0.6513574E-002  0.3000000E+03  0.7818608E-02  0.1093470E+00
         21   -1    0    0  501  502  0.00000000000E+00  0.00000000000E+00  0.34706443065E+01  0.34706443065E+01  0.00000000000E+00 0. -1.
         13   -1    0    0    0    0 -0.00000000000E+00 -0.00000000000E+00 -0.10000000000E+04  0.10000000000E+04  0.00000000000E+00 0.  1.
    9000005    2    1    2  501    0  0.10634380145E+01  0.58256125214E+02 -0.42725630599E+03  0.43122357167E+03  0.33031391183E+01 0.  0.
         13    1    3    3    0    0 -0.11243220388E+01  0.21124237497E+02 -0.15854758655E+03  0.15995260145E+03  0.00000000000E+00 0.  1.
          3    1    3    3  501    0  0.21877600533E+01  0.37131887717E+02 -0.26870871944E+03  0.27127097022E+03  0.00000000000E+00 0.  1.
         -1    1    1    2    0  502 -0.10634380145E+01 -0.58256125214E+02 -0.56927304970E+03  0.57224707264E+03  0.00000000000E+00 0. -1.
<mgrwt>
<rscale>  1 0.30000000E+03</rscale>
<asrwt>0</asrwt>
<pdfrwt beam="1">  1       21 0.12620551E-01 0.30000000E+03</pdfrwt>
<pdfrwt beam="2">0</pdfrwt>
<totfact> 0.56539560E+03</totfact>
</mgrwt>
</event>
<event>
 6    1  0.6513574E-002  0.3000000E+03  0.7818608E-02  0.1093470E+00
         21   -1    0    0  501  502  0.00000000000E+00  0.00000000000E+00  0.12420873419E+01  0.12420873419E+01  0.00000000000E+00 0. -1.
         13   -1    0    0    0    0 -0.00000000000E+00 -0.00000000000E+00 -0.10000000000E+04  0.10000000000E+04  0.00000000000E+00 0.  1.
    9000005    2    1    2  501    0  0.19004148814E+02  0.29257810617E+02 -0.46861501294E+03  0.46995245703E+03  0.61728731245E+01 0.  0.
         13    1    3    3    0    0  0.29554323142E+01  0.19398953078E+01 -0.33700426786E+02  0.33885344022E+02  0.00000000000E+00 0.  1.
          1    1    3    3  501    0  0.16048716500E+02  0.27317915310E+02 -0.43491458615E+03  0.43606711301E+03  0.00000000000E+00 0.  1.
         -3    1    1    2    0  502 -0.19004148814E+02 -0.29257810617E+02 -0.53014289972E+03  0.53128963031E+03  0.00000000000E+00 0. -1.
<mgrwt>
<rscale>  1 0.30000000E+03</rscale>
<asrwt>0</asrwt>
<pdfrwt beam="1">  1       21 0.45166908E-02 0.30000000E+03</pdfrwt>
<pdfrwt beam="2">0</pdfrwt>
<totfact> 0.34242360E+04</totfact>
</mgrwt>
</event>
<event>
 6    1  0.6513574E-002  0.3000000E+03  0.7818608E-02  0.1093470E+00
         21   -1    0    0  501  502  0.00000000000E+00  0.00000000000E+00  0.18408242255E+01  0.18408242255E+01  0.00000000000E+00 0. -1.
         13   -1    0    0    0    0 -0.00000000000E+00 -0.00000000000E+00 -0.10000000000E+04  0.10000000000E+04  0.00000000000E+00 0.  1.
    9000005    2    1    2  501    0 -0.39556398651E+02  0.13523663776E+02 -0.60959666956E+03  0.61103598880E+03  0.30466234011E+01 0.  0.
         13    1    3    3    0    0 -0.36630137796E+02  0.11875998889E+02 -0.55198979493E+03  0.55333131129E+03  0.00000000000E+00 0.  1.
          1    1    3    3  501    0 -0.29262608551E+01  0.16476648868E+01 -0.57606874627E+02  0.57704677509E+02  0.00000000000E+00 0.  1.
         -1    1    1    2    0  502  0.39556398651E+02 -0.13523663776E+02 -0.38856250622E+03  0.39080483543E+03  0.00000000000E+00 0. -1.
<mgrwt>
<rscale>  1 0.30000000E+03</rscale>
<asrwt>0</asrwt>
<pdfrwt beam="1">  1       21 0.66939204E-02 0.30000000E+03</pdfrwt>
<pdfrwt beam="2">0</pdfrwt>
<totfact> 0.17438620E+04</totfact>
</mgrwt>
</event>
<event>
 6    1  0.6513574E-002  0.3000000E+03  0.7818608E-02  0.1093470E+00
         21   -1    0    0  501  502  0.00000000000E+00  0.00000000000E+00  0.24684549269E+01  0.24684549269E+01  0.00000000000E+00 0. -1.
         13   -1    0    0    0    0 -0.00000000000E+00 -0.00000000000E+00 -0.10000000000E+04  0.10000000000E+04  0.00000000000E+00 0.  1.
    9000005    2    1    2  501    0  0.70813688498E+01  0.48841370590E+02 -0.44691027011E+03  0.44963989768E+03  0.34092213020E+01 0.  0.
         13    1    3    3    0    0  0.53805678093E+01  0.43665689922E+02 -0.39294013209E+03  0.39539548606E+03  0.00000000000E+00 0.  1.
          1    1    3    3  501    0  0.17008010405E+01  0.51756806678E+01 -0.53970138015E+02  0.54244411620E+02  0.00000000000E+00 0.  1.
         -3    1    1    2    0  502 -0.70813688498E+01 -0.48841370590E+02 -0.55062127496E+03  0.55282855725E+03  0.00000000000E+00 0. -1.
<mgrwt>
<rscale>  1 0.30000000E+03</rscale>
<asrwt>0</asrwt>
<pdfrwt beam="1">  1       21 0.89762187E-02 0.30000000E+03</pdfrwt>
<pdfrwt beam="2">0</pdfrwt>
<totfact> 0.10426846E+04</totfact>
</mgrwt>
</event>
<event>
 6    1  0.6513574E-002  0.3000000E+03  0.7818608E-02  0.1093470E+00
         21   -1    0    0  501  502  0.00000000000E+00  0.00000000000E+00  0.94769779385E+00  0.94769779385E+00  0.00000000000E+00 0. -1.
         13   -1    0    0    0    0 -0.00000000000E+00 -0.00000000000E+00 -0.10000000000E+04  0.10000000000E+04  0.00000000000E+00 0.  1.
    9000005    2    1    2  501    0  0.24948354702E+02 -0.17098620972E+02 -0.41546227929E+03  0.41657444543E+03  0.32526640769E+01 0.  0.
         13    1    3    3    0    0  0.10064106231E+02 -0.76657407633E+01 -0.19413795494E+03  0.19454972466E+03  0.00000000000E+00 0.  1.
          1    1    3    3  501    0  0.14884248470E+02 -0.94328802085E+01 -0.22132432435E+03  0.22202472077E+03  0.00000000000E+00 0.  1.
         -3    1    1    2    0  502 -0.24948354702E+02  0.17098620972E+02 -0.58359002291E+03  0.58437325237E+03  0.00000000000E+00 0. -1.
<mgrwt>
<rscale>  1 0.30000000E+03</rscale>
<asrwt>0</asrwt>
<pdfrwt beam="1">  1       21 0.34461811E-02 0.30000000E+03</pdfrwt>
<pdfrwt beam="2">0</pdfrwt>
<totfact> 0.53999201E+04</totfact>
</mgrwt>
</event>
<event>
 6    1  0.6513574E-002  0.3000000E+03  0.7818608E-02  0.1093470E+00
         21   -1    0    0  501  502  0.00000000000E+00  0.00000000000E+00  0.27584475811E+01  0.27584475811E+01  0.00000000000E+00 0. -1.
         13   -1    0    0    0    0 -0.00000000000E+00 -0.00000000000E+00 -0.10000000000E+04  0.10000000000E+04  0.00000000000E+00 0.  1.
    9000005    2    1    2  501    0 -0.29139330993E+02 -0.43452187789E+02 -0.53457684852E+03  0.53714506561E+03  0.39014489503E+01 0.  0.
         13    1    3    3    0    0 -0.65390525911E+01 -0.71300752330E+01 -0.94673906297E+02  0.95166936039E+02  0.00000000000E+00 0.  1.
          3    1    3    3  501    0 -0.22600278402E+02 -0.36322112556E+02 -0.43990294223E+03  0.44197812958E+03  0.00000000000E+00 0.  1.
         -3    1    1    2    0  502  0.29139330993E+02  0.43452187789E+02 -0.46266470390E+03  0.46561338197E+03  0.00000000000E+00 0. -1.
<mgrwt>
<rscale>  1 0.30000000E+03</rscale>
<asrwt>0</asrwt>
<pdfrwt beam="1">  1       21 0.10030740E-01 0.30000000E+03</pdfrwt>
<pdfrwt beam="2">0</pdfrwt>
<totfact> 0.85561405E+03</totfact>
</mgrwt>
</event>
<event>
 6    1  0.8380248E-002  0.3000000E+03  0.7818608E-02  0.1093470E+00
         21   -1    0    0  501  502  0.00000000000E+00  0.00000000000E+00  0.16474253723E+02  0.16474253723E+02  0.00000000000E+00 0. -1.
         13   -1    0    0    0    0 -0.00000000000E+00 -0.00000000000E+00 -0.10000000000E+04  0.10000000000E+04  0.00000000000E+00 0.  1.
    9000005    2    1    2  501    0 -0.94982778042E+02  0.86121894676E+02 -0.51361625287E+03  0.52938736121E+03  0.32579327483E+01 0.  0.
         13    1    3    3    0    0 -0.85793536581E+02  0.77681760485E+02 -0.46747551406E+03  0.48158939261E+03  0.00000000000E+00 0.  1.
          1    1    3    3  501    0 -0.91892414608E+01  0.84401341906E+01 -0.46140738813E+02  0.47797968597E+02  0.00000000000E+00 0.  1.
         -1    1    1    2    0  502  0.94982778042E+02 -0.86121894676E+02 -0.46990949340E+03  0.48708689251E+03  0.00000000000E+00 0. -1.
<mgrwt>
<rscale>  1 0.30000000E+03</rscale>
<asrwt>0</asrwt>
<pdfrwt beam="1">  1       21 0.59906503E-01 0.30000000E+03</pdfrwt>
<pdfrwt beam="2">0</pdfrwt>
<totfact> 0.25199334E+02</totfact>
</mgrwt>
</event>
<event>
 6    1  0.6513574E-002  0.3000000E+03  0.7818608E-02  0.1093470E+00
         21   -1    0    0  501  502  0.00000000000E+00  0.00000000000E+00  0.22737373037E+01  0.22737373037E+01  0.00000000000E+00 0. -1.
         13   -1    0    0    0    0 -0.00000000000E+00 -0.00000000000E+00 -0.10000000000E+04  0.10000000000E+04  0.00000000000E+00 0.  1.
    9000005    2    1    2  501    0  0.39857073042E+02 -0.14929770936E+02 -0.72412778503E+03  0.72538456938E+03  0.32000174491E+01 0.  0.
         13    1    3    3    0    0  0.12689333647E+02 -0.36197092014E+01 -0.20704003974E+03  0.20746011554E+03  0.00000000000E+00 0.  1.
          3    1    3    3  501    0  0.27167739396E+02 -0.11310061735E+02 -0.51708774529E+03  0.51792445384E+03  0.00000000000E+00 0.  1.
         -3    1    1    2    0  502 -0.39857073042E+02  0.14929770936E+02 -0.27359847767E+03  0.27688916792E+03  0.00000000000E+00 0. -1.
<mgrwt>
<rscale>  1 0.30000000E+03</rscale>
<asrwt>0</asrwt>
<pdfrwt beam="1">  1       21 0.82681531E-02 0.30000000E+03</pdfrwt>
<pdfrwt beam="2">0</pdfrwt>
<totfact> 0.12054461E+04</totfact>
</mgrwt>
</event>
<event>
 6    1  0.6513574E-002  0.3000000E+03  0.7818608E-02  0.1093470E+00
         21   -1    0    0  501  502  0.00000000000E+00  0.00000000000E+00  0.40396897538E+01  0.40396897538E+01  0.00000000000E+00 0. -1.
         13   -1    0    0    0    0 -0.00000000000E+00 -0.00000000000E+00 -0.10000000000E+04  0.10000000000E+04  0.00000000000E+00 0.  1.
    9000005    2    1    2  501    0  0.58630148896E+02  0.54149744618E+01 -0.31300736911E+03  0.31855333969E+03  0.59833775334E+01 0.  0.
         13    1    3    3    0    0  0.56366465676E+02  0.62980133981E+01 -0.29776657283E+03  0.30312006750E+03  0.00000000000E+00 0.  1.
          3    1    3    3  501    0  0.22636832202E+01 -0.88303893627E+00 -0.15240796275E+02  0.15433272192E+02  0.00000000000E+00 0.  1.
         -1    1    1    2    0  502 -0.58630148896E+02 -0.54149744618E+01 -0.68295294114E+03  0.68548635006E+03  0.00000000000E+00 0. -1.
<mgrwt>
<rscale>  1 0.30000000E+03</rscale>
<asrwt>0</asrwt>
<pdfrwt beam="1">  1       21 0.14689812E-01 0.30000000E+03</pdfrwt>
<pdfrwt beam="2">0</pdfrwt>
<totfact> 0.42802240E+03</totfact>
</mgrwt>
</event>
<event>
 6    1  0.6513574E-002  0.3000000E+03  0.7818608E-02  0.1093470E+00
         21   -1    0    0  501  502  0.00000000000E+00  0.00000000000E+00  0.13498728956E+01  0.13498728956E+01  0.00000000000E+00 0. -1.
         13   -1    0    0    0    0 -0.00000000000E+00 -0.00000000000E+00 -0.10000000000E+04  0.10000000000E+04  0.00000000000E+00 0.  1.
    9000005    2    1    2  501    0  0.14161135722E+02  0.30140569099E+02 -0.70931072887E+03  0.71010035952E+03  0.34378526221E+01 0.  0.
         13    1    3    3    0    0  0.10904841247E+02  0.23847993767E+02 -0.58571301921E+03  0.58629973840E+03  0.00000000000E+00 0.  1.
          3    1    3    3  501    0  0.32562944749E+01  0.62925753323E+01 -0.12359770966E+03  0.12380062112E+03  0.00000000000E+00 0.  1.
         -3    1    1    2    0  502 -0.14161135722E+02 -0.30140569099E+02 -0.28933939824E+03  0.29124951338E+03  0.00000000000E+00 0. -1.
<mgrwt>
<rscale>  1 0.30000000E+03</rscale>
<asrwt>0</asrwt>
<pdfrwt beam="1">  1       21 0.49086391E-02 0.30000000E+03</pdfrwt>
<pdfrwt beam="2">0</pdfrwt>
<totfact> 0.29724162E+04</totfact>
</mgrwt>
</event>
<event>
 6    1  0.6513574E-002  0.3000000E+03  0.7818608E-02  0.1093470E+00
         21   -1    0    0  501  502  0.00000000000E+00  0.00000000000E+00  0.12480932375E+01  0.12480932375E+01  0.00000000000E+00 0. -1.
         13   -1    0    0    0    0 -0.00000000000E+00 -0.00000000000E+00 -0.10000000000E+04  0.10000000000E+04  0.00000000000E+00 0.  1.
    9000005    2    1    2  501    0 -0.11397659254E+02 -0.32908247288E+02 -0.42248826459E+03  0.42393306255E+03  0.31699250149E+01 0.  0.
         13    1    3    3    0    0 -0.26552260517E+01 -0.12289182851E+02 -0.15375998787E+03  0.15427316069E+03  0.00000000000E+00 0.  1.
          3    1    3    3  501    0 -0.87424332024E+01 -0.20619064438E+02 -0.26872827673E+03  0.26965990186E+03  0.00000000000E+00 0.  1.
         -1    1    1    2    0  502  0.11397659254E+02  0.32908247288E+02 -0.57626364217E+03  0.57731503069E+03  0.00000000000E+00 0. -1.
<mgrwt>
<rscale>  1 0.30000000E+03</rscale>
<asrwt>0</asrwt>
<pdfrwt beam="1">  1       21 0.45385304E-02 0.30000000E+03</pdfrwt>
<pdfrwt beam="2">0</pdfrwt>
<totfact> 0.33963081E+04</totfact>
</mgrwt>
</event>
<event>
 6    1  0.6513574E-002  0.3000000E+03  0.7818608E-02  0.1093470E+00
         21   -1    0    0  501  502  0.00000000000E+00  0.00000000000E+00  0.10988304334E+01  0.10988304334E+01  0.00000000000E+00 0. -1.
         13   -1    0    0    0    0 -0.00000000000E+00 -0.00000000000E+00 -0.10000000000E+04  0.10000000000E+04  0.00000000000E+00 0.  1.
    9000005    2    1    2  501    0 -0.32810608054E+02  0.20014376780E+00 -0.44387456179E+03  0.44510322668E+03  0.39597643914E+01 0.  0.
         13    1    3    3    0    0 -0.26913896192E+02  0.19170902164E-01 -0.38253535975E+03  0.38348097688E+03  0.00000000000E+00 0.  1.
          1    1    3    3  501    0 -0.58967118622E+01  0.18097286564E+00 -0.61339202046E+02  0.61622249793E+02  0.00000000000E+00 0.  1.
         -1    1    1    2    0  502  0.32810608054E+02 -0.20014376780E+00 -0.55502660778E+03  0.55599560376E+03  0.00000000000E+00 0. -1.
<mgrwt>
<rscale>  1 0.30000000E+03</rscale>
<asrwt>0</asrwt>
<pdfrwt beam="1">  1       21 0.39957555E-02 0.30000000E+03</pdfrwt>
<pdfrwt beam="2">0</pdfrwt>
<totfact> 0.42122567E+04</totfact>
</mgrwt>
</event>
<event>
 6    1  0.6513574E-002  0.3000000E+03  0.7818608E-02  0.1093470E+00
         21   -1    0    0  501  502  0.00000000000E+00  0.00000000000E+00  0.19838467469E+01  0.19838467469E+01  0.00000000000E+00 0. -1.
         13   -1    0    0    0    0 -0.00000000000E+00 -0.00000000000E+00 -0.10000000000E+04  0.10000000000E+04  0.00000000000E+00 0.  1.
    9000005    2    1    2  501    0 -0.34137166222E+02 -0.27751864813E+02 -0.42521360589E+03  0.42749427297E+03  0.30382010822E+01 0.  0.
         13    1    3    3    0    0 -0.22299266437E+01 -0.11254421782E+01 -0.20063694774E+02  0.20218581575E+02  0.00000000000E+00 0.  1.
          1    1    3    3  501    0 -0.31907239578E+02 -0.26626422635E+02 -0.40514991112E+03  0.40727569139E+03  0.00000000000E+00 0.  1.
         -1    1    1    2    0  502  0.34137166222E+02  0.27751864813E+02 -0.57280254736E+03  0.57448957378E+03  0.00000000000E+00 0. -1.
<mgrwt>
<rscale>  1 0.30000000E+03</rscale>
<asrwt>0</asrwt>
<pdfrwt beam="1">  1       21 0.72140034E-02 0.30000000E+03</pdfrwt>
<pdfrwt beam="2">0</pdfrwt>
<totfact> 0.15310424E+04</totfact>
</mgrwt>
</event>
<event>
 6    1  0.6513574E-002  0.3000000E+03  0.7818608E-02  0.1093470E+00
         21   -1    0    0  501  502  0.00000000000E+00  0.00000000000E+00  0.97731031133E+00  0.97731031133E+00  0.00000000000E+00 0. -1.
         13   -1    0    0    0    0 -0.00000000000E+00 -0.00000000000E+00 -0.10000000000E+04  0.10000000000E+04  0.00000000000E+00 0.  1.
    9000005    2    1    2  501    0  0.29834421442E+02  0.87849426639E+01 -0.46493339391E+03  0.46598325073E+03  0.31719503731E+01 0.  0.
         13    1    3    3    0    0  0.25487452335E+02  0.71612556899E+01 -0.37787701710E+03  0.37880329177E+03  0.00000000000E+00 0.  1.
          3    1    3    3  501    0  0.43469691075E+01  0.16236869739E+01 -0.87056376815E+02  0.87179958959E+02  0.00000000000E+00 0.  1.
         -3    1    1    2    0  502 -0.29834421442E+02 -0.87849426639E+01 -0.53408929578E+03  0.53499405958E+03  0.00000000000E+00 0. -1.
<mgrwt>
<rscale>  1 0.30000000E+03</rscale>
<asrwt>0</asrwt>
<pdfrwt beam="1">  1       21 0.35538632E-02 0.30000000E+03</pdfrwt>
<pdfrwt beam="2">0</pdfrwt>
<totfact> 0.51287560E+04</totfact>
</mgrwt>
</event>
<event>
 6    1  0.6513574E-002  0.3000000E+03  0.7818608E-02  0.1093470E+00
         21   -1    0    0  501  502  0.00000000000E+00  0.00000000000E+00  0.12356111816E+01  0.12356111816E+01  0.00000000000E+00 0. -1.
         13   -1    0    0    0    0 -0.00000000000E+00 -0.00000000000E+00 -0.10000000000E+04  0.10000000000E+04  0.00000000000E+00 0.  1.
    9000005    2    1    2  501    0  0.21388881109E+00  0.35051972756E+02 -0.52372196876E+03  0.52490170792E+03  0.29010122125E+01 0.  0.
         13    1    3    3    0    0  0.92660257724E-01  0.34564839787E+02 -0.50963910682E+03  0.51080990196E+03  0.00000000000E+00 0.  1.
          1    1    3    3  501    0  0.12122855337E+00  0.48713296862E+00 -0.14082861944E+02  0.14091805968E+02  0.00000000000E+00 0.  1.
         -1    1    1    2    0  502 -0.21388881109E+00 -0.35051972756E+02 -0.47504242005E+03  0.47633390326E+03  0.00000000000E+00 0. -1.
<mgrwt>
<rscale>  1 0.30000000E+03</rscale>
<asrwt>0</asrwt>
<pdfrwt beam="1">  1       21 0.44931410E-02 0.30000000E+03</pdfrwt>
<pdfrwt beam="2">0</pdfrwt>
<totfact> 0.34547491E+04</totfact>
</mgrwt>
</event>
<event>
 6    1  0.6513574E-002  0.3000000E+03  0.7818608E-02  0.1093470E+00
         21   -1    0    0  501  502  0.00000000000E+00  0.00000000000E+00  0.10468035499E+01  0.10468035499E+01  0.00000000000E+00 0. -1.
         13   -1    0    0    0    0 -0.00000000000E+00 -0.00000000000E+00 -0.10000000000E+04  0.10000000000E+04  0.00000000000E+00 0.  1.
    9000005    2    1    2  501    0 -0.15065871825E+01 -0.30679485182E+02 -0.65171636691E+03  0.65245403770E+03  0.43067148219E+01 0.  0.
         13    1    3    3    0    0  0.10273272183E+01 -0.32062919230E+01 -0.84564373982E+02  0.84631371584E+02  0.00000000000E+00 0.  1.
          1    1    3    3  501    0 -0.25339144007E+01 -0.27473193259E+02 -0.56715199293E+03  0.56782266611E+03  0.00000000000E+00 0.  1.
         -1    1    1    2    0  502  0.15065871825E+01  0.30679485182E+02 -0.34723682954E+03  0.34859276585E+03  0.00000000000E+00 0. -1.
<mgrwt>
<rscale>  1 0.30000000E+03</rscale>
<asrwt>0</asrwt>
<pdfrwt beam="1">  1       21 0.38065664E-02 0.30000000E+03</pdfrwt>
<pdfrwt beam="2">0</pdfrwt>
<totfact> 0.45703309E+04</totfact>
</mgrwt>
</event>
<event>
 6    1  0.6513574E-002  0.3000000E+03  0.7818608E-02  0.1093470E+00
         21   -1    0    0  501  502  0.00000000000E+00  0.00000000000E+00  0.12434018644E+01  0.12434018644E+01  0.00000000000E+00 0. -1.
         13   -1    0    0    0    0 -0.00000000000E+00 -0.00000000000E+00 -0.10000000000E+04  0.10000000000E+04  0.00000000000E+00 0.  1.
    9000005    2    1    2  501    0 -0.16224578675E+02  0.26466669163E+02 -0.72883492155E+03  0.72954240256E+03  0.82494084018E+01 0.  0.
         13    1    3    3    0    0 -0.10535786253E+02  0.12725787499E+02 -0.45983075749E+03  0.46012745408E+03  0.00000000000E+00 0.  1.
          3    1    3    3  501    0 -0.56887924227E+01  0.13740881664E+02 -0.26900416406E+03  0.26941494849E+03  0.00000000000E+00 0.  1.
         -1    1    1    2    0  502  0.16224578675E+02 -0.26466669163E+02 -0.26992167659E+03  0.27170099930E+03  0.00000000000E+00 0. -1.
<mgrwt>
<rscale>  1 0.30000000E+03</rscale>
<asrwt>0</asrwt>
<pdfrwt beam="1">  1       21 0.45214709E-02 0.30000000E+03</pdfrwt>
<pdfrwt beam="2">0</pdfrwt>
<totfact> 0.34180932E+04</totfact>
</mgrwt>
</event>
<event>
 6    1  0.6513574E-002  0.3000000E+03  0.7818608E-02  0.1093470E+00
         21   -1    0    0  501  502  0.00000000000E+00  0.00000000000E+00  0.23951060468E+01  0.23951060468E+01  0.00000000000E+00 0. -1.
         13   -1    0    0    0    0 -0.00000000000E+00 -0.00000000000E+00 -0.10000000000E+04  0.10000000000E+04  0.00000000000E+00 0.  1.
    9000005    2    1    2  501    0  0.29159168177E+02  0.28070162230E+02 -0.21922678228E+03  0.22296539413E+03  0.38721843417E+01 0.  0.
         13    1    3    3    0    0  0.20016405810E+02  0.21097532398E+02 -0.15065335588E+03  0.15343466366E+03  0.00000000000E+00 0.  1.
          3    1    3    3  501    0  0.91427623665E+01  0.69726298322E+01 -0.68573426404E+02  0.69530730467E+02  0.00000000000E+00 0.  1.
         -1    1    1    2    0  502 -0.29159168177E+02 -0.28070162230E+02 -0.77837811167E+03  0.77942971192E+03  0.00000000000E+00 0. -1.
<mgrwt>
<rscale>  1 0.30000000E+03</rscale>
<asrwt>0</asrwt>
<pdfrwt beam="1">  1       21 0.87094949E-02 0.30000000E+03</pdfrwt>
<pdfrwt beam="2">0</pdfrwt>
<totfact> 0.10998323E+04</totfact>
</mgrwt>
</event>
<event>
 6    1  0.6513574E-002  0.3000000E+03  0.7818608E-02  0.1093470E+00
         21   -1    0    0  501  502  0.00000000000E+00  0.00000000000E+00  0.12137320312E+02  0.12137320312E+02  0.00000000000E+00 0. -1.
         13   -1    0    0    0    0 -0.00000000000E+00 -0.00000000000E+00 -0.10000000000E+04  0.10000000000E+04  0.00000000000E+00 0.  1.
    9000005    2    1    2  501    0 -0.59303032418E+02  0.70923460573E+02 -0.21895410756E+03  0.23769082171E+03  0.30064250856E+01 0.  0.
         13    1    3    3    0    0 -0.56279074033E+02  0.66266554139E+02 -0.20644337506E+03  0.22400325328E+03  0.00000000000E+00 0.  1.
          1    1    3    3  501    0 -0.30239583847E+01  0.46569064335E+01 -0.12510732497E+02  0.13687568428E+02  0.00000000000E+00 0.  1.
         -3    1    1    2    0  502  0.59303032418E+02 -0.70923460573E+02 -0.76890857213E+03  0.77444649861E+03  0.00000000000E+00 0. -1.
<mgrwt>
<rscale>  1 0.30000000E+03</rscale>
<asrwt>0</asrwt>
<pdfrwt beam="1">  1       21 0.44135803E-01 0.30000000E+03</pdfrwt>
<pdfrwt beam="2">0</pdfrwt>
<totfact> 0.49091542E+02</totfact>
</mgrwt>
</event>
<event>
 6    1  0.6513574E-002  0.3000000E+03  0.7818608E-02  0.1093470E+00
         21   -1    0    0  501  502  0.00000000000E+00  0.00000000000E+00  0.29075090721E+01  0.29075090721E+01  0.00000000000E+00 0. -1.
         13   -1    0    0    0    0 -0.00000000000E+00 -0.00000000000E+00 -0.10000000000E+04  0.10000000000E+04  0.00000000000E+00 0.  1.
    9000005    2    1    2  501    0  0.31894505848E+02 -0.41397662759E+02 -0.62132789567E+03  0.62352635899E+03  0.23959210151E+01 0.  0.
         13    1    3    3    0    0  0.19768671946E+02 -0.27522390197E+02 -0.40397373545E+03  0.40539247808E+03  0.00000000000E+00 0.  1.
          3    1    3    3  501    0  0.12125833901E+02 -0.13875272562E+02 -0.21735416022E+03  0.21813388091E+03  0.00000000000E+00 0.  1.
         -3    1    1    2    0  502 -0.31894505848E+02  0.41397662759E+02 -0.37576459526E+03  0.37938115008E+03  0.00000000000E+00 0. -1.
<mgrwt>
<rscale>  1 0.30000000E+03</rscale>
<asrwt>0</asrwt>
<pdfrwt beam="1">  1       21 0.10572783E-01 0.30000000E+03</pdfrwt>
<pdfrwt beam="2">0</pdfrwt>
<totfact> 0.77868238E+03</totfact>
</mgrwt>
</event>
<event>
 6    1  0.6513574E-002  0.3000000E+03  0.7818608E-02  0.1093470E+00
         21   -1    0    0  501  502  0.00000000000E+00  0.00000000000E+00  0.24305153880E+01  0.24305153880E+01  0.00000000000E+00 0. -1.
         13   -1    0    0    0    0 -0.00000000000E+00 -0.00000000000E+00 -0.10000000000E+04  0.10000000000E+04  0.00000000000E+00 0.  1.
    9000005    2    1    2  501    0 -0.31050788202E+02  0.62897640586E+01 -0.11657286928E+03  0.12086443800E+03  0.39071652495E+01 0.  0.
         13    1    3    3    0    0 -0.19599981217E+02  0.58810163271E+01 -0.74609460291E+02  0.77364831685E+02  0.00000000000E+00 0.  1.
          1    1    3    3  501    0 -0.11450806986E+02  0.40874773148E+00 -0.41963408990E+02  0.43499606313E+02  0.00000000000E+00 0.  1.
         -3    1    1    2    0  502  0.31050788202E+02 -0.62897640586E+01 -0.88099661533E+03  0.88156607739E+03  0.00000000000E+00 0. -1.
<mgrwt>
<rscale>  1 0.30000000E+03</rscale>
<asrwt>0</asrwt>
<pdfrwt beam="1">  1       21 0.88382564E-02 0.30000000E+03</pdfrwt>
<pdfrwt beam="2">0</pdfrwt>
<totfact> 0.10716662E+04</totfact>
</mgrwt>
</event>
<event>
 6    1  0.6513574E-002  0.3000000E+03  0.7818608E-02  0.1093470E+00
         21   -1    0    0  501  502  0.00000000000E+00  0.00000000000E+00  0.12227049048E+01  0.12227049048E+01  0.00000000000E+00 0. -1.
         13   -1    0    0    0    0 -0.00000000000E+00 -0.00000000000E+00 -0.10000000000E+04  0.10000000000E+04  0.00000000000E+00 0.  1.
    9000005    2    1    2  501    0  0.29265106321E+02 -0.17652045671E+02 -0.57581656729E+03  0.57688343212E+03  0.78570937040E+01 0.  0.
         13    1    3    3    0    0  0.51209097509E+01 -0.64976274419E+01 -0.11217595325E+03  0.11248060885E+03  0.00000000000E+00 0.  1.
          3    1    3    3  501    0  0.24144196570E+02 -0.11154418229E+02 -0.46364061403E+03  0.46440282326E+03  0.00000000000E+00 0.  1.
         -3    1    1    2    0  502 -0.29265106321E+02  0.17652045671E+02 -0.42296072781E+03  0.42433927279E+03  0.00000000000E+00 0. -1.
<mgrwt>
<rscale>  1 0.30000000E+03</rscale>
<asrwt>0</asrwt>
<pdfrwt beam="1">  1       21 0.44462090E-02 0.30000000E+03</pdfrwt>
<pdfrwt beam="2">0</pdfrwt>
<totfact> 0.35168232E+04</totfact>
</mgrwt>
</event>
<event>
 6    1  0.6513574E-002  0.3000000E+03  0.7818608E-02  0.1093470E+00
         21   -1    0    0  501  502  0.00000000000E+00  0.00000000000E+00  0.11272549699E+01  0.11272549699E+01  0.00000000000E+00 0. -1.
         13   -1    0    0    0    0 -0.00000000000E+00 -0.00000000000E+00 -0.10000000000E+04  0.10000000000E+04  0.00000000000E+00 0.  1.
    9000005    2    1    2  501    0  0.30809298150E+02 -0.43367678778E+01 -0.31333305114E+03  0.31488189629E+03  0.22332191148E+01 0.  0.
         13    1    3    3    0    0  0.32723427285E+00  0.71114823506E-01 -0.60317664299E+01  0.60410550280E+01  0.00000000000E+00 0.  1.
          3    1    3    3  501    0  0.30482063877E+02 -0.44078827013E+01 -0.30730128471E+03  0.30884084127E+03  0.00000000000E+00 0.  1.
         -3    1    1    2    0  502 -0.30809298150E+02  0.43367678778E+01 -0.68553969389E+03  0.68624535868E+03  0.00000000000E+00 0. -1.
<mgrwt>
<rscale>  1 0.30000000E+03</rscale>
<asrwt>0</asrwt>
<pdfrwt beam="1">  1       21 0.40991176E-02 0.30000000E+03</pdfrwt>
<pdfrwt beam="2">0</pdfrwt>
<totfact> 0.40348277E+04</totfact>
</mgrwt>
</event>
<event>
 6    1  0.6513574E-002  0.3000000E+03  0.7818608E-02  0.1093470E+00
         21   -1    0    0  501  502  0.00000000000E+00  0.00000000000E+00  0.16372788290E+01  0.16372788290E+01  0.00000000000E+00 0. -1.
         13   -1    0    0    0    0 -0.00000000000E+00 -0.00000000000E+00 -0.10000000000E+04  0.10000000000E+04  0.00000000000E+00 0.  1.
    9000005    2    1    2  501    0  0.28930993828E+02 -0.27367852519E+02 -0.41561059685E+03  0.41752595369E+03  0.31228248509E+01 0.  0.
         13    1    3    3    0    0  0.14591464875E+02 -0.13206029471E+02 -0.22102449437E+03  0.22189893459E+03  0.00000000000E+00 0.  1.
          1    1    3    3  501    0  0.14339528954E+02 -0.14161823047E+02 -0.19458610248E+03  0.19562701909E+03  0.00000000000E+00 0.  1.
         -3    1    1    2    0  502 -0.28930993828E+02  0.27367852519E+02 -0.58275212432E+03  0.58411132514E+03  0.00000000000E+00 0. -1.
<mgrwt>
<rscale>  1 0.30000000E+03</rscale>
<asrwt>0</asrwt>
<pdfrwt beam="1">  1       21 0.59537538E-02 0.30000000E+03</pdfrwt>
<pdfrwt beam="2">0</pdfrwt>
<totfact> 0.21354698E+04</totfact>
</mgrwt>
</event>
<event>
 6    1  0.6513574E-002  0.3000000E+03  0.7818608E-02  0.1093470E+00
         21   -1    0    0  501  502  0.00000000000E+00  0.00000000000E+00  0.93244411027E+00  0.93244411027E+00  0.00000000000E+00 0. -1.
         13   -1    0    0    0    0 -0.00000000000E+00 -0.00000000000E+00 -0.10000000000E+04  0.10000000000E+04  0.00000000000E+00 0.  1.
    9000005    2    1    2  501    0  0.30192736472E+02 -0.24361027720E+01 -0.55154966191E+03  0.55239058278E+03  0.32848835697E+01 0.  0.
         13    1    3    3    0    0  0.11425995193E+02 -0.23396613578E+01 -0.19808005268E+03  0.19842312025E+03  0.00000000000E+00 0.  1.
          3    1    3    3  501    0  0.18766741279E+02 -0.96441414228E-01 -0.35346960923E+03  0.35396746253E+03  0.00000000000E+00 0.  1.
         -3    1    1    2    0  502 -0.30192736472E+02  0.24361027720E+01 -0.44751789398E+03  0.44854186133E+03  0.00000000000E+00 0. -1.
<mgrwt>
<rscale>  1 0.30000000E+03</rscale>
<asrwt>0</asrwt>
<pdfrwt beam="1">  1       21 0.33907130E-02 0.30000000E+03</pdfrwt>
<pdfrwt beam="2">0</pdfrwt>
<totfact> 0.55484027E+04</totfact>
</mgrwt>
</event>
<event>
 6    1  0.6513574E-002  0.3000000E+03  0.7818608E-02  0.1093470E+00
         21   -1    0    0  501  502  0.00000000000E+00  0.00000000000E+00  0.80162068901E+01  0.80162068901E+01  0.00000000000E+00 0. -1.
         13   -1    0    0    0    0 -0.00000000000E+00 -0.00000000000E+00 -0.10000000000E+04  0.10000000000E+04  0.00000000000E+00 0.  1.
    9000005    2    1    2  501    0 -0.44054504464E+02  0.40348027193E+02 -0.87124704850E+03  0.87330865639E+03  0.52751445861E+01 0.  0.
         13    1    3    3    0    0 -0.10144437742E+02  0.74449370533E+01 -0.20864130307E+03  0.20902040583E+03  0.00000000000E+00 0.  1.
          1    1    3    3  501    0 -0.33910066722E+02  0.32903090139E+02 -0.66260574542E+03  0.66428825056E+03  0.00000000000E+00 0.  1.
         -3    1    1    2    0  502  0.44054504464E+02 -0.40348027193E+02 -0.12073674461E+03  0.13470755050E+03  0.00000000000E+00 0. -1.
<mgrwt>
<rscale>  1 0.30000000E+03</rscale>
<asrwt>0</asrwt>
<pdfrwt beam="1">  1       21 0.29149905E-01 0.30000000E+03</pdfrwt>
<pdfrwt beam="2">0</pdfrwt>
<totfact> 0.11515028E+03</totfact>
</mgrwt>
</event>
<event>
 6    1  0.6513574E-002  0.3000000E+03  0.7818608E-02  0.1093470E+00
         21   -1    0    0  501  502  0.00000000000E+00  0.00000000000E+00  0.11410631676E+01  0.11410631676E+01  0.00000000000E+00 0. -1.
         13   -1    0    0    0    0 -0.00000000000E+00 -0.00000000000E+00 -0.10000000000E+04  0.10000000000E+04  0.00000000000E+00 0.  1.
    9000005    2    1    2  501    0  0.59623632969E+01 -0.33113710600E+02 -0.47772126766E+03  0.47891837328E+03  0.36236835203E+01 0.  0.
         13    1    3    3    0    0  0.29354342763E+01 -0.24910442870E+02 -0.36018626675E+03  0.36105857377E+03  0.00000000000E+00 0.  1.
          1    1    3    3  501    0  0.30269290207E+01 -0.82032677294E+01 -0.11753500091E+03  0.11785979950E+03  0.00000000000E+00 0.  1.
         -3    1    1    2    0  502 -0.59623632969E+01  0.33113710600E+02 -0.52113766917E+03  0.52222268989E+03  0.00000000000E+00 0. -1.
<mgrwt>
<rscale>  1 0.30000000E+03</rscale>
<asrwt>0</asrwt>
<pdfrwt beam="1">  1       21 0.41493294E-02 0.30000000E+03</pdfrwt>
<pdfrwt beam="2">0</pdfrwt>
<totfact> 0.39528101E+04</totfact>
</mgrwt>
</event>
<event>
 6    1  0.6513574E-002  0.3000000E+03  0.7818608E-02  0.1093470E+00
         21   -1    0    0  501  502  0.00000000000E+00  0.00000000000E+00  0.13303362861E+01  0.13303362861E+01  0.00000000000E+00 0. -1.
         13   -1    0    0    0    0 -0.00000000000E+00 -0.00000000000E+00 -0.10000000000E+04  0.10000000000E+04  0.00000000000E+00 0.  1.
    9000005    2    1    2  501    0  0.74661323833E+01 -0.33833919631E+02 -0.65332842604E+03  0.65425534772E+03  0.33986022577E+01 0.  0.
         13    1    3    3    0    0  0.57812574580E+01 -0.18665120026E+02 -0.37536689593E+03  0.37587513379E+03  0.00000000000E+00 0.  1.
          1    1    3    3  501    0  0.16848749253E+01 -0.15168799606E+02 -0.27796153011E+03  0.27838021393E+03  0.00000000000E+00 0.  1.
         -3    1    1    2    0  502 -0.74661323833E+01  0.33833919631E+02 -0.34534123767E+03  0.34707498856E+03  0.00000000000E+00 0. -1.
<mgrwt>
<rscale>  1 0.30000000E+03</rscale>
<asrwt>0</asrwt>
<pdfrwt beam="1">  1       21 0.48375967E-02 0.30000000E+03</pdfrwt>
<pdfrwt beam="2">0</pdfrwt>
<totfact> 0.30471238E+04</totfact>
</mgrwt>
</event>
<event>
 6    1  0.6513574E-002  0.3000000E+03  0.7818608E-02  0.1093470E+00
         21   -1    0    0  501  502  0.00000000000E+00  0.00000000000E+00  0.11992547344E+01  0.11992547344E+01  0.00000000000E+00 0. -1.
         13   -1    0    0    0    0 -0.00000000000E+00 -0.00000000000E+00 -0.10000000000E+04  0.10000000000E+04  0.00000000000E+00 0.  1.
    9000005    2    1    2  501    0  0.21483267338E+02  0.25347200033E+02 -0.36400441095E+03  0.36553393604E+03  0.34403319273E+01 0.  0.
         13    1    3    3    0    0  0.83119213475E+01  0.11918367048E+02 -0.14753677629E+03  0.14825058471E+03  0.00000000000E+00 0.  1.
          1    1    3    3  501    0  0.13171345990E+02  0.13428832986E+02 -0.21646763466E+03  0.21728335133E+03  0.00000000000E+00 0.  1.
         -3    1    1    2    0  502 -0.21483267338E+02 -0.25347200033E+02 -0.63479633432E+03  0.63566531869E+03  0.00000000000E+00 0. -1.
<mgrwt>
<rscale>  1 0.30000000E+03</rscale>
<asrwt>0</asrwt>
<pdfrwt beam="1">  1       21 0.43609355E-02 0.30000000E+03</pdfrwt>
<pdfrwt beam="2">0</pdfrwt>
<totfact> 0.36341096E+04</totfact>
</mgrwt>
</event>
<event>
 6    1  0.6513574E-002  0.3000000E+03  0.7818608E-02  0.1093470E+00
         21   -1    0    0  501  502  0.00000000000E+00  0.00000000000E+00  0.98257359269E+00  0.98257359269E+00  0.00000000000E+00 0. -1.
         13   -1    0    0    0    0 -0.00000000000E+00 -0.00000000000E+00 -0.10000000000E+04  0.10000000000E+04  0.00000000000E+00 0.  1.
    9000005    2    1    2  501    0 -0.23865074452E+02 -0.19692301202E+02 -0.42891553943E+03  0.43004169220E+03  0.31604690100E+01 0.  0.
         13    1    3    3    0    0 -0.37712259810E+01 -0.44770601418E+01 -0.72314185972E+02  0.72550725053E+02  0.00000000000E+00 0.  1.
          1    1    3    3  501    0 -0.20093848471E+02 -0.15215241060E+02 -0.35660135345E+03  0.35749096715E+03  0.00000000000E+00 0.  1.
         -3    1    1    2    0  502  0.23865074452E+02  0.19692301202E+02 -0.57010188698E+03  0.57094088139E+03  0.00000000000E+00 0. -1.
<mgrwt>
<rscale>  1 0.30000000E+03</rscale>
<asrwt>0</asrwt>
<pdfrwt beam="1">  1       21 0.35730024E-02 0.30000000E+03</pdfrwt>
<pdfrwt beam="2">0</pdfrwt>
<totfact> 0.50827828E+04</totfact>
</mgrwt>
</event>
<event>
 6    1  0.6513574E-002  0.3000000E+03  0.7818608E-02  0.1093470E+00
         21   -1    0    0  501  502  0.00000000000E+00  0.00000000000E+00  0.10959496645E+01  0.10959496645E+01  0.00000000000E+00 0. -1.
         13   -1    0    0    0    0 -0.00000000000E+00 -0.00000000000E+00 -0.10000000000E+04  0.10000000000E+04  0.00000000000E+00 0.  1.
    9000005    2    1    2  501    0  0.30751493905E+02 -0.46737919627E+01 -0.66911173988E+03  0.66984005652E+03  0.27716713579E+01 0.  0.
         13    1    3    3    0    0  0.54961293131E+01  0.16707848975E+00 -0.12573632144E+03  0.12585649718E+03  0.00000000000E+00 0.  1.
          3    1    3    3  501    0  0.25255364592E+02 -0.48408704524E+01 -0.54337541844E+03  0.54398355934E+03  0.00000000000E+00 0.  1.
         -1    1    1    2    0  502 -0.30751493905E+02  0.46737919627E+01 -0.32979231045E+03  0.33125589314E+03  0.00000000000E+00 0. -1.
<mgrwt>
<rscale>  1 0.30000000E+03</rscale>
<asrwt>0</asrwt>
<pdfrwt beam="1">  1       21 0.39852799E-02 0.30000000E+03</pdfrwt>
<pdfrwt beam="2">0</pdfrwt>
<totfact> 0.42309171E+04</totfact>
</mgrwt>
</event>
<event>
 6    1  0.6513574E-002  0.3000000E+03  0.7818608E-02  0.1093470E+00
         21   -1    0    0  501  502  0.00000000000E+00  0.00000000000E+00  0.30633323589E+01  0.30633323589E+01  0.00000000000E+00 0. -1.
         13   -1    0    0    0    0 -0.00000000000E+00 -0.00000000000E+00 -0.10000000000E+04  0.10000000000E+04  0.00000000000E+00 0.  1.
    9000005    2    1    2  501    0 -0.35986400882E+02 -0.41001422154E+02 -0.41962460068E+03  0.42317941266E+03  0.44578173953E+01 0.  0.
         13    1    3    3    0    0 -0.12788738797E+02 -0.12015772891E+02 -0.14428689661E+03  0.14535005735E+03  0.00000000000E+00 0.  1.
          1    1    3    3  501    0 -0.23197662086E+02 -0.28985649262E+02 -0.27533770408E+03  0.27782935532E+03  0.00000000000E+00 0.  1.
         -3    1    1    2    0  502  0.35986400882E+02  0.41001422154E+02 -0.57731206696E+03  0.57988391970E+03  0.00000000000E+00 0. -1.
<mgrwt>
<rscale>  1 0.30000000E+03</rscale>
<asrwt>0</asrwt>
<pdfrwt beam="1">  1       21 0.11139414E-01 0.30000000E+03</pdfrwt>
<pdfrwt beam="2">0</pdfrwt>
<totfact> 0.70894597E+03</totfact>
</mgrwt>
</event>
<event>
 6    1  0.6513574E-002  0.3000000E+03  0.7818608E-02  0.1093470E+00
         21   -1    0    0  501  502  0.00000000000E+00  0.00000000000E+00  0.27456303877E+01  0.27456303877E+01  0.00000000000E+00 0. -1.
         13   -1    0    0    0    0 -0.00000000000E+00 -0.00000000000E+00 -0.10000000000E+04  0.10000000000E+04  0.00000000000E+00 0.  1.
    9000005    2    1    2  501    0  0.45790182717E+02  0.25007559428E+02 -0.50766056984E+03  0.51037970180E+03  0.67872655744E+01 0.  0.
         13    1    3    3    0    0  0.35516816080E+02  0.16441309354E+02 -0.39156661716E+03  0.39351769535E+03  0.00000000000E+00 0.  1.
          3    1    3    3  501    0  0.10273366637E+02  0.85662500732E+01 -0.11609395268E+03  0.11686200645E+03  0.00000000000E+00 0.  1.
         -3    1    1    2    0  502 -0.45790182717E+02 -0.25007559428E+02 -0.48959379977E+03  0.49236592859E+03  0.00000000000E+00 0. -1.
<mgrwt>
<rscale>  1 0.30000000E+03</rscale>
<asrwt>0</asrwt>
<pdfrwt beam="1">  1       21 0.99841316E-02 0.30000000E+03</pdfrwt>
<pdfrwt beam="2">0</pdfrwt>
<totfact> 0.86276443E+03</totfact>
</mgrwt>
</event>
<event>
 6    1  0.6513574E-002  0.3000000E+03  0.7818608E-02  0.1093470E+00
         21   -1    0    0  501  502  0.00000000000E+00  0.00000000000E+00  0.15226396124E+01  0.15226396124E+01  0.00000000000E+00 0. -1.
         13   -1    0    0    0    0 -0.00000000000E+00 -0.00000000000E+00 -0.10000000000E+04  0.10000000000E+04  0.00000000000E+00 0.  1.
    9000005    2    1    2  501    0 -0.35436157704E+02  0.85800320366E+01 -0.32373241246E+03  0.32579334250E+03  0.30477725371E+01 0.  0.
         13    1    3    3    0    0 -0.20149319876E+02  0.61037814100E+01 -0.17825322818E+03  0.17949224105E+03  0.00000000000E+00 0.  1.
          1    1    3    3  501    0 -0.15286837828E+02  0.24762506266E+01 -0.14547918428E+03  0.14630110145E+03  0.00000000000E+00 0.  1.
         -3    1    1    2    0  502  0.35436157704E+02 -0.85800320366E+01 -0.67474494793E+03  0.67572929711E+03  0.00000000000E+00 0. -1.
<mgrwt>
<rscale>  1 0.30000000E+03</rscale>
<asrwt>0</asrwt>
<pdfrwt beam="1">  1       21 0.55368830E-02 0.30000000E+03</pdfrwt>
<pdfrwt beam="2">0</pdfrwt>
<totfact> 0.24195202E+04</totfact>
</mgrwt>
</event>
<event>
 6    1  0.6513574E-002  0.3000000E+03  0.7818608E-02  0.1093470E+00
         21   -1    0    0  501  502  0.00000000000E+00  0.00000000000E+00  0.19634005591E+01  0.19634005591E+01  0.00000000000E+00 0. -1.
         13   -1    0    0    0    0 -0.00000000000E+00 -0.00000000000E+00 -0.10000000000E+04  0.10000000000E+04  0.00000000000E+00 0.  1.
    9000005    2    1    2  501    0  0.43013099110E+02 -0.68119741376E+01 -0.41277418149E+03  0.41508298041E+03  0.38504592069E+01 0.  0.
         13    1    3    3    0    0  0.84010579028E+01 -0.28951260033E+01 -0.83422384358E+02  0.83894301001E+02  0.00000000000E+00 0.  1.
          3    1    3    3  501    0  0.34612041207E+02 -0.39168481344E+01 -0.32935179713E+03  0.33118867941E+03  0.00000000000E+00 0.  1.
         -1    1    1    2    0  502 -0.43013099110E+02  0.68119741376E+01 -0.58526241795E+03  0.58688042015E+03  0.00000000000E+00 0. -1.
<mgrwt>
<rscale>  1 0.30000000E+03</rscale>
<asrwt>0</asrwt>
<pdfrwt beam="1">  1       21 0.71396535E-02 0.30000000E+03</pdfrwt>
<pdfrwt beam="2">0</pdfrwt>
<totfact> 0.15589564E+04</totfact>
</mgrwt>
</event>
<event>
 6    1  0.6513574E-002  0.3000000E+03  0.7818608E-02  0.1093470E+00
         21   -1    0    0  501  502  0.00000000000E+00  0.00000000000E+00  0.13255559992E+01  0.13255559992E+01  0.00000000000E+00 0. -1.
         13   -1    0    0    0    0 -0.00000000000E+00 -0.00000000000E+00 -0.10000000000E+04  0.10000000000E+04  0.00000000000E+00 0.  1.
    9000005    2    1    2  501    0  0.64953531049E+01  0.30385327870E+02 -0.75924725087E+03  0.75989059877E+03  0.34462129365E+01 0.  0.
         13    1    3    3    0    0  0.15745979183E+01  0.47452061796E+01 -0.96725004922E+02  0.96854132165E+02  0.00000000000E+00 0.  1.
          3    1    3    3  501    0  0.49207551867E+01  0.25640121691E+02 -0.66252224595E+03  0.66303646661E+03  0.00000000000E+00 0.  1.
         -1    1    1    2    0  502 -0.64953531049E+01 -0.30385327870E+02 -0.23942719313E+03  0.24143495723E+03  0.00000000000E+00 0. -1.
<mgrwt>
<rscale>  1 0.30000000E+03</rscale>
<asrwt>0</asrwt>
<pdfrwt beam="1">  1       21 0.48202138E-02 0.30000000E+03</pdfrwt>
<pdfrwt beam="2">0</pdfrwt>
<totfact> 0.30658505E+04</totfact>
</mgrwt>
</event>
<event>
 6    1  0.6513574E-002  0.3000000E+03  0.7818608E-02  0.1093470E+00
         21   -1    0    0  501  502  0.00000000000E+00  0.00000000000E+00  0.10197605534E+01  0.10197605534E+01  0.00000000000E+00 0. -1.
         13   -1    0    0    0    0 -0.00000000000E+00 -0.00000000000E+00 -0.10000000000E+04  0.10000000000E+04  0.00000000000E+00 0.  1.
    9000005    2    1    2  501    0 -0.25116257973E+02 -0.18031794369E+02 -0.62048309508E+03  0.62126186358E+03  0.33256325280E+01 0.  0.
         13    1    3    3    0    0 -0.15238967366E+02 -0.93444860777E+01 -0.33707201738E+03  0.33754568646E+03  0.00000000000E+00 0.  1.
          3    1    3    3  501    0 -0.98772906066E+01 -0.86873082908E+01 -0.28341107770E+03  0.28371617712E+03  0.00000000000E+00 0.  1.
         -1    1    1    2    0  502  0.25116257973E+02  0.18031794369E+02 -0.37849714437E+03  0.37975789698E+03  0.00000000000E+00 0. -1.
<mgrwt>
<rscale>  1 0.30000000E+03</rscale>
<asrwt>0</asrwt>
<pdfrwt beam="1">  1       21 0.37082280E-02 0.30000000E+03</pdfrwt>
<pdfrwt beam="2">0</pdfrwt>
<totfact> 0.47757042E+04</totfact>
</mgrwt>
</event>
<event>
 6    1  0.6513574E-002  0.3000000E+03  0.7818608E-02  0.1093470E+00
         21   -1    0    0  501  502  0.00000000000E+00  0.00000000000E+00  0.12442917476E+01  0.12442917476E+01  0.00000000000E+00 0. -1.
         13   -1    0    0    0    0 -0.00000000000E+00 -0.00000000000E+00 -0.10000000000E+04  0.10000000000E+04  0.00000000000E+00 0.  1.
    9000005    2    1    2  501    0 -0.14178742652E+02 -0.31621612590E+02 -0.41371828493E+03  0.41518136867E+03  0.34331434553E+01 0.  0.
         13    1    3    3    0    0 -0.50302980484E+01 -0.84230668749E+01 -0.12959152200E+03  0.12996235812E+03  0.00000000000E+00 0.  1.
          1    1    3    3  501    0 -0.91484446040E+01 -0.23198545715E+02 -0.28412676293E+03  0.28521901055E+03  0.00000000000E+00 0.  1.
         -3    1    1    2    0  502  0.14178742652E+02  0.31621612590E+02 -0.58503742332E+03  0.58606292308E+03  0.00000000000E+00 0. -1.
<mgrwt>
<rscale>  1 0.30000000E+03</rscale>
<asrwt>0</asrwt>
<pdfrwt beam="1">  1       21 0.45247068E-02 0.30000000E+03</pdfrwt>
<pdfrwt beam="2">0</pdfrwt>
<totfact> 0.34139444E+04</totfact>
</mgrwt>
</event>
<event>
 6    1  0.6513574E-002  0.3000000E+03  0.7818608E-02  0.1093470E+00
         21   -1    0    0  501  502  0.00000000000E+00  0.00000000000E+00  0.15722764709E+01  0.15722764709E+01  0.00000000000E+00 0. -1.
         13   -1    0    0    0    0 -0.00000000000E+00 -0.00000000000E+00 -0.10000000000E+04  0.10000000000E+04  0.00000000000E+00 0.  1.
    9000005    2    1    2  501    0  0.89503859427E+01 -0.38290139429E+02 -0.54469474071E+03  0.54613856683E+03  0.53599839439E+01 0.  0.
         13    1    3    3    0    0 -0.25509438422E+00 -0.17747754140E+01 -0.40386836462E+02  0.40426618216E+02  0.00000000000E+00 0.  1.
          3    1    3    3  501    0  0.92054803269E+01 -0.36515364015E+02 -0.50430790425E+03  0.50571194861E+03  0.00000000000E+00 0.  1.
         -1    1    1    2    0  502 -0.89503859427E+01  0.38290139429E+02 -0.45373298281E+03  0.45543370964E+03  0.00000000000E+00 0. -1.
<mgrwt>
<rscale>  1 0.30000000E+03</rscale>
<asrwt>0</asrwt>
<pdfrwt beam="1">  1       21 0.57173810E-02 0.30000000E+03</pdfrwt>
<pdfrwt beam="2">0</pdfrwt>
<totfact> 0.22898050E+04</totfact>
</mgrwt>
</event>
<event>
 6    1  0.6513574E-002  0.3000000E+03  0.7818608E-02  0.1093470E+00
         21   -1    0    0  501  502  0.00000000000E+00  0.00000000000E+00  0.23260202086E+01  0.23260202086E+01  0.00000000000E+00 0. -1.
         13   -1    0    0    0    0 -0.00000000000E+00 -0.00000000000E+00 -0.10000000000E+04  0.10000000000E+04  0.00000000000E+00 0.  1.
    9000005    2    1    2  501    0 -0.28431554680E+02  0.32043686406E+02 -0.27002140107E+03  0.27341352446E+03  0.28717906256E+01 0.  0.
         13    1    3    3    0    0 -0.24524277959E+02  0.29004879421E+02 -0.23809223151E+03  0.24110295300E+03  0.00000000000E+00 0.  1.
          3    1    3    3  501    0 -0.39072767208E+01  0.30388069850E+01 -0.31929169561E+02  0.32310571461E+02  0.00000000000E+00 0.  1.
         -1    1    1    2    0  502  0.28431554680E+02 -0.32043686406E+02 -0.72765257872E+03  0.72891249574E+03  0.00000000000E+00 0. -1.
<mgrwt>
<rscale>  1 0.30000000E+03</rscale>
<asrwt>0</asrwt>
<pdfrwt beam="1">  1       21 0.84582731E-02 0.30000000E+03</pdfrwt>
<pdfrwt beam="2">0</pdfrwt>
<totfact> 0.11581309E+04</totfact>
</mgrwt>
</event>
<event>
 6    1  0.6513574E-002  0.3000000E+03  0.7818608E-02  0.1093470E+00
         21   -1    0    0  501  502  0.00000000000E+00  0.00000000000E+00  0.14946162362E+01  0.14946162362E+01  0.00000000000E+00 0. -1.
         13   -1    0    0    0    0 -0.00000000000E+00 -0.00000000000E+00 -0.10000000000E+04  0.10000000000E+04  0.00000000000E+00 0.  1.
    9000005    2    1    2  501    0  0.32334198437E+02  0.18029395269E+02 -0.35987353066E+03  0.36179061962E+03  0.35965116761E+01 0.  0.
         13    1    3    3    0    0  0.28878854461E+02  0.15664905021E+02 -0.32853716835E+03  0.33017578420E+03  0.00000000000E+00 0.  1.
          3    1    3    3  501    0  0.34553439761E+01  0.23644902482E+01 -0.31336362307E+02  0.31614835422E+02  0.00000000000E+00 0.  1.
         -1    1    1    2    0  502 -0.32334198437E+02 -0.18029395269E+02 -0.63863185311E+03  0.63970399661E+03  0.00000000000E+00 0. -1.
<mgrwt>
<rscale>  1 0.30000000E+03</rscale>
<asrwt>0</asrwt>
<pdfrwt beam="1">  1       21 0.54349796E-02 0.30000000E+03</pdfrwt>
<pdfrwt beam="2">0</pdfrwt>
<totfact> 0.24978116E+04</totfact>
</mgrwt>
</event>
<event>
 6    1  0.6513574E-002  0.3000000E+03  0.7818608E-02  0.1093470E+00
         21   -1    0    0  501  502  0.00000000000E+00  0.00000000000E+00  0.13016135779E+01  0.13016135779E+01  0.00000000000E+00 0. -1.
         13   -1    0    0    0    0 -0.00000000000E+00 -0.00000000000E+00 -0.10000000000E+04  0.10000000000E+04  0.00000000000E+00 0.  1.
    9000005    2    1    2  501    0 -0.24901352379E+02 -0.17415029267E+02 -0.76814776140E+03  0.76875709893E+03  0.36239780392E+01 0.  0.
         13    1    3    3    0    0 -0.12222349456E+02 -0.63754687283E+01 -0.33892123899E+03  0.33920147208E+03  0.00000000000E+00 0.  1.
          1    1    3    3  501    0 -0.12679002924E+02 -0.11039560539E+02 -0.42922652242E+03  0.42955562685E+03  0.00000000000E+00 0.  1.
         -1    1    1    2    0  502  0.24901352379E+02  0.17415029267E+02 -0.23055062502E+03  0.23254451464E+03  0.00000000000E+00 0. -1.
<mgrwt>
<rscale>  1 0.30000000E+03</rscale>
<asrwt>0</asrwt>
<pdfrwt beam="1">  1       21 0.47331503E-02 0.30000000E+03</pdfrwt>
<pdfrwt beam="2">0</pdfrwt>
<totfact> 0.31624108E+04</totfact>
</mgrwt>
</event>
<event>
 6    1  0.6513574E-002  0.3000000E+03  0.7818608E-02  0.1093470E+00
         21   -1    0    0  501  502  0.00000000000E+00  0.00000000000E+00  0.12665005762E+01  0.12665005762E+01  0.00000000000E+00 0. -1.
         13   -1    0    0    0    0 -0.00000000000E+00 -0.00000000000E+00 -0.10000000000E+04  0.10000000000E+04  0.00000000000E+00 0.  1.
    9000005    2    1    2  501    0  0.19855434897E+02  0.29391936604E+02 -0.52209038851E+03  0.52330543583E+03  0.34757965657E+01 0.  0.
         13    1    3    3    0    0  0.73332592667E+01  0.10507579770E+02 -0.16491439423E+03  0.16541143657E+03  0.00000000000E+00 0.  1.
          3    1    3    3  501    0  0.12522175631E+02  0.18884356834E+02 -0.35717599428E+03  0.35789399926E+03  0.00000000000E+00 0.  1.
         -3    1    1    2    0  502 -0.19855434897E+02 -0.29391936604E+02 -0.47664311091E+03  0.47796106475E+03  0.00000000000E+00 0. -1.
<mgrwt>
<rscale>  1 0.30000000E+03</rscale>
<asrwt>0</asrwt>
<pdfrwt beam="1">  1       21 0.46054664E-02 0.30000000E+03</pdfrwt>
<pdfrwt beam="2">0</pdfrwt>
<totfact> 0.33128870E+04</totfact>
</mgrwt>
</event>
<event>
 6    1  0.6513574E-002  0.3000000E+03  0.7818608E-02  0.1093470E+00
         21   -1    0    0  501  502  0.00000000000E+00  0.00000000000E+00  0.11352374341E+01  0.11352374341E+01  0.00000000000E+00 0. -1.
         13   -1    0    0    0    0 -0.00000000000E+00 -0.00000000000E+00 -0.10000000000E+04  0.10000000000E+04  0.00000000000E+00 0.  1.
    9000005    2    1    2  501    0 -0.28558304915E+02 -0.10736938836E+02 -0.29268854308E+03  0.29430024141E+03  0.38974619009E+01 0.  0.
         13    1    3    3    0    0 -0.11561868940E+02 -0.32201619521E+01 -0.10003929899E+03  0.10075667520E+03  0.00000000000E+00 0.  1.
          3    1    3    3  501    0 -0.16996435975E+02 -0.75167768841E+01 -0.19264924409E+03  0.19354356620E+03  0.00000000000E+00 0.  1.
         -3    1    1    2    0  502  0.28558304915E+02  0.10736938836E+02 -0.70617621949E+03  0.70683499603E+03  0.00000000000E+00 0. -1.
<mgrwt>
<rscale>  1 0.30000000E+03</rscale>
<asrwt>0</asrwt>
<pdfrwt beam="1">  1       21 0.41281448E-02 0.30000000E+03</pdfrwt>
<pdfrwt beam="2">0</pdfrwt>
<totfact> 0.39870938E+04</totfact>
</mgrwt>
</event>
<event>
 6    1  0.6513574E-002  0.3000000E+03  0.7818608E-02  0.1093470E+00
         21   -1    0    0  501  502  0.00000000000E+00  0.00000000000E+00  0.13132904446E+01  0.13132904446E+01  0.00000000000E+00 0. -1.
         13   -1    0    0    0    0 -0.00000000000E+00 -0.00000000000E+00 -0.10000000000E+04  0.10000000000E+04  0.00000000000E+00 0.  1.
    9000005    2    1    2  501    0  0.34460161737E+02  0.43326107669E+01 -0.36125446303E+03  0.36293554712E+03  0.33391676303E+01 0.  0.
         13    1    3    3    0    0  0.78004019317E+01  0.23094991625E+01 -0.89595505099E+02  0.89964073888E+02  0.00000000000E+00 0.  1.
          1    1    3    3  501    0  0.26659759806E+02  0.20231116044E+01 -0.27165895793E+03  0.27297147323E+03  0.00000000000E+00 0.  1.
         -1    1    1    2    0  502 -0.34460161737E+02 -0.43326107669E+01 -0.63743224653E+03  0.63837774333E+03  0.00000000000E+00 0. -1.
<mgrwt>
<rscale>  1 0.30000000E+03</rscale>
<asrwt>0</asrwt>
<pdfrwt beam="1">  1       21 0.47756117E-02 0.30000000E+03</pdfrwt>
<pdfrwt beam="2">0</pdfrwt>
<totfact> 0.31147324E+04</totfact>
</mgrwt>
</event>
<event>
 6    1  0.6513574E-002  0.3000000E+03  0.7818608E-02  0.1093470E+00
         21   -1    0    0  501  502  0.00000000000E+00  0.00000000000E+00  0.13306577581E+01  0.13306577581E+01  0.00000000000E+00 0. -1.
         13   -1    0    0    0    0 -0.00000000000E+00 -0.00000000000E+00 -0.10000000000E+04  0.10000000000E+04  0.00000000000E+00 0.  1.
    9000005    2    1    2  501    0  0.25997877639E+00 -0.32734833521E+02 -0.71857261655E+03  0.71932744384E+03  0.37053066056E+01 0.  0.
         13    1    3    3    0    0 -0.52056856504E+00 -0.24849665146E+02 -0.51206396724E+03  0.51266683469E+03  0.00000000000E+00 0.  1.
          1    1    3    3  501    0  0.78054734142E+00 -0.78851683749E+01 -0.20650864931E+03  0.20666060915E+03  0.00000000000E+00 0.  1.
         -1    1    1    2    0  502 -0.25997877639E+00  0.32734833521E+02 -0.28009672569E+03  0.28200321391E+03  0.00000000000E+00 0. -1.
<mgrwt>
<rscale>  1 0.30000000E+03</rscale>
<asrwt>0</asrwt>
<pdfrwt beam="1">  1       21 0.48387657E-02 0.30000000E+03</pdfrwt>
<pdfrwt beam="2">0</pdfrwt>
<totfact> 0.30458709E+04</totfact>
</mgrwt>
</event>
<event>
 6    1  0.6513574E-002  0.3000000E+03  0.7818608E-02  0.1093470E+00
         21   -1    0    0  501  502  0.00000000000E+00  0.00000000000E+00  0.10744018102E+01  0.10744018102E+01  0.00000000000E+00 0. -1.
         13   -1    0    0    0    0 -0.00000000000E+00 -0.00000000000E+00 -0.10000000000E+04  0.10000000000E+04  0.00000000000E+00 0.  1.
    9000005    2    1    2  501    0  0.37011528467E+01 -0.30047786766E+02 -0.68941716184E+03  0.69008880698E+03  0.31576025519E+01 0.  0.
         13    1    3    3    0    0  0.26988269578E+01 -0.14095619311E+02 -0.35472149575E+03  0.35501170360E+03  0.00000000000E+00 0.  1.
          1    1    3    3  501    0  0.10023258889E+01 -0.15952167455E+02 -0.33469566609E+03  0.33507710337E+03  0.00000000000E+00 0.  1.
         -1    1    1    2    0  502 -0.37011528467E+01  0.30047786766E+02 -0.30950843635E+03  0.31098559483E+03  0.00000000000E+00 0. -1.
<mgrwt>
<rscale>  1 0.30000000E+03</rscale>
<asrwt>0</asrwt>
<pdfrwt beam="1">  1       21 0.39069239E-02 0.30000000E+03</pdfrwt>
<pdfrwt beam="2">0</pdfrwt>
<totfact> 0.43746948E+04</totfact>
</mgrwt>
</event>
<event>
 6    1  0.6513574E-002  0.3000000E+03  0.7818608E-02  0.1093470E+00
         21   -1    0    0  501  502  0.00000000000E+00  0.00000000000E+00  0.67765977528E+01  0.67765977528E+01  0.00000000000E+00 0. -1.
         13   -1    0    0    0    0 -0.00000000000E+00 -0.00000000000E+00 -0.10000000000E+04  0.10000000000E+04  0.00000000000E+00 0.  1.
    9000005    2    1    2  501    0 -0.30439805776E+02 -0.20688936824E+02 -0.46815073423E+02  0.59652878933E+02  0.34929905262E+01 0.  0.
         13    1    3    3    0    0 -0.22862014371E+01 -0.65763830368E+00 -0.37333060429E+01  0.44268249524E+01  0.00000000000E+00 0.  1.
          3    1    3    3  501    0 -0.28153604339E+02 -0.20031298521E+02 -0.43081767380E+02  0.55226053981E+02  0.00000000000E+00 0.  1.
         -3    1    1    2    0  502  0.30439805776E+02  0.20688936824E+02 -0.94640832882E+03  0.94712371882E+03  0.00000000000E+00 0. -1.
<mgrwt>
<rscale>  1 0.30000000E+03</rscale>
<asrwt>0</asrwt>
<pdfrwt beam="1">  1       21 0.24642226E-01 0.30000000E+03</pdfrwt>
<pdfrwt beam="2">0</pdfrwt>
<totfact> 0.16041744E+03</totfact>
</mgrwt>
</event>
<event>
 6    1  0.6513574E-002  0.3000000E+03  0.7818608E-02  0.1093470E+00
         21   -1    0    0  501  502  0.00000000000E+00  0.00000000000E+00  0.95490493815E+00  0.95490493815E+00  0.00000000000E+00 0. -1.
         13   -1    0    0    0    0 -0.00000000000E+00 -0.00000000000E+00 -0.10000000000E+04  0.10000000000E+04  0.00000000000E+00 0.  1.
    9000005    2    1    2  501    0  0.19404357494E+02 -0.23939441372E+02 -0.49498663351E+03  0.49595534196E+03  0.32105957870E+01 0.  0.
         13    1    3    3    0    0  0.84028975504E+01 -0.79625838098E+01 -0.19055422933E+03  0.19090554142E+03  0.00000000000E+00 0.  1.
          3    1    3    3  501    0  0.11001459943E+02 -0.15976857562E+02 -0.30443240418E+03  0.30504980054E+03  0.00000000000E+00 0.  1.
         -1    1    1    2    0  502 -0.19404357494E+02  0.23939441372E+02 -0.50405846155E+03  0.50499956297E+03  0.00000000000E+00 0. -1.
<mgrwt>
<rscale>  1 0.30000000E+03</rscale>
<asrwt>0</asrwt>
<pdfrwt beam="1">  1       21 0.34723889E-02 0.30000000E+03</pdfrwt>
<pdfrwt beam="2">0</pdfrwt>
<totfact> 0.53319060E+04</totfact>
</mgrwt>
</event>
<event>
 6    1  0.6513574E-002  0.3000000E+03  0.7818608E-02  0.1093470E+00
         21   -1    0    0  501  502  0.00000000000E+00  0.00000000000E+00  0.98064702866E+00  0.98064702866E+00  0.00000000000E+00 0. -1.
         13   -1    0    0    0    0 -0.00000000000E+00 -0.00000000000E+00 -0.10000000000E+04  0.10000000000E+04  0.00000000000E+00 0.  1.
    9000005    2    1    2  501    0  0.19403486322E+02 -0.23945527978E+02 -0.58126401546E+03  0.58208996247E+03  0.33143848514E+01 0.  0.
         13    1    3    3    0    0  0.14051668710E+02 -0.19484374509E+02 -0.45596564673E+03  0.45659803027E+03  0.00000000000E+00 0.  1.
          3    1    3    3  501    0  0.53518176116E+01 -0.44611534695E+01 -0.12529836872E+03  0.12549193220E+03  0.00000000000E+00 0.  1.
         -3    1    1    2    0  502 -0.19403486322E+02  0.23945527978E+02 -0.41775533751E+03  0.41889068456E+03  0.00000000000E+00 0. -1.
<mgrwt>
<rscale>  1 0.30000000E+03</rscale>
<asrwt>0</asrwt>
<pdfrwt beam="1">  1       21 0.35659967E-02 0.30000000E+03</pdfrwt>
<pdfrwt beam="2">0</pdfrwt>
<totfact> 0.50995349E+04</totfact>
</mgrwt>
</event>
<event>
 6    1  0.6513574E-002  0.3000000E+03  0.7818608E-02  0.1093470E+00
         21   -1    0    0  501  502  0.00000000000E+00  0.00000000000E+00  0.10827039773E+01  0.10827039773E+01  0.00000000000E+00 0. -1.
         13   -1    0    0    0    0 -0.00000000000E+00 -0.00000000000E+00 -0.10000000000E+04  0.10000000000E+04  0.00000000000E+00 0.  1.
    9000005    2    1    2  501    0  0.30863456912E+02 -0.96349341567E+01 -0.41381281658E+03  0.41508557361E+03  0.30986011118E+01 0.  0.
         13    1    3    3    0    0  0.28251172602E+02 -0.78666356084E+01 -0.37388234225E+03  0.37503069015E+03  0.00000000000E+00 0.  1.
          1    1    3    3  501    0  0.26122843098E+01 -0.17682985483E+01 -0.39930474328E+02  0.40054883461E+02  0.00000000000E+00 0.  1.
         -1    1    1    2    0  502 -0.30863456912E+02  0.96349341567E+01 -0.58510447944E+03  0.58599713036E+03  0.00000000000E+00 0. -1.
<mgrwt>
<rscale>  1 0.30000000E+03</rscale>
<asrwt>0</asrwt>
<pdfrwt beam="1">  1       21 0.39371137E-02 0.30000000E+03</pdfrwt>
<pdfrwt beam="2">0</pdfrwt>
<totfact> 0.43184053E+04</totfact>
</mgrwt>
</event>
<event>
 6    1  0.6513574E-002  0.3000000E+03  0.7818608E-02  0.1093470E+00
         21   -1    0    0  501  502  0.00000000000E+00  0.00000000000E+00  0.11222414924E+01  0.11222414924E+01  0.00000000000E+00 0. -1.
         13   -1    0    0    0    0 -0.00000000000E+00 -0.00000000000E+00 -0.10000000000E+04  0.10000000000E+04  0.00000000000E+00 0.  1.
    9000005    2    1    2  501    0  0.27578194910E+02 -0.18140407303E+02 -0.55576580923E+03  0.55678247194E+03  0.64385666945E+01 0.  0.
         13    1    3    3    0    0  0.73963402769E+01 -0.82850372033E+01 -0.20064010178E+03  0.20094725212E+03  0.00000000000E+00 0.  1.
          3    1    3    3  501    0  0.20181854633E+02 -0.98553701001E+01 -0.35512570745E+03  0.35583521983E+03  0.00000000000E+00 0.  1.
         -3    1    1    2    0  502 -0.27578194910E+02  0.18140407303E+02 -0.44311194928E+03  0.44433976955E+03  0.00000000000E+00 0. -1.
<mgrwt>
<rscale>  1 0.30000000E+03</rscale>
<asrwt>0</asrwt>
<pdfrwt beam="1">  1       21 0.40808868E-02 0.30000000E+03</pdfrwt>
<pdfrwt beam="2">0</pdfrwt>
<totfact> 0.40652649E+04</totfact>
</mgrwt>
</event>
<event>
 6    1  0.6513574E-002  0.3000000E+03  0.7818608E-02  0.1093470E+00
         21   -1    0    0  501  502  0.00000000000E+00  0.00000000000E+00  0.97828323564E+00  0.97828323564E+00  0.00000000000E+00 0. -1.
         13   -1    0    0    0    0 -0.00000000000E+00 -0.00000000000E+00 -0.10000000000E+04  0.10000000000E+04  0.00000000000E+00 0.  1.
    9000005    2    1    2  501    0 -0.30456105309E+02 -0.42303727395E+01 -0.41716979214E+03  0.41831445855E+03  0.32985385671E+01 0.  0.
         13    1    3    3    0    0 -0.13502295117E+02 -0.33034759355E+00 -0.19018600653E+03  0.19066498940E+03  0.00000000000E+00 0.  1.
          1    1    3    3  501    0 -0.16953810192E+02 -0.39000251459E+01 -0.22698378561E+03  0.22764946915E+03  0.00000000000E+00 0.  1.
         -3    1    1    2    0  502  0.30456105309E+02  0.42303727395E+01 -0.58185192463E+03  0.58266382469E+03  0.00000000000E+00 0. -1.
<mgrwt>
<rscale>  1 0.30000000E+03</rscale>
<asrwt>0</asrwt>
<pdfrwt beam="1">  1       21 0.35574011E-02 0.30000000E+03</pdfrwt>
<pdfrwt beam="2">0</pdfrwt>
<totfact> 0.51202084E+04</totfact>
</mgrwt>
</event>
<event>
 6    1  0.6513574E-002  0.3000000E+03  0.7818608E-02  0.1093470E+00
         21   -1    0    0  501  502  0.00000000000E+00  0.00000000000E+00  0.16876481154E+01  0.16876481154E+01  0.00000000000E+00 0. -1.
         13   -1    0    0    0    0 -0.00000000000E+00 -0.00000000000E+00 -0.10000000000E+04  0.10000000000E+04  0.00000000000E+00 0.  1.
    9000005    2    1    2  501    0 -0.36781157402E+02 -0.13660883137E+02 -0.64547972526E+03  0.64668013316E+03  0.34125689837E+01 0.  0.
         13    1    3    3    0    0 -0.27402349263E+02 -0.87814493779E+01 -0.45933353673E+03  0.46023396285E+03  0.00000000000E+00 0.  1.
          3    1    3    3  501    0 -0.93788081393E+01 -0.48794337595E+01 -0.18614618853E+03  0.18644617031E+03  0.00000000000E+00 0.  1.
         -3    1    1    2    0  502  0.36781157402E+02  0.13660883137E+02 -0.35283262662E+03  0.35500751496E+03  0.00000000000E+00 0. -1.
<mgrwt>
<rscale>  1 0.30000000E+03</rscale>
<asrwt>0</asrwt>
<pdfrwt beam="1">  1       21 0.61369152E-02 0.30000000E+03</pdfrwt>
<pdfrwt beam="2">0</pdfrwt>
<totfact> 0.20267093E+04</totfact>
</mgrwt>
</event>
<event>
 6    1  0.6513574E-002  0.3000000E+03  0.7818608E-02  0.1093470E+00
         21   -1    0    0  501  502  0.00000000000E+00  0.00000000000E+00  0.53731381789E+01  0.53731381789E+01  0.00000000000E+00 0. -1.
         13   -1    0    0    0    0 -0.00000000000E+00 -0.00000000000E+00 -0.10000000000E+04  0.10000000000E+04  0.00000000000E+00 0.  1.
    9000005    2    1    2  501    0 -0.23688280542E+02  0.64123621829E+02 -0.31657453649E+03  0.32388364494E+03  0.28644009170E+01 0.  0.
         13    1    3    3    0    0 -0.22891716540E+02  0.60219703460E+02 -0.29944308315E+03  0.30629496146E+03  0.00000000000E+00 0.  1.
          3    1    3    3  501    0 -0.79656400176E+00  0.39039183691E+01 -0.17131453346E+02  0.17588683481E+02  0.00000000000E+00 0.  1.
         -3    1    1    2    0  502  0.23688280542E+02 -0.64123621829E+02 -0.67805232533E+03  0.68148949324E+03  0.00000000000E+00 0. -1.
<mgrwt>
<rscale>  1 0.30000000E+03</rscale>
<asrwt>0</asrwt>
<pdfrwt beam="1">  1       21 0.19538725E-01 0.30000000E+03</pdfrwt>
<pdfrwt beam="2">0</pdfrwt>
<totfact> 0.25083179E+03</totfact>
</mgrwt>
</event>
<event>
 6    1  0.6513574E-002  0.3000000E+03  0.7818608E-02  0.1093470E+00
         21   -1    0    0  501  502  0.00000000000E+00  0.00000000000E+00  0.36877338872E+01  0.36877338872E+01  0.00000000000E+00 0. -1.
         13   -1    0    0    0    0 -0.00000000000E+00 -0.00000000000E+00 -0.10000000000E+04  0.10000000000E+04  0.00000000000E+00 0.  1.
    9000005    2    1    2  501    0 -0.19846970435E+02 -0.55868438679E+02 -0.60500817145E+03  0.60791749856E+03  0.36895597144E+01 0.  0.
         13    1    3    3    0    0 -0.12271799095E+02 -0.39603280267E+02 -0.42240389120E+03  0.42443381600E+03  0.00000000000E+00 0.  1.
          3    1    3    3  501    0 -0.75751713397E+01 -0.16265158412E+02 -0.18260428025E+03  0.18348368256E+03  0.00000000000E+00 0.  1.
         -3    1    1    2    0  502  0.19846970435E+02  0.55868438679E+02 -0.39130409466E+03  0.39577023533E+03  0.00000000000E+00 0. -1.
<mgrwt>
<rscale>  1 0.30000000E+03</rscale>
<asrwt>0</asrwt>
<pdfrwt beam="1">  1       21 0.13409970E-01 0.30000000E+03</pdfrwt>
<pdfrwt beam="2">0</pdfrwt>
<totfact> 0.50609264E+03</totfact>
</mgrwt>
</event>
<event>
 6    1  0.6513574E-002  0.3000000E+03  0.7818608E-02  0.1093470E+00
         21   -1    0    0  501  502  0.00000000000E+00  0.00000000000E+00  0.13167308334E+01  0.13167308334E+01  0.00000000000E+00 0. -1.
         13   -1    0    0    0    0 -0.00000000000E+00 -0.00000000000E+00 -0.10000000000E+04  0.10000000000E+04  0.00000000000E+00 0.  1.
    9000005    2    1    2  501    0 -0.16973274817E+02  0.31725835730E+02 -0.44343079920E+03  0.44489968750E+03  0.31996164439E+01 0.  0.
         13    1    3    3    0    0 -0.57262976725E+01  0.10886146638E+02 -0.17080714080E+03  0.17124946138E+03  0.00000000000E+00 0.  1.
          3    1    3    3  501    0 -0.11246977145E+02  0.20839689092E+02 -0.27262365840E+03  0.27365022612E+03  0.00000000000E+00 0.  1.
         -3    1    1    2    0  502  0.16973274817E+02 -0.31725835730E+02 -0.55525246996E+03  0.55641704333E+03  0.00000000000E+00 0. -1.
<mgrwt>
<rscale>  1 0.30000000E+03</rscale>
<asrwt>0</asrwt>
<pdfrwt beam="1">  1       21 0.47881222E-02 0.30000000E+03</pdfrwt>
<pdfrwt beam="2">0</pdfrwt>
<totfact> 0.31008991E+04</totfact>
</mgrwt>
</event>
<event>
 6    1  0.6513574E-002  0.3000000E+03  0.7818608E-02  0.1093470E+00
         21   -1    0    0  501  502  0.00000000000E+00  0.00000000000E+00  0.13436068661E+01  0.13436068661E+01  0.00000000000E+00 0. -1.
         13   -1    0    0    0    0 -0.00000000000E+00 -0.00000000000E+00 -0.10000000000E+04  0.10000000000E+04  0.00000000000E+00 0.  1.
    9000005    2    1    2  501    0 -0.34801828873E+02 -0.48810192809E+01 -0.63871882302E+03  0.63969454214E+03  0.35186238732E+01 0.  0.
         13    1    3    3    0    0 -0.32441805678E+02 -0.40251032962E+01 -0.60487474612E+03  0.60575748506E+03  0.00000000000E+00 0.  1.
          1    1    3    3  501    0 -0.23600231944E+01 -0.85591598469E+00 -0.33844076902E+02  0.33937057077E+02  0.00000000000E+00 0.  1.
         -3    1    1    2    0  502  0.34801828873E+02  0.48810192809E+01 -0.35993757011E+03  0.36164906473E+03  0.00000000000E+00 0. -1.
<mgrwt>
<rscale>  1 0.30000000E+03</rscale>
<asrwt>0</asrwt>
<pdfrwt beam="1">  1       21 0.48858535E-02 0.30000000E+03</pdfrwt>
<pdfrwt beam="2">0</pdfrwt>
<totfact> 0.29960630E+04</totfact>
</mgrwt>
</event>
<event>
 6    1  0.6513574E-002  0.3000000E+03  0.7818608E-02  0.1093470E+00
         21   -1    0    0  501  502  0.00000000000E+00  0.00000000000E+00  0.12230443841E+01  0.12230443841E+01  0.00000000000E+00 0. -1.
         13   -1    0    0    0    0 -0.00000000000E+00 -0.00000000000E+00 -0.10000000000E+04  0.10000000000E+04  0.00000000000E+00 0.  1.
    9000005    2    1    2  501    0  0.10581651975E+02 -0.30770787634E+02 -0.67868538486E+03  0.67948180301E+03  0.47808234492E+01 0.  0.
         13    1    3    3    0    0  0.79926474942E+01 -0.27864752933E+02 -0.60315294941E+03  0.60384915935E+03  0.00000000000E+00 0.  1.
          1    1    3    3  501    0  0.25890044808E+01 -0.29060347010E+01 -0.75532435456E+02  0.75632643665E+02  0.00000000000E+00 0.  1.
         -3    1    1    2    0  502 -0.10581651975E+02  0.30770787634E+02 -0.32009157075E+03  0.32174124137E+03  0.00000000000E+00 0. -1.
<mgrwt>
<rscale>  1 0.30000000E+03</rscale>
<asrwt>0</asrwt>
<pdfrwt beam="1">  1       21 0.44474435E-02 0.30000000E+03</pdfrwt>
<pdfrwt beam="2">0</pdfrwt>
<totfact> 0.35151685E+04</totfact>
</mgrwt>
</event>
<event>
 6    1  0.6513574E-002  0.3000000E+03  0.7818608E-02  0.1093470E+00
         21   -1    0    0  501  502  0.00000000000E+00  0.00000000000E+00  0.23878437968E+01  0.23878437968E+01  0.00000000000E+00 0. -1.
         13   -1    0    0    0    0 -0.00000000000E+00 -0.00000000000E+00 -0.10000000000E+04  0.10000000000E+04  0.00000000000E+00 0.  1.
    9000005    2    1    2  501    0 -0.50737824461E+01  0.46201877253E+02 -0.34723415211E+03  0.35035110792E+03  0.37397454887E+01 0.  0.
         13    1    3    3    0    0 -0.20704872779E+01  0.26848528294E+02 -0.21311618869E+03  0.21481070800E+03  0.00000000000E+00 0.  1.
          1    1    3    3  501    0 -0.30032951682E+01  0.19353348960E+02 -0.13411796342E+03  0.13554039992E+03  0.00000000000E+00 0.  1.
         -3    1    1    2    0  502  0.50737824461E+01 -0.46201877253E+02 -0.65037800409E+03  0.65203673588E+03  0.00000000000E+00 0. -1.
<mgrwt>
<rscale>  1 0.30000000E+03</rscale>
<asrwt>0</asrwt>
<pdfrwt beam="1">  1       21 0.86830867E-02 0.30000000E+03</pdfrwt>
<pdfrwt beam="2">0</pdfrwt>
<totfact> 0.11057479E+04</totfact>
</mgrwt>
</event>
<event>
 6    1  0.6513574E-002  0.3000000E+03  0.7818608E-02  0.1093470E+00
         21   -1    0    0  501  502  0.00000000000E+00  0.00000000000E+00  0.11606623616E+01  0.11606623616E+01  0.00000000000E+00 0. -1.
         13   -1    0    0    0    0 -0.00000000000E+00 -0.00000000000E+00 -0.10000000000E+04  0.10000000000E+04  0.00000000000E+00 0.  1.
    9000005    2    1    2  501    0 -0.30556901818E+02  0.82549095007E+01 -0.68228701955E+03  0.68302981214E+03  0.35042028051E+01 0.  0.
         13    1    3    3    0    0 -0.25294549471E+02  0.58764771209E+01 -0.57794593879E+03  0.57852904454E+03  0.00000000000E+00 0.  1.
          3    1    3    3  501    0 -0.52623523475E+01  0.23784323798E+01 -0.10434108076E+03  0.10450076759E+03  0.00000000000E+00 0.  1.
         -1    1    1    2    0  502  0.30556901818E+02 -0.82549095007E+01 -0.31655231808E+03  0.31813085022E+03  0.00000000000E+00 0. -1.
<mgrwt>
<rscale>  1 0.30000000E+03</rscale>
<asrwt>0</asrwt>
<pdfrwt beam="1">  1       21 0.42205993E-02 0.30000000E+03</pdfrwt>
<pdfrwt beam="2">0</pdfrwt>
<totfact> 0.38407776E+04</totfact>
</mgrwt>
</event>
<event>
 6    1  0.6513574E-002  0.3000000E+03  0.7818608E-02  0.1093470E+00
         21   -1    0    0  501  502  0.00000000000E+00  0.00000000000E+00  0.11680634411E+01  0.11680634411E+01  0.00000000000E+00 0. -1.
         13   -1    0    0    0    0 -0.00000000000E+00 -0.00000000000E+00 -0.10000000000E+04  0.10000000000E+04  0.00000000000E+00 0.  1.
    9000005    2    1    2  501    0 -0.26539323076E+02  0.19034743798E+02 -0.35583933393E+03  0.35734654767E+03  0.28751374845E+01 0.  0.
         13    1    3    3    0    0 -0.35038275628E+01  0.28554204006E+01 -0.60569874730E+02  0.60738290708E+02  0.00000000000E+00 0.  1.
          1    1    3    3  501    0 -0.23035495513E+02  0.16179323397E+02 -0.29526945920E+03  0.29660825696E+03  0.00000000000E+00 0.  1.
         -3    1    1    2    0  502  0.26539323076E+02 -0.19034743798E+02 -0.64299260263E+03  0.64382151577E+03  0.00000000000E+00 0. -1.
<mgrwt>
<rscale>  1 0.30000000E+03</rscale>
<asrwt>0</asrwt>
<pdfrwt beam="1">  1       21 0.42475124E-02 0.30000000E+03</pdfrwt>
<pdfrwt beam="2">0</pdfrwt>
<totfact> 0.37997521E+04</totfact>
</mgrwt>
</event>
<event>
 6    1  0.6513574E-002  0.3000000E+03  0.7818608E-02  0.1093470E+00
         21   -1    0    0  501  502  0.00000000000E+00  0.00000000000E+00  0.15208548366E+01  0.15208548366E+01  0.00000000000E+00 0. -1.
         13   -1    0    0    0    0 -0.00000000000E+00 -0.00000000000E+00 -0.10000000000E+04  0.10000000000E+04  0.00000000000E+00 0.  1.
    9000005    2    1    2  501    0  0.34346939216E+02  0.11695017825E+02 -0.68056095726E+03  0.68153888679E+03  0.39436004446E+01 0.  0.
         13    1    3    3    0    0  0.85359158600E+01  0.31032273109E+01 -0.20407856689E+03  0.20428057505E+03  0.00000000000E+00 0.  1.
          1    1    3    3  501    0  0.25811023356E+02  0.85917905138E+01 -0.47648239037E+03  0.47725831174E+03  0.00000000000E+00 0.  1.
         -3    1    1    2    0  502 -0.34346939216E+02 -0.11695017825E+02 -0.31791818790E+03  0.31998196805E+03  0.00000000000E+00 0. -1.
<mgrwt>
<rscale>  1 0.30000000E+03</rscale>
<asrwt>0</asrwt>
<pdfrwt beam="1">  1       21 0.55303929E-02 0.30000000E+03</pdfrwt>
<pdfrwt beam="2">0</pdfrwt>
<totfact> 0.24243931E+04</totfact>
</mgrwt>
</event>
<event>
 6    1  0.6513574E-002  0.3000000E+03  0.7818608E-02  0.1093470E+00
         21   -1    0    0  501  502  0.00000000000E+00  0.00000000000E+00  0.10213118932E+01  0.10213118932E+01  0.00000000000E+00 0. -1.
         13   -1    0    0    0    0 -0.00000000000E+00 -0.00000000000E+00 -0.10000000000E+04  0.10000000000E+04  0.00000000000E+00 0.  1.
    9000005    2    1    2  501    0 -0.28898157132E+02 -0.10167594490E+02 -0.63577991339E+03  0.63653285745E+03  0.44155277853E+01 0.  0.
         13    1    3    3    0    0 -0.21103612100E+02 -0.91525944697E+01 -0.49389101654E+03  0.49442640367E+03  0.00000000000E+00 0.  1.
          1    1    3    3  501    0 -0.77945450323E+01 -0.10150000205E+01 -0.14188889685E+03  0.14210645378E+03  0.00000000000E+00 0.  1.
         -1    1    1    2    0  502  0.28898157132E+02  0.10167594490E+02 -0.36319877472E+03  0.36448845444E+03  0.00000000000E+00 0. -1.
<mgrwt>
<rscale>  1 0.30000000E+03</rscale>
<asrwt>0</asrwt>
<pdfrwt beam="1">  1       21 0.37138693E-02 0.30000000E+03</pdfrwt>
<pdfrwt beam="2">0</pdfrwt>
<totfact> 0.47635334E+04</totfact>
</mgrwt>
</event>
<event>
 6    1  0.6513574E-002  0.3000000E+03  0.7818608E-02  0.1093470E+00
         21   -1    0    0  501  502  0.00000000000E+00  0.00000000000E+00  0.19418724989E+01  0.19418724989E+01  0.00000000000E+00 0. -1.
         13   -1    0    0    0    0 -0.00000000000E+00 -0.00000000000E+00 -0.10000000000E+04  0.10000000000E+04  0.00000000000E+00 0.  1.
    9000005    2    1    2  501    0  0.21436084794E+02 -0.38254868123E+02 -0.54116371880E+03  0.54294792769E+03  0.33676362381E+01 0.  0.
         13    1    3    3    0    0  0.10236395251E+02 -0.15524025324E+02 -0.21697310642E+03  0.21776847352E+03  0.00000000000E+00 0.  1.
          3    1    3    3  501    0  0.11199689544E+02 -0.22730842799E+02 -0.32419061238E+03  0.32517945417E+03  0.00000000000E+00 0.  1.
         -1    1    1    2    0  502 -0.21436084794E+02  0.38254868123E+02 -0.45689440870E+03  0.45899394481E+03  0.00000000000E+00 0. -1.
<mgrwt>
<rscale>  1 0.30000000E+03</rscale>
<asrwt>0</asrwt>
<pdfrwt beam="1">  1       21 0.70613694E-02 0.30000000E+03</pdfrwt>
<pdfrwt beam="2">0</pdfrwt>
<totfact> 0.15891940E+04</totfact>
</mgrwt>
</event>
<event>
 6    1  0.6513574E-002  0.3000000E+03  0.7818608E-02  0.1093470E+00
         21   -1    0    0  501  502  0.00000000000E+00  0.00000000000E+00  0.14279479048E+01  0.14279479048E+01  0.00000000000E+00 0. -1.
         13   -1    0    0    0    0 -0.00000000000E+00 -0.00000000000E+00 -0.10000000000E+04  0.10000000000E+04  0.00000000000E+00 0.  1.
    9000005    2    1    2  501    0  0.21510911557E+02  0.29534757513E+02 -0.62480542759E+03  0.62587966764E+03  0.29180129022E+01 0.  0.
         13    1    3    3    0    0  0.15140440867E+02  0.18829680276E+02 -0.39904373413E+03  0.39977455091E+03  0.00000000000E+00 0.  1.
          3    1    3    3  501    0  0.63704706900E+01  0.10705077238E+02 -0.22576169346E+03  0.22610511673E+03  0.00000000000E+00 0.  1.
         -3    1    1    2    0  502 -0.21510911557E+02 -0.29534757513E+02 -0.37376662451E+03  0.37554828027E+03  0.00000000000E+00 0. -1.
<mgrwt>
<rscale>  1 0.30000000E+03</rscale>
<asrwt>0</asrwt>
<pdfrwt beam="1">  1       21 0.51925488E-02 0.30000000E+03</pdfrwt>
<pdfrwt beam="2">0</pdfrwt>
<totfact> 0.27005955E+04</totfact>
</mgrwt>
</event>
<event>
 6    1  0.6513574E-002  0.3000000E+03  0.7818608E-02  0.1093470E+00
         21   -1    0    0  501  502  0.00000000000E+00  0.00000000000E+00  0.11213788908E+01  0.11213788908E+01  0.00000000000E+00 0. -1.
         13   -1    0    0    0    0 -0.00000000000E+00 -0.00000000000E+00 -0.10000000000E+04  0.10000000000E+04  0.00000000000E+00 0.  1.
    9000005    2    1    2  501    0  0.15155209292E+02  0.28830303099E+02 -0.61039503326E+03  0.61127478756E+03  0.37286097060E+01 0.  0.
         13    1    3    3    0    0 -0.14301332364E+00  0.10575670975E+00 -0.74229876699E+01  0.74251183990E+01  0.00000000000E+00 0.  1.
          3    1    3    3  501    0  0.15298222615E+02  0.28724546390E+02 -0.60297204559E+03  0.60384966916E+03  0.00000000000E+00 0.  1.
         -3    1    1    2    0  502 -0.15155209292E+02 -0.28830303099E+02 -0.38848358785E+03  0.38984659134E+03  0.00000000000E+00 0. -1.
<mgrwt>
<rscale>  1 0.30000000E+03</rscale>
<asrwt>0</asrwt>
<pdfrwt beam="1">  1       21 0.40777500E-02 0.30000000E+03</pdfrwt>
<pdfrwt beam="2">0</pdfrwt>
<totfact> 0.40705379E+04</totfact>
</mgrwt>
</event>
<event>
 6    1  0.6513574E-002  0.3000000E+03  0.7818608E-02  0.1093470E+00
         21   -1    0    0  501  502  0.00000000000E+00  0.00000000000E+00  0.23463460902E+01  0.23463460902E+01  0.00000000000E+00 0. -1.
         13   -1    0    0    0    0 -0.00000000000E+00 -0.00000000000E+00 -0.10000000000E+04  0.10000000000E+04  0.00000000000E+00 0.  1.
    9000005    2    1    2  501    0 -0.17111820791E+02  0.38416762321E+02 -0.25175694793E+03  0.25526498638E+03  0.31607596357E+01 0.  0.
         13    1    3    3    0    0 -0.30171746703E+01  0.84672450533E+01 -0.47412356127E+02  0.48256907229E+02  0.00000000000E+00 0.  1.
          3    1    3    3  501    0 -0.14094646121E+02  0.29949517268E+02 -0.20434459180E+03  0.20700807915E+03  0.00000000000E+00 0.  1.
         -1    1    1    2    0  502  0.17111820791E+02 -0.38416762321E+02 -0.74589670598E+03  0.74708135971E+03  0.00000000000E+00 0. -1.
<mgrwt>
<rscale>  1 0.30000000E+03</rscale>
<asrwt>0</asrwt>
<pdfrwt beam="1">  1       21 0.85321856E-02 0.30000000E+03</pdfrwt>
<pdfrwt beam="2">0</pdfrwt>
<totfact> 0.11404989E+04</totfact>
</mgrwt>
</event>
<event>
 6    1  0.6513574E-002  0.3000000E+03  0.7818608E-02  0.1093470E+00
         21   -1    0    0  501  502  0.00000000000E+00  0.00000000000E+00  0.13623504469E+01  0.13623504469E+01  0.00000000000E+00 0. -1.
         13   -1    0    0    0    0 -0.00000000000E+00 -0.00000000000E+00 -0.10000000000E+04  0.10000000000E+04  0.00000000000E+00 0.  1.
    9000005    2    1    2  501    0  0.13705964297E+02  0.31263746656E+02 -0.68819707279E+03  0.68905060392E+03  0.32013224840E+01 0.  0.
         13    1    3    3    0    0  0.10269179249E+02  0.26423359202E+02 -0.56725462835E+03  0.56796255452E+03  0.00000000000E+00 0.  1.
          3    1    3    3  501    0  0.34367850477E+01  0.48403874538E+01 -0.12094244443E+03  0.12108804940E+03  0.00000000000E+00 0.  1.
         -1    1    1    2    0  502 -0.13705964297E+02 -0.31263746656E+02 -0.31044057677E+03  0.31231174652E+03  0.00000000000E+00 0. -1.
<mgrwt>
<rscale>  1 0.30000000E+03</rscale>
<asrwt>0</asrwt>
<pdfrwt beam="1">  1       21 0.49540121E-02 0.30000000E+03</pdfrwt>
<pdfrwt beam="2">0</pdfrwt>
<totfact> 0.29261872E+04</totfact>
</mgrwt>
</event>
<event>
 6    1  0.6513574E-002  0.3000000E+03  0.7818608E-02  0.1093470E+00
         21   -1    0    0  501  502  0.00000000000E+00  0.00000000000E+00  0.18164081661E+01  0.18164081661E+01  0.00000000000E+00 0. -1.
         13   -1    0    0    0    0 -0.00000000000E+00 -0.00000000000E+00 -0.10000000000E+04  0.10000000000E+04  0.00000000000E+00 0.  1.
    9000005    2    1    2  501    0  0.33027001536E+02  0.51787288445E+01 -0.19016115882E+03  0.19310270461E+03  0.31282809554E+01 0.  0.
         13    1    3    3    0    0  0.14296693469E+02  0.11139091318E+01 -0.75263646082E+02  0.76617574089E+02  0.00000000000E+00 0.  1.
          1    1    3    3  501    0  0.18730308067E+02  0.40648197127E+01 -0.11489751274E+03  0.11648513052E+03  0.00000000000E+00 0.  1.
         -1    1    1    2    0  502 -0.33027001536E+02 -0.51787288445E+01 -0.80802243301E+03  0.80871370355E+03  0.00000000000E+00 0. -1.
<mgrwt>
<rscale>  1 0.30000000E+03</rscale>
<asrwt>0</asrwt>
<pdfrwt beam="1">  1       21 0.66051345E-02 0.30000000E+03</pdfrwt>
<pdfrwt beam="2">0</pdfrwt>
<totfact> 0.17847049E+04</totfact>
</mgrwt>
</event>
<event>
 6    1  0.6513574E-002  0.3000000E+03  0.7818608E-02  0.1093470E+00
         21   -1    0    0  501  502  0.00000000000E+00  0.00000000000E+00  0.29454642460E+01  0.29454642460E+01  0.00000000000E+00 0. -1.
         13   -1    0    0    0    0 -0.00000000000E+00 -0.00000000000E+00 -0.10000000000E+04  0.10000000000E+04  0.00000000000E+00 0.  1.
    9000005    2    1    2  501    0  0.22397247752E+01  0.51457007209E+02 -0.65568288801E+03  0.65771012156E+03  0.31167950790E+01 0.  0.
         13    1    3    3    0    0  0.16173991096E+01  0.28926328115E+02 -0.38781153201E+03  0.38889218660E+03  0.00000000000E+00 0.  1.
          3    1    3    3  501    0  0.62232566566E+00  0.22530679094E+02 -0.26787135601E+03  0.26881793496E+03  0.00000000000E+00 0.  1.
         -3    1    1    2    0  502 -0.22397247752E+01 -0.51457007209E+02 -0.34137164774E+03  0.34523534268E+03  0.00000000000E+00 0. -1.
<mgrwt>
<rscale>  1 0.30000000E+03</rscale>
<asrwt>0</asrwt>
<pdfrwt beam="1">  1       21 0.10710802E-01 0.30000000E+03</pdfrwt>
<pdfrwt beam="2">0</pdfrwt>
<totfact> 0.76077007E+03</totfact>
</mgrwt>
</event>
<event>
 6    1  0.6513574E-002  0.3000000E+03  0.7818608E-02  0.1093470E+00
         21   -1    0    0  501  502  0.00000000000E+00  0.00000000000E+00  0.10057669574E+01  0.10057669574E+01  0.00000000000E+00 0. -1.
         13   -1    0    0    0    0 -0.00000000000E+00 -0.00000000000E+00 -0.10000000000E+04  0.10000000000E+04  0.00000000000E+00 0.  1.
    9000005    2    1    2  501    0  0.29258624681E+02  0.10742104052E+02 -0.58547624280E+03  0.58631481194E+03  0.33418409924E+01 0.  0.
         13    1    3    3    0    0  0.10542388355E+02  0.40276841916E+01 -0.24281955698E+03  0.24308167649E+03  0.00000000000E+00 0.  1.
          1    1    3    3  501    0  0.18716236326E+02  0.67144198605E+01 -0.34265668582E+03  0.34323313546E+03  0.00000000000E+00 0.  1.
         -3    1    1    2    0  502 -0.29258624681E+02 -0.10742104052E+02 -0.41351799024E+03  0.41469095501E+03  0.00000000000E+00 0. -1.
<mgrwt>
<rscale>  1 0.30000000E+03</rscale>
<asrwt>0</asrwt>
<pdfrwt beam="1">  1       21 0.36573421E-02 0.30000000E+03</pdfrwt>
<pdfrwt beam="2">0</pdfrwt>
<totfact> 0.48877386E+04</totfact>
</mgrwt>
</event>
<event>
 6    1  0.6513574E-002  0.3000000E+03  0.7818608E-02  0.1093470E+00
         21   -1    0    0  501  502  0.00000000000E+00  0.00000000000E+00  0.22815695674E+01  0.22815695674E+01  0.00000000000E+00 0. -1.
         13   -1    0    0    0    0 -0.00000000000E+00 -0.00000000000E+00 -0.10000000000E+04  0.10000000000E+04  0.00000000000E+00 0.  1.
    9000005    2    1    2  501    0  0.45785208708E+02 -0.13958440171E+01 -0.63935190266E+03  0.64099940568E+03  0.33390009493E+01 0.  0.
         13    1    3    3    0    0  0.34676271374E+02 -0.20581172677E+01 -0.46949194651E+03  0.47077528342E+03  0.00000000000E+00 0.  1.
          1    1    3    3  501    0  0.11108937334E+02  0.66227325061E+00 -0.16985995615E+03  0.17022412226E+03  0.00000000000E+00 0.  1.
         -1    1    1    2    0  502 -0.45785208708E+02  0.13958440171E+01 -0.35836652777E+03  0.36128216389E+03  0.00000000000E+00 0. -1.
<mgrwt>
<rscale>  1 0.30000000E+03</rscale>
<asrwt>0</asrwt>
<pdfrwt beam="1">  1       21 0.82966341E-02 0.30000000E+03</pdfrwt>
<pdfrwt beam="2">0</pdfrwt>
<totfact> 0.11981718E+04</totfact>
</mgrwt>
</event>
<event>
 6    1  0.6513574E-002  0.3000000E+03  0.7818608E-02  0.1093470E+00
         21   -1    0    0  501  502  0.00000000000E+00  0.00000000000E+00  0.24146150170E+01  0.24146150170E+01  0.00000000000E+00 0. -1.
         13   -1    0    0    0    0 -0.00000000000E+00 -0.00000000000E+00 -0.10000000000E+04  0.10000000000E+04  0.00000000000E+00 0.  1.
    9000005    2    1    2  501    0 -0.64913993885E+01  0.45774725846E+02 -0.66753126789E+03  0.66913817721E+03  0.32315301089E+01 0.  0.
         13    1    3    3    0    0 -0.15406629250E+01  0.17303075814E+02 -0.23244180072E+03  0.23309002723E+03  0.00000000000E+00 0.  1.
          1    1    3    3  501    0 -0.49507364635E+01  0.28471650031E+02 -0.43508946718E+03  0.43604814998E+03  0.00000000000E+00 0.  1.
         -1    1    1    2    0  502  0.64913993885E+01 -0.45774725846E+02 -0.33005411709E+03  0.33327643781E+03  0.00000000000E+00 0. -1.
<mgrwt>
<rscale>  1 0.30000000E+03</rscale>
<asrwt>0</asrwt>
<pdfrwt beam="1">  1       21 0.87804368E-02 0.30000000E+03</pdfrwt>
<pdfrwt beam="2">0</pdfrwt>
<totfact> 0.10841769E+04</totfact>
</mgrwt>
</event>
<event>
 6    1  0.6513574E-002  0.3000000E+03  0.7818608E-02  0.1093470E+00
         21   -1    0    0  501  502  0.00000000000E+00  0.00000000000E+00  0.26894923315E+01  0.26894923315E+01  0.00000000000E+00 0. -1.
         13   -1    0    0    0    0 -0.00000000000E+00 -0.00000000000E+00 -0.10000000000E+04  0.10000000000E+04  0.00000000000E+00 0.  1.
    9000005    2    1    2  501    0  0.39375121558E+02  0.33336949859E+02 -0.53823369304E+03  0.54072274661E+03  0.48813885052E+01 0.  0.
         13    1    3    3    0    0  0.37871636359E+02  0.31817754198E+02 -0.52401133619E+03  0.52634067939E+03  0.00000000000E+00 0.  1.
          3    1    3    3  501    0  0.15034851988E+01  0.15191956610E+01 -0.14222356849E+02  0.14382067221E+02  0.00000000000E+00 0.  1.
         -3    1    1    2    0  502 -0.39375121558E+02 -0.33336949859E+02 -0.45907681463E+03  0.46196674572E+03  0.00000000000E+00 0. -1.
<mgrwt>
<rscale>  1 0.30000000E+03</rscale>
<asrwt>0</asrwt>
<pdfrwt beam="1">  1       21 0.97799927E-02 0.30000000E+03</pdfrwt>
<pdfrwt beam="2">0</pdfrwt>
<totfact> 0.89518391E+03</totfact>
</mgrwt>
</event>
<event>
 6    1  0.6513574E-002  0.3000000E+03  0.7818608E-02  0.1093470E+00
         21   -1    0    0  501  502  0.00000000000E+00  0.00000000000E+00  0.10759437869E+01  0.10759437869E+01  0.00000000000E+00 0. -1.
         13   -1    0    0    0    0 -0.00000000000E+00 -0.00000000000E+00 -0.10000000000E+04  0.10000000000E+04  0.00000000000E+00 0.  1.
    9000005    2    1    2  501    0 -0.12444002012E+02  0.27406209030E+02 -0.69341558191E+03  0.69408835226E+03  0.52457630831E+01 0.  0.
         13    1    3    3    0    0 -0.12329509375E+02  0.27642157648E+02 -0.68438727595E+03  0.68505623796E+03  0.00000000000E+00 0.  1.
          1    1    3    3  501    0 -0.11449263670E+00 -0.23594861848E+00 -0.90283059610E+01  0.90321143062E+01  0.00000000000E+00 0.  1.
         -1    1    1    2    0  502  0.12444002012E+02 -0.27406209030E+02 -0.30550847430E+03  0.30698759152E+03  0.00000000000E+00 0. -1.
<mgrwt>
<rscale>  1 0.30000000E+03</rscale>
<asrwt>0</asrwt>
<pdfrwt beam="1">  1       21 0.39125311E-02 0.30000000E+03</pdfrwt>
<pdfrwt beam="2">0</pdfrwt>
<totfact> 0.43641534E+04</totfact>
</mgrwt>
</event>
<event>
 6    1  0.6513574E-002  0.3000000E+03  0.7818608E-02  0.1093470E+00
         21   -1    0    0  501  502  0.00000000000E+00  0.00000000000E+00  0.16362654613E+01  0.16362654613E+01  0.00000000000E+00 0. -1.
         13   -1    0    0    0    0 -0.00000000000E+00 -0.00000000000E+00 -0.10000000000E+04  0.10000000000E+04  0.00000000000E+00 0.  1.
    9000005    2    1    2  501    0  0.11416378812E+01  0.37095851930E+02 -0.69725649701E+03  0.69825041534E+03  0.31006965485E+01 0.  0.
         13    1    3    3    0    0  0.88636680024E+00  0.24074255390E+02 -0.47948478370E+03  0.48008958874E+03  0.00000000000E+00 0.  1.
          3    1    3    3  501    0  0.25527108093E+00  0.13021596540E+02 -0.21777171332E+03  0.21816082660E+03  0.00000000000E+00 0.  1.
         -3    1    1    2    0  502 -0.11416378812E+01 -0.37095851930E+02 -0.30110723752E+03  0.30338585013E+03  0.00000000000E+00 0. -1.
<mgrwt>
<rscale>  1 0.30000000E+03</rscale>
<asrwt>0</asrwt>
<pdfrwt beam="1">  1       21 0.59500688E-02 0.30000000E+03</pdfrwt>
<pdfrwt beam="2">0</pdfrwt>
<totfact> 0.21377505E+04</totfact>
</mgrwt>
</event>
<event>
 6    1  0.6513574E-002  0.3000000E+03  0.7818608E-02  0.1093470E+00
         21   -1    0    0  501  502  0.00000000000E+00  0.00000000000E+00  0.14284969953E+01  0.14284969953E+01  0.00000000000E+00 0. -1.
         13   -1    0    0    0    0 -0.00000000000E+00 -0.00000000000E+00 -0.10000000000E+04  0.10000000000E+04  0.00000000000E+00 0.  1.
    9000005    2    1    2  501    0  0.23742550690E+02  0.29307650158E+02 -0.50554769465E+03  0.50696401629E+03  0.33756746889E+01 0.  0.
         13    1    3    3    0    0  0.24023202579E+01  0.20626224295E+01 -0.53410907716E+02  0.53504678458E+02  0.00000000000E+00 0.  1.
          1    1    3    3  501    0  0.21340230432E+02  0.27245027729E+02 -0.45213678693E+03  0.45345933783E+03  0.00000000000E+00 0.  1.
         -3    1    1    2    0  502 -0.23742550690E+02 -0.29307650158E+02 -0.49302380836E+03  0.49446448070E+03  0.00000000000E+00 0. -1.
<mgrwt>
<rscale>  1 0.30000000E+03</rscale>
<asrwt>0</asrwt>
<pdfrwt beam="1">  1       21 0.51945455E-02 0.30000000E+03</pdfrwt>
<pdfrwt beam="2">0</pdfrwt>
<totfact> 0.26988225E+04</totfact>
</mgrwt>
</event>
<event>
 6    1  0.6513574E-002  0.3000000E+03  0.7818608E-02  0.1093470E+00
         21   -1    0    0  501  502  0.00000000000E+00  0.00000000000E+00  0.29653095897E+01  0.29653095897E+01  0.00000000000E+00 0. -1.
         13   -1    0    0    0    0 -0.00000000000E+00 -0.00000000000E+00 -0.10000000000E+04  0.10000000000E+04  0.00000000000E+00 0.  1.
    9000005    2    1    2  501    0  0.45868632774E+02 -0.28426053854E+02 -0.43533144644E+03  0.43867592789E+03  0.33360818121E+01 0.  0.
         13    1    3    3    0    0  0.20071935571E+02 -0.11117036767E+02 -0.17521339299E+03  0.17670937776E+03  0.00000000000E+00 0.  1.
          3    1    3    3  501    0  0.25796697203E+02 -0.17309017087E+02 -0.26011805345E+03  0.26196655013E+03  0.00000000000E+00 0.  1.
         -3    1    1    2    0  502 -0.45868632774E+02  0.28426053854E+02 -0.56170324397E+03  0.56428938170E+03  0.00000000000E+00 0. -1.
<mgrwt>
<rscale>  1 0.30000000E+03</rscale>
<asrwt>0</asrwt>
<pdfrwt beam="1">  1       21 0.10782967E-01 0.30000000E+03</pdfrwt>
<pdfrwt beam="2">0</pdfrwt>
<totfact> 0.75165170E+03</totfact>
</mgrwt>
</event>
<event>
 6    1  0.6513574E-002  0.3000000E+03  0.7818608E-02  0.1093470E+00
         21   -1    0    0  501  502  0.00000000000E+00  0.00000000000E+00  0.97926613277E+00  0.97926613277E+00  0.00000000000E+00 0. -1.
         13   -1    0    0    0    0 -0.00000000000E+00 -0.00000000000E+00 -0.10000000000E+04  0.10000000000E+04  0.00000000000E+00 0.  1.
    9000005    2    1    2  501    0 -0.75573849298E+01 -0.30149386316E+02 -0.45568165686E+03  0.45675187600E+03  0.32255655615E+01 0.  0.
         13    1    3    3    0    0 -0.24914060073E+01 -0.49162621767E+01 -0.81710226686E+02  0.81895896617E+02  0.00000000000E+00 0.  1.
          3    1    3    3  501    0 -0.50659789225E+01 -0.25233124139E+02 -0.37397143017E+03  0.37485597939E+03  0.00000000000E+00 0.  1.
         -1    1    1    2    0  502  0.75573849298E+01  0.30149386316E+02 -0.54333907701E+03  0.54422739013E+03  0.00000000000E+00 0. -1.
<mgrwt>
<rscale>  1 0.30000000E+03</rscale>
<asrwt>0</asrwt>
<pdfrwt beam="1">  1       21 0.35609753E-02 0.30000000E+03</pdfrwt>
<pdfrwt beam="2">0</pdfrwt>
<totfact> 0.51115961E+04</totfact>
</mgrwt>
</event>
<event>
 6    1  0.6513574E-002  0.3000000E+03  0.7818608E-02  0.1093470E+00
         21   -1    0    0  501  502  0.00000000000E+00  0.00000000000E+00  0.26341999201E+01  0.26341999201E+01  0.00000000000E+00 0. -1.
         13   -1    0    0    0    0 -0.00000000000E+00 -0.00000000000E+00 -0.10000000000E+04  0.10000000000E+04  0.00000000000E+00 0.  1.
    9000005    2    1    2  501    0 -0.36437098905E+02 -0.40177704332E+01 -0.15331655865E+03  0.15778928716E+03  0.69056014064E+01 0.  0.
         13    1    3    3    0    0 -0.20579953138E+02  0.10149533466E+01 -0.80311344537E+02  0.82912463857E+02  0.00000000000E+00 0.  1.
          3    1    3    3  501    0 -0.15857145767E+02 -0.50327237799E+01 -0.73005214116E+02  0.74876823308E+02  0.00000000000E+00 0.  1.
         -1    1    1    2    0  502  0.36437098905E+02  0.40177704332E+01 -0.84404924143E+03  0.84484491276E+03  0.00000000000E+00 0. -1.
<mgrwt>
<rscale>  1 0.30000000E+03</rscale>
<asrwt>0</asrwt>
<pdfrwt beam="1">  1       21 0.95789290E-02 0.30000000E+03</pdfrwt>
<pdfrwt beam="2">0</pdfrwt>
<totfact> 0.92897303E+03</totfact>
</mgrwt>
</event>
<event>
 6    1  0.6513574E-002  0.3000000E+03  0.7818608E-02  0.1093470E+00
         21   -1    0    0  501  502  0.00000000000E+00  0.00000000000E+00  0.76699922515E+01  0.76699922515E+01  0.00000000000E+00 0. -1.
         13   -1    0    0    0    0 -0.00000000000E+00 -0.00000000000E+00 -0.10000000000E+04  0.10000000000E+04  0.00000000000E+00 0.  1.
    9000005    2    1    2  501    0 -0.22939571523E+02  0.78673622515E+02 -0.31904897771E+03  0.32941995854E+03  0.30815718157E+01 0.  0.
         13    1    3    3    0    0 -0.19027648456E+02  0.68916506012E+02 -0.27774398793E+03  0.28679828981E+03  0.00000000000E+00 0.  1.
          1    1    3    3  501    0 -0.39119230665E+01  0.97571165027E+01 -0.41304989781E+02  0.42621668730E+02  0.00000000000E+00 0.  1.
         -1    1    1    2    0  502  0.22939571523E+02 -0.78673622515E+02 -0.67328103004E+03  0.67825003371E+03  0.00000000000E+00 0. -1.
<mgrwt>
<rscale>  1 0.30000000E+03</rscale>
<asrwt>0</asrwt>
<pdfrwt beam="1">  1       21 0.27890940E-01 0.30000000E+03</pdfrwt>
<pdfrwt beam="2">0</pdfrwt>
<totfact> 0.12570870E+03</totfact>
</mgrwt>
</event>
<event>
 6    1  0.6513574E-002  0.3000000E+03  0.7818608E-02  0.1093470E+00
         21   -1    0    0  501  502  0.00000000000E+00  0.00000000000E+00  0.97187445865E+00  0.97187445865E+00  0.00000000000E+00 0. -1.
         13   -1    0    0    0    0 -0.00000000000E+00 -0.00000000000E+00 -0.10000000000E+04  0.10000000000E+04  0.00000000000E+00 0.  1.
    9000005    2    1    2  501    0 -0.30012395921E+02  0.79398827382E+01 -0.52771353023E+03  0.52863594167E+03  0.32562546146E+01 0.  0.
         13    1    3    3    0    0 -0.27067766483E+02  0.81243174641E+01 -0.47527201372E+03  0.47611149487E+03  0.00000000000E+00 0.  1.
          1    1    3    3  501    0 -0.29446294376E+01 -0.18443472589E+00 -0.52441516508E+02  0.52524446806E+02  0.00000000000E+00 0.  1.
         -1    1    1    2    0  502  0.30012395921E+02 -0.79398827382E+01 -0.47131459531E+03  0.47233593278E+03  0.00000000000E+00 0. -1.
<mgrwt>
<rscale>  1 0.30000000E+03</rscale>
<asrwt>0</asrwt>
<pdfrwt beam="1">  1       21 0.35340964E-02 0.30000000E+03</pdfrwt>
<pdfrwt beam="2">0</pdfrwt>
<totfact> 0.51769251E+04</totfact>
</mgrwt>
</event>
<event>
 6    1  0.6513574E-002  0.3000000E+03  0.7818608E-02  0.1093470E+00
         21   -1    0    0  501  502  0.00000000000E+00  0.00000000000E+00  0.35035306112E+01  0.35035306112E+01  0.00000000000E+00 0. -1.
         13   -1    0    0    0    0 -0.00000000000E+00 -0.00000000000E+00 -0.10000000000E+04  0.10000000000E+04  0.00000000000E+00 0.  1.
    9000005    2    1    2  501    0 -0.26027862771E+02  0.53104200793E+02 -0.50683287979E+03  0.51028153520E+03  0.31892544185E+01 0.  0.
         13    1    3    3    0    0 -0.44536768922E+01  0.86671673993E+01 -0.73908653912E+02  0.74548267261E+02  0.00000000000E+00 0.  1.
          1    1    3    3  501    0 -0.21574185878E+02  0.44437033394E+02 -0.43292422588E+03  0.43573326793E+03  0.00000000000E+00 0.  1.
         -1    1    1    2    0  502  0.26027862771E+02 -0.53104200793E+02 -0.48966358960E+03  0.49322199542E+03  0.00000000000E+00 0. -1.
<mgrwt>
<rscale>  1 0.30000000E+03</rscale>
<asrwt>0</asrwt>
<pdfrwt beam="1">  1       21 0.12740138E-01 0.30000000E+03</pdfrwt>
<pdfrwt beam="2">0</pdfrwt>
<totfact> 0.55575787E+03</totfact>
</mgrwt>
</event>
<event>
 6    1  0.6513574E-002  0.3000000E+03  0.7818608E-02  0.1093470E+00
         21   -1    0    0  501  502  0.00000000000E+00  0.00000000000E+00  0.13616221722E+01  0.13616221722E+01  0.00000000000E+00 0. -1.
         13   -1    0    0    0    0 -0.00000000000E+00 -0.00000000000E+00 -0.10000000000E+04  0.10000000000E+04  0.00000000000E+00 0.  1.
    9000005    2    1    2  501    0 -0.14856994884E+02 -0.31236297209E+02 -0.32904394142E+03  0.33087437708E+03  0.33913808271E+01 0.  0.
         13    1    3    3    0    0 -0.14673147639E+01 -0.22203495402E+01 -0.18482096737E+02  0.18672730504E+02  0.00000000000E+00 0.  1.
          3    1    3    3  501    0 -0.13389680120E+02 -0.29015947669E+02 -0.31056184468E+03  0.31220164658E+03  0.00000000000E+00 0.  1.
         -1    1    1    2    0  502  0.14856994884E+02  0.31236297209E+02 -0.66959443641E+03  0.67048724509E+03  0.00000000000E+00 0. -1.
<mgrwt>
<rscale>  1 0.30000000E+03</rscale>
<asrwt>0</asrwt>
<pdfrwt beam="1">  1       21 0.49513638E-02 0.30000000E+03</pdfrwt>
<pdfrwt beam="2">0</pdfrwt>
<totfact> 0.29288545E+04</totfact>
</mgrwt>
</event>
<event>
 6    1  0.6513574E-002  0.3000000E+03  0.7818608E-02  0.1093470E+00
         21   -1    0    0  501  502  0.00000000000E+00  0.00000000000E+00  0.24752764449E+01  0.24752764449E+01  0.00000000000E+00 0. -1.
         13   -1    0    0    0    0 -0.00000000000E+00 -0.00000000000E+00 -0.10000000000E+04  0.10000000000E+04  0.00000000000E+00 0.  1.
    9000005    2    1    2  501    0 -0.10885776850E+02 -0.45535953272E+02 -0.33153105204E+03  0.33483795449E+03  0.34050136271E+01 0.  0.
         13    1    3    3    0    0 -0.94021994690E+01 -0.41346631281E+02 -0.29322398517E+03  0.29627394545E+03  0.00000000000E+00 0.  1.
          3    1    3    3  501    0 -0.14835773810E+01 -0.41893219912E+01 -0.38307066871E+02  0.38564009035E+02  0.00000000000E+00 0.  1.
         -3    1    1    2    0  502  0.10885776850E+02  0.45535953272E+02 -0.66599367151E+03  0.66763732196E+03  0.00000000000E+00 0. -1.
<mgrwt>
<rscale>  1 0.30000000E+03</rscale>
<asrwt>0</asrwt>
<pdfrwt beam="1">  1       21 0.90010242E-02 0.30000000E+03</pdfrwt>
<pdfrwt beam="2">0</pdfrwt>
<totfact> 0.10375997E+04</totfact>
</mgrwt>
</event>
<event>
 6    1  0.6513574E-002  0.3000000E+03  0.7818608E-02  0.1093470E+00
         21   -1    0    0  501  502  0.00000000000E+00  0.00000000000E+00  0.91546647401E+00  0.91546647401E+00  0.00000000000E+00 0. -1.
         13   -1    0    0    0    0 -0.00000000000E+00 -0.00000000000E+00 -0.10000000000E+04  0.10000000000E+04  0.00000000000E+00 0.  1.
    9000005    2    1    2  501    0 -0.18253617211E+02  0.23867813698E+02 -0.52939690390E+03  0.53026768257E+03  0.44571566159E+01 0.  0.
         13    1    3    3    0    0 -0.97276265854E+01  0.10608037511E+02 -0.22107026567E+03  0.22153830265E+03  0.00000000000E+00 0.  1.
          1    1    3    3  501    0 -0.85259906254E+01  0.13259776187E+02 -0.30832663823E+03  0.30872937992E+03  0.00000000000E+00 0.  1.
         -3    1    1    2    0  502  0.18253617211E+02 -0.23867813698E+02 -0.46968762962E+03  0.47064778390E+03  0.00000000000E+00 0. -1.
<mgrwt>
<rscale>  1 0.30000000E+03</rscale>
<asrwt>0</asrwt>
<pdfrwt beam="1">  1       21 0.33289760E-02 0.30000000E+03</pdfrwt>
<pdfrwt beam="2">0</pdfrwt>
<totfact> 0.57212891E+04</totfact>
</mgrwt>
</event>
<event>
 6    1  0.6513574E-002  0.3000000E+03  0.7818608E-02  0.1093470E+00
         21   -1    0    0  501  502  0.00000000000E+00  0.00000000000E+00  0.13995338034E+01  0.13995338034E+01  0.00000000000E+00 0. -1.
         13   -1    0    0    0    0 -0.00000000000E+00 -0.00000000000E+00 -0.10000000000E+04  0.10000000000E+04  0.00000000000E+00 0.  1.
    9000005    2    1    2  501    0 -0.33758208351E+02 -0.11218673964E+02 -0.65231337171E+03  0.65329002936E+03  0.31068104913E+01 0.  0.
         13    1    3    3    0    0 -0.30023166115E+02 -0.89134032701E+01 -0.57401433776E+03  0.57486807114E+03  0.00000000000E+00 0.  1.
          1    1    3    3  501    0 -0.37350422362E+01 -0.23052706939E+01 -0.78299033947E+02  0.78421958217E+02  0.00000000000E+00 0.  1.
         -1    1    1    2    0  502  0.33758208351E+02  0.11218673964E+02 -0.34628709449E+03  0.34810950444E+03  0.00000000000E+00 0. -1.
<mgrwt>
<rscale>  1 0.30000000E+03</rscale>
<asrwt>0</asrwt>
<pdfrwt beam="1">  1       21 0.50892246E-02 0.30000000E+03</pdfrwt>
<pdfrwt beam="2">0</pdfrwt>
<totfact> 0.27948711E+04</totfact>
</mgrwt>
</event>
<event>
 6    1  0.6513574E-002  0.3000000E+03  0.7818608E-02  0.1093470E+00
         21   -1    0    0  501  502  0.00000000000E+00  0.00000000000E+00  0.23712727775E+01  0.23712727775E+01  0.00000000000E+00 0. -1.
         13   -1    0    0    0    0 -0.00000000000E+00 -0.00000000000E+00 -0.10000000000E+04  0.10000000000E+04  0.00000000000E+00 0.  1.
    9000005    2    1    2  501    0  0.43662956162E+02  0.13960871747E+02 -0.66670636974E+03  0.66828899794E+03  0.33825480219E+01 0.  0.
         13    1    3    3    0    0  0.35595606881E+02  0.10589364612E+02 -0.55480804383E+03  0.55604959075E+03  0.00000000000E+00 0.  1.
          3    1    3    3  501    0  0.80673492814E+01  0.33715071354E+01 -0.11189832591E+03  0.11223940719E+03  0.00000000000E+00 0.  1.
         -3    1    1    2    0  502 -0.43662956162E+02 -0.13960871747E+02 -0.33092235748E+03  0.33408227484E+03  0.00000000000E+00 0. -1.
<mgrwt>
<rscale>  1 0.30000000E+03</rscale>
<asrwt>0</asrwt>
<pdfrwt beam="1">  1       21 0.86228283E-02 0.30000000E+03</pdfrwt>
<pdfrwt beam="2">0</pdfrwt>
<totfact> 0.11194288E+04</totfact>
</mgrwt>
</event>
<event>
 6    1  0.6513574E-002  0.3000000E+03  0.7818608E-02  0.1093470E+00
         21   -1    0    0  501  502  0.00000000000E+00  0.00000000000E+00  0.10613083518E+01  0.10613083518E+01  0.00000000000E+00 0. -1.
         13   -1    0    0    0    0 -0.00000000000E+00 -0.00000000000E+00 -0.10000000000E+04  0.10000000000E+04  0.00000000000E+00 0.  1.
    9000005    2    1    2  501    0 -0.30004938809E+02 -0.11319794002E+02 -0.58160659256E+03  0.58249886974E+03  0.32047850844E+01 0.  0.
         13    1    3    3    0    0 -0.28672970838E+02 -0.10337494843E+02 -0.56009046870E+03  0.56091918864E+03  0.00000000000E+00 0.  1.
          1    1    3    3  501    0 -0.13319679710E+01 -0.98229915879E+00 -0.21516123864E+02  0.21579681102E+02  0.00000000000E+00 0.  1.
         -3    1    1    2    0  502  0.30004938809E+02  0.11319794002E+02 -0.41733209909E+03  0.41856243861E+03  0.00000000000E+00 0. -1.
<mgrwt>
<rscale>  1 0.30000000E+03</rscale>
<asrwt>0</asrwt>
<pdfrwt beam="1">  1       21 0.38593112E-02 0.30000000E+03</pdfrwt>
<pdfrwt beam="2">0</pdfrwt>
<totfact> 0.44658375E+04</totfact>
</mgrwt>
</event>
<event>
 6    1  0.6513574E-002  0.3000000E+03  0.7818608E-02  0.1093470E+00
         21   -1    0    0  501  502  0.00000000000E+00  0.00000000000E+00  0.10174918913E+01  0.10174918913E+01  0.00000000000E+00 0. -1.
         13   -1    0    0    0    0 -0.00000000000E+00 -0.00000000000E+00 -0.10000000000E+04  0.10000000000E+04  0.00000000000E+00 0.  1.
    9000005    2    1    2  501    0 -0.22161237242E+02  0.22104886979E+02 -0.41421806791E+03  0.41541592343E+03  0.37463570228E+01 0.  0.
         13    1    3    3    0    0 -0.11494978421E+02  0.10972160216E+02 -0.18594892709E+03  0.18662670311E+03  0.00000000000E+00 0.  1.
          3    1    3    3  501    0 -0.10666258822E+02  0.11132726763E+02 -0.22826914082E+03  0.22878922031E+03  0.00000000000E+00 0.  1.
         -1    1    1    2    0  502  0.22161237242E+02 -0.22104886979E+02 -0.58476444020E+03  0.58560156846E+03  0.00000000000E+00 0. -1.
<mgrwt>
<rscale>  1 0.30000000E+03</rscale>
<asrwt>0</asrwt>
<pdfrwt beam="1">  1       21 0.36999783E-02 0.30000000E+03</pdfrwt>
<pdfrwt beam="2">0</pdfrwt>
<totfact> 0.47935910E+04</totfact>
</mgrwt>
</event>
<event>
 6    1  0.6513574E-002  0.3000000E+03  0.7818608E-02  0.1093470E+00
         21   -1    0    0  501  502  0.00000000000E+00  0.00000000000E+00  0.12260686207E+01  0.12260686207E+01  0.00000000000E+00 0. -1.
         13   -1    0    0    0    0 -0.00000000000E+00 -0.00000000000E+00 -0.10000000000E+04  0.10000000000E+04  0.00000000000E+00 0.  1.
    9000005    2    1    2  501    0  0.31366697212E+02 -0.15200460517E+02 -0.52862003930E+03  0.52978189809E+03  0.38457633720E+01 0.  0.
         13    1    3    3    0    0  0.98480116203E+01 -0.67961374133E+01 -0.18125618317E+03  0.18165069434E+03  0.00000000000E+00 0.  1.
          3    1    3    3  501    0  0.21518685592E+02 -0.84043231040E+01 -0.34736385613E+03  0.34813120374E+03  0.00000000000E+00 0.  1.
         -1    1    1    2    0  502 -0.31366697212E+02  0.15200460517E+02 -0.47015389208E+03  0.47144417054E+03  0.00000000000E+00 0. -1.
<mgrwt>
<rscale>  1 0.30000000E+03</rscale>
<asrwt>0</asrwt>
<pdfrwt beam="1">  1       21 0.44584407E-02 0.30000000E+03</pdfrwt>
<pdfrwt beam="2">0</pdfrwt>
<totfact> 0.35004802E+04</totfact>
</mgrwt>
</event>
<event>
 6    1  0.6513574E-002  0.3000000E+03  0.7818608E-02  0.1093470E+00
         21   -1    0    0  501  502  0.00000000000E+00  0.00000000000E+00  0.95832777224E+00  0.95832777224E+00  0.00000000000E+00 0. -1.
         13   -1    0    0    0    0 -0.00000000000E+00 -0.00000000000E+00 -0.10000000000E+04  0.10000000000E+04  0.00000000000E+00 0.  1.
    9000005    2    1    2  501    0  0.30765767855E+02 -0.29862904295E+01 -0.50052390716E+03  0.50148319077E+03  0.23997034956E+01 0.  0.
         13    1    3    3    0    0  0.28607106458E+02 -0.31616366429E+01 -0.45696741714E+03  0.45787288936E+03  0.00000000000E+00 0.  1.
          3    1    3    3  501    0  0.21586613976E+01  0.17534621344E+00 -0.43556490021E+02  0.43610301401E+02  0.00000000000E+00 0.  1.
         -1    1    1    2    0  502 -0.30765767855E+02  0.29862904295E+01 -0.49851776506E+03  0.49947513701E+03  0.00000000000E+00 0. -1.
<mgrwt>
<rscale>  1 0.30000000E+03</rscale>
<asrwt>0</asrwt>
<pdfrwt beam="1">  1       21 0.34848356E-02 0.30000000E+03</pdfrwt>
<pdfrwt beam="2">0</pdfrwt>
<totfact> 0.53000702E+04</totfact>
</mgrwt>
</event>
<event>
 6    1  0.6513574E-002  0.3000000E+03  0.7818608E-02  0.1093470E+00
         21   -1    0    0  501  502  0.00000000000E+00  0.00000000000E+00  0.22004259189E+01  0.22004259189E+01  0.00000000000E+00 0. -1.
         13   -1    0    0    0    0 -0.00000000000E+00 -0.00000000000E+00 -0.10000000000E+04  0.10000000000E+04  0.00000000000E+00 0.  1.
    9000005    2    1    2  501    0  0.80878247470E+01 -0.45738100509E+02 -0.45674357150E+03  0.45915440146E+03  0.71195175306E+01 0.  0.
         13    1    3    3    0    0  0.86707874028E+01 -0.43833898253E+02 -0.44555706164E+03  0.44779201463E+03  0.00000000000E+00 0.  1.
          1    1    3    3  501    0 -0.58296265587E+00 -0.19042022559E+01 -0.11186509863E+02  0.11362386835E+02  0.00000000000E+00 0.  1.
         -3    1    1    2    0  502 -0.80878247470E+01  0.45738100509E+02 -0.54105600258E+03  0.54304602446E+03  0.00000000000E+00 0. -1.
<mgrwt>
<rscale>  1 0.30000000E+03</rscale>
<asrwt>0</asrwt>
<pdfrwt beam="1">  1       21 0.80015657E-02 0.30000000E+03</pdfrwt>
<pdfrwt beam="2">0</pdfrwt>
<totfact> 0.12769479E+04</totfact>
</mgrwt>
</event>
<event>
 6    1  0.6513574E-002  0.3000000E+03  0.7818608E-02  0.1093470E+00
         21   -1    0    0  501  502  0.00000000000E+00  0.00000000000E+00  0.11494953477E+01  0.11494953477E+01  0.00000000000E+00 0. -1.
         13   -1    0    0    0    0 -0.00000000000E+00 -0.00000000000E+00 -0.10000000000E+04  0.10000000000E+04  0.00000000000E+00 0.  1.
    9000005    2    1    2  501    0 -0.17188724949E+02  0.26837614980E+02 -0.33312832371E+03  0.33466488785E+03  0.32244772420E+01 0.  0.
         13    1    3    3    0    0 -0.15747666179E+02  0.25278224989E+02 -0.31733416488E+03  0.31872864610E+03  0.00000000000E+00 0.  1.
          1    1    3    3  501    0 -0.14410587696E+01  0.15593899904E+01 -0.15794158838E+02  0.15936241744E+02  0.00000000000E+00 0.  1.
         -3    1    1    2    0  502  0.17188724949E+02 -0.26837614980E+02 -0.66572218094E+03  0.66648460750E+03  0.00000000000E+00 0. -1.
<mgrwt>
<rscale>  1 0.30000000E+03</rscale>
<asrwt>0</asrwt>
<pdfrwt beam="1">  1       21 0.41799919E-02 0.30000000E+03</pdfrwt>
<pdfrwt beam="2">0</pdfrwt>
<totfact> 0.39039950E+04</totfact>
</mgrwt>
</event>
<event>
 6    1  0.6513574E-002  0.3000000E+03  0.7818608E-02  0.1093470E+00
         21   -1    0    0  501  502  0.00000000000E+00  0.00000000000E+00  0.15883512958E+01  0.15883512958E+01  0.00000000000E+00 0. -1.
         13   -1    0    0    0    0 -0.00000000000E+00 -0.00000000000E+00 -0.10000000000E+04  0.10000000000E+04  0.00000000000E+00 0.  1.
    9000005    2    1    2  501    0 -0.32291846634E+02  0.12572192915E+02 -0.25413925890E+03  0.25650968859E+03  0.31038738595E+01 0.  0.
         13    1    3    3    0    0 -0.14412468457E+02  0.68939264134E+01 -0.10968191042E+03  0.11083937451E+03  0.00000000000E+00 0.  1.
          3    1    3    3  501    0 -0.17879378177E+02  0.56782665012E+01 -0.14445734848E+03  0.14567031408E+03  0.00000000000E+00 0.  1.
         -3    1    1    2    0  502  0.32291846634E+02 -0.12572192915E+02 -0.74427238980E+03  0.74507866270E+03  0.00000000000E+00 0. -1.
<mgrwt>
<rscale>  1 0.30000000E+03</rscale>
<asrwt>0</asrwt>
<pdfrwt beam="1">  1       21 0.57758351E-02 0.30000000E+03</pdfrwt>
<pdfrwt beam="2">0</pdfrwt>
<totfact> 0.22500745E+04</totfact>
</mgrwt>
</event>
<event>
 6    1  0.6513574E-002  0.3000000E+03  0.7818608E-02  0.1093470E+00
         21   -1    0    0  501  502  0.00000000000E+00  0.00000000000E+00  0.14284173989E+01  0.14284173989E+01  0.00000000000E+00 0. -1.
         13   -1    0    0    0    0 -0.00000000000E+00 -0.00000000000E+00 -0.10000000000E+04  0.10000000000E+04  0.00000000000E+00 0.  1.
    9000005    2    1    2  501    0  0.14981064229E+02  0.32634793971E+02 -0.65060098289E+03  0.65160989255E+03  0.49346804085E+01 0.  0.
         13    1    3    3    0    0  0.14576953577E+02  0.31330673622E+02 -0.60298868875E+03  0.60397802729E+03  0.00000000000E+00 0.  1.
          1    1    3    3  501    0  0.40411065193E+00  0.13041203499E+01 -0.47612294138E+02  0.47631865262E+02  0.00000000000E+00 0.  1.
         -1    1    1    2    0  502 -0.14981064229E+02 -0.32634793971E+02 -0.34797059971E+03  0.34981852485E+03  0.00000000000E+00 0. -1.
<mgrwt>
<rscale>  1 0.30000000E+03</rscale>
<asrwt>0</asrwt>
<pdfrwt beam="1">  1       21 0.51942560E-02 0.30000000E+03</pdfrwt>
<pdfrwt beam="2">0</pdfrwt>
<totfact> 0.26990794E+04</totfact>
</mgrwt>
</event>
<event>
 6    1  0.6513574E-002  0.3000000E+03  0.7818608E-02  0.1093470E+00
         21   -1    0    0  501  502  0.00000000000E+00  0.00000000000E+00  0.12931541777E+01  0.12931541777E+01  0.00000000000E+00 0. -1.
         13   -1    0    0    0    0 -0.00000000000E+00 -0.00000000000E+00 -0.10000000000E+04  0.10000000000E+04  0.00000000000E+00 0.  1.
    9000005    2    1    2  501    0  0.33064216614E+02 -0.13822095055E+02 -0.52963660358E+03  0.53085592682E+03  0.29648693379E+01 0.  0.
         13    1    3    3    0    0  0.30505779362E+02 -0.11845185750E+02 -0.48336426055E+03  0.48447076214E+03  0.00000000000E+00 0.  1.
          1    1    3    3  501    0  0.25584372512E+01 -0.19769093047E+01 -0.46272343040E+02  0.46385164675E+02  0.00000000000E+00 0.  1.
         -1    1    1    2    0  502 -0.33064216614E+02  0.13822095055E+02 -0.46907024224E+03  0.47043722736E+03  0.00000000000E+00 0. -1.
<mgrwt>
<rscale>  1 0.30000000E+03</rscale>
<asrwt>0</asrwt>
<pdfrwt beam="1">  1       21 0.47023887E-02 0.30000000E+03</pdfrwt>
<pdfrwt beam="2">0</pdfrwt>
<totfact> 0.31976696E+04</totfact>
</mgrwt>
</event>
<event>
 6    1  0.6513574E-002  0.3000000E+03  0.7818608E-02  0.1093470E+00
         21   -1    0    0  501  502  0.00000000000E+00  0.00000000000E+00  0.16245166874E+01  0.16245166874E+01  0.00000000000E+00 0. -1.
         13   -1    0    0    0    0 -0.00000000000E+00 -0.00000000000E+00 -0.10000000000E+04  0.10000000000E+04  0.00000000000E+00 0.  1.
    9000005    2    1    2  501    0 -0.39767000329E+02  0.43277525420E+01 -0.44401735968E+03  0.44582502677E+03  0.28974192495E+01 0.  0.
         13    1    3    3    0    0 -0.17798079091E+02  0.16114898313E+01 -0.18285328876E+03  0.18372450497E+03  0.00000000000E+00 0.  1.
          1    1    3    3  501    0 -0.21968921238E+02  0.27162627106E+01 -0.26116407092E+03  0.26210052179E+03  0.00000000000E+00 0.  1.
         -1    1    1    2    0  502  0.39767000329E+02 -0.43277525420E+01 -0.55435812363E+03  0.55579948992E+03  0.00000000000E+00 0. -1.
<mgrwt>
<rscale>  1 0.30000000E+03</rscale>
<asrwt>0</asrwt>
<pdfrwt beam="1">  1       21 0.59073459E-02 0.30000000E+03</pdfrwt>
<pdfrwt beam="2">0</pdfrwt>
<totfact> 0.21644720E+04</totfact>
</mgrwt>
</event>
<event>
 6    1  0.6513574E-002  0.3000000E+03  0.7818608E-02  0.1093470E+00
         21   -1    0    0  501  502  0.00000000000E+00  0.00000000000E+00  0.19241359021E+01  0.19241359021E+01  0.00000000000E+00 0. -1.
         13   -1    0    0    0    0 -0.00000000000E+00 -0.00000000000E+00 -0.10000000000E+04  0.10000000000E+04  0.00000000000E+00 0.  1.
    9000005    2    1    2  501    0  0.12132918371E+02  0.40537910268E+02 -0.62930964631E+03  0.63073812693E+03  0.30698442679E+01 0.  0.
         13    1    3    3    0    0  0.40423670825E+01  0.94738401880E+01 -0.16240780417E+03  0.16273410593E+03  0.00000000000E+00 0.  1.
          1    1    3    3  501    0  0.80905512880E+01  0.31064070080E+02 -0.46690184215E+03  0.46800402100E+03  0.00000000000E+00 0.  1.
         -1    1    1    2    0  502 -0.12132918371E+02 -0.40537910268E+02 -0.36876621779E+03  0.37118600897E+03  0.00000000000E+00 0. -1.
<mgrwt>
<rscale>  1 0.30000000E+03</rscale>
<asrwt>0</asrwt>
<pdfrwt beam="1">  1       21 0.69968726E-02 0.30000000E+03</pdfrwt>
<pdfrwt beam="2">0</pdfrwt>
<totfact> 0.16147840E+04</totfact>
</mgrwt>
</event>
<event>
 6    1  0.6513574E-002  0.3000000E+03  0.7818608E-02  0.1093470E+00
         21   -1    0    0  501  502  0.00000000000E+00  0.00000000000E+00  0.18577608997E+01  0.18577608997E+01  0.00000000000E+00 0. -1.
         13   -1    0    0    0    0 -0.00000000000E+00 -0.00000000000E+00 -0.10000000000E+04  0.10000000000E+04  0.00000000000E+00 0.  1.
    9000005    2    1    2  501    0 -0.25634643137E+02 -0.33522058150E+02 -0.59844943788E+03  0.59994334382E+03  0.30696547730E+01 0.  0.
         13    1    3    3    0    0 -0.19879731539E+02 -0.27259023958E+02 -0.49103836658E+03  0.49219603367E+03  0.00000000000E+00 0.  1.
          3    1    3    3  501    0 -0.57549115979E+01 -0.62630341923E+01 -0.10741107130E+03  0.10774731014E+03  0.00000000000E+00 0.  1.
         -3    1    1    2    0  502  0.25634643137E+02  0.33522058150E+02 -0.39969280122E+03  0.40191441708E+03  0.00000000000E+00 0. -1.
<mgrwt>
<rscale>  1 0.30000000E+03</rscale>
<asrwt>0</asrwt>
<pdfrwt beam="1">  1       21 0.67555084E-02 0.30000000E+03</pdfrwt>
<pdfrwt beam="2">0</pdfrwt>
<totfact> 0.17163688E+04</totfact>
</mgrwt>
</event>
<event>
 6    1  0.6513574E-002  0.3000000E+03  0.7818608E-02  0.1093470E+00
         21   -1    0    0  501  502  0.00000000000E+00  0.00000000000E+00  0.28903374498E+01  0.28903374498E+01  0.00000000000E+00 0. -1.
         13   -1    0    0    0    0 -0.00000000000E+00 -0.00000000000E+00 -0.10000000000E+04  0.10000000000E+04  0.00000000000E+00 0.  1.
    9000005    2    1    2  501    0 -0.22651195996E+02  0.48561062478E+02 -0.46571087157E+03  0.46879677961E+03  0.35427682209E+01 0.  0.
         13    1    3    3    0    0 -0.26510850412E+01  0.57761505321E+01 -0.45984897839E+02  0.46422009824E+02  0.00000000000E+00 0.  1.
          1    1    3    3  501    0 -0.20000110955E+02  0.42784911946E+02 -0.41972597373E+03  0.42237476978E+03  0.00000000000E+00 0.  1.
         -3    1    1    2    0  502  0.22651195996E+02 -0.48561062478E+02 -0.53139879099E+03  0.53409355784E+03  0.00000000000E+00 0. -1.
<mgrwt>
<rscale>  1 0.30000000E+03</rscale>
<asrwt>0</asrwt>
<pdfrwt beam="1">  1       21 0.10510340E-01 0.30000000E+03</pdfrwt>
<pdfrwt beam="2">0</pdfrwt>
<totfact> 0.78699702E+03</totfact>
</mgrwt>
</event>
<event>
 6    1  0.6513574E-002  0.3000000E+03  0.7818608E-02  0.1093470E+00
         21   -1    0    0  501  502  0.00000000000E+00  0.00000000000E+00  0.14347735394E+01  0.14347735394E+01  0.00000000000E+00 0. -1.
         13   -1    0    0    0    0 -0.00000000000E+00 -0.00000000000E+00 -0.10000000000E+04  0.10000000000E+04  0.00000000000E+00 0.  1.
    9000005    2    1    2  501    0 -0.30909613781E+02  0.10275245015E+02 -0.24749692759E+03  0.24966048930E+03  0.38269914889E+01 0.  0.
         13    1    3    3    0    0 -0.90242668284E+01  0.35754740634E+01 -0.61648567199E+02  0.62408070345E+02  0.00000000000E+00 0.  1.
          3    1    3    3  501    0 -0.21885346952E+02  0.66997709520E+01 -0.18584836039E+03  0.18725241895E+03  0.00000000000E+00 0.  1.
         -3    1    1    2    0  502  0.30909613781E+02 -0.10275245015E+02 -0.75106829887E+03  0.75177428424E+03  0.00000000000E+00 0. -1.
<mgrwt>
<rscale>  1 0.30000000E+03</rscale>
<asrwt>0</asrwt>
<pdfrwt beam="1">  1       21 0.52173693E-02 0.30000000E+03</pdfrwt>
<pdfrwt beam="2">0</pdfrwt>
<totfact> 0.26786834E+04</totfact>
</mgrwt>
</event>
<event>
 6    1  0.6513574E-002  0.3000000E+03  0.7818608E-02  0.1093470E+00
         21   -1    0    0  501  502  0.00000000000E+00  0.00000000000E+00  0.97068059901E+00  0.97068059901E+00  0.00000000000E+00 0. -1.
         13   -1    0    0    0    0 -0.00000000000E+00 -0.00000000000E+00 -0.10000000000E+04  0.10000000000E+04  0.00000000000E+00 0.  1.
    9000005    2    1    2  501    0  0.13972954603E+02 -0.27124300709E+02 -0.59582973424E+03  0.59661826423E+03  0.30512062046E+01 0.  0.
         13    1    3    3    0    0  0.11143937699E+02 -0.20141630449E+02 -0.42592070585E+03  0.42654228430E+03  0.00000000000E+00 0.  1.
          1    1    3    3  501    0  0.28290169036E+01 -0.69826702603E+01 -0.16990902840E+03  0.17007597994E+03  0.00000000000E+00 0.  1.
         -1    1    1    2    0  502 -0.13972954603E+02  0.27124300709E+02 -0.40319958516E+03  0.40435241636E+03  0.00000000000E+00 0. -1.
<mgrwt>
<rscale>  1 0.30000000E+03</rscale>
<asrwt>0</asrwt>
<pdfrwt beam="1">  1       21 0.35297551E-02 0.30000000E+03</pdfrwt>
<pdfrwt beam="2">0</pdfrwt>
<totfact> 0.51875984E+04</totfact>
</mgrwt>
</event>
<event>
 6    1  0.6513574E-002  0.3000000E+03  0.7818608E-02  0.1093470E+00
         21   -1    0    0  501  502  0.00000000000E+00  0.00000000000E+00  0.25913552798E+01  0.25913552798E+01  0.00000000000E+00 0. -1.
         13   -1    0    0    0    0 -0.00000000000E+00 -0.00000000000E+00 -0.10000000000E+04  0.10000000000E+04  0.00000000000E+00 0.  1.
    9000005    2    1    2  501    0 -0.50461626794E+02 -0.56362567630E+01 -0.52708124955E+03  0.52953110350E+03  0.32253333054E+01 0.  0.
         13    1    3    3    0    0 -0.35768853168E+01 -0.68701854881E+00 -0.30426415017E+02  0.30643642633E+02  0.00000000000E+00 0.  1.
          1    1    3    3  501    0 -0.46884741477E+02 -0.49492382142E+01 -0.49665483454E+03  0.49888746087E+03  0.00000000000E+00 0.  1.
         -3    1    1    2    0  502  0.50461626794E+02  0.56362567630E+01 -0.47032739517E+03  0.47306025178E+03  0.00000000000E+00 0. -1.
<mgrwt>
<rscale>  1 0.30000000E+03</rscale>
<asrwt>0</asrwt>
<pdfrwt beam="1">  1       21 0.94231300E-02 0.30000000E+03</pdfrwt>
<pdfrwt beam="2">0</pdfrwt>
<totfact> 0.95650984E+03</totfact>
</mgrwt>
</event>
<event>
 6    1  0.6513574E-002  0.3000000E+03  0.7818608E-02  0.1093470E+00
         21   -1    0    0  501  502  0.00000000000E+00  0.00000000000E+00  0.47139099320E+01  0.47139099320E+01  0.00000000000E+00 0. -1.
         13   -1    0    0    0    0 -0.00000000000E+00 -0.00000000000E+00 -0.10000000000E+04  0.10000000000E+04  0.00000000000E+00 0.  1.
    9000005    2    1    2  501    0  0.51008524322E+01  0.68155498123E+02 -0.54001724273E+03  0.54434350040E+03  0.44758638963E+01 0.  0.
         13    1    3    3    0    0  0.54853932564E+01  0.67168338370E+02 -0.52899504264E+03  0.53327050392E+03  0.00000000000E+00 0.  1.
          1    1    3    3  501    0 -0.38454082420E+00  0.98715975304E+00 -0.11022200097E+02  0.11072996478E+02  0.00000000000E+00 0.  1.
         -1    1    1    2    0  502 -0.51008524322E+01 -0.68155498123E+02 -0.45526884733E+03  0.46037040953E+03  0.00000000000E+00 0. -1.
<mgrwt>
<rscale>  1 0.30000000E+03</rscale>
<asrwt>0</asrwt>
<pdfrwt beam="1">  1       21 0.17141527E-01 0.30000000E+03</pdfrwt>
<pdfrwt beam="2">0</pdfrwt>
<totfact> 0.32112489E+03</totfact>
</mgrwt>
</event>
<event>
 6    1  0.6513574E-002  0.3000000E+03  0.7818608E-02  0.1093470E+00
         21   -1    0    0  501  502  0.00000000000E+00  0.00000000000E+00  0.40405377432E+01  0.40405377432E+01  0.00000000000E+00 0. -1.
         13   -1    0    0    0    0 -0.00000000000E+00 -0.00000000000E+00 -0.10000000000E+04  0.10000000000E+04  0.00000000000E+00 0.  1.
    9000005    2    1    2  501    0 -0.28377521809E+02  0.54257797315E+02 -0.36557132509E+03  0.37068566424E+03  0.40343065224E+01 0.  0.
         13    1    3    3    0    0 -0.64040816483E+01  0.16137908404E+02 -0.10469705064E+03  0.10612688991E+03  0.00000000000E+00 0.  1.
          3    1    3    3  501    0 -0.21973440161E+02  0.38119888912E+02 -0.26087427445E+03  0.26455877432E+03  0.00000000000E+00 0.  1.
         -1    1    1    2    0  502  0.28377521809E+02 -0.54257797315E+02 -0.63038813717E+03  0.63335487351E+03  0.00000000000E+00 0. -1.
<mgrwt>
<rscale>  1 0.30000000E+03</rscale>
<asrwt>0</asrwt>
<pdfrwt beam="1">  1       21 0.14692896E-01 0.30000000E+03</pdfrwt>
<pdfrwt beam="2">0</pdfrwt>
<totfact> 0.42785655E+03</totfact>
</mgrwt>
</event>
<event>
 6    1  0.6513574E-002  0.3000000E+03  0.7818608E-02  0.1093470E+00
         21   -1    0    0  501  502  0.00000000000E+00  0.00000000000E+00  0.19727416120E+01  0.19727416120E+01  0.00000000000E+00 0. -1.
         13   -1    0    0    0    0 -0.00000000000E+00 -0.00000000000E+00 -0.10000000000E+04  0.10000000000E+04  0.00000000000E+00 0.  1.
    9000005    2    1    2  501    0 -0.25554393275E+02  0.32716890012E+02 -0.67597320149E+03  0.67725403647E+03  0.31366970054E+01 0.  0.
         13    1    3    3    0    0 -0.19245846940E+02  0.26371143997E+02 -0.54199079364E+03  0.54297316715E+03  0.00000000000E+00 0.  1.
          3    1    3    3  501    0 -0.63085463347E+01  0.63457460153E+01 -0.13398240785E+03  0.13428086931E+03  0.00000000000E+00 0.  1.
         -3    1    1    2    0  502  0.25554393275E+02 -0.32716890012E+02 -0.32205405690E+03  0.32471870514E+03  0.00000000000E+00 0. -1.
<mgrwt>
<rscale>  1 0.30000000E+03</rscale>
<asrwt>0</asrwt>
<pdfrwt beam="1">  1       21 0.71736210E-02 0.30000000E+03</pdfrwt>
<pdfrwt beam="2">0</pdfrwt>
<totfact> 0.15461083E+04</totfact>
</mgrwt>
</event>
<event>
 6    1  0.6513574E-002  0.3000000E+03  0.7818608E-02  0.1093470E+00
         21   -1    0    0  501  502  0.00000000000E+00  0.00000000000E+00  0.13156276708E+01  0.13156276708E+01  0.00000000000E+00 0. -1.
         13   -1    0    0    0    0 -0.00000000000E+00 -0.00000000000E+00 -0.10000000000E+04  0.10000000000E+04  0.00000000000E+00 0.  1.
    9000005    2    1    2  501    0  0.22939503412E+02  0.23743694846E+02 -0.29506429649E+03  0.29692142342E+03  0.30673701152E+01 0.  0.
         13    1    3    3    0    0  0.16620132243E+02  0.18429350679E+02 -0.21190998459E+03  0.21335817616E+03  0.00000000000E+00 0.  1.
          3    1    3    3  501    0  0.63193711688E+01  0.53143441662E+01 -0.83154311899E+02  0.83563247264E+02  0.00000000000E+00 0.  1.
         -1    1    1    2    0  502 -0.22939503412E+02 -0.23743694846E+02 -0.70362007584E+03  0.70439420425E+03  0.00000000000E+00 0. -1.
<mgrwt>
<rscale>  1 0.30000000E+03</rscale>
<asrwt>0</asrwt>
<pdfrwt beam="1">  1       21 0.47841107E-02 0.30000000E+03</pdfrwt>
<pdfrwt beam="2">0</pdfrwt>
<totfact> 0.31053243E+04</totfact>
</mgrwt>
</event>
<event>
 6    1  0.6513574E-002  0.3000000E+03  0.7818608E-02  0.1093470E+00
         21   -1    0    0  501  502  0.00000000000E+00  0.00000000000E+00  0.18449984352E+01  0.18449984352E+01  0.00000000000E+00 0. -1.
         13   -1    0    0    0    0 -0.00000000000E+00 -0.00000000000E+00 -0.10000000000E+04  0.10000000000E+04  0.00000000000E+00 0.  1.
    9000005    2    1    2  501    0  0.38915012523E+02 -0.17474802048E+02 -0.55253640889E+03  0.55418924114E+03  0.30797621146E+01 0.  0.
         13    1    3    3    0    0  0.83369270751E+01 -0.50697168429E+01 -0.13205086266E+03  0.13241086327E+03  0.00000000000E+00 0.  1.
          3    1    3    3  501    0  0.30578085448E+02 -0.12405085205E+02 -0.42048554623E+03  0.42177837787E+03  0.00000000000E+00 0.  1.
         -3    1    1    2    0  502 -0.38915012523E+02  0.17474802048E+02 -0.44561859267E+03  0.44765575730E+03  0.00000000000E+00 0. -1.
<mgrwt>
<rscale>  1 0.30000000E+03</rscale>
<asrwt>0</asrwt>
<pdfrwt beam="1">  1       21 0.67090994E-02 0.30000000E+03</pdfrwt>
<pdfrwt beam="2">0</pdfrwt>
<totfact> 0.17370235E+04</totfact>
</mgrwt>
</event>
<event>
 6    1  0.6513574E-002  0.3000000E+03  0.7818608E-02  0.1093470E+00
         21   -1    0    0  501  502  0.00000000000E+00  0.00000000000E+00  0.21423277504E+01  0.21423277504E+01  0.00000000000E+00 0. -1.
         13   -1    0    0    0    0 -0.00000000000E+00 -0.00000000000E+00 -0.10000000000E+04  0.10000000000E+04  0.00000000000E+00 0.  1.
    9000005    2    1    2  501    0 -0.25800350645E+02  0.34704188397E+02 -0.32518946157E+03  0.32808553456E+03  0.46790262205E+01 0.  0.
         13    1    3    3    0    0 -0.21142704806E+02  0.25085935092E+02 -0.24379319639E+03  0.24599073298E+03  0.00000000000E+00 0.  1.
          1    1    3    3  501    0 -0.46576458388E+01  0.96182533049E+01 -0.81396265180E+02  0.82094801581E+02  0.00000000000E+00 0.  1.
         -3    1    1    2    0  502  0.25800350645E+02 -0.34704188397E+02 -0.67266821068E+03  0.67405679319E+03  0.00000000000E+00 0. -1.
<mgrwt>
<rscale>  1 0.30000000E+03</rscale>
<asrwt>0</asrwt>
<pdfrwt beam="1">  1       21 0.77902992E-02 0.30000000E+03</pdfrwt>
<pdfrwt beam="2">0</pdfrwt>
<totfact> 0.13383509E+04</totfact>
</mgrwt>
</event>
<event>
 6    1  0.6513574E-002  0.3000000E+03  0.7818608E-02  0.1093470E+00
         21   -1    0    0  501  502  0.00000000000E+00  0.00000000000E+00  0.92354110725E+00  0.92354110725E+00  0.00000000000E+00 0. -1.
         13   -1    0    0    0    0 -0.00000000000E+00 -0.00000000000E+00 -0.10000000000E+04  0.10000000000E+04  0.00000000000E+00 0.  1.
    9000005    2    1    2  501    0  0.80554901153E+01  0.29199973475E+02 -0.47938301785E+03  0.48034808832E+03  0.29459780737E+01 0.  0.
         13    1    3    3    0    0  0.45638136918E+01  0.12865932506E+02 -0.23294775496E+03  0.23334741729E+03  0.00000000000E+00 0.  1.
          1    1    3    3  501    0  0.34916764235E+01  0.16334040969E+02 -0.24643526288E+03  0.24700067103E+03  0.00000000000E+00 0.  1.
         -1    1    1    2    0  502 -0.80554901153E+01 -0.29199973475E+02 -0.51969344105E+03  0.52057545278E+03  0.00000000000E+00 0. -1.
<mgrwt>
<rscale>  1 0.30000000E+03</rscale>
<asrwt>0</asrwt>
<pdfrwt beam="1">  1       21 0.33583384E-02 0.30000000E+03</pdfrwt>
<pdfrwt beam="2">0</pdfrwt>
<totfact> 0.56380303E+04</totfact>
</mgrwt>
</event>
<event>
 6    1  0.6513574E-002  0.3000000E+03  0.7818608E-02  0.1093470E+00
         21   -1    0    0  501  502  0.00000000000E+00  0.00000000000E+00  0.36322503420E+01  0.36322503420E+01  0.00000000000E+00 0. -1.
         13   -1    0    0    0    0 -0.00000000000E+00 -0.00000000000E+00 -0.10000000000E+04  0.10000000000E+04  0.00000000000E+00 0.  1.
    9000005    2    1    2  501    0 -0.17220861876E+02  0.56631352025E+02 -0.40630874396E+03  0.41061176307E+03  0.33994763193E+01 0.  0.
         13    1    3    3    0    0 -0.93775552157E+01  0.35587176998E+02 -0.24604251034E+03  0.24877962659E+03  0.00000000000E+00 0.  1.
          3    1    3    3  501    0 -0.78433066600E+01  0.21044175027E+02 -0.16026623362E+03  0.16183213649E+03  0.00000000000E+00 0.  1.
         -1    1    1    2    0  502  0.17220861876E+02 -0.56631352025E+02 -0.59005900570E+03  0.59302048727E+03  0.00000000000E+00 0. -1.
<mgrwt>
<rscale>  1 0.30000000E+03</rscale>
<asrwt>0</asrwt>
<pdfrwt beam="1">  1       21 0.13208211E-01 0.30000000E+03</pdfrwt>
<pdfrwt beam="2">0</pdfrwt>
<totfact> 0.52032439E+03</totfact>
</mgrwt>
</event>
<event>
 6    1  0.6513574E-002  0.3000000E+03  0.7818608E-02  0.1093470E+00
         21   -1    0    0  501  502  0.00000000000E+00  0.00000000000E+00  0.14916156308E+01  0.14916156308E+01  0.00000000000E+00 0. -1.
         13   -1    0    0    0    0 -0.00000000000E+00 -0.00000000000E+00 -0.10000000000E+04  0.10000000000E+04  0.00000000000E+00 0.  1.
    9000005    2    1    2  501    0 -0.13680227972E+01 -0.35939184736E+02 -0.33684915438E+03  0.33885564232E+03  0.78928476887E+01 0.  0.
         13    1    3    3    0    0 -0.60268356302E+00 -0.35095778430E+02 -0.30973431368E+03  0.31171689393E+03  0.00000000000E+00 0.  1.
          1    1    3    3  501    0 -0.76533923413E+00 -0.84340630681E+00 -0.27114840698E+02  0.27138748395E+02  0.00000000000E+00 0.  1.
         -3    1    1    2    0  502  0.13680227972E+01  0.35939184736E+02 -0.66165922999E+03  0.66263597331E+03  0.00000000000E+00 0. -1.
<mgrwt>
<rscale>  1 0.30000000E+03</rscale>
<asrwt>0</asrwt>
<pdfrwt beam="1">  1       21 0.54240683E-02 0.30000000E+03</pdfrwt>
<pdfrwt beam="2">0</pdfrwt>
<totfact> 0.25064255E+04</totfact>
</mgrwt>
</event>
<event>
 6    1  0.6513574E-002  0.3000000E+03  0.7818608E-02  0.1093470E+00
         21   -1    0    0  501  502  0.00000000000E+00  0.00000000000E+00  0.24591999957E+01  0.24591999957E+01  0.00000000000E+00 0. -1.
         13   -1    0    0    0    0 -0.00000000000E+00 -0.00000000000E+00 -0.10000000000E+04  0.10000000000E+04  0.00000000000E+00 0.  1.
    9000005    2    1    2  501    0  0.12163358082E+02 -0.47965576105E+02 -0.52092266914E+03  0.52327918534E+03  0.34691240610E+01 0.  0.
         13    1    3    3    0    0  0.59072658581E+01 -0.28075742264E+02 -0.31471672029E+03  0.31602176685E+03  0.00000000000E+00 0.  1.
          3    1    3    3  501    0  0.62560922239E+01 -0.19889833841E+02 -0.20620594885E+03  0.20725741850E+03  0.00000000000E+00 0.  1.
         -1    1    1    2    0  502 -0.12163358082E+02  0.47965576105E+02 -0.47661813087E+03  0.47918001465E+03  0.00000000000E+00 0. -1.
<mgrwt>
<rscale>  1 0.30000000E+03</rscale>
<asrwt>0</asrwt>
<pdfrwt beam="1">  1       21 0.89425643E-02 0.30000000E+03</pdfrwt>
<pdfrwt beam="2">0</pdfrwt>
<totfact> 0.10496439E+04</totfact>
</mgrwt>
</event>
<event>
 6    1  0.6513574E-002  0.3000000E+03  0.7818608E-02  0.1093470E+00
         21   -1    0    0  501  502  0.00000000000E+00  0.00000000000E+00  0.11985849124E+01  0.11985849124E+01  0.00000000000E+00 0. -1.
         13   -1    0    0    0    0 -0.00000000000E+00 -0.00000000000E+00 -0.10000000000E+04  0.10000000000E+04  0.00000000000E+00 0.  1.
    9000005    2    1    2  501    0  0.28519402497E+02  0.19398066419E+02 -0.52845628020E+03  0.52959049845E+03  0.32271770139E+01 0.  0.
         13    1    3    3    0    0  0.54031366161E+01  0.48650883552E+01 -0.12503835023E+03  0.12524955887E+03  0.00000000000E+00 0.  1.
          1    1    3    3  501    0  0.23116265881E+02  0.14532978064E+02 -0.40341792997E+03  0.40434093958E+03  0.00000000000E+00 0.  1.
         -3    1    1    2    0  502 -0.28519402497E+02 -0.19398066419E+02 -0.47034513489E+03  0.47160808646E+03  0.00000000000E+00 0. -1.
<mgrwt>
<rscale>  1 0.30000000E+03</rscale>
<asrwt>0</asrwt>
<pdfrwt beam="1">  1       21 0.43584998E-02 0.30000000E+03</pdfrwt>
<pdfrwt beam="2">0</pdfrwt>
<totfact> 0.36375482E+04</totfact>
</mgrwt>
</event>
<event>
 6    1  0.6513574E-002  0.3000000E+03  0.7818608E-02  0.1093470E+00
         21   -1    0    0  501  502  0.00000000000E+00  0.00000000000E+00  0.12192732976E+01  0.12192732976E+01  0.00000000000E+00 0. -1.
         13   -1    0    0    0    0 -0.00000000000E+00 -0.00000000000E+00 -0.10000000000E+04  0.10000000000E+04  0.00000000000E+00 0.  1.
    9000005    2    1    2  501    0  0.16687368317E+01  0.34733760114E+02 -0.50485765862E+03  0.50607362204E+03  0.44762355102E+01 0.  0.
         13    1    3    3    0    0 -0.97913665903E+00  0.20412069365E+02 -0.30930998053E+03  0.30998431467E+03  0.00000000000E+00 0.  1.
          3    1    3    3  501    0  0.26478734907E+01  0.14321690749E+02 -0.19554767809E+03  0.19608930737E+03  0.00000000000E+00 0.  1.
         -1    1    1    2    0  502 -0.16687368317E+01 -0.34733760114E+02 -0.49392306808E+03  0.49514565126E+03  0.00000000000E+00 0. -1.
<mgrwt>
<rscale>  1 0.30000000E+03</rscale>
<asrwt>0</asrwt>
<pdfrwt beam="1">  1       21 0.44337304E-02 0.30000000E+03</pdfrwt>
<pdfrwt beam="2">0</pdfrwt>
<totfact> 0.35336179E+04</totfact>
</mgrwt>
</event>
<event>
 6    1  0.6513574E-002  0.3000000E+03  0.7818608E-02  0.1093470E+00
         21   -1    0    0  501  502  0.00000000000E+00  0.00000000000E+00  0.27741271417E+01  0.27741271417E+01  0.00000000000E+00 0. -1.
         13   -1    0    0    0    0 -0.00000000000E+00 -0.00000000000E+00 -0.10000000000E+04  0.10000000000E+04  0.00000000000E+00 0.  1.
    9000005    2    1    2  501    0  0.26188253320E+02  0.36427344237E+02 -0.23741237632E+03  0.24163726328E+03  0.33398430155E+01 0.  0.
         13    1    3    3    0    0  0.24466526028E+02  0.32592142171E+02 -0.21767646039E+03  0.22145857408E+03  0.00000000000E+00 0.  1.
          3    1    3    3  501    0  0.17217272922E+01  0.38352020662E+01 -0.19735915934E+02  0.20178689192E+02  0.00000000000E+00 0.  1.
         -1    1    1    2    0  502 -0.26188253320E+02 -0.36427344237E+02 -0.75981349653E+03  0.76113686387E+03  0.00000000000E+00 0. -1.
<mgrwt>
<rscale>  1 0.30000000E+03</rscale>
<asrwt>0</asrwt>
<pdfrwt beam="1">  1       21 0.10087756E-01 0.30000000E+03</pdfrwt>
<pdfrwt beam="2">0</pdfrwt>
<totfact> 0.84698910E+03</totfact>
</mgrwt>
</event>
<event>
 6    1  0.6513574E-002  0.3000000E+03  0.7818608E-02  0.1093470E+00
         21   -1    0    0  501  502  0.00000000000E+00  0.00000000000E+00  0.10212700748E+01  0.10212700748E+01  0.00000000000E+00 0. -1.
         13   -1    0    0    0    0 -0.00000000000E+00 -0.00000000000E+00 -0.10000000000E+04  0.10000000000E+04  0.00000000000E+00 0.  1.
    9000005    2    1    2  501    0 -0.31542284011E+02  0.21623311009E+01 -0.56331768404E+03  0.56421451845E+03  0.34085671464E+01 0.  0.
         13    1    3    3    0    0 -0.21984775579E+02  0.23410924715E+01 -0.41588673872E+03  0.41647399740E+03  0.00000000000E+00 0.  1.
          3    1    3    3  501    0 -0.95575084322E+01 -0.17876137061E+00 -0.14743094532E+03  0.14774052105E+03  0.00000000000E+00 0.  1.
         -3    1    1    2    0  502  0.31542284011E+02 -0.21623311009E+01 -0.43566104589E+03  0.43680675162E+03  0.00000000000E+00 0. -1.
<mgrwt>
<rscale>  1 0.30000000E+03</rscale>
<asrwt>0</asrwt>
<pdfrwt beam="1">  1       21 0.37137172E-02 0.30000000E+03</pdfrwt>
<pdfrwt beam="2">0</pdfrwt>
<totfact> 0.47638608E+04</totfact>
</mgrwt>
</event>
<event>
 6    1  0.6513574E-002  0.3000000E+03  0.7818608E-02  0.1093470E+00
         21   -1    0    0  501  502  0.00000000000E+00  0.00000000000E+00  0.94946526941E+00  0.94946526941E+00  0.00000000000E+00 0. -1.
         13   -1    0    0    0    0 -0.00000000000E+00 -0.00000000000E+00 -0.10000000000E+04  0.10000000000E+04  0.00000000000E+00 0.  1.
    9000005    2    1    2  501    0  0.26879919201E+02 -0.14755608314E+02 -0.47044852409E+03  0.47145881976E+03  0.33685121776E+01 0.  0.
         13    1    3    3    0    0  0.13547717425E+02 -0.77751948222E+01 -0.21422071015E+03  0.21478944797E+03  0.00000000000E+00 0.  1.
          1    1    3    3  501    0  0.13332201776E+02 -0.69804134920E+01 -0.25622781394E+03  0.25666937178E+03  0.00000000000E+00 0.  1.
         -1    1    1    2    0  502 -0.26879919201E+02  0.14755608314E+02 -0.52860201064E+03  0.52949064551E+03  0.00000000000E+00 0. -1.
<mgrwt>
<rscale>  1 0.30000000E+03</rscale>
<asrwt>0</asrwt>
<pdfrwt beam="1">  1       21 0.34526083E-02 0.30000000E+03</pdfrwt>
<pdfrwt beam="2">0</pdfrwt>
<totfact> 0.53831159E+04</totfact>
</mgrwt>
</event>
<event>
 6    1  0.6513574E-002  0.3000000E+03  0.7818608E-02  0.1093470E+00
         21   -1    0    0  501  502  0.00000000000E+00  0.00000000000E+00  0.28257865979E+01  0.28257865979E+01  0.00000000000E+00 0. -1.
         13   -1    0    0    0    0 -0.00000000000E+00 -0.00000000000E+00 -0.10000000000E+04  0.10000000000E+04  0.00000000000E+00 0.  1.
    9000005    2    1    2  501    0 -0.42126063363E+02  0.32258474695E+02 -0.52031331234E+03  0.52302214617E+03  0.33178282117E+01 0.  0.
         13    1    3    3    0    0 -0.27447929202E+02  0.22067332933E+02 -0.33186902767E+03  0.33373253890E+03  0.00000000000E+00 0.  1.
          3    1    3    3  501    0 -0.14678134161E+02  0.10191141762E+02 -0.18844428467E+03  0.18928960726E+03  0.00000000000E+00 0.  1.
         -3    1    1    2    0  502  0.42126063363E+02 -0.32258474695E+02 -0.47686090107E+03  0.47980364043E+03  0.00000000000E+00 0. -1.
<mgrwt>
<rscale>  1 0.30000000E+03</rscale>
<asrwt>0</asrwt>
<pdfrwt beam="1">  1       21 0.10275609E-01 0.30000000E+03</pdfrwt>
<pdfrwt beam="2">0</pdfrwt>
<totfact> 0.81949061E+03</totfact>
</mgrwt>
</event>
<event>
 6    1  0.6513574E-002  0.3000000E+03  0.7818608E-02  0.1093470E+00
         21   -1    0    0  501  502  0.00000000000E+00  0.00000000000E+00  0.52289603642E+01  0.52289603642E+01  0.00000000000E+00 0. -1.
         13   -1    0    0    0    0 -0.00000000000E+00 -0.00000000000E+00 -0.10000000000E+04  0.10000000000E+04  0.00000000000E+00 0.  1.
    9000005    2    1    2  501    0 -0.20137122194E+02 -0.60426516726E+02 -0.26026429205E+03  0.26796575779E+03  0.33582764067E+01 0.  0.
         13    1    3    3    0    0 -0.13657427278E+02 -0.45323519703E+02 -0.19536292318E+03  0.20101596581E+03  0.00000000000E+00 0.  1.
          1    1    3    3  501    0 -0.64796949158E+01 -0.15102997023E+02 -0.64901368868E+02  0.66949791980E+02  0.00000000000E+00 0.  1.
         -3    1    1    2    0  502  0.20137122194E+02  0.60426516726E+02 -0.73450674759E+03  0.73726320257E+03  0.00000000000E+00 0. -1.
<mgrwt>
<rscale>  1 0.30000000E+03</rscale>
<asrwt>0</asrwt>
<pdfrwt beam="1">  1       21 0.19014441E-01 0.30000000E+03</pdfrwt>
<pdfrwt beam="2">0</pdfrwt>
<totfact> 0.26412822E+03</totfact>
</mgrwt>
</event>
<event>
 6    1  0.6513574E-002  0.3000000E+03  0.7818608E-02  0.1093470E+00
         21   -1    0    0  501  502  0.00000000000E+00  0.00000000000E+00  0.10889943590E+01  0.10889943590E+01  0.00000000000E+00 0. -1.
         13   -1    0    0    0    0 -0.00000000000E+00 -0.00000000000E+00 -0.10000000000E+04  0.10000000000E+04  0.00000000000E+00 0.  1.
    9000005    2    1    2  501    0 -0.46907035903E+01 -0.29866789118E+02 -0.69866206656E+03  0.69932177743E+03  0.28700781854E+01 0.  0.
         13    1    3    3    0    0 -0.43587644202E+01 -0.24403338357E+02 -0.59324530381E+03  0.59376301017E+03  0.00000000000E+00 0.  1.
          1    1    3    3  501    0 -0.33193917008E+00 -0.54634507610E+01 -0.10541676275E+03  0.10555876727E+03  0.00000000000E+00 0.  1.
         -1    1    1    2    0  502  0.46907035903E+01  0.29866789118E+02 -0.30024893908E+03  0.30176721692E+03  0.00000000000E+00 0. -1.
<mgrwt>
<rscale>  1 0.30000000E+03</rscale>
<asrwt>0</asrwt>
<pdfrwt beam="1">  1       21 0.39599878E-02 0.30000000E+03</pdfrwt>
<pdfrwt beam="2">0</pdfrwt>
<totfact> 0.42765075E+04</totfact>
</mgrwt>
</event>
<event>
 6    1  0.6513574E-002  0.3000000E+03  0.7818608E-02  0.1093470E+00
         21   -1    0    0  501  502  0.00000000000E+00  0.00000000000E+00  0.14501898963E+01  0.14501898963E+01  0.00000000000E+00 0. -1.
         13   -1    0    0    0    0 -0.00000000000E+00 -0.00000000000E+00 -0.10000000000E+04  0.10000000000E+04  0.00000000000E+00 0.  1.
    9000005    2    1    2  501    0  0.10054652016E+01 -0.37664663719E+02 -0.43609099045E+03  0.43773079014E+03  0.36407187673E+01 0.  0.
         13    1    3    3    0    0 -0.53082189822E+00 -0.81701796300E+01 -0.80445502433E+02  0.80861068931E+02  0.00000000000E+00 0.  1.
          3    1    3    3  501    0  0.15362870998E+01 -0.29494484089E+02 -0.35564548801E+03  0.35686972121E+03  0.00000000000E+00 0.  1.
         -1    1    1    2    0  502 -0.10054652016E+01  0.37664663719E+02 -0.56245881966E+03  0.56371939976E+03  0.00000000000E+00 0. -1.
<mgrwt>
<rscale>  1 0.30000000E+03</rscale>
<asrwt>0</asrwt>
<pdfrwt beam="1">  1       21 0.52734289E-02 0.30000000E+03</pdfrwt>
<pdfrwt beam="2">0</pdfrwt>
<totfact> 0.26301954E+04</totfact>
</mgrwt>
</event>
<event>
 6    1  0.6513574E-002  0.3000000E+03  0.7818608E-02  0.1093470E+00
         21   -1    0    0  501  502  0.00000000000E+00  0.00000000000E+00  0.12390215794E+01  0.12390215794E+01  0.00000000000E+00 0. -1.
         13   -1    0    0    0    0 -0.00000000000E+00 -0.00000000000E+00 -0.10000000000E+04  0.10000000000E+04  0.00000000000E+00 0.  1.
    9000005    2    1    2  501    0 -0.33032437296E+02 -0.92883688234E+01 -0.60559781040E+03  0.60658133143E+03  0.38455122236E+01 0.  0.
         13    1    3    3    0    0 -0.23693028309E+02 -0.76640949755E+01 -0.46247680053E+03  0.46314672510E+03  0.00000000000E+00 0.  1.
          1    1    3    3  501    0 -0.93394089862E+01 -0.16242738479E+01 -0.14312100987E+03  0.14343460633E+03  0.00000000000E+00 0.  1.
         -1    1    1    2    0  502  0.33032437296E+02  0.92883688234E+01 -0.39316316802E+03  0.39465769015E+03  0.00000000000E+00 0. -1.
<mgrwt>
<rscale>  1 0.30000000E+03</rscale>
<asrwt>0</asrwt>
<pdfrwt beam="1">  1       21 0.45055425E-02 0.30000000E+03</pdfrwt>
<pdfrwt beam="2">0</pdfrwt>
<totfact> 0.34386286E+04</totfact>
</mgrwt>
</event>
<event>
 6    1  0.6513574E-002  0.3000000E+03  0.7818608E-02  0.1093470E+00
         21   -1    0    0  501  502  0.00000000000E+00  0.00000000000E+00  0.12861546841E+01  0.12861546841E+01  0.00000000000E+00 0. -1.
         13   -1    0    0    0    0 -0.00000000000E+00 -0.00000000000E+00 -0.10000000000E+04  0.10000000000E+04  0.00000000000E+00 0.  1.
    9000005    2    1    2  501    0  0.32454800248E+02  0.55749767135E+01 -0.30504256956E+03  0.30683368458E+03  0.33979883532E+01 0.  0.
         13    1    3    3    0    0  0.27838911266E+02  0.43176574077E+01 -0.24949082313E+03  0.25107631902E+03  0.00000000000E+00 0.  1.
          1    1    3    3  501    0  0.46158889823E+01  0.12573193058E+01 -0.55551746425E+02  0.55757365557E+02  0.00000000000E+00 0.  1.
         -3    1    1    2    0  502 -0.32454800248E+02 -0.55749767135E+01 -0.69367127576E+03  0.69445247010E+03  0.00000000000E+00 0. -1.
<mgrwt>
<rscale>  1 0.30000000E+03</rscale>
<asrwt>0</asrwt>
<pdfrwt beam="1">  1       21 0.46769360E-02 0.30000000E+03</pdfrwt>
<pdfrwt beam="2">0</pdfrwt>
<totfact> 0.32273114E+04</totfact>
</mgrwt>
</event>
<event>
 6    1  0.6513574E-002  0.3000000E+03  0.7818608E-02  0.1093470E+00
         21   -1    0    0  501  502  0.00000000000E+00  0.00000000000E+00  0.11388456738E+01  0.11388456738E+01  0.00000000000E+00 0. -1.
         13   -1    0    0    0    0 -0.00000000000E+00 -0.00000000000E+00 -0.10000000000E+04  0.10000000000E+04  0.00000000000E+00 0.  1.
    9000005    2    1    2  501    0 -0.32615496200E+02 -0.33117220185E+01 -0.61391377049E+03  0.61479802928E+03  0.34294467755E+01 0.  0.
         13    1    3    3    0    0 -0.16961175740E+02 -0.31655701297E+01 -0.33923378129E+03  0.33967228424E+03  0.00000000000E+00 0.  1.
          1    1    3    3  501    0 -0.15654320461E+02 -0.14615188881E+00 -0.27467998921E+03  0.27512574503E+03  0.00000000000E+00 0.  1.
         -1    1    1    2    0  502  0.32615496200E+02  0.33117220185E+01 -0.38494738383E+03  0.38634081640E+03  0.00000000000E+00 0. -1.
<mgrwt>
<rscale>  1 0.30000000E+03</rscale>
<asrwt>0</asrwt>
<pdfrwt beam="1">  1       21 0.41412657E-02 0.30000000E+03</pdfrwt>
<pdfrwt beam="2">0</pdfrwt>
<totfact> 0.39658054E+04</totfact>
</mgrwt>
</event>
<event>
 6    1  0.6513574E-002  0.3000000E+03  0.7818608E-02  0.1093470E+00
         21   -1    0    0  501  502  0.00000000000E+00  0.00000000000E+00  0.15604982950E+01  0.15604982950E+01  0.00000000000E+00 0. -1.
         13   -1    0    0    0    0 -0.00000000000E+00 -0.00000000000E+00 -0.10000000000E+04  0.10000000000E+04  0.00000000000E+00 0.  1.
    9000005    2    1    2  501    0 -0.28107992953E+02 -0.27246707179E+02 -0.56177714081E+03  0.56314692672E+03  0.29090919413E+01 0.  0.
         13    1    3    3    0    0 -0.67321159218E+01 -0.76728234046E+01 -0.16074753115E+03  0.16107129593E+03  0.00000000000E+00 0.  1.
          3    1    3    3  501    0 -0.21375877032E+02 -0.19573883774E+02 -0.40102960966E+03  0.40207563078E+03  0.00000000000E+00 0.  1.
         -3    1    1    2    0  502  0.28107992953E+02  0.27246707179E+02 -0.43666236090E+03  0.43841357158E+03  0.00000000000E+00 0. -1.
<mgrwt>
<rscale>  1 0.30000000E+03</rscale>
<asrwt>0</asrwt>
<pdfrwt beam="1">  1       21 0.56745512E-02 0.30000000E+03</pdfrwt>
<pdfrwt beam="2">0</pdfrwt>
<totfact> 0.23196021E+04</totfact>
</mgrwt>
</event>
<event>
 6    1  0.6513574E-002  0.3000000E+03  0.7818608E-02  0.1093470E+00
         21   -1    0    0  501  502  0.00000000000E+00  0.00000000000E+00  0.32428615327E+01  0.32428615327E+01  0.00000000000E+00 0. -1.
         13   -1    0    0    0    0 -0.00000000000E+00 -0.00000000000E+00 -0.10000000000E+04  0.10000000000E+04  0.00000000000E+00 0.  1.
    9000005    2    1    2  501    0 -0.47947858385E+02  0.20853027410E+01 -0.22964442644E+03  0.23463030728E+03  0.33871647437E+01 0.  0.
         13    1    3    3    0    0 -0.22086680311E+02  0.25705747673E+01 -0.10866975293E+03  0.11092134377E+03  0.00000000000E+00 0.  1.
          3    1    3    3  501    0 -0.25861178074E+02 -0.48527202631E+00 -0.12097467352E+03  0.12370896351E+03  0.00000000000E+00 0.  1.
         -1    1    1    2    0  502  0.47947858385E+02 -0.20853027410E+01 -0.76711271202E+03  0.76861255425E+03  0.00000000000E+00 0. -1.
<mgrwt>
<rscale>  1 0.30000000E+03</rscale>
<asrwt>0</asrwt>
<pdfrwt beam="1">  1       21 0.11792249E-01 0.30000000E+03</pdfrwt>
<pdfrwt beam="2">0</pdfrwt>
<totfact> 0.63964893E+03</totfact>
</mgrwt>
</event>
<event>
 6    1  0.6513574E-002  0.3000000E+03  0.7818608E-02  0.1093470E+00
         21   -1    0    0  501  502  0.00000000000E+00  0.00000000000E+00  0.16405686135E+01  0.16405686135E+01  0.00000000000E+00 0. -1.
         13   -1    0    0    0    0 -0.00000000000E+00 -0.00000000000E+00 -0.10000000000E+04  0.10000000000E+04  0.00000000000E+00 0.  1.
    9000005    2    1    2  501    0  0.94774924962E+01  0.34692427382E+02 -0.27091276260E+03  0.27330545116E+03  0.29592760421E+01 0.  0.
         13    1    3    3    0    0  0.17324047355E+01  0.70623093768E+01 -0.64203243390E+02  0.64613728431E+02  0.00000000000E+00 0.  1.
          1    1    3    3  501    0  0.77450877607E+01  0.27630118006E+02 -0.20670951921E+03  0.20869172273E+03  0.00000000000E+00 0.  1.
         -3    1    1    2    0  502 -0.94774924962E+01 -0.34692427382E+02 -0.72744666879E+03  0.72833511745E+03  0.00000000000E+00 0. -1.
<mgrwt>
<rscale>  1 0.30000000E+03</rscale>
<asrwt>0</asrwt>
<pdfrwt beam="1">  1       21 0.59657166E-02 0.30000000E+03</pdfrwt>
<pdfrwt beam="2">0</pdfrwt>
<totfact> 0.21280919E+04</totfact>
</mgrwt>
</event>
<event>
 6    1  0.6513574E-002  0.3000000E+03  0.7818608E-02  0.1093470E+00
         21   -1    0    0  501  502  0.00000000000E+00  0.00000000000E+00  0.12996106973E+01  0.12996106973E+01  0.00000000000E+00 0. -1.
         13   -1    0    0    0    0 -0.00000000000E+00 -0.00000000000E+00 -0.10000000000E+04  0.10000000000E+04  0.00000000000E+00 0.  1.
    9000005    2    1    2  501    0  0.22416742397E+02 -0.19999146404E+02 -0.23363934051E+03  0.23564898242E+03  0.63737968786E+01 0.  0.
         13    1    3    3    0    0  0.11485091892E+02 -0.11996369010E+02 -0.10607674039E+03  0.10736896691E+03  0.00000000000E+00 0.  1.
          1    1    3    3  501    0  0.10931650505E+02 -0.80027773941E+01 -0.12756260012E+03  0.12828001551E+03  0.00000000000E+00 0.  1.
         -1    1    1    2    0  502 -0.22416742397E+02  0.19999146404E+02 -0.76506104879E+03  0.76565062828E+03  0.00000000000E+00 0. -1.
<mgrwt>
<rscale>  1 0.30000000E+03</rscale>
<asrwt>0</asrwt>
<pdfrwt beam="1">  1       21 0.47258670E-02 0.30000000E+03</pdfrwt>
<pdfrwt beam="2">0</pdfrwt>
<totfact> 0.31707036E+04</totfact>
</mgrwt>
</event>
<event>
 6    1  0.6513574E-002  0.3000000E+03  0.7818608E-02  0.1093470E+00
         21   -1    0    0  501  502  0.00000000000E+00  0.00000000000E+00  0.98751144530E+00  0.98751144530E+00  0.00000000000E+00 0. -1.
         13   -1    0    0    0    0 -0.00000000000E+00 -0.00000000000E+00 -0.10000000000E+04  0.10000000000E+04  0.00000000000E+00 0.  1.
    9000005    2    1    2  501    0  0.18016231788E+02 -0.24115987025E+02 -0.64036990897E+03  0.64108382248E+03  0.29464718160E+01 0.  0.
         13    1    3    3    0    0  0.85306801778E+00 -0.16168694755E+01 -0.54903215811E+02  0.54933642682E+02  0.00000000000E+00 0.  1.
          3    1    3    3  501    0  0.17163163770E+02 -0.22499117550E+02 -0.58546669316E+03  0.58615017980E+03  0.00000000000E+00 0.  1.
         -1    1    1    2    0  502 -0.18016231788E+02  0.24115987025E+02 -0.35864257958E+03  0.35990368896E+03  0.00000000000E+00 0. -1.
<mgrwt>
<rscale>  1 0.30000000E+03</rscale>
<asrwt>0</asrwt>
<pdfrwt beam="1">  1       21 0.35909583E-02 0.30000000E+03</pdfrwt>
<pdfrwt beam="2">0</pdfrwt>
<totfact> 0.50402408E+04</totfact>
</mgrwt>
</event>
<event>
 6    1  0.6513574E-002  0.3000000E+03  0.7818608E-02  0.1093470E+00
         21   -1    0    0  501  502  0.00000000000E+00  0.00000000000E+00  0.32789414887E+01  0.32789414887E+01  0.00000000000E+00 0. -1.
         13   -1    0    0    0    0 -0.00000000000E+00 -0.00000000000E+00 -0.10000000000E+04  0.10000000000E+04  0.00000000000E+00 0.  1.
    9000005    2    1    2  501    0  0.39111176044E+02  0.40447433154E+02 -0.40787215448E+03  0.41174812173E+03  0.33380250675E+01 0.  0.
         13    1    3    3    0    0  0.36142289481E+02  0.36279286231E+02 -0.37483888304E+03  0.37832081615E+03  0.00000000000E+00 0.  1.
          1    1    3    3  501    0  0.29688865634E+01  0.41681469228E+01 -0.33033271444E+02  0.33427305582E+02  0.00000000000E+00 0.  1.
         -3    1    1    2    0  502 -0.39111176044E+02 -0.40447433154E+02 -0.58884890403E+03  0.59153081975E+03  0.00000000000E+00 0. -1.
<mgrwt>
<rscale>  1 0.30000000E+03</rscale>
<asrwt>0</asrwt>
<pdfrwt beam="1">  1       21 0.11923449E-01 0.30000000E+03</pdfrwt>
<pdfrwt beam="2">0</pdfrwt>
<totfact> 0.62694919E+03</totfact>
</mgrwt>
</event>
<event>
 6    1  0.6513574E-002  0.3000000E+03  0.7818608E-02  0.1093470E+00
         21   -1    0    0  501  502  0.00000000000E+00  0.00000000000E+00  0.18777805284E+01  0.18777805284E+01  0.00000000000E+00 0. -1.
         13   -1    0    0    0    0 -0.00000000000E+00 -0.00000000000E+00 -0.10000000000E+04  0.10000000000E+04  0.00000000000E+00 0.  1.
    9000005    2    1    2  501    0 -0.24533494105E+02  0.27493960327E+02 -0.76120583214E+03  0.76211292744E+03  0.48974594050E+01 0.  0.
         13    1    3    3    0    0 -0.75589019173E+01  0.76508580124E+01 -0.18032294287E+03  0.18064339554E+03  0.00000000000E+00 0.  1.
          1    1    3    3  501    0 -0.16974592187E+02  0.19843102314E+02 -0.58088288926E+03  0.58146953190E+03  0.00000000000E+00 0.  1.
         -1    1    1    2    0  502  0.24533494105E+02 -0.27493960327E+02 -0.23691638733E+03  0.23976485308E+03  0.00000000000E+00 0. -1.
<mgrwt>
<rscale>  1 0.30000000E+03</rscale>
<asrwt>0</asrwt>
<pdfrwt beam="1">  1       21 0.68283072E-02 0.30000000E+03</pdfrwt>
<pdfrwt beam="2">0</pdfrwt>
<totfact> 0.16847208E+04</totfact>
</mgrwt>
</event>
<event>
 6    1  0.6513574E-002  0.3000000E+03  0.7818608E-02  0.1093470E+00
         21   -1    0    0  501  502  0.00000000000E+00  0.00000000000E+00  0.13887554584E+01  0.13887554584E+01  0.00000000000E+00 0. -1.
         13   -1    0    0    0    0 -0.00000000000E+00 -0.00000000000E+00 -0.10000000000E+04  0.10000000000E+04  0.00000000000E+00 0.  1.
    9000005    2    1    2  501    0  0.22828896510E+02 -0.22175692209E+02 -0.75835015380E+03  0.75902887519E+03  0.41179798803E+01 0.  0.
         13    1    3    3    0    0  0.19288830124E+02 -0.19327129001E+02 -0.67889409827E+03  0.67944300243E+03  0.00000000000E+00 0.  1.
          1    1    3    3  501    0  0.35400663867E+01 -0.28485632076E+01 -0.79456055527E+02  0.79585872756E+02  0.00000000000E+00 0.  1.
         -1    1    1    2    0  502 -0.22828896510E+02  0.22175692209E+02 -0.24026109074E+03  0.24235988027E+03  0.00000000000E+00 0. -1.
<mgrwt>
<rscale>  1 0.30000000E+03</rscale>
<asrwt>0</asrwt>
<pdfrwt beam="1">  1       21 0.50500305E-02 0.30000000E+03</pdfrwt>
<pdfrwt beam="2">0</pdfrwt>
<totfact> 0.28319764E+04</totfact>
</mgrwt>
</event>
<event>
 6    1  0.6513574E-002  0.3000000E+03  0.7818608E-02  0.1093470E+00
         21   -1    0    0  501  502  0.00000000000E+00  0.00000000000E+00  0.21396502964E+01  0.21396502964E+01  0.00000000000E+00 0. -1.
         13   -1    0    0    0    0 -0.00000000000E+00 -0.00000000000E+00 -0.10000000000E+04  0.10000000000E+04  0.00000000000E+00 0.  1.
    9000005    2    1    2  501    0 -0.97064853448E+01  0.44995932824E+02 -0.54286393325E+03  0.54482073661E+03  0.30879102066E+01 0.  0.
         13    1    3    3    0    0 -0.71765266483E+01  0.31780253920E+02 -0.36753958106E+03  0.36898079993E+03  0.00000000000E+00 0.  1.
          3    1    3    3  501    0 -0.25299586966E+01  0.13215678904E+02 -0.17532435219E+03  0.17583993667E+03  0.00000000000E+00 0.  1.
         -3    1    1    2    0  502  0.97064853448E+01 -0.44995932824E+02 -0.45499641646E+03  0.45731891369E+03  0.00000000000E+00 0. -1.
<mgrwt>
<rscale>  1 0.30000000E+03</rscale>
<asrwt>0</asrwt>
<pdfrwt beam="1">  1       21 0.77805629E-02 0.30000000E+03</pdfrwt>
<pdfrwt beam="2">0</pdfrwt>
<totfact> 0.13412896E+04</totfact>
</mgrwt>
</event>
<event>
 6    1  0.6513574E-002  0.3000000E+03  0.7818608E-02  0.1093470E+00
         21   -1    0    0  501  502  0.00000000000E+00  0.00000000000E+00  0.15747640895E+01  0.15747640895E+01  0.00000000000E+00 0. -1.
         13   -1    0    0    0    0 -0.00000000000E+00 -0.00000000000E+00 -0.10000000000E+04  0.10000000000E+04  0.00000000000E+00 0.  1.
    9000005    2    1    2  501    0  0.15717700061E+02  0.30805081314E+02 -0.25615820350E+03  0.25850252902E+03  0.32454828017E+01 0.  0.
         13    1    3    3    0    0  0.56532031153E+01  0.92477373930E+01 -0.71131510438E+02  0.71952561660E+02  0.00000000000E+00 0.  1.
          3    1    3    3  501    0  0.10064496946E+02  0.21557343921E+02 -0.18502669306E+03  0.18654996736E+03  0.00000000000E+00 0.  1.
         -1    1    1    2    0  502 -0.15717700061E+02 -0.30805081314E+02 -0.74226703241E+03  0.74307223507E+03  0.00000000000E+00 0. -1.
<mgrwt>
<rscale>  1 0.30000000E+03</rscale>
<asrwt>0</asrwt>
<pdfrwt beam="1">  1       21 0.57264269E-02 0.30000000E+03</pdfrwt>
<pdfrwt beam="2">0</pdfrwt>
<totfact> 0.22835867E+04</totfact>
</mgrwt>
</event>
<event>
 6    1  0.6513574E-002  0.3000000E+03  0.7818608E-02  0.1093470E+00
         21   -1    0    0  501  502  0.00000000000E+00  0.00000000000E+00  0.13896021538E+01  0.13896021538E+01  0.00000000000E+00 0. -1.
         13   -1    0    0    0    0 -0.00000000000E+00 -0.00000000000E+00 -0.10000000000E+04  0.10000000000E+04  0.00000000000E+00 0.  1.
    9000005    2    1    2  501    0  0.22180709714E+02 -0.22582422547E+02 -0.76263506866E+03  0.76330074127E+03  0.37180619499E+01 0.  0.
         13    1    3    3    0    0  0.18717744560E+01 -0.10432271340E+01 -0.36945928398E+02  0.37008019235E+02  0.00000000000E+00 0.  1.
          3    1    3    3  501    0  0.20308935258E+02 -0.21539195413E+02 -0.72568914026E+03  0.72629272204E+03  0.00000000000E+00 0.  1.
         -1    1    1    2    0  502 -0.22180709714E+02  0.22582422547E+02 -0.23597532919E+03  0.23808886088E+03  0.00000000000E+00 0. -1.
<mgrwt>
<rscale>  1 0.30000000E+03</rscale>
<asrwt>0</asrwt>
<pdfrwt beam="1">  1       21 0.50531094E-02 0.30000000E+03</pdfrwt>
<pdfrwt beam="2">0</pdfrwt>
<totfact> 0.28290339E+04</totfact>
</mgrwt>
</event>
<event>
 6    1  0.6513574E-002  0.3000000E+03  0.7818608E-02  0.1093470E+00
         21   -1    0    0  501  502  0.00000000000E+00  0.00000000000E+00  0.16297693133E+01  0.16297693133E+01  0.00000000000E+00 0. -1.
         13   -1    0    0    0    0 -0.00000000000E+00 -0.00000000000E+00 -0.10000000000E+04  0.10000000000E+04  0.00000000000E+00 0.  1.
    9000005    2    1    2  501    0  0.31802894049E+01  0.40168280158E+02 -0.51288044817E+03  0.51447072558E+03  0.31887902397E+01 0.  0.
         13    1    3    3    0    0  0.94837310372E+00  0.11410547750E+02 -0.12811785722E+03  0.12862847799E+03  0.00000000000E+00 0.  1.
          3    1    3    3  501    0  0.22319163012E+01  0.28757732408E+02 -0.38476259096E+03  0.38584224759E+03  0.00000000000E+00 0.  1.
         -1    1    1    2    0  502 -0.31802894049E+01 -0.40168280158E+02 -0.48548978251E+03  0.48715904374E+03  0.00000000000E+00 0. -1.
<mgrwt>
<rscale>  1 0.30000000E+03</rscale>
<asrwt>0</asrwt>
<pdfrwt beam="1">  1       21 0.59264464E-02 0.30000000E+03</pdfrwt>
<pdfrwt beam="2">0</pdfrwt>
<totfact> 0.21524614E+04</totfact>
</mgrwt>
</event>
<event>
 6    1  0.6513574E-002  0.3000000E+03  0.7818608E-02  0.1093470E+00
         21   -1    0    0  501  502  0.00000000000E+00  0.00000000000E+00  0.13171237856E+01  0.13171237856E+01  0.00000000000E+00 0. -1.
         13   -1    0    0    0    0 -0.00000000000E+00 -0.00000000000E+00 -0.10000000000E+04  0.10000000000E+04  0.00000000000E+00 0.  1.
    9000005    2    1    2  501    0 -0.12044237452E+02 -0.33514190235E+02 -0.58323709771E+03  0.58434774903E+03  0.53399488740E+01 0.  0.
         13    1    3    3    0    0 -0.83779663775E+01 -0.26664976730E+02 -0.48447380736E+03  0.48527938481E+03  0.00000000000E+00 0.  1.
          3    1    3    3  501    0 -0.36662710743E+01 -0.68492135053E+01 -0.98763290348E+02  0.99068364222E+02  0.00000000000E+00 0.  1.
         -3    1    1    2    0  502  0.12044237452E+02  0.33514190235E+02 -0.41544577851E+03  0.41696937475E+03  0.00000000000E+00 0. -1.
<mgrwt>
<rscale>  1 0.30000000E+03</rscale>
<asrwt>0</asrwt>
<pdfrwt beam="1">  1       21 0.47895511E-02 0.30000000E+03</pdfrwt>
<pdfrwt beam="2">0</pdfrwt>
<totfact> 0.30993252E+04</totfact>
</mgrwt>
</event>
<event>
 6    1  0.6513574E-002  0.3000000E+03  0.7818608E-02  0.1093470E+00
         21   -1    0    0  501  502  0.00000000000E+00  0.00000000000E+00  0.32330539256E+01  0.32330539256E+01  0.00000000000E+00 0. -1.
         13   -1    0    0    0    0 -0.00000000000E+00 -0.00000000000E+00 -0.10000000000E+04  0.10000000000E+04  0.00000000000E+00 0.  1.
    9000005    2    1    2  501    0 -0.26058957892E+02 -0.35276500499E+02 -0.18456943013E+03  0.18985226630E+03  0.73829334561E+01 0.  0.
         13    1    3    3    0    0 -0.23195187804E+02 -0.29256287533E+02 -0.14525132537E+03  0.14997297963E+03  0.00000000000E+00 0.  1.
          3    1    3    3  501    0 -0.28637700877E+01 -0.60202129661E+01 -0.39318104753E+02  0.39879286662E+02  0.00000000000E+00 0.  1.
         -1    1    1    2    0  502  0.26058957892E+02  0.35276500499E+02 -0.81219751595E+03  0.81338078763E+03  0.00000000000E+00 0. -1.
<mgrwt>
<rscale>  1 0.30000000E+03</rscale>
<asrwt>0</asrwt>
<pdfrwt beam="1">  1       21 0.11756585E-01 0.30000000E+03</pdfrwt>
<pdfrwt beam="2">0</pdfrwt>
<totfact> 0.64316740E+03</totfact>
</mgrwt>
</event>
<event>
 6    1  0.6513574E-002  0.3000000E+03  0.7818608E-02  0.1093470E+00
         21   -1    0    0  501  502  0.00000000000E+00  0.00000000000E+00  0.14364608829E+01  0.14364608829E+01  0.00000000000E+00 0. -1.
         13   -1    0    0    0    0 -0.00000000000E+00 -0.00000000000E+00 -0.10000000000E+04  0.10000000000E+04  0.00000000000E+00 0.  1.
    9000005    2    1    2  501    0 -0.88114326876E+01  0.33861838925E+02 -0.31097190619E+03  0.31295514730E+03  0.36238516417E+01 0.  0.
         13    1    3    3    0    0 -0.78912279881E+01  0.29788643293E+02 -0.26216471759E+03  0.26396964578E+03  0.00000000000E+00 0.  1.
          3    1    3    3  501    0 -0.92020469951E+00  0.40731956325E+01 -0.48807188600E+02  0.48985501512E+02  0.00000000000E+00 0.  1.
         -1    1    1    2    0  502  0.88114326876E+01 -0.33861838925E+02 -0.68759163293E+03  0.68848131359E+03  0.00000000000E+00 0. -1.
<mgrwt>
<rscale>  1 0.30000000E+03</rscale>
<asrwt>0</asrwt>
<pdfrwt beam="1">  1       21 0.52235051E-02 0.30000000E+03</pdfrwt>
<pdfrwt beam="2">0</pdfrwt>
<totfact> 0.26733091E+04</totfact>
</mgrwt>
</event>
<event>
 6    1  0.6513574E-002  0.3000000E+03  0.7818608E-02  0.1093470E+00
         21   -1    0    0  501  502  0.00000000000E+00  0.00000000000E+00  0.17082922226E+01  0.17082922226E+01  0.00000000000E+00 0. -1.
         13   -1    0    0    0    0 -0.00000000000E+00 -0.00000000000E+00 -0.10000000000E+04  0.10000000000E+04  0.00000000000E+00 0.  1.
    9000005    2    1    2  501    0 -0.10679060063E+02  0.34671100827E+02 -0.26263641195E+03  0.26515901224E+03  0.39101581146E+01 0.  0.
         13    1    3    3    0    0 -0.49735721400E+01  0.10032507399E+02 -0.80060312789E+02  0.80839602352E+02  0.00000000000E+00 0.  1.
          1    1    3    3  501    0 -0.57054879225E+01  0.24638593428E+02 -0.18257609916E+03  0.18431940989E+03  0.00000000000E+00 0.  1.
         -3    1    1    2    0  502  0.10679060063E+02 -0.34671100827E+02 -0.73565529583E+03  0.73654927998E+03  0.00000000000E+00 0. -1.
<mgrwt>
<rscale>  1 0.30000000E+03</rscale>
<asrwt>0</asrwt>
<pdfrwt beam="1">  1       21 0.62119848E-02 0.30000000E+03</pdfrwt>
<pdfrwt beam="2">0</pdfrwt>
<totfact> 0.19846035E+04</totfact>
</mgrwt>
</event>
<event>
 6    1  0.6513574E-002  0.3000000E+03  0.7818608E-02  0.1093470E+00
         21   -1    0    0  501  502  0.00000000000E+00  0.00000000000E+00  0.20068547763E+01  0.20068547763E+01  0.00000000000E+00 0. -1.
         13   -1    0    0    0    0 -0.00000000000E+00 -0.00000000000E+00 -0.10000000000E+04  0.10000000000E+04  0.00000000000E+00 0.  1.
    9000005    2    1    2  501    0  0.31085319503E+02  0.31939927464E+02 -0.45587347022E+03  0.45805814572E+03  0.31918580162E+01 0.  0.
         13    1    3    3    0    0  0.20894373145E+02  0.23526850664E+02 -0.32353186406E+03  0.32505838644E+03  0.00000000000E+00 0.  1.
          3    1    3    3  501    0  0.10190946358E+02  0.84130767996E+01 -0.13234160616E+03  0.13299975929E+03  0.00000000000E+00 0.  1.
         -3    1    1    2    0  502 -0.31085319503E+02 -0.31939927464E+02 -0.54211967500E+03  0.54394870905E+03  0.00000000000E+00 0. -1.
<mgrwt>
<rscale>  1 0.30000000E+03</rscale>
<asrwt>0</asrwt>
<pdfrwt beam="1">  1       21 0.72976691E-02 0.30000000E+03</pdfrwt>
<pdfrwt beam="2">0</pdfrwt>
<totfact> 0.15005300E+04</totfact>
</mgrwt>
</event>
<event>
 6    1  0.6513574E-002  0.3000000E+03  0.7818608E-02  0.1093470E+00
         21   -1    0    0  501  502  0.00000000000E+00  0.00000000000E+00  0.98748141992E+00  0.98748141992E+00  0.00000000000E+00 0. -1.
         13   -1    0    0    0    0 -0.00000000000E+00 -0.00000000000E+00 -0.10000000000E+04  0.10000000000E+04  0.00000000000E+00 0.  1.
    9000005    2    1    2  501    0  0.15747710703E+02  0.26749501385E+02 -0.47114824287E+03  0.47221132861E+03  0.62726298284E+01 0.  0.
         13    1    3    3    0    0  0.11879547229E+02  0.20628321947E+02 -0.31665204671E+03  0.31754554003E+03  0.00000000000E+00 0.  1.
          1    1    3    3  501    0  0.38681634750E+01  0.61211794378E+01 -0.15449619616E+03  0.15466578857E+03  0.00000000000E+00 0.  1.
         -1    1    1    2    0  502 -0.15747710703E+02 -0.26749501385E+02 -0.52786427571E+03  0.52877615281E+03  0.00000000000E+00 0. -1.
<mgrwt>
<rscale>  1 0.30000000E+03</rscale>
<asrwt>0</asrwt>
<pdfrwt beam="1">  1       21 0.35908491E-02 0.30000000E+03</pdfrwt>
<pdfrwt beam="2">0</pdfrwt>
<totfact> 0.50404978E+04</totfact>
</mgrwt>
</event>
<event>
 6    1  0.6513574E-002  0.3000000E+03  0.7818608E-02  0.1093470E+00
         21   -1    0    0  501  502  0.00000000000E+00  0.00000000000E+00  0.16752530096E+01  0.16752530096E+01  0.00000000000E+00 0. -1.
         13   -1    0    0    0    0 -0.00000000000E+00 -0.00000000000E+00 -0.10000000000E+04  0.10000000000E+04  0.00000000000E+00 0.  1.
    9000005    2    1    2  501    0 -0.37784670566E+02  0.10728377695E+02 -0.36274122082E+03  0.36487921176E+03  0.35869864108E+01 0.  0.
         13    1    3    3    0    0 -0.16326279868E+02  0.28301071673E+01 -0.15559275966E+03  0.15647256558E+03  0.00000000000E+00 0.  1.
          3    1    3    3  501    0 -0.21458390698E+02  0.78982705281E+01 -0.20714846116E+03  0.20840664618E+03  0.00000000000E+00 0.  1.
         -3    1    1    2    0  502  0.37784670566E+02 -0.10728377695E+02 -0.63558352617E+03  0.63679604125E+03  0.00000000000E+00 0. -1.
<mgrwt>
<rscale>  1 0.30000000E+03</rscale>
<asrwt>0</asrwt>
<pdfrwt beam="1">  1       21 0.60918420E-02 0.30000000E+03</pdfrwt>
<pdfrwt beam="2">0</pdfrwt>
<totfact> 0.20526610E+04</totfact>
</mgrwt>
</event>
<event>
 6    1  0.6513574E-002  0.3000000E+03  0.7818608E-02  0.1093470E+00
         21   -1    0    0  501  502  0.00000000000E+00  0.00000000000E+00  0.17231259221E+01  0.17231259221E+01  0.00000000000E+00 0. -1.
         13   -1    0    0    0    0 -0.00000000000E+00 -0.00000000000E+00 -0.10000000000E+04  0.10000000000E+04  0.00000000000E+00 0.  1.
    9000005    2    1    2  501    0 -0.13281686084E+02 -0.30297105707E+02 -0.19890618105E+03  0.20166823864E+03  0.34773287101E+01 0.  0.
         13    1    3    3    0    0 -0.42017315003E+00 -0.34903459667E+01 -0.19256136279E+02  0.19574418122E+02  0.00000000000E+00 0.  1.
          1    1    3    3  501    0 -0.12861512934E+02 -0.26806759740E+02 -0.17965004477E+03  0.18209382051E+03  0.00000000000E+00 0.  1.
         -3    1    1    2    0  502  0.13281686084E+02  0.30297105707E+02 -0.79937069303E+03  0.80005488729E+03  0.00000000000E+00 0. -1.
<mgrwt>
<rscale>  1 0.30000000E+03</rscale>
<asrwt>0</asrwt>
<pdfrwt beam="1">  1       21 0.62659257E-02 0.30000000E+03</pdfrwt>
<pdfrwt beam="2">0</pdfrwt>
<totfact> 0.19551805E+04</totfact>
</mgrwt>
</event>
<event>
 6    1  0.6513574E-002  0.3000000E+03  0.7818608E-02  0.1093470E+00
         21   -1    0    0  501  502  0.00000000000E+00  0.00000000000E+00  0.59487919480E+01  0.59487919480E+01  0.00000000000E+00 0. -1.
         13   -1    0    0    0    0 -0.00000000000E+00 -0.00000000000E+00 -0.10000000000E+04  0.10000000000E+04  0.00000000000E+00 0.  1.
    9000005    2    1    2  501    0  0.33901478367E+02  0.44285219970E+02 -0.15080464052E+03  0.16085988266E+03  0.48343877100E+01 0.  0.
         13    1    3    3    0    0  0.97103675395E+01  0.11286397622E+02 -0.34812880458E+02  0.37863051314E+02  0.00000000000E+00 0.  1.
          3    1    3    3  501    0  0.24191110828E+02  0.32998822347E+02 -0.11599176006E+03  0.12299683135E+03  0.00000000000E+00 0.  1.
         -1    1    1    2    0  502 -0.33901478367E+02 -0.44285219970E+02 -0.84324656753E+03  0.84508890929E+03  0.00000000000E+00 0. -1.
<mgrwt>
<rscale>  1 0.30000000E+03</rscale>
<asrwt>0</asrwt>
<pdfrwt beam="1">  1       21 0.21632016E-01 0.30000000E+03</pdfrwt>
<pdfrwt beam="2">0</pdfrwt>
<totfact> 0.20645107E+03</totfact>
</mgrwt>
</event>
<event>
 6    1  0.6513574E-002  0.3000000E+03  0.7818608E-02  0.1093470E+00
         21   -1    0    0  501  502  0.00000000000E+00  0.00000000000E+00  0.94223768193E+00  0.94223768193E+00  0.00000000000E+00 0. -1.
         13   -1    0    0    0    0 -0.00000000000E+00 -0.00000000000E+00 -0.10000000000E+04  0.10000000000E+04  0.00000000000E+00 0.  1.
    9000005    2    1    2  501    0  0.91862508722E+01 -0.29102780241E+02 -0.51932329346E+03  0.52023804628E+03  0.44252279163E+01 0.  0.
         13    1    3    3    0    0  0.26539092782E+01 -0.39573260963E+01 -0.66953083886E+02  0.67122418804E+02  0.00000000000E+00 0.  1.
          1    1    3    3  501    0  0.65323415940E+01 -0.25145454144E+02 -0.45237020958E+03  0.45311562748E+03  0.00000000000E+00 0.  1.
         -1    1    1    2    0  502 -0.91862508722E+01  0.29102780241E+02 -0.47973446885E+03  0.48070419140E+03  0.00000000000E+00 0. -1.
<mgrwt>
<rscale>  1 0.30000000E+03</rscale>
<asrwt>0</asrwt>
<pdfrwt beam="1">  1       21 0.34263261E-02 0.30000000E+03</pdfrwt>
<pdfrwt beam="2">0</pdfrwt>
<totfact> 0.54523509E+04</totfact>
</mgrwt>
</event>
<event>
 6    1  0.6513574E-002  0.3000000E+03  0.7818608E-02  0.1093470E+00
         21   -1    0    0  501  502  0.00000000000E+00  0.00000000000E+00  0.22931580384E+01  0.22931580384E+01  0.00000000000E+00 0. -1.
         13   -1    0    0    0    0 -0.00000000000E+00 -0.00000000000E+00 -0.10000000000E+04  0.10000000000E+04  0.00000000000E+00 0.  1.
    9000005    2    1    2  501    0  0.74606948655E+01  0.31036110987E+02 -0.12676605993E+03  0.13076762889E+03  0.34112552112E+01 0.  0.
         13    1    3    3    0    0  0.47852708471E+01  0.19271306510E+02 -0.85393026660E+02  0.87671267094E+02  0.00000000000E+00 0.  1.
          3    1    3    3  501    0  0.26754240184E+01  0.11764804477E+02 -0.41373033274E+02  0.43096361800E+02  0.00000000000E+00 0.  1.
         -1    1    1    2    0  502 -0.74606948655E+01 -0.31036110987E+02 -0.87094078203E+03  0.87152552914E+03  0.00000000000E+00 0. -1.
<mgrwt>
<rscale>  1 0.30000000E+03</rscale>
<asrwt>0</asrwt>
<pdfrwt beam="1">  1       21 0.83387741E-02 0.30000000E+03</pdfrwt>
<pdfrwt beam="2">0</pdfrwt>
<totfact> 0.11875313E+04</totfact>
</mgrwt>
</event>
<event>
 6    1  0.6513574E-002  0.3000000E+03  0.7818608E-02  0.1093470E+00
         21   -1    0    0  501  502  0.00000000000E+00  0.00000000000E+00  0.34852738560E+01  0.34852738560E+01  0.00000000000E+00 0. -1.
         13   -1    0    0    0    0 -0.00000000000E+00 -0.00000000000E+00 -0.10000000000E+04  0.10000000000E+04  0.00000000000E+00 0.  1.
    9000005    2    1    2  501    0 -0.33737730027E+02  0.46289499920E+02 -0.37889047954E+03  0.38321060710E+03  0.33795968784E+01 0.  0.
         13    1    3    3    0    0 -0.31088578957E+01  0.28245445108E+01 -0.26305871837E+02  0.26639105507E+02  0.00000000000E+00 0.  1.
          1    1    3    3  501    0 -0.30628872131E+02  0.43464955410E+02 -0.35258460770E+03  0.35657150159E+03  0.00000000000E+00 0.  1.
         -1    1    1    2    0  502  0.33737730027E+02 -0.46289499920E+02 -0.61762424661E+03  0.62027466676E+03  0.00000000000E+00 0. -1.
<mgrwt>
<rscale>  1 0.30000000E+03</rscale>
<asrwt>0</asrwt>
<pdfrwt beam="1">  1       21 0.12673750E-01 0.30000000E+03</pdfrwt>
<pdfrwt beam="2">0</pdfrwt>
<totfact> 0.56107726E+03</totfact>
</mgrwt>
</event>
<event>
 6    1  0.6513574E-002  0.3000000E+03  0.7818608E-02  0.1093470E+00
         21   -1    0    0  501  502  0.00000000000E+00  0.00000000000E+00  0.99419505249E+00  0.99419505249E+00  0.00000000000E+00 0. -1.
         13   -1    0    0    0    0 -0.00000000000E+00 -0.00000000000E+00 -0.10000000000E+04  0.10000000000E+04  0.00000000000E+00 0.  1.
    9000005    2    1    2  501    0 -0.29687926673E+02 -0.60027825112E+01 -0.63434921073E+03  0.63508185843E+03  0.35551880390E+01 0.  0.
         13    1    3    3    0    0 -0.21443386187E+02 -0.31078087911E+01 -0.47346541265E+03  0.47396094171E+03  0.00000000000E+00 0.  1.
          3    1    3    3  501    0 -0.82445404864E+01 -0.28949737201E+01 -0.16088379808E+03  0.16112091672E+03  0.00000000000E+00 0.  1.
         -1    1    1    2    0  502  0.29687926673E+02  0.60027825112E+01 -0.36465659422E+03  0.36591233663E+03  0.00000000000E+00 0. -1.
<mgrwt>
<rscale>  1 0.30000000E+03</rscale>
<asrwt>0</asrwt>
<pdfrwt beam="1">  1       21 0.36152624E-02 0.30000000E+03</pdfrwt>
<pdfrwt beam="2">0</pdfrwt>
<totfact> 0.49835474E+04</totfact>
</mgrwt>
</event>
<event>
 6    1  0.6513574E-002  0.3000000E+03  0.7818608E-02  0.1093470E+00
         21   -1    0    0  501  502  0.00000000000E+00  0.00000000000E+00  0.49729694765E+01  0.49729694765E+01  0.00000000000E+00 0. -1.
         13   -1    0    0    0    0 -0.00000000000E+00 -0.00000000000E+00 -0.10000000000E+04  0.10000000000E+04  0.00000000000E+00 0.  1.
    9000005    2    1    2  501    0 -0.42909350223E+02  0.28480944738E+02 -0.15480835553E+03  0.16317738957E+03  0.29760668277E+01 0.  0.
         13    1    3    3    0    0 -0.17091093300E+01  0.13716395603E+01 -0.86037863690E+01  0.88784902809E+01  0.00000000000E+00 0.  1.
          3    1    3    3  501    0 -0.41200240893E+02  0.27109305178E+02 -0.14620456916E+03  0.15429889929E+03  0.00000000000E+00 0.  1.
         -3    1    1    2    0  502  0.42909350223E+02 -0.28480944738E+02 -0.84021867499E+03  0.84179557991E+03  0.00000000000E+00 0. -1.
<mgrwt>
<rscale>  1 0.30000000E+03</rscale>
<asrwt>0</asrwt>
<pdfrwt beam="1">  1       21 0.18083564E-01 0.30000000E+03</pdfrwt>
<pdfrwt beam="2">0</pdfrwt>
<totfact> 0.29041015E+03</totfact>
</mgrwt>
</event>
<event>
 6    1  0.6513574E-002  0.3000000E+03  0.7818608E-02  0.1093470E+00
         21   -1    0    0  501  502  0.00000000000E+00  0.00000000000E+00  0.11939321493E+01  0.11939321493E+01  0.00000000000E+00 0. -1.
         13   -1    0    0    0    0 -0.00000000000E+00 -0.00000000000E+00 -0.10000000000E+04  0.10000000000E+04  0.00000000000E+00 0.  1.
    9000005    2    1    2  501    0 -0.20580299308E+02  0.27644213883E+02 -0.51737461827E+03  0.51853049669E+03  0.31030775441E+01 0.  0.
         13    1    3    3    0    0 -0.25737024621E+01  0.42584998449E+01 -0.90559760677E+02  0.90696356152E+02  0.00000000000E+00 0.  1.
          3    1    3    3  501    0 -0.18006596846E+02  0.23385714038E+02 -0.42681485759E+03  0.42783414054E+03  0.00000000000E+00 0.  1.
         -3    1    1    2    0  502  0.20580299308E+02 -0.27644213883E+02 -0.48143144958E+03  0.48266343546E+03  0.00000000000E+00 0. -1.
<mgrwt>
<rscale>  1 0.30000000E+03</rscale>
<asrwt>0</asrwt>
<pdfrwt beam="1">  1       21 0.43415806E-02 0.30000000E+03</pdfrwt>
<pdfrwt beam="2">0</pdfrwt>
<totfact> 0.36615736E+04</totfact>
</mgrwt>
</event>
<event>
 6    1  0.6513574E-002  0.3000000E+03  0.7818608E-02  0.1093470E+00
         21   -1    0    0  501  502  0.00000000000E+00  0.00000000000E+00  0.11198397096E+01  0.11198397096E+01  0.00000000000E+00 0. -1.
         13   -1    0    0    0    0 -0.00000000000E+00 -0.00000000000E+00 -0.10000000000E+04  0.10000000000E+04  0.00000000000E+00 0.  1.
    9000005    2    1    2  501    0 -0.28584151945E+02 -0.11267674062E+02 -0.68007628045E+03  0.68083882557E+03  0.96821972113E+01 0.  0.
         13    1    3    3    0    0 -0.24680725106E+02 -0.12700905111E+02 -0.61832336787E+03  0.61894607070E+03  0.00000000000E+00 0.  1.
          1    1    3    3  501    0 -0.39034268394E+01  0.14332310497E+01 -0.61752912583E+02  0.61892754865E+02  0.00000000000E+00 0.  1.
         -3    1    1    2    0  502  0.28584151945E+02  0.11267674062E+02 -0.31880387984E+03  0.32028101414E+03  0.00000000000E+00 0. -1.
<mgrwt>
<rscale>  1 0.30000000E+03</rscale>
<asrwt>0</asrwt>
<pdfrwt beam="1">  1       21 0.40721530E-02 0.30000000E+03</pdfrwt>
<pdfrwt beam="2">0</pdfrwt>
<totfact> 0.40799734E+04</totfact>
</mgrwt>
</event>
<event>
 6    1  0.6513574E-002  0.3000000E+03  0.7818608E-02  0.1093470E+00
         21   -1    0    0  501  502  0.00000000000E+00  0.00000000000E+00  0.18580745400E+01  0.18580745400E+01  0.00000000000E+00 0. -1.
         13   -1    0    0    0    0 -0.00000000000E+00 -0.00000000000E+00 -0.10000000000E+04  0.10000000000E+04  0.00000000000E+00 0.  1.
    9000005    2    1    2  501    0  0.42822249633E+02 -0.22483411545E+01 -0.45893446486E+03  0.46094820620E+03  0.36885851513E+01 0.  0.
         13    1    3    3    0    0  0.24809986074E+02 -0.31170772185E+01 -0.26843898674E+03  0.26960107785E+03  0.00000000000E+00 0.  1.
          1    1    3    3  501    0  0.18012263559E+02  0.86873606397E+00 -0.19049547812E+03  0.19134712835E+03  0.00000000000E+00 0.  1.
         -3    1    1    2    0  502 -0.42822249633E+02  0.22483411545E+01 -0.53920746060E+03  0.54090986834E+03  0.00000000000E+00 0. -1.
<mgrwt>
<rscale>  1 0.30000000E+03</rscale>
<asrwt>0</asrwt>
<pdfrwt beam="1">  1       21 0.67566489E-02 0.30000000E+03</pdfrwt>
<pdfrwt beam="2">0</pdfrwt>
<totfact> 0.17158660E+04</totfact>
</mgrwt>
</event>
<event>
 6    1  0.6513574E-002  0.3000000E+03  0.7818608E-02  0.1093470E+00
         21   -1    0    0  501  502  0.00000000000E+00  0.00000000000E+00  0.22491838526E+01  0.22491838526E+01  0.00000000000E+00 0. -1.
         13   -1    0    0    0    0 -0.00000000000E+00 -0.00000000000E+00 -0.10000000000E+04  0.10000000000E+04  0.00000000000E+00 0.  1.
    9000005    2    1    2  501    0 -0.44169191191E+02 -0.16670494106E+02 -0.45982956586E+03  0.46226020773E+03  0.35280570378E+01 0.  0.
         13    1    3    3    0    0 -0.20338589053E+02 -0.58884306375E+01 -0.21088473638E+03  0.21194504915E+03  0.00000000000E+00 0.  1.
          1    1    3    3  501    0 -0.23830602138E+02 -0.10782063469E+02 -0.24894482948E+03  0.25031515858E+03  0.00000000000E+00 0.  1.
         -3    1    1    2    0  502  0.44169191191E+02  0.16670494106E+02 -0.53792125029E+03  0.53998897613E+03  0.00000000000E+00 0. -1.
<mgrwt>
<rscale>  1 0.30000000E+03</rscale>
<asrwt>0</asrwt>
<pdfrwt beam="1">  1       21 0.81788676E-02 0.30000000E+03</pdfrwt>
<pdfrwt beam="2">0</pdfrwt>
<totfact> 0.12286944E+04</totfact>
</mgrwt>
</event>
<event>
 6    1  0.6513574E-002  0.3000000E+03  0.7818608E-02  0.1093470E+00
         21   -1    0    0  501  502  0.00000000000E+00  0.00000000000E+00  0.15366376273E+01  0.15366376273E+01  0.00000000000E+00 0. -1.
         13   -1    0    0    0    0 -0.00000000000E+00 -0.00000000000E+00 -0.10000000000E+04  0.10000000000E+04  0.00000000000E+00 0.  1.
    9000005    2    1    2  501    0 -0.17288476546E+02  0.33359082391E+02 -0.36065502110E+03  0.36262255890E+03  0.33698930387E+01 0.  0.
         13    1    3    3    0    0 -0.73038363307E+01  0.12902967630E+02 -0.12759306575E+03  0.12845163692E+03  0.00000000000E+00 0.  1.
          3    1    3    3  501    0 -0.99846402153E+01  0.20456114761E+02 -0.23306195535E+03  0.23417092198E+03  0.00000000000E+00 0.  1.
         -1    1    1    2    0  502  0.17288476546E+02 -0.33359082391E+02 -0.63780834127E+03  0.63891407873E+03  0.00000000000E+00 0. -1.
<mgrwt>
<rscale>  1 0.30000000E+03</rscale>
<asrwt>0</asrwt>
<pdfrwt beam="1">  1       21 0.55877850E-02 0.30000000E+03</pdfrwt>
<pdfrwt beam="2">0</pdfrwt>
<totfact> 0.23818190E+04</totfact>
</mgrwt>
</event>
<event>
 6    1  0.6513574E-002  0.3000000E+03  0.7818608E-02  0.1093470E+00
         21   -1    0    0  501  502  0.00000000000E+00  0.00000000000E+00  0.10472279186E+01  0.10472279186E+01  0.00000000000E+00 0. -1.
         13   -1    0    0    0    0 -0.00000000000E+00 -0.00000000000E+00 -0.10000000000E+04  0.10000000000E+04  0.00000000000E+00 0.  1.
    9000005    2    1    2  501    0 -0.11541386811E+02 -0.30175269913E+02 -0.49086725450E+03  0.49193560588E+03  0.24956488998E+01 0.  0.
         13    1    3    3    0    0 -0.98118600822E+01 -0.23947139232E+02 -0.40422400959E+03  0.40505158685E+03  0.00000000000E+00 0.  1.
          1    1    3    3  501    0 -0.17295267290E+01 -0.62281306811E+01 -0.86643244911E+02  0.86884019032E+02  0.00000000000E+00 0.  1.
         -3    1    1    2    0  502  0.11541386811E+02  0.30175269913E+02 -0.50808551758E+03  0.50911162204E+03  0.00000000000E+00 0. -1.
<mgrwt>
<rscale>  1 0.30000000E+03</rscale>
<asrwt>0</asrwt>
<pdfrwt beam="1">  1       21 0.38081096E-02 0.30000000E+03</pdfrwt>
<pdfrwt beam="2">0</pdfrwt>
<totfact> 0.45672194E+04</totfact>
</mgrwt>
</event>
<event>
 6    1  0.6513574E-002  0.3000000E+03  0.7818608E-02  0.1093470E+00
         21   -1    0    0  501  502  0.00000000000E+00  0.00000000000E+00  0.12955041204E+01  0.12955041204E+01  0.00000000000E+00 0. -1.
         13   -1    0    0    0    0 -0.00000000000E+00 -0.00000000000E+00 -0.10000000000E+04  0.10000000000E+04  0.00000000000E+00 0.  1.
    9000005    2    1    2  501    0 -0.20580561576E+02 -0.29443769719E+02 -0.49221294748E+03  0.49353159866E+03  0.30591039526E+01 0.  0.
         13    1    3    3    0    0 -0.89832965861E+01 -0.10323486926E+02 -0.18245406562E+03  0.18296655448E+03  0.00000000000E+00 0.  1.
          1    1    3    3  501    0 -0.11597264990E+02 -0.19120282794E+02 -0.30975888186E+03  0.31056504417E+03  0.00000000000E+00 0.  1.
         -1    1    1    2    0  502  0.20580561576E+02  0.29443769719E+02 -0.50649154840E+03  0.50776390546E+03  0.00000000000E+00 0. -1.
<mgrwt>
<rscale>  1 0.30000000E+03</rscale>
<asrwt>0</asrwt>
<pdfrwt beam="1">  1       21 0.47109340E-02 0.30000000E+03</pdfrwt>
<pdfrwt beam="2">0</pdfrwt>
<totfact> 0.31878135E+04</totfact>
</mgrwt>
</event>
<event>
 6    1  0.6513574E-002  0.3000000E+03  0.7818608E-02  0.1093470E+00
         21   -1    0    0  501  502  0.00000000000E+00  0.00000000000E+00  0.14708354082E+01  0.14708354082E+01  0.00000000000E+00 0. -1.
         13   -1    0    0    0    0 -0.00000000000E+00 -0.00000000000E+00 -0.10000000000E+04  0.10000000000E+04  0.00000000000E+00 0.  1.
    9000005    2    1    2  501    0  0.36805703036E+02 -0.76654657902E+01 -0.59040902134E+03  0.59162272883E+03  0.46066952795E+01 0.  0.
         13    1    3    3    0    0  0.30002095521E+02 -0.72102606753E+01 -0.50510163592E+03  0.50604325527E+03  0.00000000000E+00 0.  1.
          3    1    3    3  501    0  0.68036075147E+01 -0.45520511487E+00 -0.85307385420E+02  0.85579473556E+02  0.00000000000E+00 0.  1.
         -1    1    1    2    0  502 -0.36805703036E+02  0.76654657902E+01 -0.40812014325E+03  0.40984810658E+03  0.00000000000E+00 0. -1.
<mgrwt>
<rscale>  1 0.30000000E+03</rscale>
<asrwt>0</asrwt>
<pdfrwt beam="1">  1       21 0.53485037E-02 0.30000000E+03</pdfrwt>
<pdfrwt beam="2">0</pdfrwt>
<totfact> 0.25673591E+04</totfact>
</mgrwt>
</event>
<event>
 6    1  0.6513574E-002  0.3000000E+03  0.7818608E-02  0.1093470E+00
         21   -1    0    0  501  502  0.00000000000E+00  0.00000000000E+00  0.18481434519E+01  0.18481434519E+01  0.00000000000E+00 0. -1.
         13   -1    0    0    0    0 -0.00000000000E+00 -0.00000000000E+00 -0.10000000000E+04  0.10000000000E+04  0.00000000000E+00 0.  1.
    9000005    2    1    2  501    0  0.25049347051E+02  0.29418451989E+02 -0.71782880243E+03  0.71887477055E+03  0.31354458327E+01 0.  0.
         13    1    3    3    0    0  0.24158343074E+02  0.29075628991E+02 -0.69770030875E+03  0.69872364964E+03  0.00000000000E+00 0.  1.
          3    1    3    3  501    0  0.89100397657E+00  0.34282299843E+00 -0.20128493687E+02  0.20151120907E+02  0.00000000000E+00 0.  1.
         -1    1    1    2    0  502 -0.25049347051E+02 -0.29418451989E+02 -0.28032305412E+03  0.28297337291E+03  0.00000000000E+00 0. -1.
<mgrwt>
<rscale>  1 0.30000000E+03</rscale>
<asrwt>0</asrwt>
<pdfrwt beam="1">  1       21 0.67205358E-02 0.30000000E+03</pdfrwt>
<pdfrwt beam="2">0</pdfrwt>
<totfact> 0.17318983E+04</totfact>
</mgrwt>
</event>
<event>
 6    1  0.6513574E-002  0.3000000E+03  0.7818608E-02  0.1093470E+00
         21   -1    0    0  501  502  0.00000000000E+00  0.00000000000E+00  0.13345134961E+01  0.13345134961E+01  0.00000000000E+00 0. -1.
         13   -1    0    0    0    0 -0.00000000000E+00 -0.00000000000E+00 -0.10000000000E+04  0.10000000000E+04  0.00000000000E+00 0.  1.
    9000005    2    1    2  501    0 -0.11191154228E+02 -0.32135933659E+02 -0.67928278476E+03  0.68014411772E+03  0.35998657703E+01 0.  0.
         13    1    3    3    0    0 -0.10424528818E+02 -0.26490951795E+02 -0.57951565078E+03  0.58021446968E+03  0.00000000000E+00 0.  1.
          3    1    3    3  501    0 -0.76662541008E+00 -0.56449818646E+01 -0.99767133983E+02  0.99929648042E+02  0.00000000000E+00 0.  1.
         -3    1    1    2    0  502  0.11191154228E+02  0.32135933659E+02 -0.31938270174E+03  0.32119039577E+03  0.00000000000E+00 0. -1.
<mgrwt>
<rscale>  1 0.30000000E+03</rscale>
<asrwt>0</asrwt>
<pdfrwt beam="1">  1       21 0.48527866E-02 0.30000000E+03</pdfrwt>
<pdfrwt beam="2">0</pdfrwt>
<totfact> 0.30309056E+04</totfact>
</mgrwt>
</event>
<event>
 6    1  0.6513574E-002  0.3000000E+03  0.7818608E-02  0.1093470E+00
         21   -1    0    0  501  502  0.00000000000E+00  0.00000000000E+00  0.12176078143E+01  0.12176078143E+01  0.00000000000E+00 0. -1.
         13   -1    0    0    0    0 -0.00000000000E+00 -0.00000000000E+00 -0.10000000000E+04  0.10000000000E+04  0.00000000000E+00 0.  1.
    9000005    2    1    2  501    0 -0.13695740491E+02  0.31930485978E+02 -0.47896556019E+03  0.48024095952E+03  0.40301500880E+01 0.  0.
         13    1    3    3    0    0 -0.70437185683E+01  0.15283450956E+02 -0.25896850916E+03  0.25951471362E+03  0.00000000000E+00 0.  1.
          1    1    3    3  501    0 -0.66520219228E+01  0.16647035021E+02 -0.21999705103E+03  0.22072624591E+03  0.00000000000E+00 0.  1.
         -3    1    1    2    0  502  0.13695740491E+02 -0.31930485978E+02 -0.51981683199E+03  0.52097664829E+03  0.00000000000E+00 0. -1.
<mgrwt>
<rscale>  1 0.30000000E+03</rscale>
<asrwt>0</asrwt>
<pdfrwt beam="1">  1       21 0.44276741E-02 0.30000000E+03</pdfrwt>
<pdfrwt beam="2">0</pdfrwt>
<totfact> 0.35418136E+04</totfact>
</mgrwt>
</event>
<event>
 6    1  0.6513574E-002  0.3000000E+03  0.7818608E-02  0.1093470E+00
         21   -1    0    0  501  502  0.00000000000E+00  0.00000000000E+00  0.15110601988E+01  0.15110601988E+01  0.00000000000E+00 0. -1.
         13   -1    0    0    0    0 -0.00000000000E+00 -0.00000000000E+00 -0.10000000000E+04  0.10000000000E+04  0.00000000000E+00 0.  1.
    9000005    2    1    2  501    0 -0.18840644652E+02 -0.33806252510E+02 -0.53500483731E+03  0.53641392426E+03  0.34481286775E+01 0.  0.
         13    1    3    3    0    0 -0.72342045781E+01 -0.12366024297E+02 -0.17593513714E+03  0.17651749135E+03  0.00000000000E+00 0.  1.
          3    1    3    3  501    0 -0.11606440074E+02 -0.21440228213E+02 -0.35906970017E+03  0.35989643290E+03  0.00000000000E+00 0.  1.
         -1    1    1    2    0  502  0.18840644652E+02  0.33806252510E+02 -0.46348410249E+03  0.46509713594E+03  0.00000000000E+00 0. -1.
<mgrwt>
<rscale>  1 0.30000000E+03</rscale>
<asrwt>0</asrwt>
<pdfrwt beam="1">  1       21 0.54947759E-02 0.30000000E+03</pdfrwt>
<pdfrwt beam="2">0</pdfrwt>
<totfact> 0.24514059E+04</totfact>
</mgrwt>
</event>
<event>
 6    1  0.6513574E-002  0.3000000E+03  0.7818608E-02  0.1093470E+00
         21   -1    0    0  501  502  0.00000000000E+00  0.00000000000E+00  0.11825204663E+01  0.11825204663E+01  0.00000000000E+00 0. -1.
         13   -1    0    0    0    0 -0.00000000000E+00 -0.00000000000E+00 -0.10000000000E+04  0.10000000000E+04  0.00000000000E+00 0.  1.
    9000005    2    1    2  501    0  0.24622729895E+02  0.19573679311E+02 -0.32552692043E+03  0.32715760644E+03  0.86553901185E+01 0.  0.
         13    1    3    3    0    0  0.56809338781E+01  0.66350069441E+01 -0.12924174762E+03  0.12953658037E+03  0.00000000000E+00 0.  1.
          1    1    3    3  501    0  0.18941796017E+02  0.12938672366E+02 -0.19628517280E+03  0.19762102606E+03  0.00000000000E+00 0.  1.
         -3    1    1    2    0  502 -0.24622729895E+02 -0.19573679311E+02 -0.67329055911E+03  0.67402491403E+03  0.00000000000E+00 0. -1.
<mgrwt>
<rscale>  1 0.30000000E+03</rscale>
<asrwt>0</asrwt>
<pdfrwt beam="1">  1       21 0.43000835E-02 0.30000000E+03</pdfrwt>
<pdfrwt beam="2">0</pdfrwt>
<totfact> 0.37215522E+04</totfact>
</mgrwt>
</event>
<event>
 6    1  0.6513574E-002  0.3000000E+03  0.7818608E-02  0.1093470E+00
         21   -1    0    0  501  502  0.00000000000E+00  0.00000000000E+00  0.37851775195E+01  0.37851775195E+01  0.00000000000E+00 0. -1.
         13   -1    0    0    0    0 -0.00000000000E+00 -0.00000000000E+00 -0.10000000000E+04  0.10000000000E+04  0.00000000000E+00 0.  1.
    9000005    2    1    2  501    0  0.22270445159E+02  0.50754397704E+02 -0.28156319849E+03  0.28698748969E+03  0.34645169107E+01 0.  0.
         13    1    3    3    0    0 -0.13278128518E+00  0.27465849048E+00 -0.14385482111E+01  0.14705404149E+01  0.00000000000E+00 0.  1.
          3    1    3    3  501    0  0.22403226445E+02  0.50479739213E+02 -0.28012465028E+03  0.28551694927E+03  0.00000000000E+00 0.  1.
         -1    1    1    2    0  502 -0.22270445159E+02 -0.50754397704E+02 -0.71465162399E+03  0.71679768783E+03  0.00000000000E+00 0. -1.
<mgrwt>
<rscale>  1 0.30000000E+03</rscale>
<asrwt>0</asrwt>
<pdfrwt beam="1">  1       21 0.13764311E-01 0.30000000E+03</pdfrwt>
<pdfrwt beam="2">0</pdfrwt>
<totfact> 0.48247466E+03</totfact>
</mgrwt>
</event>
<event>
 6    1  0.6513574E-002  0.3000000E+03  0.7818608E-02  0.1093470E+00
         21   -1    0    0  501  502  0.00000000000E+00  0.00000000000E+00  0.44474925088E+01  0.44474925088E+01  0.00000000000E+00 0. -1.
         13   -1    0    0    0    0 -0.00000000000E+00 -0.00000000000E+00 -0.10000000000E+04  0.10000000000E+04  0.00000000000E+00 0.  1.
    9000005    2    1    2  501    0  0.34080362904E+02 -0.49253763467E+02 -0.71815216591E+03  0.72065469158E+03  0.36396070337E+01 0.  0.
         13    1    3    3    0    0  0.48025834371E+01 -0.49105428138E+01 -0.82573686394E+02  0.82858867498E+02  0.00000000000E+00 0.  1.
          3    1    3    3  501    0  0.29277779467E+02 -0.44343220654E+02 -0.63557847951E+03  0.63779582408E+03  0.00000000000E+00 0.  1.
         -3    1    1    2    0  502 -0.34080362904E+02  0.49253763467E+02 -0.27740034158E+03  0.28379280093E+03  0.00000000000E+00 0. -1.
<mgrwt>
<rscale>  1 0.30000000E+03</rscale>
<asrwt>0</asrwt>
<pdfrwt beam="1">  1       21 0.16172734E-01 0.30000000E+03</pdfrwt>
<pdfrwt beam="2">0</pdfrwt>
<totfact> 0.35802561E+03</totfact>
</mgrwt>
</event>
<event>
 6    1  0.6513574E-002  0.3000000E+03  0.7818608E-02  0.1093470E+00
         21   -1    0    0  501  502  0.00000000000E+00  0.00000000000E+00  0.21201498400E+01  0.21201498400E+01  0.00000000000E+00 0. -1.
         13   -1    0    0    0    0 -0.00000000000E+00 -0.00000000000E+00 -0.10000000000E+04  0.10000000000E+04  0.00000000000E+00 0.  1.
    9000005    2    1    2  501    0 -0.31162139052E+02 -0.75167820193E+01 -0.14819491410E+03  0.15183074529E+03  0.79537241638E+01 0.  0.
         13    1    3    3    0    0 -0.13860861732E+02  0.68436909401E+00 -0.61180866023E+02  0.62735079631E+02  0.00000000000E+00 0.  1.
          3    1    3    3  501    0 -0.17301277320E+02 -0.82011511133E+01 -0.87014048075E+02  0.89095665657E+02  0.00000000000E+00 0.  1.
         -3    1    1    2    0  502  0.31162139052E+02  0.75167820193E+01 -0.84968493606E+03  0.85028940455E+03  0.00000000000E+00 0. -1.
<mgrwt>
<rscale>  1 0.30000000E+03</rscale>
<asrwt>0</asrwt>
<pdfrwt beam="1">  1       21 0.77096520E-02 0.30000000E+03</pdfrwt>
<pdfrwt beam="2">0</pdfrwt>
<totfact> 0.13629964E+04</totfact>
</mgrwt>
</event>
<event>
 6    1  0.6513574E-002  0.3000000E+03  0.7818608E-02  0.1093470E+00
         21   -1    0    0  501  502  0.00000000000E+00  0.00000000000E+00  0.21754119564E+01  0.21754119564E+01  0.00000000000E+00 0. -1.
         13   -1    0    0    0    0 -0.00000000000E+00 -0.00000000000E+00 -0.10000000000E+04  0.10000000000E+04  0.00000000000E+00 0.  1.
    9000005    2    1    2  501    0  0.19321529449E+02  0.31759552438E+02 -0.19837885061E+03  0.20186579826E+03  0.36934356830E+01 0.  0.
         13    1    3    3    0    0  0.13563250761E+02  0.21816217731E+02 -0.14583825042E+03  0.14808343734E+03  0.00000000000E+00 0.  1.
          3    1    3    3  501    0  0.57582786877E+01  0.99433347067E+01 -0.52540600183E+02  0.53782360920E+02  0.00000000000E+00 0.  1.
         -1    1    1    2    0  502 -0.19321529449E+02 -0.31759552438E+02 -0.79944573744E+03  0.80030961370E+03  0.00000000000E+00 0. -1.
<mgrwt>
<rscale>  1 0.30000000E+03</rscale>
<asrwt>0</asrwt>
<pdfrwt beam="1">  1       21 0.79106056E-02 0.30000000E+03</pdfrwt>
<pdfrwt beam="2">0</pdfrwt>
<totfact> 0.13028419E+04</totfact>
</mgrwt>
</event>
<event>
 6    1  0.6513574E-002  0.3000000E+03  0.7818608E-02  0.1093470E+00
         21   -1    0    0  501  502  0.00000000000E+00  0.00000000000E+00  0.16639654051E+01  0.16639654051E+01  0.00000000000E+00 0. -1.
         13   -1    0    0    0    0 -0.00000000000E+00 -0.00000000000E+00 -0.10000000000E+04  0.10000000000E+04  0.00000000000E+00 0.  1.
    9000005    2    1    2  501    0  0.20807138602E+02 -0.29894364817E+02 -0.27553538427E+03  0.27794620952E+03  0.27816075238E+01 0.  0.
         13    1    3    3    0    0  0.31449106490E+01 -0.45865432561E+01 -0.50251482865E+02  0.50558267100E+02  0.00000000000E+00 0.  1.
          1    1    3    3  501    0  0.17662227953E+02 -0.25307821561E+02 -0.22528390140E+03  0.22738794242E+03  0.00000000000E+00 0.  1.
         -1    1    1    2    0  502 -0.20807138602E+02  0.29894364817E+02 -0.72280065033E+03  0.72371775588E+03  0.00000000000E+00 0. -1.
<mgrwt>
<rscale>  1 0.30000000E+03</rscale>
<asrwt>0</asrwt>
<pdfrwt beam="1">  1       21 0.60507961E-02 0.30000000E+03</pdfrwt>
<pdfrwt beam="2">0</pdfrwt>
<totfact> 0.20767462E+04</totfact>
</mgrwt>
</event>
<event>
 6    1  0.6513574E-002  0.3000000E+03  0.7818608E-02  0.1093470E+00
         21   -1    0    0  501  502  0.00000000000E+00  0.00000000000E+00  0.13063355682E+01  0.13063355682E+01  0.00000000000E+00 0. -1.
         13   -1    0    0    0    0 -0.00000000000E+00 -0.00000000000E+00 -0.10000000000E+04  0.10000000000E+04  0.00000000000E+00 0.  1.
    9000005    2    1    2  501    0 -0.17456631287E+02  0.29059963677E+02 -0.66914025752E+03  0.67001392172E+03  0.45558317340E+01 0.  0.
         13    1    3    3    0    0 -0.12402062685E+01  0.50333716454E+00 -0.31827441925E+02  0.31855572815E+02  0.00000000000E+00 0.  1.
          1    1    3    3  501    0 -0.16216425018E+02  0.28556626512E+02 -0.63731281559E+03  0.63815834891E+03  0.00000000000E+00 0.  1.
         -1    1    1    2    0  502  0.17456631287E+02 -0.29059963677E+02 -0.32955340691E+03  0.33129241385E+03  0.00000000000E+00 0. -1.
<mgrwt>
<rscale>  1 0.30000000E+03</rscale>
<asrwt>0</asrwt>
<pdfrwt beam="1">  1       21 0.47503212E-02 0.30000000E+03</pdfrwt>
<pdfrwt beam="2">0</pdfrwt>
<totfact> 0.31429935E+04</totfact>
</mgrwt>
</event>
<event>
 6    1  0.6513574E-002  0.3000000E+03  0.7818608E-02  0.1093470E+00
         21   -1    0    0  501  502  0.00000000000E+00  0.00000000000E+00  0.11296662764E+01  0.11296662764E+01  0.00000000000E+00 0. -1.
         13   -1    0    0    0    0 -0.00000000000E+00 -0.00000000000E+00 -0.10000000000E+04  0.10000000000E+04  0.00000000000E+00 0.  1.
    9000005    2    1    2  501    0  0.13379086522E+02 -0.28327772345E+02 -0.67863572630E+03  0.67936629602E+03  0.32638206587E+01 0.  0.
         13    1    3    3    0    0  0.87852405614E+01 -0.21490395450E+02 -0.48470901859E+03  0.48526472183E+03  0.00000000000E+00 0.  1.
          3    1    3    3  501    0  0.45938459604E+01 -0.68373768953E+01 -0.19392670770E+03  0.19410157419E+03  0.00000000000E+00 0.  1.
         -3    1    1    2    0  502 -0.13379086522E+02  0.28327772345E+02 -0.32023460743E+03  0.32176337025E+03  0.00000000000E+00 0. -1.
<mgrwt>
<rscale>  1 0.30000000E+03</rscale>
<asrwt>0</asrwt>
<pdfrwt beam="1">  1       21 0.41078860E-02 0.30000000E+03</pdfrwt>
<pdfrwt beam="2">0</pdfrwt>
<totfact> 0.40203149E+04</totfact>
</mgrwt>
</event>
<event>
 6    1  0.6513574E-002  0.3000000E+03  0.7818608E-02  0.1093470E+00
         21   -1    0    0  501  502  0.00000000000E+00  0.00000000000E+00  0.36791251224E+01  0.36791251224E+01  0.00000000000E+00 0. -1.
         13   -1    0    0    0    0 -0.00000000000E+00 -0.00000000000E+00 -0.10000000000E+04  0.10000000000E+04  0.00000000000E+00 0.  1.
    9000005    2    1    2  501    0  0.41754660530E+02 -0.37552845718E+02 -0.68721429428E+03  0.68951269460E+03  0.32560491837E+01 0.  0.
         13    1    3    3    0    0  0.17154211446E+02 -0.17464218801E+02 -0.29227760871E+03  0.29330098271E+03  0.00000000000E+00 0.  1.
          1    1    3    3  501    0  0.24600449084E+02 -0.20088626917E+02 -0.39493668557E+03  0.39621171189E+03  0.00000000000E+00 0.  1.
         -1    1    1    2    0  502 -0.41754660530E+02  0.37552845718E+02 -0.30910658060E+03  0.31416643053E+03  0.00000000000E+00 0. -1.
<mgrwt>
<rscale>  1 0.30000000E+03</rscale>
<asrwt>0</asrwt>
<pdfrwt beam="1">  1       21 0.13378665E-01 0.30000000E+03</pdfrwt>
<pdfrwt beam="2">0</pdfrwt>
<totfact> 0.50826218E+03</totfact>
</mgrwt>
</event>
<event>
 6    1  0.6513574E-002  0.3000000E+03  0.7818608E-02  0.1093470E+00
         21   -1    0    0  501  502  0.00000000000E+00  0.00000000000E+00  0.29634268431E+01  0.29634268431E+01  0.00000000000E+00 0. -1.
         13   -1    0    0    0    0 -0.00000000000E+00 -0.00000000000E+00 -0.10000000000E+04  0.10000000000E+04  0.00000000000E+00 0.  1.
    9000005    2    1    2  501    0  0.37206352360E+02 -0.29045685069E+02 -0.24983346820E+03  0.25427093687E+03  0.29971702574E+01 0.  0.
         13    1    3    3    0    0  0.96553550734E+01 -0.59483545341E+01 -0.58538508010E+02  0.59626887586E+02  0.00000000000E+00 0.  1.
          3    1    3    3  501    0  0.27550997286E+02 -0.23097330535E+02 -0.19129496019E+03  0.19464404928E+03  0.00000000000E+00 0.  1.
         -3    1    1    2    0  502 -0.37206352360E+02  0.29045685069E+02 -0.74720310496E+03  0.74869248997E+03  0.00000000000E+00 0. -1.
<mgrwt>
<rscale>  1 0.30000000E+03</rscale>
<asrwt>0</asrwt>
<pdfrwt beam="1">  1       21 0.10776120E-01 0.30000000E+03</pdfrwt>
<pdfrwt beam="2">0</pdfrwt>
<totfact> 0.75250965E+03</totfact>
</mgrwt>
</event>
<event>
 6    1  0.6513574E-002  0.3000000E+03  0.7818608E-02  0.1093470E+00
         21   -1    0    0  501  502  0.00000000000E+00  0.00000000000E+00  0.47047726149E+01  0.47047726149E+01  0.00000000000E+00 0. -1.
         13   -1    0    0    0    0 -0.00000000000E+00 -0.00000000000E+00 -0.10000000000E+04  0.10000000000E+04  0.00000000000E+00 0.  1.
    9000005    2    1    2  501    0 -0.55532081403E+02  0.19827853539E+02 -0.75410774190E+03  0.75641389684E+03  0.25575556480E+01 0.  0.
         13    1    3    3    0    0 -0.27156474186E+02  0.10885995607E+02 -0.38179634733E+03  0.38291569545E+03  0.00000000000E+00 0.  1.
          1    1    3    3  501    0 -0.28375607217E+02  0.89418579317E+01 -0.37231139457E+03  0.37349820138E+03  0.00000000000E+00 0.  1.
         -3    1    1    2    0  502  0.55532081403E+02 -0.19827853539E+02 -0.24118748548E+03  0.24829087578E+03  0.00000000000E+00 0. -1.
<mgrwt>
<rscale>  1 0.30000000E+03</rscale>
<asrwt>0</asrwt>
<pdfrwt beam="1">  1       21 0.17108300E-01 0.30000000E+03</pdfrwt>
<pdfrwt beam="2">0</pdfrwt>
<totfact> 0.32229474E+03</totfact>
</mgrwt>
</event>
<event>
 6    1  0.6513574E-002  0.3000000E+03  0.7818608E-02  0.1093470E+00
         21   -1    0    0  501  502  0.00000000000E+00  0.00000000000E+00  0.12077658666E+01  0.12077658666E+01  0.00000000000E+00 0. -1.
         13   -1    0    0    0    0 -0.00000000000E+00 -0.00000000000E+00 -0.10000000000E+04  0.10000000000E+04  0.00000000000E+00 0.  1.
    9000005    2    1    2  501    0 -0.68325345827E+01 -0.32471734490E+02 -0.38060452803E+03  0.38213011561E+03  0.79070493634E+01 0.  0.
         13    1    3    3    0    0 -0.45825707783E+01 -0.12941562538E+02 -0.19646755543E+03  0.19694665352E+03  0.00000000000E+00 0.  1.
          1    1    3    3  501    0 -0.22499638044E+01 -0.19530171952E+02 -0.18413697260E+03  0.18518346209E+03  0.00000000000E+00 0.  1.
         -1    1    1    2    0  502  0.68325345827E+01  0.32471734490E+02 -0.61818770610E+03  0.61907765026E+03  0.00000000000E+00 0. -1.
<mgrwt>
<rscale>  1 0.30000000E+03</rscale>
<asrwt>0</asrwt>
<pdfrwt beam="1">  1       21 0.43918851E-02 0.30000000E+03</pdfrwt>
<pdfrwt beam="2">0</pdfrwt>
<totfact> 0.35908509E+04</totfact>
</mgrwt>
</event>
<event>
 6    1  0.6513574E-002  0.3000000E+03  0.7818608E-02  0.1093470E+00
         21   -1    0    0  501  502  0.00000000000E+00  0.00000000000E+00  0.11179144413E+01  0.11179144413E+01  0.00000000000E+00 0. -1.
         13   -1    0    0    0    0 -0.00000000000E+00 -0.00000000000E+00 -0.10000000000E+04  0.10000000000E+04  0.00000000000E+00 0.  1.
    9000005    2    1    2  501    0  0.31946939027E+02 -0.76251429095E+01 -0.58572303364E+03  0.58665542892E+03  0.37908354934E+01 0.  0.
         13    1    3    3    0    0  0.62386075964E+01 -0.30591177155E+01 -0.11969661933E+03  0.11989811969E+03  0.00000000000E+00 0.  1.
          3    1    3    3  501    0  0.25708331430E+02 -0.45660251939E+01 -0.46602641431E+03  0.46675730924E+03  0.00000000000E+00 0.  1.
         -3    1    1    2    0  502 -0.31946939027E+02  0.76251429095E+01 -0.41315905192E+03  0.41446248552E+03  0.00000000000E+00 0. -1.
<mgrwt>
<rscale>  1 0.30000000E+03</rscale>
<asrwt>0</asrwt>
<pdfrwt beam="1">  1       21 0.40651520E-02 0.30000000E+03</pdfrwt>
<pdfrwt beam="2">0</pdfrwt>
<totfact> 0.40918238E+04</totfact>
</mgrwt>
</event>
<event>
 6    1  0.6513574E-002  0.3000000E+03  0.7818608E-02  0.1093470E+00
         21   -1    0    0  501  502  0.00000000000E+00  0.00000000000E+00  0.10686223318E+01  0.10686223318E+01  0.00000000000E+00 0. -1.
         13   -1    0    0    0    0 -0.00000000000E+00 -0.00000000000E+00 -0.10000000000E+04  0.10000000000E+04  0.00000000000E+00 0.  1.
    9000005    2    1    2  501    0  0.11666556697E+02 -0.29954039932E+02 -0.58308724129E+03  0.58398386018E+03  0.36145469946E+01 0.  0.
         13    1    3    3    0    0  0.79169635950E+00 -0.11623674176E+01 -0.15843133358E+02  0.15905431642E+02  0.00000000000E+00 0.  1.
          1    1    3    3  501    0  0.10874860338E+02 -0.28791672514E+02 -0.56724410793E+03  0.56807842854E+03  0.00000000000E+00 0.  1.
         -3    1    1    2    0  502 -0.11666556697E+02  0.29954039932E+02 -0.41584413638E+03  0.41708476215E+03  0.00000000000E+00 0. -1.
<mgrwt>
<rscale>  1 0.30000000E+03</rscale>
<asrwt>0</asrwt>
<pdfrwt beam="1">  1       21 0.38859076E-02 0.30000000E+03</pdfrwt>
<pdfrwt beam="2">0</pdfrwt>
<totfact> 0.44145623E+04</totfact>
</mgrwt>
</event>
<event>
 6    1  0.6513574E-002  0.3000000E+03  0.7818608E-02  0.1093470E+00
         21   -1    0    0  501  502  0.00000000000E+00  0.00000000000E+00  0.46846056275E+01  0.46846056275E+01  0.00000000000E+00 0. -1.
         13   -1    0    0    0    0 -0.00000000000E+00 -0.00000000000E+00 -0.10000000000E+04  0.10000000000E+04  0.00000000000E+00 0.  1.
    9000005    2    1    2  501    0  0.74134610983E+01  0.67635201614E+02 -0.48909129762E+03  0.49390841586E+03  0.10283284723E+02 0.  0.
         13    1    3    3    0    0  0.67595420493E+01  0.19802771219E+02 -0.15776224037E+03  0.15914385204E+03  0.00000000000E+00 0.  1.
          1    1    3    3  501    0  0.65391904898E+00  0.47832430395E+02 -0.33132905725E+03  0.33476456381E+03  0.00000000000E+00 0.  1.
         -1    1    1    2    0  502 -0.74134610983E+01 -0.67635201614E+02 -0.50622409675E+03  0.51077618977E+03  0.00000000000E+00 0. -1.
<mgrwt>
<rscale>  1 0.30000000E+03</rscale>
<asrwt>0</asrwt>
<pdfrwt beam="1">  1       21 0.17034965E-01 0.30000000E+03</pdfrwt>
<pdfrwt beam="2">0</pdfrwt>
<totfact> 0.32489925E+03</totfact>
</mgrwt>
</event>
<event>
 6    1  0.6513574E-002  0.3000000E+03  0.7818608E-02  0.1093470E+00
         21   -1    0    0  501  502  0.00000000000E+00  0.00000000000E+00  0.39884269162E+01  0.39884269162E+01  0.00000000000E+00 0. -1.
         13   -1    0    0    0    0 -0.00000000000E+00 -0.00000000000E+00 -0.10000000000E+04  0.10000000000E+04  0.00000000000E+00 0.  1.
    9000005    2    1    2  501    0  0.37564666277E+01  0.43236553108E+02 -0.13602972512E+03  0.14291218790E+03  0.60246799739E+01 0.  0.
         13    1    3    3    0    0  0.46893505242E+01  0.37380476772E+02 -0.12189353365E+03  0.12758261480E+03  0.00000000000E+00 0.  1.
          3    1    3    3  501    0 -0.93288389653E+00  0.58560763364E+01 -0.14136191470E+02  0.15329573109E+02  0.00000000000E+00 0.  1.
         -3    1    1    2    0  502 -0.37564666277E+01 -0.43236553108E+02 -0.85998184796E+03  0.86107623901E+03  0.00000000000E+00 0. -1.
<mgrwt>
<rscale>  1 0.30000000E+03</rscale>
<asrwt>0</asrwt>
<pdfrwt beam="1">  1       21 0.14503401E-01 0.30000000E+03</pdfrwt>
<pdfrwt beam="2">0</pdfrwt>
<totfact> 0.43822817E+03</totfact>
</mgrwt>
</event>
<event>
 6    1  0.6513574E-002  0.3000000E+03  0.7818608E-02  0.1093470E+00
         21   -1    0    0  501  502  0.00000000000E+00  0.00000000000E+00  0.17932395202E+01  0.17932395202E+01  0.00000000000E+00 0. -1.
         13   -1    0    0    0    0 -0.00000000000E+00 -0.00000000000E+00 -0.10000000000E+04  0.10000000000E+04  0.00000000000E+00 0.  1.
    9000005    2    1    2  501    0 -0.10557244602E+02 -0.31243504405E+02 -0.18695906581E+03  0.18987548871E+03  0.33759356469E+01 0.  0.
         13    1    3    3    0    0 -0.79423537643E+01 -0.18361485834E+02 -0.11352493872E+03  0.11527418122E+03  0.00000000000E+00 0.  1.
          3    1    3    3  501    0 -0.26148908372E+01 -0.12882018571E+02 -0.73434127090E+02  0.74601307482E+02  0.00000000000E+00 0.  1.
         -1    1    1    2    0  502  0.10557244602E+02  0.31243504405E+02 -0.81124769467E+03  0.81191775082E+03  0.00000000000E+00 0. -1.
<mgrwt>
<rscale>  1 0.30000000E+03</rscale>
<asrwt>0</asrwt>
<pdfrwt beam="1">  1       21 0.65208847E-02 0.30000000E+03</pdfrwt>
<pdfrwt beam="2">0</pdfrwt>
<totfact> 0.18248400E+04</totfact>
</mgrwt>
</event>
<event>
 6    1  0.6513574E-002  0.3000000E+03  0.7818608E-02  0.1093470E+00
         21   -1    0    0  501  502  0.00000000000E+00  0.00000000000E+00  0.20928396504E+01  0.20928396504E+01  0.00000000000E+00 0. -1.
         13   -1    0    0    0    0 -0.00000000000E+00 -0.00000000000E+00 -0.10000000000E+04  0.10000000000E+04  0.00000000000E+00 0.  1.
    9000005    2    1    2  501    0  0.29311569141E+02  0.33524045851E+02 -0.39989912632E+03  0.40242906844E+03  0.68420874030E+01 0.  0.
         13    1    3    3    0    0  0.17638804004E+02  0.15147475836E+02 -0.21422191007E+03  0.21547992989E+03  0.00000000000E+00 0.  1.
          1    1    3    3  501    0  0.11672765136E+02  0.18376570015E+02 -0.18567721624E+03  0.18694913854E+03  0.00000000000E+00 0.  1.
         -3    1    1    2    0  502 -0.29311569141E+02 -0.33524045851E+02 -0.59800803403E+03  0.59966377121E+03  0.00000000000E+00 0. -1.
<mgrwt>
<rscale>  1 0.30000000E+03</rscale>
<asrwt>0</asrwt>
<pdfrwt beam="1">  1       21 0.76103420E-02 0.30000000E+03</pdfrwt>
<pdfrwt beam="2">0</pdfrwt>
<totfact> 0.13943199E+04</totfact>
</mgrwt>
</event>
<event>
 6    1  0.6513574E-002  0.3000000E+03  0.7818608E-02  0.1093470E+00
         21   -1    0    0  501  502  0.00000000000E+00  0.00000000000E+00  0.10918881801E+01  0.10918881801E+01  0.00000000000E+00 0. -1.
         13   -1    0    0    0    0 -0.00000000000E+00 -0.00000000000E+00 -0.10000000000E+04  0.10000000000E+04  0.00000000000E+00 0.  1.
    9000005    2    1    2  501    0  0.19222586295E+02  0.23832143255E+02 -0.31631080735E+03  0.31780822897E+03  0.34734244992E+01 0.  0.
         13    1    3    3    0    0  0.12903002140E+02  0.13468017864E+02 -0.18537669743E+03  0.18631262684E+03  0.00000000000E+00 0.  1.
          3    1    3    3  501    0  0.63195841549E+01  0.10364125391E+02 -0.13093410992E+03  0.13149560213E+03  0.00000000000E+00 0.  1.
         -3    1    1    2    0  502 -0.19222586295E+02 -0.23832143255E+02 -0.68259730447E+03  0.68328365921E+03  0.00000000000E+00 0. -1.
<mgrwt>
<rscale>  1 0.30000000E+03</rscale>
<asrwt>0</asrwt>
<pdfrwt beam="1">  1       21 0.39705108E-02 0.30000000E+03</pdfrwt>
<pdfrwt beam="2">0</pdfrwt>
<totfact> 0.42574462E+04</totfact>
</mgrwt>
</event>
<event>
 6    1  0.6513574E-002  0.3000000E+03  0.7818608E-02  0.1093470E+00
         21   -1    0    0  501  502  0.00000000000E+00  0.00000000000E+00  0.19774371778E+01  0.19774371778E+01  0.00000000000E+00 0. -1.
         13   -1    0    0    0    0 -0.00000000000E+00 -0.00000000000E+00 -0.10000000000E+04  0.10000000000E+04  0.00000000000E+00 0.  1.
    9000005    2    1    2  501    0  0.36763199105E+02  0.36127877744E+01 -0.22171897667E+03  0.22479544889E+03  0.30173138377E+01 0.  0.
         13    1    3    3    0    0  0.18902367260E+02  0.94945760968E+00 -0.10612629737E+03  0.10780070479E+03  0.00000000000E+00 0.  1.
          3    1    3    3  501    0  0.17860831845E+02  0.26633301647E+01 -0.11559267929E+03  0.11699474410E+03  0.00000000000E+00 0.  1.
         -3    1    1    2    0  502 -0.36763199105E+02 -0.36127877744E+01 -0.77630358616E+03  0.77718198829E+03  0.00000000000E+00 0. -1.
<mgrwt>
<rscale>  1 0.30000000E+03</rscale>
<asrwt>0</asrwt>
<pdfrwt beam="1">  1       21 0.71906958E-02 0.30000000E+03</pdfrwt>
<pdfrwt beam="2">0</pdfrwt>
<totfact> 0.15397106E+04</totfact>
</mgrwt>
</event>
<event>
 6    1  0.6513574E-002  0.3000000E+03  0.7818608E-02  0.1093470E+00
         21   -1    0    0  501  502  0.00000000000E+00  0.00000000000E+00  0.12964891919E+01  0.12964891919E+01  0.00000000000E+00 0. -1.
         13   -1    0    0    0    0 -0.00000000000E+00 -0.00000000000E+00 -0.10000000000E+04  0.10000000000E+04  0.00000000000E+00 0.  1.
    9000005    2    1    2  501    0 -0.23136622598E+01 -0.35828639291E+02 -0.52657421581E+03  0.52780402291E+03  0.27635885759E+01 0.  0.
         13    1    3    3    0    0 -0.19152928876E+01 -0.35067430764E+02 -0.51692373092E+03  0.51811537000E+03  0.00000000000E+00 0.  1.
          3    1    3    3  501    0 -0.39836937216E+00 -0.76120852679E+00 -0.96504848902E+01  0.96886529091E+01  0.00000000000E+00 0.  1.
         -1    1    1    2    0  502  0.23136622598E+01  0.35828639291E+02 -0.47212929500E+03  0.47349246628E+03  0.00000000000E+00 0. -1.
<mgrwt>
<rscale>  1 0.30000000E+03</rscale>
<asrwt>0</asrwt>
<pdfrwt beam="1">  1       21 0.47145161E-02 0.30000000E+03</pdfrwt>
<pdfrwt beam="2">0</pdfrwt>
<totfact> 0.31836961E+04</totfact>
</mgrwt>
</event>
<event>
 6    1  0.6513574E-002  0.3000000E+03  0.7818608E-02  0.1093470E+00
         21   -1    0    0  501  502  0.00000000000E+00  0.00000000000E+00  0.39272670292E+01  0.39272670292E+01  0.00000000000E+00 0. -1.
         13   -1    0    0    0    0 -0.00000000000E+00 -0.00000000000E+00 -0.10000000000E+04  0.10000000000E+04  0.00000000000E+00 0.  1.
    9000005    2    1    2  501    0  0.37323814907E+02  0.27678892970E+02 -0.16229604795E+03  0.16885676176E+03  0.36620402518E+01 0.  0.
         13    1    3    3    0    0  0.29206907937E+02  0.22766230411E+02 -0.12473689265E+03  0.13011778167E+03  0.00000000000E+00 0.  1.
          1    1    3    3  501    0  0.81169069692E+01  0.49126625592E+01 -0.37559155295E+02  0.38738980093E+02  0.00000000000E+00 0.  1.
         -1    1    1    2    0  502 -0.37323814907E+02 -0.27678892970E+02 -0.83377668503E+03  0.83507050527E+03  0.00000000000E+00 0. -1.
<mgrwt>
<rscale>  1 0.30000000E+03</rscale>
<asrwt>0</asrwt>
<pdfrwt beam="1">  1       21 0.14281001E-01 0.30000000E+03</pdfrwt>
<pdfrwt beam="2">0</pdfrwt>
<totfact> 0.45088397E+03</totfact>
</mgrwt>
</event>
<event>
 6    1  0.6513574E-002  0.3000000E+03  0.7818608E-02  0.1093470E+00
         21   -1    0    0  501  502  0.00000000000E+00  0.00000000000E+00  0.15584206791E+01  0.15584206791E+01  0.00000000000E+00 0. -1.
         13   -1    0    0    0    0 -0.00000000000E+00 -0.00000000000E+00 -0.10000000000E+04  0.10000000000E+04  0.00000000000E+00 0.  1.
    9000005    2    1    2  501    0 -0.35606470899E+02  0.16808077562E+02 -0.52302972034E+03  0.52451883333E+03  0.30961128451E+01 0.  0.
         13    1    3    3    0    0 -0.17787277739E+02  0.92056391852E+01 -0.28395595092E+03  0.28466140080E+03  0.00000000000E+00 0.  1.
          3    1    3    3  501    0 -0.17819193160E+02  0.76024383765E+01 -0.23907376942E+03  0.23985743253E+03  0.00000000000E+00 0.  1.
         -1    1    1    2    0  502  0.35606470899E+02 -0.16808077562E+02 -0.47541185898E+03  0.47703958735E+03  0.00000000000E+00 0. -1.
<mgrwt>
<rscale>  1 0.30000000E+03</rscale>
<asrwt>0</asrwt>
<pdfrwt beam="1">  1       21 0.56669962E-02 0.30000000E+03</pdfrwt>
<pdfrwt beam="2">0</pdfrwt>
<totfact> 0.23249198E+04</totfact>
</mgrwt>
</event>
<event>
 6    1  0.6513574E-002  0.3000000E+03  0.7818608E-02  0.1093470E+00
         21   -1    0    0  501  502  0.00000000000E+00  0.00000000000E+00  0.11806718719E+01  0.11806718719E+01  0.00000000000E+00 0. -1.
         13   -1    0    0    0    0 -0.00000000000E+00 -0.00000000000E+00 -0.10000000000E+04  0.10000000000E+04  0.00000000000E+00 0.  1.
    9000005    2    1    2  501    0 -0.31289641594E+02 -0.38523310729E+01 -0.30482606132E+03  0.30647171375E+03  0.34787268607E+01 0.  0.
         13    1    3    3    0    0 -0.27827798499E+02 -0.38451721115E+01 -0.27994312306E+03  0.28134911385E+03  0.00000000000E+00 0.  1.
          1    1    3    3  501    0 -0.34618430950E+01 -0.71589613379E-02 -0.24882938264E+02  0.25122599896E+02  0.00000000000E+00 0.  1.
         -3    1    1    2    0  502  0.31289641594E+02  0.38523310729E+01 -0.69399326680E+03  0.69470895812E+03  0.00000000000E+00 0. -1.
<mgrwt>
<rscale>  1 0.30000000E+03</rscale>
<asrwt>0</asrwt>
<pdfrwt beam="1">  1       21 0.42933613E-02 0.30000000E+03</pdfrwt>
<pdfrwt beam="2">0</pdfrwt>
<totfact> 0.37314115E+04</totfact>
</mgrwt>
</event>
<event>
 6    1  0.6513574E-002  0.3000000E+03  0.7818608E-02  0.1093470E+00
         21   -1    0    0  501  502  0.00000000000E+00  0.00000000000E+00  0.14198909642E+01  0.14198909642E+01  0.00000000000E+00 0. -1.
         13   -1    0    0    0    0 -0.00000000000E+00 -0.00000000000E+00 -0.10000000000E+04  0.10000000000E+04  0.00000000000E+00 0.  1.
    9000005    2    1    2  501    0 -0.35525684143E+02  0.97148419935E+00 -0.66440535046E+03  0.66536068891E+03  0.27126763365E+01 0.  0.
         13    1    3    3    0    0 -0.12135239475E+02  0.11776486801E+01 -0.20986869945E+03  0.21022255327E+03  0.00000000000E+00 0.  1.
          3    1    3    3  501    0 -0.23390444668E+02 -0.20616448075E+00 -0.45453665101E+03  0.45513813564E+03  0.00000000000E+00 0.  1.
         -3    1    1    2    0  502  0.35525684143E+02 -0.97148419935E+00 -0.33417475857E+03  0.33605920205E+03  0.00000000000E+00 0. -1.
<mgrwt>
<rscale>  1 0.30000000E+03</rscale>
<asrwt>0</asrwt>
<pdfrwt beam="1">  1       21 0.51632508E-02 0.30000000E+03</pdfrwt>
<pdfrwt beam="2">0</pdfrwt>
<totfact> 0.27268202E+04</totfact>
</mgrwt>
</event>
<event>
 6    1  0.6513574E-002  0.3000000E+03  0.7818608E-02  0.1093470E+00
         21   -1    0    0  501  502  0.00000000000E+00  0.00000000000E+00  0.17338993915E+01  0.17338993915E+01  0.00000000000E+00 0. -1.
         13   -1    0    0    0    0 -0.00000000000E+00 -0.00000000000E+00 -0.10000000000E+04  0.10000000000E+04  0.00000000000E+00 0.  1.
    9000005    2    1    2  501    0 -0.24084844514E+01 -0.36494231868E+02 -0.26230850559E+03  0.26486809653E+03  0.34244268285E+01 0.  0.
         13    1    3    3    0    0 -0.20154503886E+01 -0.32712971072E+02 -0.24167701259E+03  0.24388927597E+03  0.00000000000E+00 0.  1.
          1    1    3    3  501    0 -0.39303406281E+00 -0.37812607958E+01 -0.20631492996E+02  0.20978820563E+02  0.00000000000E+00 0.  1.
         -3    1    1    2    0  502  0.24084844514E+01  0.36494231868E+02 -0.73595759502E+03  0.73686580286E+03  0.00000000000E+00 0. -1.
<mgrwt>
<rscale>  1 0.30000000E+03</rscale>
<asrwt>0</asrwt>
<pdfrwt beam="1">  1       21 0.63051020E-02 0.30000000E+03</pdfrwt>
<pdfrwt beam="2">0</pdfrwt>
<totfact> 0.19342328E+04</totfact>
</mgrwt>
</event>
<event>
 6    1  0.6513574E-002  0.3000000E+03  0.7818608E-02  0.1093470E+00
         21   -1    0    0  501  502  0.00000000000E+00  0.00000000000E+00  0.40893346813E+01  0.40893346813E+01  0.00000000000E+00 0. -1.
         13   -1    0    0    0    0 -0.00000000000E+00 -0.00000000000E+00 -0.10000000000E+04  0.10000000000E+04  0.00000000000E+00 0.  1.
    9000005    2    1    2  501    0 -0.22074544593E+02  0.49632048935E+02 -0.24417924549E+03  0.25039791682E+03  0.11179759353E+02 0.  0.
         13    1    3    3    0    0 -0.15721422345E+02  0.44467282135E+02 -0.21323551156E+03  0.21838929849E+03  0.00000000000E+00 0.  1.
          1    1    3    3  501    0 -0.63531222475E+01  0.51647667995E+01 -0.30943733929E+02  0.32008618338E+02  0.00000000000E+00 0.  1.
         -1    1    1    2    0  502  0.22074544593E+02 -0.49632048935E+02 -0.75173141983E+03  0.75369141786E+03  0.00000000000E+00 0. -1.
<mgrwt>
<rscale>  1 0.30000000E+03</rscale>
<asrwt>0</asrwt>
<pdfrwt beam="1">  1       21 0.14870339E-01 0.30000000E+03</pdfrwt>
<pdfrwt beam="2">0</pdfrwt>
<totfact> 0.41847075E+03</totfact>
</mgrwt>
</event>
<event>
 6    1  0.6513574E-002  0.3000000E+03  0.7818608E-02  0.1093470E+00
         21   -1    0    0  501  502  0.00000000000E+00  0.00000000000E+00  0.24885386092E+01  0.24885386092E+01  0.00000000000E+00 0. -1.
         13   -1    0    0    0    0 -0.00000000000E+00 -0.00000000000E+00 -0.10000000000E+04  0.10000000000E+04  0.00000000000E+00 0.  1.
    9000005    2    1    2  501    0  0.30798904500E+02  0.32353894371E+02 -0.27784110880E+03  0.28143322631E+03  0.36921716701E+01 0.  0.
         13    1    3    3    0    0  0.65315926282E+01  0.48101006366E+01 -0.50944182114E+02  0.51585932788E+02  0.00000000000E+00 0.  1.
          1    1    3    3  501    0  0.24267311872E+02  0.27543793734E+02 -0.22689692668E+03  0.22984729352E+03  0.00000000000E+00 0.  1.
         -3    1    1    2    0  502 -0.30798904500E+02 -0.32353894371E+02 -0.71967035259E+03  0.72105531230E+03  0.00000000000E+00 0. -1.
<mgrwt>
<rscale>  1 0.30000000E+03</rscale>
<asrwt>0</asrwt>
<pdfrwt beam="1">  1       21 0.90492504E-02 0.30000000E+03</pdfrwt>
<pdfrwt beam="2">0</pdfrwt>
<totfact> 0.10278207E+04</totfact>
</mgrwt>
</event>
<event>
 6    1  0.6513574E-002  0.3000000E+03  0.7818608E-02  0.1093470E+00
         21   -1    0    0  501  502  0.00000000000E+00  0.00000000000E+00  0.29788448058E+01  0.29788448058E+01  0.00000000000E+00 0. -1.
         13   -1    0    0    0    0 -0.00000000000E+00 -0.00000000000E+00 -0.10000000000E+04  0.10000000000E+04  0.00000000000E+00 0.  1.
    9000005    2    1    2  501    0 -0.34524721175E+01 -0.42417056267E+02 -0.18590942781E+03  0.19075143790E+03  0.35594222612E+01 0.  0.
         13    1    3    3    0    0 -0.24576220175E+01 -0.39927742826E+02 -0.17266705376E+03  0.17724044687E+03  0.00000000000E+00 0.  1.
          1    1    3    3  501    0 -0.99485010002E+00 -0.24893134404E+01 -0.13242374045E+02  0.13510991025E+02  0.00000000000E+00 0.  1.
         -3    1    1    2    0  502  0.34524721175E+01  0.42417056267E+02 -0.81111172739E+03  0.81222740691E+03  0.00000000000E+00 0. -1.
<mgrwt>
<rscale>  1 0.30000000E+03</rscale>
<asrwt>0</asrwt>
<pdfrwt beam="1">  1       21 0.10832186E-01 0.30000000E+03</pdfrwt>
<pdfrwt beam="2">0</pdfrwt>
<totfact> 0.74552714E+03</totfact>
</mgrwt>
</event>
<event>
 6    1  0.6513574E-002  0.3000000E+03  0.7818608E-02  0.1093470E+00
         21   -1    0    0  501  502  0.00000000000E+00  0.00000000000E+00  0.12756968124E+01  0.12756968124E+01  0.00000000000E+00 0. -1.
         13   -1    0    0    0    0 -0.00000000000E+00 -0.00000000000E+00 -0.10000000000E+04  0.10000000000E+04  0.00000000000E+00 0.  1.
    9000005    2    1    2  501    0 -0.10285858265E+02 -0.30976878700E+02 -0.68294006520E+03  0.68380908305E+03  0.11061804016E+02 0.  0.
         13    1    3    3    0    0 -0.52941451482E+01 -0.26711247802E+02 -0.59581560026E+03  0.59643754765E+03  0.00000000000E+00 0.  1.
          1    1    3    3  501    0 -0.49917131165E+01 -0.42656308978E+01 -0.87124464941E+02  0.87371535400E+02  0.00000000000E+00 0.  1.
         -3    1    1    2    0  502  0.10285858265E+02  0.30976878700E+02 -0.31578423798E+03  0.31746661376E+03  0.00000000000E+00 0. -1.
<mgrwt>
<rscale>  1 0.30000000E+03</rscale>
<asrwt>0</asrwt>
<pdfrwt beam="1">  1       21 0.46389073E-02 0.30000000E+03</pdfrwt>
<pdfrwt beam="2">0</pdfrwt>
<totfact> 0.32724083E+04</totfact>
</mgrwt>
</event>
<event>
 6    1  0.6513574E-002  0.3000000E+03  0.7818608E-02  0.1093470E+00
         21   -1    0    0  501  502  0.00000000000E+00  0.00000000000E+00  0.20245739141E+01  0.20245739141E+01  0.00000000000E+00 0. -1.
         13   -1    0    0    0    0 -0.00000000000E+00 -0.00000000000E+00 -0.10000000000E+04  0.10000000000E+04  0.00000000000E+00 0.  1.
    9000005    2    1    2  501    0 -0.44361544612E+02  0.72440783018E+01 -0.51031253708E+03  0.51229452928E+03  0.25250566641E+01 0.  0.
         13    1    3    3    0    0 -0.34300741420E+02  0.45227429628E+01 -0.39208481197E+03  0.39360830256E+03  0.00000000000E+00 0.  1.
          3    1    3    3  501    0 -0.10060803192E+02  0.27213353390E+01 -0.11822772512E+03  0.11868622672E+03  0.00000000000E+00 0.  1.
         -3    1    1    2    0  502  0.44361544612E+02 -0.72440783018E+01 -0.48766288900E+03  0.48973004464E+03  0.00000000000E+00 0. -1.
<mgrwt>
<rscale>  1 0.30000000E+03</rscale>
<asrwt>0</asrwt>
<pdfrwt beam="1">  1       21 0.73621025E-02 0.30000000E+03</pdfrwt>
<pdfrwt beam="2">0</pdfrwt>
<totfact> 0.14776563E+04</totfact>
</mgrwt>
</event>
<event>
 6    1  0.6513574E-002  0.3000000E+03  0.7818608E-02  0.1093470E+00
         21   -1    0    0  501  502  0.00000000000E+00  0.00000000000E+00  0.11706062510E+01  0.11706062510E+01  0.00000000000E+00 0. -1.
         13   -1    0    0    0    0 -0.00000000000E+00 -0.00000000000E+00 -0.10000000000E+04  0.10000000000E+04  0.00000000000E+00 0.  1.
    9000005    2    1    2  501    0  0.17552433561E+02 -0.26627484233E+02 -0.67853406507E+03  0.67929142330E+03  0.33540236218E+01 0.  0.
         13    1    3    3    0    0  0.15812631197E+02 -0.23647935288E+02 -0.62421371825E+03  0.62486160884E+03  0.00000000000E+00 0.  1.
          3    1    3    3  501    0  0.17398023638E+01 -0.29795489451E+01 -0.54320346811E+02  0.54429814457E+02  0.00000000000E+00 0.  1.
         -3    1    1    2    0  502 -0.17552433561E+02  0.26627484233E+02 -0.32029532868E+03  0.32187918295E+03  0.00000000000E+00 0. -1.
<mgrwt>
<rscale>  1 0.30000000E+03</rscale>
<asrwt>0</asrwt>
<pdfrwt beam="1">  1       21 0.42567590E-02 0.30000000E+03</pdfrwt>
<pdfrwt beam="2">0</pdfrwt>
<totfact> 0.37858139E+04</totfact>
</mgrwt>
</event>
<event>
 6    1  0.6513574E-002  0.3000000E+03  0.7818608E-02  0.1093470E+00
         21   -1    0    0  501  502  0.00000000000E+00  0.00000000000E+00  0.17198119923E+01  0.17198119923E+01  0.00000000000E+00 0. -1.
         13   -1    0    0    0    0 -0.00000000000E+00 -0.00000000000E+00 -0.10000000000E+04  0.10000000000E+04  0.00000000000E+00 0.  1.
    9000005    2    1    2  501    0 -0.59202430037E+01 -0.30404802622E+02 -0.83174709949E+03  0.83233040597E+03  0.33415416130E+01 0.  0.
         13    1    3    3    0    0 -0.35993132632E+01 -0.23678948818E+02 -0.66648851428E+03  0.66691872619E+03  0.00000000000E+00 0.  1.
          1    1    3    3  501    0 -0.23209297405E+01 -0.67258538047E+01 -0.16525858521E+03  0.16541167978E+03  0.00000000000E+00 0.  1.
         -1    1    1    2    0  502  0.59202430037E+01  0.30404802622E+02 -0.16653308852E+03  0.16938940602E+03  0.00000000000E+00 0. -1.
<mgrwt>
<rscale>  1 0.30000000E+03</rscale>
<asrwt>0</asrwt>
<pdfrwt beam="1">  1       21 0.62538750E-02 0.30000000E+03</pdfrwt>
<pdfrwt beam="2">0</pdfrwt>
<totfact> 0.19616948E+04</totfact>
</mgrwt>
</event>
<event>
 6    1  0.6513574E-002  0.3000000E+03  0.7818608E-02  0.1093470E+00
         21   -1    0    0  501  502  0.00000000000E+00  0.00000000000E+00  0.12730158047E+01  0.12730158047E+01  0.00000000000E+00 0. -1.
         13   -1    0    0    0    0 -0.00000000000E+00 -0.00000000000E+00 -0.10000000000E+04  0.10000000000E+04  0.00000000000E+00 0.  1.
    9000005    2    1    2  501    0 -0.26101207104E+02  0.23023866498E+02 -0.39479112818E+03  0.39633509368E+03  0.31780739040E+01 0.  0.
         13    1    3    3    0    0 -0.12025540492E+02  0.98191342528E+01 -0.15953918428E+03  0.16029279567E+03  0.00000000000E+00 0.  1.
          1    1    3    3  501    0 -0.14075666611E+02  0.13204732245E+02 -0.23525194390E+03  0.23604229801E+03  0.00000000000E+00 0.  1.
         -1    1    1    2    0  502  0.26101207104E+02 -0.23023866498E+02 -0.60393585602E+03  0.60493792212E+03  0.00000000000E+00 0. -1.
<mgrwt>
<rscale>  1 0.30000000E+03</rscale>
<asrwt>0</asrwt>
<pdfrwt beam="1">  1       21 0.46291581E-02 0.30000000E+03</pdfrwt>
<pdfrwt beam="2">0</pdfrwt>
<totfact> 0.32841287E+04</totfact>
</mgrwt>
</event>
<event>
 6    1  0.6513574E-002  0.3000000E+03  0.7818608E-02  0.1093470E+00
         21   -1    0    0  501  502  0.00000000000E+00  0.00000000000E+00  0.17032718131E+01  0.17032718131E+01  0.00000000000E+00 0. -1.
         13   -1    0    0    0    0 -0.00000000000E+00 -0.00000000000E+00 -0.10000000000E+04  0.10000000000E+04  0.00000000000E+00 0.  1.
    9000005    2    1    2  501    0 -0.21605627715E+02  0.34394664563E+02 -0.41651179867E+03  0.41850219130E+03  0.34942226071E+01 0.  0.
         13    1    3    3    0    0 -0.33465716622E+01  0.69503083746E+01 -0.68632136755E+02  0.69064292685E+02  0.00000000000E+00 0.  1.
          1    1    3    3  501    0 -0.18259056052E+02  0.27444356189E+02 -0.34787966191E+03  0.34943789861E+03  0.00000000000E+00 0.  1.
         -3    1    1    2    0  502  0.21605627715E+02 -0.34394664563E+02 -0.58178492952E+03  0.58320108052E+03  0.00000000000E+00 0. -1.
<mgrwt>
<rscale>  1 0.30000000E+03</rscale>
<asrwt>0</asrwt>
<pdfrwt beam="1">  1       21 0.61937287E-02 0.30000000E+03</pdfrwt>
<pdfrwt beam="2">0</pdfrwt>
<totfact> 0.19947174E+04</totfact>
</mgrwt>
</event>
<event>
 6    1  0.6513574E-002  0.3000000E+03  0.7818608E-02  0.1093470E+00
         21   -1    0    0  501  502  0.00000000000E+00  0.00000000000E+00  0.13436089518E+01  0.13436089518E+01  0.00000000000E+00 0. -1.
         13   -1    0    0    0    0 -0.00000000000E+00 -0.00000000000E+00 -0.10000000000E+04  0.10000000000E+04  0.00000000000E+00 0.  1.
    9000005    2    1    2  501    0 -0.26330352669E+02 -0.24420916835E+02 -0.59389300315E+03  0.59499022969E+03  0.38478034049E+01 0.  0.
         13    1    3    3    0    0 -0.64627609200E+01 -0.82416293225E+01 -0.18191079424E+03  0.18221204349E+03  0.00000000000E+00 0.  1.
          3    1    3    3  501    0 -0.19867591749E+02 -0.16179287512E+02 -0.41198220891E+03  0.41277818620E+03  0.00000000000E+00 0.  1.
         -3    1    1    2    0  502  0.26330352669E+02  0.24420916835E+02 -0.40476338790E+03  0.40635337926E+03  0.00000000000E+00 0. -1.
<mgrwt>
<rscale>  1 0.30000000E+03</rscale>
<asrwt>0</asrwt>
<pdfrwt beam="1">  1       21 0.48858610E-02 0.30000000E+03</pdfrwt>
<pdfrwt beam="2">0</pdfrwt>
<totfact> 0.29960550E+04</totfact>
</mgrwt>
</event>
<event>
 6    1  0.6513574E-002  0.3000000E+03  0.7818608E-02  0.1093470E+00
         21   -1    0    0  501  502  0.00000000000E+00  0.00000000000E+00  0.25885250877E+01  0.25885250877E+01  0.00000000000E+00 0. -1.
         13   -1    0    0    0    0 -0.00000000000E+00 -0.00000000000E+00 -0.10000000000E+04  0.10000000000E+04  0.00000000000E+00 0.  1.
    9000005    2    1    2  501    0 -0.12176361607E+00  0.44609468296E+02 -0.73895413536E+03  0.74030963563E+03  0.38888236438E+01 0.  0.
         13    1    3    3    0    0  0.16510229419E+01  0.24002565348E+02 -0.41221591019E+03  0.41291743198E+03  0.00000000000E+00 0.  1.
          3    1    3    3  501    0 -0.17727865580E+01  0.20606902948E+02 -0.32673822517E+03  0.32739220365E+03  0.00000000000E+00 0.  1.
         -3    1    1    2    0  502  0.12176361607E+00 -0.44609468296E+02 -0.25845733955E+03  0.26227888946E+03  0.00000000000E+00 0. -1.
<mgrwt>
<rscale>  1 0.30000000E+03</rscale>
<asrwt>0</asrwt>
<pdfrwt beam="1">  1       21 0.94128383E-02 0.30000000E+03</pdfrwt>
<pdfrwt beam="2">0</pdfrwt>
<totfact> 0.95837183E+03</totfact>
</mgrwt>
</event>
<event>
 6    1  0.6513574E-002  0.3000000E+03  0.7818608E-02  0.1093470E+00
         21   -1    0    0  501  502  0.00000000000E+00  0.00000000000E+00  0.15169686983E+01  0.15169686983E+01  0.00000000000E+00 0. -1.
         13   -1    0    0    0    0 -0.00000000000E+00 -0.00000000000E+00 -0.10000000000E+04  0.10000000000E+04  0.00000000000E+00 0.  1.
    9000005    2    1    2  501    0  0.36172281024E+02 -0.14131066947E+02 -0.47472257566E+03  0.47631878148E+03  0.31522655356E+01 0.  0.
         13    1    3    3    0    0  0.27981638569E+02 -0.10082641983E+02 -0.37581189378E+03  0.37698701738E+03  0.00000000000E+00 0.  1.
          3    1    3    3  501    0  0.81906424551E+01 -0.40484249641E+01 -0.98910681884E+02  0.99331764100E+02  0.00000000000E+00 0.  1.
         -1    1    1    2    0  502 -0.36172281024E+02  0.14131066947E+02 -0.52376045564E+03  0.52519818722E+03  0.00000000000E+00 0. -1.
<mgrwt>
<rscale>  1 0.30000000E+03</rscale>
<asrwt>0</asrwt>
<pdfrwt beam="1">  1       21 0.55162614E-02 0.30000000E+03</pdfrwt>
<pdfrwt beam="2">0</pdfrwt>
<totfact> 0.24350556E+04</totfact>
</mgrwt>
</event>
<event>
 6    1  0.6513574E-002  0.3000000E+03  0.7818608E-02  0.1093470E+00
         21   -1    0    0  501  502  0.00000000000E+00  0.00000000000E+00  0.11037421679E+01  0.11037421679E+01  0.00000000000E+00 0. -1.
         13   -1    0    0    0    0 -0.00000000000E+00 -0.00000000000E+00 -0.10000000000E+04  0.10000000000E+04  0.00000000000E+00 0.  1.
    9000005    2    1    2  501    0 -0.18744076575E+00 -0.32678689422E+02 -0.41832837429E+03  0.41961685557E+03  0.34270792188E+01 0.  0.
         13    1    3    3    0    0 -0.41806529914E+00 -0.29392174618E+02 -0.36155892321E+03  0.36275188443E+03  0.00000000000E+00 0.  1.
          3    1    3    3  501    0  0.23062453339E+00 -0.32865148042E+01 -0.56769451077E+02  0.56864971141E+02  0.00000000000E+00 0.  1.
         -1    1    1    2    0  502  0.18744076575E+00  0.32678689422E+02 -0.58056788355E+03  0.58148688660E+03  0.00000000000E+00 0. -1.
<mgrwt>
<rscale>  1 0.30000000E+03</rscale>
<asrwt>0</asrwt>
<pdfrwt beam="1">  1       21 0.40136163E-02 0.30000000E+03</pdfrwt>
<pdfrwt beam="2">0</pdfrwt>
<totfact> 0.41807359E+04</totfact>
</mgrwt>
</event>
<event>
 6    1  0.6513574E-002  0.3000000E+03  0.7818608E-02  0.1093470E+00
         21   -1    0    0  501  502  0.00000000000E+00  0.00000000000E+00  0.16899031725E+01  0.16899031725E+01  0.00000000000E+00 0. -1.
         13   -1    0    0    0    0 -0.00000000000E+00 -0.00000000000E+00 -0.10000000000E+04  0.10000000000E+04  0.00000000000E+00 0.  1.
    9000005    2    1    2  501    0 -0.33726466010E+02 -0.10201473535E+02 -0.24423182506E+03  0.24678886030E+03  0.37433442578E+01 0.  0.
         13    1    3    3    0    0 -0.31643933157E+02 -0.10047155103E+02 -0.23423617888E+03  0.23657741085E+03  0.00000000000E+00 0.  1.
          3    1    3    3  501    0 -0.20825328536E+01 -0.15431843215E+00 -0.99956461824E+01  0.10211449450E+02  0.00000000000E+00 0.  1.
         -1    1    1    2    0  502  0.33726466010E+02  0.10201473535E+02 -0.75407827177E+03  0.75490104287E+03  0.00000000000E+00 0. -1.
<mgrwt>
<rscale>  1 0.30000000E+03</rscale>
<asrwt>0</asrwt>
<pdfrwt beam="1">  1       21 0.61451154E-02 0.30000000E+03</pdfrwt>
<pdfrwt beam="2">0</pdfrwt>
<totfact> 0.20220428E+04</totfact>
</mgrwt>
</event>
<event>
 6    1  0.6513574E-002  0.3000000E+03  0.7818608E-02  0.1093470E+00
         21   -1    0    0  501  502  0.00000000000E+00  0.00000000000E+00  0.12839489835E+01  0.12839489835E+01  0.00000000000E+00 0. -1.
         13   -1    0    0    0    0 -0.00000000000E+00 -0.00000000000E+00 -0.10000000000E+04  0.10000000000E+04  0.00000000000E+00 0.  1.
    9000005    2    1    2  501    0 -0.15569058070E+02  0.32077685297E+02 -0.48485707654E+03  0.48618937601E+03  0.47277060809E+01 0.  0.
         13    1    3    3    0    0 -0.15889406533E+02  0.30882064339E+02 -0.46865823380E+03  0.46994331067E+03  0.00000000000E+00 0.  1.
          3    1    3    3  501    0  0.32034846355E+00  0.11956209577E+01 -0.16198842747E+02  0.16246065338E+02  0.00000000000E+00 0.  1.
         -1    1    1    2    0  502  0.15569058070E+02 -0.32077685297E+02 -0.51385897447E+03  0.51509457297E+03  0.00000000000E+00 0. -1.
<mgrwt>
<rscale>  1 0.30000000E+03</rscale>
<asrwt>0</asrwt>
<pdfrwt beam="1">  1       21 0.46689152E-02 0.30000000E+03</pdfrwt>
<pdfrwt beam="2">0</pdfrwt>
<totfact> 0.32367415E+04</totfact>
</mgrwt>
</event>
<event>
 6    1  0.6513574E-002  0.3000000E+03  0.7818608E-02  0.1093470E+00
         21   -1    0    0  501  502  0.00000000000E+00  0.00000000000E+00  0.11602000466E+01  0.11602000466E+01  0.00000000000E+00 0. -1.
         13   -1    0    0    0    0 -0.00000000000E+00 -0.00000000000E+00 -0.10000000000E+04  0.10000000000E+04  0.00000000000E+00 0.  1.
    9000005    2    1    2  501    0 -0.19932833533E+02  0.27483715858E+02 -0.47612868197E+03  0.47734765213E+03  0.30962413913E+01 0.  0.
         13    1    3    3    0    0 -0.13505452691E+02  0.17377503477E+02 -0.28988187743E+03  0.29071614634E+03  0.00000000000E+00 0.  1.
          3    1    3    3  501    0 -0.64273808417E+01  0.10106212381E+02 -0.18624680454E+03  0.18663150579E+03  0.00000000000E+00 0.  1.
         -1    1    1    2    0  502  0.19932833533E+02 -0.27483715858E+02 -0.52271111799E+03  0.52381254792E+03  0.00000000000E+00 0. -1.
<mgrwt>
<rscale>  1 0.30000000E+03</rscale>
<asrwt>0</asrwt>
<pdfrwt beam="1">  1       21 0.42189182E-02 0.30000000E+03</pdfrwt>
<pdfrwt beam="2">0</pdfrwt>
<totfact> 0.38433631E+04</totfact>
</mgrwt>
</event>
<event>
 6    1  0.6513574E-002  0.3000000E+03  0.7818608E-02  0.1093470E+00
         21   -1    0    0  501  502  0.00000000000E+00  0.00000000000E+00  0.14846161653E+01  0.14846161653E+01  0.00000000000E+00 0. -1.
         13   -1    0    0    0    0 -0.00000000000E+00 -0.00000000000E+00 -0.10000000000E+04  0.10000000000E+04  0.00000000000E+00 0.  1.
    9000005    2    1    2  501    0  0.29848889215E+02 -0.12781096992E+02 -0.23145046808E+03  0.23373276980E+03  0.27158557670E+01 0.  0.
         13    1    3    3    0    0  0.27964713453E+02 -0.12583113138E+02 -0.21992727292E+03  0.22205487004E+03  0.00000000000E+00 0.  1.
          3    1    3    3  501    0  0.18841757618E+01 -0.19798385311E+00 -0.11523195164E+02  0.11677899755E+02  0.00000000000E+00 0.  1.
         -3    1    1    2    0  502 -0.29848889215E+02  0.12781096992E+02 -0.76706491575E+03  0.76775184637E+03  0.00000000000E+00 0. -1.
<mgrwt>
<rscale>  1 0.30000000E+03</rscale>
<asrwt>0</asrwt>
<pdfrwt beam="1">  1       21 0.53986156E-02 0.30000000E+03</pdfrwt>
<pdfrwt beam="2">0</pdfrwt>
<totfact> 0.25266982E+04</totfact>
</mgrwt>
</event>
<event>
 6    1  0.6513574E-002  0.3000000E+03  0.7818608E-02  0.1093470E+00
         21   -1    0    0  501  502  0.00000000000E+00  0.00000000000E+00  0.23125051924E+01  0.23125051924E+01  0.00000000000E+00 0. -1.
         13   -1    0    0    0    0 -0.00000000000E+00 -0.00000000000E+00 -0.10000000000E+04  0.10000000000E+04  0.00000000000E+00 0.  1.
    9000005    2    1    2  501    0 -0.47748818136E+02 -0.31778868252E+01 -0.54004212685E+03  0.54217194904E+03  0.38568071164E+01 0.  0.
         13    1    3    3    0    0 -0.37265066775E+02 -0.39206647819E+01 -0.42933926835E+03  0.43097130317E+03  0.00000000000E+00 0.  1.
          3    1    3    3  501    0 -0.10483751361E+02  0.74277795670E+00 -0.11070285850E+03  0.11120064587E+03  0.00000000000E+00 0.  1.
         -3    1    1    2    0  502  0.47748818136E+02  0.31778868252E+01 -0.45764536796E+03  0.46014055615E+03  0.00000000000E+00 0. -1.
<mgrwt>
<rscale>  1 0.30000000E+03</rscale>
<asrwt>0</asrwt>
<pdfrwt beam="1">  1       21 0.84091275E-02 0.30000000E+03</pdfrwt>
<pdfrwt beam="2">0</pdfrwt>
<totfact> 0.11700861E+04</totfact>
</mgrwt>
</event>
<event>
 6    1  0.6513574E-002  0.3000000E+03  0.7818608E-02  0.1093470E+00
         21   -1    0    0  501  502  0.00000000000E+00  0.00000000000E+00  0.11448584530E+01  0.11448584530E+01  0.00000000000E+00 0. -1.
         13   -1    0    0    0    0 -0.00000000000E+00 -0.00000000000E+00 -0.10000000000E+04  0.10000000000E+04  0.00000000000E+00 0.  1.
    9000005    2    1    2  501    0  0.32666006402E+02 -0.79436736473E+01 -0.54745112021E+03  0.54849072956E+03  0.30300937292E+01 0.  0.
         13    1    3    3    0    0  0.19227047918E+02 -0.37189503224E+01 -0.29916353578E+03  0.29980382103E+03  0.00000000000E+00 0.  1.
          1    1    3    3  501    0  0.13438958484E+02 -0.42247233249E+01 -0.24828758442E+03  0.24868690853E+03  0.00000000000E+00 0.  1.
         -1    1    1    2    0  502 -0.32666006402E+02  0.79436736473E+01 -0.45140402134E+03  0.45265412890E+03  0.00000000000E+00 0. -1.
<mgrwt>
<rscale>  1 0.30000000E+03</rscale>
<asrwt>0</asrwt>
<pdfrwt beam="1">  1       21 0.41631304E-02 0.30000000E+03</pdfrwt>
<pdfrwt beam="2">0</pdfrwt>
<totfact> 0.39307217E+04</totfact>
</mgrwt>
</event>
<event>
 6    1  0.6513574E-002  0.3000000E+03  0.7818608E-02  0.1093470E+00
         21   -1    0    0  501  502  0.00000000000E+00  0.00000000000E+00  0.31574647784E+01  0.31574647784E+01  0.00000000000E+00 0. -1.
         13   -1    0    0    0    0 -0.00000000000E+00 -0.00000000000E+00 -0.10000000000E+04  0.10000000000E+04  0.00000000000E+00 0.  1.
    9000005    2    1    2  501    0  0.45735476430E+02 -0.29434262944E+02 -0.62293104455E+03  0.62531105088E+03  0.35657326950E+01 0.  0.
         13    1    3    3    0    0  0.11325651095E+02 -0.55032314813E+01 -0.14392662981E+03  0.14447640187E+03  0.00000000000E+00 0.  1.
          3    1    3    3  501    0  0.34409825334E+02 -0.23931031463E+02 -0.47900441474E+03  0.48083464901E+03  0.00000000000E+00 0.  1.
         -3    1    1    2    0  502 -0.45735476430E+02  0.29434262944E+02 -0.37391149067E+03  0.37784641390E+03  0.00000000000E+00 0. -1.
<mgrwt>
<rscale>  1 0.30000000E+03</rscale>
<asrwt>0</asrwt>
<pdfrwt beam="1">  1       21 0.11481714E-01 0.30000000E+03</pdfrwt>
<pdfrwt beam="2">0</pdfrwt>
<totfact> 0.67128227E+03</totfact>
</mgrwt>
</event>
<event>
 6    1  0.6513574E-002  0.3000000E+03  0.7818608E-02  0.1093470E+00
         21   -1    0    0  501  502  0.00000000000E+00  0.00000000000E+00  0.36363737403E+01  0.36363737403E+01  0.00000000000E+00 0. -1.
         13   -1    0    0    0    0 -0.00000000000E+00 -0.00000000000E+00 -0.10000000000E+04  0.10000000000E+04  0.00000000000E+00 0.  1.
    9000005    2    1    2  501    0  0.37369647180E+02 -0.41762168407E+02 -0.68293706208E+03  0.68523916839E+03  0.30195852180E+01 0.  0.
         13    1    3    3    0    0  0.95490675768E+01 -0.94331790319E+01 -0.15170268906E+03  0.15229535590E+03  0.00000000000E+00 0.  1.
          1    1    3    3  501    0  0.27820579603E+02 -0.32328989375E+02 -0.53123437301E+03  0.53294381249E+03  0.00000000000E+00 0.  1.
         -1    1    1    2    0  502 -0.37369647180E+02  0.41762168407E+02 -0.31342656418E+03  0.31839720535E+03  0.00000000000E+00 0. -1.
<mgrwt>
<rscale>  1 0.30000000E+03</rscale>
<asrwt>0</asrwt>
<pdfrwt beam="1">  1       21 0.13223205E-01 0.30000000E+03</pdfrwt>
<pdfrwt beam="2">0</pdfrwt>
<totfact> 0.51924614E+03</totfact>
</mgrwt>
</event>
<event>
 6    1  0.6513574E-002  0.3000000E+03  0.7818608E-02  0.1093470E+00
         21   -1    0    0  501  502  0.00000000000E+00  0.00000000000E+00  0.15264470556E+01  0.15264470556E+01  0.00000000000E+00 0. -1.
         13   -1    0    0    0    0 -0.00000000000E+00 -0.00000000000E+00 -0.10000000000E+04  0.10000000000E+04  0.00000000000E+00 0.  1.
    9000005    2    1    2  501    0 -0.86486613269E+01  0.37302171746E+02 -0.59474857923E+03  0.59598963521E+03  0.33943223534E+01 0.  0.
         13    1    3    3    0    0 -0.30496052293E+01  0.98010467264E+01 -0.13992933225E+03  0.14030530508E+03  0.00000000000E+00 0.  1.
          1    1    3    3  501    0 -0.55990560976E+01  0.27501125019E+02 -0.45481924697E+03  0.45568433013E+03  0.00000000000E+00 0.  1.
         -3    1    1    2    0  502  0.86486613269E+01 -0.37302171746E+02 -0.40372497372E+03  0.40553681185E+03  0.00000000000E+00 0. -1.
<mgrwt>
<rscale>  1 0.30000000E+03</rscale>
<asrwt>0</asrwt>
<pdfrwt beam="1">  1       21 0.55507283E-02 0.30000000E+03</pdfrwt>
<pdfrwt beam="2">0</pdfrwt>
<totfact> 0.24091751E+04</totfact>
</mgrwt>
</event>
<event>
 6    1  0.6513574E-002  0.3000000E+03  0.7818608E-02  0.1093470E+00
         21   -1    0    0  501  502  0.00000000000E+00  0.00000000000E+00  0.41327190287E+01  0.41327190287E+01  0.00000000000E+00 0. -1.
         13   -1    0    0    0    0 -0.00000000000E+00 -0.00000000000E+00 -0.10000000000E+04  0.10000000000E+04  0.00000000000E+00 0.  1.
    9000005    2    1    2  501    0  0.54889927315E+02  0.68619176132E+01 -0.24304475734E+03  0.24928058641E+03  0.31727993860E+01 0.  0.
         13    1    3    3    0    0  0.35483101067E+02  0.58394107097E+01 -0.15508910002E+03  0.15920357447E+03  0.00000000000E+00 0.  1.
          1    1    3    3  501    0  0.19406826248E+02  0.10225069035E+01 -0.87955657328E+02  0.90077011948E+02  0.00000000000E+00 0.  1.
         -3    1    1    2    0  502 -0.54889927315E+02 -0.68619176132E+01 -0.75282252363E+03  0.75485213261E+03  0.00000000000E+00 0. -1.
<mgrwt>
<rscale>  1 0.30000000E+03</rscale>
<asrwt>0</asrwt>
<pdfrwt beam="1">  1       21 0.15028101E-01 0.30000000E+03</pdfrwt>
<pdfrwt beam="2">0</pdfrwt>
<totfact> 0.41037934E+03</totfact>
</mgrwt>
</event>
<event>
 6    1  0.6513574E-002  0.3000000E+03  0.7818608E-02  0.1093470E+00
         21   -1    0    0  501  502  0.00000000000E+00  0.00000000000E+00  0.10393100241E+01  0.10393100241E+01  0.00000000000E+00 0. -1.
         13   -1    0    0    0    0 -0.00000000000E+00 -0.00000000000E+00 -0.10000000000E+04  0.10000000000E+04  0.00000000000E+00 0.  1.
    9000005    2    1    2  501    0 -0.93248743155E+01 -0.30699638896E+02 -0.53386312785E+03  0.53483638918E+03  0.32715137998E+01 0.  0.
         13    1    3    3    0    0 -0.86163667968E+00 -0.31687266316E+01 -0.40291790262E+02  0.40425383223E+02  0.00000000000E+00 0.  1.
          3    1    3    3  501    0 -0.84632376359E+01 -0.27530912265E+02 -0.49357133759E+03  0.49441100596E+03  0.00000000000E+00 0.  1.
         -3    1    1    2    0  502  0.93248743155E+01  0.30699638896E+02 -0.46509756212E+03  0.46620292084E+03  0.00000000000E+00 0. -1.
<mgrwt>
<rscale>  1 0.30000000E+03</rscale>
<asrwt>0</asrwt>
<pdfrwt beam="1">  1       21 0.37793171E-02 0.30000000E+03</pdfrwt>
<pdfrwt beam="2">0</pdfrwt>
<totfact> 0.46258273E+04</totfact>
</mgrwt>
</event>
<event>
 6    1  0.6513574E-002  0.3000000E+03  0.7818608E-02  0.1093470E+00
         21   -1    0    0  501  502  0.00000000000E+00  0.00000000000E+00  0.42848614083E+01  0.42848614083E+01  0.00000000000E+00 0. -1.
         13   -1    0    0    0    0 -0.00000000000E+00 -0.00000000000E+00 -0.10000000000E+04  0.10000000000E+04  0.00000000000E+00 0.  1.
    9000005    2    1    2  501    0  0.46061701138E+02 -0.46435125680E+02 -0.51158361502E+03  0.51575519668E+03  0.27796639454E+01 0.  0.
         13    1    3    3    0    0  0.39363775054E+02 -0.39554103858E+02 -0.44387669675E+03  0.44737071410E+03  0.00000000000E+00 0.  1.
          1    1    3    3  501    0  0.66979260840E+01 -0.68810218216E+01 -0.67706918274E+02  0.68384482576E+02  0.00000000000E+00 0.  1.
         -3    1    1    2    0  502 -0.46061701138E+02  0.46435125680E+02 -0.48413152357E+03  0.48852966473E+03  0.00000000000E+00 0. -1.
<mgrwt>
<rscale>  1 0.30000000E+03</rscale>
<asrwt>0</asrwt>
<pdfrwt beam="1">  1       21 0.15581347E-01 0.30000000E+03</pdfrwt>
<pdfrwt beam="2">0</pdfrwt>
<totfact> 0.38375340E+03</totfact>
</mgrwt>
</event>
<event>
 6    1  0.6513574E-002  0.3000000E+03  0.7818608E-02  0.1093470E+00
         21   -1    0    0  501  502  0.00000000000E+00  0.00000000000E+00  0.36383796460E+01  0.36383796460E+01  0.00000000000E+00 0. -1.
         13   -1    0    0    0    0 -0.00000000000E+00 -0.00000000000E+00 -0.10000000000E+04  0.10000000000E+04  0.00000000000E+00 0.  1.
    9000005    2    1    2  501    0 -0.60163985126E+02  0.34547743183E+01 -0.49920652825E+03  0.50284418422E+03  0.36708555146E+01 0.  0.
         13    1    3    3    0    0 -0.45413100793E+02  0.17239536151E+01 -0.38686018699E+03  0.38952037946E+03  0.00000000000E+00 0.  1.
          3    1    3    3  501    0 -0.14750884333E+02  0.17308207032E+01 -0.11234634126E+03  0.11332380475E+03  0.00000000000E+00 0.  1.
         -1    1    1    2    0  502  0.60163985126E+02 -0.34547743183E+01 -0.49715509210E+03  0.50079419543E+03  0.00000000000E+00 0. -1.
<mgrwt>
<rscale>  1 0.30000000E+03</rscale>
<asrwt>0</asrwt>
<pdfrwt beam="1">  1       21 0.13230499E-01 0.30000000E+03</pdfrwt>
<pdfrwt beam="2">0</pdfrwt>
<totfact> 0.51872282E+03</totfact>
</mgrwt>
</event>
<event>
 6    1  0.6513574E-002  0.3000000E+03  0.7818608E-02  0.1093470E+00
         21   -1    0    0  501  502  0.00000000000E+00  0.00000000000E+00  0.15848559138E+01  0.15848559138E+01  0.00000000000E+00 0. -1.
         13   -1    0    0    0    0 -0.00000000000E+00 -0.00000000000E+00 -0.10000000000E+04  0.10000000000E+04  0.00000000000E+00 0.  1.
    9000005    2    1    2  501    0 -0.98951075807E+01  0.36276975052E+02 -0.66214054561E+03  0.66321444105E+03  0.30595109310E+01 0.  0.
         13    1    3    3    0    0 -0.43477236711E+01  0.17053489895E+02 -0.28365990947E+03  0.28420532800E+03  0.00000000000E+00 0.  1.
          3    1    3    3  501    0 -0.55473839096E+01  0.19223485157E+02 -0.37848063613E+03  0.37900911305E+03  0.00000000000E+00 0.  1.
         -1    1    1    2    0  502  0.98951075807E+01 -0.36276975052E+02 -0.33627459848E+03  0.33837041486E+03  0.00000000000E+00 0. -1.
<mgrwt>
<rscale>  1 0.30000000E+03</rscale>
<asrwt>0</asrwt>
<pdfrwt beam="1">  1       21 0.57631246E-02 0.30000000E+03</pdfrwt>
<pdfrwt beam="2">0</pdfrwt>
<totfact> 0.22586234E+04</totfact>
</mgrwt>
</event>
<event>
 6    1  0.6513574E-002  0.3000000E+03  0.7818608E-02  0.1093470E+00
         21   -1    0    0  501  502  0.00000000000E+00  0.00000000000E+00  0.12906530540E+01  0.12906530540E+01  0.00000000000E+00 0. -1.
         13   -1    0    0    0    0 -0.00000000000E+00 -0.00000000000E+00 -0.10000000000E+04  0.10000000000E+04  0.00000000000E+00 0.  1.
    9000005    2    1    2  501    0 -0.32234818479E+02 -0.14171244638E+02 -0.59297434042E+03  0.59403053566E+03  0.37149974726E+01 0.  0.
         13    1    3    3    0    0 -0.17075201205E+02 -0.84807853132E+01 -0.29322159948E+03  0.29384076064E+03  0.00000000000E+00 0.  1.
          1    1    3    3  501    0 -0.15159617274E+02 -0.56904593247E+01 -0.29975274094E+03  0.30018977502E+03  0.00000000000E+00 0.  1.
         -1    1    1    2    0  502  0.32234818479E+02  0.14171244638E+02 -0.40573500653E+03  0.40726011739E+03  0.00000000000E+00 0. -1.
<mgrwt>
<rscale>  1 0.30000000E+03</rscale>
<asrwt>0</asrwt>
<pdfrwt beam="1">  1       21 0.46932937E-02 0.30000000E+03</pdfrwt>
<pdfrwt beam="2">0</pdfrwt>
<totfact> 0.32082123E+04</totfact>
</mgrwt>
</event>
<event>
 6    1  0.6513574E-002  0.3000000E+03  0.7818608E-02  0.1093470E+00
         21   -1    0    0  501  502  0.00000000000E+00  0.00000000000E+00  0.16135404872E+01  0.16135404872E+01  0.00000000000E+00 0. -1.
         13   -1    0    0    0    0 -0.00000000000E+00 -0.00000000000E+00 -0.10000000000E+04  0.10000000000E+04  0.00000000000E+00 0.  1.
    9000005    2    1    2  501    0  0.16933053029E+01  0.38976598050E+02 -0.38301111373E+03  0.38500275670E+03  0.27508093132E+01 0.  0.
         13    1    3    3    0    0  0.16933002257E+01  0.20164419324E+02 -0.20934769988E+03  0.21032339508E+03  0.00000000000E+00 0.  1.
          1    1    3    3  501    0  0.50771727532E-05  0.18812178725E+02 -0.17366341384E+03  0.17467936162E+03  0.00000000000E+00 0.  1.
         -1    1    1    2    0  502 -0.16933053029E+01 -0.38976598050E+02 -0.61537534579E+03  0.61661078379E+03  0.00000000000E+00 0. -1.
<mgrwt>
<rscale>  1 0.30000000E+03</rscale>
<asrwt>0</asrwt>
<pdfrwt beam="1">  1       21 0.58674323E-02 0.30000000E+03</pdfrwt>
<pdfrwt beam="2">0</pdfrwt>
<totfact> 0.21899098E+04</totfact>
</mgrwt>
</event>
<event>
 6    1  0.6513574E-002  0.3000000E+03  0.7818608E-02  0.1093470E+00
         21   -1    0    0  501  502  0.00000000000E+00  0.00000000000E+00  0.27908782548E+01  0.27908782548E+01  0.00000000000E+00 0. -1.
         13   -1    0    0    0    0 -0.00000000000E+00 -0.00000000000E+00 -0.10000000000E+04  0.10000000000E+04  0.00000000000E+00 0.  1.
    9000005    2    1    2  501    0 -0.47949438071E+02 -0.15499009092E+02 -0.35157240494E+03  0.35519058642E+03  0.42224251120E+01 0.  0.
         13    1    3    3    0    0 -0.28172646350E+01 -0.17036476968E+01 -0.18382321758E+02  0.18674826604E+02  0.00000000000E+00 0.  1.
          3    1    3    3  501    0 -0.45132173436E+02 -0.13795361395E+02 -0.33319008318E+03  0.33651575982E+03  0.00000000000E+00 0.  1.
         -3    1    1    2    0  502  0.47949438071E+02  0.15499009092E+02 -0.64563671680E+03  0.64760029183E+03  0.00000000000E+00 0. -1.
<mgrwt>
<rscale>  1 0.30000000E+03</rscale>
<asrwt>0</asrwt>
<pdfrwt beam="1">  1       21 0.10148670E-01 0.30000000E+03</pdfrwt>
<pdfrwt beam="2">0</pdfrwt>
<totfact> 0.83792035E+03</totfact>
</mgrwt>
</event>
<event>
 6    1  0.6513574E-002  0.3000000E+03  0.7818608E-02  0.1093470E+00
         21   -1    0    0  501  502  0.00000000000E+00  0.00000000000E+00  0.14731942941E+01  0.14731942941E+01  0.00000000000E+00 0. -1.
         13   -1    0    0    0    0 -0.00000000000E+00 -0.00000000000E+00 -0.10000000000E+04  0.10000000000E+04  0.00000000000E+00 0.  1.
    9000005    2    1    2  501    0  0.31432571232E+02  0.20998905587E+01 -0.21644667872E+03  0.21875885234E+03  0.37221866617E+01 0.  0.
         13    1    3    3    0    0  0.71451588935E+01 -0.41965873004E+00 -0.40798429264E+02  0.41421506967E+02  0.00000000000E+00 0.  1.
          3    1    3    3  501    0  0.24287412338E+02  0.25195492887E+01 -0.17564824945E+03  0.17733734537E+03  0.00000000000E+00 0.  1.
         -3    1    1    2    0  502 -0.31432571232E+02 -0.20998905587E+01 -0.78208012699E+03  0.78271434196E+03  0.00000000000E+00 0. -1.
<mgrwt>
<rscale>  1 0.30000000E+03</rscale>
<asrwt>0</asrwt>
<pdfrwt beam="1">  1       21 0.53570815E-02 0.30000000E+03</pdfrwt>
<pdfrwt beam="2">0</pdfrwt>
<totfact> 0.25603277E+04</totfact>
</mgrwt>
</event>
<event>
 6    1  0.6513574E-002  0.3000000E+03  0.7818608E-02  0.1093470E+00
         21   -1    0    0  501  502  0.00000000000E+00  0.00000000000E+00  0.12361693126E+01  0.12361693126E+01  0.00000000000E+00 0. -1.
         13   -1    0    0    0    0 -0.00000000000E+00 -0.00000000000E+00 -0.10000000000E+04  0.10000000000E+04  0.00000000000E+00 0.  1.
    9000005    2    1    2  501    0  0.13270495168E+02 -0.32371387269E+02 -0.53799700620E+03  0.53914301929E+03  0.32254931724E+01 0.  0.
         13    1    3    3    0    0  0.30453944392E+01 -0.82732458824E+01 -0.15754813837E+03  0.15779460361E+03  0.00000000000E+00 0.  1.
          1    1    3    3  501    0  0.10225100728E+02 -0.24098141387E+02 -0.38044886783E+03  0.38134841567E+03  0.00000000000E+00 0.  1.
         -3    1    1    2    0  502 -0.13270495168E+02  0.32371387269E+02 -0.46076682448E+03  0.46209315003E+03  0.00000000000E+00 0. -1.
<mgrwt>
<rscale>  1 0.30000000E+03</rscale>
<asrwt>0</asrwt>
<pdfrwt beam="1">  1       21 0.44951706E-02 0.30000000E+03</pdfrwt>
<pdfrwt beam="2">0</pdfrwt>
<totfact> 0.34521029E+04</totfact>
</mgrwt>
</event>
<event>
 6    1  0.6513574E-002  0.3000000E+03  0.7818608E-02  0.1093470E+00
         21   -1    0    0  501  502  0.00000000000E+00  0.00000000000E+00  0.23457229422E+01  0.23457229422E+01  0.00000000000E+00 0. -1.
         13   -1    0    0    0    0 -0.00000000000E+00 -0.00000000000E+00 -0.10000000000E+04  0.10000000000E+04  0.00000000000E+00 0.  1.
    9000005    2    1    2  501    0  0.45569756731E+02 -0.78051036304E+01 -0.64668950303E+03  0.64834883739E+03  0.33733138704E+01 0.  0.
         13    1    3    3    0    0  0.10078667318E+02 -0.68297456822E+00 -0.12838877618E+03  0.12878557310E+03  0.00000000000E+00 0.  1.
          1    1    3    3  501    0  0.35491089414E+02 -0.71221290622E+01 -0.51830072685E+03  0.51956326430E+03  0.00000000000E+00 0.  1.
         -3    1    1    2    0  502 -0.45569756731E+02  0.78051036304E+01 -0.35096477403E+03  0.35399688555E+03  0.00000000000E+00 0. -1.
<mgrwt>
<rscale>  1 0.30000000E+03</rscale>
<asrwt>0</asrwt>
<pdfrwt beam="1">  1       21 0.85299196E-02 0.30000000E+03</pdfrwt>
<pdfrwt beam="2">0</pdfrwt>
<totfact> 0.11410334E+04</totfact>
</mgrwt>
</event>
<event>
 6    1  0.6513574E-002  0.3000000E+03  0.7818608E-02  0.1093470E+00
         21   -1    0    0  501  502  0.00000000000E+00  0.00000000000E+00  0.17772610792E+01  0.17772610792E+01  0.00000000000E+00 0. -1.
         13   -1    0    0    0    0 -0.00000000000E+00 -0.00000000000E+00 -0.10000000000E+04  0.10000000000E+04  0.00000000000E+00 0.  1.
    9000005    2    1    2  501    0 -0.27634621678E+02 -0.31164757520E+02 -0.47727978182E+03  0.47917178945E+03  0.86428722961E+01 0.  0.
         13    1    3    3    0    0 -0.50442566507E+01 -0.97616565661E+01 -0.15686350394E+03  0.15724787226E+03  0.00000000000E+00 0.  1.
          3    1    3    3  501    0 -0.22590365027E+02 -0.21403100954E+02 -0.32041627789E+03  0.32192391719E+03  0.00000000000E+00 0.  1.
         -1    1    1    2    0  502  0.27634621678E+02  0.31164757520E+02 -0.52094295710E+03  0.52260547163E+03  0.00000000000E+00 0. -1.
<mgrwt>
<rscale>  1 0.30000000E+03</rscale>
<asrwt>0</asrwt>
<pdfrwt beam="1">  1       21 0.64627812E-02 0.30000000E+03</pdfrwt>
<pdfrwt beam="2">0</pdfrwt>
<totfact> 0.18533368E+04</totfact>
</mgrwt>
</event>
<event>
 6    1  0.6513574E-002  0.3000000E+03  0.7818608E-02  0.1093470E+00
         21   -1    0    0  501  502  0.00000000000E+00  0.00000000000E+00  0.11904856618E+01  0.11904856618E+01  0.00000000000E+00 0. -1.
         13   -1    0    0    0    0 -0.00000000000E+00 -0.00000000000E+00 -0.10000000000E+04  0.10000000000E+04  0.00000000000E+00 0.  1.
    9000005    2    1    2  501    0  0.86933245118E+01 -0.31284013167E+02 -0.66684405180E+03  0.66764089162E+03  0.30178409178E+01 0.  0.
         13    1    3    3    0    0  0.39842799036E+00 -0.32036445824E+01 -0.52076362546E+02  0.52176331986E+02  0.00000000000E+00 0.  1.
          1    1    3    3  501    0  0.82948965215E+01 -0.28080368585E+02 -0.61476768926E+03  0.61546455963E+03  0.00000000000E+00 0.  1.
         -3    1    1    2    0  502 -0.86933245118E+01  0.31284013167E+02 -0.33196546254E+03  0.33354959405E+03  0.00000000000E+00 0. -1.
<mgrwt>
<rscale>  1 0.30000000E+03</rscale>
<asrwt>0</asrwt>
<pdfrwt beam="1">  1       21 0.43290479E-02 0.30000000E+03</pdfrwt>
<pdfrwt beam="2">0</pdfrwt>
<totfact> 0.36795291E+04</totfact>
</mgrwt>
</event>
<event>
 6    1  0.6513574E-002  0.3000000E+03  0.7818608E-02  0.1093470E+00
         21   -1    0    0  501  502  0.00000000000E+00  0.00000000000E+00  0.22048823561E+01  0.22048823561E+01  0.00000000000E+00 0. -1.
         13   -1    0    0    0    0 -0.00000000000E+00 -0.00000000000E+00 -0.10000000000E+04  0.10000000000E+04  0.00000000000E+00 0.  1.
    9000005    2    1    2  501    0 -0.17882251535E+02 -0.43358298974E+02 -0.49471354831E+03  0.49694179998E+03  0.31528835791E+01 0.  0.
         13    1    3    3    0    0 -0.98535007697E+00 -0.12991038064E+01 -0.21896495421E+02  0.21957119511E+02  0.00000000000E+00 0.  1.
          3    1    3    3  501    0 -0.16896901458E+02 -0.42059195168E+02 -0.47281705288E+03  0.47498468046E+03  0.00000000000E+00 0.  1.
         -1    1    1    2    0  502  0.17882251535E+02  0.43358298974E+02 -0.50308156934E+03  0.50526308238E+03  0.00000000000E+00 0. -1.
<mgrwt>
<rscale>  1 0.30000000E+03</rscale>
<asrwt>0</asrwt>
<pdfrwt beam="1">  1       21 0.80177709E-02 0.30000000E+03</pdfrwt>
<pdfrwt beam="2">0</pdfrwt>
<totfact> 0.12724177E+04</totfact>
</mgrwt>
</event>
<event>
 6    1  0.6513574E-002  0.3000000E+03  0.7818608E-02  0.1093470E+00
         21   -1    0    0  501  502  0.00000000000E+00  0.00000000000E+00  0.12588589804E+01  0.12588589804E+01  0.00000000000E+00 0. -1.
         13   -1    0    0    0    0 -0.00000000000E+00 -0.00000000000E+00 -0.10000000000E+04  0.10000000000E+04  0.00000000000E+00 0.  1.
    9000005    2    1    2  501    0  0.30115031441E+02  0.36982660067E+01 -0.74766429574E+03  0.74835537042E+03  0.10642792053E+02 0.  0.
         13    1    3    3    0    0  0.30067762797E+02  0.23321365406E+01 -0.73480663541E+03  0.73542525158E+03  0.00000000000E+00 0.  1.
          3    1    3    3  501    0  0.47268644770E-01  0.13661294661E+01 -0.12857660334E+02  0.12930118844E+02  0.00000000000E+00 0.  1.
         -1    1    1    2    0  502 -0.30115031441E+02 -0.36982660067E+01 -0.25107684528E+03  0.25290348856E+03  0.00000000000E+00 0. -1.
<mgrwt>
<rscale>  1 0.30000000E+03</rscale>
<asrwt>0</asrwt>
<pdfrwt beam="1">  1       21 0.45776787E-02 0.30000000E+03</pdfrwt>
<pdfrwt beam="2">0</pdfrwt>
<totfact> 0.33471237E+04</totfact>
</mgrwt>
</event>
<event>
 6    1  0.6513574E-002  0.3000000E+03  0.7818608E-02  0.1093470E+00
         21   -1    0    0  501  502  0.00000000000E+00  0.00000000000E+00  0.21701880659E+01  0.21701880659E+01  0.00000000000E+00 0. -1.
         13   -1    0    0    0    0 -0.00000000000E+00 -0.00000000000E+00 -0.10000000000E+04  0.10000000000E+04  0.00000000000E+00 0.  1.
    9000005    2    1    2  501    0 -0.35922927734E+02 -0.26968716244E+02 -0.36998744271E+03  0.37272296313E+03  0.37324368491E+01 0.  0.
         13    1    3    3    0    0 -0.25995861975E+02 -0.19157004302E+02 -0.25173114157E+03  0.25379389924E+03  0.00000000000E+00 0.  1.
          1    1    3    3  501    0 -0.99270657592E+01 -0.78117119421E+01 -0.11825630114E+03  0.11892906389E+03  0.00000000000E+00 0.  1.
         -1    1    1    2    0  502  0.35922927734E+02  0.26968716244E+02 -0.62784236922E+03  0.62944722494E+03  0.00000000000E+00 0. -1.
<mgrwt>
<rscale>  1 0.30000000E+03</rscale>
<asrwt>0</asrwt>
<pdfrwt beam="1">  1       21 0.78916096E-02 0.30000000E+03</pdfrwt>
<pdfrwt beam="2">0</pdfrwt>
<totfact> 0.13083515E+04</totfact>
</mgrwt>
</event>
<event>
 6    1  0.6513574E-002  0.3000000E+03  0.7818608E-02  0.1093470E+00
         21   -1    0    0  501  502  0.00000000000E+00  0.00000000000E+00  0.13592955855E+01  0.13592955855E+01  0.00000000000E+00 0. -1.
         13   -1    0    0    0    0 -0.00000000000E+00 -0.00000000000E+00 -0.10000000000E+04  0.10000000000E+04  0.00000000000E+00 0.  1.
    9000005    2    1    2  501    0  0.11920410365E+02 -0.31198749483E+02 -0.29170812087E+03  0.29363820940E+03  0.37831318296E+01 0.  0.
         13    1    3    3    0    0  0.29714371029E+01 -0.98187962658E+01 -0.76228802192E+02  0.76915983269E+02  0.00000000000E+00 0.  1.
          1    1    3    3  501    0  0.89489732617E+01 -0.21379953217E+02 -0.21547931868E+03  0.21672222613E+03  0.00000000000E+00 0.  1.
         -1    1    1    2    0  502 -0.11920410365E+02  0.31198749483E+02 -0.70693258354E+03  0.70772108618E+03  0.00000000000E+00 0. -1.
<mgrwt>
<rscale>  1 0.30000000E+03</rscale>
<asrwt>0</asrwt>
<pdfrwt beam="1">  1       21 0.49429035E-02 0.30000000E+03</pdfrwt>
<pdfrwt beam="2">0</pdfrwt>
<totfact> 0.29374012E+04</totfact>
</mgrwt>
</event>
<event>
 6    1  0.6513574E-002  0.3000000E+03  0.7818608E-02  0.1093470E+00
         21   -1    0    0  501  502  0.00000000000E+00  0.00000000000E+00  0.14203747800E+01  0.14203747800E+01  0.00000000000E+00 0. -1.
         13   -1    0    0    0    0 -0.00000000000E+00 -0.00000000000E+00 -0.10000000000E+04  0.10000000000E+04  0.00000000000E+00 0.  1.
    9000005    2    1    2  501    0  0.36285831433E+02  0.96963651612E+01 -0.52901473524E+03  0.53035576460E+03  0.31568790953E+01 0.  0.
         13    1    3    3    0    0  0.24652657417E+02  0.53765107404E+01 -0.36721357230E+03  0.36807943173E+03  0.00000000000E+00 0.  1.
          3    1    3    3  501    0  0.11633174016E+02  0.43198544208E+01 -0.16180116294E+03  0.16227633286E+03  0.00000000000E+00 0.  1.
         -3    1    1    2    0  502 -0.36285831433E+02 -0.96963651612E+01 -0.46956488998E+03  0.47106461018E+03  0.00000000000E+00 0. -1.
<mgrwt>
<rscale>  1 0.30000000E+03</rscale>
<asrwt>0</asrwt>
<pdfrwt beam="1">  1       21 0.51650101E-02 0.30000000E+03</pdfrwt>
<pdfrwt beam="2">0</pdfrwt>
<totfact> 0.27252343E+04</totfact>
</mgrwt>
</event>
<event>
 6    1  0.6513574E-002  0.3000000E+03  0.7818608E-02  0.1093470E+00
         21   -1    0    0  501  502  0.00000000000E+00  0.00000000000E+00  0.12935761465E+01  0.12935761465E+01  0.00000000000E+00 0. -1.
         13   -1    0    0    0    0 -0.00000000000E+00 -0.00000000000E+00 -0.10000000000E+04  0.10000000000E+04  0.00000000000E+00 0.  1.
    9000005    2    1    2  501    0 -0.16537467038E+02 -0.26860914993E+02 -0.73885943959E+03  0.73953901209E+03  0.31116508491E+01 0.  0.
         13    1    3    3    0    0 -0.55075301775E+01 -0.63494422746E+01 -0.19995552175E+03  0.20013210383E+03  0.00000000000E+00 0.  1.
          1    1    3    3  501    0 -0.11029936861E+02 -0.20511472718E+02 -0.53890391784E+03  0.53940690826E+03  0.00000000000E+00 0.  1.
         -3    1    1    2    0  502  0.16537467038E+02  0.26860914993E+02 -0.25984698427E+03  0.26175456405E+03  0.00000000000E+00 0. -1.
<mgrwt>
<rscale>  1 0.30000000E+03</rscale>
<asrwt>0</asrwt>
<pdfrwt beam="1">  1       21 0.47039232E-02 0.30000000E+03</pdfrwt>
<pdfrwt beam="2">0</pdfrwt>
<totfact> 0.31958963E+04</totfact>
</mgrwt>
</event>
<event>
 6    1  0.6513574E-002  0.3000000E+03  0.7818608E-02  0.1093470E+00
         21   -1    0    0  501  502  0.00000000000E+00  0.00000000000E+00  0.19451946589E+02  0.19451946589E+02  0.00000000000E+00 0. -1.
         13   -1    0    0    0    0 -0.00000000000E+00 -0.00000000000E+00 -0.10000000000E+04  0.10000000000E+04  0.00000000000E+00 0.  1.
    9000005    2    1    2  501    0 -0.13640240678E+03 -0.28179169327E+02 -0.46537558068E+03  0.48578317401E+03  0.33434870753E+01 0.  0.
         13    1    3    3    0    0 -0.55115857285E+02 -0.97131993113E+01 -0.18709221918E+03  0.19528339009E+03  0.00000000000E+00 0.  1.
          1    1    3    3  501    0 -0.81286549491E+02 -0.18465970016E+02 -0.27828336149E+03  0.29049978393E+03  0.00000000000E+00 0.  1.
         -1    1    1    2    0  502  0.13640240678E+03  0.28179169327E+02 -0.51517247274E+03  0.53366877258E+03  0.00000000000E+00 0. -1.
<mgrwt>
<rscale>  1 0.30000000E+03</rscale>
<asrwt>0</asrwt>
<pdfrwt beam="1">  1       21 0.70734500E-01 0.30000000E+03</pdfrwt>
<pdfrwt beam="2">0</pdfrwt>
<totfact> 0.17216769E+02</totfact>
</mgrwt>
</event>
<event>
 6    1  0.6513574E-002  0.3000000E+03  0.7818608E-02  0.1093470E+00
         21   -1    0    0  501  502  0.00000000000E+00  0.00000000000E+00  0.10848396502E+01  0.10848396502E+01  0.00000000000E+00 0. -1.
         13   -1    0    0    0    0 -0.00000000000E+00 -0.00000000000E+00 -0.10000000000E+04  0.10000000000E+04  0.00000000000E+00 0.  1.
    9000005    2    1    2  501    0 -0.19763477483E+02  0.25589527518E+02 -0.57885493275E+03  0.57978208180E+03  0.53675177473E+01 0.  0.
         13    1    3    3    0    0 -0.50922068376E+01  0.69901638436E+01 -0.20034024712E+03  0.20052682508E+03  0.00000000000E+00 0.  1.
          1    1    3    3  501    0 -0.14671270645E+02  0.18599363675E+02 -0.37851468564E+03  0.37925525672E+03  0.00000000000E+00 0.  1.
         -3    1    1    2    0  502  0.19763477483E+02 -0.25589527518E+02 -0.42006022760E+03  0.42130275785E+03  0.00000000000E+00 0. -1.
<mgrwt>
<rscale>  1 0.30000000E+03</rscale>
<asrwt>0</asrwt>
<pdfrwt beam="1">  1       21 0.39448798E-02 0.30000000E+03</pdfrwt>
<pdfrwt beam="2">0</pdfrwt>
<totfact> 0.43041086E+04</totfact>
</mgrwt>
</event>
<event>
 6    1  0.6513574E-002  0.3000000E+03  0.7818608E-02  0.1093470E+00
         21   -1    0    0  501  502  0.00000000000E+00  0.00000000000E+00  0.96086804899E+00  0.96086804899E+00  0.00000000000E+00 0. -1.
         13   -1    0    0    0    0 -0.00000000000E+00 -0.00000000000E+00 -0.10000000000E+04  0.10000000000E+04  0.00000000000E+00 0.  1.
    9000005    2    1    2  501    0 -0.47373808724E+01 -0.30328790643E+02 -0.49695938174E+03  0.49794361795E+03  0.60779309024E+01 0.  0.
         13    1    3    3    0    0  0.11870469093E+00 -0.18087393983E+01 -0.13751479202E+02  0.13870429310E+02  0.00000000000E+00 0.  1.
          3    1    3    3  501    0 -0.48560855633E+01 -0.28520051245E+02 -0.48320790254E+03  0.48407318864E+03  0.00000000000E+00 0.  1.
         -1    1    1    2    0  502  0.47373808724E+01  0.30328790643E+02 -0.50207975021E+03  0.50301725009E+03  0.00000000000E+00 0. -1.
<mgrwt>
<rscale>  1 0.30000000E+03</rscale>
<asrwt>0</asrwt>
<pdfrwt beam="1">  1       21 0.34940730E-02 0.30000000E+03</pdfrwt>
<pdfrwt beam="2">0</pdfrwt>
<totfact> 0.52766336E+04</totfact>
</mgrwt>
</event>
<event>
 6    1  0.6513574E-002  0.3000000E+03  0.7818608E-02  0.1093470E+00
         21   -1    0    0  501  502  0.00000000000E+00  0.00000000000E+00  0.15205298386E+01  0.15205298386E+01  0.00000000000E+00 0. -1.
         13   -1    0    0    0    0 -0.00000000000E+00 -0.00000000000E+00 -0.10000000000E+04  0.10000000000E+04  0.00000000000E+00 0.  1.
    9000005    2    1    2  501    0 -0.30859716345E+02 -0.44011337851E+01 -0.20090926104E+03  0.20334139547E+03  0.33911453159E+01 0.  0.
         13    1    3    3    0    0 -0.24650952325E+02 -0.25331177193E+01 -0.15260088901E+03  0.15459986243E+03  0.00000000000E+00 0.  1.
          1    1    3    3  501    0 -0.62087640203E+01 -0.18680160658E+01 -0.48308372036E+02  0.48741533044E+02  0.00000000000E+00 0.  1.
         -3    1    1    2    0  502  0.30859716345E+02  0.44011337851E+01 -0.79757020912E+03  0.79817913437E+03  0.00000000000E+00 0. -1.
<mgrwt>
<rscale>  1 0.30000000E+03</rscale>
<asrwt>0</asrwt>
<pdfrwt beam="1">  1       21 0.55292111E-02 0.30000000E+03</pdfrwt>
<pdfrwt beam="2">0</pdfrwt>
<totfact> 0.24252821E+04</totfact>
</mgrwt>
</event>
<event>
 6    1  0.6513574E-002  0.3000000E+03  0.7818608E-02  0.1093470E+00
         21   -1    0    0  501  502  0.00000000000E+00  0.00000000000E+00  0.10227440675E+01  0.10227440675E+01  0.00000000000E+00 0. -1.
         13   -1    0    0    0    0 -0.00000000000E+00 -0.00000000000E+00 -0.10000000000E+04  0.10000000000E+04  0.00000000000E+00 0.  1.
    9000005    2    1    2  501    0 -0.30843551329E+02  0.36166523729E+01 -0.61598693643E+03  0.61677544132E+03  0.27630300557E+01 0.  0.
         13    1    3    3    0    0 -0.23900523256E+02  0.19209601797E+01 -0.48908349656E+03  0.48967090143E+03  0.00000000000E+00 0.  1.
          1    1    3    3  501    0 -0.69430280729E+01  0.16956921933E+01 -0.12690343987E+03  0.12710453989E+03  0.00000000000E+00 0.  1.
         -1    1    1    2    0  502  0.30843551329E+02 -0.36166523729E+01 -0.38299031950E+03  0.38424730274E+03  0.00000000000E+00 0. -1.
<mgrwt>
<rscale>  1 0.30000000E+03</rscale>
<asrwt>0</asrwt>
<pdfrwt beam="1">  1       21 0.37190772E-02 0.30000000E+03</pdfrwt>
<pdfrwt beam="2">0</pdfrwt>
<totfact> 0.47523408E+04</totfact>
</mgrwt>
</event>
<event>
 6    1  0.6513574E-002  0.3000000E+03  0.7818608E-02  0.1093470E+00
         21   -1    0    0  501  502  0.00000000000E+00  0.00000000000E+00  0.12095768079E+01  0.12095768079E+01  0.00000000000E+00 0. -1.
         13   -1    0    0    0    0 -0.00000000000E+00 -0.00000000000E+00 -0.10000000000E+04  0.10000000000E+04  0.00000000000E+00 0.  1.
    9000005    2    1    2  501    0  0.34454287979E+02 -0.98760243453E+00 -0.44732106527E+03  0.44866408000E+03  0.39048593817E+01 0.  0.
         13    1    3    3    0    0  0.21301970970E+02 -0.24840255132E+01 -0.28043998440E+03  0.28125882955E+03  0.00000000000E+00 0.  1.
          3    1    3    3  501    0  0.13152317009E+02  0.14964230787E+01 -0.16688108087E+03  0.16740525045E+03  0.00000000000E+00 0.  1.
         -1    1    1    2    0  502 -0.34454287979E+02  0.98760243453E+00 -0.55146935792E+03  0.55254549681E+03  0.00000000000E+00 0. -1.
<mgrwt>
<rscale>  1 0.30000000E+03</rscale>
<asrwt>0</asrwt>
<pdfrwt beam="1">  1       21 0.43984704E-02 0.30000000E+03</pdfrwt>
<pdfrwt beam="2">0</pdfrwt>
<totfact> 0.35817494E+04</totfact>
</mgrwt>
</event>
<event>
 6    1  0.6513574E-002  0.3000000E+03  0.7818608E-02  0.1093470E+00
         21   -1    0    0  501  502  0.00000000000E+00  0.00000000000E+00  0.10279966473E+01  0.10279966473E+01  0.00000000000E+00 0. -1.
         13   -1    0    0    0    0 -0.00000000000E+00 -0.00000000000E+00 -0.10000000000E+04  0.10000000000E+04  0.00000000000E+00 0.  1.
    9000005    2    1    2  501    0 -0.25714675277E+02 -0.18552415311E+02 -0.56670842885E+03  0.56760299220E+03  0.30457816676E+01 0.  0.
         13    1    3    3    0    0 -0.22899798388E+02 -0.16843418243E+02 -0.52198354725E+03  0.52275704214E+03  0.00000000000E+00 0.  1.
          1    1    3    3  501    0 -0.28148768885E+01 -0.17089970681E+01 -0.44724881600E+02  0.44845950062E+02  0.00000000000E+00 0.  1.
         -1    1    1    2    0  502  0.25714675277E+02  0.18552415311E+02 -0.43226357450E+03  0.43342500445E+03  0.00000000000E+00 0. -1.
<mgrwt>
<rscale>  1 0.30000000E+03</rscale>
<asrwt>0</asrwt>
<pdfrwt beam="1">  1       21 0.37381775E-02 0.30000000E+03</pdfrwt>
<pdfrwt beam="2">0</pdfrwt>
<totfact> 0.47116436E+04</totfact>
</mgrwt>
</event>
<event>
 6    1  0.6513574E-002  0.3000000E+03  0.7818608E-02  0.1093470E+00
         21   -1    0    0  501  502  0.00000000000E+00  0.00000000000E+00  0.11370467445E+01  0.11370467445E+01  0.00000000000E+00 0. -1.
         13   -1    0    0    0    0 -0.00000000000E+00 -0.00000000000E+00 -0.10000000000E+04  0.10000000000E+04  0.00000000000E+00 0.  1.
    9000005    2    1    2  501    0  0.24670432230E+02  0.22787648852E+02 -0.48815008015E+03  0.48932111701E+03  0.40923883133E+01 0.  0.
         13    1    3    3    0    0  0.58587478917E+01  0.79042594930E+01 -0.13765271018E+03  0.13800387989E+03  0.00000000000E+00 0.  1.
          3    1    3    3  501    0  0.18811684338E+02  0.14883389359E+02 -0.35049736997E+03  0.35131723713E+03  0.00000000000E+00 0.  1.
         -3    1    1    2    0  502 -0.24670432230E+02 -0.22787648852E+02 -0.51071287311E+03  0.51181592973E+03  0.00000000000E+00 0. -1.
<mgrwt>
<rscale>  1 0.30000000E+03</rscale>
<asrwt>0</asrwt>
<pdfrwt beam="1">  1       21 0.41347242E-02 0.30000000E+03</pdfrwt>
<pdfrwt beam="2">0</pdfrwt>
<totfact> 0.39763968E+04</totfact>
</mgrwt>
</event>
<event>
 6    1  0.6513574E-002  0.3000000E+03  0.7818608E-02  0.1093470E+00
         21   -1    0    0  501  502  0.00000000000E+00  0.00000000000E+00  0.22744690297E+01  0.22744690297E+01  0.00000000000E+00 0. -1.
         13   -1    0    0    0    0 -0.00000000000E+00 -0.00000000000E+00 -0.10000000000E+04  0.10000000000E+04  0.00000000000E+00 0.  1.
    9000005    2    1    2  501    0 -0.26000931795E+02 -0.21066043586E+02 -0.85577991150E+03  0.85643762344E+03  0.25138136653E+01 0.  0.
         13    1    3    3    0    0 -0.24106038945E+02 -0.20246126094E+02 -0.80858478804E+03  0.80919735923E+03  0.00000000000E+00 0.  1.
          3    1    3    3  501    0 -0.18948928501E+01 -0.81991749193E+00 -0.47195123460E+02  0.47240264204E+02  0.00000000000E+00 0.  1.
         -1    1    1    2    0  502  0.26000931795E+02  0.21066043586E+02 -0.14194561947E+03  0.14583684559E+03  0.00000000000E+00 0. -1.
<mgrwt>
<rscale>  1 0.30000000E+03</rscale>
<asrwt>0</asrwt>
<pdfrwt beam="1">  1       21 0.82708139E-02 0.30000000E+03</pdfrwt>
<pdfrwt beam="2">0</pdfrwt>
<totfact> 0.12047637E+04</totfact>
</mgrwt>
</event>
<event>
 6    1  0.6513574E-002  0.3000000E+03  0.7818608E-02  0.1093470E+00
         21   -1    0    0  501  502  0.00000000000E+00  0.00000000000E+00  0.17551460346E+01  0.17551460346E+01  0.00000000000E+00 0. -1.
         13   -1    0    0    0    0 -0.00000000000E+00 -0.00000000000E+00 -0.10000000000E+04  0.10000000000E+04  0.00000000000E+00 0.  1.
    9000005    2    1    2  501    0 -0.14671216152E+02  0.39041388816E+02 -0.46484819655E+03  0.46673040944E+03  0.37355907094E+01 0.  0.
         13    1    3    3    0    0 -0.13844929740E+02  0.33889084990E+02 -0.39908404229E+03  0.40075956005E+03  0.00000000000E+00 0.  1.
          3    1    3    3  501    0 -0.82628641185E+00  0.51523038258E+01 -0.65764154262E+02  0.65970849394E+02  0.00000000000E+00 0.  1.
         -1    1    1    2    0  502  0.14671216152E+02 -0.39041388816E+02 -0.53339665741E+03  0.53502473659E+03  0.00000000000E+00 0. -1.
<mgrwt>
<rscale>  1 0.30000000E+03</rscale>
<asrwt>0</asrwt>
<pdfrwt beam="1">  1       21 0.63823627E-02 0.30000000E+03</pdfrwt>
<pdfrwt beam="2">0</pdfrwt>
<totfact> 0.18939267E+04</totfact>
</mgrwt>
</event>
<event>
 6    1  0.6513574E-002  0.3000000E+03  0.7818608E-02  0.1093470E+00
         21   -1    0    0  501  502  0.00000000000E+00  0.00000000000E+00  0.18832035847E+01  0.18832035847E+01  0.00000000000E+00 0. -1.
         13   -1    0    0    0    0 -0.00000000000E+00 -0.00000000000E+00 -0.10000000000E+04  0.10000000000E+04  0.00000000000E+00 0.  1.
    9000005    2    1    2  501    0 -0.10464352009E+02 -0.33867768300E+02 -0.78733209135E+03  0.78813868253E+03  0.37725897925E+01 0.  0.
         13    1    3    3    0    0 -0.32949680393E+01 -0.60990303256E+01 -0.13967354764E+03  0.13984546791E+03  0.00000000000E+00 0.  1.
          3    1    3    3  501    0 -0.71693839695E+01 -0.27768737974E+02 -0.64765854371E+03  0.64829321462E+03  0.00000000000E+00 0.  1.
         -3    1    1    2    0  502  0.10464352009E+02  0.33867768300E+02 -0.21078470507E+03  0.21374452106E+03  0.00000000000E+00 0. -1.
<mgrwt>
<rscale>  1 0.30000000E+03</rscale>
<asrwt>0</asrwt>
<pdfrwt beam="1">  1       21 0.68480275E-02 0.30000000E+03</pdfrwt>
<pdfrwt beam="2">0</pdfrwt>
<totfact> 0.16763017E+04</totfact>
</mgrwt>
</event>
<event>
 6    1  0.6513574E-002  0.3000000E+03  0.7818608E-02  0.1093470E+00
         21   -1    0    0  501  502  0.00000000000E+00  0.00000000000E+00  0.37426430373E+01  0.37426430373E+01  0.00000000000E+00 0. -1.
         13   -1    0    0    0    0 -0.00000000000E+00 -0.00000000000E+00 -0.10000000000E+04  0.10000000000E+04  0.00000000000E+00 0.  1.
    9000005    2    1    2  501    0  0.36204123340E+02  0.49072581016E+02 -0.49585419600E+03  0.49963731649E+03  0.68707773708E+01 0.  0.
         13    1    3    3    0    0  0.10332541948E+02  0.18729541915E+02 -0.18712892862E+03  0.18834753275E+03  0.00000000000E+00 0.  1.
          1    1    3    3  501    0  0.25871581393E+02  0.30343039101E+02 -0.30872526737E+03  0.31128978374E+03  0.00000000000E+00 0.  1.
         -1    1    1    2    0  502 -0.36204123340E+02 -0.49072581016E+02 -0.50040316096E+03  0.50410532655E+03  0.00000000000E+00 0. -1.
<mgrwt>
<rscale>  1 0.30000000E+03</rscale>
<asrwt>0</asrwt>
<pdfrwt beam="1">  1       21 0.13609640E-01 0.30000000E+03</pdfrwt>
<pdfrwt beam="2">0</pdfrwt>
<totfact> 0.49257627E+03</totfact>
</mgrwt>
</event>
<event>
 6    1  0.6513574E-002  0.3000000E+03  0.7818608E-02  0.1093470E+00
         21   -1    0    0  501  502  0.00000000000E+00  0.00000000000E+00  0.17353892925E+01  0.17353892925E+01  0.00000000000E+00 0. -1.
         13   -1    0    0    0    0 -0.00000000000E+00 -0.00000000000E+00 -0.10000000000E+04  0.10000000000E+04  0.00000000000E+00 0.  1.
    9000005    2    1    2  501    0 -0.87469094648E+01  0.39771816811E+02 -0.39687667394E+03  0.39897029713E+03  0.28103092999E+01 0.  0.
         13    1    3    3    0    0 -0.16430326864E+01  0.80120683285E+01 -0.91224774528E+02  0.91590677927E+02  0.00000000000E+00 0.  1.
          3    1    3    3  501    0 -0.71038767784E+01  0.31759748482E+02 -0.30565189941E+03  0.30737961920E+03  0.00000000000E+00 0.  1.
         -3    1    1    2    0  502  0.87469094648E+01 -0.39771816811E+02 -0.60138793677E+03  0.60276509216E+03  0.00000000000E+00 0. -1.
<mgrwt>
<rscale>  1 0.30000000E+03</rscale>
<asrwt>0</asrwt>
<pdfrwt beam="1">  1       21 0.63105198E-02 0.30000000E+03</pdfrwt>
<pdfrwt beam="2">0</pdfrwt>
<totfact> 0.19313633E+04</totfact>
</mgrwt>
</event>
<event>
 6    1  0.6513574E-002  0.3000000E+03  0.7818608E-02  0.1093470E+00
         21   -1    0    0  501  502  0.00000000000E+00  0.00000000000E+00  0.37612338050E+01  0.37612338050E+01  0.00000000000E+00 0. -1.
         13   -1    0    0    0    0 -0.00000000000E+00 -0.00000000000E+00 -0.10000000000E+04  0.10000000000E+04  0.00000000000E+00 0.  1.
    9000005    2    1    2  501    0 -0.51689421787E+02 -0.60983744112E+01 -0.76323343631E+03  0.76501352125E+03  0.33797780064E+01 0.  0.
         13    1    3    3    0    0 -0.18331671449E+02 -0.11586359068E+01 -0.28805916867E+03  0.28864420533E+03  0.00000000000E+00 0.  1.
          1    1    3    3  501    0 -0.33357750338E+02 -0.49397385044E+01 -0.47517426765E+03  0.47636931593E+03  0.00000000000E+00 0.  1.
         -3    1    1    2    0  502  0.51689421787E+02  0.60983744112E+01 -0.23300532988E+03  0.23874771255E+03  0.00000000000E+00 0. -1.
<mgrwt>
<rscale>  1 0.30000000E+03</rscale>
<asrwt>0</asrwt>
<pdfrwt beam="1">  1       21 0.13677243E-01 0.30000000E+03</pdfrwt>
<pdfrwt beam="2">0</pdfrwt>
<totfact> 0.48812250E+03</totfact>
</mgrwt>
</event>
<event>
 6    1  0.6513574E-002  0.3000000E+03  0.7818608E-02  0.1093470E+00
         21   -1    0    0  501  502  0.00000000000E+00  0.00000000000E+00  0.12286315391E+01  0.12286315391E+01  0.00000000000E+00 0. -1.
         13   -1    0    0    0    0 -0.00000000000E+00 -0.00000000000E+00 -0.10000000000E+04  0.10000000000E+04  0.00000000000E+00 0.  1.
    9000005    2    1    2  501    0 -0.26017677047E+02  0.21877460876E+02 -0.38133663104E+03  0.38285884105E+03  0.27790619502E+01 0.  0.
         13    1    3    3    0    0 -0.18833715784E+02  0.16196491458E+02 -0.26455460487E+03  0.26571822320E+03  0.00000000000E+00 0.  1.
          3    1    3    3  501    0 -0.71839612633E+01  0.56809694175E+01 -0.11678202617E+03  0.11714061785E+03  0.00000000000E+00 0.  1.
         -3    1    1    2    0  502  0.26017677047E+02 -0.21877460876E+02 -0.61743473742E+03  0.61836979049E+03  0.00000000000E+00 0. -1.
<mgrwt>
<rscale>  1 0.30000000E+03</rscale>
<asrwt>0</asrwt>
<pdfrwt beam="1">  1       21 0.44677605E-02 0.30000000E+03</pdfrwt>
<pdfrwt beam="2">0</pdfrwt>
<totfact> 0.34881065E+04</totfact>
</mgrwt>
</event>
<event>
 6    1  0.6513574E-002  0.3000000E+03  0.7818608E-02  0.1093470E+00
         21   -1    0    0  501  502  0.00000000000E+00  0.00000000000E+00  0.13156039429E+01  0.13156039429E+01  0.00000000000E+00 0. -1.
         13   -1    0    0    0    0 -0.00000000000E+00 -0.00000000000E+00 -0.10000000000E+04  0.10000000000E+04  0.00000000000E+00 0.  1.
    9000005    2    1    2  501    0 -0.28686229225E+02  0.16595764799E+02 -0.70027398567E+03  0.70107055039E+03  0.42358540460E+01 0.  0.
         13    1    3    3    0    0 -0.22679588185E+02  0.14081733504E+02 -0.52960830989E+03  0.53028070005E+03  0.00000000000E+00 0.  1.
          1    1    3    3  501    0 -0.60066410402E+01  0.25140312947E+01 -0.17066567578E+03  0.17078985034E+03  0.00000000000E+00 0.  1.
         -3    1    1    2    0  502  0.28686229225E+02 -0.16595764799E+02 -0.29841041039E+03  0.30024505356E+03  0.00000000000E+00 0. -1.
<mgrwt>
<rscale>  1 0.30000000E+03</rscale>
<asrwt>0</asrwt>
<pdfrwt beam="1">  1       21 0.47840244E-02 0.30000000E+03</pdfrwt>
<pdfrwt beam="2">0</pdfrwt>
<totfact> 0.31054196E+04</totfact>
</mgrwt>
</event>
<event>
 6    1  0.6513574E-002  0.3000000E+03  0.7818608E-02  0.1093470E+00
         21   -1    0    0  501  502  0.00000000000E+00  0.00000000000E+00  0.99370012629E+00  0.99370012629E+00  0.00000000000E+00 0. -1.
         13   -1    0    0    0    0 -0.00000000000E+00 -0.00000000000E+00 -0.10000000000E+04  0.10000000000E+04  0.00000000000E+00 0.  1.
    9000005    2    1    2  501    0  0.23159685243E+02  0.20843927057E+02 -0.42885814371E+03  0.42999478568E+03  0.23168890022E+01 0.  0.
         13    1    3    3    0    0  0.21540196397E+01  0.23436082652E+01 -0.53307741144E+02  0.53402692499E+02  0.00000000000E+00 0.  1.
          1    1    3    3  501    0  0.21005665603E+02  0.18500318792E+02 -0.37555040256E+03  0.37659209318E+03  0.00000000000E+00 0.  1.
         -3    1    1    2    0  502 -0.23159685243E+02 -0.20843927057E+02 -0.57014815617E+03  0.57099891444E+03  0.00000000000E+00 0. -1.
<mgrwt>
<rscale>  1 0.30000000E+03</rscale>
<asrwt>0</asrwt>
<pdfrwt beam="1">  1       21 0.36134626E-02 0.30000000E+03</pdfrwt>
<pdfrwt beam="2">0</pdfrwt>
<totfact> 0.49877110E+04</totfact>
</mgrwt>
</event>
<event>
 6    1  0.6513574E-002  0.3000000E+03  0.7818608E-02  0.1093470E+00
         21   -1    0    0  501  502  0.00000000000E+00  0.00000000000E+00  0.14669030282E+01  0.14669030282E+01  0.00000000000E+00 0. -1.
         13   -1    0    0    0    0 -0.00000000000E+00 -0.00000000000E+00 -0.10000000000E+04  0.10000000000E+04  0.00000000000E+00 0.  1.
    9000005    2    1    2  501    0 -0.24197939365E+02 -0.26963278079E+02 -0.33992846896E+03  0.34186655837E+03  0.29700316669E+01 0.  0.
         13    1    3    3    0    0 -0.12050903070E+02 -0.11761703097E+02 -0.14854415732E+03  0.14949558053E+03  0.00000000000E+00 0.  1.
          3    1    3    3  501    0 -0.12147036295E+02 -0.15201574982E+02 -0.19138431164E+03  0.19237097784E+03  0.00000000000E+00 0.  1.
         -1    1    1    2    0  502  0.24197939365E+02  0.26963278079E+02 -0.65860462801E+03  0.65960034465E+03  0.00000000000E+00 0. -1.
<mgrwt>
<rscale>  1 0.30000000E+03</rscale>
<asrwt>0</asrwt>
<pdfrwt beam="1">  1       21 0.53342041E-02 0.30000000E+03</pdfrwt>
<pdfrwt beam="2">0</pdfrwt>
<totfact> 0.25791474E+04</totfact>
</mgrwt>
</event>
<event>
 6    1  0.6513574E-002  0.3000000E+03  0.7818608E-02  0.1093470E+00
         21   -1    0    0  501  502  0.00000000000E+00  0.00000000000E+00  0.11514074007E+01  0.11514074007E+01  0.00000000000E+00 0. -1.
         13   -1    0    0    0    0 -0.00000000000E+00 -0.00000000000E+00 -0.10000000000E+04  0.10000000000E+04  0.00000000000E+00 0.  1.
    9000005    2    1    2  501    0 -0.12329535274E+02  0.28928411303E+02 -0.32414786298E+03  0.32571825381E+03  0.56279099155E+01 0.  0.
         13    1    3    3    0    0 -0.70132844199E+01  0.13703640288E+02 -0.13191797916E+03  0.13281313617E+03  0.00000000000E+00 0.  1.
          3    1    3    3  501    0 -0.53162508542E+01  0.15224771014E+02 -0.19222988383E+03  0.19290511764E+03  0.00000000000E+00 0.  1.
         -1    1    1    2    0  502  0.12329535274E+02 -0.28928411303E+02 -0.67470072962E+03  0.67543315359E+03  0.00000000000E+00 0. -1.
<mgrwt>
<rscale>  1 0.30000000E+03</rscale>
<asrwt>0</asrwt>
<pdfrwt beam="1">  1       21 0.41869448E-02 0.30000000E+03</pdfrwt>
<pdfrwt beam="2">0</pdfrwt>
<totfact> 0.38930563E+04</totfact>
</mgrwt>
</event>
<event>
 6    1  0.6513574E-002  0.3000000E+03  0.7818608E-02  0.1093470E+00
         21   -1    0    0  501  502  0.00000000000E+00  0.00000000000E+00  0.10047975022E+01  0.10047975022E+01  0.00000000000E+00 0. -1.
         13   -1    0    0    0    0 -0.00000000000E+00 -0.00000000000E+00 -0.10000000000E+04  0.10000000000E+04  0.00000000000E+00 0.  1.
    9000005    2    1    2  501    0 -0.29259419356E+02  0.11238684437E+02 -0.43426000119E+03  0.43540045766E+03  0.30640252185E+01 0.  0.
         13    1    3    3    0    0 -0.13870145988E+02  0.54089078338E+01 -0.18523544435E+03  0.18583273951E+03  0.00000000000E+00 0.  1.
          1    1    3    3  501    0 -0.15389273368E+02  0.58297766034E+01 -0.24902455684E+03  0.24956771815E+03  0.00000000000E+00 0.  1.
         -3    1    1    2    0  502  0.29259419356E+02 -0.11238684437E+02 -0.56473520131E+03  0.56560433984E+03  0.00000000000E+00 0. -1.
<mgrwt>
<rscale>  1 0.30000000E+03</rscale>
<asrwt>0</asrwt>
<pdfrwt beam="1">  1       21 0.36538168E-02 0.30000000E+03</pdfrwt>
<pdfrwt beam="2">0</pdfrwt>
<totfact> 0.48956532E+04</totfact>
</mgrwt>
</event>
<event>
 6    1  0.6513574E-002  0.3000000E+03  0.7818608E-02  0.1093470E+00
         21   -1    0    0  501  502  0.00000000000E+00  0.00000000000E+00  0.29446221418E+02  0.29446221418E+02  0.00000000000E+00 0. -1.
         13   -1    0    0    0    0 -0.00000000000E+00 -0.00000000000E+00 -0.10000000000E+04  0.10000000000E+04  0.00000000000E+00 0.  1.
    9000005    2    1    2  501    0  0.35516625734E+02  0.48892963992E+02 -0.36760896475E+01  0.60681844497E+02  0.41012175052E+01 0.  0.
         13    1    3    3    0    0  0.19016948303E+02  0.23247993630E+02 -0.70983194902E+00  0.30043591529E+02  0.00000000000E+00 0.  1.
          3    1    3    3  501    0  0.16499677431E+02  0.25644970361E+02 -0.29662576985E+01  0.30638252968E+02  0.00000000000E+00 0.  1.
         -3    1    1    2    0  502 -0.35516625734E+02 -0.48892963992E+02 -0.96687768893E+03  0.96876437692E+03  0.00000000000E+00 0. -1.
<mgrwt>
<rscale>  1 0.30000000E+03</rscale>
<asrwt>0</asrwt>
<pdfrwt beam="1">  1       21 0.10707739E+00 0.30000000E+03</pdfrwt>
<pdfrwt beam="2">0</pdfrwt>
<totfact> 0.61672390E+01</totfact>
</mgrwt>
</event>
<event>
 6    1  0.6513574E-002  0.3000000E+03  0.7818608E-02  0.1093470E+00
         21   -1    0    0  501  502  0.00000000000E+00  0.00000000000E+00  0.10197981183E+01  0.10197981183E+01  0.00000000000E+00 0. -1.
         13   -1    0    0    0    0 -0.00000000000E+00 -0.00000000000E+00 -0.10000000000E+04  0.10000000000E+04  0.00000000000E+00 0.  1.
    9000005    2    1    2  501    0 -0.18018898990E+02  0.25518521380E+02 -0.43888018180E+03  0.44004929253E+03  0.71895909059E+01 0.  0.
         13    1    3    3    0    0 -0.39489730786E+01  0.92493472118E+01 -0.10647005762E+03  0.10694399461E+03  0.00000000000E+00 0.  1.
          3    1    3    3  501    0 -0.14069925911E+02  0.16269174169E+02 -0.33241012418E+03  0.33310529792E+03  0.00000000000E+00 0.  1.
         -3    1    1    2    0  502  0.18018898990E+02 -0.25518521380E+02 -0.56010002008E+03  0.56097050559E+03  0.00000000000E+00 0. -1.
<mgrwt>
<rscale>  1 0.30000000E+03</rscale>
<asrwt>0</asrwt>
<pdfrwt beam="1">  1       21 0.37083646E-02 0.30000000E+03</pdfrwt>
<pdfrwt beam="2">0</pdfrwt>
<totfact> 0.47754089E+04</totfact>
</mgrwt>
</event>
<event>
 6    1  0.6513574E-002  0.3000000E+03  0.7818608E-02  0.1093470E+00
         21   -1    0    0  501  502  0.00000000000E+00  0.00000000000E+00  0.10842510914E+01  0.10842510914E+01  0.00000000000E+00 0. -1.
         13   -1    0    0    0    0 -0.00000000000E+00 -0.00000000000E+00 -0.10000000000E+04  0.10000000000E+04  0.00000000000E+00 0.  1.
    9000005    2    1    2  501    0  0.14254017008E+02  0.27317013472E+02 -0.33992123101E+03  0.34136978949E+03  0.61232066015E+01 0.  0.
         13    1    3    3    0    0  0.76493328553E+01  0.14061713344E+02 -0.20942747493E+03  0.21003835681E+03  0.00000000000E+00 0.  1.
          1    1    3    3  501    0  0.66046841523E+01  0.13255300128E+02 -0.13049375608E+03  0.13133143268E+03  0.00000000000E+00 0.  1.
         -3    1    1    2    0  502 -0.14254017008E+02 -0.27317013472E+02 -0.65899451790E+03  0.65971446160E+03  0.00000000000E+00 0. -1.
<mgrwt>
<rscale>  1 0.30000000E+03</rscale>
<asrwt>0</asrwt>
<pdfrwt beam="1">  1       21 0.39427396E-02 0.30000000E+03</pdfrwt>
<pdfrwt beam="2">0</pdfrwt>
<totfact> 0.43080411E+04</totfact>
</mgrwt>
</event>
<event>
 6    1  0.6513574E-002  0.3000000E+03  0.7818608E-02  0.1093470E+00
         21   -1    0    0  501  502  0.00000000000E+00  0.00000000000E+00  0.31293581901E+01  0.31293581901E+01  0.00000000000E+00 0. -1.
         13   -1    0    0    0    0 -0.00000000000E+00 -0.00000000000E+00 -0.10000000000E+04  0.10000000000E+04  0.00000000000E+00 0.  1.
    9000005    2    1    2  501    0  0.46156663715E+02 -0.28986486792E+02 -0.38768847810E+03  0.39151382323E+03  0.31723346299E+01 0.  0.
         13    1    3    3    0    0  0.14496181489E+02 -0.76194984285E+01 -0.12164464720E+03  0.12274207195E+03  0.00000000000E+00 0.  1.
          1    1    3    3  501    0  0.31660482226E+02 -0.21366988364E+02 -0.26604383090E+03  0.26877175128E+03  0.00000000000E+00 0.  1.
         -3    1    1    2    0  502 -0.46156663715E+02  0.28986486792E+02 -0.60918216371E+03  0.61161553496E+03  0.00000000000E+00 0. -1.
<mgrwt>
<rscale>  1 0.30000000E+03</rscale>
<asrwt>0</asrwt>
<pdfrwt beam="1">  1       21 0.11379508E-01 0.30000000E+03</pdfrwt>
<pdfrwt beam="2">0</pdfrwt>
<totfact> 0.68220724E+03</totfact>
</mgrwt>
</event>
<event>
 6    1  0.6513574E-002  0.3000000E+03  0.7818608E-02  0.1093470E+00
         21   -1    0    0  501  502  0.00000000000E+00  0.00000000000E+00  0.11316258620E+01  0.11316258620E+01  0.00000000000E+00 0. -1.
         13   -1    0    0    0    0 -0.00000000000E+00 -0.00000000000E+00 -0.10000000000E+04  0.10000000000E+04  0.00000000000E+00 0.  1.
    9000005    2    1    2  501    0 -0.44424384700E+01 -0.30886739072E+02 -0.67844975572E+03  0.67919713418E+03  0.63992282614E+01 0.  0.
         13    1    3    3    0    0  0.10729171074E+00 -0.20644217697E+02 -0.43614735385E+03  0.43663567137E+03  0.00000000000E+00 0.  1.
          3    1    3    3  501    0 -0.45497301807E+01 -0.10242521375E+02 -0.24230240187E+03  0.24256146281E+03  0.00000000000E+00 0.  1.
         -3    1    1    2    0  502  0.44424384700E+01  0.30886739072E+02 -0.32041861842E+03  0.32193449169E+03  0.00000000000E+00 0. -1.
<mgrwt>
<rscale>  1 0.30000000E+03</rscale>
<asrwt>0</asrwt>
<pdfrwt beam="1">  1       21 0.41150118E-02 0.30000000E+03</pdfrwt>
<pdfrwt beam="2">0</pdfrwt>
<totfact> 0.40085808E+04</totfact>
</mgrwt>
</event>
<event>
 6    1  0.6513574E-002  0.3000000E+03  0.7818608E-02  0.1093470E+00
         21   -1    0    0  501  502  0.00000000000E+00  0.00000000000E+00  0.17865407063E+01  0.17865407063E+01  0.00000000000E+00 0. -1.
         13   -1    0    0    0    0 -0.00000000000E+00 -0.00000000000E+00 -0.10000000000E+04  0.10000000000E+04  0.00000000000E+00 0.  1.
    9000005    2    1    2  501    0 -0.32826027712E+01  0.38678391336E+02 -0.68761942300E+03  0.68877623925E+03  0.92435615225E+01 0.  0.
         13    1    3    3    0    0  0.22704191856E+01  0.23884288796E+02 -0.43907263353E+03  0.43972763339E+03  0.00000000000E+00 0.  1.
          3    1    3    3  501    0 -0.55530219568E+01  0.14794102540E+02 -0.24854678947E+03  0.24904860585E+03  0.00000000000E+00 0.  1.
         -3    1    1    2    0  502  0.32826027712E+01 -0.38678391336E+02 -0.31059403630E+03  0.31301030146E+03  0.00000000000E+00 0. -1.
<mgrwt>
<rscale>  1 0.30000000E+03</rscale>
<asrwt>0</asrwt>
<pdfrwt beam="1">  1       21 0.64965254E-02 0.30000000E+03</pdfrwt>
<pdfrwt beam="2">0</pdfrwt>
<totfact> 0.18367041E+04</totfact>
</mgrwt>
</event>
<event>
 6    1  0.6513574E-002  0.3000000E+03  0.7818608E-02  0.1093470E+00
         21   -1    0    0  501  502  0.00000000000E+00  0.00000000000E+00  0.16000791354E+01  0.16000791354E+01  0.00000000000E+00 0. -1.
         13   -1    0    0    0    0 -0.00000000000E+00 -0.00000000000E+00 -0.10000000000E+04  0.10000000000E+04  0.00000000000E+00 0.  1.
    9000005    2    1    2  501    0 -0.39103897674E+02  0.61315472760E+01 -0.56524533015E+03  0.56664075903E+03  0.35715343817E+01 0.  0.
         13    1    3    3    0    0 -0.50797963634E+01  0.20366631982E+01 -0.77797656869E+02  0.77989920774E+02  0.00000000000E+00 0.  1.
          1    1    3    3  501    0 -0.34024101311E+02  0.40948840778E+01 -0.48744767328E+03  0.48865083826E+03  0.00000000000E+00 0.  1.
         -1    1    1    2    0  502  0.39103897674E+02 -0.61315472760E+01 -0.43315459072E+03  0.43495932011E+03  0.00000000000E+00 0. -1.
<mgrwt>
<rscale>  1 0.30000000E+03</rscale>
<asrwt>0</asrwt>
<pdfrwt beam="1">  1       21 0.58184819E-02 0.30000000E+03</pdfrwt>
<pdfrwt beam="2">0</pdfrwt>
<totfact> 0.22217492E+04</totfact>
</mgrwt>
</event>
<event>
 6    1  0.6513574E-002  0.3000000E+03  0.7818608E-02  0.1093470E+00
         21   -1    0    0  501  502  0.00000000000E+00  0.00000000000E+00  0.22380249557E+01  0.22380249557E+01  0.00000000000E+00 0. -1.
         13   -1    0    0    0    0 -0.00000000000E+00 -0.00000000000E+00 -0.10000000000E+04  0.10000000000E+04  0.00000000000E+00 0.  1.
    9000005    2    1    2  501    0 -0.41455382453E+02  0.96486121768E+01 -0.71689387046E+03  0.71816314641E+03  0.31367018905E+01 0.  0.
         13    1    3    3    0    0 -0.32656553076E+02  0.63930855446E+01 -0.54978925880E+03  0.55079538043E+03  0.00000000000E+00 0.  1.
          1    1    3    3  501    0 -0.87988293773E+01  0.32555266322E+01 -0.16710461166E+03  0.16736776598E+03  0.00000000000E+00 0.  1.
         -3    1    1    2    0  502  0.41455382453E+02 -0.96486121768E+01 -0.28086810458E+03  0.28407487855E+03  0.00000000000E+00 0. -1.
<mgrwt>
<rscale>  1 0.30000000E+03</rscale>
<asrwt>0</asrwt>
<pdfrwt beam="1">  1       21 0.81382897E-02 0.30000000E+03</pdfrwt>
<pdfrwt beam="2">0</pdfrwt>
<totfact> 0.12394879E+04</totfact>
</mgrwt>
</event>
<event>
 6    1  0.6513574E-002  0.3000000E+03  0.7818608E-02  0.1093470E+00
         21   -1    0    0  501  502  0.00000000000E+00  0.00000000000E+00  0.12260347660E+01  0.12260347660E+01  0.00000000000E+00 0. -1.
         13   -1    0    0    0    0 -0.00000000000E+00 -0.00000000000E+00 -0.10000000000E+04  0.10000000000E+04  0.00000000000E+00 0.  1.
    9000005    2    1    2  501    0 -0.30995522262E+02 -0.64436398450E+01 -0.30614484178E+03  0.30787378263E+03  0.77044781444E+01 0.  0.
         13    1    3    3    0    0 -0.59211081519E+00 -0.16755109803E+01 -0.19983684392E+02  0.20062541568E+02  0.00000000000E+00 0.  1.
          3    1    3    3  501    0 -0.30403411447E+02 -0.47681288647E+01 -0.28616115739E+03  0.28781124106E+03  0.00000000000E+00 0.  1.
         -1    1    1    2    0  502  0.30995522262E+02  0.64436398450E+01 -0.69262912345E+03  0.69335225214E+03  0.00000000000E+00 0. -1.
<mgrwt>
<rscale>  1 0.30000000E+03</rscale>
<asrwt>0</asrwt>
<pdfrwt beam="1">  1       21 0.44583176E-02 0.30000000E+03</pdfrwt>
<pdfrwt beam="2">0</pdfrwt>
<totfact> 0.35006441E+04</totfact>
</mgrwt>
</event>
<event>
 6    1  0.6513574E-002  0.3000000E+03  0.7818608E-02  0.1093470E+00
         21   -1    0    0  501  502  0.00000000000E+00  0.00000000000E+00  0.18716091366E+01  0.18716091366E+01  0.00000000000E+00 0. -1.
         13   -1    0    0    0    0 -0.00000000000E+00 -0.00000000000E+00 -0.10000000000E+04  0.10000000000E+04  0.00000000000E+00 0.  1.
    9000005    2    1    2  501    0  0.39008447638E+02 -0.18517915269E+02 -0.50278052197E+03  0.50464521866E+03  0.37378158060E+01 0.  0.
         13    1    3    3    0    0  0.15278022797E+02 -0.92886813713E+01 -0.20685509401E+03  0.20762641330E+03  0.00000000000E+00 0.  1.
          3    1    3    3  501    0  0.23730424841E+02 -0.92292338977E+01 -0.29592542796E+03  0.29701880536E+03  0.00000000000E+00 0.  1.
         -1    1    1    2    0  502 -0.39008447638E+02  0.18517915269E+02 -0.49534786889E+03  0.49722639048E+03  0.00000000000E+00 0. -1.
<mgrwt>
<rscale>  1 0.30000000E+03</rscale>
<asrwt>0</asrwt>
<pdfrwt beam="1">  1       21 0.68058658E-02 0.30000000E+03</pdfrwt>
<pdfrwt beam="2">0</pdfrwt>
<totfact> 0.16943807E+04</totfact>
</mgrwt>
</event>
<event>
 6    1  0.6513574E-002  0.3000000E+03  0.7818608E-02  0.1093470E+00
         21   -1    0    0  501  502  0.00000000000E+00  0.00000000000E+00  0.12053284510E+01  0.12053284510E+01  0.00000000000E+00 0. -1.
         13   -1    0    0    0    0 -0.00000000000E+00 -0.00000000000E+00 -0.10000000000E+04  0.10000000000E+04  0.00000000000E+00 0.  1.
    9000005    2    1    2  501    0 -0.10663548997E+00 -0.30383982631E+02 -0.74030704908E+03  0.74093806440E+03  0.33897749287E+01 0.  0.
         13    1    3    3    0    0 -0.71664147967E+00 -0.26863831120E+02 -0.67290538141E+03  0.67344178021E+03  0.00000000000E+00 0.  1.
          3    1    3    3  501    0  0.61000598970E+00 -0.35201515111E+01 -0.67401667676E+02  0.67496284190E+02  0.00000000000E+00 0.  1.
         -3    1    1    2    0  502  0.10663548997E+00  0.30383982631E+02 -0.25848762246E+03  0.26026726406E+03  0.00000000000E+00 0. -1.
<mgrwt>
<rscale>  1 0.30000000E+03</rscale>
<asrwt>0</asrwt>
<pdfrwt beam="1">  1       21 0.43830218E-02 0.30000000E+03</pdfrwt>
<pdfrwt beam="2">0</pdfrwt>
<totfact> 0.36031575E+04</totfact>
</mgrwt>
</event>
<event>
 6    1  0.6513574E-002  0.3000000E+03  0.7818608E-02  0.1093470E+00
         21   -1    0    0  501  502  0.00000000000E+00  0.00000000000E+00  0.12464916511E+01  0.12464916511E+01  0.00000000000E+00 0. -1.
         13   -1    0    0    0    0 -0.00000000000E+00 -0.00000000000E+00 -0.10000000000E+04  0.10000000000E+04  0.00000000000E+00 0.  1.
    9000005    2    1    2  501    0 -0.93118073262E+01 -0.32230080461E+02 -0.34951372019E+03  0.35114050770E+03  0.37851953162E+01 0.  0.
         13    1    3    3    0    0 -0.51028547189E+01 -0.11702827016E+02 -0.12415085936E+03  0.12480557346E+03  0.00000000000E+00 0.  1.
          3    1    3    3  501    0 -0.42089526073E+01 -0.20527253444E+02 -0.22536286083E+03  0.22633493424E+03  0.00000000000E+00 0.  1.
         -1    1    1    2    0  502  0.93118073262E+01  0.32230080461E+02 -0.64923978816E+03  0.65010598395E+03  0.00000000000E+00 0. -1.
<mgrwt>
<rscale>  1 0.30000000E+03</rscale>
<asrwt>0</asrwt>
<pdfrwt beam="1">  1       21 0.45327065E-02 0.30000000E+03</pdfrwt>
<pdfrwt beam="2">0</pdfrwt>
<totfact> 0.34037212E+04</totfact>
</mgrwt>
</event>
<event>
 6    1  0.6513574E-002  0.3000000E+03  0.7818608E-02  0.1093470E+00
         21   -1    0    0  501  502  0.00000000000E+00  0.00000000000E+00  0.11642766934E+01  0.11642766934E+01  0.00000000000E+00 0. -1.
         13   -1    0    0    0    0 -0.00000000000E+00 -0.00000000000E+00 -0.10000000000E+04  0.10000000000E+04  0.00000000000E+00 0.  1.
    9000005    2    1    2  501    0 -0.21625676663E+01 -0.32607145255E+02 -0.35873989981E+03  0.36023482201E+03  0.26284317780E+01 0.  0.
         13    1    3    3    0    0 -0.15328385749E+01 -0.25061563486E+02 -0.26289344479E+03  0.26408974776E+03  0.00000000000E+00 0.  1.
          1    1    3    3  501    0 -0.62972909146E+00 -0.75455817684E+01 -0.95846455018E+02  0.96145074249E+02  0.00000000000E+00 0.  1.
         -3    1    1    2    0  502  0.21625676663E+01  0.32607145255E+02 -0.64009582350E+03  0.64092945468E+03  0.00000000000E+00 0. -1.
<mgrwt>
<rscale>  1 0.30000000E+03</rscale>
<asrwt>0</asrwt>
<pdfrwt beam="1">  1       21 0.42337424E-02 0.30000000E+03</pdfrwt>
<pdfrwt beam="2">0</pdfrwt>
<totfact> 0.38206572E+04</totfact>
</mgrwt>
</event>
<event>
 6    1  0.6513574E-002  0.3000000E+03  0.7818608E-02  0.1093470E+00
         21   -1    0    0  501  502  0.00000000000E+00  0.00000000000E+00  0.12031851203E+02  0.12031851203E+02  0.00000000000E+00 0. -1.
         13   -1    0    0    0    0 -0.00000000000E+00 -0.00000000000E+00 -0.10000000000E+04  0.10000000000E+04  0.00000000000E+00 0.  1.
    9000005    2    1    2  501    0  0.74621029792E+02 -0.36520786761E+02 -0.16378273070E+03  0.18366981118E+03  0.27840096246E+01 0.  0.
         13    1    3    3    0    0  0.68057126407E+02 -0.33232923035E+02 -0.15097647621E+03  0.16890854329E+03  0.00000000000E+00 0.  1.
          1    1    3    3  501    0  0.65639033856E+01 -0.32878637262E+01 -0.12806254493E+02  0.14761267888E+02  0.00000000000E+00 0.  1.
         -3    1    1    2    0  502 -0.74621029792E+02  0.36520786761E+02 -0.82418541809E+03  0.82836204002E+03  0.00000000000E+00 0. -1.
<mgrwt>
<rscale>  1 0.30000000E+03</rscale>
<asrwt>0</asrwt>
<pdfrwt beam="1">  1       21 0.43752278E-01 0.30000000E+03</pdfrwt>
<pdfrwt beam="2">0</pdfrwt>
<totfact> 0.50008965E+02</totfact>
</mgrwt>
</event>
<event>
 6    1  0.6513574E-002  0.3000000E+03  0.7818608E-02  0.1093470E+00
         21   -1    0    0  501  502  0.00000000000E+00  0.00000000000E+00  0.21402655647E+01  0.21402655647E+01  0.00000000000E+00 0. -1.
         13   -1    0    0    0    0 -0.00000000000E+00 -0.00000000000E+00 -0.10000000000E+04  0.10000000000E+04  0.00000000000E+00 0.  1.
    9000005    2    1    2  501    0 -0.33448911664E+02 -0.23415065555E+02 -0.26509383206E+03  0.26823770890E+03  0.31038196481E+01 0.  0.
         13    1    3    3    0    0 -0.70989411340E+01 -0.65735770921E+01 -0.63209080009E+02  0.63945247490E+02  0.00000000000E+00 0.  1.
          1    1    3    3  501    0 -0.26349970530E+02 -0.16841488462E+02 -0.20188475205E+03  0.20429246141E+03  0.00000000000E+00 0.  1.
         -3    1    1    2    0  502  0.33448911664E+02  0.23415065555E+02 -0.73276590238E+03  0.73390255666E+03  0.00000000000E+00 0. -1.
<mgrwt>
<rscale>  1 0.30000000E+03</rscale>
<asrwt>0</asrwt>
<pdfrwt beam="1">  1       21 0.77828003E-02 0.30000000E+03</pdfrwt>
<pdfrwt beam="2">0</pdfrwt>
<totfact> 0.13406134E+04</totfact>
</mgrwt>
</event>
<event>
 6    1  0.6513574E-002  0.3000000E+03  0.7818608E-02  0.1093470E+00
         21   -1    0    0  501  502  0.00000000000E+00  0.00000000000E+00  0.12089393755E+01  0.12089393755E+01  0.00000000000E+00 0. -1.
         13   -1    0    0    0    0 -0.00000000000E+00 -0.00000000000E+00 -0.10000000000E+04  0.10000000000E+04  0.00000000000E+00 0.  1.
    9000005    2    1    2  501    0 -0.20920532436E+02 -0.21714263338E+02 -0.74738038889E+03  0.74799657046E+03  0.34994018182E+01 0.  0.
         13    1    3    3    0    0 -0.37252315292E+01 -0.59691842650E+01 -0.17831160210E+03  0.17845037393E+03  0.00000000000E+00 0.  1.
          3    1    3    3  501    0 -0.17195300907E+02 -0.15745079073E+02 -0.56906878679E+03  0.56954619653E+03  0.00000000000E+00 0.  1.
         -1    1    1    2    0  502  0.20920532436E+02  0.21714263338E+02 -0.25141067173E+03  0.25321236891E+03  0.00000000000E+00 0. -1.
<mgrwt>
<rscale>  1 0.30000000E+03</rscale>
<asrwt>0</asrwt>
<pdfrwt beam="1">  1       21 0.43961525E-02 0.30000000E+03</pdfrwt>
<pdfrwt beam="2">0</pdfrwt>
<totfact> 0.35849489E+04</totfact>
</mgrwt>
</event>
<event>
 6    1  0.6513574E-002  0.3000000E+03  0.7818608E-02  0.1093470E+00
         21   -1    0    0  501  502  0.00000000000E+00  0.00000000000E+00  0.14309019615E+01  0.14309019615E+01  0.00000000000E+00 0. -1.
         13   -1    0    0    0    0 -0.00000000000E+00 -0.00000000000E+00 -0.10000000000E+04  0.10000000000E+04  0.00000000000E+00 0.  1.
    9000005    2    1    2  501    0 -0.36491451423E+02  0.16942563409E+01 -0.62670765859E+03  0.62777942440E+03  0.31654129838E+01 0.  0.
         13    1    3    3    0    0 -0.26810085813E+01  0.52494525586E+00 -0.35771866104E+02  0.35876033492E+02  0.00000000000E+00 0.  1.
          1    1    3    3  501    0 -0.33810442841E+02  0.11693110851E+01 -0.59093579249E+03  0.59190339091E+03  0.00000000000E+00 0.  1.
         -1    1    1    2    0  502  0.36491451423E+02 -0.16942563409E+01 -0.37186143945E+03  0.37365147756E+03  0.00000000000E+00 0. -1.
<mgrwt>
<rscale>  1 0.30000000E+03</rscale>
<asrwt>0</asrwt>
<pdfrwt beam="1">  1       21 0.52032908E-02 0.30000000E+03</pdfrwt>
<pdfrwt beam="2">0</pdfrwt>
<totfact> 0.26910782E+04</totfact>
</mgrwt>
</event>
<event>
 6    1  0.6513574E-002  0.3000000E+03  0.7818608E-02  0.1093470E+00
         21   -1    0    0  501  502  0.00000000000E+00  0.00000000000E+00  0.11574087302E+01  0.11574087302E+01  0.00000000000E+00 0. -1.
         13   -1    0    0    0    0 -0.00000000000E+00 -0.00000000000E+00 -0.10000000000E+04  0.10000000000E+04  0.00000000000E+00 0.  1.
    9000005    2    1    2  501    0  0.26844173887E+02  0.14757251334E+02 -0.29749586514E+03  0.29914201261E+03  0.66157232081E+01 0.  0.
         13    1    3    3    0    0  0.49246878533E+01  0.28464443838E+01 -0.34514341047E+02  0.34979916152E+02  0.00000000000E+00 0.  1.
          3    1    3    3  501    0  0.21919486034E+02  0.11910806950E+02 -0.26298152410E+03  0.26416209646E+03  0.00000000000E+00 0.  1.
         -3    1    1    2    0  502 -0.26844173887E+02 -0.14757251334E+02 -0.70134672612E+03  0.70201539612E+03  0.00000000000E+00 0. -1.
<mgrwt>
<rscale>  1 0.30000000E+03</rscale>
<asrwt>0</asrwt>
<pdfrwt beam="1">  1       21 0.42087679E-02 0.30000000E+03</pdfrwt>
<pdfrwt beam="2">0</pdfrwt>
<totfact> 0.38590313E+04</totfact>
</mgrwt>
</event>
<event>
 6    1  0.6513574E-002  0.3000000E+03  0.7818608E-02  0.1093470E+00
         21   -1    0    0  501  502  0.00000000000E+00  0.00000000000E+00  0.13953762202E+01  0.13953762202E+01  0.00000000000E+00 0. -1.
         13   -1    0    0    0    0 -0.00000000000E+00 -0.00000000000E+00 -0.10000000000E+04  0.10000000000E+04  0.00000000000E+00 0.  1.
    9000005    2    1    2  501    0  0.27591241644E+02 -0.23275709440E+02 -0.62612465631E+03  0.62717036178E+03  0.27463052187E+01 0.  0.
         13    1    3    3    0    0  0.23306301535E+02 -0.20505180364E+02 -0.54926448003E+03  0.55014099569E+03  0.00000000000E+00 0.  1.
          1    1    3    3  501    0  0.42849401089E+01 -0.27705290759E+01 -0.76860176277E+02  0.77029366092E+02  0.00000000000E+00 0.  1.
         -3    1    1    2    0  502 -0.27591241644E+02  0.23275709440E+02 -0.37247996747E+03  0.37422501444E+03  0.00000000000E+00 0. -1.
<mgrwt>
<rscale>  1 0.30000000E+03</rscale>
<asrwt>0</asrwt>
<pdfrwt beam="1">  1       21 0.50741060E-02 0.30000000E+03</pdfrwt>
<pdfrwt beam="2">0</pdfrwt>
<totfact> 0.28090938E+04</totfact>
</mgrwt>
</event>
<event>
 6    1  0.6513574E-002  0.3000000E+03  0.7818608E-02  0.1093470E+00
         21   -1    0    0  501  502  0.00000000000E+00  0.00000000000E+00  0.91420331151E+01  0.91420331151E+01  0.00000000000E+00 0. -1.
         13   -1    0    0    0    0 -0.00000000000E+00 -0.00000000000E+00 -0.10000000000E+04  0.10000000000E+04  0.00000000000E+00 0.  1.
    9000005    2    1    2  501    0  0.80768359322E+02  0.14892758960E+02 -0.23767863863E+03  0.25149803845E+03  0.38478497349E+01 0.  0.
         13    1    3    3    0    0  0.27642568826E+02  0.44571764783E+01 -0.75854362327E+02  0.80857048656E+02  0.00000000000E+00 0.  1.
          1    1    3    3  501    0  0.53125790497E+02  0.10435582481E+02 -0.16182427630E+03  0.17064098980E+03  0.00000000000E+00 0.  1.
         -1    1    1    2    0  502 -0.80768359322E+02 -0.14892758960E+02 -0.75317932825E+03  0.75764399466E+03  0.00000000000E+00 0. -1.
<mgrwt>
<rscale>  1 0.30000000E+03</rscale>
<asrwt>0</asrwt>
<pdfrwt beam="1">  1       21 0.33243827E-01 0.30000000E+03</pdfrwt>
<pdfrwt beam="2">0</pdfrwt>
<totfact> 0.88388946E+02</totfact>
</mgrwt>
</event>
<event>
 6    1  0.6513574E-002  0.3000000E+03  0.7818608E-02  0.1093470E+00
         21   -1    0    0  501  502  0.00000000000E+00  0.00000000000E+00  0.16367488665E+01  0.16367488665E+01  0.00000000000E+00 0. -1.
         13   -1    0    0    0    0 -0.00000000000E+00 -0.00000000000E+00 -0.10000000000E+04  0.10000000000E+04  0.00000000000E+00 0.  1.
    9000005    2    1    2  501    0 -0.19248779181E+02 -0.33369325869E+02 -0.64707308524E+03  0.64824064241E+03  0.53221625691E+01 0.  0.
         13    1    3    3    0    0 -0.67473366707E+01 -0.86263037670E+01 -0.21552560128E+03  0.21580367113E+03  0.00000000000E+00 0.  1.
          3    1    3    3  501    0 -0.12501442510E+02 -0.24743022102E+02 -0.43154748397E+03  0.43243697128E+03  0.00000000000E+00 0.  1.
         -3    1    1    2    0  502  0.19248779181E+02  0.33369325869E+02 -0.35129016589E+03  0.35339610646E+03  0.00000000000E+00 0. -1.
<mgrwt>
<rscale>  1 0.30000000E+03</rscale>
<asrwt>0</asrwt>
<pdfrwt beam="1">  1       21 0.59518266E-02 0.30000000E+03</pdfrwt>
<pdfrwt beam="2">0</pdfrwt>
<totfact> 0.21366621E+04</totfact>
</mgrwt>
</event>
<event>
 6    1  0.6513574E-002  0.3000000E+03  0.7818608E-02  0.1093470E+00
         21   -1    0    0  501  502  0.00000000000E+00  0.00000000000E+00  0.29011115090E+01  0.29011115090E+01  0.00000000000E+00 0. -1.
         13   -1    0    0    0    0 -0.00000000000E+00 -0.00000000000E+00 -0.10000000000E+04  0.10000000000E+04  0.00000000000E+00 0.  1.
    9000005    2    1    2  501    0  0.40078657539E+02 -0.13495388748E+02 -0.18898966408E+03  0.19368609504E+03  0.29641143032E+01 0.  0.
         13    1    3    3    0    0  0.22134532016E+01 -0.50868545222E+00 -0.76132347559E+01  0.79447768637E+01  0.00000000000E+00 0.  1.
          3    1    3    3  501    0  0.37865204337E+02 -0.12986703296E+02 -0.18137642932E+03  0.18574131817E+03  0.00000000000E+00 0.  1.
         -1    1    1    2    0  502 -0.40078657539E+02  0.13495388748E+02 -0.80810922441E+03  0.80921501647E+03  0.00000000000E+00 0. -1.
<mgrwt>
<rscale>  1 0.30000000E+03</rscale>
<asrwt>0</asrwt>
<pdfrwt beam="1">  1       21 0.10549519E-01 0.30000000E+03</pdfrwt>
<pdfrwt beam="2">0</pdfrwt>
<totfact> 0.78176449E+03</totfact>
</mgrwt>
</event>
<event>
 6    1  0.6513574E-002  0.3000000E+03  0.7818608E-02  0.1093470E+00
         21   -1    0    0  501  502  0.00000000000E+00  0.00000000000E+00  0.25642120834E+01  0.25642120834E+01  0.00000000000E+00 0. -1.
         13   -1    0    0    0    0 -0.00000000000E+00 -0.00000000000E+00 -0.10000000000E+04  0.10000000000E+04  0.00000000000E+00 0.  1.
    9000005    2    1    2  501    0  0.49892912291E+02 -0.21300608976E+01 -0.41942641458E+03  0.42240158357E+03  0.32773007824E+01 0.  0.
         13    1    3    3    0    0  0.29428692422E+02  0.12343595985E+00 -0.25380447660E+03  0.25550494225E+03  0.00000000000E+00 0.  1.
          1    1    3    3  501    0  0.20464219869E+02 -0.22534968575E+01 -0.16562193798E+03  0.16689664132E+03  0.00000000000E+00 0.  1.
         -3    1    1    2    0  502 -0.49892912291E+02  0.21300608976E+01 -0.57800937334E+03  0.58016262851E+03  0.00000000000E+00 0. -1.
<mgrwt>
<rscale>  1 0.30000000E+03</rscale>
<asrwt>0</asrwt>
<pdfrwt beam="1">  1       21 0.93244272E-02 0.30000000E+03</pdfrwt>
<pdfrwt beam="2">0</pdfrwt>
<totfact> 0.97459419E+03</totfact>
</mgrwt>
</event>
<event>
 6    1  0.6513574E-002  0.3000000E+03  0.7818608E-02  0.1093470E+00
         21   -1    0    0  501  502  0.00000000000E+00  0.00000000000E+00  0.20689684045E+02  0.20689684045E+02  0.00000000000E+00 0. -1.
         13   -1    0    0    0    0 -0.00000000000E+00 -0.00000000000E+00 -0.10000000000E+04  0.10000000000E+04  0.00000000000E+00 0.  1.
    9000005    2    1    2  501    0 -0.11849680098E+03  0.62558169319E+02 -0.30434692887E+03  0.33255409399E+03  0.31868368859E+01 0.  0.
         13    1    3    3    0    0 -0.89804894601E+02  0.47233258349E+02 -0.23379009870E+03  0.25486017743E+03  0.00000000000E+00 0.  1.
          3    1    3    3  501    0 -0.28691906375E+02  0.15324910969E+02 -0.70556830171E+02  0.77693916566E+02  0.00000000000E+00 0.  1.
         -1    1    1    2    0  502  0.11849680098E+03 -0.62558169319E+02 -0.67496338709E+03  0.68813559005E+03  0.00000000000E+00 0. -1.
<mgrwt>
<rscale>  1 0.30000000E+03</rscale>
<asrwt>0</asrwt>
<pdfrwt beam="1">  1       21 0.75235373E-01 0.30000000E+03</pdfrwt>
<pdfrwt beam="2">0</pdfrwt>
<totfact> 0.14895719E+02</totfact>
</mgrwt>
</event>
<event>
 6    1  0.6513574E-002  0.3000000E+03  0.7818608E-02  0.1093470E+00
         21   -1    0    0  501  502  0.00000000000E+00  0.00000000000E+00  0.12030509829E+01  0.12030509829E+01  0.00000000000E+00 0. -1.
         13   -1    0    0    0    0 -0.00000000000E+00 -0.00000000000E+00 -0.10000000000E+04  0.10000000000E+04  0.00000000000E+00 0.  1.
    9000005    2    1    2  501    0  0.39233823848E+01  0.31874987785E+02 -0.68683173969E+03  0.68758911697E+03  0.30898796600E+01 0.  0.
         13    1    3    3    0    0  0.27413216990E+01  0.10369074940E+02 -0.22927315108E+03  0.22952387755E+03  0.00000000000E+00 0.  1.
          3    1    3    3  501    0  0.11820606858E+01  0.21505912845E+02 -0.45755858860E+03  0.45806523942E+03  0.00000000000E+00 0.  1.
         -3    1    1    2    0  502 -0.39233823848E+01 -0.31874987785E+02 -0.31196520933E+03  0.31361393401E+03  0.00000000000E+00 0. -1.
<mgrwt>
<rscale>  1 0.30000000E+03</rscale>
<asrwt>0</asrwt>
<pdfrwt beam="1">  1       21 0.43747401E-02 0.30000000E+03</pdfrwt>
<pdfrwt beam="2">0</pdfrwt>
<totfact> 0.36147156E+04</totfact>
</mgrwt>
</event>
<event>
 6    1  0.6513574E-002  0.3000000E+03  0.7818608E-02  0.1093470E+00
         21   -1    0    0  501  502  0.00000000000E+00  0.00000000000E+00  0.19085195126E+01  0.19085195126E+01  0.00000000000E+00 0. -1.
         13   -1    0    0    0    0 -0.00000000000E+00 -0.00000000000E+00 -0.10000000000E+04  0.10000000000E+04  0.00000000000E+00 0.  1.
    9000005    2    1    2  501    0  0.31432636973E+02 -0.29396104547E+02 -0.41826488283E+03  0.42048696420E+03  0.34107513656E+01 0.  0.
         13    1    3    3    0    0  0.60216844554E+01 -0.64801395638E+01 -0.98534074559E+02  0.98930363093E+02  0.00000000000E+00 0.  1.
          3    1    3    3  501    0  0.25410952517E+02 -0.22915964983E+02 -0.31973080827E+03  0.32155660111E+03  0.00000000000E+00 0.  1.
         -1    1    1    2    0  502 -0.31432636973E+02  0.29396104547E+02 -0.57982659766E+03  0.58142155531E+03  0.00000000000E+00 0. -1.
<mgrwt>
<rscale>  1 0.30000000E+03</rscale>
<asrwt>0</asrwt>
<pdfrwt beam="1">  1       21 0.69400856E-02 0.30000000E+03</pdfrwt>
<pdfrwt beam="2">0</pdfrwt>
<totfact> 0.16378400E+04</totfact>
</mgrwt>
</event>
<event>
 6    1  0.6513574E-002  0.3000000E+03  0.7818608E-02  0.1093470E+00
         21   -1    0    0  501  502  0.00000000000E+00  0.00000000000E+00  0.16530476199E+01  0.16530476199E+01  0.00000000000E+00 0. -1.
         13   -1    0    0    0    0 -0.00000000000E+00 -0.00000000000E+00 -0.10000000000E+04  0.10000000000E+04  0.00000000000E+00 0.  1.
    9000005    2    1    2  501    0  0.32710494220E+02  0.21799065696E+02 -0.37325615084E+03  0.37532750458E+03  0.23250494775E+01 0.  0.
         13    1    3    3    0    0  0.29151122082E+02  0.18954133113E+02 -0.32362069099E+03  0.32548333093E+03  0.00000000000E+00 0.  1.
          3    1    3    3  501    0  0.35593721382E+01  0.28449325827E+01 -0.49635459853E+02  0.49844173644E+02  0.00000000000E+00 0.  1.
         -1    1    1    2    0  502 -0.32710494220E+02 -0.21799065696E+02 -0.62509080154E+03  0.62632554304E+03  0.00000000000E+00 0. -1.
<mgrwt>
<rscale>  1 0.30000000E+03</rscale>
<asrwt>0</asrwt>
<pdfrwt beam="1">  1       21 0.60110949E-02 0.30000000E+03</pdfrwt>
<pdfrwt beam="2">0</pdfrwt>
<totfact> 0.21004631E+04</totfact>
</mgrwt>
</event>
<event>
 6    1  0.6513574E-002  0.3000000E+03  0.7818608E-02  0.1093470E+00
         21   -1    0    0  501  502  0.00000000000E+00  0.00000000000E+00  0.13155877481E+01  0.13155877481E+01  0.00000000000E+00 0. -1.
         13   -1    0    0    0    0 -0.00000000000E+00 -0.00000000000E+00 -0.10000000000E+04  0.10000000000E+04  0.00000000000E+00 0.  1.
    9000005    2    1    2  501    0  0.34595179817E+02 -0.10674660145E+02 -0.50483799442E+03  0.50614384053E+03  0.30678759044E+01 0.  0.
         13    1    3    3    0    0  0.32885815669E+02 -0.95662502662E+01 -0.48192663799E+03  0.48314208513E+03  0.00000000000E+00 0.  1.
          3    1    3    3  501    0  0.17093641482E+01 -0.11084098789E+01 -0.22911356428E+02  0.23001755403E+02  0.00000000000E+00 0.  1.
         -3    1    1    2    0  502 -0.34595179817E+02  0.10674660145E+02 -0.49384641783E+03  0.49517174721E+03  0.00000000000E+00 0. -1.
<mgrwt>
<rscale>  1 0.30000000E+03</rscale>
<asrwt>0</asrwt>
<pdfrwt beam="1">  1       21 0.47839655E-02 0.30000000E+03</pdfrwt>
<pdfrwt beam="2">0</pdfrwt>
<totfact> 0.31054846E+04</totfact>
</mgrwt>
</event>
<event>
 6    1  0.6513574E-002  0.3000000E+03  0.7818608E-02  0.1093470E+00
         21   -1    0    0  501  502  0.00000000000E+00  0.00000000000E+00  0.16850344904E+01  0.16850344904E+01  0.00000000000E+00 0. -1.
         13   -1    0    0    0    0 -0.00000000000E+00 -0.00000000000E+00 -0.10000000000E+04  0.10000000000E+04  0.00000000000E+00 0.  1.
    9000005    2    1    2  501    0 -0.34499044864E+02  0.13493118317E+02 -0.28583061250E+03  0.28823832896E+03  0.31538714580E+01 0.  0.
         13    1    3    3    0    0 -0.31671422847E+02  0.11468339396E+02 -0.26146140347E+03  0.26362220570E+03  0.00000000000E+00 0.  1.
          1    1    3    3  501    0 -0.28276220173E+01  0.20247789210E+01 -0.24369209022E+02  0.24616123259E+02  0.00000000000E+00 0.  1.
         -3    1    1    2    0  502  0.34499044864E+02 -0.13493118317E+02 -0.71248435301E+03  0.71344670553E+03  0.00000000000E+00 0. -1.
<mgrwt>
<rscale>  1 0.30000000E+03</rscale>
<asrwt>0</asrwt>
<pdfrwt beam="1">  1       21 0.61274111E-02 0.30000000E+03</pdfrwt>
<pdfrwt beam="2">0</pdfrwt>
<totfact> 0.20321389E+04</totfact>
</mgrwt>
</event>
<event>
 6    1  0.6513574E-002  0.3000000E+03  0.7818608E-02  0.1093470E+00
         21   -1    0    0  501  502  0.00000000000E+00  0.00000000000E+00  0.10182098022E+01  0.10182098022E+01  0.00000000000E+00 0. -1.
         13   -1    0    0    0    0 -0.00000000000E+00 -0.00000000000E+00 -0.10000000000E+04  0.10000000000E+04  0.00000000000E+00 0.  1.
    9000005    2    1    2  501    0 -0.13146298164E+02  0.28465660987E+02 -0.58459667621E+03  0.58544855053E+03  0.36895086301E+01 0.  0.
         13    1    3    3    0    0 -0.57625900126E+00  0.39985804860E+01 -0.67559343027E+02  0.67680023275E+02  0.00000000000E+00 0.  1.
          1    1    3    3  501    0 -0.12570039162E+02  0.24467080501E+02 -0.51703733319E+03  0.51776852726E+03  0.00000000000E+00 0.  1.
         -1    1    1    2    0  502  0.13146298164E+02 -0.28465660987E+02 -0.41438511399E+03  0.41556965927E+03  0.00000000000E+00 0. -1.
<mgrwt>
<rscale>  1 0.30000000E+03</rscale>
<asrwt>0</asrwt>
<pdfrwt beam="1">  1       21 0.37025889E-02 0.30000000E+03</pdfrwt>
<pdfrwt beam="2">0</pdfrwt>
<totfact> 0.47879194E+04</totfact>
</mgrwt>
</event>
<event>
 6    1  0.6513574E-002  0.3000000E+03  0.7818608E-02  0.1093470E+00
         21   -1    0    0  501  502  0.00000000000E+00  0.00000000000E+00  0.20732675817E+01  0.20732675817E+01  0.00000000000E+00 0. -1.
         13   -1    0    0    0    0 -0.00000000000E+00 -0.00000000000E+00 -0.10000000000E+04  0.10000000000E+04  0.00000000000E+00 0.  1.
    9000005    2    1    2  501    0 -0.18973703733E+02  0.30683120980E+02 -0.80351949569E+03  0.80434712101E+03  0.54088607126E+01 0.  0.
         13    1    3    3    0    0 -0.10404197003E+02  0.11757390109E+02 -0.35150552290E+03  0.35185595940E+03  0.00000000000E+00 0.  1.
          1    1    3    3  501    0 -0.85695067300E+01  0.18925730871E+02 -0.45201397280E+03  0.45249116161E+03  0.00000000000E+00 0.  1.
         -3    1    1    2    0  502  0.18973703733E+02 -0.30683120980E+02 -0.19440723673E+03  0.19772614657E+03  0.00000000000E+00 0. -1.
<mgrwt>
<rscale>  1 0.30000000E+03</rscale>
<asrwt>0</asrwt>
<pdfrwt beam="1">  1       21 0.75391707E-02 0.30000000E+03</pdfrwt>
<pdfrwt beam="2">0</pdfrwt>
<totfact> 0.14174577E+04</totfact>
</mgrwt>
</event>
<event>
 6    1  0.6513574E-002  0.3000000E+03  0.7818608E-02  0.1093470E+00
         21   -1    0    0  501  502  0.00000000000E+00  0.00000000000E+00  0.46857408446E+01  0.46857408446E+01  0.00000000000E+00 0. -1.
         13   -1    0    0    0    0 -0.00000000000E+00 -0.00000000000E+00 -0.10000000000E+04  0.10000000000E+04  0.00000000000E+00 0.  1.
    9000005    2    1    2  501    0  0.44386307978E+01  0.61168267157E+02 -0.27557263178E+03  0.28233591664E+03  0.34693066941E+01 0.  0.
         13    1    3    3    0    0 -0.54622230926E+00  0.56035635401E+01 -0.26702910310E+02  0.27289992712E+02  0.00000000000E+00 0.  1.
          1    1    3    3  501    0  0.49848531071E+01  0.55564703617E+02 -0.24886972147E+03  0.25504592393E+03  0.00000000000E+00 0.  1.
         -1    1    1    2    0  502 -0.44386307978E+01 -0.61168267157E+02 -0.71974162738E+03  0.72234982420E+03  0.00000000000E+00 0. -1.
<mgrwt>
<rscale>  1 0.30000000E+03</rscale>
<asrwt>0</asrwt>
<pdfrwt beam="1">  1       21 0.17039094E-01 0.30000000E+03</pdfrwt>
<pdfrwt beam="2">0</pdfrwt>
<totfact> 0.32475181E+03</totfact>
</mgrwt>
</event>
<event>
 6    1  0.6513574E-002  0.3000000E+03  0.7818608E-02  0.1093470E+00
         21   -1    0    0  501  502  0.00000000000E+00  0.00000000000E+00  0.15469461503E+01  0.15469461503E+01  0.00000000000E+00 0. -1.
         13   -1    0    0    0    0 -0.00000000000E+00 -0.00000000000E+00 -0.10000000000E+04  0.10000000000E+04  0.00000000000E+00 0.  1.
    9000005    2    1    2  501    0  0.14372683026E+02 -0.32426070892E+02 -0.28556243196E+03  0.28777452943E+03  0.32020542667E+01 0.  0.
         13    1    3    3    0    0  0.14020047572E+01 -0.35441662339E+01 -0.23602150205E+02  0.23907911367E+02  0.00000000000E+00 0.  1.
          1    1    3    3  501    0  0.12970678269E+02 -0.28881904658E+02 -0.26196028176E+03  0.26386661807E+03  0.00000000000E+00 0.  1.
         -3    1    1    2    0  502 -0.14372683026E+02  0.32426070892E+02 -0.71289062189E+03  0.71377241672E+03  0.00000000000E+00 0. -1.
<mgrwt>
<rscale>  1 0.30000000E+03</rscale>
<asrwt>0</asrwt>
<pdfrwt beam="1">  1       21 0.56252706E-02 0.30000000E+03</pdfrwt>
<pdfrwt beam="2">0</pdfrwt>
<totfact> 0.23546289E+04</totfact>
</mgrwt>
</event>
<event>
 6    1  0.6513574E-002  0.3000000E+03  0.7818608E-02  0.1093470E+00
         21   -1    0    0  501  502  0.00000000000E+00  0.00000000000E+00  0.23954526731E+01  0.23954526731E+01  0.00000000000E+00 0. -1.
         13   -1    0    0    0    0 -0.00000000000E+00 -0.00000000000E+00 -0.10000000000E+04  0.10000000000E+04  0.00000000000E+00 0.  1.
    9000005    2    1    2  501    0  0.28616886481E+02  0.39303235765E+02 -0.44676005989E+03  0.44940963019E+03  0.32854309404E+01 0.  0.
         13    1    3    3    0    0  0.11378300426E+02  0.17679822430E+02 -0.18296601518E+03  0.18417004250E+03  0.00000000000E+00 0.  1.
          1    1    3    3  501    0  0.17238586054E+02  0.21623413335E+02 -0.26379404471E+03  0.26523958769E+03  0.00000000000E+00 0.  1.
         -1    1    1    2    0  502 -0.28616886481E+02 -0.39303235765E+02 -0.55084448743E+03  0.55298582248E+03  0.00000000000E+00 0. -1.
<mgrwt>
<rscale>  1 0.30000000E+03</rscale>
<asrwt>0</asrwt>
<pdfrwt beam="1">  1       21 0.87107554E-02 0.30000000E+03</pdfrwt>
<pdfrwt beam="2">0</pdfrwt>
<totfact> 0.10995511E+04</totfact>
</mgrwt>
</event>
<event>
 6    1  0.6513574E-002  0.3000000E+03  0.7818608E-02  0.1093470E+00
         21   -1    0    0  501  502  0.00000000000E+00  0.00000000000E+00  0.23273409427E+01  0.23273409427E+01  0.00000000000E+00 0. -1.
         13   -1    0    0    0    0 -0.00000000000E+00 -0.00000000000E+00 -0.10000000000E+04  0.10000000000E+04  0.00000000000E+00 0.  1.
    9000005    2    1    2  501    0  0.24934266740E+02  0.41068273274E+02 -0.53128264721E+03  0.53346919195E+03  0.44504835438E+01 0.  0.
         13    1    3    3    0    0  0.18504234319E+02  0.27123728668E+02 -0.34929787153E+03  0.35083772089E+03  0.00000000000E+00 0.  1.
          1    1    3    3  501    0  0.64300324209E+01  0.13944544606E+02 -0.18198477568E+03  0.18263147106E+03  0.00000000000E+00 0.  1.
         -1    1    1    2    0  502 -0.24934266740E+02 -0.41068273274E+02 -0.46639001184E+03  0.46885814899E+03  0.00000000000E+00 0. -1.
<mgrwt>
<rscale>  1 0.30000000E+03</rscale>
<asrwt>0</asrwt>
<pdfrwt beam="1">  1       21 0.84630758E-02 0.30000000E+03</pdfrwt>
<pdfrwt beam="2">0</pdfrwt>
<totfact> 0.11569726E+04</totfact>
</mgrwt>
</event>
<event>
 6    1  0.6513574E-002  0.3000000E+03  0.7818608E-02  0.1093470E+00
         21   -1    0    0  501  502  0.00000000000E+00  0.00000000000E+00  0.14778576517E+01  0.14778576517E+01  0.00000000000E+00 0. -1.
         13   -1    0    0    0    0 -0.00000000000E+00 -0.00000000000E+00 -0.10000000000E+04  0.10000000000E+04  0.00000000000E+00 0.  1.
    9000005    2    1    2  501    0 -0.27297938861E+02 -0.19907093030E+02 -0.73740246755E+03  0.73818153336E+03  0.28473189392E+01 0.  0.
         13    1    3    3    0    0 -0.26251612599E+02 -0.18708635768E+02 -0.69043936670E+03  0.69119149250E+03  0.00000000000E+00 0.  1.
          1    1    3    3  501    0 -0.10463262625E+01 -0.11984572625E+01 -0.46963100851E+02  0.46990040860E+02  0.00000000000E+00 0.  1.
         -1    1    1    2    0  502  0.27297938861E+02  0.19907093030E+02 -0.26111967480E+03  0.26329632429E+03  0.00000000000E+00 0. -1.
<mgrwt>
<rscale>  1 0.30000000E+03</rscale>
<asrwt>0</asrwt>
<pdfrwt beam="1">  1       21 0.53740392E-02 0.30000000E+03</pdfrwt>
<pdfrwt beam="2">0</pdfrwt>
<totfact> 0.25465143E+04</totfact>
</mgrwt>
</event>
<event>
 6    1  0.6513574E-002  0.3000000E+03  0.7818608E-02  0.1093470E+00
         21   -1    0    0  501  502  0.00000000000E+00  0.00000000000E+00  0.13622597641E+01  0.13622597641E+01  0.00000000000E+00 0. -1.
         13   -1    0    0    0    0 -0.00000000000E+00 -0.00000000000E+00 -0.10000000000E+04  0.10000000000E+04  0.00000000000E+00 0.  1.
    9000005    2    1    2  501    0  0.15865269870E+01 -0.35177707372E+02 -0.35505091214E+03  0.35681280979E+03  0.37739706891E+01 0.  0.
         13    1    3    3    0    0  0.18591432649E+01 -0.18790796227E+02 -0.20597223867E+03  0.20683595805E+03  0.00000000000E+00 0.  1.
          3    1    3    3  501    0 -0.27261627785E+00 -0.16386911145E+02 -0.14907867347E+03  0.14997685174E+03  0.00000000000E+00 0.  1.
         -3    1    1    2    0  502 -0.15865269870E+01  0.35177707372E+02 -0.64358682809E+03  0.64454944997E+03  0.00000000000E+00 0. -1.
<mgrwt>
<rscale>  1 0.30000000E+03</rscale>
<asrwt>0</asrwt>
<pdfrwt beam="1">  1       21 0.49536823E-02 0.30000000E+03</pdfrwt>
<pdfrwt beam="2">0</pdfrwt>
<totfact> 0.29265191E+04</totfact>
</mgrwt>
</event>
<event>
 6    1  0.6513574E-002  0.3000000E+03  0.7818608E-02  0.1093470E+00
         21   -1    0    0  501  502  0.00000000000E+00  0.00000000000E+00  0.13648614345E+01  0.13648614345E+01  0.00000000000E+00 0. -1.
         13   -1    0    0    0    0 -0.00000000000E+00 -0.00000000000E+00 -0.10000000000E+04  0.10000000000E+04  0.00000000000E+00 0.  1.
    9000005    2    1    2  501    0  0.17174899892E+02  0.26268312372E+02 -0.23752769259E+03  0.23961060595E+03  0.29725944881E+01 0.  0.
         13    1    3    3    0    0  0.19402183383E+01  0.21387425059E+01 -0.28019529468E+02  0.28167937417E+02  0.00000000000E+00 0.  1.
          1    1    3    3  501    0  0.15234681554E+02  0.24129569866E+02 -0.20950816312E+03  0.21144266854E+03  0.00000000000E+00 0.  1.
         -1    1    1    2    0  502 -0.17174899892E+02 -0.26268312372E+02 -0.76110744598E+03  0.76175425548E+03  0.00000000000E+00 0. -1.
<mgrwt>
<rscale>  1 0.30000000E+03</rscale>
<asrwt>0</asrwt>
<pdfrwt beam="1">  1       21 0.49631430E-02 0.30000000E+03</pdfrwt>
<pdfrwt beam="2">0</pdfrwt>
<totfact> 0.29170196E+04</totfact>
</mgrwt>
</event>
<event>
 6    1  0.6513574E-002  0.3000000E+03  0.7818608E-02  0.1093470E+00
         21   -1    0    0  501  502  0.00000000000E+00  0.00000000000E+00  0.19435278414E+01  0.19435278414E+01  0.00000000000E+00 0. -1.
         13   -1    0    0    0    0 -0.00000000000E+00 -0.00000000000E+00 -0.10000000000E+04  0.10000000000E+04  0.00000000000E+00 0.  1.
    9000005    2    1    2  501    0 -0.24405573959E+02  0.22823577286E+02 -0.17761750346E+03  0.18082438357E+03  0.57386792700E+01 0.  0.
         13    1    3    3    0    0 -0.12788278525E+02  0.10103396686E+02 -0.72920986037E+02  0.74720070241E+02  0.00000000000E+00 0.  1.
          3    1    3    3  501    0 -0.11617295434E+02  0.12720180600E+02 -0.10469651742E+03  0.10610431333E+03  0.00000000000E+00 0.  1.
         -1    1    1    2    0  502  0.24405573959E+02 -0.22823577286E+02 -0.82043896870E+03  0.82111914427E+03  0.00000000000E+00 0. -1.
<mgrwt>
<rscale>  1 0.30000000E+03</rscale>
<asrwt>0</asrwt>
<pdfrwt beam="1">  1       21 0.70673889E-02 0.30000000E+03</pdfrwt>
<pdfrwt beam="2">0</pdfrwt>
<totfact> 0.15868374E+04</totfact>
</mgrwt>
</event>
<event>
 6    1  0.6513574E-002  0.3000000E+03  0.7818608E-02  0.1093470E+00
         21   -1    0    0  501  502  0.00000000000E+00  0.00000000000E+00  0.41219397647E+01  0.41219397647E+01  0.00000000000E+00 0. -1.
         13   -1    0    0    0    0 -0.00000000000E+00 -0.00000000000E+00 -0.10000000000E+04  0.10000000000E+04  0.00000000000E+00 0.  1.
    9000005    2    1    2  501    0  0.47619712950E+02  0.26246036878E+02 -0.23195032026E+03  0.23826158473E+03  0.33376901030E+01 0.  0.
         13    1    3    3    0    0  0.16971606177E+02  0.76163528908E+01 -0.77329119605E+02  0.79535130517E+02  0.00000000000E+00 0.  1.
          3    1    3    3  501    0  0.30648106773E+02  0.18629683987E+02 -0.15462120066E+03  0.15872645421E+03  0.00000000000E+00 0.  1.
         -3    1    1    2    0  502 -0.47619712950E+02 -0.26246036878E+02 -0.76392773997E+03  0.76586035503E+03  0.00000000000E+00 0. -1.
<mgrwt>
<rscale>  1 0.30000000E+03</rscale>
<asrwt>0</asrwt>
<pdfrwt beam="1">  1       21 0.14988903E-01 0.30000000E+03</pdfrwt>
<pdfrwt beam="2">0</pdfrwt>
<totfact> 0.41236803E+03</totfact>
</mgrwt>
</event>
<event>
 6    1  0.6513574E-002  0.3000000E+03  0.7818608E-02  0.1093470E+00
         21   -1    0    0  501  502  0.00000000000E+00  0.00000000000E+00  0.12374614188E+01  0.12374614188E+01  0.00000000000E+00 0. -1.
         13   -1    0    0    0    0 -0.00000000000E+00 -0.00000000000E+00 -0.10000000000E+04  0.10000000000E+04  0.00000000000E+00 0.  1.
    9000005    2    1    2  501    0  0.21864222599E+02 -0.27137214782E+02 -0.45674367888E+03  0.45809943391E+03  0.50823709542E+01 0.  0.
         13    1    3    3    0    0  0.85330556472E+01 -0.98119122436E+01 -0.14016075072E+03  0.14076264669E+03  0.00000000000E+00 0.  1.
          1    1    3    3  501    0  0.13331166952E+02 -0.17325302539E+02 -0.31658292816E+03  0.31733678722E+03  0.00000000000E+00 0.  1.
         -1    1    1    2    0  502 -0.21864222599E+02  0.27137214782E+02 -0.54201885970E+03  0.54313802751E+03  0.00000000000E+00 0. -1.
<mgrwt>
<rscale>  1 0.30000000E+03</rscale>
<asrwt>0</asrwt>
<pdfrwt beam="1">  1       21 0.44998692E-02 0.30000000E+03</pdfrwt>
<pdfrwt beam="2">0</pdfrwt>
<totfact> 0.34459889E+04</totfact>
</mgrwt>
</event>
<event>
 6    1  0.6513574E-002  0.3000000E+03  0.7818608E-02  0.1093470E+00
         21   -1    0    0  501  502  0.00000000000E+00  0.00000000000E+00  0.20448892565E+01  0.20448892565E+01  0.00000000000E+00 0. -1.
         13   -1    0    0    0    0 -0.00000000000E+00 -0.00000000000E+00 -0.10000000000E+04  0.10000000000E+04  0.00000000000E+00 0.  1.
    9000005    2    1    2  501    0 -0.18913481715E+01 -0.44941559406E+02 -0.54310605307E+03  0.54497707566E+03  0.35365453946E+01 0.  0.
         13    1    3    3    0    0 -0.71928478019E+00 -0.40624198321E+02 -0.49341952725E+03  0.49508956031E+03  0.00000000000E+00 0.  1.
          3    1    3    3  501    0 -0.11720633913E+01 -0.43173610852E+01 -0.49686525824E+02  0.49887515349E+02  0.00000000000E+00 0.  1.
         -3    1    1    2    0  502  0.18913481715E+01  0.44941559406E+02 -0.45484905767E+03  0.45706781359E+03  0.00000000000E+00 0. -1.
<mgrwt>
<rscale>  1 0.30000000E+03</rscale>
<asrwt>0</asrwt>
<pdfrwt beam="1">  1       21 0.74359766E-02 0.30000000E+03</pdfrwt>
<pdfrwt beam="2">0</pdfrwt>
<totfact> 0.14520753E+04</totfact>
</mgrwt>
</event>
<event>
 6    1  0.6513574E-002  0.3000000E+03  0.7818608E-02  0.1093470E+00
         21   -1    0    0  501  502  0.00000000000E+00  0.00000000000E+00  0.15034884280E+01  0.15034884280E+01  0.00000000000E+00 0. -1.
         13   -1    0    0    0    0 -0.00000000000E+00 -0.00000000000E+00 -0.10000000000E+04  0.10000000000E+04  0.00000000000E+00 0.  1.
    9000005    2    1    2  501    0  0.40026956631E+01 -0.38451495028E+02 -0.52638345990E+03  0.52781026217E+03  0.30962807753E+01 0.  0.
         13    1    3    3    0    0  0.25183307515E+01 -0.24841747559E+02 -0.35962515195E+03  0.36049092129E+03  0.00000000000E+00 0.  1.
          3    1    3    3  501    0  0.14843649116E+01 -0.13609747468E+02 -0.16675830795E+03  0.16731934088E+03  0.00000000000E+00 0.  1.
         -3    1    1    2    0  502 -0.40026956631E+01  0.38451495028E+02 -0.47211305167E+03  0.47369322626E+03  0.00000000000E+00 0. -1.
<mgrwt>
<rscale>  1 0.30000000E+03</rscale>
<asrwt>0</asrwt>
<pdfrwt beam="1">  1       21 0.54672422E-02 0.30000000E+03</pdfrwt>
<pdfrwt beam="2">0</pdfrwt>
<totfact> 0.24726073E+04</totfact>
</mgrwt>
</event>
<event>
 6    1  0.6513574E-002  0.3000000E+03  0.7818608E-02  0.1093470E+00
         21   -1    0    0  501  502  0.00000000000E+00  0.00000000000E+00  0.94432782967E+00  0.94432782967E+00  0.00000000000E+00 0. -1.
         13   -1    0    0    0    0 -0.00000000000E+00 -0.00000000000E+00 -0.10000000000E+04  0.10000000000E+04  0.00000000000E+00 0.  1.
    9000005    2    1    2  501    0 -0.11795258330E+02 -0.28038589984E+02 -0.56374648615E+03  0.56457363899E+03  0.28288770027E+01 0.  0.
         13    1    3    3    0    0 -0.91418376117E+01 -0.18943450170E+02 -0.40201596497E+03  0.40256585001E+03  0.00000000000E+00 0.  1.
          3    1    3    3  501    0 -0.26534207181E+01 -0.90951398146E+01 -0.16173052118E+03  0.16200778898E+03  0.00000000000E+00 0.  1.
         -3    1    1    2    0  502  0.11795258330E+02  0.28038589984E+02 -0.43530918602E+03  0.43637068884E+03  0.00000000000E+00 0. -1.
<mgrwt>
<rscale>  1 0.30000000E+03</rscale>
<asrwt>0</asrwt>
<pdfrwt beam="1">  1       21 0.34339266E-02 0.30000000E+03</pdfrwt>
<pdfrwt beam="2">0</pdfrwt>
<totfact> 0.54321869E+04</totfact>
</mgrwt>
</event>
<event>
 6    1  0.6513574E-002  0.3000000E+03  0.7818608E-02  0.1093470E+00
         21   -1    0    0  501  502  0.00000000000E+00  0.00000000000E+00  0.20662940173E+01  0.20662940173E+01  0.00000000000E+00 0. -1.
         13   -1    0    0    0    0 -0.00000000000E+00 -0.00000000000E+00 -0.10000000000E+04  0.10000000000E+04  0.00000000000E+00 0.  1.
    9000005    2    1    2  501    0  0.39049551355E+02  0.16865801346E+02 -0.32438670707E+03  0.32717750135E+03  0.30098095489E+01 0.  0.
         13    1    3    3    0    0  0.21257033904E+02  0.78923852108E+01 -0.17973162180E+03  0.18115630574E+03  0.00000000000E+00 0.  1.
          3    1    3    3  501    0  0.17792517451E+02  0.89734161355E+01 -0.14465508527E+03  0.14602119562E+03  0.00000000000E+00 0.  1.
         -3    1    1    2    0  502 -0.39049551355E+02 -0.16865801346E+02 -0.67354699892E+03  0.67488879266E+03  0.00000000000E+00 0. -1.
<mgrwt>
<rscale>  1 0.30000000E+03</rscale>
<asrwt>0</asrwt>
<pdfrwt beam="1">  1       21 0.75138123E-02 0.30000000E+03</pdfrwt>
<pdfrwt beam="2">0</pdfrwt>
<totfact> 0.14258454E+04</totfact>
</mgrwt>
</event>
<event>
 6    1  0.6513574E-002  0.3000000E+03  0.7818608E-02  0.1093470E+00
         21   -1    0    0  501  502  0.00000000000E+00  0.00000000000E+00  0.11590903400E+01  0.11590903400E+01  0.00000000000E+00 0. -1.
         13   -1    0    0    0    0 -0.00000000000E+00 -0.00000000000E+00 -0.10000000000E+04  0.10000000000E+04  0.00000000000E+00 0.  1.
    9000005    2    1    2  501    0 -0.21757460522E+02  0.23359319406E+02 -0.32862531783E+03  0.33018369257E+03  0.27615979924E+01 0.  0.
         13    1    3    3    0    0 -0.96026316045E+01  0.91440500453E+01 -0.12508301097E+03  0.12578387742E+03  0.00000000000E+00 0.  1.
          3    1    3    3  501    0 -0.12154828918E+02  0.14215269361E+02 -0.20354230686E+03  0.20439981515E+03  0.00000000000E+00 0.  1.
         -1    1    1    2    0  502  0.21757460522E+02 -0.23359319406E+02 -0.67021559183E+03  0.67097539777E+03  0.00000000000E+00 0. -1.
<mgrwt>
<rscale>  1 0.30000000E+03</rscale>
<asrwt>0</asrwt>
<pdfrwt beam="1">  1       21 0.42148829E-02 0.30000000E+03</pdfrwt>
<pdfrwt beam="2">0</pdfrwt>
<totfact> 0.38495803E+04</totfact>
</mgrwt>
</event>
<event>
 6    1  0.6513574E-002  0.3000000E+03  0.7818608E-02  0.1093470E+00
         21   -1    0    0  501  502  0.00000000000E+00  0.00000000000E+00  0.10872883247E+01  0.10872883247E+01  0.00000000000E+00 0. -1.
         13   -1    0    0    0    0 -0.00000000000E+00 -0.00000000000E+00 -0.10000000000E+04  0.10000000000E+04  0.00000000000E+00 0.  1.
    9000005    2    1    2  501    0  0.90930682553E+01  0.29024350852E+02 -0.31134261994E+03  0.31284479626E+03  0.35415708376E+01 0.  0.
         13    1    3    3    0    0  0.32882960536E+01  0.56962266141E+01 -0.69034571577E+02  0.69347184235E+02  0.00000000000E+00 0.  1.
          1    1    3    3  501    0  0.58047722017E+01  0.23328124238E+02 -0.24230804836E+03  0.24349761202E+03  0.00000000000E+00 0.  1.
         -3    1    1    2    0  502 -0.90930682553E+01 -0.29024350852E+02 -0.68757009174E+03  0.68824249207E+03  0.00000000000E+00 0. -1.
<mgrwt>
<rscale>  1 0.30000000E+03</rscale>
<asrwt>0</asrwt>
<pdfrwt beam="1">  1       21 0.39537841E-02 0.30000000E+03</pdfrwt>
<pdfrwt beam="2">0</pdfrwt>
<totfact> 0.42878076E+04</totfact>
</mgrwt>
</event>
<event>
 6    1  0.6513574E-002  0.3000000E+03  0.7818608E-02  0.1093470E+00
         21   -1    0    0  501  502  0.00000000000E+00  0.00000000000E+00  0.12117278521E+01  0.12117278521E+01  0.00000000000E+00 0. -1.
         13   -1    0    0    0    0 -0.00000000000E+00 -0.00000000000E+00 -0.10000000000E+04  0.10000000000E+04  0.00000000000E+00 0.  1.
    9000005    2    1    2  501    0 -0.58113447476E+01 -0.33614114761E+02 -0.58815957628E+03  0.58916851857E+03  0.49168764616E+01 0.  0.
         13    1    3    3    0    0 -0.61453227001E+01 -0.33469338783E+02 -0.57663530118E+03  0.57763849612E+03  0.00000000000E+00 0.  1.
          3    1    3    3  501    0  0.33397795248E+00 -0.14477597830E+00 -0.11524275091E+02  0.11530022451E+02  0.00000000000E+00 0.  1.
         -1    1    1    2    0  502  0.58113447476E+01  0.33614114761E+02 -0.41062869587E+03  0.41204320928E+03  0.00000000000E+00 0. -1.
<mgrwt>
<rscale>  1 0.30000000E+03</rscale>
<asrwt>0</asrwt>
<pdfrwt beam="1">  1       21 0.44062924E-02 0.30000000E+03</pdfrwt>
<pdfrwt beam="2">0</pdfrwt>
<totfact> 0.35709849E+04</totfact>
</mgrwt>
</event>
<event>
 6    1  0.6513574E-002  0.3000000E+03  0.7818608E-02  0.1093470E+00
         21   -1    0    0  501  502  0.00000000000E+00  0.00000000000E+00  0.21004623865E+01  0.21004623865E+01  0.00000000000E+00 0. -1.
         13   -1    0    0    0    0 -0.00000000000E+00 -0.00000000000E+00 -0.10000000000E+04  0.10000000000E+04  0.00000000000E+00 0.  1.
    9000005    2    1    2  501    0 -0.34622855954E+02 -0.29177288037E+02 -0.42532070282E+03  0.42773422178E+03  0.29678182790E+01 0.  0.
         13    1    3    3    0    0 -0.14074454204E+02 -0.13215397251E+02 -0.17143128213E+03  0.17251498914E+03  0.00000000000E+00 0.  1.
          1    1    3    3  501    0 -0.20548401750E+02 -0.15961890786E+02 -0.25388942069E+03  0.25521923264E+03  0.00000000000E+00 0.  1.
         -3    1    1    2    0  502  0.34622855954E+02  0.29177288037E+02 -0.57257883480E+03  0.57436624061E+03  0.00000000000E+00 0. -1.
<mgrwt>
<rscale>  1 0.30000000E+03</rscale>
<asrwt>0</asrwt>
<pdfrwt beam="1">  1       21 0.76380611E-02 0.30000000E+03</pdfrwt>
<pdfrwt beam="2">0</pdfrwt>
<totfact> 0.13854660E+04</totfact>
</mgrwt>
</event>
<event>
 6    1  0.6513574E-002  0.3000000E+03  0.7818608E-02  0.1093470E+00
         21   -1    0    0  501  502  0.00000000000E+00  0.00000000000E+00  0.10406487417E+01  0.10406487417E+01  0.00000000000E+00 0. -1.
         13   -1    0    0    0    0 -0.00000000000E+00 -0.00000000000E+00 -0.10000000000E+04  0.10000000000E+04  0.00000000000E+00 0.  1.
    9000005    2    1    2  501    0 -0.19028988644E+02  0.23458509355E+02 -0.32805968260E+03  0.32946133885E+03  0.30355195117E+01 0.  0.
         13    1    3    3    0    0 -0.34156897514E+01  0.40226906180E+01 -0.70854563725E+02  0.71050814048E+02  0.00000000000E+00 0.  1.
          1    1    3    3  501    0 -0.15613298893E+02  0.19435818737E+02 -0.25720511887E+03  0.25841052480E+03  0.00000000000E+00 0.  1.
         -3    1    1    2    0  502  0.19028988644E+02 -0.23458509355E+02 -0.67089966866E+03  0.67157930990E+03  0.00000000000E+00 0. -1.
<mgrwt>
<rscale>  1 0.30000000E+03</rscale>
<asrwt>0</asrwt>
<pdfrwt beam="1">  1       21 0.37841852E-02 0.30000000E+03</pdfrwt>
<pdfrwt beam="2">0</pdfrwt>
<totfact> 0.46158354E+04</totfact>
</mgrwt>
</event>
<event>
 6    1  0.6513574E-002  0.3000000E+03  0.7818608E-02  0.1093470E+00
         21   -1    0    0  501  502  0.00000000000E+00  0.00000000000E+00  0.18314055086E+01  0.18314055086E+01  0.00000000000E+00 0. -1.
         13   -1    0    0    0    0 -0.00000000000E+00 -0.00000000000E+00 -0.10000000000E+04  0.10000000000E+04  0.00000000000E+00 0.  1.
    9000005    2    1    2  501    0  0.57154963244E+01 -0.34099797959E+02 -0.20512476958E+03  0.20803422023E+03  0.25695474793E+01 0.  0.
         13    1    3    3    0    0  0.14406044355E+01 -0.40168289981E+01 -0.27563216826E+02  0.27891596909E+02  0.00000000000E+00 0.  1.
          3    1    3    3  501    0  0.42748918889E+01 -0.30082968961E+02 -0.17756155275E+03  0.18014262332E+03  0.00000000000E+00 0.  1.
         -1    1    1    2    0  502 -0.57154963244E+01  0.34099797959E+02 -0.79304382491E+03  0.79379718528E+03  0.00000000000E+00 0. -1.
<mgrwt>
<rscale>  1 0.30000000E+03</rscale>
<asrwt>0</asrwt>
<pdfrwt beam="1">  1       21 0.66596704E-02 0.30000000E+03</pdfrwt>
<pdfrwt beam="2">0</pdfrwt>
<totfact> 0.17594454E+04</totfact>
</mgrwt>
</event>
<event>
 6    1  0.6513574E-002  0.3000000E+03  0.7818608E-02  0.1093470E+00
         21   -1    0    0  501  502  0.00000000000E+00  0.00000000000E+00  0.26705372553E+01  0.26705372553E+01  0.00000000000E+00 0. -1.
         13   -1    0    0    0    0 -0.00000000000E+00 -0.00000000000E+00 -0.10000000000E+04  0.10000000000E+04  0.00000000000E+00 0.  1.
    9000005    2    1    2  501    0 -0.43242874172E+02 -0.15656814653E+02 -0.27190252687E+03  0.27578724449E+03  0.35409168621E+01 0.  0.
         13    1    3    3    0    0 -0.24086020732E+02 -0.10573683920E+02 -0.15621071274E+03  0.15840999325E+03  0.00000000000E+00 0.  1.
          1    1    3    3  501    0 -0.19156853440E+02 -0.50831307333E+01 -0.11569181413E+03  0.11737725124E+03  0.00000000000E+00 0.  1.
         -3    1    1    2    0  502  0.43242874172E+02  0.15656814653E+02 -0.72542693588E+03  0.72688329277E+03  0.00000000000E+00 0. -1.
<mgrwt>
<rscale>  1 0.30000000E+03</rscale>
<asrwt>0</asrwt>
<pdfrwt beam="1">  1       21 0.97110650E-02 0.30000000E+03</pdfrwt>
<pdfrwt beam="2">0</pdfrwt>
<totfact> 0.90655227E+03</totfact>
</mgrwt>
</event>
<event>
 6    1  0.6513574E-002  0.3000000E+03  0.7818608E-02  0.1093470E+00
         21   -1    0    0  501  502  0.00000000000E+00  0.00000000000E+00  0.23011608898E+01  0.23011608898E+01  0.00000000000E+00 0. -1.
         13   -1    0    0    0    0 -0.00000000000E+00 -0.00000000000E+00 -0.10000000000E+04  0.10000000000E+04  0.00000000000E+00 0.  1.
    9000005    2    1    2  501    0  0.30357711253E+02 -0.33323153383E+02 -0.33520534726E+03  0.33827582257E+03  0.59903356570E+01 0.  0.
         13    1    3    3    0    0  0.23208410352E+02 -0.24889117791E+02 -0.23255707831E+03  0.23503381282E+03  0.00000000000E+00 0.  1.
          1    1    3    3  501    0  0.71493009007E+01 -0.84340355925E+01 -0.10264826895E+03  0.10324200976E+03  0.00000000000E+00 0.  1.
         -1    1    1    2    0  502 -0.30357711253E+02  0.33323153383E+02 -0.66249349185E+03  0.66402533832E+03  0.00000000000E+00 0. -1.
<mgrwt>
<rscale>  1 0.30000000E+03</rscale>
<asrwt>0</asrwt>
<pdfrwt beam="1">  1       21 0.83678754E-02 0.30000000E+03</pdfrwt>
<pdfrwt beam="2">0</pdfrwt>
<totfact> 0.11802673E+04</totfact>
</mgrwt>
</event>
<event>
 6    1  0.6513574E-002  0.3000000E+03  0.7818608E-02  0.1093470E+00
         21   -1    0    0  501  502  0.00000000000E+00  0.00000000000E+00  0.93050976354E+01  0.93050976354E+01  0.00000000000E+00 0. -1.
         13   -1    0    0    0    0 -0.00000000000E+00 -0.00000000000E+00 -0.10000000000E+04  0.10000000000E+04  0.00000000000E+00 0.  1.
    9000005    2    1    2  501    0  0.33395915358E+02  0.73917880808E+02 -0.22262005763E+03  0.23695925064E+03  0.32948651500E+01 0.  0.
         13    1    3    3    0    0  0.28831914080E+02  0.64973816302E+02 -0.19780152760E+03  0.21018639441E+03  0.00000000000E+00 0.  1.
          1    1    3    3  501    0  0.45640012777E+01  0.89440645058E+01 -0.24818530037E+02  0.26772856231E+02  0.00000000000E+00 0.  1.
         -1    1    1    2    0  502 -0.33395915358E+02 -0.73917880808E+02 -0.76807484473E+03  0.77234584700E+03  0.00000000000E+00 0. -1.
<mgrwt>
<rscale>  1 0.30000000E+03</rscale>
<asrwt>0</asrwt>
<pdfrwt beam="1">  1       21 0.33836790E-01 0.30000000E+03</pdfrwt>
<pdfrwt beam="2">0</pdfrwt>
<totfact> 0.85264322E+02</totfact>
</mgrwt>
</event>
<event>
 6    1  0.6513574E-002  0.3000000E+03  0.7818608E-02  0.1093470E+00
         21   -1    0    0  501  502  0.00000000000E+00  0.00000000000E+00  0.14915395794E+01  0.14915395794E+01  0.00000000000E+00 0. -1.
         13   -1    0    0    0    0 -0.00000000000E+00 -0.00000000000E+00 -0.10000000000E+04  0.10000000000E+04  0.00000000000E+00 0.  1.
    9000005    2    1    2  501    0  0.34410094790E+02  0.15128469920E+02 -0.61050710820E+03  0.61167366602E+03  0.35804060481E+01 0.  0.
         13    1    3    3    0    0  0.10009069930E-02 -0.31999377689E-01 -0.50558942207E+01  0.50559955827E+01  0.00000000000E+00 0.  1.
          1    1    3    3  501    0  0.34409093883E+02  0.15160469297E+02 -0.60545121398E+03  0.60661767044E+03  0.00000000000E+00 0.  1.
         -3    1    1    2    0  502 -0.34410094790E+02 -0.15128469920E+02 -0.38800135222E+03  0.38981787356E+03  0.00000000000E+00 0. -1.
<mgrwt>
<rscale>  1 0.30000000E+03</rscale>
<asrwt>0</asrwt>
<pdfrwt beam="1">  1       21 0.54237917E-02 0.30000000E+03</pdfrwt>
<pdfrwt beam="2">0</pdfrwt>
<totfact> 0.25066445E+04</totfact>
</mgrwt>
</event>
<event>
 6    1  0.6513574E-002  0.3000000E+03  0.7818608E-02  0.1093470E+00
         21   -1    0    0  501  502  0.00000000000E+00  0.00000000000E+00  0.17739963223E+01  0.17739963223E+01  0.00000000000E+00 0. -1.
         13   -1    0    0    0    0 -0.00000000000E+00 -0.00000000000E+00 -0.10000000000E+04  0.10000000000E+04  0.00000000000E+00 0.  1.
    9000005    2    1    2  501    0  0.93556605435E+01 -0.40816585290E+02 -0.54488688221E+03  0.54650497577E+03  0.35287563026E+01 0.  0.
         13    1    3    3    0    0  0.51673556825E+01 -0.15282869601E+02 -0.21658246664E+03  0.21718248669E+03  0.00000000000E+00 0.  1.
          1    1    3    3  501    0  0.41883048609E+01 -0.25533715689E+02 -0.32830441557E+03  0.32932248908E+03  0.00000000000E+00 0.  1.
         -1    1    1    2    0  502 -0.93556605435E+01  0.40816585290E+02 -0.45333912147E+03  0.45526902055E+03  0.00000000000E+00 0. -1.
<mgrwt>
<rscale>  1 0.30000000E+03</rscale>
<asrwt>0</asrwt>
<pdfrwt beam="1">  1       21 0.64509093E-02 0.30000000E+03</pdfrwt>
<pdfrwt beam="2">0</pdfrwt>
<totfact> 0.18592438E+04</totfact>
</mgrwt>
</event>
<event>
 6    1  0.6513574E-002  0.3000000E+03  0.7818608E-02  0.1093470E+00
         21   -1    0    0  501  502  0.00000000000E+00  0.00000000000E+00  0.11402610097E+01  0.11402610097E+01  0.00000000000E+00 0. -1.
         13   -1    0    0    0    0 -0.00000000000E+00 -0.00000000000E+00 -0.10000000000E+04  0.10000000000E+04  0.00000000000E+00 0.  1.
    9000005    2    1    2  501    0  0.85963640180E+01 -0.31237872371E+02 -0.36457898887E+03  0.36603257556E+03  0.35078627083E+01 0.  0.
         13    1    3    3    0    0  0.47786212601E+01 -0.13423415834E+02 -0.14453162674E+03  0.14523227755E+03  0.00000000000E+00 0.  1.
          1    1    3    3  501    0  0.38177427578E+01 -0.17814456537E+02 -0.22004736213E+03  0.22080029801E+03  0.00000000000E+00 0.  1.
         -3    1    1    2    0  502 -0.85963640180E+01  0.31237872371E+02 -0.63428075012E+03  0.63510768545E+03  0.00000000000E+00 0. -1.
<mgrwt>
<rscale>  1 0.30000000E+03</rscale>
<asrwt>0</asrwt>
<pdfrwt beam="1">  1       21 0.41464124E-02 0.30000000E+03</pdfrwt>
<pdfrwt beam="2">0</pdfrwt>
<totfact> 0.39575034E+04</totfact>
</mgrwt>
</event>
<event>
 6    1  0.6513574E-002  0.3000000E+03  0.7818608E-02  0.1093470E+00
         21   -1    0    0  501  502  0.00000000000E+00  0.00000000000E+00  0.13887430070E+01  0.13887430070E+01  0.00000000000E+00 0. -1.
         13   -1    0    0    0    0 -0.00000000000E+00 -0.00000000000E+00 -0.10000000000E+04  0.10000000000E+04  0.00000000000E+00 0.  1.
    9000005    2    1    2  501    0  0.27025230042E+02  0.15009583309E+02 -0.77817054862E+03  0.77879099693E+03  0.32192408770E+01 0.  0.
         13    1    3    3    0    0  0.94633852977E+00  0.10311224627E+01 -0.49870804799E+02  0.49890439379E+02  0.00000000000E+00 0.  1.
          1    1    3    3  501    0  0.26078891512E+02  0.13978460846E+02 -0.72829974382E+03  0.72890055755E+03  0.00000000000E+00 0.  1.
         -1    1    1    2    0  502 -0.27025230042E+02 -0.15009583309E+02 -0.22044070837E+03  0.22259774608E+03  0.00000000000E+00 0. -1.
<mgrwt>
<rscale>  1 0.30000000E+03</rscale>
<asrwt>0</asrwt>
<pdfrwt beam="1">  1       21 0.50499852E-02 0.30000000E+03</pdfrwt>
<pdfrwt beam="2">0</pdfrwt>
<totfact> 0.28320197E+04</totfact>
</mgrwt>
</event>
<event>
 6    1  0.6513574E-002  0.3000000E+03  0.7818608E-02  0.1093470E+00
         21   -1    0    0  501  502  0.00000000000E+00  0.00000000000E+00  0.15510570840E+01  0.15510570840E+01  0.00000000000E+00 0. -1.
         13   -1    0    0    0    0 -0.00000000000E+00 -0.00000000000E+00 -0.10000000000E+04  0.10000000000E+04  0.00000000000E+00 0.  1.
    9000005    2    1    2  501    0  0.30976573986E+01 -0.38709644596E+02 -0.43807743411E+03  0.43983559536E+03  0.59565591640E+01 0.  0.
         13    1    3    3    0    0  0.11779430117E+01 -0.23427643020E+02 -0.23176534567E+03  0.23294938820E+03  0.00000000000E+00 0.  1.
          3    1    3    3  501    0  0.19197143869E+01 -0.15282001576E+02 -0.20631208844E+03  0.20688620716E+03  0.00000000000E+00 0.  1.
         -3    1    1    2    0  502 -0.30976573986E+01  0.38709644596E+02 -0.56037150880E+03  0.56171546173E+03  0.00000000000E+00 0. -1.
<mgrwt>
<rscale>  1 0.30000000E+03</rscale>
<asrwt>0</asrwt>
<pdfrwt beam="1">  1       21 0.56402195E-02 0.30000000E+03</pdfrwt>
<pdfrwt beam="2">0</pdfrwt>
<totfact> 0.23439185E+04</totfact>
</mgrwt>
</event>
<event>
 6    1  0.6513574E-002  0.3000000E+03  0.7818608E-02  0.1093470E+00
         21   -1    0    0  501  502  0.00000000000E+00  0.00000000000E+00  0.15913048815E+01  0.15913048815E+01  0.00000000000E+00 0. -1.
         13   -1    0    0    0    0 -0.00000000000E+00 -0.00000000000E+00 -0.10000000000E+04  0.10000000000E+04  0.00000000000E+00 0.  1.
    9000005    2    1    2  501    0 -0.26705392969E+02  0.16740922361E+02 -0.19471003184E+03  0.19727483865E+03  0.34538341273E+01 0.  0.
         13    1    3    3    0    0 -0.91366123033E+01  0.61152151550E+01 -0.78277759904E+02  0.79046070341E+02  0.00000000000E+00 0.  1.
          3    1    3    3  501    0 -0.17568780666E+02  0.10625707206E+02 -0.11643227194E+03  0.11822876831E+03  0.00000000000E+00 0.  1.
         -3    1    1    2    0  502  0.26705392969E+02 -0.16740922361E+02 -0.80369866328E+03  0.80431646623E+03  0.00000000000E+00 0. -1.
<mgrwt>
<rscale>  1 0.30000000E+03</rscale>
<asrwt>0</asrwt>
<pdfrwt beam="1">  1       21 0.57865754E-02 0.30000000E+03</pdfrwt>
<pdfrwt beam="2">0</pdfrwt>
<totfact> 0.22428892E+04</totfact>
</mgrwt>
</event>
<event>
 6    1  0.6513574E-002  0.3000000E+03  0.7818608E-02  0.1093470E+00
         21   -1    0    0  501  502  0.00000000000E+00  0.00000000000E+00  0.12648898134E+01  0.12648898134E+01  0.00000000000E+00 0. -1.
         13   -1    0    0    0    0 -0.00000000000E+00 -0.00000000000E+00 -0.10000000000E+04  0.10000000000E+04  0.00000000000E+00 0.  1.
    9000005    2    1    2  501    0  0.23278084975E+01  0.30526025850E+02 -0.24744289807E+03  0.24934917317E+03  0.31249654810E+01 0.  0.
         13    1    3    3    0    0 -0.56626939888E-01  0.24337852397E+00 -0.56696394247E+01  0.56751432513E+01  0.00000000000E+00 0.  1.
          1    1    3    3  501    0  0.23844354374E+01  0.30282647326E+02 -0.24177325864E+03  0.24367402992E+03  0.00000000000E+00 0.  1.
         -1    1    1    2    0  502 -0.23278084975E+01 -0.30526025850E+02 -0.75129221212E+03  0.75191571665E+03  0.00000000000E+00 0. -1.
<mgrwt>
<rscale>  1 0.30000000E+03</rscale>
<asrwt>0</asrwt>
<pdfrwt beam="1">  1       21 0.45996090E-02 0.30000000E+03</pdfrwt>
<pdfrwt beam="2">0</pdfrwt>
<totfact> 0.33200578E+04</totfact>
</mgrwt>
</event>
<event>
 6    1  0.6513574E-002  0.3000000E+03  0.7818608E-02  0.1093470E+00
         21   -1    0    0  501  502  0.00000000000E+00  0.00000000000E+00  0.29540186812E+01  0.29540186812E+01  0.00000000000E+00 0. -1.
         13   -1    0    0    0    0 -0.00000000000E+00 -0.00000000000E+00 -0.10000000000E+04  0.10000000000E+04  0.00000000000E+00 0.  1.
    9000005    2    1    2  501    0  0.54139025374E+02  0.25592977435E+01 -0.53211940664E+03  0.53487891369E+03  0.26086989253E+01 0.  0.
         13    1    3    3    0    0  0.52344598568E+02  0.23972744632E+01 -0.50929135529E+03  0.51197987118E+03  0.00000000000E+00 0.  1.
          1    1    3    3  501    0  0.17944268057E+01  0.16202328031E+00 -0.22828051353E+02  0.22899042506E+02  0.00000000000E+00 0.  1.
         -3    1    1    2    0  502 -0.54139025374E+02 -0.25592977435E+01 -0.46492657468E+03  0.46807510499E+03  0.00000000000E+00 0. -1.
<mgrwt>
<rscale>  1 0.30000000E+03</rscale>
<asrwt>0</asrwt>
<pdfrwt beam="1">  1       21 0.10741909E-01 0.30000000E+03</pdfrwt>
<pdfrwt beam="2">0</pdfrwt>
<totfact> 0.75681914E+03</totfact>
</mgrwt>
</event>
<event>
 6    1  0.6513574E-002  0.3000000E+03  0.7818608E-02  0.1093470E+00
         21   -1    0    0  501  502  0.00000000000E+00  0.00000000000E+00  0.11245080211E+01  0.11245080211E+01  0.00000000000E+00 0. -1.
         13   -1    0    0    0    0 -0.00000000000E+00 -0.00000000000E+00 -0.10000000000E+04  0.10000000000E+04  0.00000000000E+00 0.  1.
    9000005    2    1    2  501    0 -0.17408708052E+02 -0.26444187448E+02 -0.33784396699E+03  0.33933524006E+03  0.27387854813E+01 0.  0.
         13    1    3    3    0    0 -0.16978814387E+02 -0.25502944816E+02 -0.33078428915E+03  0.33220012986E+03  0.00000000000E+00 0.  1.
          1    1    3    3  501    0 -0.42989366451E+00 -0.94124263138E+00 -0.70596778434E+01  0.71351101959E+01  0.00000000000E+00 0.  1.
         -3    1    1    2    0  502  0.17408708052E+02  0.26444187448E+02 -0.66103152498E+03  0.66178926796E+03  0.00000000000E+00 0. -1.
<mgrwt>
<rscale>  1 0.30000000E+03</rscale>
<asrwt>0</asrwt>
<pdfrwt beam="1">  1       21 0.40891287E-02 0.30000000E+03</pdfrwt>
<pdfrwt beam="2">0</pdfrwt>
<totfact> 0.40514604E+04</totfact>
</mgrwt>
</event>
<event>
 6    1  0.6513574E-002  0.3000000E+03  0.7818608E-02  0.1093470E+00
         21   -1    0    0  501  502  0.00000000000E+00  0.00000000000E+00  0.17787529252E+01  0.17787529252E+01  0.00000000000E+00 0. -1.
         13   -1    0    0    0    0 -0.00000000000E+00 -0.00000000000E+00 -0.10000000000E+04  0.10000000000E+04  0.00000000000E+00 0.  1.
    9000005    2    1    2  501    0 -0.34689505601E+02  0.23459633141E+02 -0.54913383361E+03  0.55074303248E+03  0.40254717701E+01 0.  0.
         13    1    3    3    0    0 -0.98868466674E+01  0.59738043151E+01 -0.17467197763E+03  0.17505352280E+03  0.00000000000E+00 0.  1.
          1    1    3    3  501    0 -0.24802658933E+02  0.17485828826E+02 -0.37446185598E+03  0.37568950968E+03  0.00000000000E+00 0.  1.
         -1    1    1    2    0  502  0.34689505601E+02 -0.23459633141E+02 -0.44908741346E+03  0.45103572044E+03  0.00000000000E+00 0. -1.
<mgrwt>
<rscale>  1 0.30000000E+03</rscale>
<asrwt>0</asrwt>
<pdfrwt beam="1">  1       21 0.64682061E-02 0.30000000E+03</pdfrwt>
<pdfrwt beam="2">0</pdfrwt>
<totfact> 0.18506471E+04</totfact>
</mgrwt>
</event>
<event>
 6    1  0.6513574E-002  0.3000000E+03  0.7818608E-02  0.1093470E+00
         21   -1    0    0  501  502  0.00000000000E+00  0.00000000000E+00  0.18555517660E+01  0.18555517660E+01  0.00000000000E+00 0. -1.
         13   -1    0    0    0    0 -0.00000000000E+00 -0.00000000000E+00 -0.10000000000E+04  0.10000000000E+04  0.00000000000E+00 0.  1.
    9000005    2    1    2  501    0  0.35285866481E+02  0.12533812012E+02 -0.74602921910E+03  0.74697464315E+03  0.30549856616E+01 0.  0.
         13    1    3    3    0    0  0.25736892087E+02  0.10392277417E+02 -0.53858396603E+03  0.53929868858E+03  0.00000000000E+00 0.  1.
          3    1    3    3  501    0  0.95489743943E+01  0.21415345946E+01 -0.20744525307E+03  0.20767595457E+03  0.00000000000E+00 0.  1.
         -1    1    1    2    0  502 -0.35285866481E+02 -0.12533812012E+02 -0.25211522913E+03  0.25488090862E+03  0.00000000000E+00 0. -1.
<mgrwt>
<rscale>  1 0.30000000E+03</rscale>
<asrwt>0</asrwt>
<pdfrwt beam="1">  1       21 0.67474752E-02 0.30000000E+03</pdfrwt>
<pdfrwt beam="2">0</pdfrwt>
<totfact> 0.17199170E+04</totfact>
</mgrwt>
</event>
<event>
 6    1  0.6513574E-002  0.3000000E+03  0.7818608E-02  0.1093470E+00
         21   -1    0    0  501  502  0.00000000000E+00  0.00000000000E+00  0.28821414762E+01  0.28821414762E+01  0.00000000000E+00 0. -1.
         13   -1    0    0    0    0 -0.00000000000E+00 -0.00000000000E+00 -0.10000000000E+04  0.10000000000E+04  0.00000000000E+00 0.  1.
    9000005    2    1    2  501    0 -0.11311909595E+02 -0.51161481094E+02 -0.59701906736E+03  0.59936696315E+03  0.79707767178E+01 0.  0.
         13    1    3    3    0    0 -0.81145420124E+01 -0.37264327887E+02 -0.39125203425E+03  0.39310638538E+03  0.00000000000E+00 0.  1.
          3    1    3    3  501    0 -0.31973675824E+01 -0.13897153207E+02 -0.20576703311E+03  0.20626057777E+03  0.00000000000E+00 0.  1.
         -3    1    1    2    0  502  0.11311909595E+02  0.51161481094E+02 -0.40009879117E+03  0.40351517833E+03  0.00000000000E+00 0. -1.
<mgrwt>
<rscale>  1 0.30000000E+03</rscale>
<asrwt>0</asrwt>
<pdfrwt beam="1">  1       21 0.10480537E-01 0.30000000E+03</pdfrwt>
<pdfrwt beam="2">0</pdfrwt>
<totfact> 0.79101315E+03</totfact>
</mgrwt>
</event>
<event>
 6    1  0.6513574E-002  0.3000000E+03  0.7818608E-02  0.1093470E+00
         21   -1    0    0  501  502  0.00000000000E+00  0.00000000000E+00  0.21285309550E+01  0.21285309550E+01  0.00000000000E+00 0. -1.
         13   -1    0    0    0    0 -0.00000000000E+00 -0.00000000000E+00 -0.10000000000E+04  0.10000000000E+04  0.00000000000E+00 0.  1.
    9000005    2    1    2  501    0  0.30727692635E+02 -0.25310866074E+02 -0.24785446176E+03  0.25105573671E+03  0.35096560068E+01 0.  0.
         13    1    3    3    0    0  0.40140461546E+01 -0.42117768322E+01 -0.43081906196E+02  0.43473006247E+02  0.00000000000E+00 0.  1.
          1    1    3    3  501    0  0.26713646481E+02 -0.21099089242E+02 -0.20477255556E+03  0.20758273046E+03  0.00000000000E+00 0.  1.
         -3    1    1    2    0  502 -0.30727692635E+02  0.25310866074E+02 -0.75001700729E+03  0.75107279424E+03  0.00000000000E+00 0. -1.
<mgrwt>
<rscale>  1 0.30000000E+03</rscale>
<asrwt>0</asrwt>
<pdfrwt beam="1">  1       21 0.77401289E-02 0.30000000E+03</pdfrwt>
<pdfrwt beam="2">0</pdfrwt>
<totfact> 0.13536011E+04</totfact>
</mgrwt>
</event>
<event>
 6    1  0.6513574E-002  0.3000000E+03  0.7818608E-02  0.1093470E+00
         21   -1    0    0  501  502  0.00000000000E+00  0.00000000000E+00  0.20479826351E+01  0.20479826351E+01  0.00000000000E+00 0. -1.
         13   -1    0    0    0    0 -0.00000000000E+00 -0.00000000000E+00 -0.10000000000E+04  0.10000000000E+04  0.00000000000E+00 0.  1.
    9000005    2    1    2  501    0  0.40400184035E+02  0.16161241146E+02 -0.36478112412E+03  0.36738370868E+03  0.34871624584E+01 0.  0.
         13    1    3    3    0    0  0.22488808247E+02  0.83222940466E+01 -0.18722339213E+03  0.18875276326E+03  0.00000000000E+00 0.  1.
          1    1    3    3  501    0  0.17911375788E+02  0.78389470994E+01 -0.17755773198E+03  0.17863094542E+03  0.00000000000E+00 0.  1.
         -3    1    1    2    0  502 -0.40400184035E+02 -0.16161241146E+02 -0.63317089325E+03  0.63466427396E+03  0.00000000000E+00 0. -1.
<mgrwt>
<rscale>  1 0.30000000E+03</rscale>
<asrwt>0</asrwt>
<pdfrwt beam="1">  1       21 0.74472253E-02 0.30000000E+03</pdfrwt>
<pdfrwt beam="2">0</pdfrwt>
<totfact> 0.14482390E+04</totfact>
</mgrwt>
</event>
<event>
 6    1  0.6513574E-002  0.3000000E+03  0.7818608E-02  0.1093470E+00
         21   -1    0    0  501  502  0.00000000000E+00  0.00000000000E+00  0.11485125660E+01  0.11485125660E+01  0.00000000000E+00 0. -1.
         13   -1    0    0    0    0 -0.00000000000E+00 -0.00000000000E+00 -0.10000000000E+04  0.10000000000E+04  0.00000000000E+00 0.  1.
    9000005    2    1    2  501    0 -0.70055593563E+01  0.29922173887E+02 -0.29140473884E+03  0.29303459769E+03  0.28529405720E+01 0.  0.
         13    1    3    3    0    0 -0.13646499748E+01  0.55515058697E+01 -0.44434459802E+02  0.44800699826E+02  0.00000000000E+00 0.  1.
          3    1    3    3  501    0 -0.56409093815E+01  0.24370668018E+02 -0.24697027904E+03  0.24823389786E+03  0.00000000000E+00 0.  1.
         -3    1    1    2    0  502  0.70055593563E+01 -0.29922173887E+02 -0.70744674859E+03  0.70811391488E+03  0.00000000000E+00 0. -1.
<mgrwt>
<rscale>  1 0.30000000E+03</rscale>
<asrwt>0</asrwt>
<pdfrwt beam="1">  1       21 0.41764181E-02 0.30000000E+03</pdfrwt>
<pdfrwt beam="2">0</pdfrwt>
<totfact> 0.39096360E+04</totfact>
</mgrwt>
</event>
<event>
 6    1  0.6513574E-002  0.3000000E+03  0.7818608E-02  0.1093470E+00
         21   -1    0    0  501  502  0.00000000000E+00  0.00000000000E+00  0.11395075159E+01  0.11395075159E+01  0.00000000000E+00 0. -1.
         13   -1    0    0    0    0 -0.00000000000E+00 -0.00000000000E+00 -0.10000000000E+04  0.10000000000E+04  0.00000000000E+00 0.  1.
    9000005    2    1    2  501    0  0.56837448261E+01  0.32794833680E+02 -0.42309753076E+03  0.42441531506E+03  0.30055033352E+01 0.  0.
         13    1    3    3    0    0  0.39160641578E+01  0.28444719615E+02 -0.35982412741E+03  0.36096792143E+03  0.00000000000E+00 0.  1.
          1    1    3    3  501    0  0.17676806684E+01  0.43501140655E+01 -0.63273403349E+02  0.63447393632E+02  0.00000000000E+00 0.  1.
         -1    1    1    2    0  502 -0.56837448261E+01 -0.32794833680E+02 -0.57576296172E+03  0.57672419246E+03  0.00000000000E+00 0. -1.
<mgrwt>
<rscale>  1 0.30000000E+03</rscale>
<asrwt>0</asrwt>
<pdfrwt beam="1">  1       21 0.41436724E-02 0.30000000E+03</pdfrwt>
<pdfrwt beam="2">0</pdfrwt>
<totfact> 0.39619198E+04</totfact>
</mgrwt>
</event>
<event>
 6    1  0.6513574E-002  0.3000000E+03  0.7818608E-02  0.1093470E+00
         21   -1    0    0  501  502  0.00000000000E+00  0.00000000000E+00  0.98099012599E+00  0.98099012599E+00  0.00000000000E+00 0. -1.
         13   -1    0    0    0    0 -0.00000000000E+00 -0.00000000000E+00 -0.10000000000E+04  0.10000000000E+04  0.00000000000E+00 0.  1.
    9000005    2    1    2  501    0 -0.15175525887E+02  0.26206385518E+02 -0.62272611895E+03  0.62347150549E+03  0.34391439855E+01 0.  0.
         13    1    3    3    0    0 -0.14540671365E+02  0.23696700853E+02 -0.58142421739E+03  0.58208855454E+03  0.00000000000E+00 0.  1.
          1    1    3    3  501    0 -0.63485452245E+00  0.25096846648E+01 -0.41301901556E+02  0.41382950952E+02  0.00000000000E+00 0.  1.
         -3    1    1    2    0  502  0.15175525887E+02 -0.26206385518E+02 -0.37629289093E+03  0.37750948464E+03  0.00000000000E+00 0. -1.
<mgrwt>
<rscale>  1 0.30000000E+03</rscale>
<asrwt>0</asrwt>
<pdfrwt beam="1">  1       21 0.35672443E-02 0.30000000E+03</pdfrwt>
<pdfrwt beam="2">0</pdfrwt>
<totfact> 0.50965452E+04</totfact>
</mgrwt>
</event>
<event>
 6    1  0.6513574E-002  0.3000000E+03  0.7818608E-02  0.1093470E+00
         21   -1    0    0  501  502  0.00000000000E+00  0.00000000000E+00  0.12849734998E+01  0.12849734998E+01  0.00000000000E+00 0. -1.
         13   -1    0    0    0    0 -0.00000000000E+00 -0.00000000000E+00 -0.10000000000E+04  0.10000000000E+04  0.00000000000E+00 0.  1.
    9000005    2    1    2  501    0  0.30146118567E+02 -0.17710100668E+02 -0.60560052965E+03  0.60661872999E+03  0.34417924250E+01 0.  0.
         13    1    3    3    0    0  0.22869100767E+02 -0.13355012008E+02 -0.43172654364E+03  0.43253804526E+03  0.00000000000E+00 0.  1.
          3    1    3    3  501    0  0.72770178000E+01 -0.43550886609E+01 -0.17387398601E+03  0.17408068473E+03  0.00000000000E+00 0.  1.
         -1    1    1    2    0  502 -0.30146118567E+02  0.17710100668E+02 -0.39311449685E+03  0.39466624351E+03  0.00000000000E+00 0. -1.
<mgrwt>
<rscale>  1 0.30000000E+03</rscale>
<asrwt>0</asrwt>
<pdfrwt beam="1">  1       21 0.46726408E-02 0.30000000E+03</pdfrwt>
<pdfrwt beam="2">0</pdfrwt>
<totfact> 0.32323560E+04</totfact>
</mgrwt>
</event>
<event>
 6    1  0.6513574E-002  0.3000000E+03  0.7818608E-02  0.1093470E+00
         21   -1    0    0  501  502  0.00000000000E+00  0.00000000000E+00  0.11575500508E+01  0.11575500508E+01  0.00000000000E+00 0. -1.
         13   -1    0    0    0    0 -0.00000000000E+00 -0.00000000000E+00 -0.10000000000E+04  0.10000000000E+04  0.00000000000E+00 0.  1.
    9000005    2    1    2  501    0  0.27083682927E+02 -0.20182800886E+02 -0.55139155219E+03  0.55243360681E+03  0.30618251867E+01 0.  0.
         13    1    3    3    0    0  0.92713224163E+01 -0.53770844270E+01 -0.16292444374E+03  0.16327658994E+03  0.00000000000E+00 0.  1.
          3    1    3    3  501    0  0.17812360511E+02 -0.14805716459E+02 -0.38846710845E+03  0.38915701686E+03  0.00000000000E+00 0.  1.
         -1    1    1    2    0  502 -0.27083682927E+02  0.20182800886E+02 -0.44745089776E+03  0.44872394324E+03  0.00000000000E+00 0. -1.
<mgrwt>
<rscale>  1 0.30000000E+03</rscale>
<asrwt>0</asrwt>
<pdfrwt beam="1">  1       21 0.42092818E-02 0.30000000E+03</pdfrwt>
<pdfrwt beam="2">0</pdfrwt>
<totfact> 0.38582357E+04</totfact>
</mgrwt>
</event>
<event>
 6    1  0.6513574E-002  0.3000000E+03  0.7818608E-02  0.1093470E+00
         21   -1    0    0  501  502  0.00000000000E+00  0.00000000000E+00  0.26075887745E+01  0.26075887745E+01  0.00000000000E+00 0. -1.
         13   -1    0    0    0    0 -0.00000000000E+00 -0.00000000000E+00 -0.10000000000E+04  0.10000000000E+04  0.00000000000E+00 0.  1.
    9000005    2    1    2  501    0  0.32919474682E+02  0.38407357251E+02 -0.43372570494E+03  0.43667563820E+03  0.29679907274E+01 0.  0.
         13    1    3    3    0    0  0.14977837764E+02  0.15374891420E+02 -0.18836960483E+03  0.18958858334E+03  0.00000000000E+00 0.  1.
          3    1    3    3  501    0  0.17941636918E+02  0.23032465831E+02 -0.24535610011E+03  0.24708705486E+03  0.00000000000E+00 0.  1.
         -1    1    1    2    0  502 -0.32919474682E+02 -0.38407357251E+02 -0.56366670629E+03  0.56593195058E+03  0.00000000000E+00 0. -1.
<mgrwt>
<rscale>  1 0.30000000E+03</rscale>
<asrwt>0</asrwt>
<pdfrwt beam="1">  1       21 0.94821610E-02 0.30000000E+03</pdfrwt>
<pdfrwt beam="2">0</pdfrwt>
<totfact> 0.94593391E+03</totfact>
</mgrwt>
</event>
<event>
 6    1  0.6513574E-002  0.3000000E+03  0.7818608E-02  0.1093470E+00
         21   -1    0    0  501  502  0.00000000000E+00  0.00000000000E+00  0.29582536863E+01  0.29582536863E+01  0.00000000000E+00 0. -1.
         13   -1    0    0    0    0 -0.00000000000E+00 -0.00000000000E+00 -0.10000000000E+04  0.10000000000E+04  0.00000000000E+00 0.  1.
    9000005    2    1    2  501    0 -0.41628634055E+02 -0.31859895640E+02 -0.36722165103E+03  0.37096035136E+03  0.34416814739E+01 0.  0.
         13    1    3    3    0    0 -0.15024560734E+01 -0.17171603939E+01 -0.20202507788E+02  0.20330945256E+02  0.00000000000E+00 0.  1.
          1    1    3    3  501    0 -0.40126177982E+02 -0.30142735246E+02 -0.34701914324E+03  0.35062940610E+03  0.00000000000E+00 0.  1.
         -1    1    1    2    0  502  0.41628634055E+02  0.31859895640E+02 -0.62982009528E+03  0.63199790233E+03  0.00000000000E+00 0. -1.
<mgrwt>
<rscale>  1 0.30000000E+03</rscale>
<asrwt>0</asrwt>
<pdfrwt beam="1">  1       21 0.10757309E-01 0.30000000E+03</pdfrwt>
<pdfrwt beam="2">0</pdfrwt>
<totfact> 0.75487465E+03</totfact>
</mgrwt>
</event>
<event>
 6    1  0.6513574E-002  0.3000000E+03  0.7818608E-02  0.1093470E+00
         21   -1    0    0  501  502  0.00000000000E+00  0.00000000000E+00  0.52957991312E+01  0.52957991312E+01  0.00000000000E+00 0. -1.
         13   -1    0    0    0    0 -0.00000000000E+00 -0.00000000000E+00 -0.10000000000E+04  0.10000000000E+04  0.00000000000E+00 0.  1.
    9000005    2    1    2  501    0 -0.52002907044E+02 -0.33348219588E+02 -0.76281357707E+03  0.76531732615E+03  0.31064843828E+01 0.  0.
         13    1    3    3    0    0 -0.76713886675E+00 -0.10123536249E+00 -0.86455429980E+01  0.86801016336E+01  0.00000000000E+00 0.  1.
          1    1    3    3  501    0 -0.51235768177E+02 -0.33246984226E+02 -0.75416803408E+03  0.75663722452E+03  0.00000000000E+00 0.  1.
         -3    1    1    2    0  502  0.52002907044E+02  0.33348219588E+02 -0.23189062379E+03  0.23997847298E+03  0.00000000000E+00 0. -1.
<mgrwt>
<rscale>  1 0.30000000E+03</rscale>
<asrwt>0</asrwt>
<pdfrwt beam="1">  1       21 0.19257492E-01 0.30000000E+03</pdfrwt>
<pdfrwt beam="2">0</pdfrwt>
<totfact> 0.25783972E+03</totfact>
</mgrwt>
</event>
<event>
 6    1  0.6513574E-002  0.3000000E+03  0.7818608E-02  0.1093470E+00
         21   -1    0    0  501  502  0.00000000000E+00  0.00000000000E+00  0.20084807928E+01  0.20084807928E+01  0.00000000000E+00 0. -1.
         13   -1    0    0    0    0 -0.00000000000E+00 -0.00000000000E+00 -0.10000000000E+04  0.10000000000E+04  0.00000000000E+00 0.  1.
    9000005    2    1    2  501    0  0.32624320831E+02  0.29470238497E+02 -0.59370776317E+03  0.59534129911E+03  0.30843321050E+01 0.  0.
         13    1    3    3    0    0  0.24682129245E+02  0.22902826819E+02 -0.43731405774E+03  0.43860840402E+03  0.00000000000E+00 0.  1.
          3    1    3    3  501    0  0.79421915855E+01  0.65674116776E+01 -0.15639370543E+03  0.15673289509E+03  0.00000000000E+00 0.  1.
         -1    1    1    2    0  502 -0.32624320831E+02 -0.29470238497E+02 -0.40428375604E+03  0.40666718169E+03  0.00000000000E+00 0. -1.
<mgrwt>
<rscale>  1 0.30000000E+03</rscale>
<asrwt>0</asrwt>
<pdfrwt beam="1">  1       21 0.73035819E-02 0.30000000E+03</pdfrwt>
<pdfrwt beam="2">0</pdfrwt>
<totfact> 0.14984087E+04</totfact>
</mgrwt>
</event>
<event>
 6    1  0.6513574E-002  0.3000000E+03  0.7818608E-02  0.1093470E+00
         21   -1    0    0  501  502  0.00000000000E+00  0.00000000000E+00  0.10658026547E+01  0.10658026547E+01  0.00000000000E+00 0. -1.
         13   -1    0    0    0    0 -0.00000000000E+00 -0.00000000000E+00 -0.10000000000E+04  0.10000000000E+04  0.00000000000E+00 0.  1.
    9000005    2    1    2  501    0  0.30187525658E+02  0.43945162902E+01 -0.67563551384E+03  0.67633108441E+03  0.31288488858E+01 0.  0.
         13    1    3    3    0    0  0.10152142123E+02  0.29037543577E+01 -0.22257763672E+03  0.22282796537E+03  0.00000000000E+00 0.  1.
          1    1    3    3  501    0  0.20035383535E+02  0.14907619325E+01 -0.45305787712E+03  0.45350311905E+03  0.00000000000E+00 0.  1.
         -1    1    1    2    0  502 -0.30187525658E+02 -0.43945162902E+01 -0.32329868350E+03  0.32473471824E+03  0.00000000000E+00 0. -1.
<mgrwt>
<rscale>  1 0.30000000E+03</rscale>
<asrwt>0</asrwt>
<pdfrwt beam="1">  1       21 0.38756542E-02 0.30000000E+03</pdfrwt>
<pdfrwt beam="2">0</pdfrwt>
<totfact> 0.44342200E+04</totfact>
</mgrwt>
</event>
<event>
 6    1  0.6513574E-002  0.3000000E+03  0.7818608E-02  0.1093470E+00
         21   -1    0    0  501  502  0.00000000000E+00  0.00000000000E+00  0.95635270496E+00  0.95635270496E+00  0.00000000000E+00 0. -1.
         13   -1    0    0    0    0 -0.00000000000E+00 -0.00000000000E+00 -0.10000000000E+04  0.10000000000E+04  0.00000000000E+00 0.  1.
    9000005    2    1    2  501    0 -0.28365894325E+02  0.10340636256E+02 -0.45996954063E+03  0.46103742805E+03  0.84840462438E+01 0.  0.
         13    1    3    3    0    0 -0.20377586161E+02  0.44756888823E+01 -0.35042967778E+03  0.35105019140E+03  0.00000000000E+00 0.  1.
          3    1    3    3  501    0 -0.79883081639E+01  0.58649473741E+01 -0.10953986285E+03  0.10998723666E+03  0.00000000000E+00 0.  1.
         -1    1    1    2    0  502  0.28365894325E+02 -0.10340636256E+02 -0.53907410667E+03  0.53991892465E+03  0.00000000000E+00 0. -1.
<mgrwt>
<rscale>  1 0.30000000E+03</rscale>
<asrwt>0</asrwt>
<pdfrwt beam="1">  1       21 0.34776535E-02 0.30000000E+03</pdfrwt>
<pdfrwt beam="2">0</pdfrwt>
<totfact> 0.53184041E+04</totfact>
</mgrwt>
</event>
<event>
 6    1  0.6513574E-002  0.3000000E+03  0.7818608E-02  0.1093470E+00
         21   -1    0    0  501  502  0.00000000000E+00  0.00000000000E+00  0.12693911662E+01  0.12693911662E+01  0.00000000000E+00 0. -1.
         13   -1    0    0    0    0 -0.00000000000E+00 -0.00000000000E+00 -0.10000000000E+04  0.10000000000E+04  0.00000000000E+00 0.  1.
    9000005    2    1    2  501    0 -0.29870767854E+02  0.19140205897E+02 -0.52119937895E+03  0.52242214437E+03  0.41825891481E+01 0.  0.
         13    1    3    3    0    0 -0.61328862204E+01  0.49320679898E+01 -0.13919675305E+03  0.13941905770E+03  0.00000000000E+00 0.  1.
          3    1    3    3  501    0 -0.23737881633E+02  0.14208137907E+02 -0.38200262590E+03  0.38300308667E+03  0.00000000000E+00 0.  1.
         -1    1    1    2    0  502  0.29870767854E+02 -0.19140205897E+02 -0.47753122988E+03  0.47884724680E+03  0.00000000000E+00 0. -1.
<mgrwt>
<rscale>  1 0.30000000E+03</rscale>
<asrwt>0</asrwt>
<pdfrwt beam="1">  1       21 0.46159776E-02 0.30000000E+03</pdfrwt>
<pdfrwt beam="2">0</pdfrwt>
<totfact> 0.33000793E+04</totfact>
</mgrwt>
</event>
<event>
 6    1  0.6513574E-002  0.3000000E+03  0.7818608E-02  0.1093470E+00
         21   -1    0    0  501  502  0.00000000000E+00  0.00000000000E+00  0.12652283058E+01  0.12652283058E+01  0.00000000000E+00 0. -1.
         13   -1    0    0    0    0 -0.00000000000E+00 -0.00000000000E+00 -0.10000000000E+04  0.10000000000E+04  0.00000000000E+00 0.  1.
    9000005    2    1    2  501    0  0.24062750858E+02  0.23468443858E+02 -0.33948444911E+03  0.34115859172E+03  0.31160361787E+01 0.  0.
         13    1    3    3    0    0  0.18323382181E+02  0.17678421213E+02 -0.26985656776E+03  0.27105504990E+03  0.00000000000E+00 0.  1.
          1    1    3    3  501    0  0.57393686775E+01  0.57900226451E+01 -0.69627881345E+02  0.70103541820E+02  0.00000000000E+00 0.  1.
         -1    1    1    2    0  502 -0.24062750858E+02 -0.23468443858E+02 -0.65925032258E+03  0.66010663659E+03  0.00000000000E+00 0. -1.
<mgrwt>
<rscale>  1 0.30000000E+03</rscale>
<asrwt>0</asrwt>
<pdfrwt beam="1">  1       21 0.46008399E-02 0.30000000E+03</pdfrwt>
<pdfrwt beam="2">0</pdfrwt>
<totfact> 0.33185489E+04</totfact>
</mgrwt>
</event>
<event>
 6    1  0.6513574E-002  0.3000000E+03  0.7818608E-02  0.1093470E+00
         21   -1    0    0  501  502  0.00000000000E+00  0.00000000000E+00  0.24090639991E+01  0.24090639991E+01  0.00000000000E+00 0. -1.
         13   -1    0    0    0    0 -0.00000000000E+00 -0.00000000000E+00 -0.10000000000E+04  0.10000000000E+04  0.00000000000E+00 0.  1.
    9000005    2    1    2  501    0 -0.10495087599E+02  0.46968914657E+02 -0.40471168189E+03  0.40757964664E+03  0.36602027657E+01 0.  0.
         13    1    3    3    0    0 -0.82493903806E+01  0.30237134246E+02 -0.27104748357E+03  0.27285357810E+03  0.00000000000E+00 0.  1.
          3    1    3    3  501    0 -0.22456972187E+01  0.16731780411E+02 -0.13366419832E+03  0.13472606854E+03  0.00000000000E+00 0.  1.
         -1    1    1    2    0  502  0.10495087599E+02 -0.46968914657E+02 -0.59287925411E+03  0.59482941736E+03  0.00000000000E+00 0. -1.
<mgrwt>
<rscale>  1 0.30000000E+03</rscale>
<asrwt>0</asrwt>
<pdfrwt beam="1">  1       21 0.87602512E-02 0.30000000E+03</pdfrwt>
<pdfrwt beam="2">0</pdfrwt>
<totfact> 0.10885968E+04</totfact>
</mgrwt>
</event>
<event>
 6    1  0.6513574E-002  0.3000000E+03  0.7818608E-02  0.1093470E+00
         21   -1    0    0  501  502  0.00000000000E+00  0.00000000000E+00  0.10624743490E+01  0.10624743490E+01  0.00000000000E+00 0. -1.
         13   -1    0    0    0    0 -0.00000000000E+00 -0.00000000000E+00 -0.10000000000E+04  0.10000000000E+04  0.00000000000E+00 0.  1.
    9000005    2    1    2  501    0 -0.32365901693E+02  0.14909519247E+00 -0.54871556879E+03  0.54967861967E+03  0.31993236829E+01 0.  0.
         13    1    3    3    0    0 -0.13528124595E+02  0.14787683283E+01 -0.21812712096E+03  0.21855122468E+03  0.00000000000E+00 0.  1.
          1    1    3    3  501    0 -0.18837777098E+02 -0.13296731358E+01 -0.33058844783E+03  0.33112739499E+03  0.00000000000E+00 0.  1.
         -3    1    1    2    0  502  0.32365901693E+02 -0.14909519247E+00 -0.45022195686E+03  0.45138385468E+03  0.00000000000E+00 0. -1.
<mgrwt>
<rscale>  1 0.30000000E+03</rscale>
<asrwt>0</asrwt>
<pdfrwt beam="1">  1       21 0.38635512E-02 0.30000000E+03</pdfrwt>
<pdfrwt beam="2">0</pdfrwt>
<totfact> 0.44576008E+04</totfact>
</mgrwt>
</event>
<event>
 6    1  0.6513574E-002  0.3000000E+03  0.7818608E-02  0.1093470E+00
         21   -1    0    0  501  502  0.00000000000E+00  0.00000000000E+00  0.10036789686E+01  0.10036789686E+01  0.00000000000E+00 0. -1.
         13   -1    0    0    0    0 -0.00000000000E+00 -0.00000000000E+00 -0.10000000000E+04  0.10000000000E+04  0.00000000000E+00 0.  1.
    9000005    2    1    2  501    0  0.22309486722E+02  0.22306063937E+02 -0.47226565486E+03  0.47332909329E+03  0.32106242007E+01 0.  0.
         13    1    3    3    0    0  0.21673904663E+02  0.22112895091E+02 -0.45610957300E+03  0.45715936045E+03  0.00000000000E+00 0.  1.
          1    1    3    3  501    0  0.63558205901E+00  0.19316884622E+00 -0.16156081864E+02  0.16169732835E+02  0.00000000000E+00 0.  1.
         -3    1    1    2    0  502 -0.22309486722E+02 -0.22306063937E+02 -0.52673066617E+03  0.52767458568E+03  0.00000000000E+00 0. -1.
<mgrwt>
<rscale>  1 0.30000000E+03</rscale>
<asrwt>0</asrwt>
<pdfrwt beam="1">  1       21 0.36497494E-02 0.30000000E+03</pdfrwt>
<pdfrwt beam="2">0</pdfrwt>
<totfact> 0.49048101E+04</totfact>
</mgrwt>
</event>
<event>
 6    1  0.6513574E-002  0.3000000E+03  0.7818608E-02  0.1093470E+00
         21   -1    0    0  501  502  0.00000000000E+00  0.00000000000E+00  0.12173235818E+01  0.12173235818E+01  0.00000000000E+00 0. -1.
         13   -1    0    0    0    0 -0.00000000000E+00 -0.00000000000E+00 -0.10000000000E+04  0.10000000000E+04  0.00000000000E+00 0.  1.
    9000005    2    1    2  501    0  0.27368943666E+02  0.18893727756E+02 -0.35254326516E+03  0.35412273336E+03  0.31818940208E+01 0.  0.
         13    1    3    3    0    0  0.12334715678E+01  0.56851006030E+00 -0.21980011611E+02  0.22021933753E+02  0.00000000000E+00 0.  1.
          3    1    3    3  501    0  0.26135472099E+02  0.18325217696E+02 -0.33056325355E+03  0.33210079961E+03  0.00000000000E+00 0.  1.
         -3    1    1    2    0  502 -0.27368943666E+02 -0.18893727756E+02 -0.64623941126E+03  0.64709459022E+03  0.00000000000E+00 0. -1.
<mgrwt>
<rscale>  1 0.30000000E+03</rscale>
<asrwt>0</asrwt>
<pdfrwt beam="1">  1       21 0.44266405E-02 0.30000000E+03</pdfrwt>
<pdfrwt beam="2">0</pdfrwt>
<totfact> 0.35432153E+04</totfact>
</mgrwt>
</event>
<event>
 6    1  0.6513574E-002  0.3000000E+03  0.7818608E-02  0.1093470E+00
         21   -1    0    0  501  502  0.00000000000E+00  0.00000000000E+00  0.17805757863E+02  0.17805757863E+02  0.00000000000E+00 0. -1.
         13   -1    0    0    0    0 -0.00000000000E+00 -0.00000000000E+00 -0.10000000000E+04  0.10000000000E+04  0.00000000000E+00 0.  1.
    9000005    2    1    2  501    0 -0.89919628055E+01 -0.58864576688E+02 -0.35954767409E+02  0.69694457794E+02  0.43218473021E+01 0.  0.
         13    1    3    3    0    0 -0.50042190071E+01 -0.44939085066E+02 -0.26987706077E+02  0.52658331285E+02  0.00000000000E+00 0.  1.
          1    1    3    3  501    0 -0.39877437984E+01 -0.13925491622E+02 -0.89670613314E+01  0.17036126509E+02  0.00000000000E+00 0.  1.
         -3    1    1    2    0  502  0.89919628055E+01  0.58864576688E+02 -0.94623947473E+03  0.94811130007E+03  0.00000000000E+00 0. -1.
<mgrwt>
<rscale>  1 0.30000000E+03</rscale>
<asrwt>0</asrwt>
<pdfrwt beam="1">  1       21 0.64748347E-01 0.30000000E+03</pdfrwt>
<pdfrwt beam="2">0</pdfrwt>
<totfact> 0.21128897E+02</totfact>
</mgrwt>
</event>
<event>
 6    1  0.6513574E-002  0.3000000E+03  0.7818608E-02  0.1093470E+00
         21   -1    0    0  501  502  0.00000000000E+00  0.00000000000E+00  0.12661567805E+01  0.12661567805E+01  0.00000000000E+00 0. -1.
         13   -1    0    0    0    0 -0.00000000000E+00 -0.00000000000E+00 -0.10000000000E+04  0.10000000000E+04  0.00000000000E+00 0.  1.
    9000005    2    1    2  501    0 -0.34914558912E+02 -0.17652461877E+00 -0.40966440009E+03  0.41116288919E+03  0.33080456551E+01 0.  0.
         13    1    3    3    0    0 -0.17045346005E+02 -0.16907345638E+01 -0.19544952819E+03  0.19619867602E+03  0.00000000000E+00 0.  1.
          3    1    3    3  501    0 -0.17869212907E+02  0.15142099451E+01 -0.21421487190E+03  0.21496421317E+03  0.00000000000E+00 0.  1.
         -1    1    1    2    0  502  0.34914558912E+02  0.17652461877E+00 -0.58906944313E+03  0.59010326759E+03  0.00000000000E+00 0. -1.
<mgrwt>
<rscale>  1 0.30000000E+03</rscale>
<asrwt>0</asrwt>
<pdfrwt beam="1">  1       21 0.46042162E-02 0.30000000E+03</pdfrwt>
<pdfrwt beam="2">0</pdfrwt>
<totfact> 0.33144155E+04</totfact>
</mgrwt>
</event>
<event>
 6    1  0.6513574E-002  0.3000000E+03  0.7818608E-02  0.1093470E+00
         21   -1    0    0  501  502  0.00000000000E+00  0.00000000000E+00  0.12077611054E+01  0.12077611054E+01  0.00000000000E+00 0. -1.
         13   -1    0    0    0    0 -0.00000000000E+00 -0.00000000000E+00 -0.10000000000E+04  0.10000000000E+04  0.00000000000E+00 0.  1.
    9000005    2    1    2  501    0 -0.33161331060E+02  0.99997241289E+01 -0.53305822930E+03  0.53418759446E+03  0.23752663516E+01 0.  0.
         13    1    3    3    0    0 -0.17266825896E+02  0.58135433449E+01 -0.29610134791E+03  0.29666133688E+03  0.00000000000E+00 0.  1.
          3    1    3    3  501    0 -0.15894505164E+02  0.41861807840E+01 -0.23695688139E+03  0.23752625758E+03  0.00000000000E+00 0.  1.
         -3    1    1    2    0  502  0.33161331060E+02 -0.99997241289E+01 -0.46573400960E+03  0.46702016665E+03  0.00000000000E+00 0. -1.
<mgrwt>
<rscale>  1 0.30000000E+03</rscale>
<asrwt>0</asrwt>
<pdfrwt beam="1">  1       21 0.43918678E-02 0.30000000E+03</pdfrwt>
<pdfrwt beam="2">0</pdfrwt>
<totfact> 0.35908749E+04</totfact>
</mgrwt>
</event>
<event>
 6    1  0.6513574E-002  0.3000000E+03  0.7818608E-02  0.1093470E+00
         21   -1    0    0  501  502  0.00000000000E+00  0.00000000000E+00  0.24740092024E+01  0.24740092024E+01  0.00000000000E+00 0. -1.
         13   -1    0    0    0    0 -0.00000000000E+00 -0.00000000000E+00 -0.10000000000E+04  0.10000000000E+04  0.00000000000E+00 0.  1.
    9000005    2    1    2  501    0 -0.26612060590E+01 -0.45406297180E+02 -0.70081737649E+03  0.70229936729E+03  0.32545764817E+01 0.  0.
         13    1    3    3    0    0 -0.28937649526E+01 -0.26620353348E+02 -0.39803173323E+03  0.39893141985E+03  0.00000000000E+00 0.  1.
          3    1    3    3  501    0  0.23255889359E+00 -0.18785943833E+02 -0.30278564326E+03  0.30336794744E+03  0.00000000000E+00 0.  1.
         -1    1    1    2    0  502  0.26612060590E+01  0.45406297180E+02 -0.29670861431E+03  0.30017464191E+03  0.00000000000E+00 0. -1.
<mgrwt>
<rscale>  1 0.30000000E+03</rscale>
<asrwt>0</asrwt>
<pdfrwt beam="1">  1       21 0.89964161E-02 0.30000000E+03</pdfrwt>
<pdfrwt beam="2">0</pdfrwt>
<totfact> 0.10385415E+04</totfact>
</mgrwt>
</event>
<event>
 6    1  0.6513574E-002  0.3000000E+03  0.7818608E-02  0.1093470E+00
         21   -1    0    0  501  502  0.00000000000E+00  0.00000000000E+00  0.13690477699E+01  0.13690477699E+01  0.00000000000E+00 0. -1.
         13   -1    0    0    0    0 -0.00000000000E+00 -0.00000000000E+00 -0.10000000000E+04  0.10000000000E+04  0.00000000000E+00 0.  1.
    9000005    2    1    2  501    0  0.88610499344E+01  0.34974673206E+02 -0.60308640142E+03  0.60418239436E+03  0.46273215076E+01 0.  0.
         13    1    3    3    0    0  0.29495121545E+01  0.48578587816E+01 -0.93014670932E+02  0.93188129193E+02  0.00000000000E+00 0.  1.
          3    1    3    3  501    0  0.59115377799E+01  0.30116814424E+02 -0.51007173049E+03  0.51099426517E+03  0.00000000000E+00 0.  1.
         -3    1    1    2    0  502 -0.88610499344E+01 -0.34974673206E+02 -0.39554455081E+03  0.39718665341E+03  0.00000000000E+00 0. -1.
<mgrwt>
<rscale>  1 0.30000000E+03</rscale>
<asrwt>0</asrwt>
<pdfrwt beam="1">  1       21 0.49783660E-02 0.30000000E+03</pdfrwt>
<pdfrwt beam="2">0</pdfrwt>
<totfact> 0.29018345E+04</totfact>
</mgrwt>
</event>
<event>
 6    1  0.6513574E-002  0.3000000E+03  0.7818608E-02  0.1093470E+00
         21   -1    0    0  501  502  0.00000000000E+00  0.00000000000E+00  0.12542845757E+01  0.12542845757E+01  0.00000000000E+00 0. -1.
         13   -1    0    0    0    0 -0.00000000000E+00 -0.00000000000E+00 -0.10000000000E+04  0.10000000000E+04  0.00000000000E+00 0.  1.
    9000005    2    1    2  501    0  0.10831881304E+02  0.31167025514E+02 -0.66077589585E+03  0.66167761860E+03  0.10186917492E+02 0.  0.
         13    1    3    3    0    0  0.36332251054E+01  0.16349375895E+01 -0.58854240610E+02  0.58988939501E+02  0.00000000000E+00 0.  1.
          3    1    3    3  501    0  0.71986561987E+01  0.29532087925E+02 -0.60192165524E+03  0.60268867910E+03  0.00000000000E+00 0.  1.
         -1    1    1    2    0  502 -0.10831881304E+02 -0.31167025514E+02 -0.33796981958E+03  0.33957666598E+03  0.00000000000E+00 0. -1.
<mgrwt>
<rscale>  1 0.30000000E+03</rscale>
<asrwt>0</asrwt>
<pdfrwt beam="1">  1       21 0.45610444E-02 0.30000000E+03</pdfrwt>
<pdfrwt beam="2">0</pdfrwt>
<totfact> 0.33678850E+04</totfact>
</mgrwt>
</event>
<event>
 6    1  0.6513574E-002  0.3000000E+03  0.7818608E-02  0.1093470E+00
         21   -1    0    0  501  502  0.00000000000E+00  0.00000000000E+00  0.50359243751E+01  0.50359243751E+01  0.00000000000E+00 0. -1.
         13   -1    0    0    0    0 -0.00000000000E+00 -0.00000000000E+00 -0.10000000000E+04  0.10000000000E+04  0.00000000000E+00 0.  1.
    9000005    2    1    2  501    0 -0.32595614214E+02 -0.40458337922E+02 -0.15616898404E+03  0.16463330846E+03  0.40029369686E+01 0.  0.
         13    1    3    3    0    0 -0.25832231309E+02 -0.30414445741E+02 -0.11542743353E+03  0.12213040201E+03  0.00000000000E+00 0.  1.
          3    1    3    3  501    0 -0.67633829049E+01 -0.10043892181E+02 -0.40741550508E+02  0.42502906444E+02  0.00000000000E+00 0.  1.
         -3    1    1    2    0  502  0.32595614214E+02  0.40458337922E+02 -0.83879509158E+03  0.84040261592E+03  0.00000000000E+00 0. -1.
<mgrwt>
<rscale>  1 0.30000000E+03</rscale>
<asrwt>0</asrwt>
<pdfrwt beam="1">  1       21 0.18312491E-01 0.30000000E+03</pdfrwt>
<pdfrwt beam="2">0</pdfrwt>
<totfact> 0.28360223E+03</totfact>
</mgrwt>
</event>
<event>
 6    1  0.6513574E-002  0.3000000E+03  0.7818608E-02  0.1093470E+00
         21   -1    0    0  501  502  0.00000000000E+00  0.00000000000E+00  0.37925584199E+02  0.37925584199E+02  0.00000000000E+00 0. -1.
         13   -1    0    0    0    0 -0.00000000000E+00 -0.00000000000E+00 -0.10000000000E+04  0.10000000000E+04  0.00000000000E+00 0.  1.
    9000005    2    1    2  501    0 -0.28698156038E+02  0.17754408039E+03 -0.68003216098E+03  0.70342099806E+03  0.34461432830E+01 0.  0.
         13    1    3    3    0    0 -0.11936362458E+02  0.63697515438E+02 -0.24632533762E+03  0.25470771911E+03  0.00000000000E+00 0.  1.
          3    1    3    3  501    0 -0.16761793579E+02  0.11384656496E+03 -0.43370682336E+03  0.44871327895E+03  0.00000000000E+00 0.  1.
         -1    1    1    2    0  502  0.28698156038E+02 -0.17754408039E+03 -0.28204225482E+03  0.33450458614E+03  0.00000000000E+00 0. -1.
<mgrwt>
<rscale>  1 0.30000000E+03</rscale>
<asrwt>0</asrwt>
<pdfrwt beam="1">  1       21 0.13791151E+00 0.30000000E+03</pdfrwt>
<pdfrwt beam="2">0</pdfrwt>
<totfact> 0.30666300E+01</totfact>
</mgrwt>
</event>
<event>
 6    1  0.6513574E-002  0.3000000E+03  0.7818608E-02  0.1093470E+00
         21   -1    0    0  501  502  0.00000000000E+00  0.00000000000E+00  0.23450933978E+01  0.23450933978E+01  0.00000000000E+00 0. -1.
         13   -1    0    0    0    0 -0.00000000000E+00 -0.00000000000E+00 -0.10000000000E+04  0.10000000000E+04  0.00000000000E+00 0.  1.
    9000005    2    1    2  501    0  0.21367763586E+00 -0.48040116503E+02 -0.46329904944E+03  0.46583406785E+03  0.68899278031E+01 0.  0.
         13    1    3    3    0    0  0.98500530872E+00 -0.22434972242E+02 -0.24859161477E+03  0.24960386445E+03  0.00000000000E+00 0.  1.
          3    1    3    3  501    0 -0.77132767286E+00 -0.25605144261E+02 -0.21470743467E+03  0.21623020340E+03  0.00000000000E+00 0.  1.
         -3    1    1    2    0  502 -0.21367763586E+00  0.48040116503E+02 -0.53435585716E+03  0.53651102555E+03  0.00000000000E+00 0. -1.
<mgrwt>
<rscale>  1 0.30000000E+03</rscale>
<asrwt>0</asrwt>
<pdfrwt beam="1">  1       21 0.85276303E-02 0.30000000E+03</pdfrwt>
<pdfrwt beam="2">0</pdfrwt>
<totfact> 0.11415737E+04</totfact>
</mgrwt>
</event>
<event>
 6    1  0.6513574E-002  0.3000000E+03  0.7818608E-02  0.1093470E+00
         21   -1    0    0  501  502  0.00000000000E+00  0.00000000000E+00  0.17851726387E+01  0.17851726387E+01  0.00000000000E+00 0. -1.
         13   -1    0    0    0    0 -0.00000000000E+00 -0.00000000000E+00 -0.10000000000E+04  0.10000000000E+04  0.00000000000E+00 0.  1.
    9000005    2    1    2  501    0 -0.32281833976E+02 -0.20228676848E+02 -0.71024336089E+03  0.71130474013E+03  0.75819168947E+01 0.  0.
         13    1    3    3    0    0 -0.23864136398E+02 -0.14924208537E+02 -0.45695594535E+03  0.45782197959E+03  0.00000000000E+00 0.  1.
          1    1    3    3  501    0 -0.84176975776E+01 -0.53044683102E+01 -0.25328741554E+03  0.25348276053E+03  0.00000000000E+00 0.  1.
         -3    1    1    2    0  502  0.32281833976E+02  0.20228676848E+02 -0.28797146647E+03  0.29048043251E+03  0.00000000000E+00 0. -1.
<mgrwt>
<rscale>  1 0.30000000E+03</rscale>
<asrwt>0</asrwt>
<pdfrwt beam="1">  1       21 0.64915506E-02 0.30000000E+03</pdfrwt>
<pdfrwt beam="2">0</pdfrwt>
<totfact> 0.18391417E+04</totfact>
</mgrwt>
</event>
<event>
 6    1  0.6513574E-002  0.3000000E+03  0.7818608E-02  0.1093470E+00
         21   -1    0    0  501  502  0.00000000000E+00  0.00000000000E+00  0.12563971775E+01  0.12563971775E+01  0.00000000000E+00 0. -1.
         13   -1    0    0    0    0 -0.00000000000E+00 -0.00000000000E+00 -0.10000000000E+04  0.10000000000E+04  0.00000000000E+00 0.  1.
    9000005    2    1    2  501    0 -0.24881727268E+02  0.25180376332E+02 -0.49050268508E+03  0.49178413869E+03  0.23671267286E+01 0.  0.
         13    1    3    3    0    0 -0.56428882115E+01  0.69907877620E+01 -0.13132183685E+03  0.13162878916E+03  0.00000000000E+00 0.  1.
          1    1    3    3  501    0 -0.19238839056E+02  0.18189588570E+02 -0.35918084822E+03  0.36015534953E+03  0.00000000000E+00 0.  1.
         -1    1    1    2    0  502  0.24881727268E+02 -0.25180376332E+02 -0.50824091774E+03  0.50947225849E+03  0.00000000000E+00 0. -1.
<mgrwt>
<rscale>  1 0.30000000E+03</rscale>
<asrwt>0</asrwt>
<pdfrwt beam="1">  1       21 0.45687266E-02 0.30000000E+03</pdfrwt>
<pdfrwt beam="2">0</pdfrwt>
<totfact> 0.33582717E+04</totfact>
</mgrwt>
</event>
<event>
 6    1  0.6513574E-002  0.3000000E+03  0.7818608E-02  0.1093470E+00
         21   -1    0    0  501  502  0.00000000000E+00  0.00000000000E+00  0.28950015496E+01  0.28950015496E+01  0.00000000000E+00 0. -1.
         13   -1    0    0    0    0 -0.00000000000E+00 -0.00000000000E+00 -0.10000000000E+04  0.10000000000E+04  0.00000000000E+00 0.  1.
    9000005    2    1    2  501    0  0.22030452999E+02 -0.48964503313E+02 -0.52157567707E+03  0.52434406493E+03  0.35564133013E+01 0.  0.
         13    1    3    3    0    0  0.14673578448E+02 -0.35419327237E+02 -0.36082851552E+03  0.36285955997E+03  0.00000000000E+00 0.  1.
          3    1    3    3  501    0  0.73568745506E+01 -0.13545176076E+02 -0.16074716155E+03  0.16148450496E+03  0.00000000000E+00 0.  1.
         -1    1    1    2    0  502 -0.22030452999E+02  0.48964503313E+02 -0.47552932138E+03  0.47855093662E+03  0.00000000000E+00 0. -1.
<mgrwt>
<rscale>  1 0.30000000E+03</rscale>
<asrwt>0</asrwt>
<pdfrwt beam="1">  1       21 0.10527301E-01 0.30000000E+03</pdfrwt>
<pdfrwt beam="2">0</pdfrwt>
<totfact> 0.78472535E+03</totfact>
</mgrwt>
</event>
<event>
 6    1  0.6513574E-002  0.3000000E+03  0.7818608E-02  0.1093470E+00
         21   -1    0    0  501  502  0.00000000000E+00  0.00000000000E+00  0.10534837904E+01  0.10534837904E+01  0.00000000000E+00 0. -1.
         13   -1    0    0    0    0 -0.00000000000E+00 -0.00000000000E+00 -0.10000000000E+04  0.10000000000E+04  0.00000000000E+00 0.  1.
    9000005    2    1    2  501    0  0.29017029963E+01 -0.30747979449E+02 -0.65117202209E+03  0.65191030846E+03  0.28617829349E+01 0.  0.
         13    1    3    3    0    0 -0.56219211814E+00 -0.43734025951E+01 -0.97327273007E+02  0.97427104962E+02  0.00000000000E+00 0.  1.
          1    1    3    3  501    0  0.34638951145E+01 -0.26374576854E+02 -0.55384474908E+03  0.55448320349E+03  0.00000000000E+00 0.  1.
         -3    1    1    2    0  502 -0.29017029963E+01  0.30747979449E+02 -0.34777449412E+03  0.34914317533E+03  0.00000000000E+00 0. -1.
<mgrwt>
<rscale>  1 0.30000000E+03</rscale>
<asrwt>0</asrwt>
<pdfrwt beam="1">  1       21 0.38308582E-02 0.30000000E+03</pdfrwt>
<pdfrwt beam="2">0</pdfrwt>
<totfact> 0.45217344E+04</totfact>
</mgrwt>
</event>
<event>
 6    1  0.6513574E-002  0.3000000E+03  0.7818608E-02  0.1093470E+00
         21   -1    0    0  501  502  0.00000000000E+00  0.00000000000E+00  0.80675135426E+01  0.80675135426E+01  0.00000000000E+00 0. -1.
         13   -1    0    0    0    0 -0.00000000000E+00 -0.00000000000E+00 -0.10000000000E+04  0.10000000000E+04  0.00000000000E+00 0.  1.
    9000005    2    1    2  501    0  0.29069639006E+02  0.61658300911E+02 -0.82408759003E+03  0.82690819350E+03  0.31645608123E+01 0.  0.
         13    1    3    3    0    0  0.16660908234E+02  0.32666251817E+02 -0.42980411987E+03  0.43136556577E+03  0.00000000000E+00 0.  1.
          3    1    3    3  501    0  0.12408730772E+02  0.28992049094E+02 -0.39428347016E+03  0.39554262773E+03  0.00000000000E+00 0.  1.
         -1    1    1    2    0  502 -0.29069639006E+02 -0.61658300911E+02 -0.16784489643E+03  0.18115932005E+03  0.00000000000E+00 0. -1.
<mgrwt>
<rscale>  1 0.30000000E+03</rscale>
<asrwt>0</asrwt>
<pdfrwt beam="1">  1       21 0.29336475E-01 0.30000000E+03</pdfrwt>
<pdfrwt beam="2">0</pdfrwt>
<totfact> 0.11369509E+03</totfact>
</mgrwt>
</event>
<event>
 6    1  0.6513574E-002  0.3000000E+03  0.7818608E-02  0.1093470E+00
         21   -1    0    0  501  502  0.00000000000E+00  0.00000000000E+00  0.24166981891E+01  0.24166981891E+01  0.00000000000E+00 0. -1.
         13   -1    0    0    0    0 -0.00000000000E+00 -0.00000000000E+00 -0.10000000000E+04  0.10000000000E+04  0.00000000000E+00 0.  1.
    9000005    2    1    2  501    0 -0.33590761048E+02 -0.34364590348E+02 -0.60205841537E+03  0.60398326574E+03  0.34907707968E+01 0.  0.
         13    1    3    3    0    0 -0.38229271462E+01 -0.27352438021E+01 -0.67145330884E+02  0.67309670852E+02  0.00000000000E+00 0.  1.
          1    1    3    3  501    0 -0.29767833902E+02 -0.31629346546E+02 -0.53491308449E+03  0.53667359489E+03  0.00000000000E+00 0.  1.
         -1    1    1    2    0  502  0.33590761048E+02  0.34364590348E+02 -0.39552488644E+03  0.39843343244E+03  0.00000000000E+00 0. -1.
<mgrwt>
<rscale>  1 0.30000000E+03</rscale>
<asrwt>0</asrwt>
<pdfrwt beam="1">  1       21 0.87880119E-02 0.30000000E+03</pdfrwt>
<pdfrwt beam="2">0</pdfrwt>
<totfact> 0.10825252E+04</totfact>
</mgrwt>
</event>
<event>
 6    1  0.6513574E-002  0.3000000E+03  0.7818608E-02  0.1093470E+00
         21   -1    0    0  501  502  0.00000000000E+00  0.00000000000E+00  0.44183853536E+01  0.44183853536E+01  0.00000000000E+00 0. -1.
         13   -1    0    0    0    0 -0.00000000000E+00 -0.00000000000E+00 -0.10000000000E+04  0.10000000000E+04  0.00000000000E+00 0.  1.
    9000005    2    1    2  501    0 -0.63954425833E+02  0.60606136446E+01 -0.37015610229E+03  0.37570225614E+03  0.31217924887E+01 0.  0.
         13    1    3    3    0    0 -0.14156845666E+02  0.16769317523E+00 -0.84777140615E+02  0.85951195286E+02  0.00000000000E+00 0.  1.
          3    1    3    3  501    0 -0.49797580166E+02  0.58929204693E+01 -0.28537896168E+03  0.28975106086E+03  0.00000000000E+00 0.  1.
         -1    1    1    2    0  502  0.63954425833E+02 -0.60606136446E+01 -0.62542551236E+03  0.62871612921E+03  0.00000000000E+00 0. -1.
<mgrwt>
<rscale>  1 0.30000000E+03</rscale>
<asrwt>0</asrwt>
<pdfrwt beam="1">  1       21 0.16066890E-01 0.30000000E+03</pdfrwt>
<pdfrwt beam="2">0</pdfrwt>
<totfact> 0.36243671E+03</totfact>
</mgrwt>
</event>
<event>
 6    1  0.6513574E-002  0.3000000E+03  0.7818608E-02  0.1093470E+00
         21   -1    0    0  501  502  0.00000000000E+00  0.00000000000E+00  0.16578515549E+01  0.16578515549E+01  0.00000000000E+00 0. -1.
         13   -1    0    0    0    0 -0.00000000000E+00 -0.00000000000E+00 -0.10000000000E+04  0.10000000000E+04  0.00000000000E+00 0.  1.
    9000005    2    1    2  501    0 -0.32260027483E+01  0.35028549211E+02 -0.75054307216E+03  0.75137443508E+03  0.33514436021E+01 0.  0.
         13    1    3    3    0    0 -0.26153707671E+00  0.50545650434E+01 -0.85563439613E+02  0.85713005010E+02  0.00000000000E+00 0.  1.
          1    1    3    3  501    0 -0.29644656716E+01  0.29973984167E+02 -0.66497963254E+03  0.66566143007E+03  0.00000000000E+00 0.  1.
         -3    1    1    2    0  502  0.32260027483E+01 -0.35028549211E+02 -0.24779907629E+03  0.25028341648E+03  0.00000000000E+00 0. -1.
<mgrwt>
<rscale>  1 0.30000000E+03</rscale>
<asrwt>0</asrwt>
<pdfrwt beam="1">  1       21 0.60285638E-02 0.30000000E+03</pdfrwt>
<pdfrwt beam="2">0</pdfrwt>
<totfact> 0.20899758E+04</totfact>
</mgrwt>
</event>
<event>
 6    1  0.6513574E-002  0.3000000E+03  0.7818608E-02  0.1093470E+00
         21   -1    0    0  501  502  0.00000000000E+00  0.00000000000E+00  0.18351147166E+01  0.18351147166E+01  0.00000000000E+00 0. -1.
         13   -1    0    0    0    0 -0.00000000000E+00 -0.00000000000E+00 -0.10000000000E+04  0.10000000000E+04  0.00000000000E+00 0.  1.
    9000005    2    1    2  501    0  0.16385182984E+02  0.39371201468E+02 -0.45904374800E+03  0.46103000528E+03  0.29895592652E+01 0.  0.
         13    1    3    3    0    0  0.13985152093E+01  0.51823467444E+01 -0.65695959532E+02  0.65914881941E+02  0.00000000000E+00 0.  1.
          3    1    3    3  501    0  0.14986667775E+02  0.34188854724E+02 -0.39334778847E+03  0.39511512334E+03  0.00000000000E+00 0.  1.
         -3    1    1    2    0  502 -0.16385182984E+02 -0.39371201468E+02 -0.53912113728E+03  0.54080510943E+03  0.00000000000E+00 0. -1.
<mgrwt>
<rscale>  1 0.30000000E+03</rscale>
<asrwt>0</asrwt>
<pdfrwt beam="1">  1       21 0.66731585E-02 0.30000000E+03</pdfrwt>
<pdfrwt beam="2">0</pdfrwt>
<totfact> 0.17532830E+04</totfact>
</mgrwt>
</event>
<event>
 6    1  0.6513574E-002  0.3000000E+03  0.7818608E-02  0.1093470E+00
         21   -1    0    0  501  502  0.00000000000E+00  0.00000000000E+00  0.15992537933E+01  0.15992537933E+01  0.00000000000E+00 0. -1.
         13   -1    0    0    0    0 -0.00000000000E+00 -0.00000000000E+00 -0.10000000000E+04  0.10000000000E+04  0.00000000000E+00 0.  1.
    9000005    2    1    2  501    0  0.21075967363E+02 -0.33131672208E+02 -0.57804616754E+03  0.57941460709E+03  0.64815894053E+01 0.  0.
         13    1    3    3    0    0  0.10960933379E+02 -0.22156099908E+02 -0.38451581668E+03  0.38530954841E+03  0.00000000000E+00 0.  1.
          1    1    3    3  501    0  0.10115033985E+02 -0.10975572300E+02 -0.19353035086E+03  0.19410505868E+03  0.00000000000E+00 0.  1.
         -3    1    1    2    0  502 -0.21075967363E+02  0.33131672208E+02 -0.42035457867E+03  0.42218464670E+03  0.00000000000E+00 0. -1.
<mgrwt>
<rscale>  1 0.30000000E+03</rscale>
<asrwt>0</asrwt>
<pdfrwt beam="1">  1       21 0.58154806E-02 0.30000000E+03</pdfrwt>
<pdfrwt beam="2">0</pdfrwt>
<totfact> 0.22237247E+04</totfact>
</mgrwt>
</event>
<event>
 6    1  0.6513574E-002  0.3000000E+03  0.7818608E-02  0.1093470E+00
         21   -1    0    0  501  502  0.00000000000E+00  0.00000000000E+00  0.10856046170E+01  0.10856046170E+01  0.00000000000E+00 0. -1.
         13   -1    0    0    0    0 -0.00000000000E+00 -0.00000000000E+00 -0.10000000000E+04  0.10000000000E+04  0.00000000000E+00 0.  1.
    9000005    2    1    2  501    0 -0.22649402047E+02  0.22236273193E+02 -0.62990178653E+03  0.63071045325E+03  0.34594659840E+01 0.  0.
         13    1    3    3    0    0 -0.68537350476E+00  0.10921573107E+01 -0.40702816322E+02  0.40723234167E+02  0.00000000000E+00 0.  1.
          1    1    3    3  501    0 -0.21964028542E+02  0.21144115882E+02 -0.58919897021E+03  0.58998721908E+03  0.00000000000E+00 0.  1.
         -1    1    1    2    0  502  0.22649402047E+02 -0.22236273193E+02 -0.36901260885E+03  0.37037515137E+03  0.00000000000E+00 0. -1.
<mgrwt>
<rscale>  1 0.30000000E+03</rscale>
<asrwt>0</asrwt>
<pdfrwt beam="1">  1       21 0.39476615E-02 0.30000000E+03</pdfrwt>
<pdfrwt beam="2">0</pdfrwt>
<totfact> 0.42990057E+04</totfact>
</mgrwt>
</event>
<event>
 6    1  0.6513574E-002  0.3000000E+03  0.7818608E-02  0.1093470E+00
         21   -1    0    0  501  502  0.00000000000E+00  0.00000000000E+00  0.11848426688E+01  0.11848426688E+01  0.00000000000E+00 0. -1.
         13   -1    0    0    0    0 -0.00000000000E+00 -0.00000000000E+00 -0.10000000000E+04  0.10000000000E+04  0.00000000000E+00 0.  1.
    9000005    2    1    2  501    0  0.27233790451E+02  0.16791622351E+02 -0.31806190576E+03  0.31968016371E+03  0.28971102525E+01 0.  0.
         13    1    3    3    0    0  0.30001883962E+00  0.66014450713E+00 -0.80680948059E+01  0.81006145366E+01  0.00000000000E+00 0.  1.
          3    1    3    3  501    0  0.26933771612E+02  0.16131477844E+02 -0.30999381096E+03  0.31157954917E+03  0.00000000000E+00 0.  1.
         -1    1    1    2    0  502 -0.27233790451E+02 -0.16791622351E+02 -0.68075325157E+03  0.68150467896E+03  0.00000000000E+00 0. -1.
<mgrwt>
<rscale>  1 0.30000000E+03</rscale>
<asrwt>0</asrwt>
<pdfrwt beam="1">  1       21 0.43085279E-02 0.30000000E+03</pdfrwt>
<pdfrwt beam="2">0</pdfrwt>
<totfact> 0.37092241E+04</totfact>
</mgrwt>
</event>
<event>
 6    1  0.6513574E-002  0.3000000E+03  0.7818608E-02  0.1093470E+00
         21   -1    0    0  501  502  0.00000000000E+00  0.00000000000E+00  0.12854856971E+01  0.12854856971E+01  0.00000000000E+00 0. -1.
         13   -1    0    0    0    0 -0.00000000000E+00 -0.00000000000E+00 -0.10000000000E+04  0.10000000000E+04  0.00000000000E+00 0.  1.
    9000005    2    1    2  501    0  0.33190894267E+02 -0.10122569976E+02 -0.62223983067E+03  0.62321500377E+03  0.32298872304E+01 0.  0.
         13    1    3    3    0    0  0.11537997802E+02 -0.30327831896E+01 -0.18844779621E+03  0.18882503823E+03  0.00000000000E+00 0.  1.
          3    1    3    3  501    0  0.21652896466E+02 -0.70897867866E+01 -0.43379203446E+03  0.43438996554E+03  0.00000000000E+00 0.  1.
         -1    1    1    2    0  502 -0.33190894267E+02  0.10122569976E+02 -0.37647468364E+03  0.37807048193E+03  0.00000000000E+00 0. -1.
<mgrwt>
<rscale>  1 0.30000000E+03</rscale>
<asrwt>0</asrwt>
<pdfrwt beam="1">  1       21 0.46745033E-02 0.30000000E+03</pdfrwt>
<pdfrwt beam="2">0</pdfrwt>
<totfact> 0.32301670E+04</totfact>
</mgrwt>
</event>
<event>
 6    1  0.6513574E-002  0.3000000E+03  0.7818608E-02  0.1093470E+00
         21   -1    0    0  501  502  0.00000000000E+00  0.00000000000E+00  0.23705962194E+01  0.23705962194E+01  0.00000000000E+00 0. -1.
         13   -1    0    0    0    0 -0.00000000000E+00 -0.00000000000E+00 -0.10000000000E+04  0.10000000000E+04  0.00000000000E+00 0.  1.
    9000005    2    1    2  501    0  0.34908025706E+02  0.29731379389E+02 -0.66600850969E+03  0.66759463744E+03  0.35692828980E+01 0.  0.
         13    1    3    3    0    0  0.11600365426E+02  0.92736484863E+01 -0.19301047044E+03  0.19358101853E+03  0.00000000000E+00 0.  1.
          3    1    3    3  501    0  0.23307660281E+02  0.20457730903E+02 -0.47299803925E+03  0.47401361891E+03  0.00000000000E+00 0.  1.
         -3    1    1    2    0  502 -0.34908025706E+02 -0.29731379389E+02 -0.33162089409E+03  0.33477595878E+03  0.00000000000E+00 0. -1.
<mgrwt>
<rscale>  1 0.30000000E+03</rscale>
<asrwt>0</asrwt>
<pdfrwt beam="1">  1       21 0.86203681E-02 0.30000000E+03</pdfrwt>
<pdfrwt beam="2">0</pdfrwt>
<totfact> 0.11199929E+04</totfact>
</mgrwt>
</event>
<event>
 6    1  0.6513574E-002  0.3000000E+03  0.7818608E-02  0.1093470E+00
         21   -1    0    0  501  502  0.00000000000E+00  0.00000000000E+00  0.11445507942E+01  0.11445507942E+01  0.00000000000E+00 0. -1.
         13   -1    0    0    0    0 -0.00000000000E+00 -0.00000000000E+00 -0.10000000000E+04  0.10000000000E+04  0.00000000000E+00 0.  1.
    9000005    2    1    2  501    0  0.16183771853E+02 -0.28691674449E+02 -0.39087363180E+03  0.39227098679E+03  0.30338724551E+01 0.  0.
         13    1    3    3    0    0  0.53322989715E+01 -0.12464092424E+02 -0.15789143963E+03  0.15847237526E+03  0.00000000000E+00 0.  1.
          3    1    3    3  501    0  0.10851472882E+02 -0.16227582025E+02 -0.23298219217E+03  0.23379861153E+03  0.00000000000E+00 0.  1.
         -3    1    1    2    0  502 -0.16183771853E+02  0.28691674449E+02 -0.60798181740E+03  0.60887356401E+03  0.00000000000E+00 0. -1.
<mgrwt>
<rscale>  1 0.30000000E+03</rscale>
<asrwt>0</asrwt>
<pdfrwt beam="1">  1       21 0.41620117E-02 0.30000000E+03</pdfrwt>
<pdfrwt beam="2">0</pdfrwt>
<totfact> 0.39325051E+04</totfact>
</mgrwt>
</event>
<event>
 6    1  0.6513574E-002  0.3000000E+03  0.7818608E-02  0.1093470E+00
         21   -1    0    0  501  502  0.00000000000E+00  0.00000000000E+00  0.28200013579E+01  0.28200013579E+01  0.00000000000E+00 0. -1.
         13   -1    0    0    0    0 -0.00000000000E+00 -0.00000000000E+00 -0.10000000000E+04  0.10000000000E+04  0.00000000000E+00 0.  1.
    9000005    2    1    2  501    0  0.47573735373E+01 -0.43323631209E+02 -0.21322389394E+03  0.21765330331E+03  0.29936383572E+01 0.  0.
         13    1    3    3    0    0  0.41774459127E+01 -0.41936907216E+02 -0.20739342813E+03  0.21163220282E+03  0.00000000000E+00 0.  1.
          3    1    3    3  501    0  0.57992762459E+00 -0.13867239933E+01 -0.58304658151E+01  0.60211004894E+01  0.00000000000E+00 0.  1.
         -3    1    1    2    0  502 -0.47573735373E+01  0.43323631209E+02 -0.78395610470E+03  0.78516669804E+03  0.00000000000E+00 0. -1.
<mgrwt>
<rscale>  1 0.30000000E+03</rscale>
<asrwt>0</asrwt>
<pdfrwt beam="1">  1       21 0.10254572E-01 0.30000000E+03</pdfrwt>
<pdfrwt beam="2">0</pdfrwt>
<totfact> 0.82250199E+03</totfact>
</mgrwt>
</event>
<event>
 6    1  0.6513574E-002  0.3000000E+03  0.7818608E-02  0.1093470E+00
         21   -1    0    0  501  502  0.00000000000E+00  0.00000000000E+00  0.42448510118E+01  0.42448510118E+01  0.00000000000E+00 0. -1.
         13   -1    0    0    0    0 -0.00000000000E+00 -0.00000000000E+00 -0.10000000000E+04  0.10000000000E+04  0.00000000000E+00 0.  1.
    9000005    2    1    2  501    0  0.44044188335E+02  0.36195136300E+02 -0.25581672693E+03  0.26211356420E+03  0.33681368402E+01 0.  0.
         13    1    3    3    0    0  0.23012176736E+02  0.19008650373E+02 -0.12620236667E+03  0.12968394820E+03  0.00000000000E+00 0.  1.
          1    1    3    3  501    0  0.21032011599E+02  0.17186485927E+02 -0.12961436026E+03  0.13242961601E+03  0.00000000000E+00 0.  1.
         -1    1    1    2    0  502 -0.44044188335E+02 -0.36195136300E+02 -0.73993842206E+03  0.74213128681E+03  0.00000000000E+00 0. -1.
<mgrwt>
<rscale>  1 0.30000000E+03</rscale>
<asrwt>0</asrwt>
<pdfrwt beam="1">  1       21 0.15435854E-01 0.30000000E+03</pdfrwt>
<pdfrwt beam="2">0</pdfrwt>
<totfact> 0.39050385E+03</totfact>
</mgrwt>
</event>
<event>
 6    1  0.6513574E-002  0.3000000E+03  0.7818608E-02  0.1093470E+00
         21   -1    0    0  501  502  0.00000000000E+00  0.00000000000E+00  0.28569599276E+01  0.28569599276E+01  0.00000000000E+00 0. -1.
         13   -1    0    0    0    0 -0.00000000000E+00 -0.00000000000E+00 -0.10000000000E+04  0.10000000000E+04  0.00000000000E+00 0.  1.
    9000005    2    1    2  501    0  0.49413806266E+02  0.13031464067E+02 -0.64442776023E+03  0.64645885115E+03  0.32194364033E+01 0.  0.
         13    1    3    3    0    0  0.15214205530E+01  0.47683767590E+00 -0.28383089803E+02  0.28427836384E+02  0.00000000000E+00 0.  1.
          1    1    3    3  501    0  0.47892385713E+02  0.12554626391E+02 -0.61604467043E+03  0.61803101477E+03  0.00000000000E+00 0.  1.
         -3    1    1    2    0  502 -0.49413806266E+02 -0.13031464067E+02 -0.35271527984E+03  0.35639810877E+03  0.00000000000E+00 0. -1.
<mgrwt>
<rscale>  1 0.30000000E+03</rscale>
<asrwt>0</asrwt>
<pdfrwt beam="1">  1       21 0.10388967E-01 0.30000000E+03</pdfrwt>
<pdfrwt beam="2">0</pdfrwt>
<totfact> 0.80354906E+03</totfact>
</mgrwt>
</event>
<event>
 6    1  0.6513574E-002  0.3000000E+03  0.7818608E-02  0.1093470E+00
         21   -1    0    0  501  502  0.00000000000E+00  0.00000000000E+00  0.12898671398E+01  0.12898671398E+01  0.00000000000E+00 0. -1.
         13   -1    0    0    0    0 -0.00000000000E+00 -0.00000000000E+00 -0.10000000000E+04  0.10000000000E+04  0.00000000000E+00 0.  1.
    9000005    2    1    2  501    0  0.30642833913E+02  0.16328051894E+02 -0.37582271651E+03  0.37743545945E+03  0.30369812259E+01 0.  0.
         13    1    3    3    0    0  0.27227862805E+02  0.13898142645E+02 -0.32073974384E+03  0.32219326213E+03  0.00000000000E+00 0.  1.
          1    1    3    3  501    0  0.34149711077E+01  0.24299092487E+01 -0.55082972667E+02  0.55242197317E+02  0.00000000000E+00 0.  1.
         -3    1    1    2    0  502 -0.30642833913E+02 -0.16328051894E+02 -0.62288741635E+03  0.62385440769E+03  0.00000000000E+00 0. -1.
<mgrwt>
<rscale>  1 0.30000000E+03</rscale>
<asrwt>0</asrwt>
<pdfrwt beam="1">  1       21 0.46904359E-02 0.30000000E+03</pdfrwt>
<pdfrwt beam="2">0</pdfrwt>
<totfact> 0.32115363E+04</totfact>
</mgrwt>
</event>
<event>
 6    1  0.6513574E-002  0.3000000E+03  0.7818608E-02  0.1093470E+00
         21   -1    0    0  501  502  0.00000000000E+00  0.00000000000E+00  0.19156351643E+01  0.19156351643E+01  0.00000000000E+00 0. -1.
         13   -1    0    0    0    0 -0.00000000000E+00 -0.00000000000E+00 -0.10000000000E+04  0.10000000000E+04  0.00000000000E+00 0.  1.
    9000005    2    1    2  501    0 -0.13563416217E+02 -0.38701538428E+02 -0.32594201420E+03  0.32852339074E+03  0.27651952414E+01 0.  0.
         13    1    3    3    0    0 -0.11514530086E+02 -0.29513275158E+02 -0.25407970546E+03  0.25604709438E+03  0.00000000000E+00 0.  1.
          3    1    3    3  501    0 -0.20488861317E+01 -0.91882632696E+01 -0.71862308742E+02  0.72476296359E+02  0.00000000000E+00 0.  1.
         -3    1    1    2    0  502  0.13563416217E+02  0.38701538428E+02 -0.67214235063E+03  0.67339224442E+03  0.00000000000E+00 0. -1.
<mgrwt>
<rscale>  1 0.30000000E+03</rscale>
<asrwt>0</asrwt>
<pdfrwt beam="1">  1       21 0.69659607E-02 0.30000000E+03</pdfrwt>
<pdfrwt beam="2">0</pdfrwt>
<totfact> 0.16272725E+04</totfact>
</mgrwt>
</event>
<event>
 6    1  0.6513574E-002  0.3000000E+03  0.7818608E-02  0.1093470E+00
         21   -1    0    0  501  502  0.00000000000E+00  0.00000000000E+00  0.11758032159E+01  0.11758032159E+01  0.00000000000E+00 0. -1.
         13   -1    0    0    0    0 -0.00000000000E+00 -0.00000000000E+00 -0.10000000000E+04  0.10000000000E+04  0.00000000000E+00 0.  1.
    9000005    2    1    2  501    0 -0.31645640364E+02 -0.37659650707E+00 -0.68834667031E+03  0.68908946448E+03  0.46436143285E+01 0.  0.
         13    1    3    3    0    0 -0.12636295054E+02 -0.26422044745E+00 -0.32530571424E+03  0.32555115340E+03  0.00000000000E+00 0.  1.
          1    1    3    3  501    0 -0.19009345310E+02 -0.11237605961E+00 -0.36304095608E+03  0.36353831108E+03  0.00000000000E+00 0.  1.
         -3    1    1    2    0  502  0.31645640364E+02  0.37659650707E+00 -0.31047752647E+03  0.31208633873E+03  0.00000000000E+00 0. -1.
<mgrwt>
<rscale>  1 0.30000000E+03</rscale>
<asrwt>0</asrwt>
<pdfrwt beam="1">  1       21 0.42756571E-02 0.30000000E+03</pdfrwt>
<pdfrwt beam="2">0</pdfrwt>
<totfact> 0.37575729E+04</totfact>
</mgrwt>
</event>
<event>
 6    1  0.7563960E-002  0.3000000E+03  0.7818608E-02  0.1093470E+00
         21   -1    0    0  501  502  0.00000000000E+00  0.00000000000E+00  0.92344216896E+01  0.92344216896E+01  0.00000000000E+00 0. -1.
         13   -1    0    0    0    0 -0.00000000000E+00 -0.00000000000E+00 -0.10000000000E+04  0.10000000000E+04  0.00000000000E+00 0.  1.
    9000005    2    1    2  501    0 -0.59228044005E+02 -0.14527280555E+02 -0.88532341810E+03  0.88742698256E+03  0.31767381993E+01 0.  0.
         13    1    3    3    0    0 -0.48360437384E+02 -0.12945699734E+02 -0.71690971920E+03  0.71865559799E+03  0.00000000000E+00 0.  1.
          3    1    3    3  501    0 -0.10867606620E+02 -0.15815808212E+01 -0.16841369890E+03  0.16877138457E+03  0.00000000000E+00 0.  1.
         -1    1    1    2    0  502  0.59228044005E+02  0.14527280555E+02 -0.10544216021E+03  0.12180743913E+03  0.00000000000E+00 0. -1.
<mgrwt>
<rscale>  1 0.30000000E+03</rscale>
<asrwt>0</asrwt>
<pdfrwt beam="1">  1       21 0.33579786E-01 0.30000000E+03</pdfrwt>
<pdfrwt beam="2">0</pdfrwt>
<totfact> 0.86598754E+02</totfact>
</mgrwt>
</event>
<event>
 6    1  0.6513574E-002  0.3000000E+03  0.7818608E-02  0.1093470E+00
         21   -1    0    0  501  502  0.00000000000E+00  0.00000000000E+00  0.15096724928E+02  0.15096724928E+02  0.00000000000E+00 0. -1.
         13   -1    0    0    0    0 -0.00000000000E+00 -0.00000000000E+00 -0.10000000000E+04  0.10000000000E+04  0.00000000000E+00 0.  1.
    9000005    2    1    2  501    0  0.11988278072E+03 -0.26195206257E+02 -0.50083553739E+03  0.51571746564E+03  0.83784790105E+01 0.  0.
         13    1    3    3    0    0  0.60401745295E+02 -0.13991421146E+02 -0.23575892005E+03  0.24377530450E+03  0.00000000000E+00 0.  1.
          3    1    3    3  501    0  0.59481035421E+02 -0.12203785112E+02 -0.26507661734E+03  0.27194216114E+03  0.00000000000E+00 0.  1.
         -3    1    1    2    0  502 -0.11988278072E+03  0.26195206257E+02 -0.48406773768E+03  0.49937925928E+03  0.00000000000E+00 0. -1.
<mgrwt>
<rscale>  1 0.30000000E+03</rscale>
<asrwt>0</asrwt>
<pdfrwt beam="1">  1       21 0.54897297E-01 0.30000000E+03</pdfrwt>
<pdfrwt beam="2">0</pdfrwt>
<totfact> 0.30615467E+02</totfact>
</mgrwt>
</event>
<event>
 6    1  0.6513574E-002  0.3000000E+03  0.7818608E-02  0.1093470E+00
         21   -1    0    0  501  502  0.00000000000E+00  0.00000000000E+00  0.10934880154E+01  0.10934880154E+01  0.00000000000E+00 0. -1.
         13   -1    0    0    0    0 -0.00000000000E+00 -0.00000000000E+00 -0.10000000000E+04  0.10000000000E+04  0.00000000000E+00 0.  1.
    9000005    2    1    2  501    0  0.25665569655E+02 -0.20144005219E+02 -0.42750380887E+03  0.42876006112E+03  0.33438007847E+01 0.  0.
         13    1    3    3    0    0  0.10082278825E+02 -0.91606534571E+01 -0.16108139828E+03  0.16165638493E+03  0.00000000000E+00 0.  1.
          3    1    3    3  501    0  0.15583290830E+02 -0.10983351761E+02 -0.26642241059E+03  0.26710367619E+03  0.00000000000E+00 0.  1.
         -3    1    1    2    0  502 -0.25665569655E+02  0.20144005219E+02 -0.57140270312E+03  0.57233342689E+03  0.00000000000E+00 0. -1.
<mgrwt>
<rscale>  1 0.30000000E+03</rscale>
<asrwt>0</asrwt>
<pdfrwt beam="1">  1       21 0.39763284E-02 0.30000000E+03</pdfrwt>
<pdfrwt beam="2">0</pdfrwt>
<totfact> 0.42469653E+04</totfact>
</mgrwt>
</event>
<event>
 6    1  0.6513574E-002  0.3000000E+03  0.7818608E-02  0.1093470E+00
         21   -1    0    0  501  502  0.00000000000E+00  0.00000000000E+00  0.31998670443E+01  0.31998670443E+01  0.00000000000E+00 0. -1.
         13   -1    0    0    0    0 -0.00000000000E+00 -0.00000000000E+00 -0.10000000000E+04  0.10000000000E+04  0.00000000000E+00 0.  1.
    9000005    2    1    2  501    0  0.31637584669E+02 -0.44488974453E+02 -0.36792240183E+03  0.37195711951E+03  0.22359276985E+01 0.  0.
         13    1    3    3    0    0  0.14917371603E+02 -0.22903822101E+02 -0.18442074125E+03  0.18643530472E+03  0.00000000000E+00 0.  1.
          3    1    3    3  501    0  0.16720213066E+02 -0.21585152352E+02 -0.18350166058E+03  0.18552181479E+03  0.00000000000E+00 0.  1.
         -1    1    1    2    0  502 -0.31637584669E+02  0.44488974453E+02 -0.62887773113E+03  0.63124274754E+03  0.00000000000E+00 0. -1.
<mgrwt>
<rscale>  1 0.30000000E+03</rscale>
<asrwt>0</asrwt>
<pdfrwt beam="1">  1       21 0.11635905E-01 0.30000000E+03</pdfrwt>
<pdfrwt beam="2">0</pdfrwt>
<totfact> 0.65528995E+03</totfact>
</mgrwt>
</event>
<event>
 6    1  0.6513574E-002  0.3000000E+03  0.7818608E-02  0.1093470E+00
         21   -1    0    0  501  502  0.00000000000E+00  0.00000000000E+00  0.32604499179E+01  0.32604499179E+01  0.00000000000E+00 0. -1.
         13   -1    0    0    0    0 -0.00000000000E+00 -0.00000000000E+00 -0.10000000000E+04  0.10000000000E+04  0.00000000000E+00 0.  1.
    9000005    2    1    2  501    0 -0.50153234316E+01  0.46841341326E+02 -0.21597422048E+03  0.22107520036E+03  0.31804989253E+01 0.  0.
         13    1    3    3    0    0 -0.53242443036E+01  0.44620230521E+02 -0.20742531049E+03  0.21223706552E+03  0.00000000000E+00 0.  1.
          1    1    3    3  501    0  0.30892087200E+00  0.22211108047E+01 -0.85489099947E+01  0.88381348377E+01  0.00000000000E+00 0.  1.
         -1    1    1    2    0  502  0.50153234316E+01 -0.46841341326E+02 -0.78076532960E+03  0.78218524956E+03  0.00000000000E+00 0. -1.
<mgrwt>
<rscale>  1 0.30000000E+03</rscale>
<asrwt>0</asrwt>
<pdfrwt beam="1">  1       21 0.11856207E-01 0.30000000E+03</pdfrwt>
<pdfrwt beam="2">0</pdfrwt>
<totfact> 0.63341060E+03</totfact>
</mgrwt>
</event>
<event>
 6    1  0.6513574E-002  0.3000000E+03  0.7818608E-02  0.1093470E+00
         21   -1    0    0  501  502  0.00000000000E+00  0.00000000000E+00  0.11145528925E+01  0.11145528925E+01  0.00000000000E+00 0. -1.
         13   -1    0    0    0    0 -0.00000000000E+00 -0.00000000000E+00 -0.10000000000E+04  0.10000000000E+04  0.00000000000E+00 0.  1.
    9000005    2    1    2  501    0 -0.23864883085E+02 -0.19902926742E+02 -0.32059383065E+03  0.32211147772E+03  0.31210079042E+01 0.  0.
         13    1    3    3    0    0 -0.13559627911E+02 -0.12520637330E+02 -0.20243513721E+03  0.20327472702E+03  0.00000000000E+00 0.  1.
          1    1    3    3  501    0 -0.10305255174E+02 -0.73822894123E+01 -0.11815869344E+03  0.11883675070E+03  0.00000000000E+00 0.  1.
         -3    1    1    2    0  502  0.23864883085E+02  0.19902926742E+02 -0.67829161646E+03  0.67900307517E+03  0.00000000000E+00 0. -1.
<mgrwt>
<rscale>  1 0.30000000E+03</rscale>
<asrwt>0</asrwt>
<pdfrwt beam="1">  1       21 0.40529282E-02 0.30000000E+03</pdfrwt>
<pdfrwt beam="2">0</pdfrwt>
<totfact> 0.41126440E+04</totfact>
</mgrwt>
</event>
<event>
 6    1  0.6513574E-002  0.3000000E+03  0.7818608E-02  0.1093470E+00
         21   -1    0    0  501  502  0.00000000000E+00  0.00000000000E+00  0.92389940410E+00  0.92389940410E+00  0.00000000000E+00 0. -1.
         13   -1    0    0    0    0 -0.00000000000E+00 -0.00000000000E+00 -0.10000000000E+04  0.10000000000E+04  0.00000000000E+00 0.  1.
    9000005    2    1    2  501    0 -0.12352065033E+02 -0.27438560986E+02 -0.54005979185E+03  0.54092235611E+03  0.51931132624E+01 0.  0.
         13    1    3    3    0    0 -0.58886278710E+01 -0.73715007073E+01 -0.15840556804E+03  0.15868629098E+03  0.00000000000E+00 0.  1.
          3    1    3    3  501    0 -0.64634371621E+01 -0.20067060279E+02 -0.38165422382E+03  0.38223606513E+03  0.00000000000E+00 0.  1.
         -1    1    1    2    0  502  0.12352065033E+02  0.27438560986E+02 -0.45901630874E+03  0.46000154329E+03  0.00000000000E+00 0. -1.
<mgrwt>
<rscale>  1 0.30000000E+03</rscale>
<asrwt>0</asrwt>
<pdfrwt beam="1">  1       21 0.33596413E-02 0.30000000E+03</pdfrwt>
<pdfrwt beam="2">0</pdfrwt>
<totfact> 0.56343798E+04</totfact>
</mgrwt>
</event>
<event>
 6    1  0.6513574E-002  0.3000000E+03  0.7818608E-02  0.1093470E+00
         21   -1    0    0  501  502  0.00000000000E+00  0.00000000000E+00  0.19223355946E+01  0.19223355946E+01  0.00000000000E+00 0. -1.
         13   -1    0    0    0    0 -0.00000000000E+00 -0.00000000000E+00 -0.10000000000E+04  0.10000000000E+04  0.00000000000E+00 0.  1.
    9000005    2    1    2  501    0 -0.34443200271E+02 -0.22231056882E+02 -0.67516963313E+03  0.67642248829E+03  0.35770413313E+01 0.  0.
         13    1    3    3    0    0 -0.21815411741E+02 -0.12479631489E+02 -0.39453536109E+03  0.39533505352E+03  0.00000000000E+00 0.  1.
          3    1    3    3  501    0 -0.12627788530E+02 -0.97514253933E+01 -0.28063427205E+03  0.28108743477E+03  0.00000000000E+00 0.  1.
         -1    1    1    2    0  502  0.34443200271E+02  0.22231056882E+02 -0.32290803127E+03  0.32549984731E+03  0.00000000000E+00 0. -1.
<mgrwt>
<rscale>  1 0.30000000E+03</rscale>
<asrwt>0</asrwt>
<pdfrwt beam="1">  1       21 0.69903260E-02 0.30000000E+03</pdfrwt>
<pdfrwt beam="2">0</pdfrwt>
<totfact> 0.16174166E+04</totfact>
</mgrwt>
</event>
<event>
 6    1  0.6513574E-002  0.3000000E+03  0.7818608E-02  0.1093470E+00
         21   -1    0    0  501  502  0.00000000000E+00  0.00000000000E+00  0.13758817628E+01  0.13758817628E+01  0.00000000000E+00 0. -1.
         13   -1    0    0    0    0 -0.00000000000E+00 -0.00000000000E+00 -0.10000000000E+04  0.10000000000E+04  0.00000000000E+00 0.  1.
    9000005    2    1    2  501    0 -0.16579965999E+02  0.32989445875E+02 -0.46483335727E+03  0.46630974071E+03  0.33949130427E+01 0.  0.
         13    1    3    3    0    0 -0.71897070384E+01  0.13709699636E+02 -0.21598225023E+03  0.21653632528E+03  0.00000000000E+00 0.  1.
          1    1    3    3  501    0 -0.93902589602E+01  0.19279746239E+02 -0.24885110704E+03  0.24977341543E+03  0.00000000000E+00 0.  1.
         -1    1    1    2    0  502  0.16579965999E+02 -0.32989445875E+02 -0.53379076097E+03  0.53506614106E+03  0.00000000000E+00 0. -1.
<mgrwt>
<rscale>  1 0.30000000E+03</rscale>
<asrwt>0</asrwt>
<pdfrwt beam="1">  1       21 0.50032170E-02 0.30000000E+03</pdfrwt>
<pdfrwt beam="2">0</pdfrwt>
<totfact> 0.28773089E+04</totfact>
</mgrwt>
</event>
<event>
 6    1  0.6513574E-002  0.3000000E+03  0.7818608E-02  0.1093470E+00
         21   -1    0    0  501  502  0.00000000000E+00  0.00000000000E+00  0.97252941928E+00  0.97252941928E+00  0.00000000000E+00 0. -1.
         13   -1    0    0    0    0 -0.00000000000E+00 -0.00000000000E+00 -0.10000000000E+04  0.10000000000E+04  0.00000000000E+00 0.  1.
    9000005    2    1    2  501    0  0.27455873565E+02 -0.12914434414E+02 -0.41455086223E+03  0.41570890222E+03  0.63926835200E+01 0.  0.
         13    1    3    3    0    0  0.49008385789E+01 -0.64092039276E+00 -0.46057632086E+02  0.46322073260E+02  0.00000000000E+00 0.  1.
          3    1    3    3  501    0  0.22555034986E+02 -0.12273514021E+02 -0.36849323014E+03  0.36938682896E+03  0.00000000000E+00 0.  1.
         -3    1    1    2    0  502 -0.27455873565E+02  0.12914434414E+02 -0.58447660835E+03  0.58526362720E+03  0.00000000000E+00 0. -1.
<mgrwt>
<rscale>  1 0.30000000E+03</rscale>
<asrwt>0</asrwt>
<pdfrwt beam="1">  1       21 0.35364781E-02 0.30000000E+03</pdfrwt>
<pdfrwt beam="2">0</pdfrwt>
<totfact> 0.51710841E+04</totfact>
</mgrwt>
</event>
<event>
 6    1  0.6513574E-002  0.3000000E+03  0.7818608E-02  0.1093470E+00
         21   -1    0    0  501  502  0.00000000000E+00  0.00000000000E+00  0.10663031216E+01  0.10663031216E+01  0.00000000000E+00 0. -1.
         13   -1    0    0    0    0 -0.00000000000E+00 -0.00000000000E+00 -0.10000000000E+04  0.10000000000E+04  0.00000000000E+00 0.  1.
    9000005    2    1    2  501    0  0.31751078027E+02  0.34237594325E+01 -0.59822966505E+03  0.59909170914E+03  0.35058134336E+01 0.  0.
         13    1    3    3    0    0  0.99762944157E+01  0.27055471563E+01 -0.19677963664E+03  0.19705093715E+03  0.00000000000E+00 0.  1.
          1    1    3    3  501    0  0.21774783612E+02  0.71821227611E+00 -0.40145002841E+03  0.40204077199E+03  0.00000000000E+00 0.  1.
         -3    1    1    2    0  502 -0.31751078027E+02 -0.34237594325E+01 -0.40070403183E+03  0.40197459398E+03  0.00000000000E+00 0. -1.
<mgrwt>
<rscale>  1 0.30000000E+03</rscale>
<asrwt>0</asrwt>
<pdfrwt beam="1">  1       21 0.38774741E-02 0.30000000E+03</pdfrwt>
<pdfrwt beam="2">0</pdfrwt>
<totfact> 0.44307209E+04</totfact>
</mgrwt>
</event>
<event>
 6    1  0.6513574E-002  0.3000000E+03  0.7818608E-02  0.1093470E+00
         21   -1    0    0  501  502  0.00000000000E+00  0.00000000000E+00  0.33220608025E+01  0.33220608025E+01  0.00000000000E+00 0. -1.
         13   -1    0    0    0    0 -0.00000000000E+00 -0.00000000000E+00 -0.10000000000E+04  0.10000000000E+04  0.00000000000E+00 0.  1.
    9000005    2    1    2  501    0 -0.27343772392E+02 -0.49076326534E+02 -0.60923112238E+03  0.61182339723E+03  0.30234435224E+01 0.  0.
         13    1    3    3    0    0 -0.74129615575E+01 -0.11486282995E+02 -0.13807858385E+03  0.13875367388E+03  0.00000000000E+00 0.  1.
          3    1    3    3  501    0 -0.19930810834E+02 -0.37590043539E+02 -0.47115253853E+03  0.47306972335E+03  0.00000000000E+00 0.  1.
         -3    1    1    2    0  502  0.27343772392E+02  0.49076326534E+02 -0.38744681682E+03  0.39149866357E+03  0.00000000000E+00 0. -1.
<mgrwt>
<rscale>  1 0.30000000E+03</rscale>
<asrwt>0</asrwt>
<pdfrwt beam="1">  1       21 0.12080247E-01 0.30000000E+03</pdfrwt>
<pdfrwt beam="2">0</pdfrwt>
<totfact> 0.61225798E+03</totfact>
</mgrwt>
</event>
<event>
 6    1  0.6513574E-002  0.3000000E+03  0.7818608E-02  0.1093470E+00
         21   -1    0    0  501  502  0.00000000000E+00  0.00000000000E+00  0.17640062862E+01  0.17640062862E+01  0.00000000000E+00 0. -1.
         13   -1    0    0    0    0 -0.00000000000E+00 -0.00000000000E+00 -0.10000000000E+04  0.10000000000E+04  0.00000000000E+00 0.  1.
    9000005    2    1    2  501    0  0.28411440007E+02  0.30419024072E+02 -0.43956776702E+03  0.44154733885E+03  0.34210670196E+01 0.  0.
         13    1    3    3    0    0  0.74688081824E+01  0.78576210083E+01 -0.99330086573E+02  0.99919924951E+02  0.00000000000E+00 0.  1.
          1    1    3    3  501    0  0.20942631825E+02  0.22561403063E+02 -0.34023768044E+03  0.34162741390E+03  0.00000000000E+00 0.  1.
         -3    1    1    2    0  502 -0.28411440007E+02 -0.30419024072E+02 -0.55866822670E+03  0.56021666743E+03  0.00000000000E+00 0. -1.
<mgrwt>
<rscale>  1 0.30000000E+03</rscale>
<asrwt>0</asrwt>
<pdfrwt beam="1">  1       21 0.64145818E-02 0.30000000E+03</pdfrwt>
<pdfrwt beam="2">0</pdfrwt>
<totfact> 0.18775011E+04</totfact>
</mgrwt>
</event>
<event>
 6    1  0.6513574E-002  0.3000000E+03  0.7818608E-02  0.1093470E+00
         21   -1    0    0  501  502  0.00000000000E+00  0.00000000000E+00  0.30069550754E+01  0.30069550754E+01  0.00000000000E+00 0. -1.
         13   -1    0    0    0    0 -0.00000000000E+00 -0.00000000000E+00 -0.10000000000E+04  0.10000000000E+04  0.00000000000E+00 0.  1.
    9000005    2    1    2  501    0  0.32275729958E+01  0.54673806012E+02 -0.51363041240E+03  0.51655132831E+03  0.30711471229E+01 0.  0.
         13    1    3    3    0    0  0.13567929654E+01  0.64616689284E+01 -0.63893647804E+02  0.64233887335E+02  0.00000000000E+00 0.  1.
          1    1    3    3  501    0  0.18707800304E+01  0.48212137083E+02 -0.44973676460E+03  0.45231744097E+03  0.00000000000E+00 0.  1.
         -3    1    1    2    0  502 -0.32275729958E+01 -0.54673806012E+02 -0.48336263252E+03  0.48645562677E+03  0.00000000000E+00 0. -1.
<mgrwt>
<rscale>  1 0.30000000E+03</rscale>
<asrwt>0</asrwt>
<pdfrwt beam="1">  1       21 0.10934405E-01 0.30000000E+03</pdfrwt>
<pdfrwt beam="2">0</pdfrwt>
<totfact> 0.73304605E+03</totfact>
</mgrwt>
</event>
<event>
 6    1  0.6513574E-002  0.3000000E+03  0.7818608E-02  0.1093470E+00
         21   -1    0    0  501  502  0.00000000000E+00  0.00000000000E+00  0.37416172545E+01  0.37416172545E+01  0.00000000000E+00 0. -1.
         13   -1    0    0    0    0 -0.00000000000E+00 -0.00000000000E+00 -0.10000000000E+04  0.10000000000E+04  0.00000000000E+00 0.  1.
    9000005    2    1    2  501    0 -0.43540076444E+02 -0.39149220045E+02 -0.35476364974E+03  0.35958023052E+03  0.35064678069E+01 0.  0.
         13    1    3    3    0    0 -0.14613401546E+02 -0.11839829981E+02 -0.12213136065E+03  0.12357104164E+03  0.00000000000E+00 0.  1.
          3    1    3    3  501    0 -0.28926674898E+02 -0.27309390064E+02 -0.23263228909E+03  0.23600918887E+03  0.00000000000E+00 0.  1.
         -3    1    1    2    0  502  0.43540076444E+02  0.39149220045E+02 -0.64149473301E+03  0.64416138674E+03  0.00000000000E+00 0. -1.
<mgrwt>
<rscale>  1 0.30000000E+03</rscale>
<asrwt>0</asrwt>
<pdfrwt beam="1">  1       21 0.13605910E-01 0.30000000E+03</pdfrwt>
<pdfrwt beam="2">0</pdfrwt>
<totfact> 0.49282379E+03</totfact>
</mgrwt>
</event>
<event>
 6    1  0.6513574E-002  0.3000000E+03  0.7818608E-02  0.1093470E+00
         21   -1    0    0  501  502  0.00000000000E+00  0.00000000000E+00  0.13322881864E+01  0.13322881864E+01  0.00000000000E+00 0. -1.
         13   -1    0    0    0    0 -0.00000000000E+00 -0.00000000000E+00 -0.10000000000E+04  0.10000000000E+04  0.00000000000E+00 0.  1.
    9000005    2    1    2  501    0 -0.30439516208E+02 -0.13314783570E+02 -0.70522043910E+03  0.70601017680E+03  0.32641105100E+01 0.  0.
         13    1    3    3    0    0 -0.10418011662E+02 -0.61665182637E+01 -0.24465325677E+03  0.24495260146E+03  0.00000000000E+00 0.  1.
          3    1    3    3  501    0 -0.20021504546E+02 -0.71482653065E+01 -0.46056718233E+03  0.46105757534E+03  0.00000000000E+00 0.  1.
         -3    1    1    2    0  502  0.30439516208E+02  0.13314783570E+02 -0.29344727272E+03  0.29532211138E+03  0.00000000000E+00 0. -1.
<mgrwt>
<rscale>  1 0.30000000E+03</rscale>
<asrwt>0</asrwt>
<pdfrwt beam="1">  1       21 0.48446945E-02 0.30000000E+03</pdfrwt>
<pdfrwt beam="2">0</pdfrwt>
<totfact> 0.30395287E+04</totfact>
</mgrwt>
</event>
<event>
 6    1  0.6513574E-002  0.3000000E+03  0.7818608E-02  0.1093470E+00
         21   -1    0    0  501  502  0.00000000000E+00  0.00000000000E+00  0.37890338084E+01  0.37890338084E+01  0.00000000000E+00 0. -1.
         13   -1    0    0    0    0 -0.00000000000E+00 -0.00000000000E+00 -0.10000000000E+04  0.10000000000E+04  0.00000000000E+00 0.  1.
    9000005    2    1    2  501    0  0.60722385888E+02 -0.47892576967E+01 -0.56925183006E+03  0.57250693464E+03  0.25296336803E+01 0.  0.
         13    1    3    3    0    0  0.16948363231E+02 -0.94121205179E+00 -0.14882364045E+03  0.14978854713E+03  0.00000000000E+00 0.  1.
          1    1    3    3  501    0  0.43774022657E+02 -0.38480456449E+01 -0.42042818961E+03  0.42271838750E+03  0.00000000000E+00 0.  1.
         -3    1    1    2    0  502 -0.60722385888E+02  0.47892576967E+01 -0.42695913613E+03  0.43128209917E+03  0.00000000000E+00 0. -1.
<mgrwt>
<rscale>  1 0.30000000E+03</rscale>
<asrwt>0</asrwt>
<pdfrwt beam="1">  1       21 0.13778334E-01 0.30000000E+03</pdfrwt>
<pdfrwt beam="2">0</pdfrwt>
<totfact> 0.48157420E+03</totfact>
</mgrwt>
</event>
<event>
 6    1  0.6513574E-002  0.3000000E+03  0.7818608E-02  0.1093470E+00
         21   -1    0    0  501  502  0.00000000000E+00  0.00000000000E+00  0.12808645070E+01  0.12808645070E+01  0.00000000000E+00 0. -1.
         13   -1    0    0    0    0 -0.00000000000E+00 -0.00000000000E+00 -0.10000000000E+04  0.10000000000E+04  0.00000000000E+00 0.  1.
    9000005    2    1    2  501    0  0.23603985993E+02  0.20670919879E+02 -0.73901234444E+03  0.73968565736E+03  0.33453528209E+01 0.  0.
         13    1    3    3    0    0  0.64978865771E+01  0.39510843936E+01 -0.19209593702E+03  0.19224641120E+03  0.00000000000E+00 0.  1.
          1    1    3    3  501    0  0.17106099416E+02  0.16719835486E+02 -0.54691640742E+03  0.54743924616E+03  0.00000000000E+00 0.  1.
         -3    1    1    2    0  502 -0.23603985993E+02 -0.20670919879E+02 -0.25970679105E+03  0.26159520715E+03  0.00000000000E+00 0. -1.
<mgrwt>
<rscale>  1 0.30000000E+03</rscale>
<asrwt>0</asrwt>
<pdfrwt beam="1">  1       21 0.46576989E-02 0.30000000E+03</pdfrwt>
<pdfrwt beam="2">0</pdfrwt>
<totfact> 0.32500013E+04</totfact>
</mgrwt>
</event>
<event>
 6    1  0.6513574E-002  0.3000000E+03  0.7818608E-02  0.1093470E+00
         21   -1    0    0  501  502  0.00000000000E+00  0.00000000000E+00  0.11085104062E+01  0.11085104062E+01  0.00000000000E+00 0. -1.
         13   -1    0    0    0    0 -0.00000000000E+00 -0.00000000000E+00 -0.10000000000E+04  0.10000000000E+04  0.00000000000E+00 0.  1.
    9000005    2    1    2  501    0 -0.37465630677E+01  0.29897935333E+02 -0.71032727041E+03  0.71097538257E+03  0.36387178257E+01 0.  0.
         13    1    3    3    0    0 -0.18212072335E+01  0.24870731110E+02 -0.59585693580E+03  0.59637853583E+03  0.00000000000E+00 0.  1.
          3    1    3    3  501    0 -0.19253558343E+01  0.50272042229E+01 -0.11447033461E+03  0.11459684674E+03  0.00000000000E+00 0.  1.
         -1    1    1    2    0  502  0.37465630677E+01 -0.29897935333E+02 -0.28856421919E+03  0.29013312783E+03  0.00000000000E+00 0. -1.
<mgrwt>
<rscale>  1 0.30000000E+03</rscale>
<asrwt>0</asrwt>
<pdfrwt beam="1">  1       21 0.40309554E-02 0.30000000E+03</pdfrwt>
<pdfrwt beam="2">0</pdfrwt>
<totfact> 0.41504874E+04</totfact>
</mgrwt>
</event>
<event>
 6    1  0.6513574E-002  0.3000000E+03  0.7818608E-02  0.1093470E+00
         21   -1    0    0  501  502  0.00000000000E+00  0.00000000000E+00  0.19312533624E+01  0.19312533624E+01  0.00000000000E+00 0. -1.
         13   -1    0    0    0    0 -0.00000000000E+00 -0.00000000000E+00 -0.10000000000E+04  0.10000000000E+04  0.00000000000E+00 0.  1.
    9000005    2    1    2  501    0 -0.36177252359E+02  0.12690990051E+02 -0.25628856684E+03  0.25916097262E+03  0.32749684976E+01 0.  0.
         13    1    3    3    0    0 -0.30261892728E+02  0.10373211640E+02 -0.20514737377E+03  0.20762666167E+03  0.00000000000E+00 0.  1.
          3    1    3    3  501    0 -0.59153596303E+01  0.23177784111E+01 -0.51141193072E+02  0.51534310951E+02  0.00000000000E+00 0.  1.
         -3    1    1    2    0  502  0.36177252359E+02 -0.12690990051E+02 -0.74178017980E+03  0.74277028075E+03  0.00000000000E+00 0. -1.
<mgrwt>
<rscale>  1 0.30000000E+03</rscale>
<asrwt>0</asrwt>
<pdfrwt beam="1">  1       21 0.70227543E-02 0.30000000E+03</pdfrwt>
<pdfrwt beam="2">0</pdfrwt>
<totfact> 0.16044400E+04</totfact>
</mgrwt>
</event>
<event>
 6    1  0.6513574E-002  0.3000000E+03  0.7818608E-02  0.1093470E+00
         21   -1    0    0  501  502  0.00000000000E+00  0.00000000000E+00  0.12717302415E+01  0.12717302415E+01  0.00000000000E+00 0. -1.
         13   -1    0    0    0    0 -0.00000000000E+00 -0.00000000000E+00 -0.10000000000E+04  0.10000000000E+04  0.00000000000E+00 0.  1.
    9000005    2    1    2  501    0  0.76255284927E+00 -0.34076844125E+02 -0.35633634349E+03  0.35797615298E+03  0.30860357176E+01 0.  0.
         13    1    3    3    0    0  0.14573559965E+01 -0.20325754425E+02 -0.20062924932E+03  0.20166148830E+03  0.00000000000E+00 0.  1.
          3    1    3    3  501    0 -0.69480314720E+00 -0.13751089700E+02 -0.15570709417E+03  0.15631466468E+03  0.00000000000E+00 0.  1.
         -3    1    1    2    0  502 -0.76255284927E+00  0.34076844125E+02 -0.64239192627E+03  0.64329557726E+03  0.00000000000E+00 0. -1.
<mgrwt>
<rscale>  1 0.30000000E+03</rscale>
<asrwt>0</asrwt>
<pdfrwt beam="1">  1       21 0.46244834E-02 0.30000000E+03</pdfrwt>
<pdfrwt beam="2">0</pdfrwt>
<totfact> 0.32897721E+04</totfact>
</mgrwt>
</event>
<event>
 6    1  0.6513574E-002  0.3000000E+03  0.7818608E-02  0.1093470E+00
         21   -1    0    0  501  502  0.00000000000E+00  0.00000000000E+00  0.10962207638E+01  0.10962207638E+01  0.00000000000E+00 0. -1.
         13   -1    0    0    0    0 -0.00000000000E+00 -0.00000000000E+00 -0.10000000000E+04  0.10000000000E+04  0.00000000000E+00 0.  1.
    9000005    2    1    2  501    0  0.28296380777E+02  0.16661154828E+02 -0.44511414179E+03  0.44633389167E+03  0.30107111144E+01 0.  0.
         13    1    3    3    0    0  0.70557797669E+00  0.10246131421E+01 -0.14259657689E+02  0.14313822333E+02  0.00000000000E+00 0.  1.
          3    1    3    3  501    0  0.27590802800E+02  0.15636541686E+02 -0.43085448410E+03  0.43202006933E+03  0.00000000000E+00 0.  1.
         -3    1    1    2    0  502 -0.28296380777E+02 -0.16661154828E+02 -0.55378963744E+03  0.55476232910E+03  0.00000000000E+00 0. -1.
<mgrwt>
<rscale>  1 0.30000000E+03</rscale>
<asrwt>0</asrwt>
<pdfrwt beam="1">  1       21 0.39862657E-02 0.30000000E+03</pdfrwt>
<pdfrwt beam="2">0</pdfrwt>
<totfact> 0.42291555E+04</totfact>
</mgrwt>
</event>
<event>
 6    1  0.6513574E-002  0.3000000E+03  0.7818608E-02  0.1093470E+00
         21   -1    0    0  501  502  0.00000000000E+00  0.00000000000E+00  0.19629010937E+01  0.19629010937E+01  0.00000000000E+00 0. -1.
         13   -1    0    0    0    0 -0.00000000000E+00 -0.00000000000E+00 -0.10000000000E+04  0.10000000000E+04  0.00000000000E+00 0.  1.
    9000005    2    1    2  501    0  0.22546244551E+01  0.43438897528E+02 -0.40767940017E+03  0.41000493501E+03  0.30874360965E+01 0.  0.
         13    1    3    3    0    0  0.77653323775E+00  0.24245323874E+02 -0.24088370072E+03  0.24210203636E+03  0.00000000000E+00 0.  1.
          3    1    3    3  501    0  0.14780912174E+01  0.19193573654E+02 -0.16679569944E+03  0.16790289865E+03  0.00000000000E+00 0.  1.
         -1    1    1    2    0  502 -0.22546244551E+01 -0.43438897528E+02 -0.59035769874E+03  0.59195796608E+03  0.00000000000E+00 0. -1.
<mgrwt>
<rscale>  1 0.30000000E+03</rscale>
<asrwt>0</asrwt>
<pdfrwt beam="1">  1       21 0.71378372E-02 0.30000000E+03</pdfrwt>
<pdfrwt beam="2">0</pdfrwt>
<totfact> 0.15596479E+04</totfact>
</mgrwt>
</event>
<event>
 6    1  0.6513574E-002  0.3000000E+03  0.7818608E-02  0.1093470E+00
         21   -1    0    0  501  502  0.00000000000E+00  0.00000000000E+00  0.20751385309E+01  0.20751385309E+01  0.00000000000E+00 0. -1.
         13   -1    0    0    0    0 -0.00000000000E+00 -0.00000000000E+00 -0.10000000000E+04  0.10000000000E+04  0.00000000000E+00 0.  1.
    9000005    2    1    2  501    0  0.30166618648E+02 -0.31385877894E+02 -0.35429142147E+03  0.35697119086E+03  0.33047794112E+01 0.  0.
         13    1    3    3    0    0  0.86890146452E+01 -0.11245289169E+02 -0.11736581694E+03  0.11822305397E+03  0.00000000000E+00 0.  1.
          1    1    3    3  501    0  0.21477604003E+02 -0.20140588726E+02 -0.23692560453E+03  0.23874813689E+03  0.00000000000E+00 0.  1.
         -3    1    1    2    0  502 -0.30166618648E+02  0.31385877894E+02 -0.64363344000E+03  0.64510394767E+03  0.00000000000E+00 0. -1.
<mgrwt>
<rscale>  1 0.30000000E+03</rscale>
<asrwt>0</asrwt>
<pdfrwt beam="1">  1       21 0.75459742E-02 0.30000000E+03</pdfrwt>
<pdfrwt beam="2">0</pdfrwt>
<totfact> 0.14152203E+04</totfact>
</mgrwt>
</event>
<event>
 6    1  0.6513574E-002  0.3000000E+03  0.7818608E-02  0.1093470E+00
         21   -1    0    0  501  502  0.00000000000E+00  0.00000000000E+00  0.23279112714E+01  0.23279112714E+01  0.00000000000E+00 0. -1.
         13   -1    0    0    0    0 -0.00000000000E+00 -0.00000000000E+00 -0.10000000000E+04  0.10000000000E+04  0.00000000000E+00 0.  1.
    9000005    2    1    2  501    0  0.41853009722E+02  0.23307382951E+02 -0.55380049994E+03  0.55587870268E+03  0.33510939987E+01 0.  0.
         13    1    3    3    0    0  0.41517142924E+02  0.22979238652E+02 -0.54352177913E+03  0.54558926213E+03  0.00000000000E+00 0.  1.
          1    1    3    3  501    0  0.33586679761E+00  0.32814429867E+00 -0.10278720817E+02  0.10289440550E+02  0.00000000000E+00 0.  1.
         -3    1    1    2    0  502 -0.41853009722E+02 -0.23307382951E+02 -0.44387158879E+03  0.44644920859E+03  0.00000000000E+00 0. -1.
<mgrwt>
<rscale>  1 0.30000000E+03</rscale>
<asrwt>0</asrwt>
<pdfrwt beam="1">  1       21 0.84651497E-02 0.30000000E+03</pdfrwt>
<pdfrwt beam="2">0</pdfrwt>
<totfact> 0.11564730E+04</totfact>
</mgrwt>
</event>
<event>
 6    1  0.6513574E-002  0.3000000E+03  0.7818608E-02  0.1093470E+00
         21   -1    0    0  501  502  0.00000000000E+00  0.00000000000E+00  0.12059441210E+01  0.12059441210E+01  0.00000000000E+00 0. -1.
         13   -1    0    0    0    0 -0.00000000000E+00 -0.00000000000E+00 -0.10000000000E+04  0.10000000000E+04  0.00000000000E+00 0.  1.
    9000005    2    1    2  501    0  0.28558369603E+02  0.19191259424E+02 -0.44547419843E+03  0.44681731729E+03  0.38168901368E+01 0.  0.
         13    1    3    3    0    0  0.32415501698E+01  0.36959784132E+01 -0.58151727337E+02  0.58359157775E+02  0.00000000000E+00 0.  1.
          3    1    3    3  501    0  0.25316819433E+02  0.15495281011E+02 -0.38732247109E+03  0.38845815951E+03  0.00000000000E+00 0.  1.
         -3    1    1    2    0  502 -0.28558369603E+02 -0.19191259424E+02 -0.55331985745E+03  0.55438862684E+03  0.00000000000E+00 0. -1.
<mgrwt>
<rscale>  1 0.30000000E+03</rscale>
<asrwt>0</asrwt>
<pdfrwt beam="1">  1       21 0.43852606E-02 0.30000000E+03</pdfrwt>
<pdfrwt beam="2">0</pdfrwt>
<totfact> 0.36000428E+04</totfact>
</mgrwt>
</event>
<event>
 6    1  0.6513574E-002  0.3000000E+03  0.7818608E-02  0.1093470E+00
         21   -1    0    0  501  502  0.00000000000E+00  0.00000000000E+00  0.12376914632E+01  0.12376914632E+01  0.00000000000E+00 0. -1.
         13   -1    0    0    0    0 -0.00000000000E+00 -0.00000000000E+00 -0.10000000000E+04  0.10000000000E+04  0.00000000000E+00 0.  1.
    9000005    2    1    2  501    0 -0.11076015345E+02 -0.30190426528E+02 -0.69698285207E+03  0.69774966812E+03  0.59467054834E+01 0.  0.
         13    1    3    3    0    0 -0.90392976780E+01 -0.16084281242E+02 -0.39121080401E+03  0.39164563853E+03  0.00000000000E+00 0.  1.
          3    1    3    3  501    0 -0.20367176673E+01 -0.14106145286E+02 -0.30577204807E+03  0.30610402959E+03  0.00000000000E+00 0.  1.
         -1    1    1    2    0  502  0.11076015345E+02  0.30190426528E+02 -0.30177945646E+03  0.30348802335E+03  0.00000000000E+00 0. -1.
<mgrwt>
<rscale>  1 0.30000000E+03</rscale>
<asrwt>0</asrwt>
<pdfrwt beam="1">  1       21 0.45007057E-02 0.30000000E+03</pdfrwt>
<pdfrwt beam="2">0</pdfrwt>
<totfact> 0.34449021E+04</totfact>
</mgrwt>
</event>
<event>
 6    1  0.6513574E-002  0.3000000E+03  0.7818608E-02  0.1093470E+00
         21   -1    0    0  501  502  0.00000000000E+00  0.00000000000E+00  0.11880784165E+01  0.11880784165E+01  0.00000000000E+00 0. -1.
         13   -1    0    0    0    0 -0.00000000000E+00 -0.00000000000E+00 -0.10000000000E+04  0.10000000000E+04  0.00000000000E+00 0.  1.
    9000005    2    1    2  501    0  0.30562352482E+02 -0.14087906386E+02 -0.60183042823E+03  0.60278271630E+03  0.38225952559E+01 0.  0.
         13    1    3    3    0    0  0.18109952576E+02 -0.69525799142E+01 -0.32064408756E+03  0.32123035292E+03  0.00000000000E+00 0.  1.
          3    1    3    3  501    0  0.12452399906E+02 -0.71353264723E+01 -0.28118634067E+03  0.28155236338E+03  0.00000000000E+00 0.  1.
         -1    1    1    2    0  502 -0.30562352482E+02  0.14087906386E+02 -0.39698149335E+03  0.39840536211E+03  0.00000000000E+00 0. -1.
<mgrwt>
<rscale>  1 0.30000000E+03</rscale>
<asrwt>0</asrwt>
<pdfrwt beam="1">  1       21 0.43202943E-02 0.30000000E+03</pdfrwt>
<pdfrwt beam="2">0</pdfrwt>
<totfact> 0.36921515E+04</totfact>
</mgrwt>
</event>
<event>
 6    1  0.6513574E-002  0.3000000E+03  0.7818608E-02  0.1093470E+00
         21   -1    0    0  501  502  0.00000000000E+00  0.00000000000E+00  0.25031996524E+01  0.25031996524E+01  0.00000000000E+00 0. -1.
         13   -1    0    0    0    0 -0.00000000000E+00 -0.00000000000E+00 -0.10000000000E+04  0.10000000000E+04  0.00000000000E+00 0.  1.
    9000005    2    1    2  501    0 -0.18729393964E+02 -0.38425389833E+02 -0.75870109110E+03  0.75991158492E+03  0.33121717077E+01 0.  0.
         13    1    3    3    0    0 -0.34627432395E+01 -0.52447104214E+01 -0.97267330320E+02  0.97470155051E+02  0.00000000000E+00 0.  1.
          3    1    3    3  501    0 -0.15266650724E+02 -0.33180679411E+02 -0.66143376078E+03  0.66244142987E+03  0.00000000000E+00 0.  1.
         -3    1    1    2    0  502  0.18729393964E+02  0.38425389833E+02 -0.23879570925E+03  0.24259161473E+03  0.00000000000E+00 0. -1.
<mgrwt>
<rscale>  1 0.30000000E+03</rscale>
<asrwt>0</asrwt>
<pdfrwt beam="1">  1       21 0.91025634E-02 0.30000000E+03</pdfrwt>
<pdfrwt beam="2">0</pdfrwt>
<totfact> 0.10171714E+04</totfact>
</mgrwt>
</event>
<event>
 6    1  0.6513574E-002  0.3000000E+03  0.7818608E-02  0.1093470E+00
         21   -1    0    0  501  502  0.00000000000E+00  0.00000000000E+00  0.13597166162E+01  0.13597166162E+01  0.00000000000E+00 0. -1.
         13   -1    0    0    0    0 -0.00000000000E+00 -0.00000000000E+00 -0.10000000000E+04  0.10000000000E+04  0.00000000000E+00 0.  1.
    9000005    2    1    2  501    0  0.28481339442E+02 -0.22884030626E+02 -0.43816696459E+03  0.43969682250E+03  0.28532961648E+01 0.  0.
         13    1    3    3    0    0  0.23929964070E+02 -0.20306717151E+02 -0.36888902018E+03  0.37022171080E+03  0.00000000000E+00 0.  1.
          1    1    3    3  501    0  0.45513753723E+01 -0.25773134751E+01 -0.69277944419E+02  0.69475111698E+02  0.00000000000E+00 0.  1.
         -3    1    1    2    0  502 -0.28481339442E+02  0.22884030626E+02 -0.56047331879E+03  0.56166289412E+03  0.00000000000E+00 0. -1.
<mgrwt>
<rscale>  1 0.30000000E+03</rscale>
<asrwt>0</asrwt>
<pdfrwt beam="1">  1       21 0.49444345E-02 0.30000000E+03</pdfrwt>
<pdfrwt beam="2">0</pdfrwt>
<totfact> 0.29358517E+04</totfact>
</mgrwt>
</event>
<event>
 6    1  0.6513574E-002  0.3000000E+03  0.7818608E-02  0.1093470E+00
         21   -1    0    0  501  502  0.00000000000E+00  0.00000000000E+00  0.15778755676E+01  0.15778755676E+01  0.00000000000E+00 0. -1.
         13   -1    0    0    0    0 -0.00000000000E+00 -0.00000000000E+00 -0.10000000000E+04  0.10000000000E+04  0.00000000000E+00 0.  1.
    9000005    2    1    2  501    0 -0.38267704682E+02  0.62957445233E+01 -0.59744068005E+03  0.59872533138E+03  0.57098716967E+01 0.  0.
         13    1    3    3    0    0 -0.15524497771E+02  0.12740937220E+01 -0.20228457750E+03  0.20288342377E+03  0.00000000000E+00 0.  1.
          3    1    3    3  501    0 -0.22743206911E+02  0.50216508013E+01 -0.39515610255E+03  0.39584190761E+03  0.00000000000E+00 0.  1.
         -3    1    1    2    0  502  0.38267704682E+02 -0.62957445233E+01 -0.40098144438E+03  0.40285254419E+03  0.00000000000E+00 0. -1.
<mgrwt>
<rscale>  1 0.30000000E+03</rscale>
<asrwt>0</asrwt>
<pdfrwt beam="1">  1       21 0.57377414E-02 0.30000000E+03</pdfrwt>
<pdfrwt beam="2">0</pdfrwt>
<totfact> 0.22758453E+04</totfact>
</mgrwt>
</event>
<event>
 6    1  0.6513574E-002  0.3000000E+03  0.7818608E-02  0.1093470E+00
         21   -1    0    0  501  502  0.00000000000E+00  0.00000000000E+00  0.11494902442E+01  0.11494902442E+01  0.00000000000E+00 0. -1.
         13   -1    0    0    0    0 -0.00000000000E+00 -0.00000000000E+00 -0.10000000000E+04  0.10000000000E+04  0.00000000000E+00 0.  1.
    9000005    2    1    2  501    0 -0.31054295699E+02  0.84643262976E+01 -0.65415162122E+03  0.65495108202E+03  0.32499522767E+01 0.  0.
         13    1    3    3    0    0 -0.10532535898E+02  0.35066053971E+01 -0.25500062492E+03  0.25524213857E+03  0.00000000000E+00 0.  1.
          1    1    3    3  501    0 -0.20521759800E+02  0.49577209005E+01 -0.39915099630E+03  0.39970894345E+03  0.00000000000E+00 0.  1.
         -1    1    1    2    0  502  0.31054295699E+02 -0.84643262976E+01 -0.34469888853E+03  0.34619840822E+03  0.00000000000E+00 0. -1.
<mgrwt>
<rscale>  1 0.30000000E+03</rscale>
<asrwt>0</asrwt>
<pdfrwt beam="1">  1       21 0.41799733E-02 0.30000000E+03</pdfrwt>
<pdfrwt beam="2">0</pdfrwt>
<totfact> 0.39040242E+04</totfact>
</mgrwt>
</event>
<event>
 6    1  0.6513574E-002  0.3000000E+03  0.7818608E-02  0.1093470E+00
         21   -1    0    0  501  502  0.00000000000E+00  0.00000000000E+00  0.20272451783E+01  0.20272451783E+01  0.00000000000E+00 0. -1.
         13   -1    0    0    0    0 -0.00000000000E+00 -0.00000000000E+00 -0.10000000000E+04  0.10000000000E+04  0.00000000000E+00 0.  1.
    9000005    2    1    2  501    0 -0.31818837346E+01 -0.43986502783E+02 -0.59690035620E+03  0.59853746123E+03  0.34814447570E+01 0.  0.
         13    1    3    3    0    0 -0.32823092055E+01 -0.24905875391E+02 -0.32712328523E+03  0.32808645190E+03  0.00000000000E+00 0.  1.
          3    1    3    3  501    0  0.10042547097E+00 -0.19080627392E+02 -0.26977707097E+03  0.27045100933E+03  0.00000000000E+00 0.  1.
         -3    1    1    2    0  502  0.31818837346E+01  0.43986502783E+02 -0.40107239863E+03  0.40348978395E+03  0.00000000000E+00 0. -1.
<mgrwt>
<rscale>  1 0.30000000E+03</rscale>
<asrwt>0</asrwt>
<pdfrwt beam="1">  1       21 0.73718162E-02 0.30000000E+03</pdfrwt>
<pdfrwt beam="2">0</pdfrwt>
<totfact> 0.14742538E+04</totfact>
</mgrwt>
</event>
<event>
 6    1  0.6513574E-002  0.3000000E+03  0.7818608E-02  0.1093470E+00
         21   -1    0    0  501  502  0.00000000000E+00  0.00000000000E+00  0.46463990298E+01  0.46463990298E+01  0.00000000000E+00 0. -1.
         13   -1    0    0    0    0 -0.00000000000E+00 -0.00000000000E+00 -0.10000000000E+04  0.10000000000E+04  0.00000000000E+00 0.  1.
    9000005    2    1    2  501    0 -0.60754963754E+02  0.30746793691E+02 -0.49008006329E+03  0.49480536613E+03  0.41654506376E+01 0.  0.
         13    1    3    3    0    0 -0.30503531593E+02  0.14984141496E+02 -0.22976710385E+03  0.23226689809E+03  0.00000000000E+00 0.  1.
          3    1    3    3  501    0 -0.30251432161E+02  0.15762652195E+02 -0.26031295944E+03  0.26253846805E+03  0.00000000000E+00 0.  1.
         -1    1    1    2    0  502  0.60754963754E+02 -0.30746793691E+02 -0.50527353768E+03  0.50984103290E+03  0.00000000000E+00 0. -1.
<mgrwt>
<rscale>  1 0.30000000E+03</rscale>
<asrwt>0</asrwt>
<pdfrwt beam="1">  1       21 0.16896032E-01 0.30000000E+03</pdfrwt>
<pdfrwt beam="2">0</pdfrwt>
<totfact> 0.32992007E+03</totfact>
</mgrwt>
</event>
<event>
 6    1  0.6513574E-002  0.3000000E+03  0.7818608E-02  0.1093470E+00
         21   -1    0    0  501  502  0.00000000000E+00  0.00000000000E+00  0.17820011312E+01  0.17820011312E+01  0.00000000000E+00 0. -1.
         13   -1    0    0    0    0 -0.00000000000E+00 -0.00000000000E+00 -0.10000000000E+04  0.10000000000E+04  0.00000000000E+00 0.  1.
    9000005    2    1    2  501    0 -0.12569601552E+02  0.40171019381E+02 -0.47248113079E+03  0.47436285080E+03  0.31606301608E+01 0.  0.
         13    1    3    3    0    0 -0.37599710412E+01  0.12046328258E+02 -0.12590221319E+03  0.12653307351E+03  0.00000000000E+00 0.  1.
          1    1    3    3  501    0 -0.88096305112E+01  0.28124691123E+02 -0.34657891760E+03  0.34782977729E+03  0.00000000000E+00 0.  1.
         -3    1    1    2    0  502  0.12569601552E+02 -0.40171019381E+02 -0.52573686808E+03  0.52741915033E+03  0.00000000000E+00 0. -1.
<mgrwt>
<rscale>  1 0.30000000E+03</rscale>
<asrwt>0</asrwt>
<pdfrwt beam="1">  1       21 0.64800178E-02 0.30000000E+03</pdfrwt>
<pdfrwt beam="2">0</pdfrwt>
<totfact> 0.18448118E+04</totfact>
</mgrwt>
</event>
<event>
 6    1  0.6513574E-002  0.3000000E+03  0.7818608E-02  0.1093470E+00
         21   -1    0    0  501  502  0.00000000000E+00  0.00000000000E+00  0.30259095807E+01  0.30259095807E+01  0.00000000000E+00 0. -1.
         13   -1    0    0    0    0 -0.00000000000E+00 -0.00000000000E+00 -0.10000000000E+04  0.10000000000E+04  0.00000000000E+00 0.  1.
    9000005    2    1    2  501    0  0.23813561656E+02 -0.33795659055E+02 -0.16876773248E+03  0.17378830574E+03  0.32550570376E+01 0.  0.
         13    1    3    3    0    0  0.16447758049E+01 -0.14512059915E+01 -0.69865202689E+01  0.73227557481E+01  0.00000000000E+00 0.  1.
          1    1    3    3  501    0  0.22168785851E+02 -0.32344453064E+02 -0.16178121221E+03  0.16646554999E+03  0.00000000000E+00 0.  1.
         -3    1    1    2    0  502 -0.23813561656E+02  0.33795659055E+02 -0.82820635794E+03  0.82923760384E+03  0.00000000000E+00 0. -1.
<mgrwt>
<rscale>  1 0.30000000E+03</rscale>
<asrwt>0</asrwt>
<pdfrwt beam="1">  1       21 0.11003331E-01 0.30000000E+03</pdfrwt>
<pdfrwt beam="2">0</pdfrwt>
<totfact> 0.72480737E+03</totfact>
</mgrwt>
</event>
<event>
 6    1  0.6513574E-002  0.3000000E+03  0.7818608E-02  0.1093470E+00
         21   -1    0    0  501  502  0.00000000000E+00  0.00000000000E+00  0.25946911417E+01  0.25946911417E+01  0.00000000000E+00 0. -1.
         13   -1    0    0    0    0 -0.00000000000E+00 -0.00000000000E+00 -0.10000000000E+04  0.10000000000E+04  0.00000000000E+00 0.  1.
    9000005    2    1    2  501    0 -0.44698044451E+02 -0.13986541424E+02 -0.30367213164E+03  0.30728234429E+03  0.34838277041E+01 0.  0.
         13    1    3    3    0    0 -0.24073325913E+02 -0.91238559292E+01 -0.17202410384E+03  0.17393982313E+03  0.00000000000E+00 0.  1.
          3    1    3    3  501    0 -0.20624718538E+02 -0.48626854944E+01 -0.13164802780E+03  0.13334252116E+03  0.00000000000E+00 0.  1.
         -3    1    1    2    0  502  0.44698044451E+02  0.13986541424E+02 -0.69373317721E+03  0.69531234685E+03  0.00000000000E+00 0. -1.
<mgrwt>
<rscale>  1 0.30000000E+03</rscale>
<asrwt>0</asrwt>
<pdfrwt beam="1">  1       21 0.94352604E-02 0.30000000E+03</pdfrwt>
<pdfrwt beam="2">0</pdfrwt>
<totfact> 0.95432213E+03</totfact>
</mgrwt>
</event>
<event>
 6    1  0.6513574E-002  0.3000000E+03  0.7818608E-02  0.1093470E+00
         21   -1    0    0  501  502  0.00000000000E+00  0.00000000000E+00  0.14076534267E+01  0.14076534267E+01  0.00000000000E+00 0. -1.
         13   -1    0    0    0    0 -0.00000000000E+00 -0.00000000000E+00 -0.10000000000E+04  0.10000000000E+04  0.00000000000E+00 0.  1.
    9000005    2    1    2  501    0  0.29929049290E+02  0.18783867352E+02 -0.66565690203E+03  0.66660234896E+03  0.33164375702E+01 0.  0.
         13    1    3    3    0    0  0.82278674963E+01  0.36106828746E+01 -0.15784071242E+03  0.15809625337E+03  0.00000000000E+00 0.  1.
          1    1    3    3  501    0  0.21701181794E+02  0.15173184477E+02 -0.50781618961E+03  0.50850609559E+03  0.00000000000E+00 0.  1.
         -3    1    1    2    0  502 -0.29929049290E+02 -0.18783867352E+02 -0.33293544454E+03  0.33480530447E+03  0.00000000000E+00 0. -1.
<mgrwt>
<rscale>  1 0.30000000E+03</rscale>
<asrwt>0</asrwt>
<pdfrwt beam="1">  1       21 0.51187505E-02 0.30000000E+03</pdfrwt>
<pdfrwt beam="2">0</pdfrwt>
<totfact> 0.27674155E+04</totfact>
</mgrwt>
</event>
<event>
 6    1  0.6513574E-002  0.3000000E+03  0.7818608E-02  0.1093470E+00
         21   -1    0    0  501  502  0.00000000000E+00  0.00000000000E+00  0.21675634861E+01  0.21675634861E+01  0.00000000000E+00 0. -1.
         13   -1    0    0    0    0 -0.00000000000E+00 -0.00000000000E+00 -0.10000000000E+04  0.10000000000E+04  0.00000000000E+00 0.  1.
    9000005    2    1    2  501    0 -0.10624668234E+02  0.43660353297E+02 -0.37132337485E+03  0.37404917148E+03  0.35530201733E+01 0.  0.
         13    1    3    3    0    0 -0.23017937393E+01  0.12509748958E+02 -0.11730455586E+03  0.11799216457E+03  0.00000000000E+00 0.  1.
          1    1    3    3  501    0 -0.83228744951E+01  0.31150604339E+02 -0.25401881898E+03  0.25605700691E+03  0.00000000000E+00 0.  1.
         -3    1    1    2    0  502  0.10624668234E+02 -0.43660353297E+02 -0.62650906167E+03  0.62811839201E+03  0.00000000000E+00 0. -1.
<mgrwt>
<rscale>  1 0.30000000E+03</rscale>
<asrwt>0</asrwt>
<pdfrwt beam="1">  1       21 0.78820657E-02 0.30000000E+03</pdfrwt>
<pdfrwt beam="2">0</pdfrwt>
<totfact> 0.13111332E+04</totfact>
</mgrwt>
</event>
<event>
 6    1  0.6513574E-002  0.3000000E+03  0.7818608E-02  0.1093470E+00
         21   -1    0    0  501  502  0.00000000000E+00  0.00000000000E+00  0.37731665583E+01  0.37731665583E+01  0.00000000000E+00 0. -1.
         13   -1    0    0    0    0 -0.00000000000E+00 -0.00000000000E+00 -0.10000000000E+04  0.10000000000E+04  0.00000000000E+00 0.  1.
    9000005    2    1    2  501    0 -0.15382224385E+02  0.55593445185E+02 -0.33135930235E+03  0.33640814060E+03  0.66487466678E+01 0.  0.
         13    1    3    3    0    0 -0.86292072259E+01  0.20895031114E+02 -0.13939106718E+03  0.14121237606E+03  0.00000000000E+00 0.  1.
          3    1    3    3  501    0 -0.67530171594E+01  0.34698414072E+02 -0.19196823517E+03  0.19519576454E+03  0.00000000000E+00 0.  1.
         -3    1    1    2    0  502  0.15382224385E+02 -0.55593445185E+02 -0.66486753109E+03  0.66736502596E+03  0.00000000000E+00 0. -1.
<mgrwt>
<rscale>  1 0.30000000E+03</rscale>
<asrwt>0</asrwt>
<pdfrwt beam="1">  1       21 0.13720635E-01 0.30000000E+03</pdfrwt>
<pdfrwt beam="2">0</pdfrwt>
<totfact> 0.48529550E+03</totfact>
</mgrwt>
</event>
<event>
 6    1  0.6513574E-002  0.3000000E+03  0.7818608E-02  0.1093470E+00
         21   -1    0    0  501  502  0.00000000000E+00  0.00000000000E+00  0.26330151850E+01  0.26330151850E+01  0.00000000000E+00 0. -1.
         13   -1    0    0    0    0 -0.00000000000E+00 -0.00000000000E+00 -0.10000000000E+04  0.10000000000E+04  0.00000000000E+00 0.  1.
    9000005    2    1    2  501    0 -0.12714282904E+02 -0.49242698936E+02 -0.43742569769E+03  0.44038685787E+03  0.35842986495E+01 0.  0.
         13    1    3    3    0    0 -0.47539177549E+01 -0.16756425080E+02 -0.13585479046E+03  0.13696679016E+03  0.00000000000E+00 0.  1.
          1    1    3    3  501    0 -0.79603651490E+01 -0.32486273856E+02 -0.30157090723E+03  0.30342006771E+03  0.00000000000E+00 0.  1.
         -3    1    1    2    0  502  0.12714282904E+02  0.49242698936E+02 -0.55994128713E+03  0.56224615732E+03  0.00000000000E+00 0. -1.
<mgrwt>
<rscale>  1 0.30000000E+03</rscale>
<asrwt>0</asrwt>
<pdfrwt beam="1">  1       21 0.95746209E-02 0.30000000E+03</pdfrwt>
<pdfrwt beam="2">0</pdfrwt>
<totfact> 0.92971829E+03</totfact>
</mgrwt>
</event>
<event>
 6    1  0.6513574E-002  0.3000000E+03  0.7818608E-02  0.1093470E+00
         21   -1    0    0  501  502  0.00000000000E+00  0.00000000000E+00  0.40027286338E+01  0.40027286338E+01  0.00000000000E+00 0. -1.
         13   -1    0    0    0    0 -0.00000000000E+00 -0.00000000000E+00 -0.10000000000E+04  0.10000000000E+04  0.00000000000E+00 0.  1.
    9000005    2    1    2  501    0 -0.21567150829E+02  0.50046415571E+02 -0.75256857889E+03  0.75454869674E+03  0.38058003431E+01 0.  0.
         13    1    3    3    0    0 -0.45711006100E+01  0.11098607312E+02 -0.18840071924E+03  0.18878269268E+03  0.00000000000E+00 0.  1.
          3    1    3    3  501    0 -0.16996050219E+02  0.38947808259E+02 -0.56416785965E+03  0.56576600407E+03  0.00000000000E+00 0.  1.
         -1    1    1    2    0  502  0.21567150829E+02 -0.50046415571E+02 -0.24342869248E+03  0.24945403189E+03  0.00000000000E+00 0. -1.
<mgrwt>
<rscale>  1 0.30000000E+03</rscale>
<asrwt>0</asrwt>
<pdfrwt beam="1">  1       21 0.14555408E-01 0.30000000E+03</pdfrwt>
<pdfrwt beam="2">0</pdfrwt>
<totfact> 0.43534489E+03</totfact>
</mgrwt>
</event>
<event>
 6    1  0.6513574E-002  0.3000000E+03  0.7818608E-02  0.1093470E+00
         21   -1    0    0  501  502  0.00000000000E+00  0.00000000000E+00  0.11740412294E+01  0.11740412294E+01  0.00000000000E+00 0. -1.
         13   -1    0    0    0    0 -0.00000000000E+00 -0.00000000000E+00 -0.10000000000E+04  0.10000000000E+04  0.00000000000E+00 0.  1.
    9000005    2    1    2  501    0  0.21436632982E+02  0.26616044663E+02 -0.48872673006E+03  0.48993127483E+03  0.33006532652E+01 0.  0.
         13    1    3    3    0    0  0.15131811399E+02  0.18040207410E+02 -0.31503469853E+03  0.31591340914E+03  0.00000000000E+00 0.  1.
          3    1    3    3  501    0  0.63048215831E+01  0.85758372534E+01 -0.17369203154E+03  0.17401786569E+03  0.00000000000E+00 0.  1.
         -3    1    1    2    0  502 -0.21436632982E+02 -0.26616044663E+02 -0.51009922871E+03  0.51124276640E+03  0.00000000000E+00 0. -1.
<mgrwt>
<rscale>  1 0.30000000E+03</rscale>
<asrwt>0</asrwt>
<pdfrwt beam="1">  1       21 0.42692498E-02 0.30000000E+03</pdfrwt>
<pdfrwt beam="2">0</pdfrwt>
<totfact> 0.37671110E+04</totfact>
</mgrwt>
</event>
<event>
 6    1  0.6513574E-002  0.3000000E+03  0.7818608E-02  0.1093470E+00
         21   -1    0    0  501  502  0.00000000000E+00  0.00000000000E+00  0.18459710130E+01  0.18459710130E+01  0.00000000000E+00 0. -1.
         13   -1    0    0    0    0 -0.00000000000E+00 -0.00000000000E+00 -0.10000000000E+04  0.10000000000E+04  0.00000000000E+00 0.  1.
    9000005    2    1    2  501    0  0.23446036563E+02  0.22927017291E+02 -0.17852845626E+03  0.18156465084E+03  0.42365066549E+01 0.  0.
         13    1    3    3    0    0  0.51886608837E+01  0.48391587940E+01 -0.29876180815E+02  0.30707097545E+02  0.00000000000E+00 0.  1.
          1    1    3    3  501    0  0.18257375680E+02  0.18087858497E+02 -0.14865227544E+03  0.15085755330E+03  0.00000000000E+00 0.  1.
         -3    1    1    2    0  502 -0.23446036563E+02 -0.22927017291E+02 -0.81962557273E+03  0.82028132017E+03  0.00000000000E+00 0. -1.
<mgrwt>
<rscale>  1 0.30000000E+03</rscale>
<asrwt>0</asrwt>
<pdfrwt beam="1">  1       21 0.67126360E-02 0.30000000E+03</pdfrwt>
<pdfrwt beam="2">0</pdfrwt>
<totfact> 0.17354361E+04</totfact>
</mgrwt>
</event>
<event>
 6    1  0.6513574E-002  0.3000000E+03  0.7818608E-02  0.1093470E+00
         21   -1    0    0  501  502  0.00000000000E+00  0.00000000000E+00  0.91879367863E+00  0.91879367863E+00  0.00000000000E+00 0. -1.
         13   -1    0    0    0    0 -0.00000000000E+00 -0.00000000000E+00 -0.10000000000E+04  0.10000000000E+04  0.00000000000E+00 0.  1.
    9000005    2    1    2  501    0  0.21389425877E+02 -0.21334511570E+02 -0.49178030932E+03  0.49271915867E+03  0.34099506520E+01 0.  0.
         13    1    3    3    0    0  0.79283627415E+01 -0.66494657466E+01 -0.19068657024E+03  0.19096712388E+03  0.00000000000E+00 0.  1.
          3    1    3    3  501    0  0.13461063136E+02 -0.14685045824E+02 -0.30109373908E+03  0.30175203480E+03  0.00000000000E+00 0.  1.
         -1    1    1    2    0  502 -0.21389425877E+02  0.21334511570E+02 -0.50730089700E+03  0.50819963501E+03  0.00000000000E+00 0. -1.
<mgrwt>
<rscale>  1 0.30000000E+03</rscale>
<asrwt>0</asrwt>
<pdfrwt beam="1">  1       21 0.33410750E-02 0.30000000E+03</pdfrwt>
<pdfrwt beam="2">0</pdfrwt>
<totfact> 0.56867506E+04</totfact>
</mgrwt>
</event>
<event>
 6    1  0.6513574E-002  0.3000000E+03  0.7818608E-02  0.1093470E+00
         21   -1    0    0  501  502  0.00000000000E+00  0.00000000000E+00  0.34238300159E+01  0.34238300159E+01  0.00000000000E+00 0. -1.
         13   -1    0    0    0    0 -0.00000000000E+00 -0.00000000000E+00 -0.10000000000E+04  0.10000000000E+04  0.00000000000E+00 0.  1.
    9000005    2    1    2  501    0 -0.49328886139E+02 -0.14876869719E+02 -0.73555143763E+03  0.73736261308E+03  0.36118553123E+01 0.  0.
         13    1    3    3    0    0 -0.39936334966E+02 -0.10541805578E+02 -0.58648332318E+03  0.58793599046E+03  0.00000000000E+00 0.  1.
          3    1    3    3  501    0 -0.93925511729E+01 -0.43350641407E+01 -0.14906811446E+03  0.14942662262E+03  0.00000000000E+00 0.  1.
         -1    1    1    2    0  502  0.49328886139E+02  0.14876869719E+02 -0.26102473235E+03  0.26606121694E+03  0.00000000000E+00 0. -1.
<mgrwt>
<rscale>  1 0.30000000E+03</rscale>
<asrwt>0</asrwt>
<pdfrwt beam="1">  1       21 0.12450317E-01 0.30000000E+03</pdfrwt>
<pdfrwt beam="2">0</pdfrwt>
<totfact> 0.57955764E+03</totfact>
</mgrwt>
</event>
<event>
 6    1  0.6513574E-002  0.3000000E+03  0.7818608E-02  0.1093470E+00
         21   -1    0    0  501  502  0.00000000000E+00  0.00000000000E+00  0.10060209828E+01  0.10060209828E+01  0.00000000000E+00 0. -1.
         13   -1    0    0    0    0 -0.00000000000E+00 -0.00000000000E+00 -0.10000000000E+04  0.10000000000E+04  0.00000000000E+00 0.  1.
    9000005    2    1    2  501    0  0.41684140964E+01 -0.30803164659E+02 -0.59296489828E+03  0.59378884915E+03  0.34082483512E+01 0.  0.
         13    1    3    3    0    0  0.15362070615E+00 -0.13555071879E+02 -0.26242178286E+03  0.26277167978E+03  0.00000000000E+00 0.  1.
          1    1    3    3  501    0  0.40147933903E+01 -0.17248092779E+02 -0.33054311542E+03  0.33101716937E+03  0.00000000000E+00 0.  1.
         -3    1    1    2    0  502 -0.41684140964E+01  0.30803164659E+02 -0.40602908074E+03  0.40721717183E+03  0.00000000000E+00 0. -1.
<mgrwt>
<rscale>  1 0.30000000E+03</rscale>
<asrwt>0</asrwt>
<pdfrwt beam="1">  1       21 0.36582658E-02 0.30000000E+03</pdfrwt>
<pdfrwt beam="2">0</pdfrwt>
<totfact> 0.48856680E+04</totfact>
</mgrwt>
</event>
<event>
 6    1  0.6513574E-002  0.3000000E+03  0.7818608E-02  0.1093470E+00
         21   -1    0    0  501  502  0.00000000000E+00  0.00000000000E+00  0.16337315359E+01  0.16337315359E+01  0.00000000000E+00 0. -1.
         13   -1    0    0    0    0 -0.00000000000E+00 -0.00000000000E+00 -0.10000000000E+04  0.10000000000E+04  0.00000000000E+00 0.  1.
    9000005    2    1    2  501    0  0.29857189785E+02  0.20232099208E+02 -0.27843041661E+03  0.28079503917E+03  0.46440834680E+01 0.  0.
         13    1    3    3    0    0  0.24767147523E+01  0.98403036754E+00 -0.13652002384E+02  0.13909694490E+02  0.00000000000E+00 0.  1.
          3    1    3    3  501    0  0.27380475033E+02  0.19248068840E+02 -0.26477841422E+03  0.26688534468E+03  0.00000000000E+00 0.  1.
         -3    1    1    2    0  502 -0.29857189785E+02 -0.20232099208E+02 -0.71993585186E+03  0.72083869237E+03  0.00000000000E+00 0. -1.
<mgrwt>
<rscale>  1 0.30000000E+03</rscale>
<asrwt>0</asrwt>
<pdfrwt beam="1">  1       21 0.59408545E-02 0.30000000E+03</pdfrwt>
<pdfrwt beam="2">0</pdfrwt>
<totfact> 0.21434700E+04</totfact>
</mgrwt>
</event>
<event>
 6    1  0.6513574E-002  0.3000000E+03  0.7818608E-02  0.1093470E+00
         21   -1    0    0  501  502  0.00000000000E+00  0.00000000000E+00  0.12567271010E+01  0.12567271010E+01  0.00000000000E+00 0. -1.
         13   -1    0    0    0    0 -0.00000000000E+00 -0.00000000000E+00 -0.10000000000E+04  0.10000000000E+04  0.00000000000E+00 0.  1.
    9000005    2    1    2  501    0 -0.21106471948E+02 -0.28281181941E+02 -0.46603380124E+03  0.46737969106E+03  0.33110893816E+01 0.  0.
         13    1    3    3    0    0 -0.17974244437E+02 -0.25754170596E+02 -0.40891493284E+03  0.41011921812E+03  0.00000000000E+00 0.  1.
          1    1    3    3  501    0 -0.31322275111E+01 -0.25270113448E+01 -0.57118868393E+02  0.57260472946E+02  0.00000000000E+00 0.  1.
         -3    1    1    2    0  502  0.21106471948E+02  0.28281181941E+02 -0.53270947166E+03  0.53387703604E+03  0.00000000000E+00 0. -1.
<mgrwt>
<rscale>  1 0.30000000E+03</rscale>
<asrwt>0</asrwt>
<pdfrwt beam="1">  1       21 0.45699264E-02 0.30000000E+03</pdfrwt>
<pdfrwt beam="2">0</pdfrwt>
<totfact> 0.33567743E+04</totfact>
</mgrwt>
</event>
<event>
 6    1  0.6513574E-002  0.3000000E+03  0.7818608E-02  0.1093470E+00
         21   -1    0    0  501  502  0.00000000000E+00  0.00000000000E+00  0.11440137146E+01  0.11440137146E+01  0.00000000000E+00 0. -1.
         13   -1    0    0    0    0 -0.00000000000E+00 -0.00000000000E+00 -0.10000000000E+04  0.10000000000E+04  0.00000000000E+00 0.  1.
    9000005    2    1    2  501    0  0.32262344557E+02  0.97870591016E+01 -0.51645313916E+03  0.51756449356E+03  0.35376036191E+01 0.  0.
         13    1    3    3    0    0  0.29795945199E+02  0.81491595942E+01 -0.46284916048E+03  0.46387881231E+03  0.00000000000E+00 0.  1.
          3    1    3    3  501    0  0.24663993577E+01  0.16378995074E+01 -0.53603978676E+02  0.53685681243E+02  0.00000000000E+00 0.  1.
         -1    1    1    2    0  502 -0.32262344557E+02 -0.97870591016E+01 -0.48240284713E+03  0.48357952016E+03  0.00000000000E+00 0. -1.
<mgrwt>
<rscale>  1 0.30000000E+03</rscale>
<asrwt>0</asrwt>
<pdfrwt beam="1">  1       21 0.41600586E-02 0.30000000E+03</pdfrwt>
<pdfrwt beam="2">0</pdfrwt>
<totfact> 0.39356214E+04</totfact>
</mgrwt>
</event>
<event>
 6    1  0.6513574E-002  0.3000000E+03  0.7818608E-02  0.1093470E+00
         21   -1    0    0  501  502  0.00000000000E+00  0.00000000000E+00  0.16102883160E+01  0.16102883160E+01  0.00000000000E+00 0. -1.
         13   -1    0    0    0    0 -0.00000000000E+00 -0.00000000000E+00 -0.10000000000E+04  0.10000000000E+04  0.00000000000E+00 0.  1.
    9000005    2    1    2  501    0  0.69068893413E+01  0.32105962773E+02 -0.21433533147E+03  0.21686843962E+03  0.37131953612E+01 0.  0.
         13    1    3    3    0    0  0.63463603933E+01  0.23893711758E+02 -0.15332003830E+03  0.15530041821E+03  0.00000000000E+00 0.  1.
          1    1    3    3  501    0  0.56052894800E+00  0.82122510152E+01 -0.61015293167E+02  0.61568021405E+02  0.00000000000E+00 0.  1.
         -1    1    1    2    0  502 -0.69068893413E+01 -0.32105962773E+02 -0.78405438021E+03  0.78474184870E+03  0.00000000000E+00 0. -1.
<mgrwt>
<rscale>  1 0.30000000E+03</rscale>
<asrwt>0</asrwt>
<pdfrwt beam="1">  1       21 0.58556062E-02 0.30000000E+03</pdfrwt>
<pdfrwt beam="2">0</pdfrwt>
<totfact> 0.21975365E+04</totfact>
</mgrwt>
</event>
<event>
 6    1  0.6513574E-002  0.3000000E+03  0.7818608E-02  0.1093470E+00
         21   -1    0    0  501  502  0.00000000000E+00  0.00000000000E+00  0.10866611966E+01  0.10866611966E+01  0.00000000000E+00 0. -1.
         13   -1    0    0    0    0 -0.00000000000E+00 -0.00000000000E+00 -0.10000000000E+04  0.10000000000E+04  0.00000000000E+00 0.  1.
    9000005    2    1    2  501    0 -0.19970372826E+02  0.24410047838E+02 -0.35659710394E+03  0.35799661167E+03  0.23266295898E+01 0.  0.
         13    1    3    3    0    0 -0.14725359463E+02  0.17774172395E+02 -0.27209031493E+03  0.27306756837E+03  0.00000000000E+00 0.  1.
          3    1    3    3  501    0 -0.52450133624E+01  0.66358754435E+01 -0.84506789006E+02  0.84929043302E+02  0.00000000000E+00 0.  1.
         -3    1    1    2    0  502  0.19970372826E+02 -0.24410047838E+02 -0.64231623486E+03  0.64309004952E+03  0.00000000000E+00 0. -1.
<mgrwt>
<rscale>  1 0.30000000E+03</rscale>
<asrwt>0</asrwt>
<pdfrwt beam="1">  1       21 0.39515036E-02 0.30000000E+03</pdfrwt>
<pdfrwt beam="2">0</pdfrwt>
<totfact> 0.42919732E+04</totfact>
</mgrwt>
</event>
<event>
 6    1  0.6513574E-002  0.3000000E+03  0.7818608E-02  0.1093470E+00
         21   -1    0    0  501  502  0.00000000000E+00  0.00000000000E+00  0.12374656673E+01  0.12374656673E+01  0.00000000000E+00 0. -1.
         13   -1    0    0    0    0 -0.00000000000E+00 -0.00000000000E+00 -0.10000000000E+04  0.10000000000E+04  0.00000000000E+00 0.  1.
    9000005    2    1    2  501    0  0.58867147368E+01  0.29689908638E+02 -0.75290888631E+03  0.75352763476E+03  0.39951429596E+01 0.  0.
         13    1    3    3    0    0  0.51421641253E+01  0.16106185505E+02 -0.43042261034E+03  0.43075454096E+03  0.00000000000E+00 0.  1.
          1    1    3    3  501    0  0.74455061145E+00  0.13583723133E+02 -0.32248627598E+03  0.32277309380E+03  0.00000000000E+00 0.  1.
         -3    1    1    2    0  502 -0.58867147368E+01 -0.29689908638E+02 -0.24585364802E+03  0.24770983091E+03  0.00000000000E+00 0. -1.
<mgrwt>
<rscale>  1 0.30000000E+03</rscale>
<asrwt>0</asrwt>
<pdfrwt beam="1">  1       21 0.44998846E-02 0.30000000E+03</pdfrwt>
<pdfrwt beam="2">0</pdfrwt>
<totfact> 0.34459688E+04</totfact>
</mgrwt>
</event>
<event>
 6    1  0.6513574E-002  0.3000000E+03  0.7818608E-02  0.1093470E+00
         21   -1    0    0  501  502  0.00000000000E+00  0.00000000000E+00  0.13572648166E+01  0.13572648166E+01  0.00000000000E+00 0. -1.
         13   -1    0    0    0    0 -0.00000000000E+00 -0.00000000000E+00 -0.10000000000E+04  0.10000000000E+04  0.00000000000E+00 0.  1.
    9000005    2    1    2  501    0 -0.35564174678E+02 -0.93506364777E+01 -0.50831873857E+03  0.50965627176E+03  0.30545759815E+01 0.  0.
         13    1    3    3    0    0 -0.24440866995E+02 -0.68727109655E+01 -0.33165630439E+03  0.33262665915E+03  0.00000000000E+00 0.  1.
          3    1    3    3  501    0 -0.11123307683E+02 -0.24779255122E+01 -0.17666243419E+03  0.17702961261E+03  0.00000000000E+00 0.  1.
         -3    1    1    2    0  502  0.35564174678E+02  0.93506364777E+01 -0.49032399661E+03  0.49170099306E+03  0.00000000000E+00 0. -1.
<mgrwt>
<rscale>  1 0.30000000E+03</rscale>
<asrwt>0</asrwt>
<pdfrwt beam="1">  1       21 0.49355188E-02 0.30000000E+03</pdfrwt>
<pdfrwt beam="2">0</pdfrwt>
<totfact> 0.29448930E+04</totfact>
</mgrwt>
</event>
<event>
 6    1  0.6513574E-002  0.3000000E+03  0.7818608E-02  0.1093470E+00
         21   -1    0    0  501  502  0.00000000000E+00  0.00000000000E+00  0.15012518277E+01  0.15012518277E+01  0.00000000000E+00 0. -1.
         13   -1    0    0    0    0 -0.00000000000E+00 -0.00000000000E+00 -0.10000000000E+04  0.10000000000E+04  0.00000000000E+00 0.  1.
    9000005    2    1    2  501    0 -0.34559059452E+02 -0.22507804683E+01 -0.72117127217E+03  0.72201972552E+03  0.50085556965E+01 0.  0.
         13    1    3    3    0    0 -0.28529395722E+02 -0.16778356401E+00 -0.56901556438E+03  0.56973034594E+03  0.00000000000E+00 0.  1.
          1    1    3    3  501    0 -0.60296637294E+01 -0.20829969043E+01 -0.15215570779E+03  0.15228937958E+03  0.00000000000E+00 0.  1.
         -3    1    1    2    0  502  0.34559059452E+02  0.22507804683E+01 -0.27732747600E+03  0.27948152631E+03  0.00000000000E+00 0. -1.
<mgrwt>
<rscale>  1 0.30000000E+03</rscale>
<asrwt>0</asrwt>
<pdfrwt beam="1">  1       21 0.54591091E-02 0.30000000E+03</pdfrwt>
<pdfrwt beam="2">0</pdfrwt>
<totfact> 0.24789240E+04</totfact>
</mgrwt>
</event>
<event>
 6    1  0.6513574E-002  0.3000000E+03  0.7818608E-02  0.1093470E+00
         21   -1    0    0  501  502  0.00000000000E+00  0.00000000000E+00  0.96665411113E+00  0.96665411113E+00  0.00000000000E+00 0. -1.
         13   -1    0    0    0    0 -0.00000000000E+00 -0.00000000000E+00 -0.10000000000E+04  0.10000000000E+04  0.00000000000E+00 0.  1.
    9000005    2    1    2  501    0  0.11308432911E+02 -0.28019206043E+02 -0.39137445208E+03  0.39255701597E+03  0.37539953998E+01 0.  0.
         13    1    3    3    0    0  0.21068565932E+01 -0.66447798661E+01 -0.72391939464E+02  0.72726782161E+02  0.00000000000E+00 0.  1.
          1    1    3    3  501    0  0.92015763180E+01 -0.21374426177E+02 -0.31898251262E+03  0.31983023381E+03  0.00000000000E+00 0.  1.
         -3    1    1    2    0  502 -0.11308432911E+02  0.28019206043E+02 -0.60765889381E+03  0.60840963814E+03  0.00000000000E+00 0. -1.
<mgrwt>
<rscale>  1 0.30000000E+03</rscale>
<asrwt>0</asrwt>
<pdfrwt beam="1">  1       21 0.35151133E-02 0.30000000E+03</pdfrwt>
<pdfrwt beam="2">0</pdfrwt>
<totfact> 0.52238488E+04</totfact>
</mgrwt>
</event>
<event>
 6    1  0.6513574E-002  0.3000000E+03  0.7818608E-02  0.1093470E+00
         21   -1    0    0  501  502  0.00000000000E+00  0.00000000000E+00  0.10686156847E+01  0.10686156847E+01  0.00000000000E+00 0. -1.
         13   -1    0    0    0    0 -0.00000000000E+00 -0.00000000000E+00 -0.10000000000E+04  0.10000000000E+04  0.00000000000E+00 0.  1.
    9000005    2    1    2  501    0  0.65207996444E+01 -0.31426814796E+02 -0.41329619884E+03  0.41455456130E+03  0.34015890869E+01 0.  0.
         13    1    3    3    0    0  0.21272818796E+01 -0.45439733808E+01 -0.59273417329E+02  0.59485384963E+02  0.00000000000E+00 0.  1.
          3    1    3    3  501    0  0.43935177648E+01 -0.26882841415E+02 -0.35402278151E+03  0.35506917634E+03  0.00000000000E+00 0.  1.
         -3    1    1    2    0  502 -0.65207996444E+01  0.31426814796E+02 -0.58563518548E+03  0.58651405438E+03  0.00000000000E+00 0. -1.
<mgrwt>
<rscale>  1 0.30000000E+03</rscale>
<asrwt>0</asrwt>
<pdfrwt beam="1">  1       21 0.38858834E-02 0.30000000E+03</pdfrwt>
<pdfrwt beam="2">0</pdfrwt>
<totfact> 0.44146085E+04</totfact>
</mgrwt>
</event>
<event>
 6    1  0.6513574E-002  0.3000000E+03  0.7818608E-02  0.1093470E+00
         21   -1    0    0  501  502  0.00000000000E+00  0.00000000000E+00  0.13797506953E+01  0.13797506953E+01  0.00000000000E+00 0. -1.
         13   -1    0    0    0    0 -0.00000000000E+00 -0.00000000000E+00 -0.10000000000E+04  0.10000000000E+04  0.00000000000E+00 0.  1.
    9000005    2    1    2  501    0 -0.78799832220E+01  0.35286956101E+02 -0.39027181542E+03  0.39195782755E+03  0.34037120785E+01 0.  0.
         13    1    3    3    0    0 -0.22252193025E+01  0.11483853216E+02 -0.14363766010E+03  0.14411317734E+03  0.00000000000E+00 0.  1.
          1    1    3    3  501    0 -0.56547639195E+01  0.23803102885E+02 -0.24663415532E+03  0.24784465020E+03  0.00000000000E+00 0.  1.
         -1    1    1    2    0  502  0.78799832220E+01 -0.35286956101E+02 -0.60834843388E+03  0.60942192315E+03  0.00000000000E+00 0. -1.
<mgrwt>
<rscale>  1 0.30000000E+03</rscale>
<asrwt>0</asrwt>
<pdfrwt beam="1">  1       21 0.50172858E-02 0.30000000E+03</pdfrwt>
<pdfrwt beam="2">0</pdfrwt>
<totfact> 0.28635670E+04</totfact>
</mgrwt>
</event>
<event>
 6    1  0.6513574E-002  0.3000000E+03  0.7818608E-02  0.1093470E+00
         21   -1    0    0  501  502  0.00000000000E+00  0.00000000000E+00  0.12726132199E+01  0.12726132199E+01  0.00000000000E+00 0. -1.
         13   -1    0    0    0    0 -0.00000000000E+00 -0.00000000000E+00 -0.10000000000E+04  0.10000000000E+04  0.00000000000E+00 0.  1.
    9000005    2    1    2  501    0 -0.22411711383E+02 -0.27573276478E+02 -0.52003024709E+03  0.52125852808E+03  0.40527555244E+01 0.  0.
         13    1    3    3    0    0 -0.11895744643E+02 -0.12950166959E+02 -0.28206700257E+03  0.28261459535E+03  0.00000000000E+00 0.  1.
          3    1    3    3  501    0 -0.10515966740E+02 -0.14623109520E+02 -0.23796324452E+03  0.23864393273E+03  0.00000000000E+00 0.  1.
         -1    1    1    2    0  502  0.22411711383E+02  0.27573276478E+02 -0.47869713969E+03  0.48001408514E+03  0.00000000000E+00 0. -1.
<mgrwt>
<rscale>  1 0.30000000E+03</rscale>
<asrwt>0</asrwt>
<pdfrwt beam="1">  1       21 0.46276942E-02 0.30000000E+03</pdfrwt>
<pdfrwt beam="2">0</pdfrwt>
<totfact> 0.32858944E+04</totfact>
</mgrwt>
</event>
<event>
 6    1  0.6513574E-002  0.3000000E+03  0.7818608E-02  0.1093470E+00
         21   -1    0    0  501  502  0.00000000000E+00  0.00000000000E+00  0.13289372190E+01  0.13289372190E+01  0.00000000000E+00 0. -1.
         13   -1    0    0    0    0 -0.00000000000E+00 -0.00000000000E+00 -0.10000000000E+04  0.10000000000E+04  0.00000000000E+00 0.  1.
    9000005    2    1    2  501    0 -0.14233822602E+02 -0.33157282248E+02 -0.43837130788E+03  0.43986850013E+03  0.35898138911E+01 0.  0.
         13    1    3    3    0    0 -0.33632922732E+01 -0.49935557912E+01 -0.82093328231E+02  0.82313801239E+02  0.00000000000E+00 0.  1.
          3    1    3    3  501    0 -0.10870530329E+02 -0.28163726457E+02 -0.35627797965E+03  0.35755469889E+03  0.00000000000E+00 0.  1.
         -1    1    1    2    0  502  0.14233822602E+02  0.33157282248E+02 -0.56029975490E+03  0.56146043709E+03  0.00000000000E+00 0. -1.
<mgrwt>
<rscale>  1 0.30000000E+03</rscale>
<asrwt>0</asrwt>
<pdfrwt beam="1">  1       21 0.48325092E-02 0.30000000E+03</pdfrwt>
<pdfrwt beam="2">0</pdfrwt>
<totfact> 0.30525861E+04</totfact>
</mgrwt>
</event>
<event>
 6    1  0.6513574E-002  0.3000000E+03  0.7818608E-02  0.1093470E+00
         21   -1    0    0  501  502  0.00000000000E+00  0.00000000000E+00  0.12951778904E+01  0.12951778904E+01  0.00000000000E+00 0. -1.
         13   -1    0    0    0    0 -0.00000000000E+00 -0.00000000000E+00 -0.10000000000E+04  0.10000000000E+04  0.00000000000E+00 0.  1.
    9000005    2    1    2  501    0  0.83116762962E+01  0.30924477941E+02 -0.27492103745E+03  0.27680337377E+03  0.36226509885E+01 0.  0.
         13    1    3    3    0    0  0.12881749768E+01  0.10595887419E+02 -0.98171638272E+02  0.98750203979E+02  0.00000000000E+00 0.  1.
          1    1    3    3  501    0  0.70235013193E+01  0.20328590522E+02 -0.17674939918E+03  0.17805316980E+03  0.00000000000E+00 0.  1.
         -3    1    1    2    0  502 -0.83116762962E+01 -0.30924477941E+02 -0.72378378466E+03  0.72449180412E+03  0.00000000000E+00 0. -1.
<mgrwt>
<rscale>  1 0.30000000E+03</rscale>
<asrwt>0</asrwt>
<pdfrwt beam="1">  1       21 0.47097477E-02 0.30000000E+03</pdfrwt>
<pdfrwt beam="2">0</pdfrwt>
<totfact> 0.31891789E+04</totfact>
</mgrwt>
</event>
<event>
 6    1  0.6513574E-002  0.3000000E+03  0.7818608E-02  0.1093470E+00
         21   -1    0    0  501  502  0.00000000000E+00  0.00000000000E+00  0.12621570084E+01  0.12621570084E+01  0.00000000000E+00 0. -1.
         13   -1    0    0    0    0 -0.00000000000E+00 -0.00000000000E+00 -0.10000000000E+04  0.10000000000E+04  0.00000000000E+00 0.  1.
    9000005    2    1    2  501    0  0.54138251779E+01 -0.29572245034E+02 -0.23621168759E+03  0.23814357851E+03  0.35461883120E+01 0.  0.
         13    1    3    3    0    0  0.71686591048E-01 -0.74110589114E+01 -0.64915921952E+02  0.65337629710E+02  0.00000000000E+00 0.  1.
          3    1    3    3  501    0  0.53421385869E+01 -0.22161186122E+02 -0.17129576564E+03  0.17280594880E+03  0.00000000000E+00 0.  1.
         -1    1    1    2    0  502 -0.54138251779E+01  0.29572245034E+02 -0.76252615540E+03  0.76311857850E+03  0.00000000000E+00 0. -1.
<mgrwt>
<rscale>  1 0.30000000E+03</rscale>
<asrwt>0</asrwt>
<pdfrwt beam="1">  1       21 0.45896715E-02 0.30000000E+03</pdfrwt>
<pdfrwt beam="2">0</pdfrwt>
<totfact> 0.33322797E+04</totfact>
</mgrwt>
</event>
<event>
 6    1  0.6513574E-002  0.3000000E+03  0.7818608E-02  0.1093470E+00
         21   -1    0    0  501  502  0.00000000000E+00  0.00000000000E+00  0.12070169953E+01  0.12070169953E+01  0.00000000000E+00 0. -1.
         13   -1    0    0    0    0 -0.00000000000E+00 -0.00000000000E+00 -0.10000000000E+04  0.10000000000E+04  0.00000000000E+00 0.  1.
    9000005    2    1    2  501    0 -0.30890021616E+02  0.70044408165E+01 -0.29737612597E+03  0.29907536056E+03  0.32024013890E+01 0.  0.
         13    1    3    3    0    0 -0.24962447808E+02  0.65757138072E+01 -0.24947093130E+03  0.25080292936E+03  0.00000000000E+00 0.  1.
          3    1    3    3  501    0 -0.59275738079E+01  0.42872700927E+00 -0.47905194671E+02  0.48272431207E+02  0.00000000000E+00 0.  1.
         -3    1    1    2    0  502  0.30890021616E+02 -0.70044408165E+01 -0.70141685704E+03  0.70213165643E+03  0.00000000000E+00 0. -1.
<mgrwt>
<rscale>  1 0.30000000E+03</rscale>
<asrwt>0</asrwt>
<pdfrwt beam="1">  1       21 0.43891620E-02 0.30000000E+03</pdfrwt>
<pdfrwt beam="2">0</pdfrwt>
<totfact> 0.35946250E+04</totfact>
</mgrwt>
</event>
<event>
 6    1  0.6513574E-002  0.3000000E+03  0.7818608E-02  0.1093470E+00
         21   -1    0    0  501  502  0.00000000000E+00  0.00000000000E+00  0.18018157218E+01  0.18018157218E+01  0.00000000000E+00 0. -1.
         13   -1    0    0    0    0 -0.00000000000E+00 -0.00000000000E+00 -0.10000000000E+04  0.10000000000E+04  0.00000000000E+00 0.  1.
    9000005    2    1    2  501    0  0.16379668422E+02 -0.28419538333E+02 -0.18314930018E+03  0.18609313785E+03  0.33205570711E+01 0.  0.
         13    1    3    3    0    0  0.12745313887E+02 -0.21314298644E+02 -0.14589843362E+03  0.14799694350E+03  0.00000000000E+00 0.  1.
          1    1    3    3  501    0  0.36343545357E+01 -0.71052396893E+01 -0.37250866568E+02  0.38096194350E+02  0.00000000000E+00 0.  1.
         -1    1    1    2    0  502 -0.16379668422E+02  0.28419538333E+02 -0.81504888409E+03  0.81570867787E+03  0.00000000000E+00 0. -1.
<mgrwt>
<rscale>  1 0.30000000E+03</rscale>
<asrwt>0</asrwt>
<pdfrwt beam="1">  1       21 0.65520710E-02 0.30000000E+03</pdfrwt>
<pdfrwt beam="2">0</pdfrwt>
<totfact> 0.18098227E+04</totfact>
</mgrwt>
</event>
<event>
 6    1  0.6513574E-002  0.3000000E+03  0.7818608E-02  0.1093470E+00
         21   -1    0    0  501  502  0.00000000000E+00  0.00000000000E+00  0.24521785462E+01  0.24521785462E+01  0.00000000000E+00 0. -1.
         13   -1    0    0    0    0 -0.00000000000E+00 -0.00000000000E+00 -0.10000000000E+04  0.10000000000E+04  0.00000000000E+00 0.  1.
    9000005    2    1    2  501    0 -0.29667754542E+02 -0.28693221914E+02 -0.77523117008E+03  0.77633678738E+03  0.34588632810E+01 0.  0.
         13    1    3    3    0    0 -0.12305282656E+02 -0.10746749918E+02 -0.33466132867E+03  0.33505987155E+03  0.00000000000E+00 0.  1.
          1    1    3    3  501    0 -0.17362471885E+02 -0.17946471996E+02 -0.44056984141E+03  0.44127691583E+03  0.00000000000E+00 0.  1.
         -3    1    1    2    0  502  0.29667754542E+02  0.28693221914E+02 -0.22231665137E+03  0.22611539117E+03  0.00000000000E+00 0. -1.
<mgrwt>
<rscale>  1 0.30000000E+03</rscale>
<asrwt>0</asrwt>
<pdfrwt beam="1">  1       21 0.89170317E-02 0.30000000E+03</pdfrwt>
<pdfrwt beam="2">0</pdfrwt>
<totfact> 0.10549707E+04</totfact>
</mgrwt>
</event>
<event>
 6    1  0.6513574E-002  0.3000000E+03  0.7818608E-02  0.1093470E+00
         21   -1    0    0  501  502  0.00000000000E+00  0.00000000000E+00  0.31224394399E+01  0.31224394399E+01  0.00000000000E+00 0. -1.
         13   -1    0    0    0    0 -0.00000000000E+00 -0.00000000000E+00 -0.10000000000E+04  0.10000000000E+04  0.00000000000E+00 0.  1.
    9000005    2    1    2  501    0  0.20209018724E+02  0.41521555861E+02 -0.21835616168E+03  0.22323269560E+03  0.45802838897E+01 0.  0.
         13    1    3    3    0    0  0.15558683713E+02  0.35757098603E+02 -0.18445069884E+03  0.18852772486E+03  0.00000000000E+00 0.  1.
          3    1    3    3  501    0  0.46503350110E+01  0.57644572582E+01 -0.33905462842E+02  0.34704970735E+02  0.00000000000E+00 0.  1.
         -1    1    1    2    0  502 -0.20209018724E+02 -0.41521555861E+02 -0.77852139888E+03  0.77988974384E+03  0.00000000000E+00 0. -1.
<mgrwt>
<rscale>  1 0.30000000E+03</rscale>
<asrwt>0</asrwt>
<pdfrwt beam="1">  1       21 0.11354349E-01 0.30000000E+03</pdfrwt>
<pdfrwt beam="2">0</pdfrwt>
<totfact> 0.68493745E+03</totfact>
</mgrwt>
</event>
<event>
 6    1  0.7269019E-002  0.3000000E+03  0.7818608E-02  0.1093470E+00
         21   -1    0    0  501  502  0.00000000000E+00  0.00000000000E+00  0.16523054093E+02  0.16523054093E+02  0.00000000000E+00 0. -1.
         13   -1    0    0    0    0 -0.00000000000E+00 -0.00000000000E+00 -0.10000000000E+04  0.10000000000E+04  0.00000000000E+00 0.  1.
    9000005    2    1    2  501    0 -0.69839329558E+02  0.10780832913E+03 -0.47518238935E+03  0.49224877091E+03  0.32220380364E+01 0.  0.
         13    1    3    3    0    0 -0.57172863179E+02  0.87645880872E+02 -0.39163983101E+03  0.40537919773E+03  0.00000000000E+00 0.  1.
          3    1    3    3  501    0 -0.12666466379E+02  0.20162448261E+02 -0.83542558342E+02  0.86869573181E+02  0.00000000000E+00 0.  1.
         -3    1    1    2    0  502  0.69839329558E+02 -0.10780832913E+03 -0.50829455656E+03  0.52427428319E+03  0.00000000000E+00 0. -1.
<mgrwt>
<rscale>  1 0.30000000E+03</rscale>
<asrwt>0</asrwt>
<pdfrwt beam="1">  1       21 0.60083960E-01 0.30000000E+03</pdfrwt>
<pdfrwt beam="2">0</pdfrwt>
<totfact> 0.25032327E+02</totfact>
</mgrwt>
</event>
<event>
 6    1  0.6513574E-002  0.3000000E+03  0.7818608E-02  0.1093470E+00
         21   -1    0    0  501  502  0.00000000000E+00  0.00000000000E+00  0.14275366062E+01  0.14275366062E+01  0.00000000000E+00 0. -1.
         13   -1    0    0    0    0 -0.00000000000E+00 -0.00000000000E+00 -0.10000000000E+04  0.10000000000E+04  0.00000000000E+00 0.  1.
    9000005    2    1    2  501    0 -0.26329513052E+02 -0.18469945330E+02 -0.76119918093E+03  0.76188535376E+03  0.32736948707E+01 0.  0.
         13    1    3    3    0    0 -0.17972557346E+02 -0.11608652000E+02 -0.47380069890E+03  0.47428353956E+03  0.00000000000E+00 0.  1.
          1    1    3    3  501    0 -0.83569557059E+01 -0.68612933292E+01 -0.28739848204E+03  0.28760181420E+03  0.00000000000E+00 0.  1.
         -3    1    1    2    0  502  0.26329513052E+02  0.18469945330E+02 -0.23737328246E+03  0.23954218285E+03  0.00000000000E+00 0. -1.
<mgrwt>
<rscale>  1 0.30000000E+03</rscale>
<asrwt>0</asrwt>
<pdfrwt beam="1">  1       21 0.51910532E-02 0.30000000E+03</pdfrwt>
<pdfrwt beam="2">0</pdfrwt>
<totfact> 0.27019247E+04</totfact>
</mgrwt>
</event>
<event>
 6    1  0.8278004E-002  0.3000000E+03  0.7818608E-02  0.1093470E+00
         21   -1    0    0  501  502  0.00000000000E+00  0.00000000000E+00  0.19230214355E+01  0.19230214355E+01  0.00000000000E+00 0. -1.
         13   -1    0    0    0    0 -0.00000000000E+00 -0.00000000000E+00 -0.10000000000E+04  0.10000000000E+04  0.00000000000E+00 0.  1.
    9000005    2    1    2  501    0  0.15194139359E+02  0.37903973534E+02 -0.67319164322E+03  0.67448134083E+03  0.83974720376E+01 0.  0.
         13    1    3    3    0    0  0.14059007078E+02  0.27895177010E+02 -0.46679252105E+03  0.46783656793E+03  0.00000000000E+00 0.  1.
          1    1    3    3  501    0  0.11351322805E+01  0.10008796523E+02 -0.20639912217E+03  0.20664477290E+03  0.00000000000E+00 0.  1.
         -3    1    1    2    0  502 -0.15194139359E+02 -0.37903973534E+02 -0.32488533534E+03  0.32744168061E+03  0.00000000000E+00 0. -1.
<mgrwt>
<rscale>  1 0.30000000E+03</rscale>
<asrwt>0</asrwt>
<pdfrwt beam="1">  1       21 0.69928200E-02 0.30000000E+03</pdfrwt>
<pdfrwt beam="2">0</pdfrwt>
<totfact> 0.16164129E+04</totfact>
</mgrwt>
</event>
<event>
 6    1  0.6513574E-002  0.3000000E+03  0.7818608E-02  0.1093470E+00
         21   -1    0    0  501  502  0.00000000000E+00  0.00000000000E+00  0.13983018808E+01  0.13983018808E+01  0.00000000000E+00 0. -1.
         13   -1    0    0    0    0 -0.00000000000E+00 -0.00000000000E+00 -0.10000000000E+04  0.10000000000E+04  0.00000000000E+00 0.  1.
    9000005    2    1    2  501    0  0.33395565826E+02  0.11730249187E+02 -0.34300601942E+03  0.34484780383E+03  0.37437794378E+01 0.  0.
         13    1    3    3    0    0  0.20892764596E+02  0.84391806999E+01 -0.20333716916E+03  0.20458184607E+03  0.00000000000E+00 0.  1.
          3    1    3    3  501    0  0.12502801230E+02  0.32910684875E+01 -0.13966885027E+03  0.14026595775E+03  0.00000000000E+00 0.  1.
         -3    1    1    2    0  502 -0.33395565826E+02 -0.11730249187E+02 -0.65559567870E+03  0.65655049805E+03  0.00000000000E+00 0. -1.
<mgrwt>
<rscale>  1 0.30000000E+03</rscale>
<asrwt>0</asrwt>
<pdfrwt beam="1">  1       21 0.50847448E-02 0.30000000E+03</pdfrwt>
<pdfrwt beam="2">0</pdfrwt>
<totfact> 0.27990737E+04</totfact>
</mgrwt>
</event>
<event>
 6    1  0.6513574E-002  0.3000000E+03  0.7818608E-02  0.1093470E+00
         21   -1    0    0  501  502  0.00000000000E+00  0.00000000000E+00  0.23284818798E+01  0.23284818798E+01  0.00000000000E+00 0. -1.
         13   -1    0    0    0    0 -0.00000000000E+00 -0.00000000000E+00 -0.10000000000E+04  0.10000000000E+04  0.00000000000E+00 0.  1.
    9000005    2    1    2  501    0  0.82267854291E+01 -0.46902534818E+02 -0.57692436785E+03  0.57889526137E+03  0.32356833126E+01 0.  0.
         13    1    3    3    0    0  0.32453289284E+00 -0.31959988361E+01 -0.30477084296E+02  0.30645919750E+02  0.00000000000E+00 0.  1.
          1    1    3    3  501    0  0.79022525363E+01 -0.43706535982E+02 -0.54644728356E+03  0.54824934162E+03  0.00000000000E+00 0.  1.
         -3    1    1    2    0  502 -0.82267854291E+01  0.46902534818E+02 -0.42074715027E+03  0.42343322051E+03  0.00000000000E+00 0. -1.
<mgrwt>
<rscale>  1 0.30000000E+03</rscale>
<asrwt>0</asrwt>
<pdfrwt beam="1">  1       21 0.84672247E-02 0.30000000E+03</pdfrwt>
<pdfrwt beam="2">0</pdfrwt>
<totfact> 0.11559734E+04</totfact>
</mgrwt>
</event>
<event>
 6    1  0.6513574E-002  0.3000000E+03  0.7818608E-02  0.1093470E+00
         21   -1    0    0  501  502  0.00000000000E+00  0.00000000000E+00  0.16374162017E+01  0.16374162017E+01  0.00000000000E+00 0. -1.
         13   -1    0    0    0    0 -0.00000000000E+00 -0.00000000000E+00 -0.10000000000E+04  0.10000000000E+04  0.00000000000E+00 0.  1.
    9000005    2    1    2  501    0 -0.85382586938E+01  0.32879344046E+02 -0.22945598750E+03  0.23198079993E+03  0.33298970210E+01 0.  0.
         13    1    3    3    0    0 -0.35645215958E+01  0.20204384465E+02 -0.13737385077E+03  0.13889743641E+03  0.00000000000E+00 0.  1.
          1    1    3    3  501    0 -0.49737370980E+01  0.12674959581E+02 -0.92082136724E+02  0.93083363523E+02  0.00000000000E+00 0.  1.
         -3    1    1    2    0  502  0.85382586938E+01 -0.32879344046E+02 -0.76890659630E+03  0.76965661627E+03  0.00000000000E+00 0. -1.
<mgrwt>
<rscale>  1 0.30000000E+03</rscale>
<asrwt>0</asrwt>
<pdfrwt beam="1">  1       21 0.59542533E-02 0.30000000E+03</pdfrwt>
<pdfrwt beam="2">0</pdfrwt>
<totfact> 0.21351609E+04</totfact>
</mgrwt>
</event>
<event>
 6    1  0.6513574E-002  0.3000000E+03  0.7818608E-02  0.1093470E+00
         21   -1    0    0  501  502  0.00000000000E+00  0.00000000000E+00  0.28562890555E+01  0.28562890555E+01  0.00000000000E+00 0. -1.
         13   -1    0    0    0    0 -0.00000000000E+00 -0.00000000000E+00 -0.10000000000E+04  0.10000000000E+04  0.00000000000E+00 0.  1.
    9000005    2    1    2  501    0  0.26895523944E+02 -0.43316907018E+02 -0.64635470304E+03  0.64838111121E+03  0.48928100571E+01 0.  0.
         13    1    3    3    0    0  0.26909019191E+02 -0.43063365430E+02 -0.64535416399E+03  0.64734885937E+03  0.00000000000E+00 0.  1.
          1    1    3    3  501    0 -0.13495246843E-01 -0.25354158848E+00 -0.10005390501E+01  0.10322518344E+01  0.00000000000E+00 0.  1.
         -1    1    1    2    0  502 -0.26895523944E+02  0.43316907018E+02 -0.35078900791E+03  0.35447517785E+03  0.00000000000E+00 0. -1.
<mgrwt>
<rscale>  1 0.30000000E+03</rscale>
<asrwt>0</asrwt>
<pdfrwt beam="1">  1       21 0.10386528E-01 0.30000000E+03</pdfrwt>
<pdfrwt beam="2">0</pdfrwt>
<totfact> 0.80388715E+03</totfact>
</mgrwt>
</event>
<event>
 6    1  0.6513574E-002  0.3000000E+03  0.7818608E-02  0.1093470E+00
         21   -1    0    0  501  502  0.00000000000E+00  0.00000000000E+00  0.27122435812E+01  0.27122435812E+01  0.00000000000E+00 0. -1.
         13   -1    0    0    0    0 -0.00000000000E+00 -0.00000000000E+00 -0.10000000000E+04  0.10000000000E+04  0.00000000000E+00 0.  1.
    9000005    2    1    2  501    0 -0.20773008686E+02 -0.44411504436E+02 -0.33136764015E+03  0.33498962088E+03  0.31037948269E+01 0.  0.
         13    1    3    3    0    0 -0.74210270862E+01 -0.13079825649E+02 -0.10709179681E+03  0.10814252829E+03  0.00000000000E+00 0.  1.
          1    1    3    3  501    0 -0.13351981600E+02 -0.31331678786E+02 -0.22427584334E+03  0.22684709259E+03  0.00000000000E+00 0.  1.
         -1    1    1    2    0  502  0.20773008686E+02  0.44411504436E+02 -0.66592011627E+03  0.66772262270E+03  0.00000000000E+00 0. -1.
<mgrwt>
<rscale>  1 0.30000000E+03</rscale>
<asrwt>0</asrwt>
<pdfrwt beam="1">  1       21 0.98627247E-02 0.30000000E+03</pdfrwt>
<pdfrwt beam="2">0</pdfrwt>
<totfact> 0.88182438E+03</totfact>
</mgrwt>
</event>
<event>
 6    1  0.6513574E-002  0.3000000E+03  0.7818608E-02  0.1093470E+00
         21   -1    0    0  501  502  0.00000000000E+00  0.00000000000E+00  0.12804284024E+01  0.12804284024E+01  0.00000000000E+00 0. -1.
         13   -1    0    0    0    0 -0.00000000000E+00 -0.00000000000E+00 -0.10000000000E+04  0.10000000000E+04  0.00000000000E+00 0.  1.
    9000005    2    1    2  501    0 -0.26483131088E+02 -0.20173376583E+02 -0.32266310842E+03  0.32440476570E+03  0.43184625040E+01 0.  0.
         13    1    3    3    0    0 -0.14918221270E+02 -0.89209137615E+01 -0.17637190988E+03  0.17722637113E+03  0.00000000000E+00 0.  1.
          3    1    3    3  501    0 -0.11564909818E+02 -0.11252462822E+02 -0.14629119854E+03  0.14717839457E+03  0.00000000000E+00 0.  1.
         -3    1    1    2    0  502  0.26483131088E+02  0.20173376583E+02 -0.67605646318E+03  0.67687566270E+03  0.00000000000E+00 0. -1.
<mgrwt>
<rscale>  1 0.30000000E+03</rscale>
<asrwt>0</asrwt>
<pdfrwt beam="1">  1       21 0.46561131E-02 0.30000000E+03</pdfrwt>
<pdfrwt beam="2">0</pdfrwt>
<totfact> 0.32518830E+04</totfact>
</mgrwt>
</event>
<event>
 6    1  0.6513574E-002  0.3000000E+03  0.7818608E-02  0.1093470E+00
         21   -1    0    0  501  502  0.00000000000E+00  0.00000000000E+00  0.14556807807E+01  0.14556807807E+01  0.00000000000E+00 0. -1.
         13   -1    0    0    0    0 -0.00000000000E+00 -0.00000000000E+00 -0.10000000000E+04  0.10000000000E+04  0.00000000000E+00 0.  1.
    9000005    2    1    2  501    0 -0.12454123943E+02  0.33853354019E+02 -0.33979235268E+03  0.34171686261E+03  0.32274557969E+01 0.  0.
         13    1    3    3    0    0 -0.10012629077E+02  0.24530151584E+02 -0.23855738102E+03  0.24002417611E+03  0.00000000000E+00 0.  1.
          1    1    3    3  501    0 -0.24414948662E+01  0.93232024356E+01 -0.10123497166E+03  0.10169268650E+03  0.00000000000E+00 0.  1.
         -1    1    1    2    0  502  0.12454123943E+02 -0.33853354019E+02 -0.65875196654E+03  0.65973881817E+03  0.00000000000E+00 0. -1.
<mgrwt>
<rscale>  1 0.30000000E+03</rscale>
<asrwt>0</asrwt>
<pdfrwt beam="1">  1       21 0.52933958E-02 0.30000000E+03</pdfrwt>
<pdfrwt beam="2">0</pdfrwt>
<totfact> 0.26132531E+04</totfact>
</mgrwt>
</event>
<event>
 6    1  0.6513574E-002  0.3000000E+03  0.7818608E-02  0.1093470E+00
         21   -1    0    0  501  502  0.00000000000E+00  0.00000000000E+00  0.14632533408E+01  0.14632533408E+01  0.00000000000E+00 0. -1.
         13   -1    0    0    0    0 -0.00000000000E+00 -0.00000000000E+00 -0.10000000000E+04  0.10000000000E+04  0.00000000000E+00 0.  1.
    9000005    2    1    2  501    0  0.23432406850E+02  0.20960469803E+02 -0.21556531110E+03  0.21786087465E+03  0.25570235356E+01 0.  0.
         13    1    3    3    0    0  0.20582252970E+02  0.17363288895E+02 -0.18714762906E+03  0.18907497984E+03  0.00000000000E+00 0.  1.
          1    1    3    3  501    0  0.28501538798E+01  0.35971809074E+01 -0.28417682031E+02  0.28785894803E+02  0.00000000000E+00 0.  1.
         -3    1    1    2    0  502 -0.23432406850E+02 -0.20960469803E+02 -0.78297143556E+03  0.78360237869E+03  0.00000000000E+00 0. -1.
<mgrwt>
<rscale>  1 0.30000000E+03</rscale>
<asrwt>0</asrwt>
<pdfrwt beam="1">  1       21 0.53209325E-02 0.30000000E+03</pdfrwt>
<pdfrwt beam="2">0</pdfrwt>
<totfact> 0.25901633E+04</totfact>
</mgrwt>
</event>
<event>
 6    1  0.6513574E-002  0.3000000E+03  0.7818608E-02  0.1093470E+00
         21   -1    0    0  501  502  0.00000000000E+00  0.00000000000E+00  0.14614711511E+01  0.14614711511E+01  0.00000000000E+00 0. -1.
         13   -1    0    0    0    0 -0.00000000000E+00 -0.00000000000E+00 -0.10000000000E+04  0.10000000000E+04  0.00000000000E+00 0.  1.
    9000005    2    1    2  501    0  0.45821822617E+01 -0.37545426720E+02 -0.56705803258E+03  0.56832630273E+03  0.30526383012E+01 0.  0.
         13    1    3    3    0    0  0.43441588756E+01 -0.36914983512E+02 -0.56121411176E+03  0.56244365670E+03  0.00000000000E+00 0.  1.
          3    1    3    3  501    0  0.23802338611E+00 -0.63044320802E+00 -0.58439208192E+01  0.58826460298E+01  0.00000000000E+00 0.  1.
         -1    1    1    2    0  502 -0.45821822617E+01  0.37545426720E+02 -0.43148049627E+03  0.43313516842E+03  0.00000000000E+00 0. -1.
<mgrwt>
<rscale>  1 0.30000000E+03</rscale>
<asrwt>0</asrwt>
<pdfrwt beam="1">  1       21 0.53144518E-02 0.30000000E+03</pdfrwt>
<pdfrwt beam="2">0</pdfrwt>
<totfact> 0.25955689E+04</totfact>
</mgrwt>
</event>
<event>
 6    1  0.6513574E-002  0.3000000E+03  0.7818608E-02  0.1093470E+00
         21   -1    0    0  501  502  0.00000000000E+00  0.00000000000E+00  0.63274704353E+01  0.63274704353E+01  0.00000000000E+00 0. -1.
         13   -1    0    0    0    0 -0.00000000000E+00 -0.00000000000E+00 -0.10000000000E+04  0.10000000000E+04  0.00000000000E+00 0.  1.
    9000005    2    1    2  501    0  0.46931192300E+02  0.30284543795E+02 -0.85429513163E+03  0.85617504968E+03  0.97904731677E+01 0.  0.
         13    1    3    3    0    0  0.48605169244E+01  0.14137210980E+01 -0.12167544259E+03  0.12178069043E+03  0.00000000000E+00 0.  1.
          3    1    3    3  501    0  0.42070675375E+02  0.28870822697E+02 -0.73261968903E+03  0.73439435924E+03  0.00000000000E+00 0.  1.
         -3    1    1    2    0  502 -0.46931192300E+02 -0.30284543795E+02 -0.13937739794E+03  0.15015242076E+03  0.00000000000E+00 0. -1.
<mgrwt>
<rscale>  1 0.30000000E+03</rscale>
<asrwt>0</asrwt>
<pdfrwt beam="1">  1       21 0.23009032E-01 0.30000000E+03</pdfrwt>
<pdfrwt beam="2">0</pdfrwt>
<totfact> 0.18328848E+03</totfact>
</mgrwt>
</event>
<event>
 6    1  0.6513574E-002  0.3000000E+03  0.7818608E-02  0.1093470E+00
         21   -1    0    0  501  502  0.00000000000E+00  0.00000000000E+00  0.13787800349E+01  0.13787800349E+01  0.00000000000E+00 0. -1.
         13   -1    0    0    0    0 -0.00000000000E+00 -0.00000000000E+00 -0.10000000000E+04  0.10000000000E+04  0.00000000000E+00 0.  1.
    9000005    2    1    2  501    0  0.31330622239E+02  0.41564142385E+01 -0.23988417989E+03  0.24198377106E+03  0.35835774368E+01 0.  0.
         13    1    3    3    0    0  0.96624896967E+01  0.20417907415E+01 -0.64047966612E+02  0.64804896757E+02  0.00000000000E+00 0.  1.
          1    1    3    3  501    0  0.21668132542E+02  0.21146234970E+01 -0.17583621328E+03  0.17717887431E+03  0.00000000000E+00 0.  1.
         -3    1    1    2    0  502 -0.31330622239E+02 -0.41564142385E+01 -0.75873704007E+03  0.75939500897E+03  0.00000000000E+00 0. -1.
<mgrwt>
<rscale>  1 0.30000000E+03</rscale>
<asrwt>0</asrwt>
<pdfrwt beam="1">  1       21 0.50137562E-02 0.30000000E+03</pdfrwt>
<pdfrwt beam="2">0</pdfrwt>
<totfact> 0.28670051E+04</totfact>
</mgrwt>
</event>
<event>
 6    1  0.6513574E-002  0.3000000E+03  0.7818608E-02  0.1093470E+00
         21   -1    0    0  501  502  0.00000000000E+00  0.00000000000E+00  0.21253486640E+01  0.21253486640E+01  0.00000000000E+00 0. -1.
         13   -1    0    0    0    0 -0.00000000000E+00 -0.00000000000E+00 -0.10000000000E+04  0.10000000000E+04  0.00000000000E+00 0.  1.
    9000005    2    1    2  501    0  0.26206983047E+02  0.37392747462E+02 -0.56400302067E+03  0.56585752334E+03  0.32102746475E+01 0.  0.
         13    1    3    3    0    0  0.21825726730E+02  0.33006491772E+02 -0.48466409253E+03  0.48627674572E+03  0.00000000000E+00 0.  1.
          1    1    3    3  501    0  0.43812563163E+01  0.43862556903E+01 -0.79338928149E+02  0.79580777615E+02  0.00000000000E+00 0.  1.
         -3    1    1    2    0  502 -0.26206983047E+02 -0.37392747462E+02 -0.43387163066E+03  0.43626782533E+03  0.00000000000E+00 0. -1.
<mgrwt>
<rscale>  1 0.30000000E+03</rscale>
<asrwt>0</asrwt>
<pdfrwt beam="1">  1       21 0.77285569E-02 0.30000000E+03</pdfrwt>
<pdfrwt beam="2">0</pdfrwt>
<totfact> 0.13571566E+04</totfact>
</mgrwt>
</event>
<event>
 6    1  0.6513574E-002  0.3000000E+03  0.7818608E-02  0.1093470E+00
         21   -1    0    0  501  502  0.00000000000E+00  0.00000000000E+00  0.11284666089E+01  0.11284666089E+01  0.00000000000E+00 0. -1.
         13   -1    0    0    0    0 -0.00000000000E+00 -0.00000000000E+00 -0.10000000000E+04  0.10000000000E+04  0.00000000000E+00 0.  1.
    9000005    2    1    2  501    0  0.13516938529E+02 -0.27629986060E+02 -0.30284395909E+03  0.30442156414E+03  0.34498406881E+01 0.  0.
         13    1    3    3    0    0  0.68889732936E+01 -0.13012371438E+02 -0.16127648441E+03  0.16194716480E+03  0.00000000000E+00 0.  1.
          1    1    3    3  501    0  0.66279652352E+01 -0.14617614623E+02 -0.14156747468E+03  0.14247439934E+03  0.00000000000E+00 0.  1.
         -3    1    1    2    0  502 -0.13516938529E+02  0.27629986060E+02 -0.69602757430E+03  0.69670690247E+03  0.00000000000E+00 0. -1.
<mgrwt>
<rscale>  1 0.30000000E+03</rscale>
<asrwt>0</asrwt>
<pdfrwt beam="1">  1       21 0.41035236E-02 0.30000000E+03</pdfrwt>
<pdfrwt beam="2">0</pdfrwt>
<totfact> 0.40275251E+04</totfact>
</mgrwt>
</event>
<event>
 6    1  0.6513574E-002  0.3000000E+03  0.7818608E-02  0.1093470E+00
         21   -1    0    0  501  502  0.00000000000E+00  0.00000000000E+00  0.16903323828E+01  0.16903323828E+01  0.00000000000E+00 0. -1.
         13   -1    0    0    0    0 -0.00000000000E+00 -0.00000000000E+00 -0.10000000000E+04  0.10000000000E+04  0.00000000000E+00 0.  1.
    9000005    2    1    2  501    0 -0.21260662019E+02  0.35117359685E+02 -0.51656240945E+03  0.51819714168E+03  0.25119895504E+01 0.  0.
         13    1    3    3    0    0 -0.16304714480E+02  0.28635806170E+02 -0.41986872568E+03  0.42115982704E+03  0.00000000000E+00 0.  1.
          3    1    3    3  501    0 -0.49559475394E+01  0.64815535156E+01 -0.96693683776E+02  0.97037314648E+02  0.00000000000E+00 0.  1.
         -3    1    1    2    0  502  0.21260662019E+02 -0.35117359685E+02 -0.48174725817E+03  0.48349319070E+03  0.00000000000E+00 0. -1.
<mgrwt>
<rscale>  1 0.30000000E+03</rscale>
<asrwt>0</asrwt>
<pdfrwt beam="1">  1       21 0.61466762E-02 0.30000000E+03</pdfrwt>
<pdfrwt beam="2">0</pdfrwt>
<totfact> 0.20211564E+04</totfact>
</mgrwt>
</event>
<event>
 6    1  0.6513574E-002  0.3000000E+03  0.7818608E-02  0.1093470E+00
         21   -1    0    0  501  502  0.00000000000E+00  0.00000000000E+00  0.13898096571E+01  0.13898096571E+01  0.00000000000E+00 0. -1.
         13   -1    0    0    0    0 -0.00000000000E+00 -0.00000000000E+00 -0.10000000000E+04  0.10000000000E+04  0.00000000000E+00 0.  1.
    9000005    2    1    2  501    0 -0.28114888472E+02  0.20055218750E+02 -0.33286230286E+03  0.33474679541E+03  0.80898467779E+01 0.  0.
         13    1    3    3    0    0 -0.21590396949E+01 -0.32723214770E+00 -0.12520987614E+02  0.12709982853E+02  0.00000000000E+00 0.  1.
          3    1    3    3  501    0 -0.25955848777E+02  0.20382450898E+02 -0.32034131524E+03  0.32203681256E+03  0.00000000000E+00 0.  1.
         -1    1    1    2    0  502  0.28114888472E+02 -0.20055218750E+02 -0.66574788748E+03  0.66664301425E+03  0.00000000000E+00 0. -1.
<mgrwt>
<rscale>  1 0.30000000E+03</rscale>
<asrwt>0</asrwt>
<pdfrwt beam="1">  1       21 0.50538640E-02 0.30000000E+03</pdfrwt>
<pdfrwt beam="2">0</pdfrwt>
<totfact> 0.28283135E+04</totfact>
</mgrwt>
</event>
<event>
 6    1  0.6513574E-002  0.3000000E+03  0.7818608E-02  0.1093470E+00
         21   -1    0    0  501  502  0.00000000000E+00  0.00000000000E+00  0.11787020594E+01  0.11787020594E+01  0.00000000000E+00 0. -1.
         13   -1    0    0    0    0 -0.00000000000E+00 -0.00000000000E+00 -0.10000000000E+04  0.10000000000E+04  0.00000000000E+00 0.  1.
    9000005    2    1    2  501    0 -0.22991576589E+02 -0.25337495599E+02 -0.48474904795E+03  0.48596915295E+03  0.37117191017E+01 0.  0.
         13    1    3    3    0    0 -0.10064029150E+02 -0.13439867164E+02 -0.22312893180E+03  0.22375977056E+03  0.00000000000E+00 0.  1.
          3    1    3    3  501    0 -0.12927547438E+02 -0.11897628436E+02 -0.26162011614E+03  0.26220938239E+03  0.00000000000E+00 0.  1.
         -1    1    1    2    0  502  0.22991576589E+02  0.25337495599E+02 -0.51407225000E+03  0.51520954911E+03  0.00000000000E+00 0. -1.
<mgrwt>
<rscale>  1 0.30000000E+03</rscale>
<asrwt>0</asrwt>
<pdfrwt beam="1">  1       21 0.42861983E-02 0.30000000E+03</pdfrwt>
<pdfrwt beam="2">0</pdfrwt>
<totfact> 0.37419620E+04</totfact>
</mgrwt>
</event>
<event>
 6    1  0.6513574E-002  0.3000000E+03  0.7818608E-02  0.1093470E+00
         21   -1    0    0  501  502  0.00000000000E+00  0.00000000000E+00  0.36902003273E+01  0.36902003273E+01  0.00000000000E+00 0. -1.
         13   -1    0    0    0    0 -0.00000000000E+00 -0.00000000000E+00 -0.10000000000E+04  0.10000000000E+04  0.00000000000E+00 0.  1.
    9000005    2    1    2  501    0  0.49423852415E+02  0.25696739580E+02 -0.29941524334E+03  0.30457285519E+03  0.34780119720E+01 0.  0.
         13    1    3    3    0    0  0.17259278199E+02  0.71446437395E+01 -0.10154527242E+03  0.10324907249E+03  0.00000000000E+00 0.  1.
          3    1    3    3  501    0  0.32164574216E+02  0.18552095841E+02 -0.19786997091E+03  0.20132378271E+03  0.00000000000E+00 0.  1.
         -3    1    1    2    0  502 -0.49423852415E+02 -0.25696739580E+02 -0.69689455634E+03  0.69911734513E+03  0.00000000000E+00 0. -1.
<mgrwt>
<rscale>  1 0.30000000E+03</rscale>
<asrwt>0</asrwt>
<pdfrwt beam="1">  1       21 0.13418939E-01 0.30000000E+03</pdfrwt>
<pdfrwt beam="2">0</pdfrwt>
<totfact> 0.50547362E+03</totfact>
</mgrwt>
</event>
<event>
 6    1  0.6513574E-002  0.3000000E+03  0.7818608E-02  0.1093470E+00
         21   -1    0    0  501  502  0.00000000000E+00  0.00000000000E+00  0.10998679780E+01  0.10998679780E+01  0.00000000000E+00 0. -1.
         13   -1    0    0    0    0 -0.00000000000E+00 -0.00000000000E+00 -0.10000000000E+04  0.10000000000E+04  0.00000000000E+00 0.  1.
    9000005    2    1    2  501    0  0.18648611054E+02  0.26026290927E+02 -0.61798503329E+03  0.61884151168E+03  0.58460842292E+01 0.  0.
         13    1    3    3    0    0  0.57521098322E+01  0.57679215217E+01 -0.11863028822E+03  0.11890963363E+03  0.00000000000E+00 0.  1.
          3    1    3    3  501    0  0.12896501222E+02  0.20258369405E+02 -0.49935474506E+03  0.49993187805E+03  0.00000000000E+00 0.  1.
         -3    1    1    2    0  502 -0.18648611054E+02 -0.26026290927E+02 -0.38091509874E+03  0.38225835630E+03  0.00000000000E+00 0. -1.
<mgrwt>
<rscale>  1 0.30000000E+03</rscale>
<asrwt>0</asrwt>
<pdfrwt beam="1">  1       21 0.39995284E-02 0.30000000E+03</pdfrwt>
<pdfrwt beam="2">0</pdfrwt>
<totfact> 0.42055674E+04</totfact>
</mgrwt>
</event>
<event>
 6    1  0.6513574E-002  0.3000000E+03  0.7818608E-02  0.1093470E+00
         21   -1    0    0  501  502  0.00000000000E+00  0.00000000000E+00  0.13692093006E+01  0.13692093006E+01  0.00000000000E+00 0. -1.
         13   -1    0    0    0    0 -0.00000000000E+00 -0.00000000000E+00 -0.10000000000E+04  0.10000000000E+04  0.00000000000E+00 0.  1.
    9000005    2    1    2  501    0 -0.36060900530E+02  0.59500504332E+00 -0.39287750536E+03  0.39454321672E+03  0.32974323172E+01 0.  0.
         13    1    3    3    0    0 -0.32542061811E+02  0.11349387279E+01 -0.36186009074E+03  0.36332216991E+03  0.00000000000E+00 0.  1.
          3    1    3    3  501    0 -0.35188387187E+01 -0.53993368455E+00 -0.31017414618E+02  0.31221046809E+02  0.00000000000E+00 0.  1.
         -3    1    1    2    0  502  0.36060900530E+02 -0.59500504332E+00 -0.60575328534E+03  0.60682599258E+03  0.00000000000E+00 0. -1.
<mgrwt>
<rscale>  1 0.30000000E+03</rscale>
<asrwt>0</asrwt>
<pdfrwt beam="1">  1       21 0.49789534E-02 0.30000000E+03</pdfrwt>
<pdfrwt beam="2">0</pdfrwt>
<totfact> 0.29012511E+04</totfact>
</mgrwt>
</event>
<event>
 6    1  0.6513574E-002  0.3000000E+03  0.7818608E-02  0.1093470E+00
         21   -1    0    0  501  502  0.00000000000E+00  0.00000000000E+00  0.75818711106E+01  0.75818711106E+01  0.00000000000E+00 0. -1.
         13   -1    0    0    0    0 -0.00000000000E+00 -0.00000000000E+00 -0.10000000000E+04  0.10000000000E+04  0.00000000000E+00 0.  1.
    9000005    2    1    2  501    0 -0.16571735351E+02 -0.69073085085E+02 -0.20530453179E+03  0.21726957320E+03  0.32253941908E+01 0.  0.
         13    1    3    3    0    0 -0.12124947736E+02 -0.43914719312E+02 -0.13178708044E+03  0.13943941874E+03  0.00000000000E+00 0.  1.
          3    1    3    3  501    0 -0.44467876147E+01 -0.25158365773E+02 -0.73517451355E+02  0.77830154453E+02  0.00000000000E+00 0.  1.
         -3    1    1    2    0  502  0.16571735351E+02  0.69073085085E+02 -0.78711359710E+03  0.79031229791E+03  0.00000000000E+00 0. -1.
<mgrwt>
<rscale>  1 0.30000000E+03</rscale>
<asrwt>0</asrwt>
<pdfrwt beam="1">  1       21 0.27570499E-01 0.30000000E+03</pdfrwt>
<pdfrwt beam="2">0</pdfrwt>
<totfact> 0.12861900E+03</totfact>
</mgrwt>
</event>
<event>
 6    1  0.6513574E-002  0.3000000E+03  0.7818608E-02  0.1093470E+00
         21   -1    0    0  501  502  0.00000000000E+00  0.00000000000E+00  0.14102196007E+01  0.14102196007E+01  0.00000000000E+00 0. -1.
         13   -1    0    0    0    0 -0.00000000000E+00 -0.00000000000E+00 -0.10000000000E+04  0.10000000000E+04  0.00000000000E+00 0.  1.
    9000005    2    1    2  501    0 -0.27625410153E+02  0.21212327611E+02 -0.67430153416E+03  0.67525689250E+03  0.87284461194E+01 0.  0.
         13    1    3    3    0    0 -0.20296662042E+02  0.13543565679E+02 -0.53273344661E+03  0.53329195363E+03  0.00000000000E+00 0.  1.
          3    1    3    3  501    0 -0.73287481113E+01  0.76687619319E+01 -0.14156808755E+03  0.14196493888E+03  0.00000000000E+00 0.  1.
         -1    1    1    2    0  502  0.27625410153E+02 -0.21212327611E+02 -0.32428824624E+03  0.32615332710E+03  0.00000000000E+00 0. -1.
<mgrwt>
<rscale>  1 0.30000000E+03</rscale>
<asrwt>0</asrwt>
<pdfrwt beam="1">  1       21 0.51280821E-02 0.30000000E+03</pdfrwt>
<pdfrwt beam="2">0</pdfrwt>
<totfact> 0.27588253E+04</totfact>
</mgrwt>
</event>
<event>
 6    1  0.6513574E-002  0.3000000E+03  0.7818608E-02  0.1093470E+00
         21   -1    0    0  501  502  0.00000000000E+00  0.00000000000E+00  0.10142066841E+01  0.10142066841E+01  0.00000000000E+00 0. -1.
         13   -1    0    0    0    0 -0.00000000000E+00 -0.00000000000E+00 -0.10000000000E+04  0.10000000000E+04  0.00000000000E+00 0.  1.
    9000005    2    1    2  501    0 -0.26751544197E+02 -0.13870785274E+02 -0.34336568797E+03  0.34470195910E+03  0.33765556493E+01 0.  0.
         13    1    3    3    0    0 -0.11060817793E+02 -0.72496609023E+01 -0.13883208289E+03  0.13946055540E+03  0.00000000000E+00 0.  1.
          1    1    3    3  501    0 -0.15690726404E+02 -0.66211243718E+01 -0.20453360508E+03  0.20524140369E+03  0.00000000000E+00 0.  1.
         -3    1    1    2    0  502  0.26751544197E+02  0.13870785274E+02 -0.65562010534E+03  0.65631224759E+03  0.00000000000E+00 0. -1.
<mgrwt>
<rscale>  1 0.30000000E+03</rscale>
<asrwt>0</asrwt>
<pdfrwt beam="1">  1       21 0.36880321E-02 0.30000000E+03</pdfrwt>
<pdfrwt beam="2">0</pdfrwt>
<totfact> 0.48196802E+04</totfact>
</mgrwt>
</event>
<event>
 6    1  0.6513574E-002  0.3000000E+03  0.7818608E-02  0.1093470E+00
         21   -1    0    0  501  502  0.00000000000E+00  0.00000000000E+00  0.22559182383E+01  0.22559182383E+01  0.00000000000E+00 0. -1.
         13   -1    0    0    0    0 -0.00000000000E+00 -0.00000000000E+00 -0.10000000000E+04  0.10000000000E+04  0.00000000000E+00 0.  1.
    9000005    2    1    2  501    0  0.47064705922E+02  0.46825614641E+01 -0.46171827975E+03  0.46414749668E+03  0.34807897361E+01 0.  0.
         13    1    3    3    0    0  0.42734960121E+02  0.33278494290E+01 -0.42167894926E+03  0.42385196431E+03  0.00000000000E+00 0.  1.
          3    1    3    3  501    0  0.43297458015E+01  0.13547120351E+01 -0.40039330488E+02  0.40295532374E+02  0.00000000000E+00 0.  1.
         -1    1    1    2    0  502 -0.47064705922E+02 -0.46825614641E+01 -0.53602580201E+03  0.53810842156E+03  0.00000000000E+00 0. -1.
<mgrwt>
<rscale>  1 0.30000000E+03</rscale>
<asrwt>0</asrwt>
<pdfrwt beam="1">  1       21 0.82033563E-02 0.30000000E+03</pdfrwt>
<pdfrwt beam="2">0</pdfrwt>
<totfact> 0.12222501E+04</totfact>
</mgrwt>
</event>
<event>
 6    1  0.6513574E-002  0.3000000E+03  0.7818608E-02  0.1093470E+00
         21   -1    0    0  501  502  0.00000000000E+00  0.00000000000E+00  0.21285010893E+01  0.21285010893E+01  0.00000000000E+00 0. -1.
         13   -1    0    0    0    0 -0.00000000000E+00 -0.00000000000E+00 -0.10000000000E+04  0.10000000000E+04  0.00000000000E+00 0.  1.
    9000005    2    1    2  501    0 -0.42670267059E+02 -0.12611573085E+02 -0.36891584337E+03  0.37160092825E+03  0.29235123827E+01 0.  0.
         13    1    3    3    0    0 -0.36695927646E+01 -0.56809544295E+00 -0.25841418919E+02  0.26106849202E+02  0.00000000000E+00 0.  1.
          3    1    3    3  501    0 -0.39000674295E+02 -0.12043477642E+02 -0.34307442445E+03  0.34549407905E+03  0.00000000000E+00 0.  1.
         -1    1    1    2    0  502  0.42670267059E+02  0.12611573085E+02 -0.62895565555E+03  0.63052757284E+03  0.00000000000E+00 0. -1.
<mgrwt>
<rscale>  1 0.30000000E+03</rscale>
<asrwt>0</asrwt>
<pdfrwt beam="1">  1       21 0.77400203E-02 0.30000000E+03</pdfrwt>
<pdfrwt beam="2">0</pdfrwt>
<totfact> 0.13536344E+04</totfact>
</mgrwt>
</event>
<event>
 6    1  0.6513574E-002  0.3000000E+03  0.7818608E-02  0.1093470E+00
         21   -1    0    0  501  502  0.00000000000E+00  0.00000000000E+00  0.12786899736E+01  0.12786899736E+01  0.00000000000E+00 0. -1.
         13   -1    0    0    0    0 -0.00000000000E+00 -0.00000000000E+00 -0.10000000000E+04  0.10000000000E+04  0.00000000000E+00 0.  1.
    9000005    2    1    2  501    0  0.31513808838E+02  0.16621536172E+02 -0.47472190168E+03  0.47606942162E+03  0.34372458646E+01 0.  0.
         13    1    3    3    0    0  0.12138282552E+02  0.45384478303E+01 -0.17315401547E+03  0.17363826907E+03  0.00000000000E+00 0.  1.
          1    1    3    3  501    0  0.19375526286E+02  0.12083088342E+02 -0.30156788621E+03  0.30243115256E+03  0.00000000000E+00 0.  1.
         -1    1    1    2    0  502 -0.31513808838E+02 -0.16621536172E+02 -0.52399940835E+03  0.52520926835E+03  0.00000000000E+00 0. -1.
<mgrwt>
<rscale>  1 0.30000000E+03</rscale>
<asrwt>0</asrwt>
<pdfrwt beam="1">  1       21 0.46497915E-02 0.30000000E+03</pdfrwt>
<pdfrwt beam="2">0</pdfrwt>
<totfact> 0.32594006E+04</totfact>
</mgrwt>
</event>
<event>
 6    1  0.6513574E-002  0.3000000E+03  0.7818608E-02  0.1093470E+00
         21   -1    0    0  501  502  0.00000000000E+00  0.00000000000E+00  0.10175863488E+01  0.10175863488E+01  0.00000000000E+00 0. -1.
         13   -1    0    0    0    0 -0.00000000000E+00 -0.00000000000E+00 -0.10000000000E+04  0.10000000000E+04  0.00000000000E+00 0.  1.
    9000005    2    1    2  501    0 -0.50348391498E+00 -0.30982627858E+02 -0.38522559842E+03  0.38647905626E+03  0.26688053459E+01 0.  0.
         13    1    3    3    0    0  0.69595829790E+00 -0.11263606847E+02 -0.12862974279E+03  0.12912383176E+03  0.00000000000E+00 0.  1.
          3    1    3    3  501    0 -0.11994422129E+01 -0.19719021010E+02 -0.25659585563E+03  0.25735522450E+03  0.00000000000E+00 0.  1.
         -1    1    1    2    0  502  0.50348391498E+00  0.30982627858E+02 -0.61375681523E+03  0.61453853009E+03  0.00000000000E+00 0. -1.
<mgrwt>
<rscale>  1 0.30000000E+03</rscale>
<asrwt>0</asrwt>
<pdfrwt beam="1">  1       21 0.37003218E-02 0.30000000E+03</pdfrwt>
<pdfrwt beam="2">0</pdfrwt>
<totfact> 0.47928442E+04</totfact>
</mgrwt>
</event>
<event>
 6    1  0.6513574E-002  0.3000000E+03  0.7818608E-02  0.1093470E+00
         21   -1    0    0  501  502  0.00000000000E+00  0.00000000000E+00  0.18405179929E+01  0.18405179929E+01  0.00000000000E+00 0. -1.
         13   -1    0    0    0    0 -0.00000000000E+00 -0.00000000000E+00 -0.10000000000E+04  0.10000000000E+04  0.00000000000E+00 0.  1.
    9000005    2    1    2  501    0 -0.38524415489E+02  0.13779768480E+02 -0.64702973386E+03  0.64833505461E+03  0.41053536098E+01 0.  0.
         13    1    3    3    0    0 -0.37856315913E+02  0.12882327033E+02 -0.62654975780E+03  0.62782454078E+03  0.00000000000E+00 0.  1.
          1    1    3    3  501    0 -0.66809957558E+00  0.89744144734E+00 -0.20479976053E+02  0.20510513824E+02  0.00000000000E+00 0.  1.
         -3    1    1    2    0  502  0.38524415489E+02 -0.13779768480E+02 -0.35112974815E+03  0.35350546339E+03  0.00000000000E+00 0. -1.
<mgrwt>
<rscale>  1 0.30000000E+03</rscale>
<asrwt>0</asrwt>
<pdfrwt beam="1">  1       21 0.66928068E-02 0.30000000E+03</pdfrwt>
<pdfrwt beam="2">0</pdfrwt>
<totfact> 0.17443654E+04</totfact>
</mgrwt>
</event>
<event>
 6    1  0.6513574E-002  0.3000000E+03  0.7818608E-02  0.1093470E+00
         21   -1    0    0  501  502  0.00000000000E+00  0.00000000000E+00  0.14179742961E+01  0.14179742961E+01  0.00000000000E+00 0. -1.
         13   -1    0    0    0    0 -0.00000000000E+00 -0.00000000000E+00 -0.10000000000E+04  0.10000000000E+04  0.00000000000E+00 0.  1.
    9000005    2    1    2  501    0  0.36874196697E+02  0.21840283056E+01 -0.58340813728E+03  0.58460406619E+03  0.56906238331E+01 0.  0.
         13    1    3    3    0    0  0.16983278228E+02  0.20612002358E+01 -0.31140760568E+03  0.31187718282E+03  0.00000000000E+00 0.  1.
          3    1    3    3  501    0  0.19890918469E+02  0.12282806982E+00 -0.27200053159E+03  0.27272688337E+03  0.00000000000E+00 0.  1.
         -3    1    1    2    0  502 -0.36874196697E+02 -0.21840283056E+01 -0.41517388843E+03  0.41681390811E+03  0.00000000000E+00 0. -1.
<mgrwt>
<rscale>  1 0.30000000E+03</rscale>
<asrwt>0</asrwt>
<pdfrwt beam="1">  1       21 0.51562810E-02 0.30000000E+03</pdfrwt>
<pdfrwt beam="2">0</pdfrwt>
<totfact> 0.27331170E+04</totfact>
</mgrwt>
</event>
<event>
 6    1  0.6513574E-002  0.3000000E+03  0.7818608E-02  0.1093470E+00
         21   -1    0    0  501  502  0.00000000000E+00  0.00000000000E+00  0.13838410578E+01  0.13838410578E+01  0.00000000000E+00 0. -1.
         13   -1    0    0    0    0 -0.00000000000E+00 -0.00000000000E+00 -0.10000000000E+04  0.10000000000E+04  0.00000000000E+00 0.  1.
    9000005    2    1    2  501    0  0.26949734784E+01 -0.36883271479E+02 -0.54606759195E+03  0.54732674764E+03  0.30191234173E+01 0.  0.
         13    1    3    3    0    0  0.12292747599E+01 -0.83726350971E+01 -0.14197031705E+03  0.14222230155E+03  0.00000000000E+00 0.  1.
          3    1    3    3  501    0  0.14656987185E+01 -0.28510636382E+02 -0.40409727489E+03  0.40510444608E+03  0.00000000000E+00 0.  1.
         -3    1    1    2    0  502 -0.26949734784E+01  0.36883271479E+02 -0.45254856699E+03  0.45405709342E+03  0.00000000000E+00 0. -1.
<mgrwt>
<rscale>  1 0.30000000E+03</rscale>
<asrwt>0</asrwt>
<pdfrwt beam="1">  1       21 0.50321599E-02 0.30000000E+03</pdfrwt>
<pdfrwt beam="2">0</pdfrwt>
<totfact> 0.28491495E+04</totfact>
</mgrwt>
</event>
<event>
 6    1  0.6513574E-002  0.3000000E+03  0.7818608E-02  0.1093470E+00
         21   -1    0    0  501  502  0.00000000000E+00  0.00000000000E+00  0.22890709730E+01  0.22890709730E+01  0.00000000000E+00 0. -1.
         13   -1    0    0    0    0 -0.00000000000E+00 -0.00000000000E+00 -0.10000000000E+04  0.10000000000E+04  0.00000000000E+00 0.  1.
    9000005    2    1    2  501    0 -0.21384475657E+02 -0.25473492395E+02 -0.85851283438E+03  0.85917267021E+03  0.52149618748E+01 0.  0.
         13    1    3    3    0    0 -0.18195478869E+02 -0.22024480774E+02 -0.77656910443E+03  0.77709441329E+03  0.00000000000E+00 0.  1.
          3    1    3    3  501    0 -0.31889967880E+01 -0.34490116215E+01 -0.81943729945E+02  0.82078256920E+02  0.00000000000E+00 0.  1.
         -3    1    1    2    0  502  0.21384475657E+02  0.25473492395E+02 -0.13919809465E+03  0.14311640076E+03  0.00000000000E+00 0. -1.
<mgrwt>
<rscale>  1 0.30000000E+03</rscale>
<asrwt>0</asrwt>
<pdfrwt beam="1">  1       21 0.83239120E-02 0.30000000E+03</pdfrwt>
<pdfrwt beam="2">0</pdfrwt>
<totfact> 0.11912675E+04</totfact>
</mgrwt>
</event>
<event>
 6    1  0.6513574E-002  0.3000000E+03  0.7818608E-02  0.1093470E+00
         21   -1    0    0  501  502  0.00000000000E+00  0.00000000000E+00  0.35784991590E+01  0.35784991590E+01  0.00000000000E+00 0. -1.
         13   -1    0    0    0    0 -0.00000000000E+00 -0.00000000000E+00 -0.10000000000E+04  0.10000000000E+04  0.00000000000E+00 0.  1.
    9000005    2    1    2  501    0 -0.41116638091E+02  0.43338619190E+02 -0.48123164130E+03  0.48493661383E+03  0.32883135177E+01 0.  0.
         13    1    3    3    0    0 -0.36645616974E+02  0.39944680933E+02 -0.43356746324E+03  0.43694304429E+03  0.00000000000E+00 0.  1.
          1    1    3    3  501    0 -0.44710211172E+01  0.33939382578E+01 -0.47664178058E+02  0.47993569535E+02  0.00000000000E+00 0.  1.
         -3    1    1    2    0  502  0.41116638091E+02 -0.43338619190E+02 -0.51518985955E+03  0.51864188533E+03  0.00000000000E+00 0. -1.
<mgrwt>
<rscale>  1 0.30000000E+03</rscale>
<asrwt>0</asrwt>
<pdfrwt beam="1">  1       21 0.13012752E-01 0.30000000E+03</pdfrwt>
<pdfrwt beam="2">0</pdfrwt>
<totfact> 0.53469423E+03</totfact>
</mgrwt>
</event>
<event>
 6    1  0.6513574E-002  0.3000000E+03  0.7818608E-02  0.1093470E+00
         21   -1    0    0  501  502  0.00000000000E+00  0.00000000000E+00  0.15436406398E+01  0.15436406398E+01  0.00000000000E+00 0. -1.
         13   -1    0    0    0    0 -0.00000000000E+00 -0.00000000000E+00 -0.10000000000E+04  0.10000000000E+04  0.00000000000E+00 0.  1.
    9000005    2    1    2  501    0  0.15926074373E+01 -0.39084285400E+02 -0.53172018118E+03  0.53317116302E+03  0.38755960809E+01 0.  0.
         13    1    3    3    0    0  0.21086711631E+01 -0.14389107899E+02 -0.21206185665E+03  0.21255993029E+03  0.00000000000E+00 0.  1.
          1    1    3    3  501    0 -0.51606372580E+00 -0.24695177501E+02 -0.31965832453E+03  0.32061123273E+03  0.00000000000E+00 0.  1.
         -1    1    1    2    0  502 -0.15926074373E+01  0.39084285400E+02 -0.46673617818E+03  0.46837247762E+03  0.00000000000E+00 0. -1.
<mgrwt>
<rscale>  1 0.30000000E+03</rscale>
<asrwt>0</asrwt>
<pdfrwt beam="1">  1       21 0.56132505E-02 0.30000000E+03</pdfrwt>
<pdfrwt beam="2">0</pdfrwt>
<totfact> 0.23632955E+04</totfact>
</mgrwt>
</event>
<event>
 6    1  0.6513574E-002  0.3000000E+03  0.7818608E-02  0.1093470E+00
         21   -1    0    0  501  502  0.00000000000E+00  0.00000000000E+00  0.12422606768E+01  0.12422606768E+01  0.00000000000E+00 0. -1.
         13   -1    0    0    0    0 -0.00000000000E+00 -0.00000000000E+00 -0.10000000000E+04  0.10000000000E+04  0.00000000000E+00 0.  1.
    9000005    2    1    2  501    0  0.31285892823E+02  0.37421239149E+01 -0.72228072421E+03  0.72297557121E+03  0.33795590533E+01 0.  0.
         13    1    3    3    0    0  0.30684419871E+02  0.40896838935E+01 -0.70023939418E+03  0.70092329702E+03  0.00000000000E+00 0.  1.
          1    1    3    3  501    0  0.60147295178E+00 -0.34755997863E+00 -0.22041330029E+02  0.22052274193E+02  0.00000000000E+00 0.  1.
         -1    1    1    2    0  502 -0.31285892823E+02 -0.37421239149E+01 -0.27647701511E+03  0.27826668946E+03  0.00000000000E+00 0. -1.
<mgrwt>
<rscale>  1 0.30000000E+03</rscale>
<asrwt>0</asrwt>
<pdfrwt beam="1">  1       21 0.45173211E-02 0.30000000E+03</pdfrwt>
<pdfrwt beam="2">0</pdfrwt>
<totfact> 0.34234250E+04</totfact>
</mgrwt>
</event>
<event>
 6    1  0.6513574E-002  0.3000000E+03  0.7818608E-02  0.1093470E+00
         21   -1    0    0  501  502  0.00000000000E+00  0.00000000000E+00  0.10245803741E+01  0.10245803741E+01  0.00000000000E+00 0. -1.
         13   -1    0    0    0    0 -0.00000000000E+00 -0.00000000000E+00 -0.10000000000E+04  0.10000000000E+04  0.00000000000E+00 0.  1.
    9000005    2    1    2  501    0  0.31600871559E+02 -0.14841049461E+01 -0.43152880155E+03  0.43269678586E+03  0.29298935527E+01 0.  0.
         13    1    3    3    0    0  0.72260552156E+01 -0.11400013365E+01 -0.11299431474E+03  0.11323087318E+03  0.00000000000E+00 0.  1.
          3    1    3    3  501    0  0.24374816343E+02 -0.34410360966E+00 -0.31853448681E+03  0.31946591268E+03  0.00000000000E+00 0.  1.
         -3    1    1    2    0  502 -0.31600871559E+02  0.14841049461E+01 -0.56744661808E+03  0.56832779452E+03  0.00000000000E+00 0. -1.
<mgrwt>
<rscale>  1 0.30000000E+03</rscale>
<asrwt>0</asrwt>
<pdfrwt beam="1">  1       21 0.37257547E-02 0.30000000E+03</pdfrwt>
<pdfrwt beam="2">0</pdfrwt>
<totfact> 0.47380503E+04</totfact>
</mgrwt>
</event>
<event>
 6    1  0.6513574E-002  0.3000000E+03  0.7818608E-02  0.1093470E+00
         21   -1    0    0  501  502  0.00000000000E+00  0.00000000000E+00  0.12413983422E+01  0.12413983422E+01  0.00000000000E+00 0. -1.
         13   -1    0    0    0    0 -0.00000000000E+00 -0.00000000000E+00 -0.10000000000E+04  0.10000000000E+04  0.00000000000E+00 0.  1.
    9000005    2    1    2  501    0 -0.21323060684E+02 -0.27699968946E+02 -0.55267061424E+03  0.55378586567E+03  0.34664073368E+01 0.  0.
         13    1    3    3    0    0 -0.16077422408E+02 -0.19454157682E+02 -0.37728735257E+03  0.37813052531E+03  0.00000000000E+00 0.  1.
          1    1    3    3  501    0 -0.52456382760E+01 -0.82458112645E+01 -0.17538326166E+03  0.17565534036E+03  0.00000000000E+00 0.  1.
         -1    1    1    2    0  502  0.21323060684E+02  0.27699968946E+02 -0.44608798742E+03  0.44745553267E+03  0.00000000000E+00 0. -1.
<mgrwt>
<rscale>  1 0.30000000E+03</rscale>
<asrwt>0</asrwt>
<pdfrwt beam="1">  1       21 0.45141853E-02 0.30000000E+03</pdfrwt>
<pdfrwt beam="2">0</pdfrwt>
<totfact> 0.34274625E+04</totfact>
</mgrwt>
</event>
<event>
 6    1  0.6513574E-002  0.3000000E+03  0.7818608E-02  0.1093470E+00
         21   -1    0    0  501  502  0.00000000000E+00  0.00000000000E+00  0.12645847335E+01  0.12645847335E+01  0.00000000000E+00 0. -1.
         13   -1    0    0    0    0 -0.00000000000E+00 -0.00000000000E+00 -0.10000000000E+04  0.10000000000E+04  0.00000000000E+00 0.  1.
    9000005    2    1    2  501    0 -0.21243363468E+02  0.26250020252E+02 -0.65424793998E+03  0.65512593522E+03  0.30463061456E+01 0.  0.
         13    1    3    3    0    0 -0.27304806732E+01  0.46456546936E+01 -0.12004493737E+03  0.12016582135E+03  0.00000000000E+00 0.  1.
          3    1    3    3  501    0 -0.18512882794E+02  0.21604365558E+02 -0.53420300261E+03  0.53496011388E+03  0.00000000000E+00 0.  1.
         -3    1    1    2    0  502  0.21243363468E+02 -0.26250020252E+02 -0.34448747529E+03  0.34613864951E+03  0.00000000000E+00 0. -1.
<mgrwt>
<rscale>  1 0.30000000E+03</rscale>
<asrwt>0</asrwt>
<pdfrwt beam="1">  1       21 0.45984996E-02 0.30000000E+03</pdfrwt>
<pdfrwt beam="2">0</pdfrwt>
<totfact> 0.33214187E+04</totfact>
</mgrwt>
</event>
<event>
 6    1  0.6513574E-002  0.3000000E+03  0.7818608E-02  0.1093470E+00
         21   -1    0    0  501  502  0.00000000000E+00  0.00000000000E+00  0.11084340724E+01  0.11084340724E+01  0.00000000000E+00 0. -1.
         13   -1    0    0    0    0 -0.00000000000E+00 -0.00000000000E+00 -0.10000000000E+04  0.10000000000E+04  0.00000000000E+00 0.  1.
    9000005    2    1    2  501    0 -0.27212342692E+02  0.13589379967E+02 -0.70180679922E+03  0.70247062425E+03  0.26479553593E+01 0.  0.
         13    1    3    3    0    0 -0.95656989218E+01  0.52998975648E+01 -0.28001851966E+03  0.28023198045E+03  0.00000000000E+00 0.  1.
          1    1    3    3  501    0 -0.17646643770E+02  0.82894824018E+01 -0.42178827955E+03  0.42223864381E+03  0.00000000000E+00 0.  1.
         -3    1    1    2    0  502  0.27212342692E+02 -0.13589379967E+02 -0.29708476671E+03  0.29863780982E+03  0.00000000000E+00 0. -1.
<mgrwt>
<rscale>  1 0.30000000E+03</rscale>
<asrwt>0</asrwt>
<pdfrwt beam="1">  1       21 0.40306779E-02 0.30000000E+03</pdfrwt>
<pdfrwt beam="2">0</pdfrwt>
<totfact> 0.41509690E+04</totfact>
</mgrwt>
</event>
<event>
 6    1  0.6513574E-002  0.3000000E+03  0.7818608E-02  0.1093470E+00
         21   -1    0    0  501  502  0.00000000000E+00  0.00000000000E+00  0.80667360739E+01  0.80667360739E+01  0.00000000000E+00 0. -1.
         13   -1    0    0    0    0 -0.00000000000E+00 -0.00000000000E+00 -0.10000000000E+04  0.10000000000E+04  0.00000000000E+00 0.  1.
    9000005    2    1    2  501    0 -0.44933693427E+02 -0.54966430043E+02 -0.80437770265E+03  0.80752388828E+03  0.55674393701E+01 0.  0.
         13    1    3    3    0    0 -0.14282491712E+02 -0.17684800145E+02 -0.22900492951E+03  0.23013039666E+03  0.00000000000E+00 0.  1.
          3    1    3    3  501    0 -0.30651201715E+02 -0.37281629899E+02 -0.57537277314E+03  0.57739349162E+03  0.00000000000E+00 0.  1.
         -1    1    1    2    0  502  0.44933693427E+02  0.54966430043E+02 -0.18755556127E+03  0.20054284779E+03  0.00000000000E+00 0. -1.
<mgrwt>
<rscale>  1 0.30000000E+03</rscale>
<asrwt>0</asrwt>
<pdfrwt beam="1">  1       21 0.29333648E-01 0.30000000E+03</pdfrwt>
<pdfrwt beam="2">0</pdfrwt>
<totfact> 0.11371694E+03</totfact>
</mgrwt>
</event>
<event>
 6    1  0.6513574E-002  0.3000000E+03  0.7818608E-02  0.1093470E+00
         21   -1    0    0  501  502  0.00000000000E+00  0.00000000000E+00  0.17856804344E+01  0.17856804344E+01  0.00000000000E+00 0. -1.
         13   -1    0    0    0    0 -0.00000000000E+00 -0.00000000000E+00 -0.10000000000E+04  0.10000000000E+04  0.00000000000E+00 0.  1.
    9000005    2    1    2  501    0 -0.26538464634E+02 -0.23631409095E+02 -0.76959520131E+03  0.77042139012E+03  0.31001408773E+01 0.  0.
         13    1    3    3    0    0 -0.15953937265E+02 -0.16169107800E+02 -0.49593920894E+03  0.49645912936E+03  0.00000000000E+00 0.  1.
          1    1    3    3  501    0 -0.10584527368E+02 -0.74623012941E+01 -0.27365599237E+03  0.27396226076E+03  0.00000000000E+00 0.  1.
         -1    1    1    2    0  502  0.26538464634E+02  0.23631409095E+02 -0.22861911826E+03  0.23136429032E+03  0.00000000000E+00 0. -1.
<mgrwt>
<rscale>  1 0.30000000E+03</rscale>
<asrwt>0</asrwt>
<pdfrwt beam="1">  1       21 0.64933971E-02 0.30000000E+03</pdfrwt>
<pdfrwt beam="2">0</pdfrwt>
<totfact> 0.18382363E+04</totfact>
</mgrwt>
</event>
<event>
 6    1  0.6513574E-002  0.3000000E+03  0.7818608E-02  0.1093470E+00
         21   -1    0    0  501  502  0.00000000000E+00  0.00000000000E+00  0.10972370755E+01  0.10972370755E+01  0.00000000000E+00 0. -1.
         13   -1    0    0    0    0 -0.00000000000E+00 -0.00000000000E+00 -0.10000000000E+04  0.10000000000E+04  0.00000000000E+00 0.  1.
    9000005    2    1    2  501    0  0.30396936096E+02 -0.42413189575E+01 -0.31739326403E+03  0.31889700283E+03  0.38538106822E+01 0.  0.
         13    1    3    3    0    0  0.27487135157E+02 -0.48961883247E+01 -0.28235483248E+03  0.28373185701E+03  0.00000000000E+00 0.  1.
          1    1    3    3  501    0  0.29098009398E+01  0.65486936713E+00 -0.35038431551E+02  0.35165145826E+02  0.00000000000E+00 0.  1.
         -1    1    1    2    0  502 -0.30396936096E+02  0.42413189575E+01 -0.68150949890E+03  0.68220023424E+03  0.00000000000E+00 0. -1.
<mgrwt>
<rscale>  1 0.30000000E+03</rscale>
<asrwt>0</asrwt>
<pdfrwt beam="1">  1       21 0.39899614E-02 0.30000000E+03</pdfrwt>
<pdfrwt beam="2">0</pdfrwt>
<totfact> 0.42225618E+04</totfact>
</mgrwt>
</event>
<event>
 6    1  0.6513574E-002  0.3000000E+03  0.7818608E-02  0.1093470E+00
         21   -1    0    0  501  502  0.00000000000E+00  0.00000000000E+00  0.24433870147E+01  0.24433870147E+01  0.00000000000E+00 0. -1.
         13   -1    0    0    0    0 -0.00000000000E+00 -0.00000000000E+00 -0.10000000000E+04  0.10000000000E+04  0.00000000000E+00 0.  1.
    9000005    2    1    2  501    0 -0.32902617563E+02  0.79651602372E+01 -0.14104136527E+03  0.14525939533E+03  0.78485155446E+01 0.  0.
         13    1    3    3    0    0 -0.30115334091E+02  0.57572457925E+01 -0.13261960510E+03  0.13611773904E+03  0.00000000000E+00 0.  1.
          1    1    3    3  501    0 -0.27872834723E+01  0.22079144447E+01 -0.84217601704E+01  0.91416562896E+01  0.00000000000E+00 0.  1.
         -3    1    1    2    0  502  0.32902617563E+02 -0.79651602372E+01 -0.85651524772E+03  0.85718399168E+03  0.00000000000E+00 0. -1.
<mgrwt>
<rscale>  1 0.30000000E+03</rscale>
<asrwt>0</asrwt>
<pdfrwt beam="1">  1       21 0.88850624E-02 0.30000000E+03</pdfrwt>
<pdfrwt beam="2">0</pdfrwt>
<totfact> 0.10616984E+04</totfact>
</mgrwt>
</event>
<event>
 6    1  0.6513574E-002  0.3000000E+03  0.7818608E-02  0.1093470E+00
         21   -1    0    0  501  502  0.00000000000E+00  0.00000000000E+00  0.11388456738E+01  0.11388456738E+01  0.00000000000E+00 0. -1.
         13   -1    0    0    0    0 -0.00000000000E+00 -0.00000000000E+00 -0.10000000000E+04  0.10000000000E+04  0.00000000000E+00 0.  1.
    9000005    2    1    2  501    0  0.19441686482E+02 -0.25342993551E+02 -0.35086822753E+03  0.35235916067E+03  0.53121109552E+01 0.  0.
         13    1    3    3    0    0  0.13799797644E+02 -0.14049448670E+02 -0.22433126095E+03  0.22519399651E+03  0.00000000000E+00 0.  1.
          1    1    3    3  501    0  0.56418888379E+01 -0.11293544881E+02 -0.12653696658E+03  0.12716516417E+03  0.00000000000E+00 0.  1.
         -3    1    1    2    0  502 -0.19441686482E+02  0.25342993551E+02 -0.64799292679E+03  0.64877968500E+03  0.00000000000E+00 0. -1.
<mgrwt>
<rscale>  1 0.30000000E+03</rscale>
<asrwt>0</asrwt>
<pdfrwt beam="1">  1       21 0.41412657E-02 0.30000000E+03</pdfrwt>
<pdfrwt beam="2">0</pdfrwt>
<totfact> 0.39658054E+04</totfact>
</mgrwt>
</event>
<event>
 6    1  0.6513574E-002  0.3000000E+03  0.7818608E-02  0.1093470E+00
         21   -1    0    0  501  502  0.00000000000E+00  0.00000000000E+00  0.24811258680E+01  0.24811258680E+01  0.00000000000E+00 0. -1.
         13   -1    0    0    0    0 -0.00000000000E+00 -0.00000000000E+00 -0.10000000000E+04  0.10000000000E+04  0.00000000000E+00 0.  1.
    9000005    2    1    2  501    0  0.27430501685E+02 -0.41493471481E+02 -0.49228920291E+03  0.49480882873E+03  0.36023727438E+01 0.  0.
         13    1    3    3    0    0  0.19041478780E+01 -0.43762880878E+01 -0.54154855269E+02  0.54364749845E+02  0.00000000000E+00 0.  1.
          1    1    3    3  501    0  0.25526353807E+02 -0.37117183393E+02 -0.43813434764E+03  0.44044407888E+03  0.00000000000E+00 0.  1.
         -3    1    1    2    0  502 -0.27430501685E+02  0.41493471481E+02 -0.50522967123E+03  0.50767229714E+03  0.00000000000E+00 0. -1.
<mgrwt>
<rscale>  1 0.30000000E+03</rscale>
<asrwt>0</asrwt>
<pdfrwt beam="1">  1       21 0.90222949E-02 0.30000000E+03</pdfrwt>
<pdfrwt beam="2">0</pdfrwt>
<totfact> 0.10332693E+04</totfact>
</mgrwt>
</event>
<event>
 6    1  0.6513574E-002  0.3000000E+03  0.7818608E-02  0.1093470E+00
         21   -1    0    0  501  502  0.00000000000E+00  0.00000000000E+00  0.14458199914E+01  0.14458199914E+01  0.00000000000E+00 0. -1.
         13   -1    0    0    0    0 -0.00000000000E+00 -0.00000000000E+00 -0.10000000000E+04  0.10000000000E+04  0.00000000000E+00 0.  1.
    9000005    2    1    2  501    0  0.26881072647E+02 -0.26773778809E+02 -0.49474803704E+03  0.49621314390E+03  0.35265741350E+01 0.  0.
         13    1    3    3    0    0  0.12833621517E+02 -0.14411837345E+02 -0.26851892757E+03  0.26921147331E+03  0.00000000000E+00 0.  1.
          1    1    3    3  501    0  0.14047451130E+02 -0.12361941464E+02 -0.22622910947E+03  0.22700167059E+03  0.00000000000E+00 0.  1.
         -3    1    1    2    0  502 -0.26881072647E+02  0.26773778809E+02 -0.50380614296E+03  0.50523267609E+03  0.00000000000E+00 0. -1.
<mgrwt>
<rscale>  1 0.30000000E+03</rscale>
<asrwt>0</asrwt>
<pdfrwt beam="1">  1       21 0.52575383E-02 0.30000000E+03</pdfrwt>
<pdfrwt beam="2">0</pdfrwt>
<totfact> 0.26438008E+04</totfact>
</mgrwt>
</event>
<event>
 6    1  0.6513574E-002  0.3000000E+03  0.7818608E-02  0.1093470E+00
         21   -1    0    0  501  502  0.00000000000E+00  0.00000000000E+00  0.13755335955E+01  0.13755335955E+01  0.00000000000E+00 0. -1.
         13   -1    0    0    0    0 -0.00000000000E+00 -0.00000000000E+00 -0.10000000000E+04  0.10000000000E+04  0.00000000000E+00 0.  1.
    9000005    2    1    2  501    0  0.25032594787E+02 -0.27140605553E+02 -0.46291688670E+03  0.46439708503E+03  0.30602810729E+01 0.  0.
         13    1    3    3    0    0  0.10369593249E+02 -0.97088349093E+01 -0.19133779531E+03  0.19186438402E+03  0.00000000000E+00 0.  1.
          1    1    3    3  501    0  0.14663001537E+02 -0.17431770644E+02 -0.27157909139E+03  0.27253270102E+03  0.00000000000E+00 0.  1.
         -3    1    1    2    0  502 -0.25032594787E+02  0.27140605553E+02 -0.53570757970E+03  0.53697844856E+03  0.00000000000E+00 0. -1.
<mgrwt>
<rscale>  1 0.30000000E+03</rscale>
<asrwt>0</asrwt>
<pdfrwt beam="1">  1       21 0.50019509E-02 0.30000000E+03</pdfrwt>
<pdfrwt beam="2">0</pdfrwt>
<totfact> 0.28785506E+04</totfact>
</mgrwt>
</event>
<event>
 6    1  0.7945786E-002  0.3000000E+03  0.7818608E-02  0.1093470E+00
         21   -1    0    0  501  502  0.00000000000E+00  0.00000000000E+00  0.11344127793E+01  0.11344127793E+01  0.00000000000E+00 0. -1.
         13   -1    0    0    0    0 -0.00000000000E+00 -0.00000000000E+00 -0.10000000000E+04  0.10000000000E+04  0.00000000000E+00 0.  1.
    9000005    2    1    2  501    0  0.28603752490E+02 -0.11009401282E+02 -0.33787451057E+03  0.33943313200E+03  0.10783535291E+02 0.  0.
         13    1    3    3    0    0  0.10278101880E+01  0.17185224436E+01 -0.14947775311E+02  0.15081302992E+02  0.00000000000E+00 0.  1.
          3    1    3    3  501    0  0.27575942302E+02 -0.12727923726E+02 -0.32292673526E+03  0.32435182901E+03  0.00000000000E+00 0.  1.
         -3    1    1    2    0  502 -0.28603752490E+02  0.11009401282E+02 -0.66099107665E+03  0.66170128078E+03  0.00000000000E+00 0. -1.
<mgrwt>
<rscale>  1 0.30000000E+03</rscale>
<asrwt>0</asrwt>
<pdfrwt beam="1">  1       21 0.41251461E-02 0.30000000E+03</pdfrwt>
<pdfrwt beam="2">0</pdfrwt>
<totfact> 0.39919842E+04</totfact>
</mgrwt>
</event>
<event>
 6    1  0.6513574E-002  0.3000000E+03  0.7818608E-02  0.1093470E+00
         21   -1    0    0  501  502  0.00000000000E+00  0.00000000000E+00  0.22524929107E+01  0.22524929107E+01  0.00000000000E+00 0. -1.
         13   -1    0    0    0    0 -0.00000000000E+00 -0.00000000000E+00 -0.10000000000E+04  0.10000000000E+04  0.00000000000E+00 0.  1.
    9000005    2    1    2  501    0 -0.49148093618E+01 -0.42587477291E+02 -0.28665259920E+03  0.28986649038E+03  0.38756993052E+01 0.  0.
         13    1    3    3    0    0 -0.44346077453E+01 -0.33039876147E+02 -0.23226904453E+03  0.23464911721E+03  0.00000000000E+00 0.  1.
          1    1    3    3  501    0 -0.48020161647E+00 -0.95476011434E+01 -0.54383554673E+02  0.55217373173E+02  0.00000000000E+00 0.  1.
         -3    1    1    2    0  502  0.49148093618E+01  0.42587477291E+02 -0.71109490789E+03  0.71238600253E+03  0.00000000000E+00 0. -1.
<mgrwt>
<rscale>  1 0.30000000E+03</rscale>
<asrwt>0</asrwt>
<pdfrwt beam="1">  1       21 0.81909006E-02 0.30000000E+03</pdfrwt>
<pdfrwt beam="2">0</pdfrwt>
<totfact> 0.12255214E+04</totfact>
</mgrwt>
</event>
<event>
 6    1  0.6513574E-002  0.3000000E+03  0.7818608E-02  0.1093470E+00
         21   -1    0    0  501  502  0.00000000000E+00  0.00000000000E+00  0.46635712579E+01  0.46635712579E+01  0.00000000000E+00 0. -1.
         13   -1    0    0    0    0 -0.00000000000E+00 -0.00000000000E+00 -0.10000000000E+04  0.10000000000E+04  0.00000000000E+00 0.  1.
    9000005    2    1    2  501    0 -0.53405128325E+02 -0.19427427724E+02 -0.77599467259E+03  0.77807950591E+03  0.32331012517E+01 0.  0.
         13    1    3    3    0    0 -0.11173171986E+02 -0.49620466598E+01 -0.15322560856E+03  0.15371255250E+03  0.00000000000E+00 0.  1.
          1    1    3    3  501    0 -0.42231956339E+02 -0.14465381065E+02 -0.62276906403E+03  0.62436695340E+03  0.00000000000E+00 0.  1.
         -1    1    1    2    0  502  0.53405128325E+02  0.19427427724E+02 -0.21934175615E+03  0.22658406535E+03  0.00000000000E+00 0. -1.
<mgrwt>
<rscale>  1 0.30000000E+03</rscale>
<asrwt>0</asrwt>
<pdfrwt beam="1">  1       21 0.16958477E-01 0.30000000E+03</pdfrwt>
<pdfrwt beam="2">0</pdfrwt>
<totfact> 0.32764925E+03</totfact>
</mgrwt>
</event>
<event>
 6    1  0.6513574E-002  0.3000000E+03  0.7818608E-02  0.1093470E+00
         21   -1    0    0  501  502  0.00000000000E+00  0.00000000000E+00  0.10204441118E+01  0.10204441118E+01  0.00000000000E+00 0. -1.
         13   -1    0    0    0    0 -0.00000000000E+00 -0.00000000000E+00 -0.10000000000E+04  0.10000000000E+04  0.00000000000E+00 0.  1.
    9000005    2    1    2  501    0  0.18113012538E+02 -0.24159820484E+02 -0.65945666069E+03  0.66015745916E+03  0.36063003494E+01 0.  0.
         13    1    3    3    0    0  0.60163043872E+01 -0.56019307435E+01 -0.16431526697E+03  0.16452077226E+03  0.00000000000E+00 0.  1.
          1    1    3    3  501    0  0.12096708151E+02 -0.18557889740E+02 -0.49514139373E+03  0.49563668690E+03  0.00000000000E+00 0.  1.
         -3    1    1    2    0  502 -0.18113012538E+02  0.24159820484E+02 -0.33952289520E+03  0.34086298495E+03  0.00000000000E+00 0. -1.
<mgrwt>
<rscale>  1 0.30000000E+03</rscale>
<asrwt>0</asrwt>
<pdfrwt beam="1">  1       21 0.37107137E-02 0.30000000E+03</pdfrwt>
<pdfrwt beam="2">0</pdfrwt>
<totfact> 0.47703354E+04</totfact>
</mgrwt>
</event>
<event>
 6    1  0.6513574E-002  0.3000000E+03  0.7818608E-02  0.1093470E+00
         21   -1    0    0  501  502  0.00000000000E+00  0.00000000000E+00  0.23098302233E+01  0.23098302233E+01  0.00000000000E+00 0. -1.
         13   -1    0    0    0    0 -0.00000000000E+00 -0.00000000000E+00 -0.10000000000E+04  0.10000000000E+04  0.00000000000E+00 0.  1.
    9000005    2    1    2  501    0 -0.43625840808E+02  0.10021211647E+02 -0.31847307930E+03  0.32161937586E+03  0.32065587555E+01 0.  0.
         13    1    3    3    0    0 -0.42266506841E+02  0.95150900844E+01 -0.30358428481E+03  0.30666009281E+03  0.00000000000E+00 0.  1.
          1    1    3    3  501    0 -0.13593339669E+01  0.50612156307E+00 -0.14888794488E+02  0.14959283044E+02  0.00000000000E+00 0.  1.
         -3    1    1    2    0  502  0.43625840808E+02 -0.10021211647E+02 -0.67921709048E+03  0.68069045437E+03  0.00000000000E+00 0. -1.
<mgrwt>
<rscale>  1 0.30000000E+03</rscale>
<asrwt>0</asrwt>
<pdfrwt beam="1">  1       21 0.83994003E-02 0.30000000E+03</pdfrwt>
<pdfrwt beam="2">0</pdfrwt>
<totfact> 0.11724747E+04</totfact>
</mgrwt>
</event>
<event>
 6    1  0.6513574E-002  0.3000000E+03  0.7818608E-02  0.1093470E+00
         21   -1    0    0  501  502  0.00000000000E+00  0.00000000000E+00  0.11059439636E+01  0.11059439636E+01  0.00000000000E+00 0. -1.
         13   -1    0    0    0    0 -0.00000000000E+00 -0.00000000000E+00 -0.10000000000E+04  0.10000000000E+04  0.00000000000E+00 0.  1.
    9000005    2    1    2  501    0  0.27133748436E+02  0.18975351427E+02 -0.53795751974E+03  0.53898172392E+03  0.25887061613E+01 0.  0.
         13    1    3    3    0    0  0.91449319966E+01  0.49870186664E+01 -0.16343312107E+03  0.16376472514E+03  0.00000000000E+00 0.  1.
          3    1    3    3  501    0  0.17988816440E+02  0.13988332760E+02 -0.37452439867E+03  0.37521699878E+03  0.00000000000E+00 0.  1.
         -3    1    1    2    0  502 -0.27133748436E+02 -0.18975351427E+02 -0.46093653629E+03  0.46212422005E+03  0.00000000000E+00 0. -1.
<mgrwt>
<rscale>  1 0.30000000E+03</rscale>
<asrwt>0</asrwt>
<pdfrwt beam="1">  1       21 0.40216229E-02 0.30000000E+03</pdfrwt>
<pdfrwt beam="2">0</pdfrwt>
<totfact> 0.41667256E+04</totfact>
</mgrwt>
</event>
<event>
 6    1  0.6513574E-002  0.3000000E+03  0.7818608E-02  0.1093470E+00
         21   -1    0    0  501  502  0.00000000000E+00  0.00000000000E+00  0.24033935849E+01  0.24033935849E+01  0.00000000000E+00 0. -1.
         13   -1    0    0    0    0 -0.00000000000E+00 -0.00000000000E+00 -0.10000000000E+04  0.10000000000E+04  0.00000000000E+00 0.  1.
    9000005    2    1    2  501    0  0.17536302482E+02 -0.41232226364E+02 -0.30302762775E+03  0.30639068930E+03  0.64724738044E+01 0.  0.
         13    1    3    3    0    0  0.93561511975E+01 -0.28854948402E+02 -0.21289632052E+03  0.21504648080E+03  0.00000000000E+00 0.  1.
          1    1    3    3  501    0  0.81801512846E+01 -0.12377277962E+02 -0.90131307230E+02  0.91344208507E+02  0.00000000000E+00 0.  1.
         -1    1    1    2    0  502 -0.17536302482E+02  0.41232226364E+02 -0.69456897867E+03  0.69601270428E+03  0.00000000000E+00 0. -1.
<mgrwt>
<rscale>  1 0.30000000E+03</rscale>
<asrwt>0</asrwt>
<pdfrwt beam="1">  1       21 0.87396315E-02 0.30000000E+03</pdfrwt>
<pdfrwt beam="2">0</pdfrwt>
<totfact> 0.10931401E+04</totfact>
</mgrwt>
</event>
<event>
 6    1  0.6513574E-002  0.3000000E+03  0.7818608E-02  0.1093470E+00
         21   -1    0    0  501  502  0.00000000000E+00  0.00000000000E+00  0.20399935744E+01  0.20399935744E+01  0.00000000000E+00 0. -1.
         13   -1    0    0    0    0 -0.00000000000E+00 -0.00000000000E+00 -0.10000000000E+04  0.10000000000E+04  0.00000000000E+00 0.  1.
    9000005    2    1    2  501    0  0.41519291966E+01 -0.38257089150E+02 -0.23886327658E+03  0.24196849125E+03  0.34989244041E+01 0.  0.
         13    1    3    3    0    0  0.43303462083E+01 -0.33464110970E+02 -0.20287579560E+03  0.20566279942E+03  0.00000000000E+00 0.  1.
          1    1    3    3  501    0 -0.17841701169E+00 -0.47929781803E+01 -0.35987480977E+02  0.36305691834E+02  0.00000000000E+00 0.  1.
         -1    1    1    2    0  502 -0.41519291966E+01  0.38257089150E+02 -0.75909672984E+03  0.76007150233E+03  0.00000000000E+00 0. -1.
<mgrwt>
<rscale>  1 0.30000000E+03</rscale>
<asrwt>0</asrwt>
<pdfrwt beam="1">  1       21 0.74181741E-02 0.30000000E+03</pdfrwt>
<pdfrwt beam="2">0</pdfrwt>
<totfact> 0.14581783E+04</totfact>
</mgrwt>
</event>
<event>
 6    1  0.6513574E-002  0.3000000E+03  0.7818608E-02  0.1093470E+00
         21   -1    0    0  501  502  0.00000000000E+00  0.00000000000E+00  0.16957225120E+01  0.16957225120E+01  0.00000000000E+00 0. -1.
         13   -1    0    0    0    0 -0.00000000000E+00 -0.00000000000E+00 -0.10000000000E+04  0.10000000000E+04  0.00000000000E+00 0.  1.
    9000005    2    1    2  501    0  0.54138165789E+01  0.34386043064E+02 -0.23355931199E+03  0.23615893592E+03  0.30629121954E+01 0.  0.
         13    1    3    3    0    0  0.55030029603E+01  0.32691858489E+02 -0.21780605904E+03  0.22031459327E+03  0.00000000000E+00 0.  1.
          3    1    3    3  501    0 -0.89186381383E-01  0.16941845752E+01 -0.15753252948E+02  0.15844342650E+02  0.00000000000E+00 0.  1.
         -1    1    1    2    0  502 -0.54138165789E+01 -0.34386043064E+02 -0.76474496550E+03  0.76553678659E+03  0.00000000000E+00 0. -1.
<mgrwt>
<rscale>  1 0.30000000E+03</rscale>
<asrwt>0</asrwt>
<pdfrwt beam="1">  1       21 0.61662767E-02 0.30000000E+03</pdfrwt>
<pdfrwt beam="2">0</pdfrwt>
<totfact> 0.20100771E+04</totfact>
</mgrwt>
</event>
<event>
 6    1  0.6513574E-002  0.3000000E+03  0.7818608E-02  0.1093470E+00
         21   -1    0    0  501  502  0.00000000000E+00  0.00000000000E+00  0.13154655470E+01  0.13154655470E+01  0.00000000000E+00 0. -1.
         13   -1    0    0    0    0 -0.00000000000E+00 -0.00000000000E+00 -0.10000000000E+04  0.10000000000E+04  0.00000000000E+00 0.  1.
    9000005    2    1    2  501    0  0.32743100296E+02 -0.10655586132E+02 -0.65507657937E+03  0.65598652246E+03  0.27093700035E+01 0.  0.
         13    1    3    3    0    0  0.22415107592E+02 -0.85689757644E+01 -0.46073765246E+03  0.46136216662E+03  0.00000000000E+00 0.  1.
          3    1    3    3  501    0  0.10327992703E+02 -0.20866103680E+01 -0.19433892691E+03  0.19462435584E+03  0.00000000000E+00 0.  1.
         -3    1    1    2    0  502 -0.32743100296E+02  0.10655586132E+02 -0.34360795509E+03  0.34532894308E+03  0.00000000000E+00 0. -1.
<mgrwt>
<rscale>  1 0.30000000E+03</rscale>
<asrwt>0</asrwt>
<pdfrwt beam="1">  1       21 0.47835212E-02 0.30000000E+03</pdfrwt>
<pdfrwt beam="2">0</pdfrwt>
<totfact> 0.31059754E+04</totfact>
</mgrwt>
</event>
<event>
 6    1  0.6513574E-002  0.3000000E+03  0.7818608E-02  0.1093470E+00
         21   -1    0    0  501  502  0.00000000000E+00  0.00000000000E+00  0.52675704329E+01  0.52675704329E+01  0.00000000000E+00 0. -1.
         13   -1    0    0    0    0 -0.00000000000E+00 -0.00000000000E+00 -0.10000000000E+04  0.10000000000E+04  0.00000000000E+00 0.  1.
    9000005    2    1    2  501    0  0.27371286196E+02  0.39743881765E+02 -0.87269796569E+03  0.87403810034E+03  0.34782308633E+01 0.  0.
         13    1    3    3    0    0  0.17754203624E+02  0.23558595419E+02 -0.51197288908E+03  0.51282205326E+03  0.00000000000E+00 0.  1.
          3    1    3    3  501    0  0.96170825725E+01  0.16185286346E+02 -0.36072507661E+03  0.36121604708E+03  0.00000000000E+00 0.  1.
         -1    1    1    2    0  502 -0.27371286196E+02 -0.39743881765E+02 -0.12203446388E+03  0.13122947009E+03  0.00000000000E+00 0. -1.
<mgrwt>
<rscale>  1 0.30000000E+03</rscale>
<asrwt>0</asrwt>
<pdfrwt beam="1">  1       21 0.19154842E-01 0.30000000E+03</pdfrwt>
<pdfrwt beam="2">0</pdfrwt>
<totfact> 0.26046869E+03</totfact>
</mgrwt>
</event>
<event>
 6    1  0.6513574E-002  0.3000000E+03  0.7818608E-02  0.1093470E+00
         21   -1    0    0  501  502  0.00000000000E+00  0.00000000000E+00  0.13717019260E+01  0.13717019260E+01  0.00000000000E+00 0. -1.
         13   -1    0    0    0    0 -0.00000000000E+00 -0.00000000000E+00 -0.10000000000E+04  0.10000000000E+04  0.00000000000E+00 0.  1.
    9000005    2    1    2  501    0  0.34188112057E+02  0.26560808420E+01 -0.31336656516E+03  0.31525252542E+03  0.31094778949E+01 0.  0.
         13    1    3    3    0    0  0.24592401611E+02  0.56547395169E+00 -0.22013157874E+03  0.22150173348E+03  0.00000000000E+00 0.  1.
          1    1    3    3  501    0  0.95957104453E+01  0.20906068903E+01 -0.93234986416E+02  0.93750791933E+02  0.00000000000E+00 0.  1.
         -3    1    1    2    0  502 -0.34188112057E+02 -0.26560808420E+01 -0.68526173292E+03  0.68611917651E+03  0.00000000000E+00 0. -1.
<mgrwt>
<rscale>  1 0.30000000E+03</rscale>
<asrwt>0</asrwt>
<pdfrwt beam="1">  1       21 0.49880175E-02 0.30000000E+03</pdfrwt>
<pdfrwt beam="2">0</pdfrwt>
<totfact> 0.28922708E+04</totfact>
</mgrwt>
</event>
<event>
 6    1  0.6513574E-002  0.3000000E+03  0.7818608E-02  0.1093470E+00
         21   -1    0    0  501  502  0.00000000000E+00  0.00000000000E+00  0.16229095302E+01  0.16229095302E+01  0.00000000000E+00 0. -1.
         13   -1    0    0    0    0 -0.00000000000E+00 -0.00000000000E+00 -0.10000000000E+04  0.10000000000E+04  0.00000000000E+00 0.  1.
    9000005    2    1    2  501    0  0.36523763454E+01  0.40025830859E+02 -0.48384549383E+03  0.48552391619E+03  0.34065086777E+01 0.  0.
         13    1    3    3    0    0  0.41531000831E+01  0.38630237091E+02 -0.46552079522E+03  0.46713933065E+03  0.00000000000E+00 0.  1.
          1    1    3    3  501    0 -0.50072373769E+00  0.13955937675E+01 -0.18324698616E+02  0.18384585543E+02  0.00000000000E+00 0.  1.
         -1    1    1    2    0  502 -0.36523763454E+01 -0.40025830859E+02 -0.51453159664E+03  0.51609899334E+03  0.00000000000E+00 0. -1.
<mgrwt>
<rscale>  1 0.30000000E+03</rscale>
<asrwt>0</asrwt>
<pdfrwt beam="1">  1       21 0.59015016E-02 0.30000000E+03</pdfrwt>
<pdfrwt beam="2">0</pdfrwt>
<totfact> 0.21681677E+04</totfact>
</mgrwt>
</event>
<event>
 6    1  0.6513574E-002  0.3000000E+03  0.7818608E-02  0.1093470E+00
         21   -1    0    0  501  502  0.00000000000E+00  0.00000000000E+00  0.17087000708E+01  0.17087000708E+01  0.00000000000E+00 0. -1.
         13   -1    0    0    0    0 -0.00000000000E+00 -0.00000000000E+00 -0.10000000000E+04  0.10000000000E+04  0.00000000000E+00 0.  1.
    9000005    2    1    2  501    0 -0.20492177940E+02  0.34544988512E+02 -0.42806043804E+03  0.43006499860E+03  0.10338220933E+02 0.  0.
         13    1    3    3    0    0 -0.34364232177E+01  0.84046494948E+00 -0.27300210863E+02  0.27528474331E+02  0.00000000000E+00 0.  1.
          1    1    3    3  501    0 -0.17055754722E+02  0.33704523562E+02 -0.40076022718E+03  0.40253652427E+03  0.00000000000E+00 0.  1.
         -3    1    1    2    0  502  0.20492177940E+02 -0.34544988512E+02 -0.57023086189E+03  0.57164370147E+03  0.00000000000E+00 0. -1.
<mgrwt>
<rscale>  1 0.30000000E+03</rscale>
<asrwt>0</asrwt>
<pdfrwt beam="1">  1       21 0.62134679E-02 0.30000000E+03</pdfrwt>
<pdfrwt beam="2">0</pdfrwt>
<totfact> 0.19837854E+04</totfact>
</mgrwt>
</event>
<event>
 6    1  0.6513574E-002  0.3000000E+03  0.7818608E-02  0.1093470E+00
         21   -1    0    0  501  502  0.00000000000E+00  0.00000000000E+00  0.12620176716E+01  0.12620176716E+01  0.00000000000E+00 0. -1.
         13   -1    0    0    0    0 -0.00000000000E+00 -0.00000000000E+00 -0.10000000000E+04  0.10000000000E+04  0.00000000000E+00 0.  1.
    9000005    2    1    2  501    0 -0.27918499780E+02 -0.19321903266E+02 -0.64314003602E+03  0.64404684722E+03  0.38022253428E+01 0.  0.
         13    1    3    3    0    0 -0.19433870376E+02 -0.11706430708E+02 -0.40724574124E+03  0.40787719916E+03  0.00000000000E+00 0.  1.
          1    1    3    3  501    0 -0.84846294042E+01 -0.76154725576E+01 -0.23589429477E+03  0.23616964806E+03  0.00000000000E+00 0.  1.
         -1    1    1    2    0  502  0.27918499780E+02  0.19321903266E+02 -0.35559794631E+03  0.35721517045E+03  0.00000000000E+00 0. -1.
<mgrwt>
<rscale>  1 0.30000000E+03</rscale>
<asrwt>0</asrwt>
<pdfrwt beam="1">  1       21 0.45891648E-02 0.30000000E+03</pdfrwt>
<pdfrwt beam="2">0</pdfrwt>
<totfact> 0.33329047E+04</totfact>
</mgrwt>
</event>
<event>
 6    1  0.6513574E-002  0.3000000E+03  0.7818608E-02  0.1093470E+00
         21   -1    0    0  501  502  0.00000000000E+00  0.00000000000E+00  0.11849520406E+01  0.11849520406E+01  0.00000000000E+00 0. -1.
         13   -1    0    0    0    0 -0.00000000000E+00 -0.00000000000E+00 -0.10000000000E+04  0.10000000000E+04  0.00000000000E+00 0.  1.
    9000005    2    1    2  501    0 -0.34101111985E+02 -0.25625360822E+01 -0.54306428152E+03  0.54415299086E+03  0.37697705735E+01 0.  0.
         13    1    3    3    0    0 -0.25406606395E+02 -0.31511627769E+01 -0.42147901621E+03  0.42225583072E+03  0.00000000000E+00 0.  1.
          1    1    3    3  501    0 -0.86945055897E+01  0.58862669473E+00 -0.12158526531E+03  0.12189716014E+03  0.00000000000E+00 0.  1.
         -3    1    1    2    0  502  0.34101111985E+02  0.25625360822E+01 -0.45575076644E+03  0.45703196118E+03  0.00000000000E+00 0. -1.
<mgrwt>
<rscale>  1 0.30000000E+03</rscale>
<asrwt>0</asrwt>
<pdfrwt beam="1">  1       21 0.43089256E-02 0.30000000E+03</pdfrwt>
<pdfrwt beam="2">0</pdfrwt>
<totfact> 0.37086450E+04</totfact>
</mgrwt>
</event>
<event>
 6    1  0.6513574E-002  0.3000000E+03  0.7818608E-02  0.1093470E+00
         21   -1    0    0  501  502  0.00000000000E+00  0.00000000000E+00  0.11158568382E+01  0.11158568382E+01  0.00000000000E+00 0. -1.
         13   -1    0    0    0    0 -0.00000000000E+00 -0.00000000000E+00 -0.10000000000E+04  0.10000000000E+04  0.00000000000E+00 0.  1.
    9000005    2    1    2  501    0 -0.11109656683E+02  0.30898611542E+02 -0.58580858149E+03  0.58673732420E+03  0.32931424080E+01 0.  0.
         13    1    3    3    0    0 -0.40195415215E+01  0.91928530380E+01 -0.20392538052E+03  0.20417205020E+03  0.00000000000E+00 0.  1.
          3    1    3    3  501    0 -0.70901151617E+01  0.21705758504E+02 -0.38188320097E+03  0.38256527400E+03  0.00000000000E+00 0.  1.
         -1    1    1    2    0  502  0.11109656683E+02 -0.30898611542E+02 -0.41307556167E+03  0.41437853264E+03  0.00000000000E+00 0. -1.
<mgrwt>
<rscale>  1 0.30000000E+03</rscale>
<asrwt>0</asrwt>
<pdfrwt beam="1">  1       21 0.40576698E-02 0.30000000E+03</pdfrwt>
<pdfrwt beam="2">0</pdfrwt>
<totfact> 0.41045482E+04</totfact>
</mgrwt>
</event>
<event>
 6    1  0.6513574E-002  0.3000000E+03  0.7818608E-02  0.1093470E+00
         21   -1    0    0  501  502  0.00000000000E+00  0.00000000000E+00  0.30534267784E+01  0.30534267784E+01  0.00000000000E+00 0. -1.
         13   -1    0    0    0    0 -0.00000000000E+00 -0.00000000000E+00 -0.10000000000E+04  0.10000000000E+04  0.00000000000E+00 0.  1.
    9000005    2    1    2  501    0  0.72264540201E+01  0.53454467676E+02 -0.60570683682E+03  0.60811275643E+03  0.32788131493E+01 0.  0.
         13    1    3    3    0    0  0.47212696196E+01  0.44230580433E+02 -0.49946859192E+03  0.50144541971E+03  0.00000000000E+00 0.  1.
          3    1    3    3  501    0  0.25051844004E+01  0.92238872424E+01 -0.10623824490E+03  0.10666733672E+03  0.00000000000E+00 0.  1.
         -1    1    1    2    0  502 -0.72264540201E+01 -0.53454467676E+02 -0.39123973641E+03  0.39494067035E+03  0.00000000000E+00 0. -1.
<mgrwt>
<rscale>  1 0.30000000E+03</rscale>
<asrwt>0</asrwt>
<pdfrwt beam="1">  1       21 0.11103394E-01 0.30000000E+03</pdfrwt>
<pdfrwt beam="2">0</pdfrwt>
<totfact> 0.71309311E+03</totfact>
</mgrwt>
</event>
<event>
 6    1  0.6513574E-002  0.3000000E+03  0.7818608E-02  0.1093470E+00
         21   -1    0    0  501  502  0.00000000000E+00  0.00000000000E+00  0.11769672500E+01  0.11769672500E+01  0.00000000000E+00 0. -1.
         13   -1    0    0    0    0 -0.00000000000E+00 -0.00000000000E+00 -0.10000000000E+04  0.10000000000E+04  0.00000000000E+00 0.  1.
    9000005    2    1    2  501    0  0.32375494344E+02  0.10317600421E+02 -0.43927592796E+03  0.44059906187E+03  0.30930454639E+01 0.  0.
         13    1    3    3    0    0  0.30721399427E+02  0.99435346888E+01 -0.40717763544E+03  0.40845600139E+03  0.00000000000E+00 0.  1.
          1    1    3    3  501    0  0.16540949170E+01  0.37406573264E+00 -0.32098292513E+02  0.32143060486E+02  0.00000000000E+00 0.  1.
         -1    1    1    2    0  502 -0.32375494344E+02 -0.10317600421E+02 -0.55954710479E+03  0.56057790538E+03  0.00000000000E+00 0. -1.
<mgrwt>
<rscale>  1 0.30000000E+03</rscale>
<asrwt>0</asrwt>
<pdfrwt beam="1">  1       21 0.42798899E-02 0.30000000E+03</pdfrwt>
<pdfrwt beam="2">0</pdfrwt>
<totfact> 0.37512922E+04</totfact>
</mgrwt>
</event>
<event>
 6    1  0.6513574E-002  0.3000000E+03  0.7818608E-02  0.1093470E+00
         21   -1    0    0  501  502  0.00000000000E+00  0.00000000000E+00  0.14545375539E+01  0.14545375539E+01  0.00000000000E+00 0. -1.
         13   -1    0    0    0    0 -0.00000000000E+00 -0.00000000000E+00 -0.10000000000E+04  0.10000000000E+04  0.00000000000E+00 0.  1.
    9000005    2    1    2  501    0 -0.23849139571E+02 -0.25919447450E+02 -0.31042432237E+03  0.31243254760E+03  0.31996358038E+01 0.  0.
         13    1    3    3    0    0 -0.10183369310E+02 -0.12905010925E+02 -0.13572487952E+03  0.13671679940E+03  0.00000000000E+00 0.  1.
          1    1    3    3  501    0 -0.13665770261E+02 -0.13014436525E+02 -0.17469944285E+03  0.17571574821E+03  0.00000000000E+00 0.  1.
         -3    1    1    2    0  502  0.23849139571E+02  0.25919447450E+02 -0.68812114008E+03  0.68902198995E+03  0.00000000000E+00 0. -1.
<mgrwt>
<rscale>  1 0.30000000E+03</rscale>
<asrwt>0</asrwt>
<pdfrwt beam="1">  1       21 0.52892386E-02 0.30000000E+03</pdfrwt>
<pdfrwt beam="2">0</pdfrwt>
<totfact> 0.26167666E+04</totfact>
</mgrwt>
</event>
<event>
 6    1  0.6513574E-002  0.3000000E+03  0.7818608E-02  0.1093470E+00
         21   -1    0    0  501  502  0.00000000000E+00  0.00000000000E+00  0.54848296780E+01  0.54848296780E+01  0.00000000000E+00 0. -1.
         13   -1    0    0    0    0 -0.00000000000E+00 -0.00000000000E+00 -0.10000000000E+04  0.10000000000E+04  0.00000000000E+00 0.  1.
    9000005    2    1    2  501    0  0.52881101824E+02  0.30005555795E+02 -0.78385441880E+03  0.78622540220E+03  0.50881110934E+01 0.  0.
         13    1    3    3    0    0  0.43434491989E+02  0.26798572371E+02 -0.65418045595E+03  0.65616826159E+03  0.00000000000E+00 0.  1.
          1    1    3    3  501    0  0.94466098346E+01  0.32069834237E+01 -0.12967396285E+03  0.13005714060E+03  0.00000000000E+00 0.  1.
         -1    1    1    2    0  502 -0.52881101824E+02 -0.30005555795E+02 -0.21066075152E+03  0.21925942748E+03  0.00000000000E+00 0. -1.
<mgrwt>
<rscale>  1 0.30000000E+03</rscale>
<asrwt>0</asrwt>
<pdfrwt beam="1">  1       21 0.19944877E-01 0.30000000E+03</pdfrwt>
<pdfrwt beam="2">0</pdfrwt>
<totfact> 0.24118938E+03</totfact>
</mgrwt>
</event>
<event>
 6    1  0.6513574E-002  0.3000000E+03  0.7818608E-02  0.1093470E+00
         21   -1    0    0  501  502  0.00000000000E+00  0.00000000000E+00  0.21483020195E+01  0.21483020195E+01  0.00000000000E+00 0. -1.
         13   -1    0    0    0    0 -0.00000000000E+00 -0.00000000000E+00 -0.10000000000E+04  0.10000000000E+04  0.00000000000E+00 0.  1.
    9000005    2    1    2  501    0  0.38055251286E+02  0.17924958953E+02 -0.70868632581E+03  0.70993926937E+03  0.28198384254E+01 0.  0.
         13    1    3    3    0    0  0.20802887715E+02  0.10871495306E+02 -0.41192691920E+03  0.41259512395E+03  0.00000000000E+00 0.  1.
          1    1    3    3  501    0  0.17252363571E+02  0.70534636470E+01 -0.29675940661E+03  0.29734414541E+03  0.00000000000E+00 0.  1.
         -3    1    1    2    0  502 -0.38055251286E+02 -0.17924958953E+02 -0.28916537217E+03  0.29220903265E+03  0.00000000000E+00 0. -1.
<mgrwt>
<rscale>  1 0.30000000E+03</rscale>
<asrwt>0</asrwt>
<pdfrwt beam="1">  1       21 0.78120238E-02 0.30000000E+03</pdfrwt>
<pdfrwt beam="2">0</pdfrwt>
<totfact> 0.13318293E+04</totfact>
</mgrwt>
</event>
<event>
 6    1  0.6513574E-002  0.3000000E+03  0.7818608E-02  0.1093470E+00
         21   -1    0    0  501  502  0.00000000000E+00  0.00000000000E+00  0.17671751288E+01  0.17671751288E+01  0.00000000000E+00 0. -1.
         13   -1    0    0    0    0 -0.00000000000E+00 -0.00000000000E+00 -0.10000000000E+04  0.10000000000E+04  0.00000000000E+00 0.  1.
    9000005    2    1    2  501    0  0.43066214818E+01 -0.41164861985E+02 -0.41463483453E+03  0.41670332632E+03  0.25540773151E+01 0.  0.
         13    1    3    3    0    0  0.39935385277E+01 -0.40396237589E+02 -0.40313542639E+03  0.40517400753E+03  0.00000000000E+00 0.  1.
          3    1    3    3  501    0  0.31308295402E+00 -0.76862439657E+00 -0.11499408133E+02  0.11529318792E+02  0.00000000000E+00 0.  1.
         -1    1    1    2    0  502 -0.43066214818E+01  0.41164861985E+02 -0.58359799035E+03  0.58506384881E+03  0.00000000000E+00 0. -1.
<mgrwt>
<rscale>  1 0.30000000E+03</rscale>
<asrwt>0</asrwt>
<pdfrwt beam="1">  1       21 0.64261049E-02 0.30000000E+03</pdfrwt>
<pdfrwt beam="2">0</pdfrwt>
<totfact> 0.18716800E+04</totfact>
</mgrwt>
</event>
<event>
 6    1  0.6513574E-002  0.3000000E+03  0.7818608E-02  0.1093470E+00
         21   -1    0    0  501  502  0.00000000000E+00  0.00000000000E+00  0.11955342287E+01  0.11955342287E+01  0.00000000000E+00 0. -1.
         13   -1    0    0    0    0 -0.00000000000E+00 -0.00000000000E+00 -0.10000000000E+04  0.10000000000E+04  0.00000000000E+00 0.  1.
    9000005    2    1    2  501    0 -0.19594163983E+02  0.24956295905E+02 -0.69640256145E+03  0.69713360023E+03  0.34613600732E+01 0.  0.
         13    1    3    3    0    0 -0.10927047781E+02  0.11306342651E+02 -0.32962118675E+03  0.32999600075E+03  0.00000000000E+00 0.  1.
          1    1    3    3  501    0 -0.86671162015E+01  0.13649953254E+02 -0.36678137470E+03  0.36713759948E+03  0.00000000000E+00 0.  1.
         -1    1    1    2    0  502  0.19594163983E+02 -0.24956295905E+02 -0.30240190432E+03  0.30406193400E+03  0.00000000000E+00 0. -1.
<mgrwt>
<rscale>  1 0.30000000E+03</rscale>
<asrwt>0</asrwt>
<pdfrwt beam="1">  1       21 0.43474064E-02 0.30000000E+03</pdfrwt>
<pdfrwt beam="2">0</pdfrwt>
<totfact> 0.36532733E+04</totfact>
</mgrwt>
</event>
<event>
 6    1  0.6513574E-002  0.3000000E+03  0.7818608E-02  0.1093470E+00
         21   -1    0    0  501  502  0.00000000000E+00  0.00000000000E+00  0.15776695124E+01  0.15776695124E+01  0.00000000000E+00 0. -1.
         13   -1    0    0    0    0 -0.00000000000E+00 -0.00000000000E+00 -0.10000000000E+04  0.10000000000E+04  0.00000000000E+00 0.  1.
    9000005    2    1    2  501    0  0.36342515441E+02 -0.15843850437E+02 -0.50245399587E+03  0.50402727511E+03  0.34161477198E+01 0.  0.
         13    1    3    3    0    0  0.13668557397E+02 -0.77479418666E+01 -0.19445677243E+03  0.19509048262E+03  0.00000000000E+00 0.  1.
          3    1    3    3  501    0  0.22673958044E+02 -0.80959085702E+01 -0.30799722344E+03  0.30893679250E+03  0.00000000000E+00 0.  1.
         -3    1    1    2    0  502 -0.36342515441E+02  0.15843850437E+02 -0.49596833462E+03  0.49755039440E+03  0.00000000000E+00 0. -1.
<mgrwt>
<rscale>  1 0.30000000E+03</rscale>
<asrwt>0</asrwt>
<pdfrwt beam="1">  1       21 0.57369921E-02 0.30000000E+03</pdfrwt>
<pdfrwt beam="2">0</pdfrwt>
<totfact> 0.22763567E+04</totfact>
</mgrwt>
</event>
<event>
 6    1  0.6513574E-002  0.3000000E+03  0.7818608E-02  0.1093470E+00
         21   -1    0    0  501  502  0.00000000000E+00  0.00000000000E+00  0.30435202560E+01  0.30435202560E+01  0.00000000000E+00 0. -1.
         13   -1    0    0    0    0 -0.00000000000E+00 -0.00000000000E+00 -0.10000000000E+04  0.10000000000E+04  0.00000000000E+00 0.  1.
    9000005    2    1    2  501    0  0.25136362387E+01 -0.46916753812E+02 -0.23684926327E+03  0.24148559030E+03  0.31963497498E+01 0.  0.
         13    1    3    3    0    0  0.13530497307E+01 -0.13240396989E+02 -0.60641156914E+02  0.62084529215E+02  0.00000000000E+00 0.  1.
          1    1    3    3  501    0  0.11605865081E+01 -0.33676356823E+02 -0.17620810636E+03  0.17940106108E+03  0.00000000000E+00 0.  1.
         -1    1    1    2    0  502 -0.25136362387E+01  0.46916753812E+02 -0.76010721647E+03  0.76155792996E+03  0.00000000000E+00 0. -1.
<mgrwt>
<rscale>  1 0.30000000E+03</rscale>
<asrwt>0</asrwt>
<pdfrwt beam="1">  1       21 0.11067370E-01 0.30000000E+03</pdfrwt>
<pdfrwt beam="2">0</pdfrwt>
<totfact> 0.71727729E+03</totfact>
</mgrwt>
</event>
<event>
 6    1  0.6513574E-002  0.3000000E+03  0.7818608E-02  0.1093470E+00
         21   -1    0    0  501  502  0.00000000000E+00  0.00000000000E+00  0.13309770862E+01  0.13309770862E+01  0.00000000000E+00 0. -1.
         13   -1    0    0    0    0 -0.00000000000E+00 -0.00000000000E+00 -0.10000000000E+04  0.10000000000E+04  0.00000000000E+00 0.  1.
    9000005    2    1    2  501    0  0.15618413069E+02 -0.32433603657E+02 -0.57517859529E+03  0.57631331186E+03  0.32777223614E+01 0.  0.
         13    1    3    3    0    0  0.63440406400E+01 -0.13935229416E+02 -0.27023683465E+03  0.27067025006E+03  0.00000000000E+00 0.  1.
          3    1    3    3  501    0  0.92743724290E+01 -0.18498374241E+02 -0.30494176065E+03  0.30564306179E+03  0.00000000000E+00 0.  1.
         -1    1    1    2    0  502 -0.15618413069E+02  0.32433603657E+02 -0.42349042762E+03  0.42501766523E+03  0.00000000000E+00 0. -1.
<mgrwt>
<rscale>  1 0.30000000E+03</rscale>
<asrwt>0</asrwt>
<pdfrwt beam="1">  1       21 0.48399269E-02 0.30000000E+03</pdfrwt>
<pdfrwt beam="2">0</pdfrwt>
<totfact> 0.30446271E+04</totfact>
</mgrwt>
</event>
<event>
 6    1  0.6513574E-002  0.3000000E+03  0.7818608E-02  0.1093470E+00
         21   -1    0    0  501  502  0.00000000000E+00  0.00000000000E+00  0.13779022141E+01  0.13779022141E+01  0.00000000000E+00 0. -1.
         13   -1    0    0    0    0 -0.00000000000E+00 -0.00000000000E+00 -0.10000000000E+04  0.10000000000E+04  0.00000000000E+00 0.  1.
    9000005    2    1    2  501    0  0.11478859012E+02 -0.34173844939E+02 -0.38559966512E+03  0.38729637763E+03  0.34302337610E+01 0.  0.
         13    1    3    3    0    0  0.76989047623E+00 -0.18865888424E+01 -0.31777406950E+02  0.31842668564E+02  0.00000000000E+00 0.  1.
          3    1    3    3  501    0  0.10708968536E+02 -0.32287256097E+02 -0.35382225817E+03  0.35545370906E+03  0.00000000000E+00 0.  1.
         -3    1    1    2    0  502 -0.11478859012E+02  0.34173844939E+02 -0.61302243267E+03  0.61408152459E+03  0.00000000000E+00 0. -1.
<mgrwt>
<rscale>  1 0.30000000E+03</rscale>
<asrwt>0</asrwt>
<pdfrwt beam="1">  1       21 0.50105641E-02 0.30000000E+03</pdfrwt>
<pdfrwt beam="2">0</pdfrwt>
<totfact> 0.28701198E+04</totfact>
</mgrwt>
</event>
<event>
 6    1  0.6513574E-002  0.3000000E+03  0.7818608E-02  0.1093470E+00
         21   -1    0    0  501  502  0.00000000000E+00  0.00000000000E+00  0.35334764276E+01  0.35334764276E+01  0.00000000000E+00 0. -1.
         13   -1    0    0    0    0 -0.00000000000E+00 -0.00000000000E+00 -0.10000000000E+04  0.10000000000E+04  0.00000000000E+00 0.  1.
    9000005    2    1    2  501    0 -0.48717710148E+02  0.27683192544E+02 -0.33195903944E+03  0.33666769466E+03  0.29254617919E+01 0.  0.
         13    1    3    3    0    0 -0.37716163126E+02  0.22808804374E+02 -0.26028859887E+03  0.26399413861E+03  0.00000000000E+00 0.  1.
          1    1    3    3  501    0 -0.11001547022E+02  0.48743881705E+01 -0.71670440574E+02  0.72673556050E+02  0.00000000000E+00 0.  1.
         -3    1    1    2    0  502  0.48717710148E+02 -0.27683192544E+02 -0.66450748413E+03  0.66686578177E+03  0.00000000000E+00 0. -1.
<mgrwt>
<rscale>  1 0.30000000E+03</rscale>
<asrwt>0</asrwt>
<pdfrwt beam="1">  1       21 0.12849032E-01 0.30000000E+03</pdfrwt>
<pdfrwt beam="2">0</pdfrwt>
<totfact> 0.54719631E+03</totfact>
</mgrwt>
</event>
<event>
 6    1  0.6513574E-002  0.3000000E+03  0.7818608E-02  0.1093470E+00
         21   -1    0    0  501  502  0.00000000000E+00  0.00000000000E+00  0.20326667504E+01  0.20326667504E+01  0.00000000000E+00 0. -1.
         13   -1    0    0    0    0 -0.00000000000E+00 -0.00000000000E+00 -0.10000000000E+04  0.10000000000E+04  0.00000000000E+00 0.  1.
    9000005    2    1    2  501    0  0.38016693236E+02  0.22849751076E+02 -0.42347669706E+03  0.42583229262E+03  0.57661415782E+01 0.  0.
         13    1    3    3    0    0  0.21129906877E+02  0.15952118842E+02 -0.25552838359E+03  0.25689627845E+03  0.00000000000E+00 0.  1.
          3    1    3    3  501    0  0.16886786358E+02  0.68976322335E+01 -0.16794831347E+03  0.16893601417E+03  0.00000000000E+00 0.  1.
         -1    1    1    2    0  502 -0.38016693236E+02 -0.22849751076E+02 -0.57449063619E+03  0.57620037414E+03  0.00000000000E+00 0. -1.
<mgrwt>
<rscale>  1 0.30000000E+03</rscale>
<asrwt>0</asrwt>
<pdfrwt beam="1">  1       21 0.73915310E-02 0.30000000E+03</pdfrwt>
<pdfrwt beam="2">0</pdfrwt>
<totfact> 0.14673847E+04</totfact>
</mgrwt>
</event>
<event>
 6    1  0.6513574E-002  0.3000000E+03  0.7818608E-02  0.1093470E+00
         21   -1    0    0  501  502  0.00000000000E+00  0.00000000000E+00  0.20215080258E+01  0.20215080258E+01  0.00000000000E+00 0. -1.
         13   -1    0    0    0    0 -0.00000000000E+00 -0.00000000000E+00 -0.10000000000E+04  0.10000000000E+04  0.00000000000E+00 0.  1.
    9000005    2    1    2  501    0  0.46517015003E+01 -0.42847244582E+02 -0.35948527093E+03  0.36207532434E+03  0.33698345301E+01 0.  0.
         13    1    3    3    0    0  0.25357923629E+01 -0.23314294413E+02 -0.20957017164E+03  0.21087826679E+03  0.00000000000E+00 0.  1.
          3    1    3    3  501    0  0.21159091374E+01 -0.19532950170E+02 -0.14991509929E+03  0.15119705754E+03  0.00000000000E+00 0.  1.
         -3    1    1    2    0  502 -0.46517015003E+01  0.42847244582E+02 -0.63849322105E+03  0.63994618369E+03  0.00000000000E+00 0. -1.
<mgrwt>
<rscale>  1 0.30000000E+03</rscale>
<asrwt>0</asrwt>
<pdfrwt beam="1">  1       21 0.73509538E-02 0.30000000E+03</pdfrwt>
<pdfrwt beam="2">0</pdfrwt>
<totfact> 0.14815761E+04</totfact>
</mgrwt>
</event>
<event>
 6    1  0.6513574E-002  0.3000000E+03  0.7818608E-02  0.1093470E+00
         21   -1    0    0  501  502  0.00000000000E+00  0.00000000000E+00  0.96292331374E+00  0.96292331374E+00  0.00000000000E+00 0. -1.
         13   -1    0    0    0    0 -0.00000000000E+00 -0.00000000000E+00 -0.10000000000E+04  0.10000000000E+04  0.00000000000E+00 0.  1.
    9000005    2    1    2  501    0  0.22295242885E+02  0.21308566044E+02 -0.48603731490E+03  0.48703696714E+03  0.46479068470E+01 0.  0.
         13    1    3    3    0    0  0.17892744589E+02  0.14269334419E+02 -0.35749750098E+03  0.35822929447E+03  0.00000000000E+00 0.  1.
          3    1    3    3  501    0  0.44024982959E+01  0.70392316255E+01 -0.12853981392E+03  0.12880767266E+03  0.00000000000E+00 0.  1.
         -1    1    1    2    0  502 -0.22295242885E+02 -0.21308566044E+02 -0.51299976178E+03  0.51392595618E+03  0.00000000000E+00 0. -1.
<mgrwt>
<rscale>  1 0.30000000E+03</rscale>
<asrwt>0</asrwt>
<pdfrwt beam="1">  1       21 0.35015467E-02 0.30000000E+03</pdfrwt>
<pdfrwt beam="2">0</pdfrwt>
<totfact> 0.52577895E+04</totfact>
</mgrwt>
</event>
<event>
 6    1  0.6513574E-002  0.3000000E+03  0.7818608E-02  0.1093470E+00
         21   -1    0    0  501  502  0.00000000000E+00  0.00000000000E+00  0.12770678608E+01  0.12770678608E+01  0.00000000000E+00 0. -1.
         13   -1    0    0    0    0 -0.00000000000E+00 -0.00000000000E+00 -0.10000000000E+04  0.10000000000E+04  0.00000000000E+00 0.  1.
    9000005    2    1    2  501    0 -0.34138227226E+02 -0.97317167267E+01 -0.54652154504E+03  0.54768449808E+03  0.35192857884E+01 0.  0.
         13    1    3    3    0    0 -0.10053636527E+02 -0.14484241920E+01 -0.16862211564E+03  0.16892776984E+03  0.00000000000E+00 0.  1.
          3    1    3    3  501    0 -0.24084590699E+02 -0.82832925347E+01 -0.37789942940E+03  0.37875672824E+03  0.00000000000E+00 0.  1.
         -3    1    1    2    0  502  0.34138227226E+02  0.97317167267E+01 -0.45220138710E+03  0.45359256978E+03  0.00000000000E+00 0. -1.
<mgrwt>
<rscale>  1 0.30000000E+03</rscale>
<asrwt>0</asrwt>
<pdfrwt beam="1">  1       21 0.46438929E-02 0.30000000E+03</pdfrwt>
<pdfrwt beam="2">0</pdfrwt>
<totfact> 0.32664399E+04</totfact>
</mgrwt>
</event>
<event>
 6    1  0.6513574E-002  0.3000000E+03  0.7818608E-02  0.1093470E+00
         21   -1    0    0  501  502  0.00000000000E+00  0.00000000000E+00  0.63804740282E+01  0.63804740282E+01  0.00000000000E+00 0. -1.
         13   -1    0    0    0    0 -0.00000000000E+00 -0.00000000000E+00 -0.10000000000E+04  0.10000000000E+04  0.00000000000E+00 0.  1.
    9000005    2    1    2  501    0 -0.65717326423E+02  0.20476403780E+02 -0.24223658439E+03  0.25185123338E+03  0.35257382998E+01 0.  0.
         13    1    3    3    0    0 -0.78768579304E+01  0.15703001419E+01 -0.25599455137E+02  0.26829887005E+02  0.00000000000E+00 0.  1.
          3    1    3    3  501    0 -0.57840468493E+02  0.18906103639E+02 -0.21663712926E+03  0.22502134637E+03  0.00000000000E+00 0.  1.
         -1    1    1    2    0  502  0.65717326423E+02 -0.20476403780E+02 -0.75138294158E+03  0.75452924065E+03  0.00000000000E+00 0. -1.
<mgrwt>
<rscale>  1 0.30000000E+03</rscale>
<asrwt>0</asrwt>
<pdfrwt beam="1">  1       21 0.23201773E-01 0.30000000E+03</pdfrwt>
<pdfrwt beam="2">0</pdfrwt>
<totfact> 0.18035222E+03</totfact>
</mgrwt>
</event>
<event>
 6    1  0.6513574E-002  0.3000000E+03  0.7818608E-02  0.1093470E+00
         21   -1    0    0  501  502  0.00000000000E+00  0.00000000000E+00  0.12811036520E+01  0.12811036520E+01  0.00000000000E+00 0. -1.
         13   -1    0    0    0    0 -0.00000000000E+00 -0.00000000000E+00 -0.10000000000E+04  0.10000000000E+04  0.00000000000E+00 0.  1.
    9000005    2    1    2  501    0  0.29501561567E+02 -0.95898772552E+01 -0.25546929921E+03  0.25738442297E+03  0.44576304427E+01 0.  0.
         13    1    3    3    0    0  0.24029530209E+02 -0.93837286154E+01 -0.20397574992E+03  0.20560053317E+03  0.00000000000E+00 0.  1.
          1    1    3    3  501    0  0.54720313586E+01 -0.20614863983E+00 -0.51493549292E+02  0.51783889804E+02  0.00000000000E+00 0.  1.
         -3    1    1    2    0  502 -0.29501561567E+02  0.95898772552E+01 -0.74324959714E+03  0.74389668068E+03  0.00000000000E+00 0. -1.
<mgrwt>
<rscale>  1 0.30000000E+03</rscale>
<asrwt>0</asrwt>
<pdfrwt beam="1">  1       21 0.46585686E-02 0.30000000E+03</pdfrwt>
<pdfrwt beam="2">0</pdfrwt>
<totfact> 0.32489702E+04</totfact>
</mgrwt>
</event>
<event>
 6    1  0.6513574E-002  0.3000000E+03  0.7818608E-02  0.1093470E+00
         21   -1    0    0  501  502  0.00000000000E+00  0.00000000000E+00  0.21878524851E+01  0.21878524851E+01  0.00000000000E+00 0. -1.
         13   -1    0    0    0    0 -0.00000000000E+00 -0.00000000000E+00 -0.10000000000E+04  0.10000000000E+04  0.00000000000E+00 0.  1.
    9000005    2    1    2  501    0 -0.15335304535E+02  0.41697599030E+02 -0.65403457261E+03  0.65555132479E+03  0.35292952942E+01 0.  0.
         13    1    3    3    0    0 -0.40053237913E+01  0.15599051565E+02 -0.22935588465E+03  0.22992062728E+03  0.00000000000E+00 0.  1.
          1    1    3    3  501    0 -0.11329980744E+02  0.26098547464E+02 -0.42467868797E+03  0.42563069750E+03  0.00000000000E+00 0.  1.
         -1    1    1    2    0  502  0.15335304535E+02 -0.41697599030E+02 -0.34377757490E+03  0.34663652770E+03  0.00000000000E+00 0. -1.
<mgrwt>
<rscale>  1 0.30000000E+03</rscale>
<asrwt>0</asrwt>
<pdfrwt beam="1">  1       21 0.79558440E-02 0.30000000E+03</pdfrwt>
<pdfrwt beam="2">0</pdfrwt>
<totfact> 0.12898638E+04</totfact>
</mgrwt>
</event>
<event>
 6    1  0.6513574E-002  0.3000000E+03  0.7818608E-02  0.1093470E+00
         21   -1    0    0  501  502  0.00000000000E+00  0.00000000000E+00  0.11923092234E+01  0.11923092234E+01  0.00000000000E+00 0. -1.
         13   -1    0    0    0    0 -0.00000000000E+00 -0.00000000000E+00 -0.10000000000E+04  0.10000000000E+04  0.00000000000E+00 0.  1.
    9000005    2    1    2  501    0 -0.24662004300E+02  0.19002828685E+02 -0.28672395426E+03  0.28842827409E+03  0.33047540868E+01 0.  0.
         13    1    3    3    0    0 -0.37861067651E+01  0.27230928710E+01 -0.54873229640E+02  0.55071055650E+02  0.00000000000E+00 0.  1.
          1    1    3    3  501    0 -0.20875897535E+02  0.16279735815E+02 -0.23185072461E+03  0.23335721845E+03  0.00000000000E+00 0.  1.
         -1    1    1    2    0  502  0.24662004300E+02 -0.19002828685E+02 -0.71208373652E+03  0.71276403513E+03  0.00000000000E+00 0. -1.
<mgrwt>
<rscale>  1 0.30000000E+03</rscale>
<asrwt>0</asrwt>
<pdfrwt beam="1">  1       21 0.43356790E-02 0.30000000E+03</pdfrwt>
<pdfrwt beam="2">0</pdfrwt>
<totfact> 0.36700118E+04</totfact>
</mgrwt>
</event>
<event>
 6    1  0.6513574E-002  0.3000000E+03  0.7818608E-02  0.1093470E+00
         21   -1    0    0  501  502  0.00000000000E+00  0.00000000000E+00  0.13670741393E+01  0.13670741393E+01  0.00000000000E+00 0. -1.
         13   -1    0    0    0    0 -0.00000000000E+00 -0.00000000000E+00 -0.10000000000E+04  0.10000000000E+04  0.00000000000E+00 0.  1.
    9000005    2    1    2  501    0 -0.23349933000E+02  0.25705987533E+02 -0.33161372980E+03  0.33344445505E+03  0.33943558075E+01 0.  0.
         13    1    3    3    0    0 -0.17130580887E+02  0.19630134112E+02 -0.23478727333E+03  0.23622841211E+03  0.00000000000E+00 0.  1.
          3    1    3    3  501    0 -0.62193521125E+01  0.60758534207E+01 -0.96826456460E+02  0.97216042946E+02  0.00000000000E+00 0.  1.
         -3    1    1    2    0  502  0.23349933000E+02 -0.25705987533E+02 -0.66701919607E+03  0.66792261909E+03  0.00000000000E+00 0. -1.
<mgrwt>
<rscale>  1 0.30000000E+03</rscale>
<asrwt>0</asrwt>
<pdfrwt beam="1">  1       21 0.49711892E-02 0.30000000E+03</pdfrwt>
<pdfrwt beam="2">0</pdfrwt>
<totfact> 0.29089781E+04</totfact>
</mgrwt>
</event>
<event>
 6    1  0.6513574E-002  0.3000000E+03  0.7818608E-02  0.1093470E+00
         21   -1    0    0  501  502  0.00000000000E+00  0.00000000000E+00  0.14576701987E+01  0.14576701987E+01  0.00000000000E+00 0. -1.
         13   -1    0    0    0    0 -0.00000000000E+00 -0.00000000000E+00 -0.10000000000E+04  0.10000000000E+04  0.00000000000E+00 0.  1.
    9000005    2    1    2  501    0 -0.33121882477E+02  0.12930644241E+02 -0.32390828312E+03  0.32588727593E+03  0.46561878755E+01 0.  0.
         13    1    3    3    0    0 -0.28591306744E+02  0.11349255602E+02 -0.26372315546E+03  0.26551115071E+03  0.00000000000E+00 0.  1.
          3    1    3    3  501    0 -0.45305757333E+01  0.15813886393E+01 -0.60185127655E+02  0.60376125227E+02  0.00000000000E+00 0.  1.
         -1    1    1    2    0  502  0.33121882477E+02 -0.12930644241E+02 -0.67463404669E+03  0.67557039426E+03  0.00000000000E+00 0. -1.
<mgrwt>
<rscale>  1 0.30000000E+03</rscale>
<asrwt>0</asrwt>
<pdfrwt beam="1">  1       21 0.53006301E-02 0.30000000E+03</pdfrwt>
<pdfrwt beam="2">0</pdfrwt>
<totfact> 0.26071563E+04</totfact>
</mgrwt>
</event>
<event>
 6    1  0.6513574E-002  0.3000000E+03  0.7818608E-02  0.1093470E+00
         21   -1    0    0  501  502  0.00000000000E+00  0.00000000000E+00  0.16947848453E+01  0.16947848453E+01  0.00000000000E+00 0. -1.
         13   -1    0    0    0    0 -0.00000000000E+00 -0.00000000000E+00 -0.10000000000E+04  0.10000000000E+04  0.00000000000E+00 0.  1.
    9000005    2    1    2  501    0 -0.20082903930E+02  0.35304301656E+02 -0.42310597484E+03  0.42506328830E+03  0.32274404953E+01 0.  0.
         13    1    3    3    0    0 -0.11089602688E+02  0.16239607233E+02 -0.20527579251E+03  0.20621555499E+03  0.00000000000E+00 0.  1.
          3    1    3    3  501    0 -0.89933012421E+01  0.19064694423E+02 -0.21783018233E+03  0.21884773331E+03  0.00000000000E+00 0.  1.
         -3    1    1    2    0  502  0.20082903930E+02 -0.35304301656E+02 -0.57519924032E+03  0.57663149655E+03  0.00000000000E+00 0. -1.
<mgrwt>
<rscale>  1 0.30000000E+03</rscale>
<asrwt>0</asrwt>
<pdfrwt beam="1">  1       21 0.61628670E-02 0.30000000E+03</pdfrwt>
<pdfrwt beam="2">0</pdfrwt>
<totfact> 0.20119977E+04</totfact>
</mgrwt>
</event>
<event>
 6    1  0.6513574E-002  0.3000000E+03  0.7818608E-02  0.1093470E+00
         21   -1    0    0  501  502  0.00000000000E+00  0.00000000000E+00  0.94361156429E+00  0.94361156429E+00  0.00000000000E+00 0. -1.
         13   -1    0    0    0    0 -0.00000000000E+00 -0.00000000000E+00 -0.10000000000E+04  0.10000000000E+04  0.00000000000E+00 0.  1.
    9000005    2    1    2  501    0 -0.18926327699E+02 -0.23941084015E+02 -0.53406213095E+03  0.53494893254E+03  0.40766809005E+01 0.  0.
         13    1    3    3    0    0 -0.13189196717E+02 -0.13546188160E+02 -0.32132580942E+03  0.32188154642E+03  0.00000000000E+00 0.  1.
          3    1    3    3  501    0 -0.57371309814E+01 -0.10394895855E+02 -0.21273632153E+03  0.21306738613E+03  0.00000000000E+00 0.  1.
         -1    1    1    2    0  502  0.18926327699E+02  0.23941084015E+02 -0.46499425748E+03  0.46599467902E+03  0.00000000000E+00 0. -1.
<mgrwt>
<rscale>  1 0.30000000E+03</rscale>
<asrwt>0</asrwt>
<pdfrwt beam="1">  1       21 0.34313220E-02 0.30000000E+03</pdfrwt>
<pdfrwt beam="2">0</pdfrwt>
<totfact> 0.54390837E+04</totfact>
</mgrwt>
</event>
<event>
 6    1  0.6513574E-002  0.3000000E+03  0.7818608E-02  0.1093470E+00
         21   -1    0    0  501  502  0.00000000000E+00  0.00000000000E+00  0.38952439385E+01  0.38952439385E+01  0.00000000000E+00 0. -1.
         13   -1    0    0    0    0 -0.00000000000E+00 -0.00000000000E+00 -0.10000000000E+04  0.10000000000E+04  0.00000000000E+00 0.  1.
    9000005    2    1    2  501    0 -0.19616189425E+02  0.49971811324E+02 -0.24327855516E+03  0.24915736522E+03  0.36000591849E+01 0.  0.
         13    1    3    3    0    0 -0.71711519835E+00  0.36585102717E+01 -0.14206629258E+02  0.14687656944E+02  0.00000000000E+00 0.  1.
          3    1    3    3  501    0 -0.18899074227E+02  0.46313301052E+02 -0.22907192590E+03  0.23446970827E+03  0.00000000000E+00 0.  1.
         -3    1    1    2    0  502  0.19616189425E+02 -0.49971811324E+02 -0.75282620090E+03  0.75473787872E+03  0.00000000000E+00 0. -1.
<mgrwt>
<rscale>  1 0.30000000E+03</rscale>
<asrwt>0</asrwt>
<pdfrwt beam="1">  1       21 0.14164553E-01 0.30000000E+03</pdfrwt>
<pdfrwt beam="2">0</pdfrwt>
<totfact> 0.45772849E+03</totfact>
</mgrwt>
</event>
<event>
 6    1  0.6513574E-002  0.3000000E+03  0.7818608E-02  0.1093470E+00
         21   -1    0    0  501  502  0.00000000000E+00  0.00000000000E+00  0.11422522332E+01  0.11422522332E+01  0.00000000000E+00 0. -1.
         13   -1    0    0    0    0 -0.00000000000E+00 -0.00000000000E+00 -0.10000000000E+04  0.10000000000E+04  0.00000000000E+00 0.  1.
    9000005    2    1    2  501    0  0.19063536796E+02  0.27058867963E+02 -0.40395778423E+03  0.40532217252E+03  0.29276829615E+01 0.  0.
         13    1    3    3    0    0  0.40121127712E+01  0.40316607702E+01 -0.76093414548E+02  0.76305694905E+02  0.00000000000E+00 0.  1.
          1    1    3    3  501    0  0.15051424025E+02  0.23027207193E+02 -0.32786436968E+03  0.32901647761E+03  0.00000000000E+00 0.  1.
         -3    1    1    2    0  502 -0.19063536796E+02 -0.27058867963E+02 -0.59489996354E+03  0.59582007971E+03  0.00000000000E+00 0. -1.
<mgrwt>
<rscale>  1 0.30000000E+03</rscale>
<asrwt>0</asrwt>
<pdfrwt beam="1">  1       21 0.41536532E-02 0.30000000E+03</pdfrwt>
<pdfrwt beam="2">0</pdfrwt>
<totfact> 0.39458690E+04</totfact>
</mgrwt>
</event>
<event>
 6    1  0.6513574E-002  0.3000000E+03  0.7818608E-02  0.1093470E+00
         21   -1    0    0  501  502  0.00000000000E+00  0.00000000000E+00  0.11095124757E+01  0.11095124757E+01  0.00000000000E+00 0. -1.
         13   -1    0    0    0    0 -0.00000000000E+00 -0.00000000000E+00 -0.10000000000E+04  0.10000000000E+04  0.00000000000E+00 0.  1.
    9000005    2    1    2  501    0 -0.11447799705E+02 -0.30909270908E+02 -0.52828157065E+03  0.52934772111E+03  0.64153577492E+01 0.  0.
         13    1    3    3    0    0 -0.10549892795E+02 -0.25472043053E+02 -0.40083430156E+03  0.40178136160E+03  0.00000000000E+00 0.  1.
          1    1    3    3  501    0 -0.89790691027E+00 -0.54372278557E+01 -0.12744726908E+03  0.12756635952E+03  0.00000000000E+00 0.  1.
         -3    1    1    2    0  502  0.11447799705E+02  0.30909270908E+02 -0.47060891688E+03  0.47176179136E+03  0.00000000000E+00 0. -1.
<mgrwt>
<rscale>  1 0.30000000E+03</rscale>
<asrwt>0</asrwt>
<pdfrwt beam="1">  1       21 0.40345993E-02 0.30000000E+03</pdfrwt>
<pdfrwt beam="2">0</pdfrwt>
<totfact> 0.41441740E+04</totfact>
</mgrwt>
</event>
<event>
 6    1  0.6513574E-002  0.3000000E+03  0.7818608E-02  0.1093470E+00
         21   -1    0    0  501  502  0.00000000000E+00  0.00000000000E+00  0.13793116086E+01  0.13793116086E+01  0.00000000000E+00 0. -1.
         13   -1    0    0    0    0 -0.00000000000E+00 -0.00000000000E+00 -0.10000000000E+04  0.10000000000E+04  0.00000000000E+00 0.  1.
    9000005    2    1    2  501    0  0.25013597881E+01 -0.34565030364E+02 -0.32988474355E+03  0.33174600744E+03  0.55200817479E+01 0.  0.
         13    1    3    3    0    0  0.88947114501E-01 -0.29198987763E+02 -0.27157244356E+03  0.27313765925E+03  0.00000000000E+00 0.  1.
          3    1    3    3  501    0  0.24124126736E+01 -0.53660426002E+01 -0.58312299989E+02  0.58608348195E+02  0.00000000000E+00 0.  1.
         -1    1    1    2    0  502 -0.25013597881E+01  0.34565030364E+02 -0.66873594484E+03  0.66963330417E+03  0.00000000000E+00 0. -1.
<mgrwt>
<rscale>  1 0.30000000E+03</rscale>
<asrwt>0</asrwt>
<pdfrwt beam="1">  1       21 0.50156892E-02 0.30000000E+03</pdfrwt>
<pdfrwt beam="2">0</pdfrwt>
<totfact> 0.28651215E+04</totfact>
</mgrwt>
</event>
<event>
 6    1  0.6513574E-002  0.3000000E+03  0.7818608E-02  0.1093470E+00
         21   -1    0    0  501  502  0.00000000000E+00  0.00000000000E+00  0.21496487130E+01  0.21496487130E+01  0.00000000000E+00 0. -1.
         13   -1    0    0    0    0 -0.00000000000E+00 -0.00000000000E+00 -0.10000000000E+04  0.10000000000E+04  0.00000000000E+00 0.  1.
    9000005    2    1    2  501    0  0.19721607030E+02  0.24421239673E+02 -0.13168784547E+03  0.13541853400E+03  0.33394572663E+01 0.  0.
         13    1    3    3    0    0  0.17773496758E+02  0.20271169488E+02 -0.11430805205E+03  0.11744423469E+03  0.00000000000E+00 0.  1.
          3    1    3    3  501    0  0.19481102711E+01  0.41500701847E+01 -0.17379793426E+02  0.17974299310E+02  0.00000000000E+00 0.  1.
         -3    1    1    2    0  502 -0.19721607030E+02 -0.24421239673E+02 -0.86616250581E+03  0.86673111471E+03  0.00000000000E+00 0. -1.
<mgrwt>
<rscale>  1 0.30000000E+03</rscale>
<asrwt>0</asrwt>
<pdfrwt beam="1">  1       21 0.78169209E-02 0.30000000E+03</pdfrwt>
<pdfrwt beam="2">0</pdfrwt>
<totfact> 0.13303660E+04</totfact>
</mgrwt>
</event>
<event>
 6    1  0.6513574E-002  0.3000000E+03  0.7818608E-02  0.1093470E+00
         21   -1    0    0  501  502  0.00000000000E+00  0.00000000000E+00  0.11705033124E+01  0.11705033124E+01  0.00000000000E+00 0. -1.
         13   -1    0    0    0    0 -0.00000000000E+00 -0.00000000000E+00 -0.10000000000E+04  0.10000000000E+04  0.00000000000E+00 0.  1.
    9000005    2    1    2  501    0  0.95794086890E+01 -0.31550086448E+02 -0.62965600742E+03  0.63052749690E+03  0.33262048754E+01 0.  0.
         13    1    3    3    0    0  0.21369647238E+01 -0.11119445316E+02 -0.23586216063E+03  0.23613379152E+03  0.00000000000E+00 0.  1.
          1    1    3    3  501    0  0.74424439652E+01 -0.20430641132E+02 -0.39379384679E+03  0.39439370538E+03  0.00000000000E+00 0.  1.
         -1    1    1    2    0  502 -0.95794086890E+01  0.31550086448E+02 -0.36917348927E+03  0.37064300641E+03  0.00000000000E+00 0. -1.
<mgrwt>
<rscale>  1 0.30000000E+03</rscale>
<asrwt>0</asrwt>
<pdfrwt beam="1">  1       21 0.42563847E-02 0.30000000E+03</pdfrwt>
<pdfrwt beam="2">0</pdfrwt>
<totfact> 0.37863766E+04</totfact>
</mgrwt>
</event>
<event>
 6    1  0.6513574E-002  0.3000000E+03  0.7818608E-02  0.1093470E+00
         21   -1    0    0  501  502  0.00000000000E+00  0.00000000000E+00  0.19206394254E+01  0.19206394254E+01  0.00000000000E+00 0. -1.
         13   -1    0    0    0    0 -0.00000000000E+00 -0.00000000000E+00 -0.10000000000E+04  0.10000000000E+04  0.00000000000E+00 0.  1.
    9000005    2    1    2  501    0 -0.41245693433E+02  0.14179830215E+02 -0.53958571945E+03  0.54135718695E+03  0.35468870601E+01 0.  0.
         13    1    3    3    0    0 -0.38747795753E+02  0.12585326365E+02 -0.49555020758E+03  0.49722207348E+03  0.00000000000E+00 0.  1.
          1    1    3    3  501    0 -0.24978976795E+01  0.15945038501E+01 -0.44035511869E+02  0.44135113469E+02  0.00000000000E+00 0.  1.
         -3    1    1    2    0  502  0.41245693433E+02 -0.14179830215E+02 -0.45849364112E+03  0.46056345248E+03  0.00000000000E+00 0. -1.
<mgrwt>
<rscale>  1 0.30000000E+03</rscale>
<asrwt>0</asrwt>
<pdfrwt beam="1">  1       21 0.69841581E-02 0.30000000E+03</pdfrwt>
<pdfrwt beam="2">0</pdfrwt>
<totfact> 0.16199029E+04</totfact>
</mgrwt>
</event>
<event>
 6    1  0.6513574E-002  0.3000000E+03  0.7818608E-02  0.1093470E+00
         21   -1    0    0  501  502  0.00000000000E+00  0.00000000000E+00  0.39626797863E+01  0.39626797863E+01  0.00000000000E+00 0. -1.
         13   -1    0    0    0    0 -0.00000000000E+00 -0.00000000000E+00 -0.10000000000E+04  0.10000000000E+04  0.00000000000E+00 0.  1.
    9000005    2    1    2  501    0 -0.23402495577E+02  0.56914423699E+02 -0.39456371353E+03  0.39934922644E+03  0.35145701548E+01 0.  0.
         13    1    3    3    0    0 -0.13094405678E+02  0.27604697280E+02 -0.19110720533E+03  0.19353409699E+03  0.00000000000E+00 0.  1.
          1    1    3    3  501    0 -0.10308089899E+02  0.29309726419E+02 -0.20345650820E+03  0.20581512945E+03  0.00000000000E+00 0.  1.
         -1    1    1    2    0  502  0.23402495577E+02 -0.56914423699E+02 -0.60147360668E+03  0.60461345334E+03  0.00000000000E+00 0. -1.
<mgrwt>
<rscale>  1 0.30000000E+03</rscale>
<asrwt>0</asrwt>
<pdfrwt beam="1">  1       21 0.14409775E-01 0.30000000E+03</pdfrwt>
<pdfrwt beam="2">0</pdfrwt>
<totfact> 0.44349084E+03</totfact>
</mgrwt>
</event>
<event>
 6    1  0.6513574E-002  0.3000000E+03  0.7818608E-02  0.1093470E+00
         21   -1    0    0  501  502  0.00000000000E+00  0.00000000000E+00  0.12873953826E+01  0.12873953826E+01  0.00000000000E+00 0. -1.
         13   -1    0    0    0    0 -0.00000000000E+00 -0.00000000000E+00 -0.10000000000E+04  0.10000000000E+04  0.00000000000E+00 0.  1.
    9000005    2    1    2  501    0 -0.25748550896E+02 -0.19306375064E+02 -0.71948490579E+03  0.72021119258E+03  0.31477391391E+01 0.  0.
         13    1    3    3    0    0 -0.24659202522E+02 -0.19089711065E+02 -0.70053642971E+03  0.70123019237E+03  0.00000000000E+00 0.  1.
          3    1    3    3  501    0 -0.10893483741E+01 -0.21666399904E+00 -0.18948476086E+02  0.18981000214E+02  0.00000000000E+00 0.  1.
         -1    1    1    2    0  502  0.25748550896E+02  0.19306375064E+02 -0.27922769882E+03  0.28107620280E+03  0.00000000000E+00 0. -1.
<mgrwt>
<rscale>  1 0.30000000E+03</rscale>
<asrwt>0</asrwt>
<pdfrwt beam="1">  1       21 0.46814476E-02 0.30000000E+03</pdfrwt>
<pdfrwt beam="2">0</pdfrwt>
<totfact> 0.32220259E+04</totfact>
</mgrwt>
</event>
<event>
 6    1  0.6513574E-002  0.3000000E+03  0.7818608E-02  0.1093470E+00
         21   -1    0    0  501  502  0.00000000000E+00  0.00000000000E+00  0.14493424393E+01  0.14493424393E+01  0.00000000000E+00 0. -1.
         13   -1    0    0    0    0 -0.00000000000E+00 -0.00000000000E+00 -0.10000000000E+04  0.10000000000E+04  0.00000000000E+00 0.  1.
    9000005    2    1    2  501    0  0.30145188441E+02 -0.18738572672E+02 -0.32155048443E+03  0.32351933063E+03  0.31901038573E+01 0.  0.
         13    1    3    3    0    0  0.14271881157E+02 -0.85784431485E+01 -0.16518674149E+03  0.16602390142E+03  0.00000000000E+00 0.  1.
          1    1    3    3  501    0  0.15873307283E+02 -0.10160129524E+02 -0.15636374293E+03  0.15749542920E+03  0.00000000000E+00 0.  1.
         -1    1    1    2    0  502 -0.30145188441E+02  0.18738572672E+02 -0.67700017313E+03  0.67793001181E+03  0.00000000000E+00 0. -1.
<mgrwt>
<rscale>  1 0.30000000E+03</rscale>
<asrwt>0</asrwt>
<pdfrwt beam="1">  1       21 0.52703473E-02 0.30000000E+03</pdfrwt>
<pdfrwt beam="2">0</pdfrwt>
<totfact> 0.26328254E+04</totfact>
</mgrwt>
</event>
<event>
 6    1  0.6513574E-002  0.3000000E+03  0.7818608E-02  0.1093470E+00
         21   -1    0    0  501  502  0.00000000000E+00  0.00000000000E+00  0.19530400501E+01  0.19530400501E+01  0.00000000000E+00 0. -1.
         13   -1    0    0    0    0 -0.00000000000E+00 -0.00000000000E+00 -0.10000000000E+04  0.10000000000E+04  0.00000000000E+00 0.  1.
    9000005    2    1    2  501    0 -0.12552502155E+02 -0.37061641537E+02 -0.26846282345E+03  0.27132033970E+03  0.33628229463E+01 0.  0.
         13    1    3    3    0    0 -0.37963916646E+01 -0.11026653524E+02 -0.69781087373E+02  0.70748850398E+02  0.00000000000E+00 0.  1.
          3    1    3    3  501    0 -0.87561104904E+01 -0.26034988014E+02 -0.19868173608E+03  0.20057148931E+03  0.00000000000E+00 0.  1.
         -3    1    1    2    0  502  0.12552502155E+02  0.37061641537E+02 -0.72958413650E+03  0.73063270035E+03  0.00000000000E+00 0. -1.
<mgrwt>
<rscale>  1 0.30000000E+03</rscale>
<asrwt>0</asrwt>
<pdfrwt beam="1">  1       21 0.71019788E-02 0.30000000E+03</pdfrwt>
<pdfrwt beam="2">0</pdfrwt>
<totfact> 0.15733979E+04</totfact>
</mgrwt>
</event>
<event>
 6    1  0.6513574E-002  0.3000000E+03  0.7818608E-02  0.1093470E+00
         21   -1    0    0  501  502  0.00000000000E+00  0.00000000000E+00  0.69586503331E+01  0.69586503331E+01  0.00000000000E+00 0. -1.
         13   -1    0    0    0    0 -0.00000000000E+00 -0.00000000000E+00 -0.10000000000E+04  0.10000000000E+04  0.00000000000E+00 0.  1.
    9000005    2    1    2  501    0 -0.74990931283E+02  0.36117007159E+02 -0.48724743342E+03  0.49436176808E+03  0.74443526366E+01 0.  0.
         13    1    3    3    0    0 -0.65159320460E+02  0.28599362410E+02 -0.41975275854E+03  0.42574175139E+03  0.00000000000E+00 0.  1.
          1    1    3    3  501    0 -0.98316108233E+01  0.75176447483E+01 -0.67494674879E+02  0.68620016693E+02  0.00000000000E+00 0.  1.
         -3    1    1    2    0  502  0.74990931283E+02 -0.36117007159E+02 -0.50579391625E+03  0.51259688225E+03  0.00000000000E+00 0. -1.
<mgrwt>
<rscale>  1 0.30000000E+03</rscale>
<asrwt>0</asrwt>
<pdfrwt beam="1">  1       21 0.25304236E-01 0.30000000E+03</pdfrwt>
<pdfrwt beam="2">0</pdfrwt>
<totfact> 0.15230730E+03</totfact>
</mgrwt>
</event>
<event>
 6    1  0.6513574E-002  0.3000000E+03  0.7818608E-02  0.1093470E+00
         21   -1    0    0  501  502  0.00000000000E+00  0.00000000000E+00  0.20217646664E+01  0.20217646664E+01  0.00000000000E+00 0. -1.
         13   -1    0    0    0    0 -0.00000000000E+00 -0.00000000000E+00 -0.10000000000E+04  0.10000000000E+04  0.00000000000E+00 0.  1.
    9000005    2    1    2  501    0  0.38075134163E+02  0.15789718308E+01 -0.76426169486E+03  0.76521882912E+03  0.34218726577E+01 0.  0.
         13    1    3    3    0    0  0.16998457157E+02 -0.54582243275E+00 -0.31742712308E+03  0.31788240583E+03  0.00000000000E+00 0.  1.
          3    1    3    3  501    0  0.21076677006E+02  0.21247942635E+01 -0.44683457178E+03  0.44733642329E+03  0.00000000000E+00 0.  1.
         -1    1    1    2    0  502 -0.38075134163E+02 -0.15789718308E+01 -0.23371654047E+03  0.23680293555E+03  0.00000000000E+00 0. -1.
<mgrwt>
<rscale>  1 0.30000000E+03</rscale>
<asrwt>0</asrwt>
<pdfrwt beam="1">  1       21 0.73518870E-02 0.30000000E+03</pdfrwt>
<pdfrwt beam="2">0</pdfrwt>
<totfact> 0.14812473E+04</totfact>
</mgrwt>
</event>
<event>
 6    1  0.6513574E-002  0.3000000E+03  0.7818608E-02  0.1093470E+00
         21   -1    0    0  501  502  0.00000000000E+00  0.00000000000E+00  0.11360152664E+01  0.11360152664E+01  0.00000000000E+00 0. -1.
         13   -1    0    0    0    0 -0.00000000000E+00 -0.00000000000E+00 -0.10000000000E+04  0.10000000000E+04  0.00000000000E+00 0.  1.
    9000005    2    1    2  501    0  0.20549212617E+02  0.24412322484E+02 -0.36053894799E+03  0.36201389535E+03  0.68917184427E+01 0.  0.
         13    1    3    3    0    0  0.11173290477E+02  0.90769917588E+01 -0.13735281025E+03  0.13810513634E+03  0.00000000000E+00 0.  1.
          3    1    3    3  501    0  0.93759221398E+01  0.15335330725E+02 -0.22318613774E+03  0.22390875901E+03  0.00000000000E+00 0.  1.
         -3    1    1    2    0  502 -0.20549212617E+02 -0.24412322484E+02 -0.63832503675E+03  0.63912211991E+03  0.00000000000E+00 0. -1.
<mgrwt>
<rscale>  1 0.30000000E+03</rscale>
<asrwt>0</asrwt>
<pdfrwt beam="1">  1       21 0.41309733E-02 0.30000000E+03</pdfrwt>
<pdfrwt beam="2">0</pdfrwt>
<totfact> 0.39824896E+04</totfact>
</mgrwt>
</event>
<event>
 6    1  0.6513574E-002  0.3000000E+03  0.7818608E-02  0.1093470E+00
         21   -1    0    0  501  502  0.00000000000E+00  0.00000000000E+00  0.21111036749E+01  0.21111036749E+01  0.00000000000E+00 0. -1.
         13   -1    0    0    0    0 -0.00000000000E+00 -0.00000000000E+00 -0.10000000000E+04  0.10000000000E+04  0.00000000000E+00 0.  1.
    9000005    2    1    2  501    0 -0.29635845035E+02  0.31774550110E+02 -0.33892198041E+03  0.34171326780E+03  0.34559001808E+01 0.  0.
         13    1    3    3    0    0 -0.82390097282E-01 -0.81932826634E-01 -0.15485306195E+01  0.15528838320E+01  0.00000000000E+00 0.  1.
          3    1    3    3  501    0 -0.29553454937E+02  0.31856482937E+02 -0.33737344979E+03  0.34016038397E+03  0.00000000000E+00 0.  1.
         -1    1    1    2    0  502  0.29635845035E+02 -0.31774550110E+02 -0.65896691592E+03  0.66039783587E+03  0.00000000000E+00 0. -1.
<mgrwt>
<rscale>  1 0.30000000E+03</rscale>
<asrwt>0</asrwt>
<pdfrwt beam="1">  1       21 0.76767568E-02 0.30000000E+03</pdfrwt>
<pdfrwt beam="2">0</pdfrwt>
<totfact> 0.13732505E+04</totfact>
</mgrwt>
</event>
<event>
 6    1  0.6513574E-002  0.3000000E+03  0.7818608E-02  0.1093470E+00
         21   -1    0    0  501  502  0.00000000000E+00  0.00000000000E+00  0.11647484629E+01  0.11647484629E+01  0.00000000000E+00 0. -1.
         13   -1    0    0    0    0 -0.00000000000E+00 -0.00000000000E+00 -0.10000000000E+04  0.10000000000E+04  0.00000000000E+00 0.  1.
    9000005    2    1    2  501    0  0.17186141905E+02  0.27301864520E+02 -0.62795516469E+03  0.62888421701E+03  0.11265623037E+02 0.  0.
         13    1    3    3    0    0  0.12772157232E+02  0.26566034743E+02 -0.56648331518E+03  0.56724970567E+03  0.00000000000E+00 0.  1.
          3    1    3    3  501    0  0.44139846737E+01  0.73582977738E+00 -0.61471849510E+02  0.61634511342E+02  0.00000000000E+00 0.  1.
         -1    1    1    2    0  502 -0.17186141905E+02 -0.27301864520E+02 -0.37088008684E+03  0.37228053145E+03  0.00000000000E+00 0. -1.
<mgrwt>
<rscale>  1 0.30000000E+03</rscale>
<asrwt>0</asrwt>
<pdfrwt beam="1">  1       21 0.42354579E-02 0.30000000E+03</pdfrwt>
<pdfrwt beam="2">0</pdfrwt>
<totfact> 0.38180430E+04</totfact>
</mgrwt>
</event>
<event>
 6    1  0.6513574E-002  0.3000000E+03  0.7818608E-02  0.1093470E+00
         21   -1    0    0  501  502  0.00000000000E+00  0.00000000000E+00  0.67483002498E+01  0.67483002498E+01  0.00000000000E+00 0. -1.
         13   -1    0    0    0    0 -0.00000000000E+00 -0.00000000000E+00 -0.10000000000E+04  0.10000000000E+04  0.00000000000E+00 0.  1.
    9000005    2    1    2  501    0 -0.71839362851E+02  0.35713081074E+02 -0.60314496165E+03  0.60847755650E+03  0.49773273613E+01 0.  0.
         13    1    3    3    0    0 -0.31474773278E+01  0.55121832813E+00 -0.21629699902E+02  0.21864454556E+02  0.00000000000E+00 0.  1.
          1    1    3    3  501    0 -0.68691885523E+02  0.35161862746E+02 -0.58151526175E+03  0.58661310194E+03  0.00000000000E+00 0.  1.
         -1    1    1    2    0  502  0.71839362851E+02 -0.35713081074E+02 -0.39010673810E+03  0.39827074375E+03  0.00000000000E+00 0. -1.
<mgrwt>
<rscale>  1 0.30000000E+03</rscale>
<asrwt>0</asrwt>
<pdfrwt beam="1">  1       21 0.24539325E-01 0.30000000E+03</pdfrwt>
<pdfrwt beam="2">0</pdfrwt>
<totfact> 0.16173333E+03</totfact>
</mgrwt>
</event>
<event>
 6    1  0.6513574E-002  0.3000000E+03  0.7818608E-02  0.1093470E+00
         21   -1    0    0  501  502  0.00000000000E+00  0.00000000000E+00  0.19291923215E+01  0.19291923215E+01  0.00000000000E+00 0. -1.
         13   -1    0    0    0    0 -0.00000000000E+00 -0.00000000000E+00 -0.10000000000E+04  0.10000000000E+04  0.00000000000E+00 0.  1.
    9000005    2    1    2  501    0  0.22390898929E+02 -0.36977608891E+02 -0.58421461648E+03  0.58582146239E+03  0.33722063225E+01 0.  0.
         13    1    3    3    0    0  0.17579909730E+02 -0.28663516682E+02 -0.47222989340E+03  0.47342551962E+03  0.00000000000E+00 0.  1.
          3    1    3    3  501    0  0.48109891997E+01 -0.83140922096E+01 -0.11198472308E+03  0.11239594277E+03  0.00000000000E+00 0.  1.
         -3    1    1    2    0  502 -0.22390898929E+02  0.36977608891E+02 -0.41385619120E+03  0.41610772993E+03  0.00000000000E+00 0. -1.
<mgrwt>
<rscale>  1 0.30000000E+03</rscale>
<asrwt>0</asrwt>
<pdfrwt beam="1">  1       21 0.70152596E-02 0.30000000E+03</pdfrwt>
<pdfrwt beam="2">0</pdfrwt>
<totfact> 0.16074249E+04</totfact>
</mgrwt>
</event>
<event>
 6    1  0.6513574E-002  0.3000000E+03  0.7818608E-02  0.1093470E+00
         21   -1    0    0  501  502  0.00000000000E+00  0.00000000000E+00  0.23756842464E+01  0.23756842464E+01  0.00000000000E+00 0. -1.
         13   -1    0    0    0    0 -0.00000000000E+00 -0.00000000000E+00 -0.10000000000E+04  0.10000000000E+04  0.00000000000E+00 0.  1.
    9000005    2    1    2  501    0 -0.41343810047E+02 -0.61270344345E+01 -0.24253558610E+03  0.24613112008E+03  0.31885054739E+01 0.  0.
         13    1    3    3    0    0 -0.22268551298E+02 -0.22367046282E+01 -0.12267664480E+03  0.12470144507E+03  0.00000000000E+00 0.  1.
          1    1    3    3  501    0 -0.19075258749E+02 -0.38903298063E+01 -0.11985894130E+03  0.12142967501E+03  0.00000000000E+00 0.  1.
         -3    1    1    2    0  502  0.41343810047E+02  0.61270344345E+01 -0.75508872965E+03  0.75624456417E+03  0.00000000000E+00 0. -1.
<mgrwt>
<rscale>  1 0.30000000E+03</rscale>
<asrwt>0</asrwt>
<pdfrwt beam="1">  1       21 0.86388700E-02 0.30000000E+03</pdfrwt>
<pdfrwt beam="2">0</pdfrwt>
<totfact> 0.11157617E+04</totfact>
</mgrwt>
</event>
<event>
 6    1  0.6513574E-002  0.3000000E+03  0.7818608E-02  0.1093470E+00
         21   -1    0    0  501  502  0.00000000000E+00  0.00000000000E+00  0.14506086339E+01  0.14506086339E+01  0.00000000000E+00 0. -1.
         13   -1    0    0    0    0 -0.00000000000E+00 -0.00000000000E+00 -0.10000000000E+04  0.10000000000E+04  0.00000000000E+00 0.  1.
    9000005    2    1    2  501    0  0.34123519866E+02 -0.13434784241E+02 -0.63144997818E+03  0.63252393950E+03  0.35427479694E+01 0.  0.
         13    1    3    3    0    0  0.12693036279E+02 -0.44295336986E+01 -0.25995602436E+03  0.26030341630E+03  0.00000000000E+00 0.  1.
          1    1    3    3  501    0  0.21430483586E+02 -0.90052505422E+01 -0.37149395382E+03  0.37222052320E+03  0.00000000000E+00 0.  1.
         -1    1    1    2    0  502 -0.34123519866E+02  0.13434784241E+02 -0.36709941319E+03  0.36892666913E+03  0.00000000000E+00 0. -1.
<mgrwt>
<rscale>  1 0.30000000E+03</rscale>
<asrwt>0</asrwt>
<pdfrwt beam="1">  1       21 0.52749516E-02 0.30000000E+03</pdfrwt>
<pdfrwt beam="2">0</pdfrwt>
<totfact> 0.26288974E+04</totfact>
</mgrwt>
</event>
<event>
 6    1  0.6513574E-002  0.3000000E+03  0.7818608E-02  0.1093470E+00
         21   -1    0    0  501  502  0.00000000000E+00  0.00000000000E+00  0.61943357277E+01  0.61943357277E+01  0.00000000000E+00 0. -1.
         13   -1    0    0    0    0 -0.00000000000E+00 -0.00000000000E+00 -0.10000000000E+04  0.10000000000E+04  0.00000000000E+00 0.  1.
    9000005    2    1    2  501    0 -0.34931559356E+02 -0.33076875936E+02 -0.99255965325E+02  0.11035201844E+03  0.33952555014E+01 0.  0.
         13    1    3    3    0    0 -0.28350438771E+02 -0.24987371555E+02 -0.78605869362E+02  0.87218110585E+02  0.00000000000E+00 0.  1.
          3    1    3    3  501    0 -0.65811205856E+01 -0.80895043809E+01 -0.20650095963E+02  0.23133907853E+02  0.00000000000E+00 0.  1.
         -3    1    1    2    0  502  0.34931559356E+02  0.33076875936E+02 -0.89454969895E+03  0.89584231729E+03  0.00000000000E+00 0. -1.
<mgrwt>
<rscale>  1 0.30000000E+03</rscale>
<asrwt>0</asrwt>
<pdfrwt beam="1">  1       21 0.22524905E-01 0.30000000E+03</pdfrwt>
<pdfrwt beam="2">0</pdfrwt>
<totfact> 0.19097802E+03</totfact>
</mgrwt>
</event>
<event>
 6    1  0.6513574E-002  0.3000000E+03  0.7818608E-02  0.1093470E+00
         21   -1    0    0  501  502  0.00000000000E+00  0.00000000000E+00  0.11553665390E+01  0.11553665390E+01  0.00000000000E+00 0. -1.
         13   -1    0    0    0    0 -0.00000000000E+00 -0.00000000000E+00 -0.10000000000E+04  0.10000000000E+04  0.00000000000E+00 0.  1.
    9000005    2    1    2  501    0 -0.33166797645E+02  0.66015144658E+01 -0.53737994824E+03  0.53845322459E+03  0.33241300052E+01 0.  0.
         13    1    3    3    0    0 -0.28279856352E+02  0.59110295528E+01 -0.43910189155E+03  0.44005131713E+03  0.00000000000E+00 0.  1.
          1    1    3    3  501    0 -0.48869412935E+01  0.69048491298E+00 -0.98278056692E+02  0.98401907460E+02  0.00000000000E+00 0.  1.
         -3    1    1    2    0  502  0.33166797645E+02 -0.66015144658E+01 -0.46146468522E+03  0.46270214195E+03  0.00000000000E+00 0. -1.
<mgrwt>
<rscale>  1 0.30000000E+03</rscale>
<asrwt>0</asrwt>
<pdfrwt beam="1">  1       21 0.42013417E-02 0.30000000E+03</pdfrwt>
<pdfrwt beam="2">0</pdfrwt>
<totfact> 0.38705576E+04</totfact>
</mgrwt>
</event>
<event>
 6    1  0.6513574E-002  0.3000000E+03  0.7818608E-02  0.1093470E+00
         21   -1    0    0  501  502  0.00000000000E+00  0.00000000000E+00  0.21849929405E+01  0.21849929405E+01  0.00000000000E+00 0. -1.
         13   -1    0    0    0    0 -0.00000000000E+00 -0.00000000000E+00 -0.10000000000E+04  0.10000000000E+04  0.00000000000E+00 0.  1.
    9000005    2    1    2  501    0 -0.46510286867E+02  0.28669729093E+00 -0.46607424002E+03  0.46841394435E+03  0.48101011570E+01 0.  0.
         13    1    3    3    0    0 -0.35788758055E+02  0.20616109147E+01 -0.34886139227E+03  0.35069838389E+03  0.00000000000E+00 0.  1.
          1    1    3    3  501    0 -0.10721528813E+02 -0.17749136238E+01 -0.11721284774E+03  0.11771556046E+03  0.00000000000E+00 0.  1.
         -1    1    1    2    0  502  0.46510286867E+02 -0.28669729093E+00 -0.53174076704E+03  0.53377104859E+03  0.00000000000E+00 0. -1.
<mgrwt>
<rscale>  1 0.30000000E+03</rscale>
<asrwt>0</asrwt>
<pdfrwt beam="1">  1       21 0.79454456E-02 0.30000000E+03</pdfrwt>
<pdfrwt beam="2">0</pdfrwt>
<totfact> 0.12928292E+04</totfact>
</mgrwt>
</event>
<event>
 6    1  0.6513574E-002  0.3000000E+03  0.7818608E-02  0.1093470E+00
         21   -1    0    0  501  502  0.00000000000E+00  0.00000000000E+00  0.14588604449E+01  0.14588604449E+01  0.00000000000E+00 0. -1.
         13   -1    0    0    0    0 -0.00000000000E+00 -0.00000000000E+00 -0.10000000000E+04  0.10000000000E+04  0.00000000000E+00 0.  1.
    9000005    2    1    2  501    0  0.33050896963E+02 -0.56628156870E+01 -0.73750923256E+03  0.73828195085E+03  0.39926903240E+01 0.  0.
         13    1    3    3    0    0  0.11816596893E+02 -0.31940018135E+01 -0.30304316175E+03  0.30329027596E+03  0.00000000000E+00 0.  1.
          1    1    3    3  501    0  0.21234300070E+02 -0.24688138736E+01 -0.43446607081E+03  0.43499167489E+03  0.00000000000E+00 0.  1.
         -1    1    1    2    0  502 -0.33050896963E+02  0.56628156870E+01 -0.26103190700E+03  0.26317690959E+03  0.00000000000E+00 0. -1.
<mgrwt>
<rscale>  1 0.30000000E+03</rscale>
<asrwt>0</asrwt>
<pdfrwt beam="1">  1       21 0.53049583E-02 0.30000000E+03</pdfrwt>
<pdfrwt beam="2">0</pdfrwt>
<totfact> 0.26035192E+04</totfact>
</mgrwt>
</event>
<event>
 6    1  0.6513574E-002  0.3000000E+03  0.7818608E-02  0.1093470E+00
         21   -1    0    0  501  502  0.00000000000E+00  0.00000000000E+00  0.19019424175E+01  0.19019424175E+01  0.00000000000E+00 0. -1.
         13   -1    0    0    0    0 -0.00000000000E+00 -0.00000000000E+00 -0.10000000000E+04  0.10000000000E+04  0.00000000000E+00 0.  1.
    9000005    2    1    2  501    0 -0.27561339867E+02 -0.15893654721E+02 -0.84149499702E+03  0.84209970747E+03  0.24190083095E+01 0.  0.
         13    1    3    3    0    0 -0.12768469898E+01 -0.67763176468E+00 -0.27002245653E+02  0.27040909625E+02  0.00000000000E+00 0.  1.
          3    1    3    3  501    0 -0.26284492877E+02 -0.15216022956E+02 -0.81449275137E+03  0.81505879785E+03  0.00000000000E+00 0.  1.
         -3    1    1    2    0  502  0.27561339867E+02  0.15893654721E+02 -0.15660306056E+03  0.15980223495E+03  0.00000000000E+00 0. -1.
<mgrwt>
<rscale>  1 0.30000000E+03</rscale>
<asrwt>0</asrwt>
<pdfrwt beam="1">  1       21 0.69161688E-02 0.30000000E+03</pdfrwt>
<pdfrwt beam="2">0</pdfrwt>
<totfact> 0.16477015E+04</totfact>
</mgrwt>
</event>
<event>
 6    1  0.6513574E-002  0.3000000E+03  0.7818608E-02  0.1093470E+00
         21   -1    0    0  501  502  0.00000000000E+00  0.00000000000E+00  0.16323592189E+01  0.16323592189E+01  0.00000000000E+00 0. -1.
         13   -1    0    0    0    0 -0.00000000000E+00 -0.00000000000E+00 -0.10000000000E+04  0.10000000000E+04  0.00000000000E+00 0.  1.
    9000005    2    1    2  501    0  0.39392284947E+02 -0.27541024981E+01 -0.59783793512E+03  0.59916076729E+03  0.49082782474E+01 0.  0.
         13    1    3    3    0    0  0.98674423173E+01  0.12153319292E+01 -0.13580859392E+03  0.13617201487E+03  0.00000000000E+00 0.  1.
          3    1    3    3  501    0  0.29524842630E+02 -0.39694344273E+01 -0.46202934120E+03  0.46298875242E+03  0.00000000000E+00 0.  1.
         -3    1    1    2    0  502 -0.39392284947E+02  0.27541024981E+01 -0.40052970566E+03  0.40247159193E+03  0.00000000000E+00 0. -1.
<mgrwt>
<rscale>  1 0.30000000E+03</rscale>
<asrwt>0</asrwt>
<pdfrwt beam="1">  1       21 0.59358642E-02 0.30000000E+03</pdfrwt>
<pdfrwt beam="2">0</pdfrwt>
<totfact> 0.21465776E+04</totfact>
</mgrwt>
</event>
<event>
 6    1  0.6513574E-002  0.3000000E+03  0.7818608E-02  0.1093470E+00
         21   -1    0    0  501  502  0.00000000000E+00  0.00000000000E+00  0.17222826863E+01  0.17222826863E+01  0.00000000000E+00 0. -1.
         13   -1    0    0    0    0 -0.00000000000E+00 -0.00000000000E+00 -0.10000000000E+04  0.10000000000E+04  0.00000000000E+00 0.  1.
    9000005    2    1    2  501    0  0.41314469298E+02 -0.26751527552E+01 -0.49017172664E+03  0.49193238521E+03  0.38869268450E+01 0.  0.
         13    1    3    3    0    0  0.25477497701E+02 -0.20880231332E+01 -0.32385581372E+03  0.32486312627E+03  0.00000000000E+00 0.  1.
          1    1    3    3  501    0  0.15836971597E+02 -0.58712962192E+00 -0.16631591292E+03  0.16706925894E+03  0.00000000000E+00 0.  1.
         -1    1    1    2    0  502 -0.41314469298E+02  0.26751527552E+01 -0.50810599067E+03  0.50978989748E+03  0.00000000000E+00 0. -1.
<mgrwt>
<rscale>  1 0.30000000E+03</rscale>
<asrwt>0</asrwt>
<pdfrwt beam="1">  1       21 0.62628593E-02 0.30000000E+03</pdfrwt>
<pdfrwt beam="2">0</pdfrwt>
<totfact> 0.19568349E+04</totfact>
</mgrwt>
</event>
<event>
 6    1  0.6513574E-002  0.3000000E+03  0.7818608E-02  0.1093470E+00
         21   -1    0    0  501  502  0.00000000000E+00  0.00000000000E+00  0.32741934235E+01  0.32741934235E+01  0.00000000000E+00 0. -1.
         13   -1    0    0    0    0 -0.00000000000E+00 -0.00000000000E+00 -0.10000000000E+04  0.10000000000E+04  0.00000000000E+00 0.  1.
    9000005    2    1    2  501    0 -0.83330390056E+00 -0.45248649057E+02 -0.80387134671E+03  0.80518083834E+03  0.76750072018E+01 0.  0.
         13    1    3    3    0    0 -0.15123681957E+00 -0.16604960217E+02 -0.36283635949E+03  0.36321614962E+03  0.00000000000E+00 0.  1.
          1    1    3    3  501    0 -0.68206708099E+00 -0.28643688841E+02 -0.44103498722E+03  0.44196468872E+03  0.00000000000E+00 0.  1.
         -1    1    1    2    0  502  0.83330390056E+00  0.45248649057E+02 -0.19285445987E+03  0.19809335508E+03  0.00000000000E+00 0. -1.
<mgrwt>
<rscale>  1 0.30000000E+03</rscale>
<asrwt>0</asrwt>
<pdfrwt beam="1">  1       21 0.11906183E-01 0.30000000E+03</pdfrwt>
<pdfrwt beam="2">0</pdfrwt>
<totfact> 0.62859889E+03</totfact>
</mgrwt>
</event>
<event>
 6    1  0.6513574E-002  0.3000000E+03  0.7818608E-02  0.1093470E+00
         21   -1    0    0  501  502  0.00000000000E+00  0.00000000000E+00  0.24671859706E+01  0.24671859706E+01  0.00000000000E+00 0. -1.
         13   -1    0    0    0    0 -0.00000000000E+00 -0.00000000000E+00 -0.10000000000E+04  0.10000000000E+04  0.00000000000E+00 0.  1.
    9000005    2    1    2  501    0  0.31155978221E+01 -0.49453256150E+02 -0.47460857161E+03  0.47720049675E+03  0.34185319006E+01 0.  0.
         13    1    3    3    0    0  0.16259797822E+01 -0.70955516324E+01 -0.67042154412E+02  0.67436200452E+02  0.00000000000E+00 0.  1.
          3    1    3    3  501    0  0.14896180399E+01 -0.42357704517E+02 -0.40756641720E+03  0.40976429630E+03  0.00000000000E+00 0.  1.
         -1    1    1    2    0  502 -0.31155978221E+01  0.49453256150E+02 -0.52292424242E+03  0.52526668922E+03  0.00000000000E+00 0. -1.
<mgrwt>
<rscale>  1 0.30000000E+03</rscale>
<asrwt>0</asrwt>
<pdfrwt beam="1">  1       21 0.89716043E-02 0.30000000E+03</pdfrwt>
<pdfrwt beam="2">0</pdfrwt>
<totfact> 0.10436347E+04</totfact>
</mgrwt>
</event>
<event>
 6    1  0.6513574E-002  0.3000000E+03  0.7818608E-02  0.1093470E+00
         21   -1    0    0  501  502  0.00000000000E+00  0.00000000000E+00  0.12993416324E+01  0.12993416324E+01  0.00000000000E+00 0. -1.
         13   -1    0    0    0    0 -0.00000000000E+00 -0.00000000000E+00 -0.10000000000E+04  0.10000000000E+04  0.00000000000E+00 0.  1.
    9000005    2    1    2  501    0  0.11704060946E+02 -0.29971866832E+02 -0.28229639693E+03  0.28417287883E+03  0.52603706645E+01 0.  0.
         13    1    3    3    0    0  0.36168544200E+01 -0.82774183820E+01 -0.60377737730E+02  0.61049721575E+02  0.00000000000E+00 0.  1.
          1    1    3    3  501    0  0.80872065258E+01 -0.21694448450E+02 -0.22191865920E+03  0.22312315726E+03  0.00000000000E+00 0.  1.
         -3    1    1    2    0  502 -0.11704060946E+02  0.29971866832E+02 -0.71640426144E+03  0.71712646280E+03  0.00000000000E+00 0. -1.
<mgrwt>
<rscale>  1 0.30000000E+03</rscale>
<asrwt>0</asrwt>
<pdfrwt beam="1">  1       21 0.47248886E-02 0.30000000E+03</pdfrwt>
<pdfrwt beam="2">0</pdfrwt>
<totfact> 0.31718202E+04</totfact>
</mgrwt>
</event>
<event>
 6    1  0.6513574E-002  0.3000000E+03  0.7818608E-02  0.1093470E+00
         21   -1    0    0  501  502  0.00000000000E+00  0.00000000000E+00  0.11087486325E+01  0.11087486325E+01  0.00000000000E+00 0. -1.
         13   -1    0    0    0    0 -0.00000000000E+00 -0.00000000000E+00 -0.10000000000E+04  0.10000000000E+04  0.00000000000E+00 0.  1.
    9000005    2    1    2  501    0  0.10447926914E+02  0.28508800987E+02 -0.29805714917E+03  0.29961723072E+03  0.32418911299E+01 0.  0.
         13    1    3    3    0    0  0.16852754299E+01  0.35250685706E+01 -0.29359792415E+02  0.29618637247E+02  0.00000000000E+00 0.  1.
          1    1    3    3  501    0  0.87626514840E+01  0.24983732416E+02 -0.26869735676E+03  0.26999859347E+03  0.00000000000E+00 0.  1.
         -1    1    1    2    0  502 -0.10447926914E+02 -0.28508800987E+02 -0.70083410219E+03  0.70149151792E+03  0.00000000000E+00 0. -1.
<mgrwt>
<rscale>  1 0.30000000E+03</rscale>
<asrwt>0</asrwt>
<pdfrwt beam="1">  1       21 0.40318217E-02 0.30000000E+03</pdfrwt>
<pdfrwt beam="2">0</pdfrwt>
<totfact> 0.41489851E+04</totfact>
</mgrwt>
</event>
<event>
 6    1  0.6513574E-002  0.3000000E+03  0.7818608E-02  0.1093470E+00
         21   -1    0    0  501  502  0.00000000000E+00  0.00000000000E+00  0.37742074761E+01  0.37742074761E+01  0.00000000000E+00 0. -1.
         13   -1    0    0    0    0 -0.00000000000E+00 -0.00000000000E+00 -0.10000000000E+04  0.10000000000E+04  0.00000000000E+00 0.  1.
    9000005    2    1    2  501    0 -0.29903499655E+02 -0.53168190068E+02 -0.44275833900E+03  0.44695529810E+03  0.36077722272E+01 0.  0.
         13    1    3    3    0    0 -0.18707253858E+02 -0.29793577390E+02 -0.25886157215E+03  0.26124113791E+03  0.00000000000E+00 0.  1.
          3    1    3    3  501    0 -0.11196245797E+02 -0.23374612678E+02 -0.18389676685E+03  0.18571416020E+03  0.00000000000E+00 0.  1.
         -1    1    1    2    0  502  0.29903499655E+02  0.53168190068E+02 -0.55346745352E+03  0.55681890937E+03  0.00000000000E+00 0. -1.
<mgrwt>
<rscale>  1 0.30000000E+03</rscale>
<asrwt>0</asrwt>
<pdfrwt beam="1">  1       21 0.13724420E-01 0.30000000E+03</pdfrwt>
<pdfrwt beam="2">0</pdfrwt>
<totfact> 0.48505006E+03</totfact>
</mgrwt>
</event>
<event>
 6    1  0.6513574E-002  0.3000000E+03  0.7818608E-02  0.1093470E+00
         21   -1    0    0  501  502  0.00000000000E+00  0.00000000000E+00  0.15310137984E+01  0.15310137984E+01  0.00000000000E+00 0. -1.
         13   -1    0    0    0    0 -0.00000000000E+00 -0.00000000000E+00 -0.10000000000E+04  0.10000000000E+04  0.00000000000E+00 0.  1.
    9000005    2    1    2  501    0  0.31681006865E+02  0.15963481016E+02 -0.29098459792E+03  0.29315775161E+03  0.33033588634E+01 0.  0.
         13    1    3    3    0    0  0.28521878969E+02  0.13867152584E+02 -0.25155031400E+03  0.25354162572E+03  0.00000000000E+00 0.  1.
          1    1    3    3  501    0  0.31591278966E+01  0.20963284326E+01 -0.39434283925E+02  0.39616125892E+02  0.00000000000E+00 0.  1.
         -3    1    1    2    0  502 -0.31681006865E+02 -0.15963481016E+02 -0.70748438828E+03  0.70837326219E+03  0.00000000000E+00 0. -1.
<mgrwt>
<rscale>  1 0.30000000E+03</rscale>
<asrwt>0</asrwt>
<pdfrwt beam="1">  1       21 0.55673346E-02 0.30000000E+03</pdfrwt>
<pdfrwt beam="2">0</pdfrwt>
<totfact> 0.23968565E+04</totfact>
</mgrwt>
</event>
<event>
 6    1  0.6513574E-002  0.3000000E+03  0.7818608E-02  0.1093470E+00
         21   -1    0    0  501  502  0.00000000000E+00  0.00000000000E+00  0.29131476390E+01  0.29131476390E+01  0.00000000000E+00 0. -1.
         13   -1    0    0    0    0 -0.00000000000E+00 -0.00000000000E+00 -0.10000000000E+04  0.10000000000E+04  0.00000000000E+00 0.  1.
    9000005    2    1    2  501    0 -0.48104606909E+02 -0.21902877192E+02 -0.40159545498E+03  0.40508056774E+03  0.41913797337E+01 0.  0.
         13    1    3    3    0    0 -0.31525725898E+01 -0.10523979418E+01 -0.18845736303E+02  0.19136562705E+02  0.00000000000E+00 0.  1.
          1    1    3    3  501    0 -0.44952034319E+02 -0.20850479250E+02 -0.38274971867E+03  0.38594400503E+03  0.00000000000E+00 0.  1.
         -3    1    1    2    0  502  0.48104606909E+02  0.21902877192E+02 -0.59549139738E+03  0.59783257990E+03  0.00000000000E+00 0. -1.
<mgrwt>
<rscale>  1 0.30000000E+03</rscale>
<asrwt>0</asrwt>
<pdfrwt beam="1">  1       21 0.10593286E-01 0.30000000E+03</pdfrwt>
<pdfrwt beam="2">0</pdfrwt>
<totfact> 0.77598118E+03</totfact>
</mgrwt>
</event>
<event>
 6    1  0.6513574E-002  0.3000000E+03  0.7818608E-02  0.1093470E+00
         21   -1    0    0  501  502  0.00000000000E+00  0.00000000000E+00  0.40301618954E+01  0.40301618954E+01  0.00000000000E+00 0. -1.
         13   -1    0    0    0    0 -0.00000000000E+00 -0.00000000000E+00 -0.10000000000E+04  0.10000000000E+04  0.00000000000E+00 0.  1.
    9000005    2    1    2  501    0  0.46803086356E+02 -0.41898439419E+02 -0.42804655076E+03  0.43264336784E+03  0.32289310798E+01 0.  0.
         13    1    3    3    0    0  0.36852869441E+02 -0.32989861201E+02 -0.34580882853E+03  0.34932822791E+03  0.00000000000E+00 0.  1.
          1    1    3    3  501    0  0.99502169145E+01 -0.89085782185E+01 -0.82237722235E+02  0.83315139926E+02  0.00000000000E+00 0.  1.
         -3    1    1    2    0  502 -0.46803086356E+02  0.41898439419E+02 -0.56792328734E+03  0.57138679406E+03  0.00000000000E+00 0. -1.
<mgrwt>
<rscale>  1 0.30000000E+03</rscale>
<asrwt>0</asrwt>
<pdfrwt beam="1">  1       21 0.14655165E-01 0.30000000E+03</pdfrwt>
<pdfrwt beam="2">0</pdfrwt>
<totfact> 0.42989243E+03</totfact>
</mgrwt>
</event>
<event>
 6    1  0.6513574E-002  0.3000000E+03  0.7818608E-02  0.1093470E+00
         21   -1    0    0  501  502  0.00000000000E+00  0.00000000000E+00  0.10077000007E+01  0.10077000007E+01  0.00000000000E+00 0. -1.
         13   -1    0    0    0    0 -0.00000000000E+00 -0.00000000000E+00 -0.10000000000E+04  0.10000000000E+04  0.00000000000E+00 0.  1.
    9000005    2    1    2  501    0  0.13120136440E+02 -0.28169429310E+02 -0.58996089966E+03  0.59079758165E+03  0.47185417658E+01 0.  0.
         13    1    3    3    0    0  0.34012699885E+01 -0.10101539261E+02 -0.16746922735E+03  0.16780808039E+03  0.00000000000E+00 0.  1.
          1    1    3    3  501    0  0.97188664515E+01 -0.18067890049E+02 -0.42249167230E+03  0.42298950126E+03  0.00000000000E+00 0.  1.
         -1    1    1    2    0  502 -0.13120136440E+02  0.28169429310E+02 -0.40903140034E+03  0.41021011835E+03  0.00000000000E+00 0. -1.
<mgrwt>
<rscale>  1 0.30000000E+03</rscale>
<asrwt>0</asrwt>
<pdfrwt beam="1">  1       21 0.36643714E-02 0.30000000E+03</pdfrwt>
<pdfrwt beam="2">0</pdfrwt>
<totfact> 0.48720173E+04</totfact>
</mgrwt>
</event>
<event>
 6    1  0.6513574E-002  0.3000000E+03  0.7818608E-02  0.1093470E+00
         21   -1    0    0  501  502  0.00000000000E+00  0.00000000000E+00  0.99987167963E+00  0.99987167963E+00  0.00000000000E+00 0. -1.
         13   -1    0    0    0    0 -0.00000000000E+00 -0.00000000000E+00 -0.10000000000E+04  0.10000000000E+04  0.00000000000E+00 0.  1.
    9000005    2    1    2  501    0  0.29658072337E+02  0.10762301010E+02 -0.51499654797E+03  0.51596905393E+03  0.26817553165E+01 0.  0.
         13    1    3    3    0    0  0.10438361948E+02  0.26363615097E+01 -0.16459999284E+03  0.16495171247E+03  0.00000000000E+00 0.  1.
          1    1    3    3  501    0  0.19219710389E+02  0.81259394999E+01 -0.35039655513E+03  0.35101734146E+03  0.00000000000E+00 0.  1.
         -1    1    1    2    0  502 -0.29658072337E+02 -0.10762301010E+02 -0.48400358035E+03  0.48503081775E+03  0.00000000000E+00 0. -1.
<mgrwt>
<rscale>  1 0.30000000E+03</rscale>
<asrwt>0</asrwt>
<pdfrwt beam="1">  1       21 0.36359047E-02 0.30000000E+03</pdfrwt>
<pdfrwt beam="2">0</pdfrwt>
<totfact> 0.49361816E+04</totfact>
</mgrwt>
</event>
<event>
 6    1  0.6513574E-002  0.3000000E+03  0.7818608E-02  0.1093470E+00
         21   -1    0    0  501  502  0.00000000000E+00  0.00000000000E+00  0.15327964855E+01  0.15327964855E+01  0.00000000000E+00 0. -1.
         13   -1    0    0    0    0 -0.00000000000E+00 -0.00000000000E+00 -0.10000000000E+04  0.10000000000E+04  0.00000000000E+00 0.  1.
    9000005    2    1    2  501    0  0.38100067067E+02  0.49244068111E+01 -0.59104851420E+03  0.59230687686E+03  0.36366662342E+01 0.  0.
         13    1    3    3    0    0  0.37501940318E+01  0.15843742495E+01 -0.65566435952E+02  0.65692706752E+02  0.00000000000E+00 0.  1.
          1    1    3    3  501    0  0.34349873035E+02  0.33400325616E+01 -0.52548207825E+03  0.52661417011E+03  0.00000000000E+00 0.  1.
         -3    1    1    2    0  502 -0.38100067067E+02 -0.49244068111E+01 -0.40741868931E+03  0.40922591962E+03  0.00000000000E+00 0. -1.
<mgrwt>
<rscale>  1 0.30000000E+03</rscale>
<asrwt>0</asrwt>
<pdfrwt beam="1">  1       21 0.55738172E-02 0.30000000E+03</pdfrwt>
<pdfrwt beam="2">0</pdfrwt>
<totfact> 0.23920740E+04</totfact>
</mgrwt>
</event>
<event>
 6    1  0.6513574E-002  0.3000000E+03  0.7818608E-02  0.1093470E+00
         21   -1    0    0  501  502  0.00000000000E+00  0.00000000000E+00  0.10285396297E+01  0.10285396297E+01  0.00000000000E+00 0. -1.
         13   -1    0    0    0    0 -0.00000000000E+00 -0.00000000000E+00 -0.10000000000E+04  0.10000000000E+04  0.00000000000E+00 0.  1.
    9000005    2    1    2  501    0 -0.15594839661E+01 -0.31963980504E+02 -0.50599528548E+03  0.50701473714E+03  0.29303088873E+01 0.  0.
         13    1    3    3    0    0 -0.13447043305E+01 -0.52408237642E+01 -0.83521245541E+02  0.83696313659E+02  0.00000000000E+00 0.  1.
          3    1    3    3  501    0 -0.21477963567E+00 -0.26723156740E+02 -0.42247403994E+03  0.42331842348E+03  0.00000000000E+00 0.  1.
         -3    1    1    2    0  502  0.15594839661E+01  0.31963980504E+02 -0.49297617489E+03  0.49401380249E+03  0.00000000000E+00 0. -1.
<mgrwt>
<rscale>  1 0.30000000E+03</rscale>
<asrwt>0</asrwt>
<pdfrwt beam="1">  1       21 0.37401520E-02 0.30000000E+03</pdfrwt>
<pdfrwt beam="2">0</pdfrwt>
<totfact> 0.47074678E+04</totfact>
</mgrwt>
</event>
<event>
 6    1  0.6513574E-002  0.3000000E+03  0.7818608E-02  0.1093470E+00
         21   -1    0    0  501  502  0.00000000000E+00  0.00000000000E+00  0.11456793048E+01  0.11456793048E+01  0.00000000000E+00 0. -1.
         13   -1    0    0    0    0 -0.00000000000E+00 -0.00000000000E+00 -0.10000000000E+04  0.10000000000E+04  0.00000000000E+00 0.  1.
    9000005    2    1    2  501    0 -0.33422707439E+02 -0.15630693202E+01 -0.43517783063E+03  0.43647701008E+03  0.35938132141E+01 0.  0.
         13    1    3    3    0    0 -0.17179691147E+02  0.96873921814E+00 -0.22651716774E+03  0.22716977687E+03  0.00000000000E+00 0.  1.
          1    1    3    3  501    0 -0.16243016292E+02 -0.25318085383E+01 -0.20866066289E+03  0.20930723320E+03  0.00000000000E+00 0.  1.
         -3    1    1    2    0  502  0.33422707439E+02  0.15630693202E+01 -0.56367649006E+03  0.56466866923E+03  0.00000000000E+00 0. -1.
<mgrwt>
<rscale>  1 0.30000000E+03</rscale>
<asrwt>0</asrwt>
<pdfrwt beam="1">  1       21 0.41661153E-02 0.30000000E+03</pdfrwt>
<pdfrwt beam="2">0</pdfrwt>
<totfact> 0.39259696E+04</totfact>
</mgrwt>
</event>
<event>
 6    1  0.6513574E-002  0.3000000E+03  0.7818608E-02  0.1093470E+00
         21   -1    0    0  501  502  0.00000000000E+00  0.00000000000E+00  0.22106716283E+01  0.22106716283E+01  0.00000000000E+00 0. -1.
         13   -1    0    0    0    0 -0.00000000000E+00 -0.00000000000E+00 -0.10000000000E+04  0.10000000000E+04  0.00000000000E+00 0.  1.
    9000005    2    1    2  501    0  0.35375102431E+02 -0.18352496179E+02 -0.23515975737E+03  0.23854053698E+03  0.36420198066E+01 0.  0.
         13    1    3    3    0    0  0.22511146712E+02 -0.12592169755E+02 -0.16102691202E+03  0.16307967642E+03  0.00000000000E+00 0.  1.
          3    1    3    3  501    0  0.12863955719E+02 -0.57603264235E+01 -0.74132845345E+02  0.75460860558E+02  0.00000000000E+00 0.  1.
         -3    1    1    2    0  502 -0.35375102431E+02  0.18352496179E+02 -0.76262957101E+03  0.76367013465E+03  0.00000000000E+00 0. -1.
<mgrwt>
<rscale>  1 0.30000000E+03</rscale>
<asrwt>0</asrwt>
<pdfrwt beam="1">  1       21 0.80388229E-02 0.30000000E+03</pdfrwt>
<pdfrwt beam="2">0</pdfrwt>
<totfact> 0.12665695E+04</totfact>
</mgrwt>
</event>
<event>
 6    1  0.6513574E-002  0.3000000E+03  0.7818608E-02  0.1093470E+00
         21   -1    0    0  501  502  0.00000000000E+00  0.00000000000E+00  0.15720144370E+01  0.15720144370E+01  0.00000000000E+00 0. -1.
         13   -1    0    0    0    0 -0.00000000000E+00 -0.00000000000E+00 -0.10000000000E+04  0.10000000000E+04  0.00000000000E+00 0.  1.
    9000005    2    1    2  501    0 -0.30251257076E+02  0.16872513291E+02 -0.25812342860E+03  0.26045754465E+03  0.32569796195E+01 0.  0.
         13    1    3    3    0    0 -0.14556929224E+02  0.98106733668E+01 -0.13546588854E+03  0.13659853754E+03  0.00000000000E+00 0.  1.
          3    1    3    3  501    0 -0.15694327852E+02  0.70618399240E+01 -0.12265754005E+03  0.12385900711E+03  0.00000000000E+00 0.  1.
         -1    1    1    2    0  502  0.30251257076E+02 -0.16872513291E+02 -0.74030455697E+03  0.74111446978E+03  0.00000000000E+00 0. -1.
<mgrwt>
<rscale>  1 0.30000000E+03</rscale>
<asrwt>0</asrwt>
<pdfrwt beam="1">  1       21 0.57164282E-02 0.30000000E+03</pdfrwt>
<pdfrwt beam="2">0</pdfrwt>
<totfact> 0.22904615E+04</totfact>
</mgrwt>
</event>
<event>
 6    1  0.6513574E-002  0.3000000E+03  0.7818608E-02  0.1093470E+00
         21   -1    0    0  501  502  0.00000000000E+00  0.00000000000E+00  0.22053149128E+01  0.22053149128E+01  0.00000000000E+00 0. -1.
         13   -1    0    0    0    0 -0.00000000000E+00 -0.00000000000E+00 -0.10000000000E+04  0.10000000000E+04  0.00000000000E+00 0.  1.
    9000005    2    1    2  501    0  0.36786470720E+02 -0.22572250570E+02 -0.69552273104E+03  0.69686765735E+03  0.31482598521E+01 0.  0.
         13    1    3    3    0    0  0.11312690965E+02 -0.72644359633E+01 -0.19423979267E+03  0.19470450961E+03  0.00000000000E+00 0.  1.
          1    1    3    3  501    0  0.25473779756E+02 -0.15307814607E+02 -0.50128293838E+03  0.50216314774E+03  0.00000000000E+00 0.  1.
         -3    1    1    2    0  502 -0.36786470720E+02  0.22572250570E+02 -0.30227195404E+03  0.30533765756E+03  0.00000000000E+00 0. -1.
<mgrwt>
<rscale>  1 0.30000000E+03</rscale>
<asrwt>0</asrwt>
<pdfrwt beam="1">  1       21 0.80193439E-02 0.30000000E+03</pdfrwt>
<pdfrwt beam="2">0</pdfrwt>
<totfact> 0.12719793E+04</totfact>
</mgrwt>
</event>
<event>
 6    1  0.6513574E-002  0.3000000E+03  0.7818608E-02  0.1093470E+00
         21   -1    0    0  501  502  0.00000000000E+00  0.00000000000E+00  0.19133627097E+01  0.19133627097E+01  0.00000000000E+00 0. -1.
         13   -1    0    0    0    0 -0.00000000000E+00 -0.00000000000E+00 -0.10000000000E+04  0.10000000000E+04  0.00000000000E+00 0.  1.
    9000005    2    1    2  501    0 -0.39098790261E+02  0.19393545463E+02 -0.52189159560E+03  0.52372245655E+03  0.30901341477E+01 0.  0.
         13    1    3    3    0    0 -0.32281749885E+02  0.14739564420E+02 -0.42808600934E+03  0.42955441743E+03  0.00000000000E+00 0.  1.
          3    1    3    3  501    0 -0.68170403761E+01  0.46539810427E+01 -0.93805586253E+02  0.94168039118E+02  0.00000000000E+00 0.  1.
         -1    1    1    2    0  502  0.39098790261E+02 -0.19393545463E+02 -0.47619504169E+03  0.47819090616E+03  0.00000000000E+00 0. -1.
<mgrwt>
<rscale>  1 0.30000000E+03</rscale>
<asrwt>0</asrwt>
<pdfrwt beam="1">  1       21 0.69576973E-02 0.30000000E+03</pdfrwt>
<pdfrwt beam="2">0</pdfrwt>
<totfact> 0.16306360E+04</totfact>
</mgrwt>
</event>
<event>
 6    1  0.6513574E-002  0.3000000E+03  0.7818608E-02  0.1093470E+00
         21   -1    0    0  501  502  0.00000000000E+00  0.00000000000E+00  0.10649856077E+01  0.10649856077E+01  0.00000000000E+00 0. -1.
         13   -1    0    0    0    0 -0.00000000000E+00 -0.00000000000E+00 -0.10000000000E+04  0.10000000000E+04  0.00000000000E+00 0.  1.
    9000005    2    1    2  501    0  0.31643402662E+02 -0.75046393173E+01 -0.50537416696E+03  0.50643387593E+03  0.38206694755E+01 0.  0.
         13    1    3    3    0    0  0.15277961043E+02 -0.16869210011E+01 -0.24179344511E+03  0.24228151373E+03  0.00000000000E+00 0.  1.
          1    1    3    3  501    0  0.16365441619E+02 -0.58177183162E+01 -0.26358072184E+03  0.26415236219E+03  0.00000000000E+00 0.  1.
         -1    1    1    2    0  502 -0.31643402662E+02  0.75046393173E+01 -0.49356084744E+03  0.49463110968E+03  0.00000000000E+00 0. -1.
<mgrwt>
<rscale>  1 0.30000000E+03</rscale>
<asrwt>0</asrwt>
<pdfrwt beam="1">  1       21 0.38726831E-02 0.30000000E+03</pdfrwt>
<pdfrwt beam="2">0</pdfrwt>
<totfact> 0.44399418E+04</totfact>
</mgrwt>
</event>
<event>
 6    1  0.6513574E-002  0.3000000E+03  0.7818608E-02  0.1093470E+00
         21   -1    0    0  501  502  0.00000000000E+00  0.00000000000E+00  0.18980333475E+01  0.18980333475E+01  0.00000000000E+00 0. -1.
         13   -1    0    0    0    0 -0.00000000000E+00 -0.00000000000E+00 -0.10000000000E+04  0.10000000000E+04  0.00000000000E+00 0.  1.
    9000005    2    1    2  501    0  0.42509115359E+02 -0.72558594738E+00 -0.39389417814E+03  0.39619628904E+03  0.33651908263E+01 0.  0.
         13    1    3    3    0    0  0.40845681675E+02 -0.85090773360E+00 -0.37137903701E+03  0.37361943590E+03  0.00000000000E+00 0.  1.
          1    1    3    3  501    0  0.16634336840E+01  0.12532178622E+00 -0.22515141132E+02  0.22576853132E+02  0.00000000000E+00 0.  1.
         -3    1    1    2    0  502 -0.42509115359E+02  0.72558594738E+00 -0.60420778851E+03  0.60570174431E+03  0.00000000000E+00 0. -1.
<mgrwt>
<rscale>  1 0.30000000E+03</rscale>
<asrwt>0</asrwt>
<pdfrwt beam="1">  1       21 0.69019540E-02 0.30000000E+03</pdfrwt>
<pdfrwt beam="2">0</pdfrwt>
<totfact> 0.16536057E+04</totfact>
</mgrwt>
</event>
<event>
 6    1  0.6513574E-002  0.3000000E+03  0.7818608E-02  0.1093470E+00
         21   -1    0    0  501  502  0.00000000000E+00  0.00000000000E+00  0.14355141263E+01  0.14355141263E+01  0.00000000000E+00 0. -1.
         13   -1    0    0    0    0 -0.00000000000E+00 -0.00000000000E+00 -0.10000000000E+04  0.10000000000E+04  0.00000000000E+00 0.  1.
    9000005    2    1    2  501    0  0.72885351647E+01 -0.35862922229E+02 -0.62626343199E+03  0.62734014306E+03  0.32398922913E+01 0.  0.
         13    1    3    3    0    0  0.73914325843E+01 -0.35579522878E+02 -0.61499591315E+03  0.61606859108E+03  0.00000000000E+00 0.  1.
          1    1    3    3  501    0 -0.10289741962E+00 -0.28339935068E+00 -0.11267518845E+02  0.11271551978E+02  0.00000000000E+00 0.  1.
         -3    1    1    2    0  502 -0.72885351647E+01  0.35862922229E+02 -0.37230105388E+03  0.37409537107E+03  0.00000000000E+00 0. -1.
<mgrwt>
<rscale>  1 0.30000000E+03</rscale>
<asrwt>0</asrwt>
<pdfrwt beam="1">  1       21 0.52200624E-02 0.30000000E+03</pdfrwt>
<pdfrwt beam="2">0</pdfrwt>
<totfact> 0.26763226E+04</totfact>
</mgrwt>
</event>
<event>
 6    1  0.6513574E-002  0.3000000E+03  0.7818608E-02  0.1093470E+00
         21   -1    0    0  501  502  0.00000000000E+00  0.00000000000E+00  0.11033087142E+01  0.11033087142E+01  0.00000000000E+00 0. -1.
         13   -1    0    0    0    0 -0.00000000000E+00 -0.00000000000E+00 -0.10000000000E+04  0.10000000000E+04  0.00000000000E+00 0.  1.
    9000005    2    1    2  501    0  0.14920747257E+02 -0.27011846969E+02 -0.31991497614E+03  0.32142070774E+03  0.36620793412E+01 0.  0.
         13    1    3    3    0    0  0.78169779347E+01 -0.12565006156E+02 -0.17047874715E+03  0.17111980527E+03  0.00000000000E+00 0.  1.
          1    1    3    3  501    0  0.71037693221E+01 -0.14446840812E+02 -0.14943622899E+03  0.15030090247E+03  0.00000000000E+00 0.  1.
         -1    1    1    2    0  502 -0.14920747257E+02  0.27011846969E+02 -0.67898171514E+03  0.67968260098E+03  0.00000000000E+00 0. -1.
<mgrwt>
<rscale>  1 0.30000000E+03</rscale>
<asrwt>0</asrwt>
<pdfrwt beam="1">  1       21 0.40120401E-02 0.30000000E+03</pdfrwt>
<pdfrwt beam="2">0</pdfrwt>
<totfact> 0.41835027E+04</totfact>
</mgrwt>
</event>
<event>
 6    1  0.6513574E-002  0.3000000E+03  0.7818608E-02  0.1093470E+00
         21   -1    0    0  501  502  0.00000000000E+00  0.00000000000E+00  0.11099041741E+01  0.11099041741E+01  0.00000000000E+00 0. -1.
         13   -1    0    0    0    0 -0.00000000000E+00 -0.00000000000E+00 -0.10000000000E+04  0.10000000000E+04  0.00000000000E+00 0.  1.
    9000005    2    1    2  501    0  0.32495474880E+02  0.42214268496E+01 -0.43643480841E+03  0.43770088164E+03  0.57396396160E+01 0.  0.
         13    1    3    3    0    0  0.28915521927E+01  0.48212315410E-01 -0.22022989985E+02  0.22212057230E+02  0.00000000000E+00 0.  1.
          1    1    3    3  501    0  0.29603922688E+02  0.41732145342E+01 -0.41441181842E+03  0.41548882441E+03  0.00000000000E+00 0.  1.
         -3    1    1    2    0  502 -0.32495474880E+02 -0.42214268496E+01 -0.56245528742E+03  0.56340902254E+03  0.00000000000E+00 0. -1.
<mgrwt>
<rscale>  1 0.30000000E+03</rscale>
<asrwt>0</asrwt>
<pdfrwt beam="1">  1       21 0.40360237E-02 0.30000000E+03</pdfrwt>
<pdfrwt beam="2">0</pdfrwt>
<totfact> 0.41417103E+04</totfact>
</mgrwt>
</event>
<event>
 6    1  0.6513574E-002  0.3000000E+03  0.7818608E-02  0.1093470E+00
         21   -1    0    0  501  502  0.00000000000E+00  0.00000000000E+00  0.74277883066E+01  0.74277883066E+01  0.00000000000E+00 0. -1.
         13   -1    0    0    0    0 -0.00000000000E+00 -0.00000000000E+00 -0.10000000000E+04  0.10000000000E+04  0.00000000000E+00 0.  1.
    9000005    2    1    2  501    0  0.70157086048E+02  0.34075600918E+02 -0.71028317750E+03  0.71456218410E+03  0.37093674985E+01 0.  0.
         13    1    3    3    0    0  0.16469029231E+01  0.14412968193E+01 -0.18236660083E+02  0.18367509269E+02  0.00000000000E+00 0.  1.
          1    1    3    3  501    0  0.68510183125E+02  0.32634304099E+02 -0.69204651742E+03  0.69619467483E+03  0.00000000000E+00 0.  1.
         -1    1    1    2    0  502 -0.70157086048E+02 -0.34075600918E+02 -0.28228903419E+03  0.29286560420E+03  0.00000000000E+00 0. -1.
<mgrwt>
<rscale>  1 0.30000000E+03</rscale>
<asrwt>0</asrwt>
<pdfrwt beam="1">  1       21 0.27010196E-01 0.30000000E+03</pdfrwt>
<pdfrwt beam="2">0</pdfrwt>
<totfact> 0.13394782E+03</totfact>
</mgrwt>
</event>
<event>
 6    1  0.6513574E-002  0.3000000E+03  0.7818608E-02  0.1093470E+00
         21   -1    0    0  501  502  0.00000000000E+00  0.00000000000E+00  0.23241502031E+01  0.23241502031E+01  0.00000000000E+00 0. -1.
         13   -1    0    0    0    0 -0.00000000000E+00 -0.00000000000E+00 -0.10000000000E+04  0.10000000000E+04  0.00000000000E+00 0.  1.
    9000005    2    1    2  501    0  0.25346483238E+02  0.40007967374E+02 -0.58980926672E+03  0.59171700066E+03  0.33099991136E+01 0.  0.
         13    1    3    3    0    0  0.26932137010E+01  0.64183108269E+01 -0.84766937603E+02  0.85052229979E+02  0.00000000000E+00 0.  1.
          3    1    3    3  501    0  0.22653269537E+02  0.33589656547E+02 -0.50504232912E+03  0.50666477068E+03  0.00000000000E+00 0.  1.
         -3    1    1    2    0  502 -0.25346483238E+02 -0.40007967374E+02 -0.40786658307E+03  0.41060714954E+03  0.00000000000E+00 0. -1.
<mgrwt>
<rscale>  1 0.30000000E+03</rscale>
<asrwt>0</asrwt>
<pdfrwt beam="1">  1       21 0.84514731E-02 0.30000000E+03</pdfrwt>
<pdfrwt beam="2">0</pdfrwt>
<totfact> 0.11597739E+04</totfact>
</mgrwt>
</event>
<event>
 6    1  0.6513574E-002  0.3000000E+03  0.7818608E-02  0.1093470E+00
         21   -1    0    0  501  502  0.00000000000E+00  0.00000000000E+00  0.16675296953E+01  0.16675296953E+01  0.00000000000E+00 0. -1.
         13   -1    0    0    0    0 -0.00000000000E+00 -0.00000000000E+00 -0.10000000000E+04  0.10000000000E+04  0.00000000000E+00 0.  1.
    9000005    2    1    2  501    0  0.17776570545E+02 -0.31582831470E+02 -0.27107234048E+03  0.27350492551E+03  0.33539230636E+01 0.  0.
         13    1    3    3    0    0  0.63435054039E+01 -0.13422703408E+02 -0.10145327377E+03  0.10253377875E+03  0.00000000000E+00 0.  1.
          3    1    3    3  501    0  0.11433065141E+02 -0.18160128062E+02 -0.16961906672E+03  0.17097114676E+03  0.00000000000E+00 0.  1.
         -1    1    1    2    0  502 -0.17776570545E+02  0.31582831470E+02 -0.72726012982E+03  0.72816260418E+03  0.00000000000E+00 0. -1.
<mgrwt>
<rscale>  1 0.30000000E+03</rscale>
<asrwt>0</asrwt>
<pdfrwt beam="1">  1       21 0.60637571E-02 0.30000000E+03</pdfrwt>
<pdfrwt beam="2">0</pdfrwt>
<totfact> 0.20690935E+04</totfact>
</mgrwt>
</event>
<event>
 6    1  0.6513574E-002  0.3000000E+03  0.7818608E-02  0.1093470E+00
         21   -1    0    0  501  502  0.00000000000E+00  0.00000000000E+00  0.10343090569E+01  0.10343090569E+01  0.00000000000E+00 0. -1.
         13   -1    0    0    0    0 -0.00000000000E+00 -0.00000000000E+00 -0.10000000000E+04  0.10000000000E+04  0.00000000000E+00 0.  1.
    9000005    2    1    2  501    0  0.26845791500E+02 -0.17404234222E+02 -0.46506780133E+03  0.46617866458E+03  0.32990286695E+01 0.  0.
         13    1    3    3    0    0  0.13097964102E+02 -0.10200486112E+02 -0.25212318044E+03  0.25266916056E+03  0.00000000000E+00 0.  1.
          3    1    3    3  501    0  0.13747827398E+02 -0.72037481106E+01 -0.21294462089E+03  0.21350950402E+03  0.00000000000E+00 0.  1.
         -3    1    1    2    0  502 -0.26845791500E+02  0.17404234222E+02 -0.53389788961E+03  0.53485564447E+03  0.00000000000E+00 0. -1.
<mgrwt>
<rscale>  1 0.30000000E+03</rscale>
<asrwt>0</asrwt>
<pdfrwt beam="1">  1       21 0.37611318E-02 0.30000000E+03</pdfrwt>
<pdfrwt beam="2">0</pdfrwt>
<totfact> 0.46634558E+04</totfact>
</mgrwt>
</event>
<event>
 6    1  0.6513574E-002  0.3000000E+03  0.7818608E-02  0.1093470E+00
         21   -1    0    0  501  502  0.00000000000E+00  0.00000000000E+00  0.11759479360E+01  0.11759479360E+01  0.00000000000E+00 0. -1.
         13   -1    0    0    0    0 -0.00000000000E+00 -0.00000000000E+00 -0.10000000000E+04  0.10000000000E+04  0.00000000000E+00 0.  1.
    9000005    2    1    2  501    0 -0.23328945574E+02  0.23531476396E+02 -0.37667481817E+03  0.37814493802E+03  0.34213189276E+01 0.  0.
         13    1    3    3    0    0 -0.13229562051E+00  0.35032977794E+00 -0.18058304327E+01  0.18442496133E+01  0.00000000000E+00 0.  1.
          1    1    3    3  501    0 -0.23196649953E+02  0.23181146618E+02 -0.37486898774E+03  0.37630068841E+03  0.00000000000E+00 0.  1.
         -3    1    1    2    0  502  0.23328945574E+02 -0.23531476396E+02 -0.62214923389E+03  0.62303100992E+03  0.00000000000E+00 0. -1.
<mgrwt>
<rscale>  1 0.30000000E+03</rscale>
<asrwt>0</asrwt>
<pdfrwt beam="1">  1       21 0.42761833E-02 0.30000000E+03</pdfrwt>
<pdfrwt beam="2">0</pdfrwt>
<totfact> 0.37567911E+04</totfact>
</mgrwt>
</event>
<event>
 6    1  0.6513574E-002  0.3000000E+03  0.7818608E-02  0.1093470E+00
         21   -1    0    0  501  502  0.00000000000E+00  0.00000000000E+00  0.10382997842E+01  0.10382997842E+01  0.00000000000E+00 0. -1.
         13   -1    0    0    0    0 -0.00000000000E+00 -0.00000000000E+00 -0.10000000000E+04  0.10000000000E+04  0.00000000000E+00 0.  1.
    9000005    2    1    2  501    0 -0.95680717935E+01  0.30599001592E+02 -0.53752900681E+03  0.53849319124E+03  0.31043439187E+01 0.  0.
         13    1    3    3    0    0 -0.31075845744E+01  0.10400560550E+02 -0.15832374968E+03  0.15869542670E+03  0.00000000000E+00 0.  1.
          1    1    3    3  501    0 -0.64604872191E+01  0.20198441042E+02 -0.37920525713E+03  0.37979776454E+03  0.00000000000E+00 0.  1.
         -1    1    1    2    0  502  0.95680717935E+01 -0.30599001592E+02 -0.46143269340E+03  0.46254510855E+03  0.00000000000E+00 0. -1.
<mgrwt>
<rscale>  1 0.30000000E+03</rscale>
<asrwt>0</asrwt>
<pdfrwt beam="1">  1       21 0.37756435E-02 0.30000000E+03</pdfrwt>
<pdfrwt beam="2">0</pdfrwt>
<totfact> 0.46333900E+04</totfact>
</mgrwt>
</event>
<event>
 6    1  0.6513574E-002  0.3000000E+03  0.7818608E-02  0.1093470E+00
         21   -1    0    0  501  502  0.00000000000E+00  0.00000000000E+00  0.15874564820E+01  0.15874564820E+01  0.00000000000E+00 0. -1.
         13   -1    0    0    0    0 -0.00000000000E+00 -0.00000000000E+00 -0.10000000000E+04  0.10000000000E+04  0.00000000000E+00 0.  1.
    9000005    2    1    2  501    0  0.36724757724E+02  0.14195668570E+02 -0.56275090669E+03  0.56415027626E+03  0.51697571441E+01 0.  0.
         13    1    3    3    0    0  0.10678592652E+01 -0.30662134420E+00 -0.24178562357E+02  0.24204074403E+02  0.00000000000E+00 0.  1.
          3    1    3    3  501    0  0.35656898459E+02  0.14502289915E+02 -0.53857234434E+03  0.53994620186E+03  0.00000000000E+00 0.  1.
         -1    1    1    2    0  502 -0.36724757724E+02 -0.14195668570E+02 -0.43566163682E+03  0.43743718022E+03  0.00000000000E+00 0. -1.
<mgrwt>
<rscale>  1 0.30000000E+03</rscale>
<asrwt>0</asrwt>
<pdfrwt beam="1">  1       21 0.57725812E-02 0.30000000E+03</pdfrwt>
<pdfrwt beam="2">0</pdfrwt>
<totfact> 0.22522583E+04</totfact>
</mgrwt>
</event>
<event>
 6    1  0.6513574E-002  0.3000000E+03  0.7818608E-02  0.1093470E+00
         21   -1    0    0  501  502  0.00000000000E+00  0.00000000000E+00  0.15633316690E+01  0.15633316690E+01  0.00000000000E+00 0. -1.
         13   -1    0    0    0    0 -0.00000000000E+00 -0.00000000000E+00 -0.10000000000E+04  0.10000000000E+04  0.00000000000E+00 0.  1.
    9000005    2    1    2  501    0  0.32808441916E+02 -0.97780871275E+01 -0.74880091313E+03  0.74959108096E+03  0.34606810056E+01 0.  0.
         13    1    3    3    0    0  0.12650190676E+02 -0.21171697610E+01 -0.29108758522E+03  0.29137002591E+03  0.00000000000E+00 0.  1.
          3    1    3    3  501    0  0.20158251239E+02 -0.76609173665E+01 -0.45771332790E+03  0.45822105505E+03  0.00000000000E+00 0.  1.
         -1    1    1    2    0  502 -0.32808441916E+02  0.97780871275E+01 -0.24963575521E+03  0.25197225071E+03  0.00000000000E+00 0. -1.
<mgrwt>
<rscale>  1 0.30000000E+03</rscale>
<asrwt>0</asrwt>
<pdfrwt beam="1">  1       21 0.56848544E-02 0.30000000E+03</pdfrwt>
<pdfrwt beam="2">0</pdfrwt>
<totfact> 0.23123800E+04</totfact>
</mgrwt>
</event>
<event>
 6    1  0.6513574E-002  0.3000000E+03  0.7818608E-02  0.1093470E+00
         21   -1    0    0  501  502  0.00000000000E+00  0.00000000000E+00  0.11380064707E+01  0.11380064707E+01  0.00000000000E+00 0. -1.
         13   -1    0    0    0    0 -0.00000000000E+00 -0.00000000000E+00 -0.10000000000E+04  0.10000000000E+04  0.00000000000E+00 0.  1.
    9000005    2    1    2  501    0  0.19233792717E+02 -0.26907387491E+02 -0.40795230459E+03  0.40930339548E+03  0.32000699239E+01 0.  0.
         13    1    3    3    0    0  0.16585801600E+02 -0.23424324669E+02 -0.33928700415E+03  0.34049883845E+03  0.00000000000E+00 0.  1.
          1    1    3    3  501    0  0.26479911163E+01 -0.34830628221E+01 -0.68665300433E+02  0.68804557023E+02  0.00000000000E+00 0.  1.
         -1    1    1    2    0  502 -0.19233792717E+02  0.26907387491E+02 -0.59090968894E+03  0.59183461099E+03  0.00000000000E+00 0. -1.
<mgrwt>
<rscale>  1 0.30000000E+03</rscale>
<asrwt>0</asrwt>
<pdfrwt beam="1">  1       21 0.41382141E-02 0.30000000E+03</pdfrwt>
<pdfrwt beam="2">0</pdfrwt>
<totfact> 0.39707408E+04</totfact>
</mgrwt>
</event>
<event>
 6    1  0.6513574E-002  0.3000000E+03  0.7818608E-02  0.1093470E+00
         21   -1    0    0  501  502  0.00000000000E+00  0.00000000000E+00  0.13326187750E+01  0.13326187750E+01  0.00000000000E+00 0. -1.
         13   -1    0    0    0    0 -0.00000000000E+00 -0.00000000000E+00 -0.10000000000E+04  0.10000000000E+04  0.00000000000E+00 0.  1.
    9000005    2    1    2  501    0  0.28725088268E+02 -0.22258410665E+02 -0.52756587595E+03  0.52883161792E+03  0.40692871922E+01 0.  0.
         13    1    3    3    0    0  0.19126900772E+02 -0.13176729669E+02 -0.35690967998E+03  0.35766462531E+03  0.00000000000E+00 0.  1.
          3    1    3    3  501    0  0.95981874963E+01 -0.90816809965E+01 -0.17065619598E+03  0.17116699261E+03  0.00000000000E+00 0.  1.
         -3    1    1    2    0  502 -0.28725088268E+02  0.22258410665E+02 -0.47110150527E+03  0.47250100086E+03  0.00000000000E+00 0. -1.
<mgrwt>
<rscale>  1 0.30000000E+03</rscale>
<asrwt>0</asrwt>
<pdfrwt beam="1">  1       21 0.48458967E-02 0.30000000E+03</pdfrwt>
<pdfrwt beam="2">0</pdfrwt>
<totfact> 0.30382452E+04</totfact>
</mgrwt>
</event>
<event>
 6    1  0.6513574E-002  0.3000000E+03  0.7818608E-02  0.1093470E+00
         21   -1    0    0  501  502  0.00000000000E+00  0.00000000000E+00  0.10297359816E+01  0.10297359816E+01  0.00000000000E+00 0. -1.
         13   -1    0    0    0    0 -0.00000000000E+00 -0.00000000000E+00 -0.10000000000E+04  0.10000000000E+04  0.00000000000E+00 0.  1.
    9000005    2    1    2  501    0  0.47721549727E+01 -0.31578705719E+02 -0.52124505645E+03  0.52223817166E+03  0.40386815566E+01 0.  0.
         13    1    3    3    0    0 -0.23224132973E+00 -0.43447797850E+01 -0.89938209443E+02  0.90043392679E+02  0.00000000000E+00 0.  1.
          3    1    3    3  501    0  0.50043963024E+01 -0.27233925934E+02 -0.43130684701E+03  0.43219477898E+03  0.00000000000E+00 0.  1.
         -3    1    1    2    0  502 -0.47721549727E+01  0.31578705719E+02 -0.47772520757E+03  0.47879156432E+03  0.00000000000E+00 0. -1.
<mgrwt>
<rscale>  1 0.30000000E+03</rscale>
<asrwt>0</asrwt>
<pdfrwt beam="1">  1       21 0.37445024E-02 0.30000000E+03</pdfrwt>
<pdfrwt beam="2">0</pdfrwt>
<totfact> 0.46982879E+04</totfact>
</mgrwt>
</event>
<event>
 6    1  0.6513574E-002  0.3000000E+03  0.7818608E-02  0.1093470E+00
         21   -1    0    0  501  502  0.00000000000E+00  0.00000000000E+00  0.12186471777E+01  0.12186471777E+01  0.00000000000E+00 0. -1.
         13   -1    0    0    0    0 -0.00000000000E+00 -0.00000000000E+00 -0.10000000000E+04  0.10000000000E+04  0.00000000000E+00 0.  1.
    9000005    2    1    2  501    0  0.20566331855E+02  0.23418336903E+02 -0.27890017496E+03  0.28066309571E+03  0.38824208873E+01 0.  0.
         13    1    3    3    0    0  0.16117746376E+01  0.76702920999E+00 -0.11682161454E+02  0.11817742912E+02  0.00000000000E+00 0.  1.
          3    1    3    3  501    0  0.18954557218E+02  0.22651307693E+02 -0.26721801350E+03  0.26884535279E+03  0.00000000000E+00 0.  1.
         -1    1    1    2    0  502 -0.20566331855E+02 -0.23418336903E+02 -0.71988117787E+03  0.72055555147E+03  0.00000000000E+00 0. -1.
<mgrwt>
<rscale>  1 0.30000000E+03</rscale>
<asrwt>0</asrwt>
<pdfrwt beam="1">  1       21 0.44314536E-02 0.30000000E+03</pdfrwt>
<pdfrwt beam="2">0</pdfrwt>
<totfact> 0.35366955E+04</totfact>
</mgrwt>
</event>
<event>
 6    1  0.6513574E-002  0.3000000E+03  0.7818608E-02  0.1093470E+00
         21   -1    0    0  501  502  0.00000000000E+00  0.00000000000E+00  0.43097837938E+01  0.43097837938E+01  0.00000000000E+00 0. -1.
         13   -1    0    0    0    0 -0.00000000000E+00 -0.00000000000E+00 -0.10000000000E+04  0.10000000000E+04  0.00000000000E+00 0.  1.
    9000005    2    1    2  501    0  0.37366772507E+02 -0.32417839121E+02 -0.82776158027E+03  0.82924631317E+03  0.36086212684E+01 0.  0.
         13    1    3    3    0    0  0.28518832786E+02 -0.23154568861E+02 -0.63049419975E+03  0.63156345192E+03  0.00000000000E+00 0.  1.
          1    1    3    3  501    0  0.88479397217E+01 -0.92632702597E+01 -0.19726738052E+03  0.19768286124E+03  0.00000000000E+00 0.  1.
         -3    1    1    2    0  502 -0.37366772507E+02  0.32417839121E+02 -0.16792863594E+03  0.17506347063E+03  0.00000000000E+00 0. -1.
<mgrwt>
<rscale>  1 0.30000000E+03</rscale>
<asrwt>0</asrwt>
<pdfrwt beam="1">  1       21 0.15671974E-01 0.30000000E+03</pdfrwt>
<pdfrwt beam="2">0</pdfrwt>
<totfact> 0.37963467E+03</totfact>
</mgrwt>
</event>
<event>
 6    1  0.6513574E-002  0.3000000E+03  0.7818608E-02  0.1093470E+00
         21   -1    0    0  501  502  0.00000000000E+00  0.00000000000E+00  0.22877073004E+02  0.22877073004E+02  0.00000000000E+00 0. -1.
         13   -1    0    0    0    0 -0.00000000000E+00 -0.00000000000E+00 -0.10000000000E+04  0.10000000000E+04  0.00000000000E+00 0.  1.
    9000005    2    1    2  501    0  0.94512971249E+02 -0.46507537348E+02 -0.12161072865E+03  0.16090446654E+03  0.23292203000E+01 0.  0.
         13    1    3    3    0    0  0.24728111832E+01 -0.95712333240E+00 -0.26485813996E+01  0.37477811638E+01  0.00000000000E+00 0.  1.
          1    1    3    3  501    0  0.92040160066E+02 -0.45550414016E+02 -0.11896214725E+03  0.15715668538E+03  0.00000000000E+00 0.  1.
         -1    1    1    2    0  502 -0.94512971249E+02  0.46507537348E+02 -0.85551219835E+03  0.86197260646E+03  0.00000000000E+00 0. -1.
<mgrwt>
<rscale>  1 0.30000000E+03</rscale>
<asrwt>0</asrwt>
<pdfrwt beam="1">  1       21 0.83189532E-01 0.30000000E+03</pdfrwt>
<pdfrwt beam="2">0</pdfrwt>
<totfact> 0.11706526E+02</totfact>
</mgrwt>
</event>
<event>
 6    1  0.6513574E-002  0.3000000E+03  0.7818608E-02  0.1093470E+00
         21   -1    0    0  501  502  0.00000000000E+00  0.00000000000E+00  0.92135101269E+00  0.92135101269E+00  0.00000000000E+00 0. -1.
         13   -1    0    0    0    0 -0.00000000000E+00 -0.00000000000E+00 -0.10000000000E+04  0.10000000000E+04  0.00000000000E+00 0.  1.
    9000005    2    1    2  501    0  0.21838504706E+02 -0.20900168184E+02 -0.52061710688E+03  0.52150588965E+03  0.35332202795E+01 0.  0.
         13    1    3    3    0    0  0.70244840148E+01 -0.45444296934E+01 -0.14410575863E+03  0.14434841491E+03  0.00000000000E+00 0.  1.
          1    1    3    3  501    0  0.14814020691E+02 -0.16355738491E+02 -0.37651134826E+03  0.37715747475E+03  0.00000000000E+00 0.  1.
         -3    1    1    2    0  502 -0.21838504706E+02  0.20900168184E+02 -0.47846154210E+03  0.47941546136E+03  0.00000000000E+00 0. -1.
<mgrwt>
<rscale>  1 0.30000000E+03</rscale>
<asrwt>0</asrwt>
<pdfrwt beam="1">  1       21 0.33503744E-02 0.30000000E+03</pdfrwt>
<pdfrwt beam="2">0</pdfrwt>
<totfact> 0.56604247E+04</totfact>
</mgrwt>
</event>
<event>
 6    1  0.6513574E-002  0.3000000E+03  0.7818608E-02  0.1093470E+00
         21   -1    0    0  501  502  0.00000000000E+00  0.00000000000E+00  0.11888459436E+01  0.11888459436E+01  0.00000000000E+00 0. -1.
         13   -1    0    0    0    0 -0.00000000000E+00 -0.00000000000E+00 -0.10000000000E+04  0.10000000000E+04  0.00000000000E+00 0.  1.
    9000005    2    1    2  501    0  0.87591205700E+01  0.32593269202E+02 -0.42035043884E+03  0.42174442028E+03  0.59009498529E+01 0.  0.
         13    1    3    3    0    0  0.77256926693E+01  0.32064549493E+02 -0.41120511607E+03  0.41252571937E+03  0.00000000000E+00 0.  1.
          1    1    3    3  501    0  0.10334279008E+01  0.52871970941E+00 -0.91453227707E+01  0.92187009029E+01  0.00000000000E+00 0.  1.
         -1    1    1    2    0  502 -0.87591205700E+01 -0.32593269202E+02 -0.57846071521E+03  0.57944442567E+03  0.00000000000E+00 0. -1.
<mgrwt>
<rscale>  1 0.30000000E+03</rscale>
<asrwt>0</asrwt>
<pdfrwt beam="1">  1       21 0.43230853E-02 0.30000000E+03</pdfrwt>
<pdfrwt beam="2">0</pdfrwt>
<totfact> 0.36881197E+04</totfact>
</mgrwt>
</event>
<event>
 6    1  0.6513574E-002  0.3000000E+03  0.7818608E-02  0.1093470E+00
         21   -1    0    0  501  502  0.00000000000E+00  0.00000000000E+00  0.14763702798E+01  0.14763702798E+01  0.00000000000E+00 0. -1.
         13   -1    0    0    0    0 -0.00000000000E+00 -0.00000000000E+00 -0.10000000000E+04  0.10000000000E+04  0.00000000000E+00 0.  1.
    9000005    2    1    2  501    0 -0.26848445470E+02  0.22270305798E+02 -0.29668306871E+03  0.29876947646E+03  0.50548254002E+01 0.  0.
         13    1    3    3    0    0 -0.31641493735E+01  0.40604515537E+01 -0.32953832121E+02  0.33353472976E+02  0.00000000000E+00 0.  1.
          1    1    3    3  501    0 -0.23684296096E+02  0.18209854244E+02 -0.26372923659E+03  0.26541600348E+03  0.00000000000E+00 0.  1.
         -3    1    1    2    0  502  0.26848445470E+02 -0.22270305798E+02 -0.70184056101E+03  0.70270689382E+03  0.00000000000E+00 0. -1.
<mgrwt>
<rscale>  1 0.30000000E+03</rscale>
<asrwt>0</asrwt>
<pdfrwt beam="1">  1       21 0.53686305E-02 0.30000000E+03</pdfrwt>
<pdfrwt beam="2">0</pdfrwt>
<totfact> 0.25509075E+04</totfact>
</mgrwt>
</event>
<event>
 6    1  0.6513574E-002  0.3000000E+03  0.7818608E-02  0.1093470E+00
         21   -1    0    0  501  502  0.00000000000E+00  0.00000000000E+00  0.19818956531E+01  0.19818956531E+01  0.00000000000E+00 0. -1.
         13   -1    0    0    0    0 -0.00000000000E+00 -0.00000000000E+00 -0.10000000000E+04  0.10000000000E+04  0.00000000000E+00 0.  1.
    9000005    2    1    2  501    0  0.12232328794E+02 -0.42600130210E+02 -0.46270768840E+03  0.46483978933E+03  0.36364653471E+01 0.  0.
         13    1    3    3    0    0  0.40073992230E+01 -0.16773388665E+02 -0.19685485081E+03  0.19760880068E+03  0.00000000000E+00 0.  1.
          1    1    3    3  501    0  0.82249295709E+01 -0.25826741545E+02 -0.26585283759E+03  0.26723098866E+03  0.00000000000E+00 0.  1.
         -1    1    1    2    0  502 -0.12232328794E+02  0.42600130210E+02 -0.53531041595E+03  0.53714210632E+03  0.00000000000E+00 0. -1.
<mgrwt>
<rscale>  1 0.30000000E+03</rscale>
<asrwt>0</asrwt>
<pdfrwt beam="1">  1       21 0.72069085E-02 0.30000000E+03</pdfrwt>
<pdfrwt beam="2">0</pdfrwt>
<totfact> 0.15336731E+04</totfact>
</mgrwt>
</event>
<event>
 6    1  0.6513574E-002  0.3000000E+03  0.7818608E-02  0.1093470E+00
         21   -1    0    0  501  502  0.00000000000E+00  0.00000000000E+00  0.11838814935E+01  0.11838814935E+01  0.00000000000E+00 0. -1.
         13   -1    0    0    0    0 -0.00000000000E+00 -0.00000000000E+00 -0.10000000000E+04  0.10000000000E+04  0.00000000000E+00 0.  1.
    9000005    2    1    2  501    0 -0.18667739096E+02  0.27279932483E+02 -0.63493195806E+03  0.63580139502E+03  0.34847297670E+01 0.  0.
         13    1    3    3    0    0 -0.10914460099E+02  0.18805103350E+02 -0.42264553398E+03  0.42320444793E+03  0.00000000000E+00 0.  1.
          3    1    3    3  501    0 -0.77532789976E+01  0.84748291322E+01 -0.21228642408E+03  0.21259694709E+03  0.00000000000E+00 0.  1.
         -1    1    1    2    0  502  0.18667739096E+02 -0.27279932483E+02 -0.36388416044E+03  0.36538248647E+03  0.00000000000E+00 0. -1.
<mgrwt>
<rscale>  1 0.30000000E+03</rscale>
<asrwt>0</asrwt>
<pdfrwt beam="1">  1       21 0.43050327E-02 0.30000000E+03</pdfrwt>
<pdfrwt beam="2">0</pdfrwt>
<totfact> 0.37143191E+04</totfact>
</mgrwt>
</event>
<event>
 6    1  0.6513574E-002  0.3000000E+03  0.7818608E-02  0.1093470E+00
         21   -1    0    0  501  502  0.00000000000E+00  0.00000000000E+00  0.10396741778E+01  0.10396741778E+01  0.00000000000E+00 0. -1.
         13   -1    0    0    0    0 -0.00000000000E+00 -0.00000000000E+00 -0.10000000000E+04  0.10000000000E+04  0.00000000000E+00 0.  1.
    9000005    2    1    2  501    0 -0.31725763897E+02  0.23048414249E+01 -0.43238734570E+03  0.43357445216E+03  0.40190123538E+01 0.  0.
         13    1    3    3    0    0 -0.32411866499E+01  0.89448821588E+00 -0.61754424299E+02  0.61845891704E+02  0.00000000000E+00 0.  1.
          3    1    3    3  501    0 -0.28484577248E+02  0.14103532090E+01 -0.37063292140E+03  0.37172856046E+03  0.00000000000E+00 0.  1.
         -3    1    1    2    0  502  0.31725763897E+02 -0.23048414249E+01 -0.56657298012E+03  0.56746522201E+03  0.00000000000E+00 0. -1.
<mgrwt>
<rscale>  1 0.30000000E+03</rscale>
<asrwt>0</asrwt>
<pdfrwt beam="1">  1       21 0.37806413E-02 0.30000000E+03</pdfrwt>
<pdfrwt beam="2">0</pdfrwt>
<totfact> 0.46231060E+04</totfact>
</mgrwt>
</event>
<event>
 6    1  0.6513574E-002  0.3000000E+03  0.7818608E-02  0.1093470E+00
         21   -1    0    0  501  502  0.00000000000E+00  0.00000000000E+00  0.15285550329E+01  0.15285550329E+01  0.00000000000E+00 0. -1.
         13   -1    0    0    0    0 -0.00000000000E+00 -0.00000000000E+00 -0.10000000000E+04  0.10000000000E+04  0.00000000000E+00 0.  1.
    9000005    2    1    2  501    0 -0.10045536669E+02  0.36876689857E+02 -0.39764508538E+03  0.39948776120E+03  0.28380207102E+01 0.  0.
         13    1    3    3    0    0 -0.51737820395E+00  0.36605740928E+01 -0.31732398884E+02  0.31947028372E+02  0.00000000000E+00 0.  1.
          3    1    3    3  501    0 -0.95281584652E+01  0.33216115764E+02 -0.36591268649E+03  0.36754073283E+03  0.00000000000E+00 0.  1.
         -1    1    1    2    0  502  0.10045536669E+02 -0.36876689857E+02 -0.60082635959E+03  0.60204079384E+03  0.00000000000E+00 0. -1.
<mgrwt>
<rscale>  1 0.30000000E+03</rscale>
<asrwt>0</asrwt>
<pdfrwt beam="1">  1       21 0.55583937E-02 0.30000000E+03</pdfrwt>
<pdfrwt beam="2">0</pdfrwt>
<totfact> 0.24034769E+04</totfact>
</mgrwt>
</event>
<event>
 6    1  0.6513574E-002  0.3000000E+03  0.7818608E-02  0.1093470E+00
         21   -1    0    0  501  502  0.00000000000E+00  0.00000000000E+00  0.10000502618E+01  0.10000502618E+01  0.00000000000E+00 0. -1.
         13   -1    0    0    0    0 -0.00000000000E+00 -0.00000000000E+00 -0.10000000000E+04  0.10000000000E+04  0.00000000000E+00 0.  1.
    9000005    2    1    2  501    0 -0.19871028784E+02 -0.23508830620E+02 -0.41474607667E+03  0.41593585627E+03  0.63879191900E+01 0.  0.
         13    1    3    3    0    0 -0.22043991310E+01 -0.71899481196E+00 -0.19068051574E+02  0.19208511652E+02  0.00000000000E+00 0.  1.
          1    1    3    3  501    0 -0.17666629653E+02 -0.22789835808E+02 -0.39567802510E+03  0.39672734462E+03  0.00000000000E+00 0.  1.
         -3    1    1    2    0  502  0.19871028784E+02  0.23508830620E+02 -0.58425387307E+03  0.58506419399E+03  0.00000000000E+00 0. -1.
<mgrwt>
<rscale>  1 0.30000000E+03</rscale>
<asrwt>0</asrwt>
<pdfrwt beam="1">  1       21 0.36365541E-02 0.30000000E+03</pdfrwt>
<pdfrwt beam="2">0</pdfrwt>
<totfact> 0.49347030E+04</totfact>
</mgrwt>
</event>
<event>
 6    1  0.6513574E-002  0.3000000E+03  0.7818608E-02  0.1093470E+00
         21   -1    0    0  501  502  0.00000000000E+00  0.00000000000E+00  0.15112472031E+01  0.15112472031E+01  0.00000000000E+00 0. -1.
         13   -1    0    0    0    0 -0.00000000000E+00 -0.00000000000E+00 -0.10000000000E+04  0.10000000000E+04  0.00000000000E+00 0.  1.
    9000005    2    1    2  501    0 -0.38139107673E+02 -0.47331967485E+01 -0.56938121210E+03  0.57068613632E+03  0.32721259910E+01 0.  0.
         13    1    3    3    0    0 -0.33619292211E+02 -0.30993546526E+01 -0.50067857833E+03  0.50181560519E+03  0.00000000000E+00 0.  1.
          1    1    3    3  501    0 -0.45198154616E+01 -0.16338420959E+01 -0.68702633766E+02  0.68870531131E+02  0.00000000000E+00 0.  1.
         -1    1    1    2    0  502  0.38139107673E+02  0.47331967485E+01 -0.42910754070E+03  0.43082511088E+03  0.00000000000E+00 0. -1.
<mgrwt>
<rscale>  1 0.30000000E+03</rscale>
<asrwt>0</asrwt>
<pdfrwt beam="1">  1       21 0.54954560E-02 0.30000000E+03</pdfrwt>
<pdfrwt beam="2">0</pdfrwt>
<totfact> 0.24508858E+04</totfact>
</mgrwt>
</event>
<event>
 6    1  0.6513574E-002  0.3000000E+03  0.7818608E-02  0.1093470E+00
         21   -1    0    0  501  502  0.00000000000E+00  0.00000000000E+00  0.15542128852E+01  0.15542128852E+01  0.00000000000E+00 0. -1.
         13   -1    0    0    0    0 -0.00000000000E+00 -0.00000000000E+00 -0.10000000000E+04  0.10000000000E+04  0.00000000000E+00 0.  1.
    9000005    2    1    2  501    0 -0.20820210497E+02  0.23207180605E+02 -0.19555150305E+03  0.19805481290E+03  0.36420008248E+01 0.  0.
         13    1    3    3    0    0 -0.12360188998E+01  0.29952574105E+01 -0.19048708828E+02  0.19322334685E+02  0.00000000000E+00 0.  1.
          1    1    3    3  501    0 -0.19584191597E+02  0.20211923194E+02 -0.17650279423E+03  0.17873247822E+03  0.00000000000E+00 0.  1.
         -1    1    1    2    0  502  0.20820210497E+02 -0.23207180605E+02 -0.80289428406E+03  0.80349939998E+03  0.00000000000E+00 0. -1.
<mgrwt>
<rscale>  1 0.30000000E+03</rscale>
<asrwt>0</asrwt>
<pdfrwt beam="1">  1       21 0.56516951E-02 0.30000000E+03</pdfrwt>
<pdfrwt beam="2">0</pdfrwt>
<totfact> 0.23357472E+04</totfact>
</mgrwt>
</event>
<event>
 6    1  0.6513574E-002  0.3000000E+03  0.7818608E-02  0.1093470E+00
         21   -1    0    0  501  502  0.00000000000E+00  0.00000000000E+00  0.15105227220E+01  0.15105227220E+01  0.00000000000E+00 0. -1.
         13   -1    0    0    0    0 -0.00000000000E+00 -0.00000000000E+00 -0.10000000000E+04  0.10000000000E+04  0.00000000000E+00 0.  1.
    9000005    2    1    2  501    0 -0.24128465550E+02  0.30297549514E+02 -0.47142939252E+03  0.47302924840E+03  0.32974779054E+01 0.  0.
         13    1    3    3    0    0 -0.14328028760E+02  0.19702715994E+02 -0.28138600690E+03  0.28243862042E+03  0.00000000000E+00 0.  1.
          3    1    3    3  501    0 -0.98004367897E+01  0.10594833519E+02 -0.19004338562E+03  0.19059062799E+03  0.00000000000E+00 0.  1.
         -1    1    1    2    0  502  0.24128465550E+02 -0.30297549514E+02 -0.52706008476E+03  0.52848127432E+03  0.00000000000E+00 0. -1.
<mgrwt>
<rscale>  1 0.30000000E+03</rscale>
<asrwt>0</asrwt>
<pdfrwt beam="1">  1       21 0.54928215E-02 0.30000000E+03</pdfrwt>
<pdfrwt beam="2">0</pdfrwt>
<totfact> 0.24529016E+04</totfact>
</mgrwt>
</event>
<event>
 6    1  0.6513574E-002  0.3000000E+03  0.7818608E-02  0.1093470E+00
         21   -1    0    0  501  502  0.00000000000E+00  0.00000000000E+00  0.22182278722E+01  0.22182278722E+01  0.00000000000E+00 0. -1.
         13   -1    0    0    0    0 -0.00000000000E+00 -0.00000000000E+00 -0.10000000000E+04  0.10000000000E+04  0.00000000000E+00 0.  1.
    9000005    2    1    2  501    0  0.15636070534E+02  0.36761636031E+02 -0.23458151212E+03  0.23797314842E+03  0.26132272617E+01 0.  0.
         13    1    3    3    0    0  0.15420184184E+02  0.36232409341E+02 -0.23264870450E+03  0.23595760059E+03  0.00000000000E+00 0.  1.
          1    1    3    3  501    0  0.21588634989E+00  0.52922668964E+00 -0.19328076178E+01  0.20155478393E+01  0.00000000000E+00 0.  1.
         -3    1    1    2    0  502 -0.15636070534E+02 -0.36761636031E+02 -0.76320026001E+03  0.76424507945E+03  0.00000000000E+00 0. -1.
<mgrwt>
<rscale>  1 0.30000000E+03</rscale>
<asrwt>0</asrwt>
<pdfrwt beam="1">  1       21 0.80663002E-02 0.30000000E+03</pdfrwt>
<pdfrwt beam="2">0</pdfrwt>
<totfact> 0.12589982E+04</totfact>
</mgrwt>
</event>
<event>
 6    1  0.6513574E-002  0.3000000E+03  0.7818608E-02  0.1093470E+00
         21   -1    0    0  501  502  0.00000000000E+00  0.00000000000E+00  0.11208444700E+01  0.11208444700E+01  0.00000000000E+00 0. -1.
         13   -1    0    0    0    0 -0.00000000000E+00 -0.00000000000E+00 -0.10000000000E+04  0.10000000000E+04  0.00000000000E+00 0.  1.
    9000005    2    1    2  501    0  0.12658058052E+02  0.27590939330E+02 -0.29222222711E+03  0.29381221251E+03  0.32093354265E+01 0.  0.
         13    1    3    3    0    0  0.64350150236E+00  0.17712472070E+01 -0.12064783138E+02  0.12211077063E+02  0.00000000000E+00 0.  1.
          1    1    3    3  501    0  0.12014556549E+02  0.25819692123E+02 -0.28015744397E+03  0.28160113545E+03  0.00000000000E+00 0.  1.
         -1    1    1    2    0  502 -0.12658058052E+02 -0.27590939330E+02 -0.70665692842E+03  0.70730863196E+03  0.00000000000E+00 0. -1.
<mgrwt>
<rscale>  1 0.30000000E+03</rscale>
<asrwt>0</asrwt>
<pdfrwt beam="1">  1       21 0.40758067E-02 0.30000000E+03</pdfrwt>
<pdfrwt beam="2">0</pdfrwt>
<totfact> 0.40738101E+04</totfact>
</mgrwt>
</event>
<event>
 6    1  0.6513574E-002  0.3000000E+03  0.7818608E-02  0.1093470E+00
         21   -1    0    0  501  502  0.00000000000E+00  0.00000000000E+00  0.22025061589E+01  0.22025061589E+01  0.00000000000E+00 0. -1.
         13   -1    0    0    0    0 -0.00000000000E+00 -0.00000000000E+00 -0.10000000000E+04  0.10000000000E+04  0.00000000000E+00 0.  1.
    9000005    2    1    2  501    0  0.25647583779E+02 -0.36910244038E+02 -0.35739504509E+03  0.36022473315E+03  0.32365801111E+01 0.  0.
         13    1    3    3    0    0  0.21490317310E+02 -0.29186884096E+02 -0.28106014773E+03  0.28338756957E+03  0.00000000000E+00 0.  1.
          1    1    3    3  501    0  0.41572664689E+01 -0.77233599413E+01 -0.76334897351E+02  0.76837163579E+02  0.00000000000E+00 0.  1.
         -3    1    1    2    0  502 -0.25647583779E+02  0.36910244038E+02 -0.64040244876E+03  0.64197777301E+03  0.00000000000E+00 0. -1.
<mgrwt>
<rscale>  1 0.30000000E+03</rscale>
<asrwt>0</asrwt>
<pdfrwt beam="1">  1       21 0.80091302E-02 0.30000000E+03</pdfrwt>
<pdfrwt beam="2">0</pdfrwt>
<totfact> 0.12748302E+04</totfact>
</mgrwt>
</event>
<event>
 6    1  0.6513574E-002  0.3000000E+03  0.7818608E-02  0.1093470E+00
         21   -1    0    0  501  502  0.00000000000E+00  0.00000000000E+00  0.18512714924E+01  0.18512714924E+01  0.00000000000E+00 0. -1.
         13   -1    0    0    0    0 -0.00000000000E+00 -0.00000000000E+00 -0.10000000000E+04  0.10000000000E+04  0.00000000000E+00 0.  1.
    9000005    2    1    2  501    0 -0.37686185201E+02 -0.52429148689E+01 -0.73202063507E+03  0.73301693807E+03  0.34474068593E+01 0.  0.
         13    1    3    3    0    0 -0.14511616959E+02 -0.26771941914E+01 -0.25458857711E+03  0.25501587792E+03  0.00000000000E+00 0.  1.
          3    1    3    3  501    0 -0.23174568242E+02 -0.25657206775E+01 -0.47743205796E+03  0.47800106014E+03  0.00000000000E+00 0.  1.
         -3    1    1    2    0  502  0.37686185201E+02  0.52429148689E+01 -0.26612809344E+03  0.26883433343E+03  0.00000000000E+00 0. -1.
<mgrwt>
<rscale>  1 0.30000000E+03</rscale>
<asrwt>0</asrwt>
<pdfrwt beam="1">  1       21 0.67319105E-02 0.30000000E+03</pdfrwt>
<pdfrwt beam="2">0</pdfrwt>
<totfact> 0.17268238E+04</totfact>
</mgrwt>
</event>
<event>
 6    1  0.6513574E-002  0.3000000E+03  0.7818608E-02  0.1093470E+00
         21   -1    0    0  501  502  0.00000000000E+00  0.00000000000E+00  0.10131226151E+01  0.10131226151E+01  0.00000000000E+00 0. -1.
         13   -1    0    0    0    0 -0.00000000000E+00 -0.00000000000E+00 -0.10000000000E+04  0.10000000000E+04  0.00000000000E+00 0.  1.
    9000005    2    1    2  501    0  0.27724941319E+02 -0.14828228205E+02 -0.43297546317E+03  0.43412912236E+03  0.34343051184E+01 0.  0.
         13    1    3    3    0    0  0.21709350390E+02 -0.13149475221E+02 -0.34573652641E+03  0.34666691548E+03  0.00000000000E+00 0.  1.
          1    1    3    3  501    0  0.60155909291E+01 -0.16787529847E+01 -0.87238936756E+02  0.87462206879E+02  0.00000000000E+00 0.  1.
         -1    1    1    2    0  502 -0.27724941319E+02  0.14828228205E+02 -0.56601141422E+03  0.56688400026E+03  0.00000000000E+00 0. -1.
<mgrwt>
<rscale>  1 0.30000000E+03</rscale>
<asrwt>0</asrwt>
<pdfrwt beam="1">  1       21 0.36840900E-02 0.30000000E+03</pdfrwt>
<pdfrwt beam="2">0</pdfrwt>
<totfact> 0.48283383E+04</totfact>
</mgrwt>
</event>
<event>
 6    1  0.6513574E-002  0.3000000E+03  0.7818608E-02  0.1093470E+00
         21   -1    0    0  501  502  0.00000000000E+00  0.00000000000E+00  0.15888548362E+01  0.15888548362E+01  0.00000000000E+00 0. -1.
         13   -1    0    0    0    0 -0.00000000000E+00 -0.00000000000E+00 -0.10000000000E+04  0.10000000000E+04  0.00000000000E+00 0.  1.
    9000005    2    1    2  501    0 -0.38536950926E+02 -0.73346988539E+01 -0.41676176662E+03  0.41861810604E+03  0.34429918094E+01 0.  0.
         13    1    3    3    0    0 -0.70265053243E+01 -0.27124825223E+01 -0.79777519767E+02  0.80132278132E+02  0.00000000000E+00 0.  1.
          3    1    3    3  501    0 -0.31510445602E+02 -0.46222163316E+01 -0.33698424686E+03  0.33848582791E+03  0.00000000000E+00 0.  1.
         -3    1    1    2    0  502  0.38536950926E+02  0.73346988539E+01 -0.58164937854E+03  0.58297074879E+03  0.00000000000E+00 0. -1.
<mgrwt>
<rscale>  1 0.30000000E+03</rscale>
<asrwt>0</asrwt>
<pdfrwt beam="1">  1       21 0.57776661E-02 0.30000000E+03</pdfrwt>
<pdfrwt beam="2">0</pdfrwt>
<totfact> 0.22488470E+04</totfact>
</mgrwt>
</event>
<event>
 6    1  0.6513574E-002  0.3000000E+03  0.7818608E-02  0.1093470E+00
         21   -1    0    0  501  502  0.00000000000E+00  0.00000000000E+00  0.99677567461E+00  0.99677567461E+00  0.00000000000E+00 0. -1.
         13   -1    0    0    0    0 -0.00000000000E+00 -0.00000000000E+00 -0.10000000000E+04  0.10000000000E+04  0.00000000000E+00 0.  1.
    9000005    2    1    2  501    0  0.66143737601E+01 -0.29947704028E+02 -0.38867711718E+03  0.38990057050E+03  0.34552191449E+01 0.  0.
         13    1    3    3    0    0  0.20014795811E-01  0.94849050556E-01 -0.79949883550E+00  0.80535415962E+00  0.00000000000E+00 0.  1.
          3    1    3    3  501    0  0.65943589643E+01 -0.30042553078E+02 -0.38787761835E+03  0.38909521634E+03  0.00000000000E+00 0.  1.
         -1    1    1    2    0  502 -0.66143737601E+01  0.29947704028E+02 -0.61032610714E+03  0.61109620517E+03  0.00000000000E+00 0. -1.
<mgrwt>
<rscale>  1 0.30000000E+03</rscale>
<asrwt>0</asrwt>
<pdfrwt beam="1">  1       21 0.36246465E-02 0.30000000E+03</pdfrwt>
<pdfrwt beam="2">0</pdfrwt>
<totfact> 0.49619262E+04</totfact>
</mgrwt>
</event>
<event>
 6    1  0.6513574E-002  0.3000000E+03  0.7818608E-02  0.1093470E+00
         21   -1    0    0  501  502  0.00000000000E+00  0.00000000000E+00  0.18663746991E+01  0.18663746991E+01  0.00000000000E+00 0. -1.
         13   -1    0    0    0    0 -0.00000000000E+00 -0.00000000000E+00 -0.10000000000E+04  0.10000000000E+04  0.00000000000E+00 0.  1.
    9000005    2    1    2  501    0  0.18534195425E+02 -0.26087444455E+02 -0.16415760290E+03  0.16727660895E+03  0.31103300100E+01 0.  0.
         13    1    3    3    0    0  0.16378165089E+02 -0.24493922102E+02 -0.15131603140E+03  0.15415815863E+03  0.00000000000E+00 0.  1.
          3    1    3    3  501    0  0.21560303364E+01 -0.15935223524E+01 -0.12841571502E+02  0.13118450325E+02  0.00000000000E+00 0.  1.
         -3    1    1    2    0  502 -0.18534195425E+02  0.26087444455E+02 -0.83397602240E+03  0.83458976575E+03  0.00000000000E+00 0. -1.
<mgrwt>
<rscale>  1 0.30000000E+03</rscale>
<asrwt>0</asrwt>
<pdfrwt beam="1">  1       21 0.67868314E-02 0.30000000E+03</pdfrwt>
<pdfrwt beam="2">0</pdfrwt>
<totfact> 0.17026408E+04</totfact>
</mgrwt>
</event>
<event>
 6    1  0.6513574E-002  0.3000000E+03  0.7818608E-02  0.1093470E+00
         21   -1    0    0  501  502  0.00000000000E+00  0.00000000000E+00  0.22115278348E+01  0.22115278348E+01  0.00000000000E+00 0. -1.
         13   -1    0    0    0    0 -0.00000000000E+00 -0.00000000000E+00 -0.10000000000E+04  0.10000000000E+04  0.00000000000E+00 0.  1.
    9000005    2    1    2  501    0 -0.41368447175E+02 -0.18681762116E+02 -0.37093392201E+03  0.37371571743E+03  0.33326104385E+01 0.  0.
         13    1    3    3    0    0 -0.35046714188E+02 -0.14539612314E+02 -0.30600285334E+03  0.30834626438E+03  0.00000000000E+00 0.  1.
          1    1    3    3  501    0 -0.63217329867E+01 -0.41421498016E+01 -0.64931068674E+02  0.65369453050E+02  0.00000000000E+00 0.  1.
         -1    1    1    2    0  502  0.41368447175E+02  0.18681762116E+02 -0.62685455015E+03  0.62849581041E+03  0.00000000000E+00 0. -1.
<mgrwt>
<rscale>  1 0.30000000E+03</rscale>
<asrwt>0</asrwt>
<pdfrwt beam="1">  1       21 0.80419364E-02 0.30000000E+03</pdfrwt>
<pdfrwt beam="2">0</pdfrwt>
<totfact> 0.12657081E+04</totfact>
</mgrwt>
</event>
<event>
 6    1  0.6513574E-002  0.3000000E+03  0.7818608E-02  0.1093470E+00
         21   -1    0    0  501  502  0.00000000000E+00  0.00000000000E+00  0.17741528901E+01  0.17741528901E+01  0.00000000000E+00 0. -1.
         13   -1    0    0    0    0 -0.00000000000E+00 -0.00000000000E+00 -0.10000000000E+04  0.10000000000E+04  0.00000000000E+00 0.  1.
    9000005    2    1    2  501    0 -0.25572821947E+02  0.30981198470E+02 -0.37025618041E+03  0.37252086034E+03  0.82673079620E+01 0.  0.
         13    1    3    3    0    0 -0.18399897452E+02  0.16090434680E+02 -0.21247253973E+03  0.21387388446E+03  0.00000000000E+00 0.  1.
          3    1    3    3  501    0 -0.71729244947E+01  0.14890763791E+02 -0.15778364068E+03  0.15864697588E+03  0.00000000000E+00 0.  1.
         -1    1    1    2    0  502  0.25572821947E+02 -0.30981198470E+02 -0.62796966670E+03  0.62925329255E+03  0.00000000000E+00 0. -1.
<mgrwt>
<rscale>  1 0.30000000E+03</rscale>
<asrwt>0</asrwt>
<pdfrwt beam="1">  1       21 0.64514787E-02 0.30000000E+03</pdfrwt>
<pdfrwt beam="2">0</pdfrwt>
<totfact> 0.18589599E+04</totfact>
</mgrwt>
</event>
<event>
 6    1  0.6513574E-002  0.3000000E+03  0.7818608E-02  0.1093470E+00
         21   -1    0    0  501  502  0.00000000000E+00  0.00000000000E+00  0.17708123680E+01  0.17708123680E+01  0.00000000000E+00 0. -1.
         13   -1    0    0    0    0 -0.00000000000E+00 -0.00000000000E+00 -0.10000000000E+04  0.10000000000E+04  0.00000000000E+00 0.  1.
    9000005    2    1    2  501    0 -0.56330083262E+01  0.36511179631E+02 -0.26192547628E+03  0.26454089412E+03  0.34831755996E+01 0.  0.
         13    1    3    3    0    0 -0.18477614109E+01  0.13846323559E+02 -0.87429311998E+02  0.88538237473E+02  0.00000000000E+00 0.  1.
          1    1    3    3  501    0 -0.37852469153E+01  0.22664856072E+02 -0.17449616429E+03  0.17600265664E+03  0.00000000000E+00 0.  1.
         -3    1    1    2    0  502  0.56330083262E+01 -0.36511179631E+02 -0.73630371135E+03  0.73722991825E+03  0.00000000000E+00 0. -1.
<mgrwt>
<rscale>  1 0.30000000E+03</rscale>
<asrwt>0</asrwt>
<pdfrwt beam="1">  1       21 0.64393313E-02 0.30000000E+03</pdfrwt>
<pdfrwt beam="2">0</pdfrwt>
<totfact> 0.18650328E+04</totfact>
</mgrwt>
</event>
<event>
 6    1  0.6513574E-002  0.3000000E+03  0.7818608E-02  0.1093470E+00
         21   -1    0    0  501  502  0.00000000000E+00  0.00000000000E+00  0.13867195427E+01  0.13867195427E+01  0.00000000000E+00 0. -1.
         13   -1    0    0    0    0 -0.00000000000E+00 -0.00000000000E+00 -0.10000000000E+04  0.10000000000E+04  0.00000000000E+00 0.  1.
    9000005    2    1    2  501    0  0.30242047536E+02  0.13901994024E+01 -0.79018546652E+03  0.79077174449E+03  0.32196726097E+01 0.  0.
         13    1    3    3    0    0  0.18661868939E+00  0.11045726021E+00 -0.18755731885E+01  0.18880683586E+01  0.00000000000E+00 0.  1.
          3    1    3    3  501    0  0.30055428847E+02  0.12797421422E+01 -0.78830989333E+03  0.78888367613E+03  0.00000000000E+00 0.  1.
         -3    1    1    2    0  502 -0.30242047536E+02 -0.13901994024E+01 -0.20842781394E+03  0.21061497505E+03  0.00000000000E+00 0. -1.
<mgrwt>
<rscale>  1 0.30000000E+03</rscale>
<asrwt>0</asrwt>
<pdfrwt beam="1">  1       21 0.50426272E-02 0.30000000E+03</pdfrwt>
<pdfrwt beam="2">0</pdfrwt>
<totfact> 0.28390712E+04</totfact>
</mgrwt>
</event>
<event>
 6    1  0.6513574E-002  0.3000000E+03  0.7818608E-02  0.1093470E+00
         21   -1    0    0  501  502  0.00000000000E+00  0.00000000000E+00  0.12011973454E+01  0.12011973454E+01  0.00000000000E+00 0. -1.
         13   -1    0    0    0    0 -0.00000000000E+00 -0.00000000000E+00 -0.10000000000E+04  0.10000000000E+04  0.00000000000E+00 0.  1.
    9000005    2    1    2  501    0 -0.56616534468E+01 -0.32372263883E+02 -0.35245858908E+03  0.35402603599E+03  0.52306171237E+01 0.  0.
         13    1    3    3    0    0 -0.90738983653E+00 -0.21468420584E+01 -0.14606038048E+02  0.14790829408E+02  0.00000000000E+00 0.  1.
          3    1    3    3  501    0 -0.47542636102E+01 -0.30225421824E+02 -0.33785255103E+03  0.33923520658E+03  0.00000000000E+00 0.  1.
         -3    1    1    2    0  502  0.56616534468E+01  0.32372263883E+02 -0.64634021358E+03  0.64717516136E+03  0.00000000000E+00 0. -1.
<mgrwt>
<rscale>  1 0.30000000E+03</rscale>
<asrwt>0</asrwt>
<pdfrwt beam="1">  1       21 0.43679996E-02 0.30000000E+03</pdfrwt>
<pdfrwt beam="2">0</pdfrwt>
<totfact> 0.36241653E+04</totfact>
</mgrwt>
</event>
<event>
 6    1  0.6513574E-002  0.3000000E+03  0.7818608E-02  0.1093470E+00
         21   -1    0    0  501  502  0.00000000000E+00  0.00000000000E+00  0.11879674687E+01  0.11879674687E+01  0.00000000000E+00 0. -1.
         13   -1    0    0    0    0 -0.00000000000E+00 -0.00000000000E+00 -0.10000000000E+04  0.10000000000E+04  0.00000000000E+00 0.  1.
    9000005    2    1    2  501    0  0.11275552276E+02 -0.31087611124E+02 -0.36368344319E+03  0.36519905039E+03  0.33349532132E+01 0.  0.
         13    1    3    3    0    0  0.10669788384E+02 -0.29958438127E+02 -0.34109861395E+03  0.34257789893E+03  0.00000000000E+00 0.  1.
          1    1    3    3  501    0  0.60576389134E+00 -0.11291729968E+01 -0.22584829242E+02  0.22621151461E+02  0.00000000000E+00 0.  1.
         -3    1    1    2    0  502 -0.11275552276E+02  0.31087611124E+02 -0.63512858934E+03  0.63598891707E+03  0.00000000000E+00 0. -1.
<mgrwt>
<rscale>  1 0.30000000E+03</rscale>
<asrwt>0</asrwt>
<pdfrwt beam="1">  1       21 0.43198908E-02 0.30000000E+03</pdfrwt>
<pdfrwt beam="2">0</pdfrwt>
<totfact> 0.36927348E+04</totfact>
</mgrwt>
</event>
<event>
 6    1  0.6513574E-002  0.3000000E+03  0.7818608E-02  0.1093470E+00
         21   -1    0    0  501  502  0.00000000000E+00  0.00000000000E+00  0.21477021845E+01  0.21477021845E+01  0.00000000000E+00 0. -1.
         13   -1    0    0    0    0 -0.00000000000E+00 -0.00000000000E+00 -0.10000000000E+04  0.10000000000E+04  0.00000000000E+00 0.  1.
    9000005    2    1    2  501    0 -0.43038276520E+02 -0.12938372835E+02 -0.38133258813E+03  0.38399218198E+03  0.39696736520E+01 0.  0.
         13    1    3    3    0    0 -0.34314301683E+02 -0.11830131270E+02 -0.30170371866E+03  0.30387918185E+03  0.00000000000E+00 0.  1.
          3    1    3    3  501    0 -0.87239748372E+01 -0.11082415655E+01 -0.79628869472E+02  0.80113000130E+02  0.00000000000E+00 0.  1.
         -1    1    1    2    0  502  0.43038276520E+02  0.12938372835E+02 -0.61651970968E+03  0.61815552021E+03  0.00000000000E+00 0. -1.
<mgrwt>
<rscale>  1 0.30000000E+03</rscale>
<asrwt>0</asrwt>
<pdfrwt beam="1">  1       21 0.78098426E-02 0.30000000E+03</pdfrwt>
<pdfrwt beam="2">0</pdfrwt>
<totfact> 0.13324819E+04</totfact>
</mgrwt>
</event>
<event>
 6    1  0.6513574E-002  0.3000000E+03  0.7818608E-02  0.1093470E+00
         21   -1    0    0  501  502  0.00000000000E+00  0.00000000000E+00  0.10776248655E+01  0.10776248655E+01  0.00000000000E+00 0. -1.
         13   -1    0    0    0    0 -0.00000000000E+00 -0.00000000000E+00 -0.10000000000E+04  0.10000000000E+04  0.00000000000E+00 0.  1.
    9000005    2    1    2  501    0 -0.45932598973E+01 -0.31944896565E+02 -0.41861525115E+03  0.41987375995E+03  0.36974776251E+01 0.  0.
         13    1    3    3    0    0 -0.20352315123E+00 -0.69149353976E+01 -0.73891728515E+02  0.74214858999E+02  0.00000000000E+00 0.  1.
          3    1    3    3  501    0 -0.43897367461E+01 -0.25029961168E+02 -0.34472352264E+03  0.34565890095E+03  0.00000000000E+00 0.  1.
         -3    1    1    2    0  502  0.45932598973E+01  0.31944896565E+02 -0.58030712398E+03  0.58120386492E+03  0.00000000000E+00 0. -1.
<mgrwt>
<rscale>  1 0.30000000E+03</rscale>
<asrwt>0</asrwt>
<pdfrwt beam="1">  1       21 0.39186441E-02 0.30000000E+03</pdfrwt>
<pdfrwt beam="2">0</pdfrwt>
<totfact> 0.43527064E+04</totfact>
</mgrwt>
</event>
<event>
 6    1  0.6513574E-002  0.3000000E+03  0.7818608E-02  0.1093470E+00
         21   -1    0    0  501  502  0.00000000000E+00  0.00000000000E+00  0.13035651403E+01  0.13035651403E+01  0.00000000000E+00 0. -1.
         13   -1    0    0    0    0 -0.00000000000E+00 -0.00000000000E+00 -0.10000000000E+04  0.10000000000E+04  0.00000000000E+00 0.  1.
    9000005    2    1    2  501    0  0.31156480419E+02 -0.15613110294E+02 -0.37356772569E+03  0.37520421319E+03  0.32955170752E+01 0.  0.
         13    1    3    3    0    0  0.31938535271E+01 -0.55145657110E+00 -0.33202621485E+02  0.33360438819E+02  0.00000000000E+00 0.  1.
          1    1    3    3  501    0  0.27962626892E+02 -0.15061653723E+02 -0.34036510420E+03  0.34184377437E+03  0.00000000000E+00 0.  1.
         -3    1    1    2    0  502 -0.31156480419E+02  0.15613110294E+02 -0.62512870917E+03  0.62609935195E+03  0.00000000000E+00 0. -1.
<mgrwt>
<rscale>  1 0.30000000E+03</rscale>
<asrwt>0</asrwt>
<pdfrwt beam="1">  1       21 0.47402469E-02 0.30000000E+03</pdfrwt>
<pdfrwt beam="2">0</pdfrwt>
<totfact> 0.31543631E+04</totfact>
</mgrwt>
</event>
<event>
 6    1  0.6513574E-002  0.3000000E+03  0.7818608E-02  0.1093470E+00
         21   -1    0    0  501  502  0.00000000000E+00  0.00000000000E+00  0.10738323608E+01  0.10738323608E+01  0.00000000000E+00 0. -1.
         13   -1    0    0    0    0 -0.00000000000E+00 -0.00000000000E+00 -0.10000000000E+04  0.10000000000E+04  0.00000000000E+00 0.  1.
    9000005    2    1    2  501    0 -0.28668087476E+02 -0.14850214319E+02 -0.43698695878E+03  0.43820789578E+03  0.51156308583E+01 0.  0.
         13    1    3    3    0    0 -0.13446760553E+02 -0.53609726873E+01 -0.22379849227E+03  0.22426618234E+03  0.00000000000E+00 0.  1.
          3    1    3    3  501    0 -0.15221326923E+02 -0.94892416320E+01 -0.21318846650E+03  0.21394171344E+03  0.00000000000E+00 0.  1.
         -1    1    1    2    0  502  0.28668087476E+02  0.14850214319E+02 -0.56193920886E+03  0.56286593658E+03  0.00000000000E+00 0. -1.
<mgrwt>
<rscale>  1 0.30000000E+03</rscale>
<asrwt>0</asrwt>
<pdfrwt beam="1">  1       21 0.39048532E-02 0.30000000E+03</pdfrwt>
<pdfrwt beam="2">0</pdfrwt>
<totfact> 0.43785978E+04</totfact>
</mgrwt>
</event>
<event>
 6    1  0.6513574E-002  0.3000000E+03  0.7818608E-02  0.1093470E+00
         21   -1    0    0  501  502  0.00000000000E+00  0.00000000000E+00  0.11770126927E+01  0.11770126927E+01  0.00000000000E+00 0. -1.
         13   -1    0    0    0    0 -0.00000000000E+00 -0.00000000000E+00 -0.10000000000E+04  0.10000000000E+04  0.00000000000E+00 0.  1.
    9000005    2    1    2  501    0 -0.34106536173E+01 -0.30537151357E+02 -0.72072279042E+03  0.72138446511E+03  0.31710736149E+01 0.  0.
         13    1    3    3    0    0 -0.27606167234E+01 -0.12129480047E+02 -0.27472195254E+03  0.27500344816E+03  0.00000000000E+00 0.  1.
          1    1    3    3  501    0 -0.65003689395E+00 -0.18407671310E+02 -0.44600083788E+03  0.44638101696E+03  0.00000000000E+00 0.  1.
         -3    1    1    2    0  502  0.34106536173E+01  0.30537151357E+02 -0.27810019689E+03  0.27979254758E+03  0.00000000000E+00 0. -1.
<mgrwt>
<rscale>  1 0.30000000E+03</rscale>
<asrwt>0</asrwt>
<pdfrwt beam="1">  1       21 0.42800552E-02 0.30000000E+03</pdfrwt>
<pdfrwt beam="2">0</pdfrwt>
<totfact> 0.37510473E+04</totfact>
</mgrwt>
</event>
<event>
 6    1  0.6513574E-002  0.3000000E+03  0.7818608E-02  0.1093470E+00
         21   -1    0    0  501  502  0.00000000000E+00  0.00000000000E+00  0.28021912145E+01  0.28021912145E+01  0.00000000000E+00 0. -1.
         13   -1    0    0    0    0 -0.00000000000E+00 -0.00000000000E+00 -0.10000000000E+04  0.10000000000E+04  0.00000000000E+00 0.  1.
    9000005    2    1    2  501    0 -0.37214419706E+02  0.23861736510E+02 -0.22399338463E+03  0.22833503437E+03  0.30912873708E+01 0.  0.
         13    1    3    3    0    0 -0.29873311396E+02  0.18916044941E+02 -0.18512544786E+03  0.18847191551E+03  0.00000000000E+00 0.  1.
          3    1    3    3  501    0 -0.73411083102E+01  0.49456915697E+01 -0.38867936772E+02  0.39863118860E+02  0.00000000000E+00 0.  1.
         -1    1    1    2    0  502  0.37214419706E+02 -0.23861736510E+02 -0.77320442415E+03  0.77446715685E+03  0.00000000000E+00 0. -1.
<mgrwt>
<rscale>  1 0.30000000E+03</rscale>
<asrwt>0</asrwt>
<pdfrwt beam="1">  1       21 0.10189808E-01 0.30000000E+03</pdfrwt>
<pdfrwt beam="2">0</pdfrwt>
<totfact> 0.83187916E+03</totfact>
</mgrwt>
</event>
<event>
 6    1  0.6513574E-002  0.3000000E+03  0.7818608E-02  0.1093470E+00
         21   -1    0    0  501  502  0.00000000000E+00  0.00000000000E+00  0.27323589342E+01  0.27323589342E+01  0.00000000000E+00 0. -1.
         13   -1    0    0    0    0 -0.00000000000E+00 -0.00000000000E+00 -0.10000000000E+04  0.10000000000E+04  0.00000000000E+00 0.  1.
    9000005    2    1    2  501    0 -0.51013979045E+02  0.50668031558E+01 -0.59585896702E+03  0.59806333103E+03  0.19341103290E+01 0.  0.
         13    1    3    3    0    0 -0.30115500267E+01  0.72844035494E+00 -0.34055425797E+02  0.34196082891E+02  0.00000000000E+00 0.  1.
          1    1    3    3  501    0 -0.48002429018E+02  0.43383628009E+01 -0.56180354123E+03  0.56386724813E+03  0.00000000000E+00 0.  1.
         -1    1    1    2    0  502  0.51013979045E+02 -0.50668031558E+01 -0.40140867404E+03  0.40466902791E+03  0.00000000000E+00 0. -1.
<mgrwt>
<rscale>  1 0.30000000E+03</rscale>
<asrwt>0</asrwt>
<pdfrwt beam="1">  1       21 0.99358716E-02 0.30000000E+03</pdfrwt>
<pdfrwt beam="2">0</pdfrwt>
<totfact> 0.87026481E+03</totfact>
</mgrwt>
</event>
<event>
 6    1  0.6513574E-002  0.3000000E+03  0.7818608E-02  0.1093470E+00
         21   -1    0    0  501  502  0.00000000000E+00  0.00000000000E+00  0.13272959558E+01  0.13272959558E+01  0.00000000000E+00 0. -1.
         13   -1    0    0    0    0 -0.00000000000E+00 -0.00000000000E+00 -0.10000000000E+04  0.10000000000E+04  0.00000000000E+00 0.  1.
    9000005    2    1    2  501    0  0.22405358690E+02  0.20179790320E+02 -0.21981463609E+03  0.22188575610E+03  0.23644207218E+01 0.  0.
         13    1    3    3    0    0  0.18354664253E+02  0.17641073437E+02 -0.18321462413E+03  0.18497486226E+03  0.00000000000E+00 0.  1.
          1    1    3    3  501    0  0.40506944373E+01  0.25387168827E+01 -0.36600011960E+02  0.36910893844E+02  0.00000000000E+00 0.  1.
         -1    1    1    2    0  502 -0.22405358690E+02 -0.20179790320E+02 -0.77885806795E+03  0.77944153985E+03  0.00000000000E+00 0. -1.
<mgrwt>
<rscale>  1 0.30000000E+03</rscale>
<asrwt>0</asrwt>
<pdfrwt beam="1">  1       21 0.48265409E-02 0.30000000E+03</pdfrwt>
<pdfrwt beam="2">0</pdfrwt>
<totfact> 0.30590135E+04</totfact>
</mgrwt>
</event>
<event>
 6    1  0.6513574E-002  0.3000000E+03  0.7818608E-02  0.1093470E+00
         21   -1    0    0  501  502  0.00000000000E+00  0.00000000000E+00  0.19617093756E+01  0.19617093756E+01  0.00000000000E+00 0. -1.
         13   -1    0    0    0    0 -0.00000000000E+00 -0.00000000000E+00 -0.10000000000E+04  0.10000000000E+04  0.00000000000E+00 0.  1.
    9000005    2    1    2  501    0 -0.97450660535E+01 -0.42479628163E+02 -0.56289085936E+03  0.56463714792E+03  0.83369138441E+01 0.  0.
         13    1    3    3    0    0  0.11734243323E+01 -0.96251586631E+01 -0.13524704730E+03  0.13559419016E+03  0.00000000000E+00 0.  1.
          1    1    3    3  501    0 -0.10918490386E+02 -0.32854469500E+02 -0.42764381207E+03  0.42904295775E+03  0.00000000000E+00 0.  1.
         -3    1    1    2    0  502  0.97450660535E+01  0.42479628163E+02 -0.43514743126E+03  0.43732456146E+03  0.00000000000E+00 0. -1.
<mgrwt>
<rscale>  1 0.30000000E+03</rscale>
<asrwt>0</asrwt>
<pdfrwt beam="1">  1       21 0.71335037E-02 0.30000000E+03</pdfrwt>
<pdfrwt beam="2">0</pdfrwt>
<totfact> 0.15612999E+04</totfact>
</mgrwt>
</event>
<event>
 6    1  0.6513574E-002  0.3000000E+03  0.7818608E-02  0.1093470E+00
         21   -1    0    0  501  502  0.00000000000E+00  0.00000000000E+00  0.11545764216E+01  0.11545764216E+01  0.00000000000E+00 0. -1.
         13   -1    0    0    0    0 -0.00000000000E+00 -0.00000000000E+00 -0.10000000000E+04  0.10000000000E+04  0.00000000000E+00 0.  1.
    9000005    2    1    2  501    0 -0.13996977152E+02 -0.30417508132E+02 -0.53909689956E+03  0.54018836778E+03  0.75409151703E+01 0.  0.
         13    1    3    3    0    0 -0.35754235957E+01 -0.59653053135E+01 -0.71775960460E+02  0.72112114248E+02  0.00000000000E+00 0.  1.
          1    1    3    3  501    0 -0.10421553556E+02 -0.24452202819E+02 -0.46732093910E+03  0.46807625354E+03  0.00000000000E+00 0.  1.
         -3    1    1    2    0  502  0.13996977152E+02  0.30417508132E+02 -0.45974852402E+03  0.46096620864E+03  0.00000000000E+00 0. -1.
<mgrwt>
<rscale>  1 0.30000000E+03</rscale>
<asrwt>0</asrwt>
<pdfrwt beam="1">  1       21 0.41984686E-02 0.30000000E+03</pdfrwt>
<pdfrwt beam="2">0</pdfrwt>
<totfact> 0.38750314E+04</totfact>
</mgrwt>
</event>
<event>
 6    1  0.6513574E-002  0.3000000E+03  0.7818608E-02  0.1093470E+00
         21   -1    0    0  501  502  0.00000000000E+00  0.00000000000E+00  0.10994914848E+01  0.10994914848E+01  0.00000000000E+00 0. -1.
         13   -1    0    0    0    0 -0.00000000000E+00 -0.00000000000E+00 -0.10000000000E+04  0.10000000000E+04  0.00000000000E+00 0.  1.
    9000005    2    1    2  501    0  0.32409818601E+02  0.40493861351E+01 -0.56168311483E+03  0.56266381409E+03  0.59876818413E+01 0.  0.
         13    1    3    3    0    0  0.29145617583E+01  0.26749917724E+00 -0.87685930694E+02  0.87734763165E+02  0.00000000000E+00 0.  1.
          1    1    3    3  501    0  0.29495256842E+02  0.37818869579E+01 -0.47399718414E+03  0.47492905093E+03  0.00000000000E+00 0.  1.
         -3    1    1    2    0  502 -0.32409818601E+02 -0.40493861351E+01 -0.43721739369E+03  0.43843567739E+03  0.00000000000E+00 0. -1.
<mgrwt>
<rscale>  1 0.30000000E+03</rscale>
<asrwt>0</asrwt>
<pdfrwt beam="1">  1       21 0.39981593E-02 0.30000000E+03</pdfrwt>
<pdfrwt beam="2">0</pdfrwt>
<totfact> 0.42079928E+04</totfact>
</mgrwt>
</event>
<event>
 6    1  0.6513574E-002  0.3000000E+03  0.7818608E-02  0.1093470E+00
         21   -1    0    0  501  502  0.00000000000E+00  0.00000000000E+00  0.11830842680E+01  0.11830842680E+01  0.00000000000E+00 0. -1.
         13   -1    0    0    0    0 -0.00000000000E+00 -0.00000000000E+00 -0.10000000000E+04  0.10000000000E+04  0.00000000000E+00 0.  1.
    9000005    2    1    2  501    0  0.30345630940E+02  0.92110856849E+01 -0.69126824032E+03  0.69200370403E+03  0.34124623856E+01 0.  0.
         13    1    3    3    0    0  0.25525971277E+02  0.69496384622E+01 -0.59595120318E+03  0.59653810378E+03  0.00000000000E+00 0.  1.
          3    1    3    3  501    0  0.48196596631E+01  0.22614472227E+01 -0.95317037140E+02  0.95465600254E+02  0.00000000000E+00 0.  1.
         -3    1    1    2    0  502 -0.30345630940E+02 -0.92110856849E+01 -0.30754867541E+03  0.30917938023E+03  0.00000000000E+00 0. -1.
<mgrwt>
<rscale>  1 0.30000000E+03</rscale>
<asrwt>0</asrwt>
<pdfrwt beam="1">  1       21 0.43021337E-02 0.30000000E+03</pdfrwt>
<pdfrwt beam="2">0</pdfrwt>
<totfact> 0.37185532E+04</totfact>
</mgrwt>
</event>
<event>
 6    1  0.6513574E-002  0.3000000E+03  0.7818608E-02  0.1093470E+00
         21   -1    0    0  501  502  0.00000000000E+00  0.00000000000E+00  0.13050678416E+01  0.13050678416E+01  0.00000000000E+00 0. -1.
         13   -1    0    0    0    0 -0.00000000000E+00 -0.00000000000E+00 -0.10000000000E+04  0.10000000000E+04  0.00000000000E+00 0.  1.
    9000005    2    1    2  501    0  0.35500616406E+02 -0.65355285279E+01 -0.49955531699E+03  0.50086190191E+03  0.20305546996E+01 0.  0.
         13    1    3    3    0    0  0.92189428705E+01 -0.25345623369E+01 -0.12733012266E+03  0.12768857838E+03  0.00000000000E+00 0.  1.
          1    1    3    3  501    0  0.26281673535E+02 -0.40009661909E+01 -0.37222519433E+03  0.37317332352E+03  0.00000000000E+00 0.  1.
         -1    1    1    2    0  502 -0.35500616406E+02  0.65355285279E+01 -0.49913961517E+03  0.50044316593E+03  0.00000000000E+00 0. -1.
<mgrwt>
<rscale>  1 0.30000000E+03</rscale>
<asrwt>0</asrwt>
<pdfrwt beam="1">  1       21 0.47457112E-02 0.30000000E+03</pdfrwt>
<pdfrwt beam="2">0</pdfrwt>
<totfact> 0.31481882E+04</totfact>
</mgrwt>
</event>
<event>
 6    1  0.6513574E-002  0.3000000E+03  0.7818608E-02  0.1093470E+00
         21   -1    0    0  501  502  0.00000000000E+00  0.00000000000E+00  0.15845859164E+01  0.15845859164E+01  0.00000000000E+00 0. -1.
         13   -1    0    0    0    0 -0.00000000000E+00 -0.00000000000E+00 -0.10000000000E+04  0.10000000000E+04  0.00000000000E+00 0.  1.
    9000005    2    1    2  501    0  0.30360487000E+02 -0.20286557034E+02 -0.30378420184E+03  0.30599431529E+03  0.37915874048E+01 0.  0.
         13    1    3    3    0    0  0.28600322622E+02 -0.18442964062E+02 -0.28832091429E+03  0.29032235704E+03  0.00000000000E+00 0.  1.
          1    1    3    3  501    0  0.17601643778E+01 -0.18435929718E+01 -0.15463287545E+02  0.15671958250E+02  0.00000000000E+00 0.  1.
         -3    1    1    2    0  502 -0.30360487000E+02  0.20286557034E+02 -0.69463121225E+03  0.69559027063E+03  0.00000000000E+00 0. -1.
<mgrwt>
<rscale>  1 0.30000000E+03</rscale>
<asrwt>0</asrwt>
<pdfrwt beam="1">  1       21 0.57621428E-02 0.30000000E+03</pdfrwt>
<pdfrwt beam="2">0</pdfrwt>
<totfact> 0.22592859E+04</totfact>
</mgrwt>
</event>
<event>
 6    1  0.6513574E-002  0.3000000E+03  0.7818608E-02  0.1093470E+00
         21   -1    0    0  501  502  0.00000000000E+00  0.00000000000E+00  0.14195219508E+01  0.14195219508E+01  0.00000000000E+00 0. -1.
         13   -1    0    0    0    0 -0.00000000000E+00 -0.00000000000E+00 -0.10000000000E+04  0.10000000000E+04  0.00000000000E+00 0.  1.
    9000005    2    1    2  501    0 -0.33291333839E+02 -0.17117396561E+01 -0.26982927621E+03  0.27190628893E+03  0.37347960589E+01 0.  0.
         13    1    3    3    0    0 -0.60197194503E+01  0.11228220099E+01 -0.48179560927E+02  0.48567147772E+02  0.00000000000E+00 0.  1.
          1    1    3    3  501    0 -0.27271614388E+02 -0.28345616660E+01 -0.22164971528E+03  0.22333914116E+03  0.00000000000E+00 0.  1.
         -3    1    1    2    0  502  0.33291333839E+02  0.17117396561E+01 -0.72875120184E+03  0.72951323302E+03  0.00000000000E+00 0. -1.
<mgrwt>
<rscale>  1 0.30000000E+03</rscale>
<asrwt>0</asrwt>
<pdfrwt beam="1">  1       21 0.51619089E-02 0.30000000E+03</pdfrwt>
<pdfrwt beam="2">0</pdfrwt>
<totfact> 0.27280308E+04</totfact>
</mgrwt>
</event>
<event>
 6    1  0.6513574E-002  0.3000000E+03  0.7818608E-02  0.1093470E+00
         21   -1    0    0  501  502  0.00000000000E+00  0.00000000000E+00  0.14664049759E+01  0.14664049759E+01  0.00000000000E+00 0. -1.
         13   -1    0    0    0    0 -0.00000000000E+00 -0.00000000000E+00 -0.10000000000E+04  0.10000000000E+04  0.00000000000E+00 0.  1.
    9000005    2    1    2  501    0  0.36454021350E+02  0.66880949062E+01 -0.37617814373E+03  0.37800835985E+03  0.25880503624E+01 0.  0.
         13    1    3    3    0    0  0.31394639473E+02  0.49003179071E+01 -0.32511900816E+03  0.32666803635E+03  0.00000000000E+00 0.  1.
          3    1    3    3  501    0  0.50593818769E+01  0.17877769991E+01 -0.51059135569E+02  0.51340323495E+02  0.00000000000E+00 0.  1.
         -1    1    1    2    0  502 -0.36454021350E+02 -0.66880949062E+01 -0.62235545129E+03  0.62345804513E+03  0.00000000000E+00 0. -1.
<mgrwt>
<rscale>  1 0.30000000E+03</rscale>
<asrwt>0</asrwt>
<pdfrwt beam="1">  1       21 0.53323930E-02 0.30000000E+03</pdfrwt>
<pdfrwt beam="2">0</pdfrwt>
<totfact> 0.25806464E+04</totfact>
</mgrwt>
</event>
<event>
 6    1  0.6513574E-002  0.3000000E+03  0.7818608E-02  0.1093470E+00
         21   -1    0    0  501  502  0.00000000000E+00  0.00000000000E+00  0.51760728023E+01  0.51760728023E+01  0.00000000000E+00 0. -1.
         13   -1    0    0    0    0 -0.00000000000E+00 -0.00000000000E+00 -0.10000000000E+04  0.10000000000E+04  0.00000000000E+00 0.  1.
    9000005    2    1    2  501    0  0.27212646969E+02  0.29523949656E+02 -0.81810720224E+02  0.91280396116E+02  0.51889317890E+01 0.  0.
         13    1    3    3    0    0  0.20352697318E+02  0.23693011623E+02 -0.59011131576E+02  0.66767542547E+02  0.00000000000E+00 0.  1.
          3    1    3    3  501    0  0.68599496510E+01  0.58309380327E+01 -0.22799588648E+02  0.24512853569E+02  0.00000000000E+00 0.  1.
         -3    1    1    2    0  502 -0.27212646969E+02 -0.29523949656E+02 -0.91301320697E+03  0.91389567669E+03  0.00000000000E+00 0. -1.
<mgrwt>
<rscale>  1 0.30000000E+03</rscale>
<asrwt>0</asrwt>
<pdfrwt beam="1">  1       21 0.18822123E-01 0.30000000E+03</pdfrwt>
<pdfrwt beam="2">0</pdfrwt>
<totfact> 0.26926404E+03</totfact>
</mgrwt>
</event>
<event>
 6    1  0.6513574E-002  0.3000000E+03  0.7818608E-02  0.1093470E+00
         21   -1    0    0  501  502  0.00000000000E+00  0.00000000000E+00  0.11124598991E+01  0.11124598991E+01  0.00000000000E+00 0. -1.
         13   -1    0    0    0    0 -0.00000000000E+00 -0.00000000000E+00 -0.10000000000E+04  0.10000000000E+04  0.00000000000E+00 0.  1.
    9000005    2    1    2  501    0  0.27399805089E+02  0.17208209057E+02 -0.61744134057E+03  0.61829647942E+03  0.31393683323E+01 0.  0.
         13    1    3    3    0    0  0.21186638505E+01  0.20761280897E+01 -0.45336728199E+02  0.45433665582E+02  0.00000000000E+00 0.  1.
          3    1    3    3  501    0  0.25281141239E+02  0.15132080967E+02 -0.57210461237E+03  0.57286281383E+03  0.00000000000E+00 0.  1.
         -1    1    1    2    0  502 -0.27399805089E+02 -0.17208209057E+02 -0.38144619953E+03  0.38281598048E+03  0.00000000000E+00 0. -1.
<mgrwt>
<rscale>  1 0.30000000E+03</rscale>
<asrwt>0</asrwt>
<pdfrwt beam="1">  1       21 0.40453173E-02 0.30000000E+03</pdfrwt>
<pdfrwt beam="2">0</pdfrwt>
<totfact> 0.41256909E+04</totfact>
</mgrwt>
</event>
<event>
 6    1  0.6513574E-002  0.3000000E+03  0.7818608E-02  0.1093470E+00
         21   -1    0    0  501  502  0.00000000000E+00  0.00000000000E+00  0.14879149109E+01  0.14879149109E+01  0.00000000000E+00 0. -1.
         13   -1    0    0    0    0 -0.00000000000E+00 -0.00000000000E+00 -0.10000000000E+04  0.10000000000E+04  0.00000000000E+00 0.  1.
    9000005    2    1    2  501    0  0.95643459295E+01  0.28950788391E+02 -0.80413240991E+03  0.80473150971E+03  0.58519402419E+01 0.  0.
         13    1    3    3    0    0  0.81545473414E+01  0.22060700551E+02 -0.55161418739E+03  0.55211537099E+03  0.00000000000E+00 0.  1.
          3    1    3    3  501    0  0.14097985881E+01  0.68900878401E+01 -0.25251822251E+03  0.25261613872E+03  0.00000000000E+00 0.  1.
         -3    1    1    2    0  502 -0.95643459295E+01 -0.28950788391E+02 -0.19437967518E+03  0.19675640520E+03  0.00000000000E+00 0. -1.
<mgrwt>
<rscale>  1 0.30000000E+03</rscale>
<asrwt>0</asrwt>
<pdfrwt beam="1">  1       21 0.54106111E-02 0.30000000E+03</pdfrwt>
<pdfrwt beam="2">0</pdfrwt>
<totfact> 0.25171126E+04</totfact>
</mgrwt>
</event>
<event>
 6    1  0.6513574E-002  0.3000000E+03  0.7818608E-02  0.1093470E+00
         21   -1    0    0  501  502  0.00000000000E+00  0.00000000000E+00  0.99762855643E+00  0.99762855643E+00  0.00000000000E+00 0. -1.
         13   -1    0    0    0    0 -0.00000000000E+00 -0.00000000000E+00 -0.10000000000E+04  0.10000000000E+04  0.00000000000E+00 0.  1.
    9000005    2    1    2  501    0  0.91288588846E+01  0.29546225506E+02 -0.40648994600E+03  0.40767875155E+03  0.34018760577E+01 0.  0.
         13    1    3    3    0    0  0.52936614665E+01  0.12449574693E+02 -0.18986909663E+03  0.19035043634E+03  0.00000000000E+00 0.  1.
          1    1    3    3  501    0  0.38351974181E+01  0.17096650813E+02 -0.21662084937E+03  0.21732831521E+03  0.00000000000E+00 0.  1.
         -3    1    1    2    0  502 -0.91288588846E+01 -0.29546225506E+02 -0.59251242544E+03  0.59331887701E+03  0.00000000000E+00 0. -1.
<mgrwt>
<rscale>  1 0.30000000E+03</rscale>
<asrwt>0</asrwt>
<pdfrwt beam="1">  1       21 0.36277479E-02 0.30000000E+03</pdfrwt>
<pdfrwt beam="2">0</pdfrwt>
<totfact> 0.49548130E+04</totfact>
</mgrwt>
</event>
<event>
 6    1  0.6513574E-002  0.3000000E+03  0.7818608E-02  0.1093470E+00
         21   -1    0    0  501  502  0.00000000000E+00  0.00000000000E+00  0.20201165243E+01  0.20201165243E+01  0.00000000000E+00 0. -1.
         13   -1    0    0    0    0 -0.00000000000E+00 -0.00000000000E+00 -0.10000000000E+04  0.10000000000E+04  0.00000000000E+00 0.  1.
    9000005    2    1    2  501    0  0.43862349916E+02  0.66695524554E+01 -0.54245448600E+03  0.54433924909E+03  0.89420382575E+01 0.  0.
         13    1    3    3    0    0  0.34168476080E+02  0.66558139630E+01 -0.37808109957E+03  0.37968026347E+03  0.00000000000E+00 0.  1.
          1    1    3    3  501    0  0.96938738364E+01  0.13738492381E-01 -0.16437338643E+03  0.16465898562E+03  0.00000000000E+00 0.  1.
         -1    1    1    2    0  502 -0.43862349916E+02 -0.66695524554E+01 -0.45552539748E+03  0.45768086744E+03  0.00000000000E+00 0. -1.
<mgrwt>
<rscale>  1 0.30000000E+03</rscale>
<asrwt>0</asrwt>
<pdfrwt beam="1">  1       21 0.73458938E-02 0.30000000E+03</pdfrwt>
<pdfrwt beam="2">0</pdfrwt>
<totfact> 0.14833603E+04</totfact>
</mgrwt>
</event>
<event>
 6    1  0.6513574E-002  0.3000000E+03  0.7818608E-02  0.1093470E+00
         21   -1    0    0  501  502  0.00000000000E+00  0.00000000000E+00  0.15639728824E+01  0.15639728824E+01  0.00000000000E+00 0. -1.
         13   -1    0    0    0    0 -0.00000000000E+00 -0.00000000000E+00 -0.10000000000E+04  0.10000000000E+04  0.00000000000E+00 0.  1.
    9000005    2    1    2  501    0  0.31204994462E+02  0.15423125665E+02 -0.73600125228E+03  0.73683083266E+03  0.31950156850E+01 0.  0.
         13    1    3    3    0    0  0.30677330141E+02  0.15540974270E+02 -0.72756660556E+03  0.72837887531E+03  0.00000000000E+00 0.  1.
          3    1    3    3  501    0  0.52766432030E+00 -0.11784860467E+00 -0.84346467162E+01  0.84519573565E+01  0.00000000000E+00 0.  1.
         -1    1    1    2    0  502 -0.31204994462E+02 -0.15423125665E+02 -0.26243477484E+03  0.26473314022E+03  0.00000000000E+00 0. -1.
<mgrwt>
<rscale>  1 0.30000000E+03</rscale>
<asrwt>0</asrwt>
<pdfrwt beam="1">  1       21 0.56871861E-02 0.30000000E+03</pdfrwt>
<pdfrwt beam="2">0</pdfrwt>
<totfact> 0.23107504E+04</totfact>
</mgrwt>
</event>
<event>
 6    1  0.6513574E-002  0.3000000E+03  0.7818608E-02  0.1093470E+00
         21   -1    0    0  501  502  0.00000000000E+00  0.00000000000E+00  0.37553732754E+01  0.37553732754E+01  0.00000000000E+00 0. -1.
         13   -1    0    0    0    0 -0.00000000000E+00 -0.00000000000E+00 -0.10000000000E+04  0.10000000000E+04  0.00000000000E+00 0.  1.
    9000005    2    1    2  501    0  0.47321257760E+02 -0.11903531718E+02 -0.19546828649E+03  0.20149373105E+03  0.32980489082E+01 0.  0.
         13    1    3    3    0    0  0.40737514618E+01 -0.34109111028E+00 -0.13944383455E+02  0.14531263677E+02  0.00000000000E+00 0.  1.
          3    1    3    3  501    0  0.43247506298E+02 -0.11562440608E+02 -0.18152390303E+03  0.18696246737E+03  0.00000000000E+00 0.  1.
         -3    1    1    2    0  502 -0.47321257760E+02  0.11903531718E+02 -0.80077634024E+03  0.80226164223E+03  0.00000000000E+00 0. -1.
<mgrwt>
<rscale>  1 0.30000000E+03</rscale>
<asrwt>0</asrwt>
<pdfrwt beam="1">  1       21 0.13655932E-01 0.30000000E+03</pdfrwt>
<pdfrwt beam="2">0</pdfrwt>
<totfact> 0.48951996E+03</totfact>
</mgrwt>
</event>
<event>
 6    1  0.6513574E-002  0.3000000E+03  0.7818608E-02  0.1093470E+00
         21   -1    0    0  501  502  0.00000000000E+00  0.00000000000E+00  0.15019304943E+01  0.15019304943E+01  0.00000000000E+00 0. -1.
         13   -1    0    0    0    0 -0.00000000000E+00 -0.00000000000E+00 -0.10000000000E+04  0.10000000000E+04  0.00000000000E+00 0.  1.
    9000005    2    1    2  501    0 -0.35252394970E+02  0.80441078844E+01 -0.67733406795E+03  0.67830886912E+03  0.37474396034E+01 0.  0.
         13    1    3    3    0    0 -0.20736161444E+01  0.13133694869E+01 -0.38168162386E+02  0.38247005677E+02  0.00000000000E+00 0.  1.
          1    1    3    3  501    0 -0.33178778826E+02  0.67307383975E+01 -0.63916590557E+03  0.64006186345E+03  0.00000000000E+00 0.  1.
         -3    1    1    2    0  502  0.35252394970E+02 -0.80441078844E+01 -0.32116400155E+03  0.32319306137E+03  0.00000000000E+00 0. -1.
<mgrwt>
<rscale>  1 0.30000000E+03</rscale>
<asrwt>0</asrwt>
<pdfrwt beam="1">  1       21 0.54615770E-02 0.30000000E+03</pdfrwt>
<pdfrwt beam="2">0</pdfrwt>
<totfact> 0.24770046E+04</totfact>
</mgrwt>
</event>
<event>
 6    1  0.6513574E-002  0.3000000E+03  0.7818608E-02  0.1093470E+00
         21   -1    0    0  501  502  0.00000000000E+00  0.00000000000E+00  0.21593141058E+01  0.21593141058E+01  0.00000000000E+00 0. -1.
         13   -1    0    0    0    0 -0.00000000000E+00 -0.00000000000E+00 -0.10000000000E+04  0.10000000000E+04  0.00000000000E+00 0.  1.
    9000005    2    1    2  501    0  0.19851056180E+02  0.38821407936E+02 -0.33133512449E+03  0.33422905612E+03  0.49931043201E+01 0.  0.
         13    1    3    3    0    0  0.70151598928E+01  0.17369826889E+02 -0.15602277006E+03  0.15714333626E+03  0.00000000000E+00 0.  1.
          1    1    3    3  501    0  0.12835896288E+02  0.21451581047E+02 -0.17531235443E+03  0.17708571986E+03  0.00000000000E+00 0.  1.
         -1    1    1    2    0  502 -0.19851056180E+02 -0.38821407936E+02 -0.66650556140E+03  0.66793025798E+03  0.00000000000E+00 0. -1.
<mgrwt>
<rscale>  1 0.30000000E+03</rscale>
<asrwt>0</asrwt>
<pdfrwt beam="1">  1       21 0.78520679E-02 0.30000000E+03</pdfrwt>
<pdfrwt beam="2">0</pdfrwt>
<totfact> 0.13199359E+04</totfact>
</mgrwt>
</event>
<event>
 6    1  0.6513574E-002  0.3000000E+03  0.7818608E-02  0.1093470E+00
         21   -1    0    0  501  502  0.00000000000E+00  0.00000000000E+00  0.11893399163E+01  0.11893399163E+01  0.00000000000E+00 0. -1.
         13   -1    0    0    0    0 -0.00000000000E+00 -0.00000000000E+00 -0.10000000000E+04  0.10000000000E+04  0.00000000000E+00 0.  1.
    9000005    2    1    2  501    0  0.17503128203E+01 -0.33667596900E+02 -0.52664221191E+03  0.52781885696E+03  0.10205671435E+02 0.  0.
         13    1    3    3    0    0  0.14294272959E+01 -0.34396926612E+02 -0.51428987242E+03  0.51544084500E+03  0.00000000000E+00 0.  1.
          3    1    3    3  501    0  0.32088552441E+00  0.72932971175E+00 -0.12352339486E+02  0.12378011962E+02  0.00000000000E+00 0.  1.
         -1    1    1    2    0  502 -0.17503128203E+01  0.33667596900E+02 -0.47216844818E+03  0.47337048295E+03  0.00000000000E+00 0. -1.
<mgrwt>
<rscale>  1 0.30000000E+03</rscale>
<asrwt>0</asrwt>
<pdfrwt beam="1">  1       21 0.43248815E-02 0.30000000E+03</pdfrwt>
<pdfrwt beam="2">0</pdfrwt>
<totfact> 0.36855285E+04</totfact>
</mgrwt>
</event>
<event>
 6    1  0.6513574E-002  0.3000000E+03  0.7818608E-02  0.1093470E+00
         21   -1    0    0  501  502  0.00000000000E+00  0.00000000000E+00  0.37784868612E+01  0.37784868612E+01  0.00000000000E+00 0. -1.
         13   -1    0    0    0    0 -0.00000000000E+00 -0.00000000000E+00 -0.10000000000E+04  0.10000000000E+04  0.00000000000E+00 0.  1.
    9000005    2    1    2  501    0  0.12814114410E+02 -0.58923624479E+02 -0.59344939141E+03  0.59651741937E+03  0.38283678743E+01 0.  0.
         13    1    3    3    0    0  0.42828089152E+01 -0.27004829344E+02 -0.27966110430E+03  0.28099454891E+03  0.00000000000E+00 0.  1.
          3    1    3    3  501    0  0.85313054951E+01 -0.31918795134E+02 -0.31378828710E+03  0.31552287045E+03  0.00000000000E+00 0.  1.
         -1    1    1    2    0  502 -0.12814114410E+02  0.58923624479E+02 -0.40277212173E+03  0.40726106749E+03  0.00000000000E+00 0. -1.
<mgrwt>
<rscale>  1 0.30000000E+03</rscale>
<asrwt>0</asrwt>
<pdfrwt beam="1">  1       21 0.13739981E-01 0.30000000E+03</pdfrwt>
<pdfrwt beam="2">0</pdfrwt>
<totfact> 0.48404296E+03</totfact>
</mgrwt>
</event>
<event>
 6    1  0.6513574E-002  0.3000000E+03  0.7818608E-02  0.1093470E+00
         21   -1    0    0  501  502  0.00000000000E+00  0.00000000000E+00  0.10604730333E+01  0.10604730333E+01  0.00000000000E+00 0. -1.
         13   -1    0    0    0    0 -0.00000000000E+00 -0.00000000000E+00 -0.10000000000E+04  0.10000000000E+04  0.00000000000E+00 0.  1.
    9000005    2    1    2  501    0  0.17138066636E+02 -0.26700365247E+02 -0.39352037576E+03  0.39481054810E+03  0.32341801517E+01 0.  0.
         13    1    3    3    0    0  0.46729279613E+01 -0.93802053498E+01 -0.11739001767E+03  0.11785686554E+03  0.00000000000E+00 0.  1.
          3    1    3    3  501    0  0.12465138675E+02 -0.17320159897E+02 -0.27613035809E+03  0.27695368255E+03  0.00000000000E+00 0.  1.
         -1    1    1    2    0  502 -0.17138066636E+02  0.26700365247E+02 -0.60541915121E+03  0.60624992494E+03  0.00000000000E+00 0. -1.
<mgrwt>
<rscale>  1 0.30000000E+03</rscale>
<asrwt>0</asrwt>
<pdfrwt beam="1">  1       21 0.38562737E-02 0.30000000E+03</pdfrwt>
<pdfrwt beam="2">0</pdfrwt>
<totfact> 0.44717530E+04</totfact>
</mgrwt>
</event>
<event>
 6    1  0.6513574E-002  0.3000000E+03  0.7818608E-02  0.1093470E+00
         21   -1    0    0  501  502  0.00000000000E+00  0.00000000000E+00  0.11259336443E+01  0.11259336443E+01  0.00000000000E+00 0. -1.
         13   -1    0    0    0    0 -0.00000000000E+00 -0.00000000000E+00 -0.10000000000E+04  0.10000000000E+04  0.00000000000E+00 0.  1.
    9000005    2    1    2  501    0  0.30426208254E+02  0.10935050408E+02 -0.38854596920E+03  0.38994206961E+03  0.64434459202E+01 0.  0.
         13    1    3    3    0    0  0.68702101321E+01  0.19417752360E+01 -0.58427568501E+02  0.58862135871E+02  0.00000000000E+00 0.  1.
          1    1    3    3  501    0  0.23555998122E+02  0.89932751722E+01 -0.33011840070E+03  0.33107993374E+03  0.00000000000E+00 0.  1.
         -1    1    1    2    0  502 -0.30426208254E+02 -0.10935050408E+02 -0.61032809716E+03  0.61118386403E+03  0.00000000000E+00 0. -1.
<mgrwt>
<rscale>  1 0.30000000E+03</rscale>
<asrwt>0</asrwt>
<pdfrwt beam="1">  1       21 0.40943128E-02 0.30000000E+03</pdfrwt>
<pdfrwt beam="2">0</pdfrwt>
<totfact> 0.40428150E+04</totfact>
</mgrwt>
</event>
<event>
 6    1  0.6513574E-002  0.3000000E+03  0.7818608E-02  0.1093470E+00
         21   -1    0    0  501  502  0.00000000000E+00  0.00000000000E+00  0.24650297543E+01  0.24650297543E+01  0.00000000000E+00 0. -1.
         13   -1    0    0    0    0 -0.00000000000E+00 -0.00000000000E+00 -0.10000000000E+04  0.10000000000E+04  0.00000000000E+00 0.  1.
    9000005    2    1    2  501    0 -0.34611898166E+02 -0.71161264947E+01 -0.85056289135E+03  0.85130480111E+03  0.37429251611E+01 0.  0.
         13    1    3    3    0    0 -0.22723118630E+02 -0.58827982711E+01 -0.59420241226E+03  0.59466583404E+03  0.00000000000E+00 0.  1.
          1    1    3    3  501    0 -0.11888779535E+02 -0.12333282235E+01 -0.25636047909E+03  0.25663896707E+03  0.00000000000E+00 0.  1.
         -3    1    1    2    0  502  0.34611898166E+02  0.71161264947E+01 -0.14697207889E+03  0.15116022865E+03  0.00000000000E+00 0. -1.
<mgrwt>
<rscale>  1 0.30000000E+03</rscale>
<asrwt>0</asrwt>
<pdfrwt beam="1">  1       21 0.89637635E-02 0.30000000E+03</pdfrwt>
<pdfrwt beam="2">0</pdfrwt>
<totfact> 0.10452520E+04</totfact>
</mgrwt>
</event>
<event>
 6    1  0.6513574E-002  0.3000000E+03  0.7818608E-02  0.1093470E+00
         21   -1    0    0  501  502  0.00000000000E+00  0.00000000000E+00  0.11221122916E+01  0.11221122916E+01  0.00000000000E+00 0. -1.
         13   -1    0    0    0    0 -0.00000000000E+00 -0.00000000000E+00 -0.10000000000E+04  0.10000000000E+04  0.00000000000E+00 0.  1.
    9000005    2    1    2  501    0 -0.32565783780E+02  0.25621016495E+01 -0.39527944268E+03  0.39664036941E+03  0.32634645866E+01 0.  0.
         13    1    3    3    0    0 -0.19339031555E+01 -0.49977832552E+00 -0.29684591956E+02  0.29751718595E+02  0.00000000000E+00 0.  1.
          3    1    3    3  501    0 -0.30631880625E+02  0.30618799750E+01 -0.36559485073E+03  0.36688865082E+03  0.00000000000E+00 0.  1.
         -3    1    1    2    0  502  0.32565783780E+02 -0.25621016495E+01 -0.60359844503E+03  0.60448174288E+03  0.00000000000E+00 0. -1.
<mgrwt>
<rscale>  1 0.30000000E+03</rscale>
<asrwt>0</asrwt>
<pdfrwt beam="1">  1       21 0.40804169E-02 0.30000000E+03</pdfrwt>
<pdfrwt beam="2">0</pdfrwt>
<totfact> 0.40660540E+04</totfact>
</mgrwt>
</event>
<event>
 6    1  0.6513574E-002  0.3000000E+03  0.7818608E-02  0.1093470E+00
         21   -1    0    0  501  502  0.00000000000E+00  0.00000000000E+00  0.15439671692E+01  0.15439671692E+01  0.00000000000E+00 0. -1.
         13   -1    0    0    0    0 -0.00000000000E+00 -0.00000000000E+00 -0.10000000000E+04  0.10000000000E+04  0.00000000000E+00 0.  1.
    9000005    2    1    2  501    0 -0.42506710924E+01  0.38288857825E+02 -0.59391040096E+03  0.59516818898E+03  0.33917487098E+01 0.  0.
         13    1    3    3    0    0 -0.66753931823E+00  0.95085403438E+00 -0.16891774637E+02  0.16931679850E+02  0.00000000000E+00 0.  1.
          1    1    3    3  501    0 -0.35831317742E+01  0.37338003791E+02 -0.57701862633E+03  0.57823650913E+03  0.00000000000E+00 0.  1.
         -1    1    1    2    0  502  0.42506710924E+01 -0.38288857825E+02 -0.40454563187E+03  0.40637577819E+03  0.00000000000E+00 0. -1.
<mgrwt>
<rscale>  1 0.30000000E+03</rscale>
<asrwt>0</asrwt>
<pdfrwt beam="1">  1       21 0.56144379E-02 0.30000000E+03</pdfrwt>
<pdfrwt beam="2">0</pdfrwt>
<totfact> 0.23624372E+04</totfact>
</mgrwt>
</event>
<event>
 6    1  0.6513574E-002  0.3000000E+03  0.7818608E-02  0.1093470E+00
         21   -1    0    0  501  502  0.00000000000E+00  0.00000000000E+00  0.22494475729E+01  0.22494475729E+01  0.00000000000E+00 0. -1.
         13   -1    0    0    0    0 -0.00000000000E+00 -0.00000000000E+00 -0.10000000000E+04  0.10000000000E+04  0.00000000000E+00 0.  1.
    9000005    2    1    2  501    0  0.31699835057E+02 -0.33559103623E+02 -0.38785159655E+03  0.39060589995E+03  0.36076508320E+01 0.  0.
         13    1    3    3    0    0  0.10661714133E+02 -0.13181711348E+02 -0.13260822615E+03  0.13368758845E+03  0.00000000000E+00 0.  1.
          1    1    3    3  501    0  0.21038120923E+02 -0.20377392275E+02 -0.25524337040E+03  0.25691831150E+03  0.00000000000E+00 0.  1.
         -3    1    1    2    0  502 -0.31699835057E+02  0.33559103623E+02 -0.60989895587E+03  0.61164354763E+03  0.00000000000E+00 0. -1.
<mgrwt>
<rscale>  1 0.30000000E+03</rscale>
<asrwt>0</asrwt>
<pdfrwt beam="1">  1       21 0.81798266E-02 0.30000000E+03</pdfrwt>
<pdfrwt beam="2">0</pdfrwt>
<totfact> 0.12284411E+04</totfact>
</mgrwt>
</event>
<event>
 6    1  0.6513574E-002  0.3000000E+03  0.7818608E-02  0.1093470E+00
         21   -1    0    0  501  502  0.00000000000E+00  0.00000000000E+00  0.95327143277E+00  0.95327143277E+00  0.00000000000E+00 0. -1.
         13   -1    0    0    0    0 -0.00000000000E+00 -0.00000000000E+00 -0.10000000000E+04  0.10000000000E+04  0.00000000000E+00 0.  1.
    9000005    2    1    2  501    0  0.20385222347E+02  0.22949884018E+02 -0.46964940563E+03  0.47066676396E+03  0.37926281653E+01 0.  0.
         13    1    3    3    0    0  0.16473719640E+02  0.18676214055E+02 -0.40147309021E+03  0.40224473467E+03  0.00000000000E+00 0.  1.
          1    1    3    3  501    0  0.39115027079E+01  0.42736699639E+01 -0.68176315419E+02  0.68422029292E+02  0.00000000000E+00 0.  1.
         -1    1    1    2    0  502 -0.20385222347E+02 -0.22949884018E+02 -0.52939732294E+03  0.53028650747E+03  0.00000000000E+00 0. -1.
<mgrwt>
<rscale>  1 0.30000000E+03</rscale>
<asrwt>0</asrwt>
<pdfrwt beam="1">  1       21 0.34664489E-02 0.30000000E+03</pdfrwt>
<pdfrwt beam="2">0</pdfrwt>
<totfact> 0.53472042E+04</totfact>
</mgrwt>
</event>
<event>
 6    1  0.6513574E-002  0.3000000E+03  0.7818608E-02  0.1093470E+00
         21   -1    0    0  501  502  0.00000000000E+00  0.00000000000E+00  0.10510616954E+01  0.10510616954E+01  0.00000000000E+00 0. -1.
         13   -1    0    0    0    0 -0.00000000000E+00 -0.00000000000E+00 -0.10000000000E+04  0.10000000000E+04  0.00000000000E+00 0.  1.
    9000005    2    1    2  501    0 -0.14974270303E+02  0.28513234929E+02 -0.54053780430E+03  0.54150998506E+03  0.38357141794E+01 0.  0.
         13    1    3    3    0    0 -0.49760712569E+01  0.12005311767E+02 -0.19345587190E+03  0.19389188526E+03  0.00000000000E+00 0.  1.
          3    1    3    3  501    0 -0.99981990457E+01  0.16507923162E+02 -0.34708193239E+03  0.34761809979E+03  0.00000000000E+00 0.  1.
         -1    1    1    2    0  502  0.14974270303E+02 -0.28513234929E+02 -0.45841113401E+03  0.45954107664E+03  0.00000000000E+00 0. -1.
<mgrwt>
<rscale>  1 0.30000000E+03</rscale>
<asrwt>0</asrwt>
<pdfrwt beam="1">  1       21 0.38220506E-02 0.30000000E+03</pdfrwt>
<pdfrwt beam="2">0</pdfrwt>
<totfact> 0.45392601E+04</totfact>
</mgrwt>
</event>
<event>
 6    1  0.6513574E-002  0.3000000E+03  0.7818608E-02  0.1093470E+00
         21   -1    0    0  501  502  0.00000000000E+00  0.00000000000E+00  0.18973693707E+01  0.18973693707E+01  0.00000000000E+00 0. -1.
         13   -1    0    0    0    0 -0.00000000000E+00 -0.00000000000E+00 -0.10000000000E+04  0.10000000000E+04  0.00000000000E+00 0.  1.
    9000005    2    1    2  501    0  0.28480708709E+02 -0.28799442822E+02 -0.68230317626E+03  0.68351104106E+03  0.30265889309E+01 0.  0.
         13    1    3    3    0    0  0.25676288034E+02 -0.26110920009E+02 -0.60037851685E+03  0.60149431868E+03  0.00000000000E+00 0.  1.
          1    1    3    3  501    0  0.28044206749E+01 -0.26885228128E+01 -0.81924659410E+02  0.82016722378E+02  0.00000000000E+00 0.  1.
         -3    1    1    2    0  502 -0.28480708709E+02  0.28799442822E+02 -0.31579945437E+03  0.31838632831E+03  0.00000000000E+00 0. -1.
<mgrwt>
<rscale>  1 0.30000000E+03</rscale>
<asrwt>0</asrwt>
<pdfrwt beam="1">  1       21 0.68995395E-02 0.30000000E+03</pdfrwt>
<pdfrwt beam="2">0</pdfrwt>
<totfact> 0.16546118E+04</totfact>
</mgrwt>
</event>
<event>
 6    1  0.8230878E-002  0.3000000E+03  0.7818608E-02  0.1093470E+00
         21   -1    0    0  501  502  0.00000000000E+00  0.00000000000E+00  0.23819638308E+01  0.23819638308E+01  0.00000000000E+00 0. -1.
         13   -1    0    0    0    0 -0.00000000000E+00 -0.00000000000E+00 -0.10000000000E+04  0.10000000000E+04  0.00000000000E+00 0.  1.
    9000005    2    1    2  501    0  0.39900967481E+02 -0.26765377043E+02 -0.56198990115E+03  0.56411224706E+03  0.90280495806E+01 0.  0.
         13    1    3    3    0    0  0.37423128487E+02 -0.27291975326E+02 -0.52763349713E+03  0.52966258104E+03  0.00000000000E+00 0.  1.
          3    1    3    3  501    0  0.24778389938E+01  0.52659828328E+00 -0.34356404017E+02  0.34449666019E+02  0.00000000000E+00 0.  1.
         -3    1    1    2    0  502 -0.39900967481E+02  0.26765377043E+02 -0.43562813502E+03  0.43826971677E+03  0.00000000000E+00 0. -1.
<mgrwt>
<rscale>  1 0.30000000E+03</rscale>
<asrwt>0</asrwt>
<pdfrwt beam="1">  1       21 0.86617049E-02 0.30000000E+03</pdfrwt>
<pdfrwt beam="2">0</pdfrwt>
<totfact> 0.11105731E+04</totfact>
</mgrwt>
</event>
<event>
 6    1  0.6513574E-002  0.3000000E+03  0.7818608E-02  0.1093470E+00
         21   -1    0    0  501  502  0.00000000000E+00  0.00000000000E+00  0.11506895278E+01  0.11506895278E+01  0.00000000000E+00 0. -1.
         13   -1    0    0    0    0 -0.00000000000E+00 -0.00000000000E+00 -0.10000000000E+04  0.10000000000E+04  0.00000000000E+00 0.  1.
    9000005    2    1    2  501    0 -0.18027102722E+02  0.24573687153E+02 -0.71766786115E+03  0.71832238476E+03  0.33237015732E+01 0.  0.
         13    1    3    3    0    0 -0.13745823217E+02  0.19815312732E+02 -0.59326139189E+03  0.59375135653E+03  0.00000000000E+00 0.  1.
          3    1    3    3  501    0 -0.42812795052E+01  0.47583744206E+01 -0.12440646926E+03  0.12457102823E+03  0.00000000000E+00 0.  1.
         -3    1    1    2    0  502  0.18027102722E+02 -0.24573687153E+02 -0.28118144932E+03  0.28282830477E+03  0.00000000000E+00 0. -1.
<mgrwt>
<rscale>  1 0.30000000E+03</rscale>
<asrwt>0</asrwt>
<pdfrwt beam="1">  1       21 0.41843344E-02 0.30000000E+03</pdfrwt>
<pdfrwt beam="2">0</pdfrwt>
<totfact> 0.38971576E+04</totfact>
</mgrwt>
</event>
<event>
 6    1  0.6513574E-002  0.3000000E+03  0.7818608E-02  0.1093470E+00
         21   -1    0    0  501  502  0.00000000000E+00  0.00000000000E+00  0.11676419369E+01  0.11676419369E+01  0.00000000000E+00 0. -1.
         13   -1    0    0    0    0 -0.00000000000E+00 -0.00000000000E+00 -0.10000000000E+04  0.10000000000E+04  0.00000000000E+00 0.  1.
    9000005    2    1    2  501    0 -0.31437350748E+02 -0.81665685499E+01 -0.34932088418E+03  0.35084452643E+03  0.34353651554E+01 0.  0.
         13    1    3    3    0    0 -0.21928912292E+02 -0.64873961814E+01 -0.23028806687E+03  0.23142073643E+03  0.00000000000E+00 0.  1.
          1    1    3    3  501    0 -0.95084384563E+01 -0.16791723686E+01 -0.11903281731E+03  0.11942379000E+03  0.00000000000E+00 0.  1.
         -1    1    1    2    0  502  0.31437350748E+02  0.81665685499E+01 -0.64951147388E+03  0.65032311551E+03  0.00000000000E+00 0. -1.
<mgrwt>
<rscale>  1 0.30000000E+03</rscale>
<asrwt>0</asrwt>
<pdfrwt beam="1">  1       21 0.42459796E-02 0.30000000E+03</pdfrwt>
<pdfrwt beam="2">0</pdfrwt>
<totfact> 0.38020703E+04</totfact>
</mgrwt>
</event>
<event>
 6    1  0.6513574E-002  0.3000000E+03  0.7818608E-02  0.1093470E+00
         21   -1    0    0  501  502  0.00000000000E+00  0.00000000000E+00  0.16526989438E+01  0.16526989438E+01  0.00000000000E+00 0. -1.
         13   -1    0    0    0    0 -0.00000000000E+00 -0.00000000000E+00 -0.10000000000E+04  0.10000000000E+04  0.00000000000E+00 0.  1.
    9000005    2    1    2  501    0  0.13948905508E+02 -0.37216651439E+02 -0.60090812712E+03  0.60223118214E+03  0.34883219412E+01 0.  0.
         13    1    3    3    0    0  0.73091669404E+01 -0.17685589559E+02 -0.31373992058E+03  0.31432298956E+03  0.00000000000E+00 0.  1.
          3    1    3    3  501    0  0.66397385673E+01 -0.19531061880E+02 -0.28716820654E+03  0.28790819258E+03  0.00000000000E+00 0.  1.
         -1    1    1    2    0  502 -0.13948905508E+02  0.37216651439E+02 -0.39743917394E+03  0.39942151681E+03  0.00000000000E+00 0. -1.
<mgrwt>
<rscale>  1 0.30000000E+03</rscale>
<asrwt>0</asrwt>
<pdfrwt beam="1">  1       21 0.60098270E-02 0.30000000E+03</pdfrwt>
<pdfrwt beam="2">0</pdfrwt>
<totfact> 0.21012275E+04</totfact>
</mgrwt>
</event>
<event>
 6    1  0.6513574E-002  0.3000000E+03  0.7818608E-02  0.1093470E+00
         21   -1    0    0  501  502  0.00000000000E+00  0.00000000000E+00  0.45651359747E+01  0.45651359747E+01  0.00000000000E+00 0. -1.
         13   -1    0    0    0    0 -0.00000000000E+00 -0.00000000000E+00 -0.10000000000E+04  0.10000000000E+04  0.00000000000E+00 0.  1.
    9000005    2    1    2  501    0  0.11149550262E+02  0.58229770647E+02 -0.26588533884E+03  0.27261054151E+03  0.10318685544E+02 0.  0.
         13    1    3    3    0    0  0.15521865240E+01  0.29521369251E+02 -0.11678142539E+03  0.12046502331E+03  0.00000000000E+00 0.  1.
          3    1    3    3  501    0  0.95973637376E+01  0.28708401396E+02 -0.14910391345E+03  0.15214551820E+03  0.00000000000E+00 0.  1.
         -3    1    1    2    0  502 -0.11149550262E+02 -0.58229770647E+02 -0.72954952519E+03  0.73195459447E+03  0.00000000000E+00 0. -1.
<mgrwt>
<rscale>  1 0.30000000E+03</rscale>
<asrwt>0</asrwt>
<pdfrwt beam="1">  1       21 0.16600529E-01 0.30000000E+03</pdfrwt>
<pdfrwt beam="2">0</pdfrwt>
<totfact> 0.34099054E+03</totfact>
</mgrwt>
</event>
<event>
 6    1  0.6513574E-002  0.3000000E+03  0.7818608E-02  0.1093470E+00
         21   -1    0    0  501  502  0.00000000000E+00  0.00000000000E+00  0.11397940230E+01  0.11397940230E+01  0.00000000000E+00 0. -1.
         13   -1    0    0    0    0 -0.00000000000E+00 -0.00000000000E+00 -0.10000000000E+04  0.10000000000E+04  0.00000000000E+00 0.  1.
    9000005    2    1    2  501    0 -0.12542535526E+02  0.29703229097E+02 -0.36844491772E+03  0.36990051080E+03  0.59273501637E+01 0.  0.
         13    1    3    3    0    0 -0.10956441194E+02  0.20277082750E+02 -0.24214413056E+03  0.24323853242E+03  0.00000000000E+00 0.  1.
          1    1    3    3  501    0 -0.15860943325E+01  0.94261463469E+01 -0.12630078716E+03  0.12666197838E+03  0.00000000000E+00 0.  1.
         -1    1    1    2    0  502  0.12542535526E+02 -0.29703229097E+02 -0.63041528826E+03  0.63123928322E+03  0.00000000000E+00 0. -1.
<mgrwt>
<rscale>  1 0.30000000E+03</rscale>
<asrwt>0</asrwt>
<pdfrwt beam="1">  1       21 0.41447143E-02 0.30000000E+03</pdfrwt>
<pdfrwt beam="2">0</pdfrwt>
<totfact> 0.39602396E+04</totfact>
</mgrwt>
</event>
<event>
 6    1  0.6513574E-002  0.3000000E+03  0.7818608E-02  0.1093470E+00
         21   -1    0    0  501  502  0.00000000000E+00  0.00000000000E+00  0.11390787663E+01  0.11390787663E+01  0.00000000000E+00 0. -1.
         13   -1    0    0    0    0 -0.00000000000E+00 -0.00000000000E+00 -0.10000000000E+04  0.10000000000E+04  0.00000000000E+00 0.  1.
    9000005    2    1    2  501    0  0.11556744055E+02 -0.29871135173E+02 -0.34705933999E+03  0.34855104305E+03  0.34352709528E+01 0.  0.
         13    1    3    3    0    0  0.11486807603E+02 -0.27024689221E+02 -0.31579080872E+03  0.31715314195E+03  0.00000000000E+00 0.  1.
          3    1    3    3  501    0  0.69936451142E-01 -0.28464459520E+01 -0.31268531272E+02  0.31397901101E+02  0.00000000000E+00 0.  1.
         -3    1    1    2    0  502 -0.11556744055E+02  0.29871135173E+02 -0.65180158124E+03  0.65258803571E+03  0.00000000000E+00 0. -1.
<mgrwt>
<rscale>  1 0.30000000E+03</rscale>
<asrwt>0</asrwt>
<pdfrwt beam="1">  1       21 0.41421133E-02 0.30000000E+03</pdfrwt>
<pdfrwt beam="2">0</pdfrwt>
<totfact> 0.39644363E+04</totfact>
</mgrwt>
</event>
<event>
 6    1  0.6513574E-002  0.3000000E+03  0.7818608E-02  0.1093470E+00
         21   -1    0    0  501  502  0.00000000000E+00  0.00000000000E+00  0.13983727077E+01  0.13983727077E+01  0.00000000000E+00 0. -1.
         13   -1    0    0    0    0 -0.00000000000E+00 -0.00000000000E+00 -0.10000000000E+04  0.10000000000E+04  0.00000000000E+00 0.  1.
    9000005    2    1    2  501    0 -0.32620044377E+02 -0.87821558399E+01 -0.29062702784E+03  0.29261827491E+03  0.44935450535E+01 0.  0.
         13    1    3    3    0    0 -0.84915149639E+01 -0.10320283496E+01 -0.87267064698E+02  0.87685298026E+02  0.00000000000E+00 0.  1.
          3    1    3    3  501    0 -0.24128529414E+02 -0.77501274902E+01 -0.20335996314E+03  0.20493297689E+03  0.00000000000E+00 0.  1.
         -1    1    1    2    0  502  0.32620044377E+02  0.87821558399E+01 -0.70797459945E+03  0.70878009779E+03  0.00000000000E+00 0. -1.
<mgrwt>
<rscale>  1 0.30000000E+03</rscale>
<asrwt>0</asrwt>
<pdfrwt beam="1">  1       21 0.50850024E-02 0.30000000E+03</pdfrwt>
<pdfrwt beam="2">0</pdfrwt>
<totfact> 0.27988318E+04</totfact>
</mgrwt>
</event>
<event>
 6    1  0.6513574E-002  0.3000000E+03  0.7818608E-02  0.1093470E+00
         21   -1    0    0  501  502  0.00000000000E+00  0.00000000000E+00  0.15209423961E+01  0.15209423961E+01  0.00000000000E+00 0. -1.
         13   -1    0    0    0    0 -0.00000000000E+00 -0.00000000000E+00 -0.10000000000E+04  0.10000000000E+04  0.00000000000E+00 0.  1.
    9000005    2    1    2  501    0  0.33477914072E+02 -0.17490819263E+02 -0.37747143061E+03  0.37936567859E+03  0.26339478138E+01 0.  0.
         13    1    3    3    0    0  0.43782815559E+01 -0.13352327705E+01 -0.44222250384E+02  0.44458515776E+02  0.00000000000E+00 0.  1.
          1    1    3    3  501    0  0.29099632516E+02 -0.16155586492E+02 -0.33324918022E+03  0.33490716282E+03  0.00000000000E+00 0.  1.
         -1    1    1    2    0  502 -0.33477914072E+02  0.17490819263E+02 -0.62100762700E+03  0.62215526380E+03  0.00000000000E+00 0. -1.
<mgrwt>
<rscale>  1 0.30000000E+03</rscale>
<asrwt>0</asrwt>
<pdfrwt beam="1">  1       21 0.55307113E-02 0.30000000E+03</pdfrwt>
<pdfrwt beam="2">0</pdfrwt>
<totfact> 0.24241537E+04</totfact>
</mgrwt>
</event>
<event>
 6    1  0.6513574E-002  0.3000000E+03  0.7818608E-02  0.1093470E+00
         21   -1    0    0  501  502  0.00000000000E+00  0.00000000000E+00  0.96947617038E+00  0.96947617038E+00  0.00000000000E+00 0. -1.
         13   -1    0    0    0    0 -0.00000000000E+00 -0.00000000000E+00 -0.10000000000E+04  0.10000000000E+04  0.00000000000E+00 0.  1.
    9000005    2    1    2  501    0 -0.29600899029E+02  0.82723651340E+01 -0.44853822294E+03  0.44961984247E+03  0.51788079597E+01 0.  0.
         13    1    3    3    0    0 -0.22952637380E+02  0.84931374337E+01 -0.34266345641E+03  0.34353631730E+03  0.00000000000E+00 0.  1.
          1    1    3    3  501    0 -0.66482616497E+01 -0.22077229974E+00 -0.10587476654E+03  0.10608352517E+03  0.00000000000E+00 0.  1.
         -1    1    1    2    0  502  0.29600899029E+02 -0.82723651340E+01 -0.55049230089E+03  0.55134963370E+03  0.00000000000E+00 0. -1.
<mgrwt>
<rscale>  1 0.30000000E+03</rscale>
<asrwt>0</asrwt>
<pdfrwt beam="1">  1       21 0.35253753E-02 0.30000000E+03</pdfrwt>
<pdfrwt beam="2">0</pdfrwt>
<totfact> 0.51984008E+04</totfact>
</mgrwt>
</event>
<event>
 6    1  0.6513574E-002  0.3000000E+03  0.7818608E-02  0.1093470E+00
         21   -1    0    0  501  502  0.00000000000E+00  0.00000000000E+00  0.10071700739E+01  0.10071700739E+01  0.00000000000E+00 0. -1.
         13   -1    0    0    0    0 -0.00000000000E+00 -0.00000000000E+00 -0.10000000000E+04  0.10000000000E+04  0.00000000000E+00 0.  1.
    9000005    2    1    2  501    0 -0.77511724335E+01  0.30121340600E+02 -0.59263588788E+03  0.59346166319E+03  0.34748003045E+01 0.  0.
         13    1    3    3    0    0 -0.80523377569E+01  0.28514714685E+02 -0.56708149932E+03  0.56785504838E+03  0.00000000000E+00 0.  1.
          3    1    3    3  501    0  0.30116532336E+00  0.16066259149E+01 -0.25554388561E+02  0.25606614812E+02  0.00000000000E+00 0.  1.
         -1    1    1    2    0  502  0.77511724335E+01 -0.30121340600E+02 -0.40635694204E+03  0.40754550688E+03  0.00000000000E+00 0. -1.
<mgrwt>
<rscale>  1 0.30000000E+03</rscale>
<asrwt>0</asrwt>
<pdfrwt beam="1">  1       21 0.36624444E-02 0.30000000E+03</pdfrwt>
<pdfrwt beam="2">0</pdfrwt>
<totfact> 0.48763192E+04</totfact>
</mgrwt>
</event>
<event>
 6    1  0.6513574E-002  0.3000000E+03  0.7818608E-02  0.1093470E+00
         21   -1    0    0  501  502  0.00000000000E+00  0.00000000000E+00  0.39671315448E+01  0.39671315448E+01  0.00000000000E+00 0. -1.
         13   -1    0    0    0    0 -0.00000000000E+00 -0.00000000000E+00 -0.10000000000E+04  0.10000000000E+04  0.00000000000E+00 0.  1.
    9000005    2    1    2  501    0  0.22981169893E+02  0.37327944230E+02 -0.13814828785E+03  0.14496336949E+03  0.28141547534E+01 0.  0.
         13    1    3    3    0    0  0.70939054792E+01  0.10847762851E+02 -0.36873487395E+02  0.39085182953E+02  0.00000000000E+00 0.  1.
          1    1    3    3  501    0  0.15887264414E+02  0.26480181378E+02 -0.10127480046E+03  0.10587818654E+03  0.00000000000E+00 0.  1.
         -3    1    1    2    0  502 -0.22981169893E+02 -0.37327944230E+02 -0.85788458060E+03  0.85900376206E+03  0.00000000000E+00 0. -1.
<mgrwt>
<rscale>  1 0.30000000E+03</rscale>
<asrwt>0</asrwt>
<pdfrwt beam="1">  1       21 0.14425963E-01 0.30000000E+03</pdfrwt>
<pdfrwt beam="2">0</pdfrwt>
<totfact> 0.44257422E+03</totfact>
</mgrwt>
</event>
<event>
 6    1  0.6513574E-002  0.3000000E+03  0.7818608E-02  0.1093470E+00
         21   -1    0    0  501  502  0.00000000000E+00  0.00000000000E+00  0.17397413052E+01  0.17397413052E+01  0.00000000000E+00 0. -1.
         13   -1    0    0    0    0 -0.00000000000E+00 -0.00000000000E+00 -0.10000000000E+04  0.10000000000E+04  0.00000000000E+00 0.  1.
    9000005    2    1    2  501    0 -0.41086648555E+02  0.29252916354E+01 -0.42488069000E+03  0.42688254181E+03  0.29040906377E+01 0.  0.
         13    1    3    3    0    0 -0.35816446930E+02  0.21658298695E+01 -0.37860113687E+03  0.38029768541E+03  0.00000000000E+00 0.  1.
          3    1    3    3  501    0 -0.52702016245E+01  0.75946176599E+00 -0.46279553131E+02  0.46584856395E+02  0.00000000000E+00 0.  1.
         -1    1    1    2    0  502  0.41086648555E+02 -0.29252916354E+01 -0.57337956869E+03  0.57485719950E+03  0.00000000000E+00 0. -1.
<mgrwt>
<rscale>  1 0.30000000E+03</rscale>
<asrwt>0</asrwt>
<pdfrwt beam="1">  1       21 0.63263454E-02 0.30000000E+03</pdfrwt>
<pdfrwt beam="2">0</pdfrwt>
<totfact> 0.19230190E+04</totfact>
</mgrwt>
</event>
<event>
 6    1  0.6513574E-002  0.3000000E+03  0.7818608E-02  0.1093470E+00
         21   -1    0    0  501  502  0.00000000000E+00  0.00000000000E+00  0.19285945828E+01  0.19285945828E+01  0.00000000000E+00 0. -1.
         13   -1    0    0    0    0 -0.00000000000E+00 -0.00000000000E+00 -0.10000000000E+04  0.10000000000E+04  0.00000000000E+00 0.  1.
    9000005    2    1    2  501    0 -0.34636267274E+02 -0.37125706963E+01 -0.19606234669E+03  0.19916338328E+03  0.34864393769E+01 0.  0.
         13    1    3    3    0    0 -0.32681452780E+02 -0.28662624293E+01 -0.18682456485E+03  0.18968318546E+03  0.00000000000E+00 0.  1.
          1    1    3    3  501    0 -0.19548144939E+01 -0.84630826700E+00 -0.92377818434E+01  0.94801978236E+01  0.00000000000E+00 0.  1.
         -3    1    1    2    0  502  0.34636267274E+02  0.37125706963E+01 -0.80200905873E+03  0.80276521130E+03  0.00000000000E+00 0. -1.
<mgrwt>
<rscale>  1 0.30000000E+03</rscale>
<asrwt>0</asrwt>
<pdfrwt beam="1">  1       21 0.70130860E-02 0.30000000E+03</pdfrwt>
<pdfrwt beam="2">0</pdfrwt>
<totfact> 0.16082922E+04</totfact>
</mgrwt>
</event>
<event>
 6    1  0.6513574E-002  0.3000000E+03  0.7818608E-02  0.1093470E+00
         21   -1    0    0  501  502  0.00000000000E+00  0.00000000000E+00  0.23345329780E+01  0.23345329780E+01  0.00000000000E+00 0. -1.
         13   -1    0    0    0    0 -0.00000000000E+00 -0.00000000000E+00 -0.10000000000E+04  0.10000000000E+04  0.00000000000E+00 0.  1.
    9000005    2    1    2  501    0  0.35848098732E+02 -0.32040010714E+02 -0.53143480351E+03  0.53363134325E+03  0.52736742336E+01 0.  0.
         13    1    3    3    0    0  0.11522815327E+02 -0.10417339804E+02 -0.14559750683E+03  0.14642380352E+03  0.00000000000E+00 0.  1.
          1    1    3    3  501    0  0.24325283406E+02 -0.21622670910E+02 -0.38583729668E+03  0.38720753973E+03  0.00000000000E+00 0.  1.
         -1    1    1    2    0  502 -0.35848098732E+02  0.32040010714E+02 -0.46623066351E+03  0.46870318973E+03  0.00000000000E+00 0. -1.
<mgrwt>
<rscale>  1 0.30000000E+03</rscale>
<asrwt>0</asrwt>
<pdfrwt beam="1">  1       21 0.84892287E-02 0.30000000E+03</pdfrwt>
<pdfrwt beam="2">0</pdfrwt>
<totfact> 0.11506961E+04</totfact>
</mgrwt>
</event>
<event>
 6    1  0.6513574E-002  0.3000000E+03  0.7818608E-02  0.1093470E+00
         21   -1    0    0  501  502  0.00000000000E+00  0.00000000000E+00  0.26919984072E+01  0.26919984072E+01  0.00000000000E+00 0. -1.
         13   -1    0    0    0    0 -0.00000000000E+00 -0.00000000000E+00 -0.10000000000E+04  0.10000000000E+04  0.00000000000E+00 0.  1.
    9000005    2    1    2  501    0 -0.28730151387E+02 -0.23398992541E+02 -0.15203488629E+03  0.15660714811E+03  0.61852840644E+01 0.  0.
         13    1    3    3    0    0 -0.76404571546E+01 -0.42034810526E+01 -0.27531650347E+02  0.28879709302E+02  0.00000000000E+00 0.  1.
          1    1    3    3  501    0 -0.21089694232E+02 -0.19195511489E+02 -0.12450323595E+03  0.12772743881E+03  0.00000000000E+00 0.  1.
         -1    1    1    2    0  502  0.28730151387E+02  0.23398992541E+02 -0.84527311530E+03  0.84608485029E+03  0.00000000000E+00 0. -1.
<mgrwt>
<rscale>  1 0.30000000E+03</rscale>
<asrwt>0</asrwt>
<pdfrwt beam="1">  1       21 0.97891058E-02 0.30000000E+03</pdfrwt>
<pdfrwt beam="2">0</pdfrwt>
<totfact> 0.89369723E+03</totfact>
</mgrwt>
</event>
<event>
 6    1  0.6513574E-002  0.3000000E+03  0.7818608E-02  0.1093470E+00
         21   -1    0    0  501  502  0.00000000000E+00  0.00000000000E+00  0.97340917755E+00  0.97340917755E+00  0.00000000000E+00 0. -1.
         13   -1    0    0    0    0 -0.00000000000E+00 -0.00000000000E+00 -0.10000000000E+04  0.10000000000E+04  0.00000000000E+00 0.  1.
    9000005    2    1    2  501    0 -0.88262415629E+01 -0.29539281432E+02 -0.44158446006E+03  0.44267939986E+03  0.42123638013E+01 0.  0.
         13    1    3    3    0    0 -0.20612219086E+01 -0.14099302787E+02 -0.20788241545E+03  0.20837019372E+03  0.00000000000E+00 0.  1.
          1    1    3    3  501    0 -0.67650196543E+01 -0.15439978645E+02 -0.23370204460E+03  0.23430920614E+03  0.00000000000E+00 0.  1.
         -1    1    1    2    0  502  0.88262415629E+01  0.29539281432E+02 -0.55744213077E+03  0.55829400932E+03  0.00000000000E+00 0. -1.
<mgrwt>
<rscale>  1 0.30000000E+03</rscale>
<asrwt>0</asrwt>
<pdfrwt beam="1">  1       21 0.35396772E-02 0.30000000E+03</pdfrwt>
<pdfrwt beam="2">0</pdfrwt>
<totfact> 0.51632545E+04</totfact>
</mgrwt>
</event>
<event>
 6    1  0.6513574E-002  0.3000000E+03  0.7818608E-02  0.1093470E+00
         21   -1    0    0  501  502  0.00000000000E+00  0.00000000000E+00  0.17739152687E+01  0.17739152687E+01  0.00000000000E+00 0. -1.
         13   -1    0    0    0    0 -0.00000000000E+00 -0.00000000000E+00 -0.10000000000E+04  0.10000000000E+04  0.00000000000E+00 0.  1.
    9000005    2    1    2  501    0  0.33447661041E+02  0.23592336243E+01 -0.19822983995E+03  0.20107528053E+03  0.34477500191E+01 0.  0.
         13    1    3    3    0    0  0.30694711246E+02  0.30193991790E+01 -0.18389941487E+03  0.18646789767E+03  0.00000000000E+00 0.  1.
          1    1    3    3  501    0  0.27529497946E+01 -0.66016555471E+00 -0.14330425080E+02  0.14607382863E+02  0.00000000000E+00 0.  1.
         -3    1    1    2    0  502 -0.33447661041E+02 -0.23592336243E+01 -0.79999624478E+03  0.80069863474E+03  0.00000000000E+00 0. -1.
<mgrwt>
<rscale>  1 0.30000000E+03</rscale>
<asrwt>0</asrwt>
<pdfrwt beam="1">  1       21 0.64506146E-02 0.30000000E+03</pdfrwt>
<pdfrwt beam="2">0</pdfrwt>
<totfact> 0.18593909E+04</totfact>
</mgrwt>
</event>
<event>
 6    1  0.6513574E-002  0.3000000E+03  0.7818608E-02  0.1093470E+00
         21   -1    0    0  501  502  0.00000000000E+00  0.00000000000E+00  0.58733781754E+01  0.58733781754E+01  0.00000000000E+00 0. -1.
         13   -1    0    0    0    0 -0.00000000000E+00 -0.00000000000E+00 -0.10000000000E+04  0.10000000000E+04  0.00000000000E+00 0.  1.
    9000005    2    1    2  501    0 -0.75867650015E+02  0.25347061793E+00 -0.56484571074E+03  0.56993982224E+03  0.49758889652E+01 0.  0.
         13    1    3    3    0    0 -0.50087654222E+02 -0.21707141059E+01 -0.37019625759E+03  0.37357563389E+03  0.00000000000E+00 0.  1.
          3    1    3    3  501    0 -0.25779995793E+02  0.24241847239E+01 -0.19464945315E+03  0.19636418835E+03  0.00000000000E+00 0.  1.
         -1    1    1    2    0  502  0.75867650015E+02 -0.25347061793E+00 -0.42928091109E+03  0.43593355594E+03  0.00000000000E+00 0. -1.
<mgrwt>
<rscale>  1 0.30000000E+03</rscale>
<asrwt>0</asrwt>
<pdfrwt beam="1">  1       21 0.21357784E-01 0.30000000E+03</pdfrwt>
<pdfrwt beam="2">0</pdfrwt>
<totfact> 0.21157330E+03</totfact>
</mgrwt>
</event>
<event>
 6    1  0.6513574E-002  0.3000000E+03  0.7818608E-02  0.1093470E+00
         21   -1    0    0  501  502  0.00000000000E+00  0.00000000000E+00  0.19373346850E+01  0.19373346850E+01  0.00000000000E+00 0. -1.
         13   -1    0    0    0    0 -0.00000000000E+00 -0.00000000000E+00 -0.10000000000E+04  0.10000000000E+04  0.00000000000E+00 0.  1.
    9000005    2    1    2  501    0  0.98339072102E+01 -0.41310882638E+02 -0.62873603900E+03  0.63017739647E+03  0.33540319897E+01 0.  0.
         13    1    3    3    0    0  0.63170470069E+01 -0.28916160784E+02 -0.41607099117E+03  0.41712242703E+03  0.00000000000E+00 0.  1.
          3    1    3    3  501    0  0.35168602033E+01 -0.12394721854E+02 -0.21266504782E+03  0.21305496944E+03  0.00000000000E+00 0.  1.
         -1    1    1    2    0  502 -0.98339072102E+01  0.41310882638E+02 -0.36932662632E+03  0.37175993822E+03  0.00000000000E+00 0. -1.
<mgrwt>
<rscale>  1 0.30000000E+03</rscale>
<asrwt>0</asrwt>
<pdfrwt beam="1">  1       21 0.70448683E-02 0.30000000E+03</pdfrwt>
<pdfrwt beam="2">0</pdfrwt>
<totfact> 0.15956818E+04</totfact>
</mgrwt>
</event>
<event>
 6    1  0.6513574E-002  0.3000000E+03  0.7818608E-02  0.1093470E+00
         21   -1    0    0  501  502  0.00000000000E+00  0.00000000000E+00  0.13624508554E+01  0.13624508554E+01  0.00000000000E+00 0. -1.
         13   -1    0    0    0    0 -0.00000000000E+00 -0.00000000000E+00 -0.10000000000E+04  0.10000000000E+04  0.00000000000E+00 0.  1.
    9000005    2    1    2  501    0  0.32418103546E+02 -0.13094641687E+02 -0.65746726627E+03  0.65840536171E+03  0.34656937617E+01 0.  0.
         13    1    3    3    0    0  0.30289760445E+02 -0.11650140505E+02 -0.62107621068E+03  0.62192351205E+03  0.00000000000E+00 0.  1.
          1    1    3    3  501    0  0.21283431016E+01 -0.14445011816E+01 -0.36391055583E+02  0.36481849658E+02  0.00000000000E+00 0.  1.
         -3    1    1    2    0  502 -0.32418103546E+02  0.13094641687E+02 -0.34117028288E+03  0.34295708915E+03  0.00000000000E+00 0. -1.
<mgrwt>
<rscale>  1 0.30000000E+03</rscale>
<asrwt>0</asrwt>
<pdfrwt beam="1">  1       21 0.49543772E-02 0.30000000E+03</pdfrwt>
<pdfrwt beam="2">0</pdfrwt>
<totfact> 0.29258198E+04</totfact>
</mgrwt>
</event>
<event>
 6    1  0.6513574E-002  0.3000000E+03  0.7818608E-02  0.1093470E+00
         21   -1    0    0  501  502  0.00000000000E+00  0.00000000000E+00  0.92072371917E+00  0.92072371917E+00  0.00000000000E+00 0. -1.
         13   -1    0    0    0    0 -0.00000000000E+00 -0.00000000000E+00 -0.10000000000E+04  0.10000000000E+04  0.00000000000E+00 0.  1.
    9000005    2    1    2  501    0  0.28525906782E+02 -0.99182673796E+01 -0.46907164554E+03  0.47005333159E+03  0.31347250253E+01 0.  0.
         13    1    3    3    0    0  0.13888694418E+02 -0.47508319057E+01 -0.25228073946E+03  0.25270741528E+03  0.00000000000E+00 0.  1.
          1    1    3    3  501    0  0.14637212365E+02 -0.51674354740E+01 -0.21679090609E+03  0.21734591631E+03  0.00000000000E+00 0.  1.
         -3    1    1    2    0  502 -0.28525906782E+02  0.99182673796E+01 -0.53000763074E+03  0.53086739213E+03  0.00000000000E+00 0. -1.
<mgrwt>
<rscale>  1 0.30000000E+03</rscale>
<asrwt>0</asrwt>
<pdfrwt beam="1">  1       21 0.33480933E-02 0.30000000E+03</pdfrwt>
<pdfrwt beam="2">0</pdfrwt>
<totfact> 0.56668646E+04</totfact>
</mgrwt>
</event>
<event>
 6    1  0.6513574E-002  0.3000000E+03  0.7818608E-02  0.1093470E+00
         21   -1    0    0  501  502  0.00000000000E+00  0.00000000000E+00  0.24054015946E+01  0.24054015946E+01  0.00000000000E+00 0. -1.
         13   -1    0    0    0    0 -0.00000000000E+00 -0.00000000000E+00 -0.10000000000E+04  0.10000000000E+04  0.00000000000E+00 0.  1.
    9000005    2    1    2  501    0  0.42830040657E+02 -0.22895707797E+02 -0.43172154363E+03  0.43445211132E+03  0.25534239471E+01 0.  0.
         13    1    3    3    0    0  0.18869038557E+02 -0.10449322621E+02 -0.20275147049E+03  0.20389553144E+03  0.00000000000E+00 0.  1.
          1    1    3    3  501    0  0.23961002100E+02 -0.12446385176E+02 -0.22897007315E+03  0.23055657987E+03  0.00000000000E+00 0.  1.
         -3    1    1    2    0  502 -0.42830040657E+02  0.22895707797E+02 -0.56587305477E+03  0.56795329028E+03  0.00000000000E+00 0. -1.
<mgrwt>
<rscale>  1 0.30000000E+03</rscale>
<asrwt>0</asrwt>
<pdfrwt beam="1">  1       21 0.87469333E-02 0.30000000E+03</pdfrwt>
<pdfrwt beam="2">0</pdfrwt>
<totfact> 0.10915279E+04</totfact>
</mgrwt>
</event>
<event>
 6    1  0.6513574E-002  0.3000000E+03  0.7818608E-02  0.1093470E+00
         21   -1    0    0  501  502  0.00000000000E+00  0.00000000000E+00  0.40218964554E+01  0.40218964554E+01  0.00000000000E+00 0. -1.
         13   -1    0    0    0    0 -0.00000000000E+00 -0.00000000000E+00 -0.10000000000E+04  0.10000000000E+04  0.00000000000E+00 0.  1.
    9000005    2    1    2  501    0  0.46203224865E+02  0.40746651722E+02 -0.38029740236E+03  0.38526689370E+03  0.30720564130E+01 0.  0.
         13    1    3    3    0    0  0.36474244178E+02  0.30779568357E+02 -0.29900132858E+03  0.30278630551E+03  0.00000000000E+00 0.  1.
          3    1    3    3  501    0  0.97289806872E+01  0.99670833655E+01 -0.81296073780E+02  0.82480588189E+02  0.00000000000E+00 0.  1.
         -1    1    1    2    0  502 -0.46203224865E+02 -0.40746651722E+02 -0.61568070119E+03  0.61875500275E+03  0.00000000000E+00 0. -1.
<mgrwt>
<rscale>  1 0.30000000E+03</rscale>
<asrwt>0</asrwt>
<pdfrwt beam="1">  1       21 0.14625109E-01 0.30000000E+03</pdfrwt>
<pdfrwt beam="2">0</pdfrwt>
<totfact> 0.43152451E+03</totfact>
</mgrwt>
</event>
<event>
 6    1  0.6513574E-002  0.3000000E+03  0.7818608E-02  0.1093470E+00
         21   -1    0    0  501  502  0.00000000000E+00  0.00000000000E+00  0.19048708706E+01  0.19048708706E+01  0.00000000000E+00 0. -1.
         13   -1    0    0    0    0 -0.00000000000E+00 -0.00000000000E+00 -0.10000000000E+04  0.10000000000E+04  0.00000000000E+00 0.  1.
    9000005    2    1    2  501    0  0.31474701815E+02  0.30082648268E+02 -0.52108165861E+03  0.52290855185E+03  0.34111689703E+01 0.  0.
         13    1    3    3    0    0  0.28281722900E+02  0.27080952042E+02 -0.45501776441E+03  0.45669946327E+03  0.00000000000E+00 0.  1.
          3    1    3    3  501    0  0.31929789146E+01  0.30016962258E+01 -0.66063894198E+02  0.66209088584E+02  0.00000000000E+00 0.  1.
         -3    1    1    2    0  502 -0.31474701815E+02 -0.30082648268E+02 -0.47701347052E+03  0.47899631902E+03  0.00000000000E+00 0. -1.
<mgrwt>
<rscale>  1 0.30000000E+03</rscale>
<asrwt>0</asrwt>
<pdfrwt beam="1">  1       21 0.69268178E-02 0.30000000E+03</pdfrwt>
<pdfrwt beam="2">0</pdfrwt>
<totfact> 0.16432995E+04</totfact>
</mgrwt>
</event>
<event>
 6    1  0.6513574E-002  0.3000000E+03  0.7818608E-02  0.1093470E+00
         21   -1    0    0  501  502  0.00000000000E+00  0.00000000000E+00  0.15828256821E+01  0.15828256821E+01  0.00000000000E+00 0. -1.
         13   -1    0    0    0    0 -0.00000000000E+00 -0.00000000000E+00 -0.10000000000E+04  0.10000000000E+04  0.00000000000E+00 0.  1.
    9000005    2    1    2  501    0  0.41965989920E+01  0.32615105317E+02 -0.22544420359E+03  0.22791069227E+03  0.60694466056E+01 0.  0.
         13    1    3    3    0    0  0.16727756732E+01  0.23013027844E+01 -0.26861765634E+02  0.27012008921E+02  0.00000000000E+00 0.  1.
          3    1    3    3  501    0  0.25238233188E+01  0.30313802532E+02 -0.19858243795E+03  0.20089868335E+03  0.00000000000E+00 0.  1.
         -1    1    1    2    0  502 -0.41965989920E+01 -0.32615105317E+02 -0.77297297073E+03  0.77367213341E+03  0.00000000000E+00 0. -1.
<mgrwt>
<rscale>  1 0.30000000E+03</rscale>
<asrwt>0</asrwt>
<pdfrwt beam="1">  1       21 0.57557419E-02 0.30000000E+03</pdfrwt>
<pdfrwt beam="2">0</pdfrwt>
<totfact> 0.22636118E+04</totfact>
</mgrwt>
</event>
<event>
 6    1  0.6513574E-002  0.3000000E+03  0.7818608E-02  0.1093470E+00
         21   -1    0    0  501  502  0.00000000000E+00  0.00000000000E+00  0.15413211775E+01  0.15413211775E+01  0.00000000000E+00 0. -1.
         13   -1    0    0    0    0 -0.00000000000E+00 -0.00000000000E+00 -0.10000000000E+04  0.10000000000E+04  0.00000000000E+00 0.  1.
    9000005    2    1    2  501    0  0.16637893392E+02 -0.35482351354E+02 -0.48309597885E+03  0.48469073419E+03  0.27506848542E+01 0.  0.
         13    1    3    3    0    0  0.65042860867E+01 -0.14220308587E+02 -0.17647413572E+03  0.17716558213E+03  0.00000000000E+00 0.  1.
          3    1    3    3  501    0  0.10133607305E+02 -0.21262042766E+02 -0.30662184313E+03  0.30752515205E+03  0.00000000000E+00 0.  1.
         -3    1    1    2    0  502 -0.16637893392E+02  0.35482351354E+02 -0.51536269997E+03  0.51685058699E+03  0.00000000000E+00 0. -1.
<mgrwt>
<rscale>  1 0.30000000E+03</rscale>
<asrwt>0</asrwt>
<pdfrwt beam="1">  1       21 0.56048161E-02 0.30000000E+03</pdfrwt>
<pdfrwt beam="2">0</pdfrwt>
<totfact> 0.23694060E+04</totfact>
</mgrwt>
</event>
<event>
 6    1  0.6513574E-002  0.3000000E+03  0.7818608E-02  0.1093470E+00
         21   -1    0    0  501  502  0.00000000000E+00  0.00000000000E+00  0.12977069512E+01  0.12977069512E+01  0.00000000000E+00 0. -1.
         13   -1    0    0    0    0 -0.00000000000E+00 -0.00000000000E+00 -0.10000000000E+04  0.10000000000E+04  0.00000000000E+00 0.  1.
    9000005    2    1    2  501    0 -0.35037445333E+02 -0.77969913927E+01 -0.52816663560E+03  0.52939494093E+03  0.32546686518E+01 0.  0.
         13    1    3    3    0    0 -0.13074998178E+02 -0.35176036231E+01 -0.17810018704E+03  0.17861412524E+03  0.00000000000E+00 0.  1.
          3    1    3    3  501    0 -0.21962447155E+02 -0.42793877696E+01 -0.35006644856E+03  0.35078081569E+03  0.00000000000E+00 0.  1.
         -1    1    1    2    0  502  0.35037445333E+02  0.77969913927E+01 -0.47053565745E+03  0.47190276602E+03  0.00000000000E+00 0. -1.
<mgrwt>
<rscale>  1 0.30000000E+03</rscale>
<asrwt>0</asrwt>
<pdfrwt beam="1">  1       21 0.47189443E-02 0.30000000E+03</pdfrwt>
<pdfrwt beam="2">0</pdfrwt>
<totfact> 0.31786175E+04</totfact>
</mgrwt>
</event>
<event>
 6    1  0.6513574E-002  0.3000000E+03  0.7818608E-02  0.1093470E+00
         21   -1    0    0  501  502  0.00000000000E+00  0.00000000000E+00  0.16518240028E+01  0.16518240028E+01  0.00000000000E+00 0. -1.
         13   -1    0    0    0    0 -0.00000000000E+00 -0.00000000000E+00 -0.10000000000E+04  0.10000000000E+04  0.00000000000E+00 0.  1.
    9000005    2    1    2  501    0  0.23204390580E+02 -0.29051039015E+02 -0.29952309430E+03  0.30183834784E+03  0.31460447657E+01 0.  0.
         13    1    3    3    0    0  0.13675755005E+02 -0.17633568915E+02 -0.19173466181E+03  0.19302888272E+03  0.00000000000E+00 0.  1.
          1    1    3    3  501    0  0.95286355746E+01 -0.11417470100E+02 -0.10778843249E+03  0.10880946511E+03  0.00000000000E+00 0.  1.
         -1    1    1    2    0  502 -0.23204390580E+02  0.29051039015E+02 -0.69882508170E+03  0.69981347617E+03  0.00000000000E+00 0. -1.
<mgrwt>
<rscale>  1 0.30000000E+03</rscale>
<asrwt>0</asrwt>
<pdfrwt beam="1">  1       21 0.60066454E-02 0.30000000E+03</pdfrwt>
<pdfrwt beam="2">0</pdfrwt>
<totfact> 0.21031475E+04</totfact>
</mgrwt>
</event>
<event>
 6    1  0.6513574E-002  0.3000000E+03  0.7818608E-02  0.1093470E+00
         21   -1    0    0  501  502  0.00000000000E+00  0.00000000000E+00  0.29299739993E+01  0.29299739993E+01  0.00000000000E+00 0. -1.
         13   -1    0    0    0    0 -0.00000000000E+00 -0.00000000000E+00 -0.10000000000E+04  0.10000000000E+04  0.00000000000E+00 0.  1.
    9000005    2    1    2  501    0  0.15696460934E+02 -0.41283995592E+02 -0.78809908822E+03  0.78934252115E+03  0.32704225867E+01 0.  0.
         13    1    3    3    0    0  0.12669391866E+02 -0.30197555165E+02 -0.56679413560E+03  0.56773937504E+03  0.00000000000E+00 0.  1.
          3    1    3    3  501    0  0.30270690680E+01 -0.11086440427E+02 -0.22130495262E+03  0.22160314611E+03  0.00000000000E+00 0.  1.
         -3    1    1    2    0  502 -0.15696460934E+02  0.41283995592E+02 -0.20897093778E+03  0.21358745285E+03  0.00000000000E+00 0. -1.
<mgrwt>
<rscale>  1 0.30000000E+03</rscale>
<asrwt>0</asrwt>
<pdfrwt beam="1">  1       21 0.10654473E-01 0.30000000E+03</pdfrwt>
<pdfrwt beam="2">0</pdfrwt>
<totfact> 0.76800427E+03</totfact>
</mgrwt>
</event>
<event>
 6    1  0.6513574E-002  0.3000000E+03  0.7818608E-02  0.1093470E+00
         21   -1    0    0  501  502  0.00000000000E+00  0.00000000000E+00  0.11620025975E+01  0.11620025975E+01  0.00000000000E+00 0. -1.
         13   -1    0    0    0    0 -0.00000000000E+00 -0.00000000000E+00 -0.10000000000E+04  0.10000000000E+04  0.00000000000E+00 0.  1.
    9000005    2    1    2  501    0 -0.18970388825E+02  0.28008086131E+02 -0.54151856580E+03  0.54259315164E+03  0.45434092040E+01 0.  0.
         13    1    3    3    0    0 -0.13439364882E+01  0.32497011468E+01 -0.78047443416E+02  0.78126628921E+02  0.00000000000E+00 0.  1.
          3    1    3    3  501    0 -0.17626452337E+02  0.24758384985E+02 -0.46347112238E+03  0.46446652272E+03  0.00000000000E+00 0.  1.
         -3    1    1    2    0  502  0.18970388825E+02 -0.28008086131E+02 -0.45731943160E+03  0.45856885095E+03  0.00000000000E+00 0. -1.
<mgrwt>
<rscale>  1 0.30000000E+03</rscale>
<asrwt>0</asrwt>
<pdfrwt beam="1">  1       21 0.42254729E-02 0.30000000E+03</pdfrwt>
<pdfrwt beam="2">0</pdfrwt>
<totfact> 0.38332976E+04</totfact>
</mgrwt>
</event>
<event>
 6    1  0.6513574E-002  0.3000000E+03  0.7818608E-02  0.1093470E+00
         21   -1    0    0  501  502  0.00000000000E+00  0.00000000000E+00  0.85773474054E+01  0.85773474054E+01  0.00000000000E+00 0. -1.
         13   -1    0    0    0    0 -0.00000000000E+00 -0.00000000000E+00 -0.10000000000E+04  0.10000000000E+04  0.00000000000E+00 0.  1.
    9000005    2    1    2  501    0 -0.31982374441E+02  0.86499743930E+02 -0.45126823107E+03  0.46060665744E+03  0.32246743766E+01 0.  0.
         13    1    3    3    0    0 -0.79422118460E+01  0.23596961355E+02 -0.12803931611E+03  0.13043757812E+03  0.00000000000E+00 0.  1.
          1    1    3    3  501    0 -0.24040162595E+02  0.62902782575E+02 -0.32322891496E+03  0.33016907932E+03  0.00000000000E+00 0.  1.
         -3    1    1    2    0  502  0.31982374441E+02 -0.86499743930E+02 -0.54015442152E+03  0.54797068997E+03  0.00000000000E+00 0. -1.
<mgrwt>
<rscale>  1 0.30000000E+03</rscale>
<asrwt>0</asrwt>
<pdfrwt beam="1">  1       21 0.31190420E-01 0.30000000E+03</pdfrwt>
<pdfrwt beam="2">0</pdfrwt>
<totfact> 0.10056203E+03</totfact>
</mgrwt>
</event>
<event>
 6    1  0.6513574E-002  0.3000000E+03  0.7818608E-02  0.1093470E+00
         21   -1    0    0  501  502  0.00000000000E+00  0.00000000000E+00  0.24851620190E+01  0.24851620190E+01  0.00000000000E+00 0. -1.
         13   -1    0    0    0    0 -0.00000000000E+00 -0.00000000000E+00 -0.10000000000E+04  0.10000000000E+04  0.00000000000E+00 0.  1.
    9000005    2    1    2  501    0  0.10740703886E+01  0.48517938431E+02 -0.39485468775E+03  0.39787421219E+03  0.62064732996E+01 0.  0.
         13    1    3    3    0    0  0.33359377624E+01  0.33682560193E+02 -0.26346251110E+03  0.26562781875E+03  0.00000000000E+00 0.  1.
          3    1    3    3  501    0 -0.22618673738E+01  0.14835378239E+02 -0.13139217665E+03  0.13224639344E+03  0.00000000000E+00 0.  1.
         -1    1    1    2    0  502 -0.10740703886E+01 -0.48517938431E+02 -0.60266015023E+03  0.60461094983E+03  0.00000000000E+00 0. -1.
<mgrwt>
<rscale>  1 0.30000000E+03</rscale>
<asrwt>0</asrwt>
<pdfrwt beam="1">  1       21 0.90369719E-02 0.30000000E+03</pdfrwt>
<pdfrwt beam="2">0</pdfrwt>
<totfact> 0.10302972E+04</totfact>
</mgrwt>
</event>
<event>
 6    1  0.6513574E-002  0.3000000E+03  0.7818608E-02  0.1093470E+00
         21   -1    0    0  501  502  0.00000000000E+00  0.00000000000E+00  0.17273926393E+01  0.17273926393E+01  0.00000000000E+00 0. -1.
         13   -1    0    0    0    0 -0.00000000000E+00 -0.00000000000E+00 -0.10000000000E+04  0.10000000000E+04  0.00000000000E+00 0.  1.
    9000005    2    1    2  501    0 -0.22619831003E+01  0.39662664495E+02 -0.64454053536E+03  0.64577146520E+03  0.31685978998E+01 0.  0.
         13    1    3    3    0    0 -0.20596821891E+01  0.28108623951E+02 -0.43422155403E+03  0.43513526060E+03  0.00000000000E+00 0.  1.
          3    1    3    3  501    0 -0.20230091120E+00  0.11554040545E+02 -0.21031898133E+03  0.21063620460E+03  0.00000000000E+00 0.  1.
         -3    1    1    2    0  502  0.22619831003E+01 -0.39662664495E+02 -0.35373207200E+03  0.35595592744E+03  0.00000000000E+00 0. -1.
<mgrwt>
<rscale>  1 0.30000000E+03</rscale>
<asrwt>0</asrwt>
<pdfrwt beam="1">  1       21 0.62814410E-02 0.30000000E+03</pdfrwt>
<pdfrwt beam="2">0</pdfrwt>
<totfact> 0.19468426E+04</totfact>
</mgrwt>
</event>
<event>
 6    1  0.6513574E-002  0.3000000E+03  0.7818608E-02  0.1093470E+00
         21   -1    0    0  501  502  0.00000000000E+00  0.00000000000E+00  0.99529393712E+00  0.99529393712E+00  0.00000000000E+00 0. -1.
         13   -1    0    0    0    0 -0.00000000000E+00 -0.00000000000E+00 -0.10000000000E+04  0.10000000000E+04  0.00000000000E+00 0.  1.
    9000005    2    1    2  501    0 -0.28400112612E+02 -0.13434750226E+02 -0.53349380593E+03  0.53442540951E+03  0.27961502680E+01 0.  0.
         13    1    3    3    0    0 -0.11974227098E+02 -0.46004944578E+01 -0.20097367622E+03  0.20138263380E+03  0.00000000000E+00 0.  1.
          3    1    3    3  501    0 -0.16425885514E+02 -0.88342557679E+01 -0.33252012971E+03  0.33304277571E+03  0.00000000000E+00 0.  1.
         -1    1    1    2    0  502  0.28400112612E+02  0.13434750226E+02 -0.46551090013E+03  0.46656988442E+03  0.00000000000E+00 0. -1.
<mgrwt>
<rscale>  1 0.30000000E+03</rscale>
<asrwt>0</asrwt>
<pdfrwt beam="1">  1       21 0.36192583E-02 0.30000000E+03</pdfrwt>
<pdfrwt beam="2">0</pdfrwt>
<totfact> 0.49743225E+04</totfact>
</mgrwt>
</event>
<event>
 6    1  0.6513574E-002  0.3000000E+03  0.7818608E-02  0.1093470E+00
         21   -1    0    0  501  502  0.00000000000E+00  0.00000000000E+00  0.11748761681E+01  0.11748761681E+01  0.00000000000E+00 0. -1.
         13   -1    0    0    0    0 -0.00000000000E+00 -0.00000000000E+00 -0.10000000000E+04  0.10000000000E+04  0.00000000000E+00 0.  1.
    9000005    2    1    2  501    0  0.14694463766E+02  0.30086446879E+02 -0.40046109525E+03  0.40187475749E+03  0.36208210042E+01 0.  0.
         13    1    3    3    0    0  0.87524977143E-01  0.20705001875E+01 -0.22311562394E+02  0.22407597999E+02  0.00000000000E+00 0.  1.
          1    1    3    3  501    0  0.14606938789E+02  0.28015946691E+02 -0.37814953286E+03  0.37946715949E+03  0.00000000000E+00 0.  1.
         -3    1    1    2    0  502 -0.14694463766E+02 -0.30086446879E+02 -0.59836402858E+03  0.59930011868E+03  0.00000000000E+00 0. -1.
<mgrwt>
<rscale>  1 0.30000000E+03</rscale>
<asrwt>0</asrwt>
<pdfrwt beam="1">  1       21 0.42722860E-02 0.30000000E+03</pdfrwt>
<pdfrwt beam="2">0</pdfrwt>
<totfact> 0.37625865E+04</totfact>
</mgrwt>
</event>
<event>
 6    1  0.6513574E-002  0.3000000E+03  0.7818608E-02  0.1093470E+00
         21   -1    0    0  501  502  0.00000000000E+00  0.00000000000E+00  0.21680866163E+01  0.21680866163E+01  0.00000000000E+00 0. -1.
         13   -1    0    0    0    0 -0.00000000000E+00 -0.00000000000E+00 -0.10000000000E+04  0.10000000000E+04  0.00000000000E+00 0.  1.
    9000005    2    1    2  501    0 -0.29527459474E+02 -0.35130022808E+02 -0.57836216700E+03  0.58019550753E+03  0.42475147028E+01 0.  0.
         13    1    3    3    0    0 -0.11690073904E+02 -0.15737468984E+02 -0.22507977301E+03  0.22593191447E+03  0.00000000000E+00 0.  1.
          1    1    3    3  501    0 -0.17837385569E+02 -0.19392553824E+02 -0.35328239399E+03  0.35426359306E+03  0.00000000000E+00 0.  1.
         -1    1    1    2    0  502  0.29527459474E+02  0.35130022808E+02 -0.41946974639E+03  0.42197257908E+03  0.00000000000E+00 0. -1.
<mgrwt>
<rscale>  1 0.30000000E+03</rscale>
<asrwt>0</asrwt>
<pdfrwt beam="1">  1       21 0.78839680E-02 0.30000000E+03</pdfrwt>
<pdfrwt beam="2">0</pdfrwt>
<totfact> 0.13105781E+04</totfact>
</mgrwt>
</event>
<event>
 6    1  0.6513574E-002  0.3000000E+03  0.7818608E-02  0.1093470E+00
         21   -1    0    0  501  502  0.00000000000E+00  0.00000000000E+00  0.98624909199E+00  0.98624909199E+00  0.00000000000E+00 0. -1.
         13   -1    0    0    0    0 -0.00000000000E+00 -0.00000000000E+00 -0.10000000000E+04  0.10000000000E+04  0.00000000000E+00 0.  1.
    9000005    2    1    2  501    0  0.31097867469E+02 -0.11255646320E+01 -0.45007194316E+03  0.45116313885E+03  0.38832441254E+01 0.  0.
         13    1    3    3    0    0  0.20752101917E+02 -0.34929768202E+00 -0.27326156686E+03  0.27404863741E+03  0.00000000000E+00 0.  1.
          3    1    3    3  501    0  0.10345765552E+02 -0.77626694997E+00 -0.17681037630E+03  0.17711450144E+03  0.00000000000E+00 0.  1.
         -3    1    1    2    0  502 -0.31097867469E+02  0.11255646320E+01 -0.54894180775E+03  0.54982311024E+03  0.00000000000E+00 0. -1.
<mgrwt>
<rscale>  1 0.30000000E+03</rscale>
<asrwt>0</asrwt>
<pdfrwt beam="1">  1       21 0.35863679E-02 0.30000000E+03</pdfrwt>
<pdfrwt beam="2">0</pdfrwt>
<totfact> 0.50510630E+04</totfact>
</mgrwt>
</event>
<event>
 6    1  0.6513574E-002  0.3000000E+03  0.7818608E-02  0.1093470E+00
         21   -1    0    0  501  502  0.00000000000E+00  0.00000000000E+00  0.10199424065E+01  0.10199424065E+01  0.00000000000E+00 0. -1.
         13   -1    0    0    0    0 -0.00000000000E+00 -0.00000000000E+00 -0.10000000000E+04  0.10000000000E+04  0.00000000000E+00 0.  1.
    9000005    2    1    2  501    0 -0.49350419309E+01  0.29726985046E+02 -0.33914081902E+03  0.34049297927E+03  0.33053778727E+01 0.  0.
         13    1    3    3    0    0 -0.12631764218E+01  0.16495151875E+02 -0.19390288025E+03  0.19460732931E+03  0.00000000000E+00 0.  1.
          1    1    3    3  501    0 -0.36718655091E+01  0.13231833171E+02 -0.14523793877E+03  0.14588564996E+03  0.00000000000E+00 0.  1.
         -1    1    1    2    0  502  0.49350419309E+01 -0.29726985046E+02 -0.65983923857E+03  0.66052696314E+03  0.00000000000E+00 0. -1.
<mgrwt>
<rscale>  1 0.30000000E+03</rscale>
<asrwt>0</asrwt>
<pdfrwt beam="1">  1       21 0.37088893E-02 0.30000000E+03</pdfrwt>
<pdfrwt beam="2">0</pdfrwt>
<totfact> 0.47742750E+04</totfact>
</mgrwt>
</event>
<event>
 6    1  0.6513574E-002  0.3000000E+03  0.7818608E-02  0.1093470E+00
         21   -1    0    0  501  502  0.00000000000E+00  0.00000000000E+00  0.15712719783E+01  0.15712719783E+01  0.00000000000E+00 0. -1.
         13   -1    0    0    0    0 -0.00000000000E+00 -0.00000000000E+00 -0.10000000000E+04  0.10000000000E+04  0.00000000000E+00 0.  1.
    9000005    2    1    2  501    0 -0.35113188964E+01  0.39207809108E+02 -0.44993509877E+03  0.45166687758E+03  0.34341719283E+01 0.  0.
         13    1    3    3    0    0 -0.34938093422E+01  0.21017605484E+02 -0.24949506330E+03  0.25040314106E+03  0.00000000000E+00 0.  1.
          3    1    3    3  501    0 -0.17509554202E-01  0.18190203624E+02 -0.20044003548E+03  0.20126373651E+03  0.00000000000E+00 0.  1.
         -1    1    1    2    0  502  0.35113188964E+01 -0.39207809108E+02 -0.54849362925E+03  0.54990439440E+03  0.00000000000E+00 0. -1.
<mgrwt>
<rscale>  1 0.30000000E+03</rscale>
<asrwt>0</asrwt>
<pdfrwt beam="1">  1       21 0.57137283E-02 0.30000000E+03</pdfrwt>
<pdfrwt beam="2">0</pdfrwt>
<totfact> 0.22923233E+04</totfact>
</mgrwt>
</event>
<event>
 6    1  0.6513574E-002  0.3000000E+03  0.7818608E-02  0.1093470E+00
         21   -1    0    0  501  502  0.00000000000E+00  0.00000000000E+00  0.10504222250E+01  0.10504222250E+01  0.00000000000E+00 0. -1.
         13   -1    0    0    0    0 -0.00000000000E+00 -0.00000000000E+00 -0.10000000000E+04  0.10000000000E+04  0.00000000000E+00 0.  1.
    9000005    2    1    2  501    0 -0.31774908907E+02  0.22717721035E+01 -0.41542389219E+03  0.41665583676E+03  0.32047337843E+01 0.  0.
         13    1    3    3    0    0 -0.16573673542E+02  0.25946946797E+01 -0.20794592841E+03  0.20862149514E+03  0.00000000000E+00 0.  1.
          1    1    3    3  501    0 -0.15201235364E+02 -0.32292257618E+00 -0.20747796379E+03  0.20803434162E+03  0.00000000000E+00 0.  1.
         -1    1    1    2    0  502  0.31774908907E+02 -0.22717721035E+01 -0.58352568558E+03  0.58439458546E+03  0.00000000000E+00 0. -1.
<mgrwt>
<rscale>  1 0.30000000E+03</rscale>
<asrwt>0</asrwt>
<pdfrwt beam="1">  1       21 0.38197252E-02 0.30000000E+03</pdfrwt>
<pdfrwt beam="2">0</pdfrwt>
<totfact> 0.45439050E+04</totfact>
</mgrwt>
</event>
<event>
 6    1  0.6513574E-002  0.3000000E+03  0.7818608E-02  0.1093470E+00
         21   -1    0    0  501  502  0.00000000000E+00  0.00000000000E+00  0.26942341378E+01  0.26942341378E+01  0.00000000000E+00 0. -1.
         13   -1    0    0    0    0 -0.00000000000E+00 -0.00000000000E+00 -0.10000000000E+04  0.10000000000E+04  0.00000000000E+00 0.  1.
    9000005    2    1    2  501    0 -0.34144692801E+02  0.29583790305E+02 -0.25436516164E+03  0.25838126093E+03  0.42637828674E+01 0.  0.
         13    1    3    3    0    0 -0.16390781031E+02  0.13262198060E+02 -0.13013532175E+03  0.13183226300E+03  0.00000000000E+00 0.  1.
          3    1    3    3  501    0 -0.17753911770E+02  0.16321592244E+02 -0.12422983989E+03  0.12654899793E+03  0.00000000000E+00 0.  1.
         -1    1    1    2    0  502  0.34144692801E+02 -0.29583790305E+02 -0.74294060422E+03  0.74431297321E+03  0.00000000000E+00 0. -1.
<mgrwt>
<rscale>  1 0.30000000E+03</rscale>
<asrwt>0</asrwt>
<pdfrwt beam="1">  1       21 0.97972357E-02 0.30000000E+03</pdfrwt>
<pdfrwt beam="2">0</pdfrwt>
<totfact> 0.89237411E+03</totfact>
</mgrwt>
</event>
<event>
 6    1  0.6513574E-002  0.3000000E+03  0.7818608E-02  0.1093470E+00
         21   -1    0    0  501  502  0.00000000000E+00  0.00000000000E+00  0.10206084155E+01  0.10206084155E+01  0.00000000000E+00 0. -1.
         13   -1    0    0    0    0 -0.00000000000E+00 -0.00000000000E+00 -0.10000000000E+04  0.10000000000E+04  0.00000000000E+00 0.  1.
    9000005    2    1    2  501    0  0.11031868246E+02 -0.29683041629E+02 -0.44577005077E+03  0.44690567463E+03  0.33104044348E+01 0.  0.
         13    1    3    3    0    0  0.23435535933E+01 -0.10390673496E+02 -0.15842681624E+03  0.15878449056E+03  0.00000000000E+00 0.  1.
          3    1    3    3  501    0  0.86883146531E+01 -0.19292368133E+02 -0.28734323452E+03  0.28812118406E+03  0.00000000000E+00 0.  1.
         -1    1    1    2    0  502 -0.11031868246E+02  0.29683041629E+02 -0.55320934082E+03  0.55411493379E+03  0.00000000000E+00 0. -1.
<mgrwt>
<rscale>  1 0.30000000E+03</rscale>
<asrwt>0</asrwt>
<pdfrwt beam="1">  1       21 0.37113112E-02 0.30000000E+03</pdfrwt>
<pdfrwt beam="2">0</pdfrwt>
<totfact> 0.47690464E+04</totfact>
</mgrwt>
</event>
<event>
 6    1  0.6513574E-002  0.3000000E+03  0.7818608E-02  0.1093470E+00
         21   -1    0    0  501  502  0.00000000000E+00  0.00000000000E+00  0.85855373069E+01  0.85855373069E+01  0.00000000000E+00 0. -1.
         13   -1    0    0    0    0 -0.00000000000E+00 -0.00000000000E+00 -0.10000000000E+04  0.10000000000E+04  0.00000000000E+00 0.  1.
    9000005    2    1    2  501    0  0.87015151282E+02 -0.16602009808E+02 -0.34845940961E+03  0.35955667542E+03  0.31272045262E+01 0.  0.
         13    1    3    3    0    0  0.58642657599E+02 -0.12589799677E+02 -0.23780362031E+03  0.24525094532E+03  0.00000000000E+00 0.  1.
          1    1    3    3  501    0  0.28372493683E+02 -0.40122101307E+01 -0.11065578930E+03  0.11430573010E+03  0.00000000000E+00 0.  1.
         -3    1    1    2    0  502 -0.87015151282E+02  0.16602009808E+02 -0.64295505308E+03  0.64902886189E+03  0.00000000000E+00 0. -1.
<mgrwt>
<rscale>  1 0.30000000E+03</rscale>
<asrwt>0</asrwt>
<pdfrwt beam="1">  1       21 0.31220201E-01 0.30000000E+03</pdfrwt>
<pdfrwt beam="2">0</pdfrwt>
<totfact> 0.10036905E+03</totfact>
</mgrwt>
</event>
<event>
 6    1  0.6513574E-002  0.3000000E+03  0.7818608E-02  0.1093470E+00
         21   -1    0    0  501  502  0.00000000000E+00  0.00000000000E+00  0.98906251303E+00  0.98906251303E+00  0.00000000000E+00 0. -1.
         13   -1    0    0    0    0 -0.00000000000E+00 -0.00000000000E+00 -0.10000000000E+04  0.10000000000E+04  0.00000000000E+00 0.  1.
    9000005    2    1    2  501    0  0.26581955083E+02  0.15865839141E+02 -0.41943002613E+03  0.42058200019E+03  0.30572658965E+01 0.  0.
         13    1    3    3    0    0  0.21457392324E+02  0.12115528388E+02 -0.31791877162E+03  0.31887231153E+03  0.00000000000E+00 0.  1.
          1    1    3    3  501    0  0.51245627591E+01  0.37503107539E+01 -0.10151125451E+03  0.10170968865E+03  0.00000000000E+00 0.  1.
         -3    1    1    2    0  502 -0.26581955083E+02 -0.15865839141E+02 -0.57958091136E+03  0.58040706233E+03  0.00000000000E+00 0. -1.
<mgrwt>
<rscale>  1 0.30000000E+03</rscale>
<asrwt>0</asrwt>
<pdfrwt beam="1">  1       21 0.35965985E-02 0.30000000E+03</pdfrwt>
<pdfrwt beam="2">0</pdfrwt>
<totfact> 0.50269936E+04</totfact>
</mgrwt>
</event>
<event>
 6    1  0.6513574E-002  0.3000000E+03  0.7818608E-02  0.1093470E+00
         21   -1    0    0  501  502  0.00000000000E+00  0.00000000000E+00  0.40565143915E+01  0.40565143915E+01  0.00000000000E+00 0. -1.
         13   -1    0    0    0    0 -0.00000000000E+00 -0.00000000000E+00 -0.10000000000E+04  0.10000000000E+04  0.00000000000E+00 0.  1.
    9000005    2    1    2  501    0 -0.42360863176E+02 -0.29953859476E+02 -0.20792819058E+03  0.21433518276E+03  0.37096774125E+01 0.  0.
         13    1    3    3    0    0 -0.11199330795E+02 -0.80075199763E+01 -0.62172202638E+02  0.63678317874E+02  0.00000000000E+00 0.  1.
          3    1    3    3  501    0 -0.31161532382E+02 -0.21946339500E+02 -0.14575598794E+03  0.15065686489E+03  0.00000000000E+00 0.  1.
         -1    1    1    2    0  502  0.42360863176E+02  0.29953859476E+02 -0.78801529503E+03  0.78972133163E+03  0.00000000000E+00 0. -1.
<mgrwt>
<rscale>  1 0.30000000E+03</rscale>
<asrwt>0</asrwt>
<pdfrwt beam="1">  1       21 0.14750993E-01 0.30000000E+03</pdfrwt>
<pdfrwt beam="2">0</pdfrwt>
<totfact> 0.42474954E+03</totfact>
</mgrwt>
</event>
<event>
 6    1  0.6513574E-002  0.3000000E+03  0.7818608E-02  0.1093470E+00
         21   -1    0    0  501  502  0.00000000000E+00  0.00000000000E+00  0.23327687111E+01  0.23327687111E+01  0.00000000000E+00 0. -1.
         13   -1    0    0    0    0 -0.00000000000E+00 -0.00000000000E+00 -0.10000000000E+04  0.10000000000E+04  0.00000000000E+00 0.  1.
    9000005    2    1    2  501    0 -0.15106458619E+02 -0.44487325428E+02 -0.61319290639E+03  0.61499850258E+03  0.32078822202E+01 0.  0.
         13    1    3    3    0    0 -0.10867172700E+02 -0.27167226644E+02 -0.38169551927E+03  0.38281539033E+03  0.00000000000E+00 0.  1.
          3    1    3    3  501    0 -0.42392859193E+01 -0.17320098784E+02 -0.23149738712E+03  0.23218311224E+03  0.00000000000E+00 0.  1.
         -1    1    1    2    0  502  0.15106458619E+02  0.44487325428E+02 -0.38447432490E+03  0.38733426613E+03  0.00000000000E+00 0. -1.
<mgrwt>
<rscale>  1 0.30000000E+03</rscale>
<asrwt>0</asrwt>
<pdfrwt beam="1">  1       21 0.84828132E-02 0.30000000E+03</pdfrwt>
<pdfrwt beam="2">0</pdfrwt>
<totfact> 0.11522310E+04</totfact>
</mgrwt>
</event>
<event>
 6    1  0.6513574E-002  0.3000000E+03  0.7818608E-02  0.1093470E+00
         21   -1    0    0  501  502  0.00000000000E+00  0.00000000000E+00  0.16191164260E+01  0.16191164260E+01  0.00000000000E+00 0. -1.
         13   -1    0    0    0    0 -0.00000000000E+00 -0.00000000000E+00 -0.10000000000E+04  0.10000000000E+04  0.00000000000E+00 0.  1.
    9000005    2    1    2  501    0  0.15618741791E+02  0.33175000861E+02 -0.29757384175E+03  0.29985346064E+03  0.41690267351E+01 0.  0.
         13    1    3    3    0    0  0.13759221765E+01  0.15195519653E+01 -0.23726649019E+02  0.23815038814E+02  0.00000000000E+00 0.  1.
          1    1    3    3  501    0  0.14242819614E+02  0.31655448895E+02 -0.27384719273E+03  0.27603842182E+03  0.00000000000E+00 0.  1.
         -1    1    1    2    0  502 -0.15618741791E+02 -0.33175000861E+02 -0.70080704182E+03  0.70176565579E+03  0.00000000000E+00 0. -1.
<mgrwt>
<rscale>  1 0.30000000E+03</rscale>
<asrwt>0</asrwt>
<pdfrwt beam="1">  1       21 0.58877085E-02 0.30000000E+03</pdfrwt>
<pdfrwt beam="2">0</pdfrwt>
<totfact> 0.21769294E+04</totfact>
</mgrwt>
</event>
<event>
 6    1  0.6513574E-002  0.3000000E+03  0.7818608E-02  0.1093470E+00
         21   -1    0    0  501  502  0.00000000000E+00  0.00000000000E+00  0.55434951245E+01  0.55434951245E+01  0.00000000000E+00 0. -1.
         13   -1    0    0    0    0 -0.00000000000E+00 -0.00000000000E+00 -0.10000000000E+04  0.10000000000E+04  0.00000000000E+00 0.  1.
    9000005    2    1    2  501    0 -0.12453921943E+02  0.59827528102E+02 -0.21049894865E+03  0.21920776323E+03  0.27933469455E+01 0.  0.
         13    1    3    3    0    0 -0.82921688639E+01  0.33679370339E+02 -0.11727332906E+03  0.12229510931E+03  0.00000000000E+00 0.  1.
          3    1    3    3  501    0 -0.41617530793E+01  0.26148157763E+02 -0.93225619587E+02  0.96912653923E+02  0.00000000000E+00 0.  1.
         -1    1    1    2    0  502  0.12453921943E+02 -0.59827528102E+02 -0.78395755622E+03  0.78633573189E+03  0.00000000000E+00 0. -1.
<mgrwt>
<rscale>  1 0.30000000E+03</rscale>
<asrwt>0</asrwt>
<pdfrwt beam="1">  1       21 0.20158207E-01 0.30000000E+03</pdfrwt>
<pdfrwt beam="2">0</pdfrwt>
<totfact> 0.23633887E+03</totfact>
</mgrwt>
</event>
<event>
 6    1  0.6513574E-002  0.3000000E+03  0.7818608E-02  0.1093470E+00
         21   -1    0    0  501  502  0.00000000000E+00  0.00000000000E+00  0.23856777631E+01  0.23856777631E+01  0.00000000000E+00 0. -1.
         13   -1    0    0    0    0 -0.00000000000E+00 -0.00000000000E+00 -0.10000000000E+04  0.10000000000E+04  0.00000000000E+00 0.  1.
    9000005    2    1    2  501    0  0.34732258944E+00  0.30816676005E+02 -0.11105926798E+03  0.11529512298E+03  0.30027031562E+01 0.  0.
         13    1    3    3    0    0  0.61880796029E+00  0.28277271997E+02 -0.98585793979E+02  0.10256288710E+03  0.00000000000E+00 0.  1.
          1    1    3    3  501    0 -0.27148537084E+00  0.25394040075E+01 -0.12473473997E+02  0.12732235883E+02  0.00000000000E+00 0.  1.
         -3    1    1    2    0  502 -0.34732258944E+00 -0.30816676005E+02 -0.88655505426E+03  0.88709055478E+03  0.00000000000E+00 0. -1.
<mgrwt>
<rscale>  1 0.30000000E+03</rscale>
<asrwt>0</asrwt>
<pdfrwt beam="1">  1       21 0.86752102E-02 0.30000000E+03</pdfrwt>
<pdfrwt beam="2">0</pdfrwt>
<totfact> 0.11075217E+04</totfact>
</mgrwt>
</event>
<event>
 6    1  0.6513574E-002  0.3000000E+03  0.7818608E-02  0.1093470E+00
         21   -1    0    0  501  502  0.00000000000E+00  0.00000000000E+00  0.11678960198E+01  0.11678960198E+01  0.00000000000E+00 0. -1.
         13   -1    0    0    0    0 -0.00000000000E+00 -0.00000000000E+00 -0.10000000000E+04  0.10000000000E+04  0.00000000000E+00 0.  1.
    9000005    2    1    2  501    0 -0.96053488129E+01  0.32220228035E+02 -0.58374557962E+03  0.58472194691E+03  0.32322836476E+01 0.  0.
         13    1    3    3    0    0 -0.68491868382E+00  0.66311496460E+01 -0.10949171904E+03  0.10969447478E+03  0.00000000000E+00 0.  1.
          1    1    3    3  501    0 -0.89204301291E+01  0.25589078389E+02 -0.47425386058E+03  0.47502747213E+03  0.00000000000E+00 0.  1.
         -1    1    1    2    0  502  0.96053488129E+01 -0.32220228035E+02 -0.41508652436E+03  0.41644594911E+03  0.00000000000E+00 0. -1.
<mgrwt>
<rscale>  1 0.30000000E+03</rscale>
<asrwt>0</asrwt>
<pdfrwt beam="1">  1       21 0.42469036E-02 0.30000000E+03</pdfrwt>
<pdfrwt beam="2">0</pdfrwt>
<totfact> 0.38006726E+04</totfact>
</mgrwt>
</event>
<event>
 6    1  0.6513574E-002  0.3000000E+03  0.7818608E-02  0.1093470E+00
         21   -1    0    0  501  502  0.00000000000E+00  0.00000000000E+00  0.12797707034E+01  0.12797707034E+01  0.00000000000E+00 0. -1.
         13   -1    0    0    0    0 -0.00000000000E+00 -0.00000000000E+00 -0.10000000000E+04  0.10000000000E+04  0.00000000000E+00 0.  1.
    9000005    2    1    2  501    0  0.15682109374E+02 -0.28890782119E+02 -0.30531726274E+03  0.30709803666E+03  0.31571109191E+01 0.  0.
         13    1    3    3    0    0  0.14342474846E+02 -0.26682869062E+02 -0.27228303409E+03  0.27396301345E+03  0.00000000000E+00 0.  1.
          1    1    3    3  501    0  0.13396345287E+01 -0.22079130573E+01 -0.33034228657E+02  0.33135023218E+02  0.00000000000E+00 0.  1.
         -1    1    1    2    0  502 -0.15682109374E+02  0.28890782119E+02 -0.69340296656E+03  0.69418173404E+03  0.00000000000E+00 0. -1.
<mgrwt>
<rscale>  1 0.30000000E+03</rscale>
<asrwt>0</asrwt>
<pdfrwt beam="1">  1       21 0.46537215E-02 0.30000000E+03</pdfrwt>
<pdfrwt beam="2">0</pdfrwt>
<totfact> 0.32547239E+04</totfact>
</mgrwt>
</event>
<event>
 6    1  0.6513574E-002  0.3000000E+03  0.7818608E-02  0.1093470E+00
         21   -1    0    0  501  502  0.00000000000E+00  0.00000000000E+00  0.15812807166E+01  0.15812807166E+01  0.00000000000E+00 0. -1.
         13   -1    0    0    0    0 -0.00000000000E+00 -0.00000000000E+00 -0.10000000000E+04  0.10000000000E+04  0.00000000000E+00 0.  1.
    9000005    2    1    2  501    0 -0.19429395859E+02 -0.33383993557E+02 -0.38469521234E+03  0.38664345018E+03  0.32800489355E+01 0.  0.
         13    1    3    3    0    0 -0.45525189468E+01 -0.91174763540E+01 -0.89062855502E+02  0.89643996085E+02  0.00000000000E+00 0.  1.
          1    1    3    3  501    0 -0.14876876912E+02 -0.24266517203E+02 -0.29563235683E+03  0.29699945409E+03  0.00000000000E+00 0.  1.
         -3    1    1    2    0  502  0.19429395859E+02  0.33383993557E+02 -0.61372350695E+03  0.61493783054E+03  0.00000000000E+00 0. -1.
<mgrwt>
<rscale>  1 0.30000000E+03</rscale>
<asrwt>0</asrwt>
<pdfrwt beam="1">  1       21 0.57501238E-02 0.30000000E+03</pdfrwt>
<pdfrwt beam="2">0</pdfrwt>
<totfact> 0.22674191E+04</totfact>
</mgrwt>
</event>
<event>
 6    1  0.6513574E-002  0.3000000E+03  0.7818608E-02  0.1093470E+00
         21   -1    0    0  501  502  0.00000000000E+00  0.00000000000E+00  0.19448705488E+01  0.19448705488E+01  0.00000000000E+00 0. -1.
         13   -1    0    0    0    0 -0.00000000000E+00 -0.00000000000E+00 -0.10000000000E+04  0.10000000000E+04  0.00000000000E+00 0.  1.
    9000005    2    1    2  501    0 -0.68300495133E+01 -0.43209824175E+02 -0.44214643230E+03  0.44431755948E+03  0.32996340766E+01 0.  0.
         13    1    3    3    0    0 -0.49277831628E+01 -0.37139183202E+02 -0.38467942643E+03  0.38649949948E+03  0.00000000000E+00 0.  1.
          1    1    3    3  501    0 -0.19022663505E+01 -0.60706409728E+01 -0.57467005864E+02  0.57818059999E+02  0.00000000000E+00 0.  1.
         -1    1    1    2    0  502  0.68300495133E+01  0.43209824175E+02 -0.55590869715E+03  0.55762731107E+03  0.00000000000E+00 0. -1.
<mgrwt>
<rscale>  1 0.30000000E+03</rscale>
<asrwt>0</asrwt>
<pdfrwt beam="1">  1       21 0.70722715E-02 0.30000000E+03</pdfrwt>
<pdfrwt beam="2">0</pdfrwt>
<totfact> 0.15849297E+04</totfact>
</mgrwt>
</event>
<event>
 6    1  0.6513574E-002  0.3000000E+03  0.7818608E-02  0.1093470E+00
         21   -1    0    0  501  502  0.00000000000E+00  0.00000000000E+00  0.13952505262E+01  0.13952505262E+01  0.00000000000E+00 0. -1.
         13   -1    0    0    0    0 -0.00000000000E+00 -0.00000000000E+00 -0.10000000000E+04  0.10000000000E+04  0.00000000000E+00 0.  1.
    9000005    2    1    2  501    0 -0.34082040638E+02  0.96460631643E+01 -0.65201168756E+03  0.65299694026E+03  0.55795382689E+01 0.  0.
         13    1    3    3    0    0 -0.55447282433E+01  0.12685009001E+01 -0.14722758570E+03  0.14733741921E+03  0.00000000000E+00 0.  1.
          3    1    3    3  501    0 -0.28537312394E+02  0.83775622641E+01 -0.50478410186E+03  0.50565952106E+03  0.00000000000E+00 0.  1.
         -1    1    1    2    0  502  0.34082040638E+02 -0.96460631643E+01 -0.34659306191E+03  0.34839831026E+03  0.00000000000E+00 0. -1.
<mgrwt>
<rscale>  1 0.30000000E+03</rscale>
<asrwt>0</asrwt>
<pdfrwt beam="1">  1       21 0.50736490E-02 0.30000000E+03</pdfrwt>
<pdfrwt beam="2">0</pdfrwt>
<totfact> 0.28095256E+04</totfact>
</mgrwt>
</event>
<event>
 6    1  0.6513574E-002  0.3000000E+03  0.7818608E-02  0.1093470E+00
         21   -1    0    0  501  502  0.00000000000E+00  0.00000000000E+00  0.17385000193E+01  0.17385000193E+01  0.00000000000E+00 0. -1.
         13   -1    0    0    0    0 -0.00000000000E+00 -0.00000000000E+00 -0.10000000000E+04  0.10000000000E+04  0.00000000000E+00 0.  1.
    9000005    2    1    2  501    0  0.39600963919E+02 -0.12857129696E+02 -0.49513583678E+03  0.49689300376E+03  0.31013205771E+01 0.  0.
         13    1    3    3    0    0  0.33137184006E+02 -0.11925622436E+02 -0.41975690285E+03  0.42123170693E+03  0.00000000000E+00 0.  1.
          3    1    3    3  501    0  0.64637799135E+01 -0.93150726019E+00 -0.75378933932E+02  0.75661296826E+02  0.00000000000E+00 0.  1.
         -3    1    1    2    0  502 -0.39600963919E+02  0.12857129696E+02 -0.50312566320E+03  0.50484549626E+03  0.00000000000E+00 0. -1.
<mgrwt>
<rscale>  1 0.30000000E+03</rscale>
<asrwt>0</asrwt>
<pdfrwt beam="1">  1       21 0.63218316E-02 0.30000000E+03</pdfrwt>
<pdfrwt beam="2">0</pdfrwt>
<totfact> 0.19253932E+04</totfact>
</mgrwt>
</event>
<event>
 6    1  0.6513574E-002  0.3000000E+03  0.7818608E-02  0.1093470E+00
         21   -1    0    0  501  502  0.00000000000E+00  0.00000000000E+00  0.12805156352E+01  0.12805156352E+01  0.00000000000E+00 0. -1.
         13   -1    0    0    0    0 -0.00000000000E+00 -0.00000000000E+00 -0.10000000000E+04  0.10000000000E+04  0.00000000000E+00 0.  1.
    9000005    2    1    2  501    0  0.28511394735E+02 -0.12591595575E+02 -0.25578069959E+03  0.25768823096E+03  0.28302266068E+01 0.  0.
         13    1    3    3    0    0  0.21444120340E+02 -0.85699684947E+01 -0.19654704205E+03  0.19789905102E+03  0.00000000000E+00 0.  1.
          3    1    3    3  501    0  0.70672743949E+01 -0.40216270799E+01 -0.59233657544E+02  0.59789179939E+02  0.00000000000E+00 0.  1.
         -1    1    1    2    0  502 -0.28511394735E+02  0.12591595575E+02 -0.74293878477E+03  0.74359228468E+03  0.00000000000E+00 0. -1.
<mgrwt>
<rscale>  1 0.30000000E+03</rscale>
<asrwt>0</asrwt>
<pdfrwt beam="1">  1       21 0.46564303E-02 0.30000000E+03</pdfrwt>
<pdfrwt beam="2">0</pdfrwt>
<totfact> 0.32515064E+04</totfact>
</mgrwt>
</event>
<event>
 6    1  0.6513574E-002  0.3000000E+03  0.7818608E-02  0.1093470E+00
         21   -1    0    0  501  502  0.00000000000E+00  0.00000000000E+00  0.16493282120E+01  0.16493282120E+01  0.00000000000E+00 0. -1.
         13   -1    0    0    0    0 -0.00000000000E+00 -0.00000000000E+00 -0.10000000000E+04  0.10000000000E+04  0.00000000000E+00 0.  1.
    9000005    2    1    2  501    0  0.33779383009E+02  0.22394134877E+02 -0.51261431773E+03  0.51422512934E+03  0.33912989653E+01 0.  0.
         13    1    3    3    0    0  0.26144434852E+02  0.15727508118E+02 -0.39222019837E+03  0.39340509655E+03  0.00000000000E+00 0.  1.
          1    1    3    3  501    0  0.76349481578E+01  0.66666267589E+01 -0.12039411937E+03  0.12082003279E+03  0.00000000000E+00 0.  1.
         -1    1    1    2    0  502 -0.33779383009E+02 -0.22394134877E+02 -0.48573635405E+03  0.48742419887E+03  0.00000000000E+00 0. -1.
<mgrwt>
<rscale>  1 0.30000000E+03</rscale>
<asrwt>0</asrwt>
<pdfrwt beam="1">  1       21 0.59975698E-02 0.30000000E+03</pdfrwt>
<pdfrwt beam="2">0</pdfrwt>
<totfact> 0.21086393E+04</totfact>
</mgrwt>
</event>
<event>
 6    1  0.6513574E-002  0.3000000E+03  0.7818608E-02  0.1093470E+00
         21   -1    0    0  501  502  0.00000000000E+00  0.00000000000E+00  0.15879918440E+01  0.15879918440E+01  0.00000000000E+00 0. -1.
         13   -1    0    0    0    0 -0.00000000000E+00 -0.00000000000E+00 -0.10000000000E+04  0.10000000000E+04  0.00000000000E+00 0.  1.
    9000005    2    1    2  501    0 -0.27932265315E+02  0.27413151859E+02 -0.58998417612E+03  0.59128933681E+03  0.31716578640E+01 0.  0.
         13    1    3    3    0    0 -0.23060445627E+02  0.24201833567E+02 -0.50374325442E+03  0.50485124470E+03  0.00000000000E+00 0.  1.
          1    1    3    3  501    0 -0.48718196878E+01  0.32113182928E+01 -0.86240921705E+02  0.86438092117E+02  0.00000000000E+00 0.  1.
         -3    1    1    2    0  502  0.27932265315E+02 -0.27413151859E+02 -0.40842783203E+03  0.41029865503E+03  0.00000000000E+00 0. -1.
<mgrwt>
<rscale>  1 0.30000000E+03</rscale>
<asrwt>0</asrwt>
<pdfrwt beam="1">  1       21 0.57745280E-02 0.30000000E+03</pdfrwt>
<pdfrwt beam="2">0</pdfrwt>
<totfact> 0.22509513E+04</totfact>
</mgrwt>
</event>
<event>
 6    1  0.6513574E-002  0.3000000E+03  0.7818608E-02  0.1093470E+00
         21   -1    0    0  501  502  0.00000000000E+00  0.00000000000E+00  0.13739443248E+01  0.13739443248E+01  0.00000000000E+00 0. -1.
         13   -1    0    0    0    0 -0.00000000000E+00 -0.00000000000E+00 -0.10000000000E+04  0.10000000000E+04  0.00000000000E+00 0.  1.
    9000005    2    1    2  501    0 -0.36765270677E+02 -0.31811251555E+01 -0.52916370207E+03  0.53046343676E+03  0.39280354422E+01 0.  0.
         13    1    3    3    0    0 -0.17863823799E+02 -0.28101171113E+01 -0.28027269681E+03  0.28085547446E+03  0.00000000000E+00 0.  1.
          3    1    3    3  501    0 -0.18901446878E+02 -0.37100804421E+00 -0.24889100527E+03  0.24960796230E+03  0.00000000000E+00 0.  1.
         -3    1    1    2    0  502  0.36765270677E+02  0.31811251555E+01 -0.46946235360E+03  0.47091050757E+03  0.00000000000E+00 0. -1.
<mgrwt>
<rscale>  1 0.30000000E+03</rscale>
<asrwt>0</asrwt>
<pdfrwt beam="1">  1       21 0.49961717E-02 0.30000000E+03</pdfrwt>
<pdfrwt beam="2">0</pdfrwt>
<totfact> 0.28842290E+04</totfact>
</mgrwt>
</event>
<event>
 6    1  0.6513574E-002  0.3000000E+03  0.7818608E-02  0.1093470E+00
         21   -1    0    0  501  502  0.00000000000E+00  0.00000000000E+00  0.12466114330E+01  0.12466114330E+01  0.00000000000E+00 0. -1.
         13   -1    0    0    0    0 -0.00000000000E+00 -0.00000000000E+00 -0.10000000000E+04  0.10000000000E+04  0.00000000000E+00 0.  1.
    9000005    2    1    2  501    0  0.28931198810E+02  0.17842904854E+02 -0.63278442583E+03  0.63370251176E+03  0.27129907278E+01 0.  0.
         13    1    3    3    0    0  0.19769155250E+02  0.11495974707E+02 -0.44584693042E+03  0.44643304347E+03  0.00000000000E+00 0.  1.
          3    1    3    3  501    0  0.91620435603E+01  0.63469301478E+01 -0.18693749541E+03  0.18726946829E+03  0.00000000000E+00 0.  1.
         -1    1    1    2    0  502 -0.28931198810E+02 -0.17842904854E+02 -0.36596896273E+03  0.36754409967E+03  0.00000000000E+00 0. -1.
<mgrwt>
<rscale>  1 0.30000000E+03</rscale>
<asrwt>0</asrwt>
<pdfrwt beam="1">  1       21 0.45331420E-02 0.30000000E+03</pdfrwt>
<pdfrwt beam="2">0</pdfrwt>
<totfact> 0.34031659E+04</totfact>
</mgrwt>
</event>
<event>
 6    1  0.6513574E-002  0.3000000E+03  0.7818608E-02  0.1093470E+00
         21   -1    0    0  501  502  0.00000000000E+00  0.00000000000E+00  0.13555319956E+01  0.13555319956E+01  0.00000000000E+00 0. -1.
         13   -1    0    0    0    0 -0.00000000000E+00 -0.00000000000E+00 -0.10000000000E+04  0.10000000000E+04  0.00000000000E+00 0.  1.
    9000005    2    1    2  501    0 -0.17310765102E+02  0.31397528356E+02 -0.40448064319E+03  0.40611094521E+03  0.60034766220E+01 0.  0.
         13    1    3    3    0    0 -0.55918904906E+01  0.16034564750E+02 -0.17876360694E+03  0.17956838160E+03  0.00000000000E+00 0.  1.
          3    1    3    3  501    0 -0.11718874612E+02  0.15362963606E+02 -0.22571703625E+03  0.22654256361E+03  0.00000000000E+00 0.  1.
         -3    1    1    2    0  502  0.17310765102E+02 -0.31397528356E+02 -0.59416382481E+03  0.59524458678E+03  0.00000000000E+00 0. -1.
<mgrwt>
<rscale>  1 0.30000000E+03</rscale>
<asrwt>0</asrwt>
<pdfrwt beam="1">  1       21 0.49292177E-02 0.30000000E+03</pdfrwt>
<pdfrwt beam="2">0</pdfrwt>
<totfact> 0.29513093E+04</totfact>
</mgrwt>
</event>
<event>
 6    1  0.6513574E-002  0.3000000E+03  0.7818608E-02  0.1093470E+00
         21   -1    0    0  501  502  0.00000000000E+00  0.00000000000E+00  0.12199602957E+01  0.12199602957E+01  0.00000000000E+00 0. -1.
         13   -1    0    0    0    0 -0.00000000000E+00 -0.00000000000E+00 -0.10000000000E+04  0.10000000000E+04  0.00000000000E+00 0.  1.
    9000005    2    1    2  501    0  0.30778933993E+02  0.86028527451E+00 -0.73166245197E+03  0.73233357436E+03  0.58683586214E+01 0.  0.
         13    1    3    3    0    0  0.58584961551E+01  0.22511974800E+01 -0.12395345451E+03  0.12411224256E+03  0.00000000000E+00 0.  1.
          1    1    3    3  501    0  0.24920437838E+02 -0.13909122054E+01 -0.60770899746E+03  0.60822133180E+03  0.00000000000E+00 0.  1.
         -3    1    1    2    0  502 -0.30778933993E+02 -0.86028527451E+00 -0.26711758773E+03  0.26888638594E+03  0.00000000000E+00 0. -1.
<mgrwt>
<rscale>  1 0.30000000E+03</rscale>
<asrwt>0</asrwt>
<pdfrwt beam="1">  1       21 0.44362286E-02 0.30000000E+03</pdfrwt>
<pdfrwt beam="2">0</pdfrwt>
<totfact> 0.35302457E+04</totfact>
</mgrwt>
</event>
<event>
 6    1  0.6513574E-002  0.3000000E+03  0.7818608E-02  0.1093470E+00
         21   -1    0    0  501  502  0.00000000000E+00  0.00000000000E+00  0.16283465182E+01  0.16283465182E+01  0.00000000000E+00 0. -1.
         13   -1    0    0    0    0 -0.00000000000E+00 -0.00000000000E+00 -0.10000000000E+04  0.10000000000E+04  0.00000000000E+00 0.  1.
    9000005    2    1    2  501    0 -0.34134744757E+02  0.12425711952E+02 -0.28247444530E+03  0.28481010470E+03  0.23247313904E+01 0.  0.
         13    1    3    3    0    0 -0.24965138989E+02  0.10151988465E+02 -0.21066057700E+03  0.21237749348E+03  0.00000000000E+00 0.  1.
          1    1    3    3  501    0 -0.91696057682E+01  0.22737234878E+01 -0.71813868301E+02  0.72432611224E+02  0.00000000000E+00 0.  1.
         -3    1    1    2    0  502  0.34134744757E+02 -0.12425711952E+02 -0.71589720818E+03  0.71681824181E+03  0.00000000000E+00 0. -1.
<mgrwt>
<rscale>  1 0.30000000E+03</rscale>
<asrwt>0</asrwt>
<pdfrwt beam="1">  1       21 0.59212726E-02 0.30000000E+03</pdfrwt>
<pdfrwt beam="2">0</pdfrwt>
<totfact> 0.21557044E+04</totfact>
</mgrwt>
</event>
<event>
 6    1  0.6513574E-002  0.3000000E+03  0.7818608E-02  0.1093470E+00
         21   -1    0    0  501  502  0.00000000000E+00  0.00000000000E+00  0.24308129075E+01  0.24308129075E+01  0.00000000000E+00 0. -1.
         13   -1    0    0    0    0 -0.00000000000E+00 -0.00000000000E+00 -0.10000000000E+04  0.10000000000E+04  0.00000000000E+00 0.  1.
    9000005    2    1    2  501    0  0.19947616622E+02  0.43941582928E+02 -0.40055203349E+03  0.40346649693E+03  0.38095265658E+01 0.  0.
         13    1    3    3    0    0  0.17696162891E+02  0.39146133938E+02 -0.34565769251E+03  0.34831711755E+03  0.00000000000E+00 0.  1.
          1    1    3    3  501    0  0.22514537312E+01  0.47954489896E+01 -0.54894340975E+02  0.55149379380E+02  0.00000000000E+00 0.  1.
         -3    1    1    2    0  502 -0.19947616622E+02 -0.43941582928E+02 -0.59701715361E+03  0.59896431598E+03  0.00000000000E+00 0. -1.
<mgrwt>
<rscale>  1 0.30000000E+03</rscale>
<asrwt>0</asrwt>
<pdfrwt beam="1">  1       21 0.88393383E-02 0.30000000E+03</pdfrwt>
<pdfrwt beam="2">0</pdfrwt>
<totfact> 0.10714342E+04</totfact>
</mgrwt>
</event>
<event>
 6    1  0.6513574E-002  0.3000000E+03  0.7818608E-02  0.1093470E+00
         21   -1    0    0  501  502  0.00000000000E+00  0.00000000000E+00  0.38135590858E+01  0.38135590858E+01  0.00000000000E+00 0. -1.
         13   -1    0    0    0    0 -0.00000000000E+00 -0.00000000000E+00 -0.10000000000E+04  0.10000000000E+04  0.00000000000E+00 0.  1.
    9000005    2    1    2  501    0 -0.44571967166E+02 -0.38014738214E+02 -0.65602684402E+03  0.65864645182E+03  0.34853755457E+01 0.  0.
         13    1    3    3    0    0 -0.55330858010E+01 -0.34902777642E+01 -0.66995103135E+02  0.67313749868E+02  0.00000000000E+00 0.  1.
          1    1    3    3  501    0 -0.39038881365E+02 -0.34524460450E+02 -0.58903174088E+03  0.59133270195E+03  0.00000000000E+00 0.  1.
         -3    1    1    2    0  502  0.44571967166E+02  0.38014738214E+02 -0.34015959690E+03  0.34516710727E+03  0.00000000000E+00 0. -1.
<mgrwt>
<rscale>  1 0.30000000E+03</rscale>
<asrwt>0</asrwt>
<pdfrwt beam="1">  1       21 0.13867517E-01 0.30000000E+03</pdfrwt>
<pdfrwt beam="2">0</pdfrwt>
<totfact> 0.47590581E+03</totfact>
</mgrwt>
</event>
<event>
 6    1  0.6513574E-002  0.3000000E+03  0.7818608E-02  0.1093470E+00
         21   -1    0    0  501  502  0.00000000000E+00  0.00000000000E+00  0.76278807025E+01  0.76278807025E+01  0.00000000000E+00 0. -1.
         13   -1    0    0    0    0 -0.00000000000E+00 -0.00000000000E+00 -0.10000000000E+04  0.10000000000E+04  0.00000000000E+00 0.  1.
    9000005    2    1    2  501    0  0.63012575984E+02  0.46242320083E+02 -0.27203246119E+03  0.28306031316E+03  0.35417571565E+01 0.  0.
         13    1    3    3    0    0  0.55358831605E+02  0.41432700554E+02 -0.24379395126E+03  0.25341025943E+03  0.00000000000E+00 0.  1.
          1    1    3    3  501    0  0.76537443793E+01  0.48096195287E+01 -0.28238509928E+02  0.29650053727E+02  0.00000000000E+00 0.  1.
         -3    1    1    2    0  502 -0.63012575984E+02 -0.46242320083E+02 -0.72033965811E+03  0.72456756755E+03  0.00000000000E+00 0. -1.
<mgrwt>
<rscale>  1 0.30000000E+03</rscale>
<asrwt>0</asrwt>
<pdfrwt beam="1">  1       21 0.27737807E-01 0.30000000E+03</pdfrwt>
<pdfrwt beam="2">0</pdfrwt>
<totfact> 0.12708744E+03</totfact>
</mgrwt>
</event>
<event>
 6    1  0.1047639E-001  0.3000000E+03  0.7818608E-02  0.1093470E+00
         21   -1    0    0  501  502  0.00000000000E+00  0.00000000000E+00  0.21778827999E+01  0.21778827999E+01  0.00000000000E+00 0. -1.
         13   -1    0    0    0    0 -0.00000000000E+00 -0.00000000000E+00 -0.10000000000E+04  0.10000000000E+04  0.00000000000E+00 0.  1.
    9000005    2    1    2  501    0  0.26671644532E+02 -0.32885778282E+02 -0.70365440618E+03  0.70497846618E+03  0.85007881314E+01 0.  0.
         13    1    3    3    0    0  0.23789205254E+02 -0.29376800529E+02 -0.66173815071E+03  0.66281694516E+03  0.00000000000E+00 0.  1.
          3    1    3    3  501    0  0.28824392782E+01 -0.35089777524E+01 -0.41916255473E+02  0.42161521011E+02  0.00000000000E+00 0.  1.
         -3    1    1    2    0  502 -0.26671644532E+02  0.32885778282E+02 -0.29416771102E+03  0.29719941662E+03  0.00000000000E+00 0. -1.
<mgrwt>
<rscale>  1 0.30000000E+03</rscale>
<asrwt>0</asrwt>
<pdfrwt beam="1">  1       21 0.79195905E-02 0.30000000E+03</pdfrwt>
<pdfrwt beam="2">0</pdfrwt>
<totfact> 0.13002484E+04</totfact>
</mgrwt>
</event>
<event>
 6    1  0.6513574E-002  0.3000000E+03  0.7818608E-02  0.1093470E+00
         21   -1    0    0  501  502  0.00000000000E+00  0.00000000000E+00  0.15421501762E+01  0.15421501762E+01  0.00000000000E+00 0. -1.
         13   -1    0    0    0    0 -0.00000000000E+00 -0.00000000000E+00 -0.10000000000E+04  0.10000000000E+04  0.00000000000E+00 0.  1.
    9000005    2    1    2  501    0  0.31035601055E+02  0.71171630555E+01 -0.20811246909E+03  0.21055562476E+03  0.30014637299E+01 0.  0.
         13    1    3    3    0    0  0.12079606827E+02  0.22720106036E+01 -0.89557203381E+02  0.90396745576E+02  0.00000000000E+00 0.  1.
          1    1    3    3  501    0  0.18955994228E+02  0.48451524519E+01 -0.11855526571E+03  0.12015887918E+03  0.00000000000E+00 0.  1.
         -3    1    1    2    0  502 -0.31035601055E+02 -0.71171630555E+01 -0.79034538074E+03  0.79098652542E+03  0.00000000000E+00 0. -1.
<mgrwt>
<rscale>  1 0.30000000E+03</rscale>
<asrwt>0</asrwt>
<pdfrwt beam="1">  1       21 0.56078306E-02 0.30000000E+03</pdfrwt>
<pdfrwt beam="2">0</pdfrwt>
<totfact> 0.23672193E+04</totfact>
</mgrwt>
</event>
<event>
 6    1  0.6513574E-002  0.3000000E+03  0.7818608E-02  0.1093470E+00
         21   -1    0    0  501  502  0.00000000000E+00  0.00000000000E+00  0.22476907190E+01  0.22476907190E+01  0.00000000000E+00 0. -1.
         13   -1    0    0    0    0 -0.00000000000E+00 -0.00000000000E+00 -0.10000000000E+04  0.10000000000E+04  0.00000000000E+00 0.  1.
    9000005    2    1    2  501    0  0.26120169803E+02  0.29834109599E+02 -0.22613843066E+03  0.22961562108E+03  0.35222511252E+01 0.  0.
         13    1    3    3    0    0  0.18019911855E+02  0.19789237111E+02 -0.16133081006E+03  0.16353581077E+03  0.00000000000E+00 0.  1.
          3    1    3    3  501    0  0.81002579481E+01  0.10044872488E+02 -0.64807620602E+02  0.66079810307E+02  0.00000000000E+00 0.  1.
         -3    1    1    2    0  502 -0.26120169803E+02 -0.29834109599E+02 -0.77161387862E+03  0.77263206964E+03  0.00000000000E+00 0. -1.
<mgrwt>
<rscale>  1 0.30000000E+03</rscale>
<asrwt>0</asrwt>
<pdfrwt beam="1">  1       21 0.81734380E-02 0.30000000E+03</pdfrwt>
<pdfrwt beam="2">0</pdfrwt>
<totfact> 0.12301303E+04</totfact>
</mgrwt>
</event>
<event>
 6    1  0.6513574E-002  0.3000000E+03  0.7818608E-02  0.1093470E+00
         21   -1    0    0  501  502  0.00000000000E+00  0.00000000000E+00  0.17385215864E+01  0.17385215864E+01  0.00000000000E+00 0. -1.
         13   -1    0    0    0    0 -0.00000000000E+00 -0.00000000000E+00 -0.10000000000E+04  0.10000000000E+04  0.00000000000E+00 0.  1.
    9000005    2    1    2  501    0  0.31295543092E+02 -0.30582103852E+01 -0.17342892803E+03  0.17630681645E+03  0.42115058728E+01 0.  0.
         13    1    3    3    0    0  0.31087296872E+02 -0.26657132636E+01 -0.17210200848E+03  0.17490748234E+03  0.00000000000E+00 0.  1.
          3    1    3    3  501    0  0.20824621986E+00 -0.39249712163E+00 -0.13269195480E+01  0.13993341150E+01  0.00000000000E+00 0.  1.
         -3    1    1    2    0  502 -0.31295543092E+02  0.30582103852E+01 -0.82483255038E+03  0.82543170513E+03  0.00000000000E+00 0. -1.
<mgrwt>
<rscale>  1 0.30000000E+03</rscale>
<asrwt>0</asrwt>
<pdfrwt beam="1">  1       21 0.63219100E-02 0.30000000E+03</pdfrwt>
<pdfrwt beam="2">0</pdfrwt>
<totfact> 0.19253519E+04</totfact>
</mgrwt>
</event>
<event>
 6    1  0.6513574E-002  0.3000000E+03  0.7818608E-02  0.1093470E+00
         21   -1    0    0  501  502  0.00000000000E+00  0.00000000000E+00  0.10581028956E+01  0.10581028956E+01  0.00000000000E+00 0. -1.
         13   -1    0    0    0    0 -0.00000000000E+00 -0.00000000000E+00 -0.10000000000E+04  0.10000000000E+04  0.00000000000E+00 0.  1.
    9000005    2    1    2  501    0  0.74666767053E+01 -0.29429411242E+02 -0.67050576781E+03  0.67122157894E+03  0.62114302223E+01 0.  0.
         13    1    3    3    0    0  0.72544898716E+01 -0.17141532053E+02 -0.42814843824E+03  0.42855284961E+03  0.00000000000E+00 0.  1.
          3    1    3    3  501    0  0.21218683371E+00 -0.12287879189E+02 -0.24235732957E+03  0.24266872933E+03  0.00000000000E+00 0.  1.
         -3    1    1    2    0  502 -0.74666767053E+01  0.29429411242E+02 -0.32843612930E+03  0.32983652395E+03  0.00000000000E+00 0. -1.
<mgrwt>
<rscale>  1 0.30000000E+03</rscale>
<asrwt>0</asrwt>
<pdfrwt beam="1">  1       21 0.38476550E-02 0.30000000E+03</pdfrwt>
<pdfrwt beam="2">0</pdfrwt>
<totfact> 0.44886047E+04</totfact>
</mgrwt>
</event>
<event>
 6    1  0.6513574E-002  0.3000000E+03  0.7818608E-02  0.1093470E+00
         21   -1    0    0  501  502  0.00000000000E+00  0.00000000000E+00  0.13128140759E+01  0.13128140759E+01  0.00000000000E+00 0. -1.
         13   -1    0    0    0    0 -0.00000000000E+00 -0.00000000000E+00 -0.10000000000E+04  0.10000000000E+04  0.00000000000E+00 0.  1.
    9000005    2    1    2  501    0  0.20733989711E+02  0.22675640705E+02 -0.76374568535E+03  0.76437064455E+03  0.33056524617E+01 0.  0.
         13    1    3    3    0    0  0.75405666897E+01  0.95107094610E+01 -0.26793184776E+03  0.26820661585E+03  0.00000000000E+00 0.  1.
          1    1    3    3  501    0  0.13193423022E+02  0.13164931244E+02 -0.49581383760E+03  0.49616402870E+03  0.00000000000E+00 0.  1.
         -1    1    1    2    0  502 -0.20733989711E+02 -0.22675640705E+02 -0.23494150057E+03  0.23694216953E+03  0.00000000000E+00 0. -1.
<mgrwt>
<rscale>  1 0.30000000E+03</rscale>
<asrwt>0</asrwt>
<pdfrwt beam="1">  1       21 0.47738794E-02 0.30000000E+03</pdfrwt>
<pdfrwt beam="2">0</pdfrwt>
<totfact> 0.31166554E+04</totfact>
</mgrwt>
</event>
<event>
 6    1  0.6513574E-002  0.3000000E+03  0.7818608E-02  0.1093470E+00
         21   -1    0    0  501  502  0.00000000000E+00  0.00000000000E+00  0.12942483889E+01  0.12942483889E+01  0.00000000000E+00 0. -1.
         13   -1    0    0    0    0 -0.00000000000E+00 -0.00000000000E+00 -0.10000000000E+04  0.10000000000E+04  0.00000000000E+00 0.  1.
    9000005    2    1    2  501    0 -0.35021404112E+02  0.78729311908E+01 -0.50894055630E+03  0.51021540713E+03  0.32848191733E+01 0.  0.
         13    1    3    3    0    0 -0.14832181032E+02  0.39380542613E+01 -0.19629229144E+03  0.19689125310E+03  0.00000000000E+00 0.  1.
          3    1    3    3  501    0 -0.20189223080E+02  0.39348769294E+01 -0.31264826485E+03  0.31332415403E+03  0.00000000000E+00 0.  1.
         -3    1    1    2    0  502  0.35021404112E+02 -0.78729311908E+01 -0.48976519531E+03  0.49107884126E+03  0.00000000000E+00 0. -1.
<mgrwt>
<rscale>  1 0.30000000E+03</rscale>
<asrwt>0</asrwt>
<pdfrwt beam="1">  1       21 0.47063677E-02 0.30000000E+03</pdfrwt>
<pdfrwt beam="2">0</pdfrwt>
<totfact> 0.31930743E+04</totfact>
</mgrwt>
</event>
<event>
 6    1  0.6513574E-002  0.3000000E+03  0.7818608E-02  0.1093470E+00
         21   -1    0    0  501  502  0.00000000000E+00  0.00000000000E+00  0.28460522721E+01  0.28460522721E+01  0.00000000000E+00 0. -1.
         13   -1    0    0    0    0 -0.00000000000E+00 -0.00000000000E+00 -0.10000000000E+04  0.10000000000E+04  0.00000000000E+00 0.  1.
    9000005    2    1    2  501    0  0.50701956765E+02 -0.11806364900E+02 -0.41418056915E+03  0.41755293015E+03  0.97379127154E+01 0.  0.
         13    1    3    3    0    0  0.22921192095E+02 -0.93518646278E+01 -0.17214987311E+03  0.17392072111E+03  0.00000000000E+00 0.  1.
          1    1    3    3  501    0  0.27780764671E+02 -0.24545002723E+01 -0.24203069603E+03  0.24363220904E+03  0.00000000000E+00 0.  1.
         -1    1    1    2    0  502 -0.50701956765E+02  0.11806364900E+02 -0.58297337858E+03  0.58529312212E+03  0.00000000000E+00 0. -1.
<mgrwt>
<rscale>  1 0.30000000E+03</rscale>
<asrwt>0</asrwt>
<pdfrwt beam="1">  1       21 0.10349303E-01 0.30000000E+03</pdfrwt>
<pdfrwt beam="2">0</pdfrwt>
<totfact> 0.80907301E+03</totfact>
</mgrwt>
</event>
<event>
 6    1  0.6513574E-002  0.3000000E+03  0.7818608E-02  0.1093470E+00
         21   -1    0    0  501  502  0.00000000000E+00  0.00000000000E+00  0.19967856623E+01  0.19967856623E+01  0.00000000000E+00 0. -1.
         13   -1    0    0    0    0 -0.00000000000E+00 -0.00000000000E+00 -0.10000000000E+04  0.10000000000E+04  0.00000000000E+00 0.  1.
    9000005    2    1    2  501    0  0.10397179860E+01 -0.33821019908E+02 -0.17340558677E+03  0.17670520701E+03  0.32078436502E+01 0.  0.
         13    1    3    3    0    0  0.79174266346E+00 -0.33337737006E+02 -0.17189930427E+03  0.17510397590E+03  0.00000000000E+00 0.  1.
          3    1    3    3  501    0  0.24797532258E+00 -0.48328290272E+00 -0.15062824964E+01  0.16012311150E+01  0.00000000000E+00 0.  1.
         -3    1    1    2    0  502 -0.10397179860E+01  0.33821019908E+02 -0.82459762757E+03  0.82529157865E+03  0.00000000000E+00 0. -1.
<mgrwt>
<rscale>  1 0.30000000E+03</rscale>
<asrwt>0</asrwt>
<pdfrwt beam="1">  1       21 0.72610541E-02 0.30000000E+03</pdfrwt>
<pdfrwt beam="2">0</pdfrwt>
<totfact> 0.15137685E+04</totfact>
</mgrwt>
</event>
<event>
 6    1  0.6513574E-002  0.3000000E+03  0.7818608E-02  0.1093470E+00
         21   -1    0    0  501  502  0.00000000000E+00  0.00000000000E+00  0.17714131001E+01  0.17714131001E+01  0.00000000000E+00 0. -1.
         13   -1    0    0    0    0 -0.00000000000E+00 -0.00000000000E+00 -0.10000000000E+04  0.10000000000E+04  0.00000000000E+00 0.  1.
    9000005    2    1    2  501    0  0.30910001911E+01  0.41913328919E+02 -0.49700080304E+03  0.49878476046E+03  0.31871020031E+01 0.  0.
         13    1    3    3    0    0  0.36791119356E+01  0.38735963298E+02 -0.46110666277E+03  0.46274546477E+03  0.00000000000E+00 0.  1.
          3    1    3    3  501    0 -0.58811174448E+00  0.31773656210E+01 -0.35894140275E+02  0.36039295690E+02  0.00000000000E+00 0.  1.
         -3    1    1    2    0  502 -0.30910001911E+01 -0.41913328919E+02 -0.50122778386E+03  0.50298665264E+03  0.00000000000E+00 0. -1.
<mgrwt>
<rscale>  1 0.30000000E+03</rscale>
<asrwt>0</asrwt>
<pdfrwt beam="1">  1       21 0.64415158E-02 0.30000000E+03</pdfrwt>
<pdfrwt beam="2">0</pdfrwt>
<totfact> 0.18639384E+04</totfact>
</mgrwt>
</event>
<event>
 6    1  0.1023388E-001  0.3000000E+03  0.7818608E-02  0.1093470E+00
         21   -1    0    0  501  502  0.00000000000E+00  0.00000000000E+00  0.21433859351E+01  0.21433859351E+01  0.00000000000E+00 0. -1.
         13   -1    0    0    0    0 -0.00000000000E+00 -0.00000000000E+00 -0.10000000000E+04  0.10000000000E+04  0.00000000000E+00 0.  1.
    9000005    2    1    2  501    0 -0.27537525660E+02  0.30315941317E+02 -0.72519268309E+03  0.72642071572E+03  0.10259483352E+02 0.  0.
         13    1    3    3    0    0  0.22474866321E+00  0.28408434980E+01 -0.31253026148E+02  0.31382679094E+02  0.00000000000E+00 0.  1.
          3    1    3    3  501    0 -0.27762274323E+02  0.27475097819E+02 -0.69393965694E+03  0.69503803662E+03  0.00000000000E+00 0.  1.
         -3    1    1    2    0  502  0.27537525660E+02 -0.30315941317E+02 -0.27266393098E+03  0.27572267022E+03  0.00000000000E+00 0. -1.
<mgrwt>
<rscale>  1 0.30000000E+03</rscale>
<asrwt>0</asrwt>
<pdfrwt beam="1">  1       21 0.77941471E-02 0.30000000E+03</pdfrwt>
<pdfrwt beam="2">0</pdfrwt>
<totfact> 0.13371922E+04</totfact>
</mgrwt>
</event>
<event>
 6    1  0.6513574E-002  0.3000000E+03  0.7818608E-02  0.1093470E+00
         21   -1    0    0  501  502  0.00000000000E+00  0.00000000000E+00  0.11112855960E+01  0.11112855960E+01  0.00000000000E+00 0. -1.
         13   -1    0    0    0    0 -0.00000000000E+00 -0.00000000000E+00 -0.10000000000E+04  0.10000000000E+04  0.00000000000E+00 0.  1.
    9000005    2    1    2  501    0 -0.10627812729E+02  0.28332146902E+02 -0.69612105232E+03  0.69683522976E+03  0.88970219638E+01 0.  0.
         13    1    3    3    0    0 -0.63001411479E+01  0.18758358928E+02 -0.35376234080E+03  0.35431534200E+03  0.00000000000E+00 0.  1.
          1    1    3    3  501    0 -0.43276715814E+01  0.95737879742E+01 -0.34235871152E+03  0.34251988776E+03  0.00000000000E+00 0.  1.
         -3    1    1    2    0  502  0.10627812729E+02 -0.28332146902E+02 -0.30276766209E+03  0.30427605584E+03  0.00000000000E+00 0. -1.
<mgrwt>
<rscale>  1 0.30000000E+03</rscale>
<asrwt>0</asrwt>
<pdfrwt beam="1">  1       21 0.40410471E-02 0.30000000E+03</pdfrwt>
<pdfrwt beam="2">0</pdfrwt>
<totfact> 0.41330394E+04</totfact>
</mgrwt>
</event>
<event>
 6    1  0.6513574E-002  0.3000000E+03  0.7818608E-02  0.1093470E+00
         21   -1    0    0  501  502  0.00000000000E+00  0.00000000000E+00  0.13540607226E+01  0.13540607226E+01  0.00000000000E+00 0. -1.
         13   -1    0    0    0    0 -0.00000000000E+00 -0.00000000000E+00 -0.10000000000E+04  0.10000000000E+04  0.00000000000E+00 0.  1.
    9000005    2    1    2  501    0 -0.44718692372E+01 -0.36230982606E+02 -0.55441193344E+03  0.55562260159E+03  0.33469008955E+01 0.  0.
         13    1    3    3    0    0 -0.13190640021E+01 -0.62536491635E+01 -0.11568387294E+03  0.11586028878E+03  0.00000000000E+00 0.  1.
          1    1    3    3  501    0 -0.31528052351E+01 -0.29977333443E+02 -0.43872806050E+03  0.43976231282E+03  0.00000000000E+00 0.  1.
         -1    1    1    2    0  502  0.44718692372E+01  0.36230982606E+02 -0.44423400584E+03  0.44573145913E+03  0.00000000000E+00 0. -1.
<mgrwt>
<rscale>  1 0.30000000E+03</rscale>
<asrwt>0</asrwt>
<pdfrwt beam="1">  1       21 0.49238676E-02 0.30000000E+03</pdfrwt>
<pdfrwt beam="2">0</pdfrwt>
<totfact> 0.29567742E+04</totfact>
</mgrwt>
</event>
<event>
 6    1  0.6513574E-002  0.3000000E+03  0.7818608E-02  0.1093470E+00
         21   -1    0    0  501  502  0.00000000000E+00  0.00000000000E+00  0.75152062348E+01  0.75152062348E+01  0.00000000000E+00 0. -1.
         13   -1    0    0    0    0 -0.00000000000E+00 -0.00000000000E+00 -0.10000000000E+04  0.10000000000E+04  0.00000000000E+00 0.  1.
    9000005    2    1    2  501    0  0.47104949052E+02 -0.72459547871E+02 -0.53369417002E+03  0.54065537851E+03  0.30836504711E+01 0.  0.
         13    1    3    3    0    0  0.24297879725E+02 -0.37200031966E+02 -0.28398634530E+03  0.28744125253E+03  0.00000000000E+00 0.  1.
          1    1    3    3  501    0  0.22807069327E+02 -0.35259515905E+02 -0.24970782472E+03  0.25321412599E+03  0.00000000000E+00 0.  1.
         -1    1    1    2    0  502 -0.47104949052E+02  0.72459547871E+02 -0.45879062375E+03  0.46685982772E+03  0.00000000000E+00 0. -1.
<mgrwt>
<rscale>  1 0.30000000E+03</rscale>
<asrwt>0</asrwt>
<pdfrwt beam="1">  1       21 0.27328080E-01 0.30000000E+03</pdfrwt>
<pdfrwt beam="2">0</pdfrwt>
<totfact> 0.13088604E+03</totfact>
</mgrwt>
</event>
<event>
 6    1  0.6513574E-002  0.3000000E+03  0.7818608E-02  0.1093470E+00
         21   -1    0    0  501  502  0.00000000000E+00  0.00000000000E+00  0.14389939348E+01  0.14389939348E+01  0.00000000000E+00 0. -1.
         13   -1    0    0    0    0 -0.00000000000E+00 -0.00000000000E+00 -0.10000000000E+04  0.10000000000E+04  0.00000000000E+00 0.  1.
    9000005    2    1    2  501    0 -0.23109237597E+02  0.29978723930E+02 -0.48845037622E+03  0.48992592917E+03  0.32992857367E+01 0.  0.
         13    1    3    3    0    0 -0.39222447724E+01  0.72832409492E+01 -0.10344598819E+03  0.10377621151E+03  0.00000000000E+00 0.  1.
          1    1    3    3  501    0 -0.19186992825E+02  0.22695482981E+02 -0.38500438803E+03  0.38614971766E+03  0.00000000000E+00 0.  1.
         -1    1    1    2    0  502  0.23109237597E+02 -0.29978723930E+02 -0.51011062984E+03  0.51151306477E+03  0.00000000000E+00 0. -1.
<mgrwt>
<rscale>  1 0.30000000E+03</rscale>
<asrwt>0</asrwt>
<pdfrwt beam="1">  1       21 0.52327163E-02 0.30000000E+03</pdfrwt>
<pdfrwt beam="2">0</pdfrwt>
<totfact> 0.26652725E+04</totfact>
</mgrwt>
</event>
<event>
 6    1  0.6513574E-002  0.3000000E+03  0.7818608E-02  0.1093470E+00
         21   -1    0    0  501  502  0.00000000000E+00  0.00000000000E+00  0.40893885699E+01  0.40893885699E+01  0.00000000000E+00 0. -1.
         13   -1    0    0    0    0 -0.00000000000E+00 -0.00000000000E+00 -0.10000000000E+04  0.10000000000E+04  0.00000000000E+00 0.  1.
    9000005    2    1    2  501    0  0.16861540319E+02 -0.61127011883E+02 -0.56077042067E+03  0.56435332144E+03  0.32223583979E+01 0.  0.
         13    1    3    3    0    0  0.11065599363E+02 -0.34719443132E+02 -0.32806265194E+03  0.33008027935E+03  0.00000000000E+00 0.  1.
          3    1    3    3  501    0  0.57959409558E+01 -0.26407568751E+02 -0.23270776874E+03  0.23427304209E+03  0.00000000000E+00 0.  1.
         -1    1    1    2    0  502 -0.16861540319E+02  0.61127011883E+02 -0.43514019076E+03  0.43973606713E+03  0.00000000000E+00 0. -1.
<mgrwt>
<rscale>  1 0.30000000E+03</rscale>
<asrwt>0</asrwt>
<pdfrwt beam="1">  1       21 0.14870535E-01 0.30000000E+03</pdfrwt>
<pdfrwt beam="2">0</pdfrwt>
<totfact> 0.41846056E+03</totfact>
</mgrwt>
</event>
<event>
 6    1  0.6513574E-002  0.3000000E+03  0.7818608E-02  0.1093470E+00
         21   -1    0    0  501  502  0.00000000000E+00  0.00000000000E+00  0.10577588911E+01  0.10577588911E+01  0.00000000000E+00 0. -1.
         13   -1    0    0    0    0 -0.00000000000E+00 -0.00000000000E+00 -0.10000000000E+04  0.10000000000E+04  0.00000000000E+00 0.  1.
    9000005    2    1    2  501    0 -0.29552010248E+02 -0.10351861076E+02 -0.38134570635E+03  0.38266794487E+03  0.54521502999E+01 0.  0.
         13    1    3    3    0    0 -0.11846973251E+02 -0.33072134532E+01 -0.18130153253E+03  0.18171828233E+03  0.00000000000E+00 0.  1.
          3    1    3    3  501    0 -0.17705036997E+02 -0.70446476229E+01 -0.20004417382E+03  0.20094966254E+03  0.00000000000E+00 0.  1.
         -1    1    1    2    0  502  0.29552010248E+02  0.10351861076E+02 -0.61759653476E+03  0.61838981402E+03  0.00000000000E+00 0. -1.
<mgrwt>
<rscale>  1 0.30000000E+03</rscale>
<asrwt>0</asrwt>
<pdfrwt beam="1">  1       21 0.38464041E-02 0.30000000E+03</pdfrwt>
<pdfrwt beam="2">0</pdfrwt>
<totfact> 0.44910589E+04</totfact>
</mgrwt>
</event>
<event>
 6    1  0.6513574E-002  0.3000000E+03  0.7818608E-02  0.1093470E+00
         21   -1    0    0  501  502  0.00000000000E+00  0.00000000000E+00  0.13821902171E+01  0.13821902171E+01  0.00000000000E+00 0. -1.
         13   -1    0    0    0    0 -0.00000000000E+00 -0.00000000000E+00 -0.10000000000E+04  0.10000000000E+04  0.00000000000E+00 0.  1.
    9000005    2    1    2  501    0 -0.33681806331E+02 -0.14697948284E+02 -0.53186209391E+03  0.53318202783E+03  0.74360001717E+01 0.  0.
         13    1    3    3    0    0 -0.10579104393E+02 -0.10027613014E+01 -0.14518198731E+03  0.14557036930E+03  0.00000000000E+00 0.  1.
          3    1    3    3  501    0 -0.23102701937E+02 -0.13695186983E+02 -0.38668010661E+03  0.38761165853E+03  0.00000000000E+00 0.  1.
         -1    1    1    2    0  502  0.33681806331E+02  0.14697948284E+02 -0.46675571587E+03  0.46820016239E+03  0.00000000000E+00 0. -1.
<mgrwt>
<rscale>  1 0.30000000E+03</rscale>
<asrwt>0</asrwt>
<pdfrwt beam="1">  1       21 0.50261568E-02 0.30000000E+03</pdfrwt>
<pdfrwt beam="2">0</pdfrwt>
<totfact> 0.28549547E+04</totfact>
</mgrwt>
</event>
<event>
 6    1  0.6513574E-002  0.3000000E+03  0.7818608E-02  0.1093470E+00
         21   -1    0    0  501  502  0.00000000000E+00  0.00000000000E+00  0.13279207207E+01  0.13279207207E+01  0.00000000000E+00 0. -1.
         13   -1    0    0    0    0 -0.00000000000E+00 -0.00000000000E+00 -0.10000000000E+04  0.10000000000E+04  0.00000000000E+00 0.  1.
    9000005    2    1    2  501    0 -0.33289516655E+02 -0.52528621351E+01 -0.31136934617E+03  0.31319942152E+03  0.26876426814E+01 0.  0.
         13    1    3    3    0    0 -0.23199197729E+02 -0.47385754579E+01 -0.22385415490E+03  0.22510295320E+03  0.00000000000E+00 0.  1.
          1    1    3    3  501    0 -0.10090318926E+02 -0.51428667718E+00 -0.87515191274E+02  0.88096468321E+02  0.00000000000E+00 0.  1.
         -1    1    1    2    0  502  0.33289516655E+02  0.52528621351E+01 -0.68730273311E+03  0.68812849920E+03  0.00000000000E+00 0. -1.
<mgrwt>
<rscale>  1 0.30000000E+03</rscale>
<asrwt>0</asrwt>
<pdfrwt beam="1">  1       21 0.48288128E-02 0.30000000E+03</pdfrwt>
<pdfrwt beam="2">0</pdfrwt>
<totfact> 0.30565644E+04</totfact>
</mgrwt>
</event>
<event>
 6    1  0.6513574E-002  0.3000000E+03  0.7818608E-02  0.1093470E+00
         21   -1    0    0  501  502  0.00000000000E+00  0.00000000000E+00  0.12508998105E+01  0.12508998105E+01  0.00000000000E+00 0. -1.
         13   -1    0    0    0    0 -0.00000000000E+00 -0.00000000000E+00 -0.10000000000E+04  0.10000000000E+04  0.00000000000E+00 0.  1.
    9000005    2    1    2  501    0 -0.26541722169E+02 -0.14791820003E+02 -0.24637505356E+03  0.24826353803E+03  0.32948968644E+01 0.  0.
         13    1    3    3    0    0 -0.92617469538E+01 -0.34283182850E+01 -0.77365114575E+02  0.77992911704E+02  0.00000000000E+00 0.  1.
          1    1    3    3  501    0 -0.17279975215E+02 -0.11363501718E+02 -0.16900993898E+03  0.17027062633E+03  0.00000000000E+00 0.  1.
         -3    1    1    2    0  502  0.26541722169E+02  0.14791820003E+02 -0.75237404663E+03  0.75298736178E+03  0.00000000000E+00 0. -1.
<mgrwt>
<rscale>  1 0.30000000E+03</rscale>
<asrwt>0</asrwt>
<pdfrwt beam="1">  1       21 0.45487362E-02 0.30000000E+03</pdfrwt>
<pdfrwt beam="2">0</pdfrwt>
<totfact> 0.33833775E+04</totfact>
</mgrwt>
</event>
<event>
 6    1  0.6513574E-002  0.3000000E+03  0.7818608E-02  0.1093470E+00
         21   -1    0    0  501  502  0.00000000000E+00  0.00000000000E+00  0.12844478889E+01  0.12844478889E+01  0.00000000000E+00 0. -1.
         13   -1    0    0    0    0 -0.00000000000E+00 -0.00000000000E+00 -0.10000000000E+04  0.10000000000E+04  0.00000000000E+00 0.  1.
    9000005    2    1    2  501    0 -0.25373528957E+02  0.25031853692E+02 -0.54407470216E+03  0.54524858075E+03  0.28850668083E+01 0.  0.
         13    1    3    3    0    0 -0.24358307564E+02  0.23446046364E+02 -0.52199610563E+03  0.52308983791E+03  0.00000000000E+00 0.  1.
          1    1    3    3  501    0 -0.10152213934E+01  0.15858073289E+01 -0.22078596529E+02  0.22158742835E+02  0.00000000000E+00 0.  1.
         -1    1    1    2    0  502  0.25373528957E+02 -0.25031853692E+02 -0.45464084996E+03  0.45603586714E+03  0.00000000000E+00 0. -1.
<mgrwt>
<rscale>  1 0.30000000E+03</rscale>
<asrwt>0</asrwt>
<pdfrwt beam="1">  1       21 0.46707294E-02 0.30000000E+03</pdfrwt>
<pdfrwt beam="2">0</pdfrwt>
<totfact> 0.32346048E+04</totfact>
</mgrwt>
</event>
<event>
 6    1  0.6513574E-002  0.3000000E+03  0.7818608E-02  0.1093470E+00
         21   -1    0    0  501  502  0.00000000000E+00  0.00000000000E+00  0.19189074589E+01  0.19189074589E+01  0.00000000000E+00 0. -1.
         13   -1    0    0    0    0 -0.00000000000E+00 -0.00000000000E+00 -0.10000000000E+04  0.10000000000E+04  0.00000000000E+00 0.  1.
    9000005    2    1    2  501    0  0.30724022630E+02 -0.25405194259E+02 -0.70591185078E+03  0.70704222935E+03  0.27899013058E+01 0.  0.
         13    1    3    3    0    0  0.18360437723E+02 -0.13561447465E+02 -0.41372917270E+03  0.41435835563E+03  0.00000000000E+00 0.  1.
          1    1    3    3  501    0  0.12363584907E+02 -0.11843746793E+02 -0.29218267808E+03  0.29268387373E+03  0.00000000000E+00 0.  1.
         -3    1    1    2    0  502 -0.30724022630E+02  0.25405194259E+02 -0.29216924176E+03  0.29487667811E+03  0.00000000000E+00 0. -1.
<mgrwt>
<rscale>  1 0.30000000E+03</rscale>
<asrwt>0</asrwt>
<pdfrwt beam="1">  1       21 0.69778600E-02 0.30000000E+03</pdfrwt>
<pdfrwt beam="2">0</pdfrwt>
<totfact> 0.16224477E+04</totfact>
</mgrwt>
</event>
<event>
 6    1  0.6513574E-002  0.3000000E+03  0.7818608E-02  0.1093470E+00
         21   -1    0    0  501  502  0.00000000000E+00  0.00000000000E+00  0.13632257340E+01  0.13632257340E+01  0.00000000000E+00 0. -1.
         13   -1    0    0    0    0 -0.00000000000E+00 -0.00000000000E+00 -0.10000000000E+04  0.10000000000E+04  0.00000000000E+00 0.  1.
    9000005    2    1    2  501    0  0.35672301192E+02  0.31363178516E+01 -0.38280357457E+03  0.38448975458E+03  0.33830627766E+01 0.  0.
         13    1    3    3    0    0  0.15222677141E+02  0.23725498551E+01 -0.17867736116E+03  0.17934034204E+03  0.00000000000E+00 0.  1.
          3    1    3    3  501    0  0.20449624052E+02  0.76376799651E+00 -0.20412621341E+03  0.20514941255E+03  0.00000000000E+00 0.  1.
         -1    1    1    2    0  502 -0.35672301192E+02 -0.31363178516E+01 -0.61583319969E+03  0.61687347115E+03  0.00000000000E+00 0. -1.
<mgrwt>
<rscale>  1 0.30000000E+03</rscale>
<asrwt>0</asrwt>
<pdfrwt beam="1">  1       21 0.49571949E-02 0.30000000E+03</pdfrwt>
<pdfrwt beam="2">0</pdfrwt>
<totfact> 0.29229865E+04</totfact>
</mgrwt>
</event>
<event>
 6    1  0.6513574E-002  0.3000000E+03  0.7818608E-02  0.1093470E+00
         21   -1    0    0  501  502  0.00000000000E+00  0.00000000000E+00  0.11518178408E+01  0.11518178408E+01  0.00000000000E+00 0. -1.
         13   -1    0    0    0    0 -0.00000000000E+00 -0.00000000000E+00 -0.10000000000E+04  0.10000000000E+04  0.00000000000E+00 0.  1.
    9000005    2    1    2  501    0  0.77963550350E+01 -0.31226483002E+02 -0.34703113455E+03  0.34854064727E+03  0.37547388424E+01 0.  0.
         13    1    3    3    0    0  0.59440003592E+01 -0.26969383017E+02 -0.30756605026E+03  0.30880342297E+03  0.00000000000E+00 0.  1.
          1    1    3    3  501    0  0.18523546758E+01 -0.42570999845E+01 -0.39465084283E+02  0.39737224306E+02  0.00000000000E+00 0.  1.
         -1    1    1    2    0  502 -0.77963550350E+01  0.31226483002E+02 -0.65181704761E+03  0.65261117057E+03  0.00000000000E+00 0. -1.
<mgrwt>
<rscale>  1 0.30000000E+03</rscale>
<asrwt>0</asrwt>
<pdfrwt beam="1">  1       21 0.41884373E-02 0.30000000E+03</pdfrwt>
<pdfrwt beam="2">0</pdfrwt>
<totfact> 0.38907144E+04</totfact>
</mgrwt>
</event>
<event>
 6    1  0.6513574E-002  0.3000000E+03  0.7818608E-02  0.1093470E+00
         21   -1    0    0  501  502  0.00000000000E+00  0.00000000000E+00  0.36317837793E+01  0.36317837793E+01  0.00000000000E+00 0. -1.
         13   -1    0    0    0    0 -0.00000000000E+00 -0.00000000000E+00 -0.10000000000E+04  0.10000000000E+04  0.00000000000E+00 0.  1.
    9000005    2    1    2  501    0  0.32369622266E+02 -0.48468466540E+02 -0.62415699953E+03  0.62688495297E+03  0.39748589422E+01 0.  0.
         13    1    3    3    0    0  0.27705671615E+02 -0.38770913478E+02 -0.50582086292E+03  0.50806056070E+03  0.00000000000E+00 0.  1.
          1    1    3    3  501    0  0.46639506512E+01 -0.96975530616E+01 -0.11833613661E+03  0.11882439227E+03  0.00000000000E+00 0.  1.
         -3    1    1    2    0  502 -0.32369622266E+02  0.48468466540E+02 -0.37221121669E+03  0.37674683081E+03  0.00000000000E+00 0. -1.
<mgrwt>
<rscale>  1 0.30000000E+03</rscale>
<asrwt>0</asrwt>
<pdfrwt beam="1">  1       21 0.13206514E-01 0.30000000E+03</pdfrwt>
<pdfrwt beam="2">0</pdfrwt>
<totfact> 0.52044661E+03</totfact>
</mgrwt>
</event>
<event>
 6    1  0.6513574E-002  0.3000000E+03  0.7818608E-02  0.1093470E+00
         21   -1    0    0  501  502  0.00000000000E+00  0.00000000000E+00  0.11016843265E+01  0.11016843265E+01  0.00000000000E+00 0. -1.
         13   -1    0    0    0    0 -0.00000000000E+00 -0.00000000000E+00 -0.10000000000E+04  0.10000000000E+04  0.00000000000E+00 0.  1.
    9000005    2    1    2  501    0 -0.28462099108E+02  0.15639565925E+02 -0.54082416716E+03  0.54187776003E+03  0.92757708676E+01 0.  0.
         13    1    3    3    0    0 -0.16794771385E+02  0.11172652131E+02 -0.39695016937E+03  0.39746236233E+03  0.00000000000E+00 0.  1.
          1    1    3    3  501    0 -0.11667327723E+02  0.44669137943E+01 -0.14387399778E+03  0.14441539770E+03  0.00000000000E+00 0.  1.
         -3    1    1    2    0  502  0.28462099108E+02 -0.15639565925E+02 -0.45807414851E+03  0.45922392430E+03  0.00000000000E+00 0. -1.
<mgrwt>
<rscale>  1 0.30000000E+03</rscale>
<asrwt>0</asrwt>
<pdfrwt beam="1">  1       21 0.40061333E-02 0.30000000E+03</pdfrwt>
<pdfrwt beam="2">0</pdfrwt>
<totfact> 0.41938970E+04</totfact>
</mgrwt>
</event>
<event>
 6    1  0.6513574E-002  0.3000000E+03  0.7818608E-02  0.1093470E+00
         21   -1    0    0  501  502  0.00000000000E+00  0.00000000000E+00  0.22558058410E+01  0.22558058410E+01  0.00000000000E+00 0. -1.
         13   -1    0    0    0    0 -0.00000000000E+00 -0.00000000000E+00 -0.10000000000E+04  0.10000000000E+04  0.00000000000E+00 0.  1.
    9000005    2    1    2  501    0  0.17493305496E+02  0.36428119402E+02 -0.76145800694E+03  0.76253891888E+03  0.37792676746E+01 0.  0.
         13    1    3    3    0    0  0.21784713531E+00  0.24547674772E+01 -0.42512120487E+02  0.42583491274E+02  0.00000000000E+00 0.  1.
          1    1    3    3  501    0  0.17275458361E+02  0.33973351925E+02 -0.71894588645E+03  0.71995542761E+03  0.00000000000E+00 0.  1.
         -3    1    1    2    0  502 -0.17493305496E+02 -0.36428119402E+02 -0.23628618722E+03  0.23971688696E+03  0.00000000000E+00 0. -1.
<mgrwt>
<rscale>  1 0.30000000E+03</rscale>
<asrwt>0</asrwt>
<pdfrwt beam="1">  1       21 0.82029476E-02 0.30000000E+03</pdfrwt>
<pdfrwt beam="2">0</pdfrwt>
<totfact> 0.12223572E+04</totfact>
</mgrwt>
</event>
<event>
 6    1  0.6513574E-002  0.3000000E+03  0.7818608E-02  0.1093470E+00
         21   -1    0    0  501  502  0.00000000000E+00  0.00000000000E+00  0.11357255332E+01  0.11357255332E+01  0.00000000000E+00 0. -1.
         13   -1    0    0    0    0 -0.00000000000E+00 -0.00000000000E+00 -0.10000000000E+04  0.10000000000E+04  0.00000000000E+00 0.  1.
    9000005    2    1    2  501    0  0.18118398494E+02  0.27315502278E+02 -0.38906224429E+03  0.39045337845E+03  0.31619272640E+01 0.  0.
         13    1    3    3    0    0  0.83819531723E+01  0.12415220150E+02 -0.19657168838E+03  0.19714163310E+03  0.00000000000E+00 0.  1.
          3    1    3    3  501    0  0.97364453216E+01  0.14900282128E+02 -0.19249055591E+03  0.19331174535E+03  0.00000000000E+00 0.  1.
         -1    1    1    2    0  502 -0.18118398494E+02 -0.27315502278E+02 -0.60980203018E+03  0.61068234708E+03  0.00000000000E+00 0. -1.
<mgrwt>
<rscale>  1 0.30000000E+03</rscale>
<asrwt>0</asrwt>
<pdfrwt beam="1">  1       21 0.41299197E-02 0.30000000E+03</pdfrwt>
<pdfrwt beam="2">0</pdfrwt>
<totfact> 0.39842037E+04</totfact>
</mgrwt>
</event>
<event>
 6    1  0.6513574E-002  0.3000000E+03  0.7818608E-02  0.1093470E+00
         21   -1    0    0  501  502  0.00000000000E+00  0.00000000000E+00  0.12128963518E+01  0.12128963518E+01  0.00000000000E+00 0. -1.
         13   -1    0    0    0    0 -0.00000000000E+00 -0.00000000000E+00 -0.10000000000E+04  0.10000000000E+04  0.00000000000E+00 0.  1.
    9000005    2    1    2  501    0 -0.25446101793E+02  0.16922695819E+02 -0.27155204716E+03  0.27333604611E+03  0.61804576641E+01 0.  0.
         13    1    3    3    0    0 -0.20768757628E+02  0.11394305713E+02 -0.22143502001E+03  0.22269853970E+03  0.00000000000E+00 0.  1.
          3    1    3    3  501    0 -0.46773441649E+01  0.55283901055E+01 -0.50117027146E+02  0.50637506411E+02  0.00000000000E+00 0.  1.
         -1    1    1    2    0  502  0.25446101793E+02 -0.16922695819E+02 -0.72723505649E+03  0.72787685024E+03  0.00000000000E+00 0. -1.
<mgrwt>
<rscale>  1 0.30000000E+03</rscale>
<asrwt>0</asrwt>
<pdfrwt beam="1">  1       21 0.44105415E-02 0.30000000E+03</pdfrwt>
<pdfrwt beam="2">0</pdfrwt>
<totfact> 0.35651583E+04</totfact>
</mgrwt>
</event>
<event>
 6    1  0.6513574E-002  0.3000000E+03  0.7818608E-02  0.1093470E+00
         21   -1    0    0  501  502  0.00000000000E+00  0.00000000000E+00  0.49037737554E+01  0.49037737554E+01  0.00000000000E+00 0. -1.
         13   -1    0    0    0    0 -0.00000000000E+00 -0.00000000000E+00 -0.10000000000E+04  0.10000000000E+04  0.00000000000E+00 0.  1.
    9000005    2    1    2  501    0 -0.49270709974E+02  0.36463381565E+02 -0.25563445287E+03  0.26290586585E+03  0.36523617891E+01 0.  0.
         13    1    3    3    0    0 -0.35275136915E+02  0.27309804988E+02 -0.19139955883E+03  0.19652977346E+03  0.00000000000E+00 0.  1.
          1    1    3    3  501    0 -0.13995573059E+02  0.91535765776E+01 -0.64234894035E+02  0.66376092391E+02  0.00000000000E+00 0.  1.
         -3    1    1    2    0  502  0.49270709974E+02 -0.36463381565E+02 -0.73946177338E+03  0.74199790791E+03  0.00000000000E+00 0. -1.
<mgrwt>
<rscale>  1 0.30000000E+03</rscale>
<asrwt>0</asrwt>
<pdfrwt beam="1">  1       21 0.17831942E-01 0.30000000E+03</pdfrwt>
<pdfrwt beam="2">0</pdfrwt>
<totfact> 0.29817429E+03</totfact>
</mgrwt>
</event>
<event>
 6    1  0.6513574E-002  0.3000000E+03  0.7818608E-02  0.1093470E+00
         21   -1    0    0  501  502  0.00000000000E+00  0.00000000000E+00  0.15727108668E+01  0.15727108668E+01  0.00000000000E+00 0. -1.
         13   -1    0    0    0    0 -0.00000000000E+00 -0.00000000000E+00 -0.10000000000E+04  0.10000000000E+04  0.00000000000E+00 0.  1.
    9000005    2    1    2  501    0 -0.39647651769E+01  0.37383986018E+02 -0.34458325057E+03  0.34664881565E+03  0.38082854790E+01 0.  0.
         13    1    3    3    0    0 -0.20917396871E+01  0.29860701350E+02 -0.28332609458E+03  0.28490298828E+03  0.00000000000E+00 0.  1.
          3    1    3    3  501    0 -0.18730254898E+01  0.75232846675E+01 -0.61257155991E+02  0.61745827364E+02  0.00000000000E+00 0.  1.
         -1    1    1    2    0  502  0.39647651769E+01 -0.37383986018E+02 -0.65384403856E+03  0.65492389522E+03  0.00000000000E+00 0. -1.
<mgrwt>
<rscale>  1 0.30000000E+03</rscale>
<asrwt>0</asrwt>
<pdfrwt beam="1">  1       21 0.57189607E-02 0.30000000E+03</pdfrwt>
<pdfrwt beam="2">0</pdfrwt>
<totfact> 0.22887173E+04</totfact>
</mgrwt>
</event>
<event>
 6    1  0.6513574E-002  0.3000000E+03  0.7818608E-02  0.1093470E+00
         21   -1    0    0  501  502  0.00000000000E+00  0.00000000000E+00  0.13458670864E+01  0.13458670864E+01  0.00000000000E+00 0. -1.
         13   -1    0    0    0    0 -0.00000000000E+00 -0.00000000000E+00 -0.10000000000E+04  0.10000000000E+04  0.00000000000E+00 0.  1.
    9000005    2    1    2  501    0 -0.31545348763E+02  0.16173357675E+02 -0.62668503349E+03  0.62769135092E+03  0.23694492890E+01 0.  0.
         13    1    3    3    0    0 -0.20429471253E+02  0.11731641114E+02 -0.41624919219E+03  0.41691532078E+03  0.00000000000E+00 0.  1.
          1    1    3    3  501    0 -0.11115877510E+02  0.44417165607E+01 -0.21043584130E+03  0.21077603014E+03  0.00000000000E+00 0.  1.
         -1    1    1    2    0  502  0.31545348763E+02 -0.16173357675E+02 -0.37196909942E+03  0.37365451617E+03  0.00000000000E+00 0. -1.
<mgrwt>
<rscale>  1 0.30000000E+03</rscale>
<asrwt>0</asrwt>
<pdfrwt beam="1">  1       21 0.48940725E-02 0.30000000E+03</pdfrwt>
<pdfrwt beam="2">0</pdfrwt>
<totfact> 0.29874996E+04</totfact>
</mgrwt>
</event>
<event>
 6    1  0.6513574E-002  0.3000000E+03  0.7818608E-02  0.1093470E+00
         21   -1    0    0  501  502  0.00000000000E+00  0.00000000000E+00  0.20347444628E+01  0.20347444628E+01  0.00000000000E+00 0. -1.
         13   -1    0    0    0    0 -0.00000000000E+00 -0.00000000000E+00 -0.10000000000E+04  0.10000000000E+04  0.00000000000E+00 0.  1.
    9000005    2    1    2  501    0 -0.32258633462E+02 -0.27000110032E+02 -0.32127803576E+03  0.32404122032E+03  0.36757078022E+01 0.  0.
         13    1    3    3    0    0 -0.87178808261E+01 -0.94705524447E+01 -0.95777920626E+02  0.96639033983E+02  0.00000000000E+00 0.  1.
          3    1    3    3  501    0 -0.23540752636E+02 -0.17529557587E+02 -0.22550011514E+03  0.22740218634E+03  0.00000000000E+00 0.  1.
         -3    1    1    2    0  502  0.32258633462E+02  0.27000110032E+02 -0.67668721977E+03  0.67799352414E+03  0.00000000000E+00 0. -1.
<mgrwt>
<rscale>  1 0.30000000E+03</rscale>
<asrwt>0</asrwt>
<pdfrwt beam="1">  1       21 0.73990864E-02 0.30000000E+03</pdfrwt>
<pdfrwt beam="2">0</pdfrwt>
<totfact> 0.14647650E+04</totfact>
</mgrwt>
</event>
<event>
 6    1  0.6513574E-002  0.3000000E+03  0.7818608E-02  0.1093470E+00
         21   -1    0    0  501  502  0.00000000000E+00  0.00000000000E+00  0.21436785168E+01  0.21436785168E+01  0.00000000000E+00 0. -1.
         13   -1    0    0    0    0 -0.00000000000E+00 -0.00000000000E+00 -0.10000000000E+04  0.10000000000E+04  0.00000000000E+00 0.  1.
    9000005    2    1    2  501    0  0.46010925231E+02 -0.42810815129E+01 -0.51705642004E+03  0.51912827698E+03  0.33902138681E+01 0.  0.
         13    1    3    3    0    0  0.16231980287E+02 -0.12146722721E+01 -0.20035839065E+03  0.20101849993E+03  0.00000000000E+00 0.  1.
          3    1    3    3  501    0  0.29778944944E+02 -0.30664092408E+01 -0.31669802940E+03  0.31810977704E+03  0.00000000000E+00 0.  1.
         -1    1    1    2    0  502 -0.46010925231E+02  0.42810815129E+01 -0.48079990144E+03  0.48301540154E+03  0.00000000000E+00 0. -1.
<mgrwt>
<rscale>  1 0.30000000E+03</rscale>
<asrwt>0</asrwt>
<pdfrwt beam="1">  1       21 0.77952110E-02 0.30000000E+03</pdfrwt>
<pdfrwt beam="2">0</pdfrwt>
<totfact> 0.13368721E+04</totfact>
</mgrwt>
</event>
<event>
 6    1  0.6513574E-002  0.3000000E+03  0.7818608E-02  0.1093470E+00
         21   -1    0    0  501  502  0.00000000000E+00  0.00000000000E+00  0.99237229987E+00  0.99237229987E+00  0.00000000000E+00 0. -1.
         13   -1    0    0    0    0 -0.00000000000E+00 -0.00000000000E+00 -0.10000000000E+04  0.10000000000E+04  0.00000000000E+00 0.  1.
    9000005    2    1    2  501    0  0.28926991781E+02  0.90539583433E+01 -0.36950176365E+03  0.37075719565E+03  0.32557287337E+01 0.  0.
         13    1    3    3    0    0  0.18135404669E+02  0.45166775727E+01 -0.24073408450E+03  0.24145846996E+03  0.00000000000E+00 0.  1.
          3    1    3    3  501    0  0.10791587112E+02  0.45372807706E+01 -0.12876767916E+03  0.12929872569E+03  0.00000000000E+00 0.  1.
         -1    1    1    2    0  502 -0.28926991781E+02 -0.90539583433E+01 -0.62950586405E+03  0.63023517665E+03  0.00000000000E+00 0. -1.
<mgrwt>
<rscale>  1 0.30000000E+03</rscale>
<asrwt>0</asrwt>
<pdfrwt beam="1">  1       21 0.36086342E-02 0.30000000E+03</pdfrwt>
<pdfrwt beam="2">0</pdfrwt>
<totfact> 0.49989086E+04</totfact>
</mgrwt>
</event>
<event>
 6    1  0.6513574E-002  0.3000000E+03  0.7818608E-02  0.1093470E+00
         21   -1    0    0  501  502  0.00000000000E+00  0.00000000000E+00  0.97339912625E+00  0.97339912625E+00  0.00000000000E+00 0. -1.
         13   -1    0    0    0    0 -0.00000000000E+00 -0.00000000000E+00 -0.10000000000E+04  0.10000000000E+04  0.00000000000E+00 0.  1.
    9000005    2    1    2  501    0 -0.21450710274E+02  0.22400162917E+02 -0.46117813096E+03  0.46223146011E+03  0.32793241251E+01 0.  0.
         13    1    3    3    0    0 -0.75153949157E+01  0.80982237762E+01 -0.18814147227E+03  0.18846558300E+03  0.00000000000E+00 0.  1.
          3    1    3    3  501    0 -0.13935315358E+02  0.14301939141E+02 -0.27303665869E+03  0.27376587710E+03  0.00000000000E+00 0.  1.
         -1    1    1    2    0  502  0.21450710274E+02 -0.22400162917E+02 -0.53784846992E+03  0.53874193902E+03  0.00000000000E+00 0. -1.
<mgrwt>
<rscale>  1 0.30000000E+03</rscale>
<asrwt>0</asrwt>
<pdfrwt beam="1">  1       21 0.35396407E-02 0.30000000E+03</pdfrwt>
<pdfrwt beam="2">0</pdfrwt>
<totfact> 0.51633438E+04</totfact>
</mgrwt>
</event>
<event>
 6    1  0.6513574E-002  0.3000000E+03  0.7818608E-02  0.1093470E+00
         21   -1    0    0  501  502  0.00000000000E+00  0.00000000000E+00  0.21182758603E+01  0.21182758603E+01  0.00000000000E+00 0. -1.
         13   -1    0    0    0    0 -0.00000000000E+00 -0.00000000000E+00 -0.10000000000E+04  0.10000000000E+04  0.00000000000E+00 0.  1.
    9000005    2    1    2  501    0  0.37826900930E+02 -0.15013612752E+02 -0.26679191404E+03  0.26989659261E+03  0.31563110289E+01 0.  0.
         13    1    3    3    0    0  0.15471232335E+02 -0.47637624052E+01 -0.11166772771E+03  0.11283498515E+03  0.00000000000E+00 0.  1.
          3    1    3    3  501    0  0.22355668594E+02 -0.10249850347E+02 -0.15512418633E+03  0.15706160745E+03  0.00000000000E+00 0.  1.
         -1    1    1    2    0  502 -0.37826900930E+02  0.15013612752E+02 -0.73108981010E+03  0.73222168326E+03  0.00000000000E+00 0. -1.
<mgrwt>
<rscale>  1 0.30000000E+03</rscale>
<asrwt>0</asrwt>
<pdfrwt beam="1">  1       21 0.77028376E-02 0.30000000E+03</pdfrwt>
<pdfrwt beam="2">0</pdfrwt>
<totfact> 0.13651109E+04</totfact>
</mgrwt>
</event>
<event>
 6    1  0.6513574E-002  0.3000000E+03  0.7818608E-02  0.1093470E+00
         21   -1    0    0  501  502  0.00000000000E+00  0.00000000000E+00  0.23651246302E+01  0.23651246302E+01  0.00000000000E+00 0. -1.
         13   -1    0    0    0    0 -0.00000000000E+00 -0.00000000000E+00 -0.10000000000E+04  0.10000000000E+04  0.00000000000E+00 0.  1.
    9000005    2    1    2  501    0 -0.42397204075E+02  0.64195115419E+01 -0.26460616972E+03  0.26808328749E+03  0.36730011888E+01 0.  0.
         13    1    3    3    0    0 -0.18804621564E+02  0.15129674139E+01 -0.10841178985E+03  0.11004098801E+03  0.00000000000E+00 0.  1.
          3    1    3    3  501    0 -0.23592582511E+02  0.49065441281E+01 -0.15619437987E+03  0.15804229948E+03  0.00000000000E+00 0.  1.
         -1    1    1    2    0  502  0.42397204075E+02 -0.64195115419E+01 -0.73302870565E+03  0.73428183714E+03  0.00000000000E+00 0. -1.
<mgrwt>
<rscale>  1 0.30000000E+03</rscale>
<asrwt>0</asrwt>
<pdfrwt beam="1">  1       21 0.86004713E-02 0.30000000E+03</pdfrwt>
<pdfrwt beam="2">0</pdfrwt>
<totfact> 0.11245703E+04</totfact>
</mgrwt>
</event>
<event>
 6    1  0.6513574E-002  0.3000000E+03  0.7818608E-02  0.1093470E+00
         21   -1    0    0  501  502  0.00000000000E+00  0.00000000000E+00  0.41722437937E+01  0.41722437937E+01  0.00000000000E+00 0. -1.
         13   -1    0    0    0    0 -0.00000000000E+00 -0.00000000000E+00 -0.10000000000E+04  0.10000000000E+04  0.00000000000E+00 0.  1.
    9000005    2    1    2  501    0 -0.19163780804E+02  0.61208735645E+02 -0.55394363586E+03  0.55765759048E+03  0.38310169299E+01 0.  0.
         13    1    3    3    0    0 -0.81303609481E+01  0.30367029253E+02 -0.28337945976E+03  0.28511783081E+03  0.00000000000E+00 0.  1.
          3    1    3    3  501    0 -0.11033419856E+02  0.30841706393E+02 -0.27056417610E+03  0.27253975966E+03  0.00000000000E+00 0.  1.
         -3    1    1    2    0  502  0.19163780804E+02 -0.61208735645E+02 -0.44188412034E+03  0.44651465332E+03  0.00000000000E+00 0. -1.
<mgrwt>
<rscale>  1 0.30000000E+03</rscale>
<asrwt>0</asrwt>
<pdfrwt beam="1">  1       21 0.15171828E-01 0.30000000E+03</pdfrwt>
<pdfrwt beam="2">0</pdfrwt>
<totfact> 0.40320706E+03</totfact>
</mgrwt>
</event>
<event>
 6    1  0.6513574E-002  0.3000000E+03  0.7818608E-02  0.1093470E+00
         21   -1    0    0  501  502  0.00000000000E+00  0.00000000000E+00  0.36433973239E+01  0.36433973239E+01  0.00000000000E+00 0. -1.
         13   -1    0    0    0    0 -0.00000000000E+00 -0.00000000000E+00 -0.10000000000E+04  0.10000000000E+04  0.00000000000E+00 0.  1.
    9000005    2    1    2  501    0  0.70587271701E+01 -0.54334207969E+02 -0.70809103820E+03  0.71021697137E+03  0.36326655882E+01 0.  0.
         13    1    3    3    0    0  0.55317565079E+01 -0.36732420193E+02 -0.49909909108E+03  0.50047954378E+03  0.00000000000E+00 0.  1.
          1    1    3    3  501    0  0.15269706622E+01 -0.17601787776E+02 -0.20899194711E+03  0.20973742759E+03  0.00000000000E+00 0.  1.
         -3    1    1    2    0  502 -0.70587271701E+01  0.54334207969E+02 -0.28826556448E+03  0.29342642596E+03  0.00000000000E+00 0. -1.
<mgrwt>
<rscale>  1 0.30000000E+03</rscale>
<asrwt>0</asrwt>
<pdfrwt beam="1">  1       21 0.13248745E-01 0.30000000E+03</pdfrwt>
<pdfrwt beam="2">0</pdfrwt>
<totfact> 0.51741723E+03</totfact>
</mgrwt>
</event>
<event>
 6    1  0.6513574E-002  0.3000000E+03  0.7818608E-02  0.1093470E+00
         21   -1    0    0  501  502  0.00000000000E+00  0.00000000000E+00  0.10061350746E+01  0.10061350746E+01  0.00000000000E+00 0. -1.
         13   -1    0    0    0    0 -0.00000000000E+00 -0.00000000000E+00 -0.10000000000E+04  0.10000000000E+04  0.00000000000E+00 0.  1.
    9000005    2    1    2  501    0 -0.26692117756E+02  0.14224094681E+02 -0.64164346151E+03  0.64237804800E+03  0.53320568238E+01 0.  0.
         13    1    3    3    0    0 -0.15492022762E+01  0.23197261636E+00 -0.63147666639E+02  0.63167093023E+02  0.00000000000E+00 0.  1.
          3    1    3    3  501    0 -0.25142915480E+02  0.13992122064E+02 -0.57849579487E+03  0.57921095498E+03  0.00000000000E+00 0.  1.
         -1    1    1    2    0  502  0.26692117756E+02 -0.14224094681E+02 -0.35735040341E+03  0.35862808708E+03  0.00000000000E+00 0. -1.
<mgrwt>
<rscale>  1 0.30000000E+03</rscale>
<asrwt>0</asrwt>
<pdfrwt beam="1">  1       21 0.36586807E-02 0.30000000E+03</pdfrwt>
<pdfrwt beam="2">0</pdfrwt>
<totfact> 0.48847385E+04</totfact>
</mgrwt>
</event>
<event>
 6    1  0.6513574E-002  0.3000000E+03  0.7818608E-02  0.1093470E+00
         21   -1    0    0  501  502  0.00000000000E+00  0.00000000000E+00  0.10171276996E+02  0.10171276996E+02  0.00000000000E+00 0. -1.
         13   -1    0    0    0    0 -0.00000000000E+00 -0.00000000000E+00 -0.10000000000E+04  0.10000000000E+04  0.00000000000E+00 0.  1.
    9000005    2    1    2  501    0  0.34043306233E+02  0.94453978006E+02 -0.54191093422E+03  0.55113876598E+03  0.24450110708E+01 0.  0.
         13    1    3    3    0    0  0.13167869022E+02  0.39966257103E+02 -0.22880790088E+03  0.23264511597E+03  0.00000000000E+00 0.  1.
          3    1    3    3  501    0  0.20875437212E+02  0.54487720903E+02 -0.31310303334E+03  0.31849365001E+03  0.00000000000E+00 0.  1.
         -3    1    1    2    0  502 -0.34043306233E+02 -0.94453978006E+02 -0.44791778878E+03  0.45903251101E+03  0.00000000000E+00 0. -1.
<mgrwt>
<rscale>  1 0.30000000E+03</rscale>
<asrwt>0</asrwt>
<pdfrwt beam="1">  1       21 0.36986540E-01 0.30000000E+03</pdfrwt>
<pdfrwt beam="2">0</pdfrwt>
<totfact> 0.71053374E+02</totfact>
</mgrwt>
</event>
<event>
 6    1  0.6513574E-002  0.3000000E+03  0.7818608E-02  0.1093470E+00
         21   -1    0    0  501  502  0.00000000000E+00  0.00000000000E+00  0.12253024414E+01  0.12253024414E+01  0.00000000000E+00 0. -1.
         13   -1    0    0    0    0 -0.00000000000E+00 -0.00000000000E+00 -0.10000000000E+04  0.10000000000E+04  0.00000000000E+00 0.  1.
    9000005    2    1    2  501    0  0.16397195592E+02 -0.29345235709E+02 -0.36785510992E+03  0.36941082259E+03  0.41186249274E+01 0.  0.
         13    1    3    3    0    0  0.60992508056E+00 -0.14349614240E+01 -0.29003121083E+02  0.29045002246E+02  0.00000000000E+00 0.  1.
          1    1    3    3  501    0  0.15787270512E+02 -0.27910274285E+02 -0.33885198884E+03  0.34036582035E+03  0.00000000000E+00 0.  1.
         -3    1    1    2    0  502 -0.16397195592E+02  0.29345235709E+02 -0.63091958764E+03  0.63181447985E+03  0.00000000000E+00 0. -1.
<mgrwt>
<rscale>  1 0.30000000E+03</rscale>
<asrwt>0</asrwt>
<pdfrwt beam="1">  1       21 0.44556546E-02 0.30000000E+03</pdfrwt>
<pdfrwt beam="2">0</pdfrwt>
<totfact> 0.35041924E+04</totfact>
</mgrwt>
</event>
<event>
 6    1  0.6513574E-002  0.3000000E+03  0.7818608E-02  0.1093470E+00
         21   -1    0    0  501  502  0.00000000000E+00  0.00000000000E+00  0.16205664986E+01  0.16205664986E+01  0.00000000000E+00 0. -1.
         13   -1    0    0    0    0 -0.00000000000E+00 -0.00000000000E+00 -0.10000000000E+04  0.10000000000E+04  0.00000000000E+00 0.  1.
    9000005    2    1    2  501    0  0.53001464034E+01  0.37322290522E+02 -0.67334428474E+03  0.67440673297E+03  0.32970839004E+01 0.  0.
         13    1    3    3    0    0  0.22198206088E+01  0.18221769389E+02 -0.35653303396E+03  0.35700527277E+03  0.00000000000E+00 0.  1.
          3    1    3    3  501    0  0.30803257946E+01  0.19100521134E+02 -0.31681125079E+03  0.31740146020E+03  0.00000000000E+00 0.  1.
         -1    1    1    2    0  502 -0.53001464034E+01 -0.37322290522E+02 -0.32503514876E+03  0.32721383353E+03  0.00000000000E+00 0. -1.
<mgrwt>
<rscale>  1 0.30000000E+03</rscale>
<asrwt>0</asrwt>
<pdfrwt beam="1">  1       21 0.58929815E-02 0.30000000E+03</pdfrwt>
<pdfrwt beam="2">0</pdfrwt>
<totfact> 0.21735734E+04</totfact>
</mgrwt>
</event>
<event>
 6    1  0.6513574E-002  0.3000000E+03  0.7818608E-02  0.1093470E+00
         21   -1    0    0  501  502  0.00000000000E+00  0.00000000000E+00  0.98319630587E+00  0.98319630587E+00  0.00000000000E+00 0. -1.
         13   -1    0    0    0    0 -0.00000000000E+00 -0.00000000000E+00 -0.10000000000E+04  0.10000000000E+04  0.00000000000E+00 0.  1.
    9000005    2    1    2  501    0 -0.49587717150E+01 -0.30825506061E+02 -0.52057881920E+03  0.52152756098E+03  0.37267437691E+01 0.  0.
         13    1    3    3    0    0 -0.13698457041E+01 -0.35736685686E+01 -0.49689795974E+02  0.49836968289E+02  0.00000000000E+00 0.  1.
          1    1    3    3  501    0 -0.35889260110E+01 -0.27251837493E+02 -0.47088902323E+03  0.47169059269E+03  0.00000000000E+00 0.  1.
         -1    1    1    2    0  502  0.49587717150E+01  0.30825506061E+02 -0.47843798449E+03  0.47945563532E+03  0.00000000000E+00 0. -1.
<mgrwt>
<rscale>  1 0.30000000E+03</rscale>
<asrwt>0</asrwt>
<pdfrwt beam="1">  1       21 0.35752668E-02 0.30000000E+03</pdfrwt>
<pdfrwt beam="2">0</pdfrwt>
<totfact> 0.50773866E+04</totfact>
</mgrwt>
</event>
<event>
 6    1  0.6513574E-002  0.3000000E+03  0.7818608E-02  0.1093470E+00
         21   -1    0    0  501  502  0.00000000000E+00  0.00000000000E+00  0.18441438208E+01  0.18441438208E+01  0.00000000000E+00 0. -1.
         13   -1    0    0    0    0 -0.00000000000E+00 -0.00000000000E+00 -0.10000000000E+04  0.10000000000E+04  0.00000000000E+00 0.  1.
    9000005    2    1    2  501    0 -0.34246201664E+02  0.23481554537E+02 -0.37564554697E+03  0.37795050641E+03  0.35808664035E+01 0.  0.
         13    1    3    3    0    0 -0.73607418848E+01  0.51552709959E+01 -0.95451072851E+02  0.95873169597E+02  0.00000000000E+00 0.  1.
          1    1    3    3  501    0 -0.26885459779E+02  0.18326283541E+02 -0.28019447412E+03  0.28207733681E+03  0.00000000000E+00 0.  1.
         -1    1    1    2    0  502  0.34246201664E+02 -0.23481554537E+02 -0.62251030921E+03  0.62389363741E+03  0.00000000000E+00 0. -1.
<mgrwt>
<rscale>  1 0.30000000E+03</rscale>
<asrwt>0</asrwt>
<pdfrwt beam="1">  1       21 0.67059917E-02 0.30000000E+03</pdfrwt>
<pdfrwt beam="2">0</pdfrwt>
<totfact> 0.17384203E+04</totfact>
</mgrwt>
</event>
<event>
 6    1  0.6513574E-002  0.3000000E+03  0.7818608E-02  0.1093470E+00
         21   -1    0    0  501  502  0.00000000000E+00  0.00000000000E+00  0.17902771331E+01  0.17902771331E+01  0.00000000000E+00 0. -1.
         13   -1    0    0    0    0 -0.00000000000E+00 -0.00000000000E+00 -0.10000000000E+04  0.10000000000E+04  0.00000000000E+00 0.  1.
    9000005    2    1    2  501    0  0.39364132527E+02 -0.14406798045E+02 -0.56549269265E+03  0.56704768777E+03  0.20010033236E+01 0.  0.
         13    1    3    3    0    0  0.16948874447E+02 -0.53795046262E+01 -0.24808725568E+03  0.24872372192E+03  0.00000000000E+00 0.  1.
          3    1    3    3  501    0  0.22415258080E+02 -0.90272934187E+01 -0.31740543697E+03  0.31832396586E+03  0.00000000000E+00 0.  1.
         -1    1    1    2    0  502 -0.39364132527E+02  0.14406798045E+02 -0.43271703022E+03  0.43474258936E+03  0.00000000000E+00 0. -1.
<mgrwt>
<rscale>  1 0.30000000E+03</rscale>
<asrwt>0</asrwt>
<pdfrwt beam="1">  1       21 0.65101124E-02 0.30000000E+03</pdfrwt>
<pdfrwt beam="2">0</pdfrwt>
<totfact> 0.18300720E+04</totfact>
</mgrwt>
</event>
<event>
 6    1  0.6513574E-002  0.3000000E+03  0.7818608E-02  0.1093470E+00
         21   -1    0    0  501  502  0.00000000000E+00  0.00000000000E+00  0.14263906818E+01  0.14263906818E+01  0.00000000000E+00 0. -1.
         13   -1    0    0    0    0 -0.00000000000E+00 -0.00000000000E+00 -0.10000000000E+04  0.10000000000E+04  0.00000000000E+00 0.  1.
    9000005    2    1    2  501    0 -0.32865446753E+02  0.17331996006E+02 -0.41891513746E+03  0.42057832132E+03  0.39618558244E+01 0.  0.
         13    1    3    3    0    0 -0.14929136144E+02  0.72651987051E+01 -0.16601822358E+03  0.16684637479E+03  0.00000000000E+00 0.  1.
          1    1    3    3  501    0 -0.17936310610E+02  0.10066797300E+02 -0.25289691387E+03  0.25373194654E+03  0.00000000000E+00 0.  1.
         -3    1    1    2    0  502  0.32865446753E+02 -0.17331996006E+02 -0.57965847186E+03  0.58084806936E+03  0.00000000000E+00 0. -1.
<mgrwt>
<rscale>  1 0.30000000E+03</rscale>
<asrwt>0</asrwt>
<pdfrwt beam="1">  1       21 0.51868861E-02 0.30000000E+03</pdfrwt>
<pdfrwt beam="2">0</pdfrwt>
<totfact> 0.27056335E+04</totfact>
</mgrwt>
</event>
<event>
 6    1  0.6513574E-002  0.3000000E+03  0.7818608E-02  0.1093470E+00
         21   -1    0    0  501  502  0.00000000000E+00  0.00000000000E+00  0.16216739879E+01  0.16216739879E+01  0.00000000000E+00 0. -1.
         13   -1    0    0    0    0 -0.00000000000E+00 -0.00000000000E+00 -0.10000000000E+04  0.10000000000E+04  0.00000000000E+00 0.  1.
    9000005    2    1    2  501    0  0.33188270513E+02 -0.13621877285E+02 -0.27465215265E+03  0.27700688609E+03  0.34631116129E+01 0.  0.
         13    1    3    3    0    0  0.21841425000E+02 -0.10487071285E+02 -0.19094979238E+03  0.19248077753E+03  0.00000000000E+00 0.  1.
          1    1    3    3  501    0  0.11346845513E+02 -0.31348059994E+01 -0.83702360273E+02  0.84526108553E+02  0.00000000000E+00 0.  1.
         -1    1    1    2    0  502 -0.33188270513E+02  0.13621877285E+02 -0.72372617336E+03  0.72461478790E+03  0.00000000000E+00 0. -1.
<mgrwt>
<rscale>  1 0.30000000E+03</rscale>
<asrwt>0</asrwt>
<pdfrwt beam="1">  1       21 0.58970088E-02 0.30000000E+03</pdfrwt>
<pdfrwt beam="2">0</pdfrwt>
<totfact> 0.21710156E+04</totfact>
</mgrwt>
</event>
<event>
 6    1  0.6513574E-002  0.3000000E+03  0.7818608E-02  0.1093470E+00
         21   -1    0    0  501  502  0.00000000000E+00  0.00000000000E+00  0.56395821268E+01  0.56395821268E+01  0.00000000000E+00 0. -1.
         13   -1    0    0    0    0 -0.00000000000E+00 -0.00000000000E+00 -0.10000000000E+04  0.10000000000E+04  0.00000000000E+00 0.  1.
    9000005    2    1    2  501    0 -0.42556811658E+02 -0.60783358981E+02 -0.42246966979E+03  0.42895532997E+03  0.40440407955E+01 0.  0.
         13    1    3    3    0    0 -0.16745505410E+02 -0.23743137731E+02 -0.15417831463E+03  0.15689200504E+03  0.00000000000E+00 0.  1.
          1    1    3    3  501    0 -0.25811306248E+02 -0.37040221250E+02 -0.26829135516E+03  0.27206332493E+03  0.00000000000E+00 0.  1.
         -1    1    1    2    0  502  0.42556811658E+02  0.60783358981E+02 -0.57189074808E+03  0.57668425216E+03  0.00000000000E+00 0. -1.
<mgrwt>
<rscale>  1 0.30000000E+03</rscale>
<asrwt>0</asrwt>
<pdfrwt beam="1">  1       21 0.20507615E-01 0.30000000E+03</pdfrwt>
<pdfrwt beam="2">0</pdfrwt>
<totfact> 0.22870060E+03</totfact>
</mgrwt>
</event>
<event>
 6    1  0.6513574E-002  0.3000000E+03  0.7818608E-02  0.1093470E+00
         21   -1    0    0  501  502  0.00000000000E+00  0.00000000000E+00  0.14094096735E+02  0.14094096735E+02  0.00000000000E+00 0. -1.
         13   -1    0    0    0    0 -0.00000000000E+00 -0.00000000000E+00 -0.10000000000E+04  0.10000000000E+04  0.00000000000E+00 0.  1.
    9000005    2    1    2  501    0  0.10664145606E+02 -0.79607389659E+02 -0.11982365297E+03  0.14429554261E+03  0.35263741850E+01 0.  0.
         13    1    3    3    0    0  0.69006618700E+01 -0.56896475896E+02 -0.82888983155E+02  0.10077406230E+03  0.00000000000E+00 0.  1.
          3    1    3    3  501    0  0.37634837365E+01 -0.22710913763E+02 -0.36934669815E+02  0.43521480308E+02  0.00000000000E+00 0.  1.
         -1    1    1    2    0  502 -0.10664145606E+02  0.79607389659E+02 -0.86608225029E+03  0.86979855413E+03  0.00000000000E+00 0. -1.
<mgrwt>
<rscale>  1 0.30000000E+03</rscale>
<asrwt>0</asrwt>
<pdfrwt beam="1">  1       21 0.51251369E-01 0.30000000E+03</pdfrwt>
<pdfrwt beam="2">0</pdfrwt>
<totfact> 0.35606887E+02</totfact>
</mgrwt>
</event>
<event>
 6    1  0.6513574E-002  0.3000000E+03  0.7818608E-02  0.1093470E+00
         21   -1    0    0  501  502  0.00000000000E+00  0.00000000000E+00  0.11126799060E+02  0.11126799060E+02  0.00000000000E+00 0. -1.
         13   -1    0    0    0    0 -0.00000000000E+00 -0.00000000000E+00 -0.10000000000E+04  0.10000000000E+04  0.00000000000E+00 0.  1.
    9000005    2    1    2  501    0  0.92230184632E+02 -0.48108748412E+02 -0.57763386318E+03  0.58693503634E+03  0.33163791154E+01 0.  0.
         13    1    3    3    0    0  0.77182137931E+02 -0.39498428774E+02 -0.47539801241E+03  0.48323956636E+03  0.00000000000E+00 0.  1.
          1    1    3    3  501    0  0.15048046701E+02 -0.86103196378E+01 -0.10223585076E+03  0.10369546998E+03  0.00000000000E+00 0.  1.
         -1    1    1    2    0  502 -0.92230184632E+02  0.48108748412E+02 -0.41123933776E+03  0.42419176272E+03  0.00000000000E+00 0. -1.
<mgrwt>
<rscale>  1 0.30000000E+03</rscale>
<asrwt>0</asrwt>
<pdfrwt beam="1">  1       21 0.40461173E-01 0.30000000E+03</pdfrwt>
<pdfrwt beam="2">0</pdfrwt>
<totfact> 0.58971809E+02</totfact>
</mgrwt>
</event>
<event>
 6    1  0.6513574E-002  0.3000000E+03  0.7818608E-02  0.1093470E+00
         21   -1    0    0  501  502  0.00000000000E+00  0.00000000000E+00  0.14213539731E+01  0.14213539731E+01  0.00000000000E+00 0. -1.
         13   -1    0    0    0    0 -0.00000000000E+00 -0.00000000000E+00 -0.10000000000E+04  0.10000000000E+04  0.00000000000E+00 0.  1.
    9000005    2    1    2  501    0  0.36026768451E+02 -0.10439100863E+02 -0.45853652833E+03  0.46007821718E+03  0.30520868499E+01 0.  0.
         13    1    3    3    0    0  0.27189238485E+02 -0.64944149922E+01 -0.33944784077E+03  0.34059692999E+03  0.00000000000E+00 0.  1.
          3    1    3    3  501    0  0.88375299660E+01 -0.39446858704E+01 -0.11908868756E+03  0.11948128718E+03  0.00000000000E+00 0.  1.
         -1    1    1    2    0  502 -0.36026768451E+02  0.10439100863E+02 -0.54004211770E+03  0.54134313680E+03  0.00000000000E+00 0. -1.
<mgrwt>
<rscale>  1 0.30000000E+03</rscale>
<asrwt>0</asrwt>
<pdfrwt beam="1">  1       21 0.51685708E-02 0.30000000E+03</pdfrwt>
<pdfrwt beam="2">0</pdfrwt>
<totfact> 0.27220289E+04</totfact>
</mgrwt>
</event>
<event>
 6    1  0.6513574E-002  0.3000000E+03  0.7818608E-02  0.1093470E+00
         21   -1    0    0  501  502  0.00000000000E+00  0.00000000000E+00  0.84270489702E+01  0.84270489702E+01  0.00000000000E+00 0. -1.
         13   -1    0    0    0    0 -0.00000000000E+00 -0.00000000000E+00 -0.10000000000E+04  0.10000000000E+04  0.00000000000E+00 0.  1.
    9000005    2    1    2  501    0  0.73736875787E+02 -0.15501517949E+02 -0.20841336783E+03  0.22165112365E+03  0.39578800483E+01 0.  0.
         13    1    3    3    0    0  0.71629854916E+02 -0.14886973753E+02 -0.20017943842E+03  0.21312969214E+03  0.00000000000E+00 0.  1.
          1    1    3    3  501    0  0.21070208714E+01 -0.61454419638E+00 -0.82339294125E+01  0.85214315166E+01  0.00000000000E+00 0.  1.
         -3    1    1    2    0  502 -0.73736875787E+02  0.15501517949E+02 -0.78315958320E+03  0.78677592532E+03  0.00000000000E+00 0. -1.
<mgrwt>
<rscale>  1 0.30000000E+03</rscale>
<asrwt>0</asrwt>
<pdfrwt beam="1">  1       21 0.30643879E-01 0.30000000E+03</pdfrwt>
<pdfrwt beam="2">0</pdfrwt>
<totfact> 0.10419887E+03</totfact>
</mgrwt>
</event>
<event>
 6    1  0.6513574E-002  0.3000000E+03  0.7818608E-02  0.1093470E+00
         21   -1    0    0  501  502  0.00000000000E+00  0.00000000000E+00  0.27201302024E+01  0.27201302024E+01  0.00000000000E+00 0. -1.
         13   -1    0    0    0    0 -0.00000000000E+00 -0.00000000000E+00 -0.10000000000E+04  0.10000000000E+04  0.00000000000E+00 0.  1.
    9000005    2    1    2  501    0 -0.30017290727E+02  0.40244062991E+02 -0.36522189250E+03  0.36867130793E+03  0.32985128865E+01 0.  0.
         13    1    3    3    0    0 -0.29961541367E+02  0.40071224936E+02 -0.36475013136E+03  0.36816579873E+03  0.00000000000E+00 0.  1.
          3    1    3    3  501    0 -0.55749360410E-01  0.17283805430E+00 -0.47176113434E+00  0.50550920078E+00  0.00000000000E+00 0.  1.
         -1    1    1    2    0  502  0.30017290727E+02 -0.40244062991E+02 -0.63205797730E+03  0.63404882227E+03  0.00000000000E+00 0. -1.
<mgrwt>
<rscale>  1 0.30000000E+03</rscale>
<asrwt>0</asrwt>
<pdfrwt beam="1">  1       21 0.98914034E-02 0.30000000E+03</pdfrwt>
<pdfrwt beam="2">0</pdfrwt>
<totfact> 0.87726442E+03</totfact>
</mgrwt>
</event>
<event>
 6    1  0.6513574E-002  0.3000000E+03  0.7818608E-02  0.1093470E+00
         21   -1    0    0  501  502  0.00000000000E+00  0.00000000000E+00  0.14333037304E+01  0.14333037304E+01  0.00000000000E+00 0. -1.
         13   -1    0    0    0    0 -0.00000000000E+00 -0.00000000000E+00 -0.10000000000E+04  0.10000000000E+04  0.00000000000E+00 0.  1.
    9000005    2    1    2  501    0 -0.30026851398E+02  0.21525631140E+02 -0.60461863903E+03  0.60575662208E+03  0.35244755093E+01 0.  0.
         13    1    3    3    0    0 -0.20324070456E+02  0.12840268634E+02 -0.40701932451E+03  0.40772867310E+03  0.00000000000E+00 0.  1.
          1    1    3    3  501    0 -0.97027809421E+01  0.86853625064E+01 -0.19759931452E+03  0.19802794898E+03  0.00000000000E+00 0.  1.
         -3    1    1    2    0  502  0.30026851398E+02 -0.21525631140E+02 -0.39394805724E+03  0.39567668165E+03  0.00000000000E+00 0. -1.
<mgrwt>
<rscale>  1 0.30000000E+03</rscale>
<asrwt>0</asrwt>
<pdfrwt beam="1">  1       21 0.52120246E-02 0.30000000E+03</pdfrwt>
<pdfrwt beam="2">0</pdfrwt>
<totfact> 0.26833786E+04</totfact>
</mgrwt>
</event>
<event>
 6    1  0.6513574E-002  0.3000000E+03  0.7818608E-02  0.1093470E+00
         21   -1    0    0  501  502  0.00000000000E+00  0.00000000000E+00  0.12487521945E+01  0.12487521945E+01  0.00000000000E+00 0. -1.
         13   -1    0    0    0    0 -0.00000000000E+00 -0.00000000000E+00 -0.10000000000E+04  0.10000000000E+04  0.00000000000E+00 0.  1.
    9000005    2    1    2  501    0 -0.29318005473E+00  0.35143346177E+02 -0.46023373490E+03  0.46158566059E+03  0.33302532399E+01 0.  0.
         13    1    3    3    0    0  0.33223754103E+00  0.13412468040E+02 -0.15573958792E+03  0.15631642245E+03  0.00000000000E+00 0.  1.
          1    1    3    3  501    0 -0.62541759577E+00  0.21730878137E+02 -0.30449414698E+03  0.30526923814E+03  0.00000000000E+00 0.  1.
         -1    1    1    2    0  502  0.29318005473E+00 -0.35143346177E+02 -0.53851751291E+03  0.53966309161E+03  0.00000000000E+00 0. -1.
<mgrwt>
<rscale>  1 0.30000000E+03</rscale>
<asrwt>0</asrwt>
<pdfrwt beam="1">  1       21 0.45409266E-02 0.30000000E+03</pdfrwt>
<pdfrwt beam="2">0</pdfrwt>
<totfact> 0.33932653E+04</totfact>
</mgrwt>
</event>
<event>
 6    1  0.6513574E-002  0.3000000E+03  0.7818608E-02  0.1093470E+00
         21   -1    0    0  501  502  0.00000000000E+00  0.00000000000E+00  0.12283830148E+01  0.12283830148E+01  0.00000000000E+00 0. -1.
         13   -1    0    0    0    0 -0.00000000000E+00 -0.00000000000E+00 -0.10000000000E+04  0.10000000000E+04  0.00000000000E+00 0.  1.
    9000005    2    1    2  501    0 -0.12795420834E+02  0.28122919816E+02 -0.73468163684E+03  0.73533716649E+03  0.30032473448E+01 0.  0.
         13    1    3    3    0    0 -0.41143486198E+01  0.12452121961E+02 -0.29978033882E+03  0.30006705042E+03  0.00000000000E+00 0.  1.
          3    1    3    3  501    0 -0.86810722138E+01  0.15670797854E+02 -0.43490129802E+03  0.43527011607E+03  0.00000000000E+00 0.  1.
         -3    1    1    2    0  502  0.12795420834E+02 -0.28122919816E+02 -0.26408998014E+03  0.26589121652E+03  0.00000000000E+00 0. -1.
<mgrwt>
<rscale>  1 0.30000000E+03</rscale>
<asrwt>0</asrwt>
<pdfrwt beam="1">  1       21 0.44668567E-02 0.30000000E+03</pdfrwt>
<pdfrwt beam="2">0</pdfrwt>
<totfact> 0.34893034E+04</totfact>
</mgrwt>
</event>
<event>
 6    1  0.6513574E-002  0.3000000E+03  0.7818608E-02  0.1093470E+00
         21   -1    0    0  501  502  0.00000000000E+00  0.00000000000E+00  0.13793631981E+01  0.13793631981E+01  0.00000000000E+00 0. -1.
         13   -1    0    0    0    0 -0.00000000000E+00 -0.00000000000E+00 -0.10000000000E+04  0.10000000000E+04  0.00000000000E+00 0.  1.
    9000005    2    1    2  501    0 -0.47969193632E+01 -0.33653820591E+02 -0.69839824408E+03  0.69923854310E+03  0.43408238601E+01 0.  0.
         13    1    3    3    0    0 -0.42561439554E+01 -0.23786368439E+02 -0.53002181890E+03  0.53057236508E+03  0.00000000000E+00 0.  1.
          1    1    3    3  501    0 -0.54077540778E+00 -0.98674521521E+01 -0.16837642518E+03  0.16866617802E+03  0.00000000000E+00 0.  1.
         -3    1    1    2    0  502  0.47969193632E+01  0.33653820591E+02 -0.30022239272E+03  0.30214082009E+03  0.00000000000E+00 0. -1.
<mgrwt>
<rscale>  1 0.30000000E+03</rscale>
<asrwt>0</asrwt>
<pdfrwt beam="1">  1       21 0.50158768E-02 0.30000000E+03</pdfrwt>
<pdfrwt beam="2">0</pdfrwt>
<totfact> 0.28649388E+04</totfact>
</mgrwt>
</event>
<event>
 6    1  0.6513574E-002  0.3000000E+03  0.7818608E-02  0.1093470E+00
         21   -1    0    0  501  502  0.00000000000E+00  0.00000000000E+00  0.32683966528E+01  0.32683966528E+01  0.00000000000E+00 0. -1.
         13   -1    0    0    0    0 -0.00000000000E+00 -0.00000000000E+00 -0.10000000000E+04  0.10000000000E+04  0.00000000000E+00 0.  1.
    9000005    2    1    2  501    0 -0.45001645805E+02 -0.26618096912E+01 -0.80661012226E+03  0.80787543125E+03  0.32541877685E+01 0.  0.
         13    1    3    3    0    0 -0.18793594174E+01 -0.21951454977E+00 -0.24063295267E+02  0.24137571493E+02  0.00000000000E+00 0.  1.
          3    1    3    3  501    0 -0.43122286388E+02 -0.24422951415E+01 -0.78254682699E+03  0.78373785976E+03  0.00000000000E+00 0.  1.
         -3    1    1    2    0  502  0.45001645805E+02  0.26618096912E+01 -0.19012148109E+03  0.19539296540E+03  0.00000000000E+00 0. -1.
<mgrwt>
<rscale>  1 0.30000000E+03</rscale>
<asrwt>0</asrwt>
<pdfrwt beam="1">  1       21 0.11885104E-01 0.30000000E+03</pdfrwt>
<pdfrwt beam="2">0</pdfrwt>
<totfact> 0.63062172E+03</totfact>
</mgrwt>
</event>
<event>
 6    1  0.6513574E-002  0.3000000E+03  0.7818608E-02  0.1093470E+00
         21   -1    0    0  501  502  0.00000000000E+00  0.00000000000E+00  0.47714733554E+01  0.47714733554E+01  0.00000000000E+00 0. -1.
         13   -1    0    0    0    0 -0.00000000000E+00 -0.00000000000E+00 -0.10000000000E+04  0.10000000000E+04  0.00000000000E+00 0.  1.
    9000005    2    1    2  501    0  0.40930565558E+02 -0.55415817182E+02 -0.53285572090E+03  0.53729437714E+03  0.19504929849E+01 0.  0.
         13    1    3    3    0    0  0.47801023717E+01 -0.75704879540E+01 -0.69685128794E+02  0.70257945042E+02  0.00000000000E+00 0.  1.
          1    1    3    3  501    0  0.36150463186E+02 -0.47845329228E+02 -0.46317059211E+03  0.46703643210E+03  0.00000000000E+00 0.  1.
         -3    1    1    2    0  502 -0.40930565558E+02  0.55415817182E+02 -0.46237280575E+03  0.46747709621E+03  0.00000000000E+00 0. -1.
<mgrwt>
<rscale>  1 0.30000000E+03</rscale>
<asrwt>0</asrwt>
<pdfrwt beam="1">  1       21 0.17350849E-01 0.30000000E+03</pdfrwt>
<pdfrwt beam="2">0</pdfrwt>
<totfact> 0.31389786E+03</totfact>
</mgrwt>
</event>
<event>
 6    1  0.6513574E-002  0.3000000E+03  0.7818608E-02  0.1093470E+00
         21   -1    0    0  501  502  0.00000000000E+00  0.00000000000E+00  0.20011198936E+01  0.20011198936E+01  0.00000000000E+00 0. -1.
         13   -1    0    0    0    0 -0.00000000000E+00 -0.00000000000E+00 -0.10000000000E+04  0.10000000000E+04  0.00000000000E+00 0.  1.
    9000005    2    1    2  501    0 -0.36788420800E+02  0.23882048767E+02 -0.59178010597E+03  0.59342134479E+03  0.46323297406E+01 0.  0.
         13    1    3    3    0    0  0.31227554541E-01 -0.13161710717E+00 -0.12209156269E+01  0.12283864176E+01  0.00000000000E+00 0.  1.
          3    1    3    3  501    0 -0.36819648355E+02  0.24013665874E+02 -0.59055919034E+03  0.59219295838E+03  0.00000000000E+00 0.  1.
         -3    1    1    2    0  502  0.36788420800E+02 -0.23882048767E+02 -0.40621877414E+03  0.40857977510E+03  0.00000000000E+00 0. -1.
<mgrwt>
<rscale>  1 0.30000000E+03</rscale>
<asrwt>0</asrwt>
<pdfrwt beam="1">  1       21 0.72768150E-02 0.30000000E+03</pdfrwt>
<pdfrwt beam="2">0</pdfrwt>
<totfact> 0.15080484E+04</totfact>
</mgrwt>
</event>
<event>
 6    1  0.6513574E-002  0.3000000E+03  0.7818608E-02  0.1093470E+00
         21   -1    0    0  501  502  0.00000000000E+00  0.00000000000E+00  0.91602618074E+00  0.91602618074E+00  0.00000000000E+00 0. -1.
         13   -1    0    0    0    0 -0.00000000000E+00 -0.00000000000E+00 -0.10000000000E+04  0.10000000000E+04  0.00000000000E+00 0.  1.
    9000005    2    1    2  501    0 -0.17896565707E+02  0.24198682687E+02 -0.47241459425E+03  0.47338735522E+03  0.37650917109E+01 0.  0.
         13    1    3    3    0    0 -0.75435730777E+01  0.89486830582E+01 -0.21033843858E+03  0.21066381551E+03  0.00000000000E+00 0.  1.
          3    1    3    3  501    0 -0.10352992629E+02  0.15249999629E+02 -0.26207615567E+03  0.26272353970E+03  0.00000000000E+00 0.  1.
         -3    1    1    2    0  502  0.17896565707E+02 -0.24198682687E+02 -0.52666937957E+03  0.52752867096E+03  0.00000000000E+00 0. -1.
<mgrwt>
<rscale>  1 0.30000000E+03</rscale>
<asrwt>0</asrwt>
<pdfrwt beam="1">  1       21 0.33310113E-02 0.30000000E+03</pdfrwt>
<pdfrwt beam="2">0</pdfrwt>
<totfact> 0.57154561E+04</totfact>
</mgrwt>
</event>
<event>
 6    1  0.6513574E-002  0.3000000E+03  0.7818608E-02  0.1093470E+00
         21   -1    0    0  501  502  0.00000000000E+00  0.00000000000E+00  0.16538671605E+01  0.16538671605E+01  0.00000000000E+00 0. -1.
         13   -1    0    0    0    0 -0.00000000000E+00 -0.00000000000E+00 -0.10000000000E+04  0.10000000000E+04  0.00000000000E+00 0.  1.
    9000005    2    1    2  501    0 -0.36407332610E+02 -0.94338551888E+01 -0.67734931826E+03  0.67846128300E+03  0.96499782277E+01 0.  0.
         13    1    3    3    0    0 -0.28149507707E+02 -0.11029572371E+02 -0.50081869308E+03  0.50173041525E+03  0.00000000000E+00 0.  1.
          3    1    3    3  501    0 -0.82578249034E+01  0.15957171824E+01 -0.17653062518E+03  0.17673086774E+03  0.00000000000E+00 0.  1.
         -3    1    1    2    0  502  0.36407332610E+02  0.94338551888E+01 -0.32099681458E+03  0.32319258416E+03  0.00000000000E+00 0. -1.
<mgrwt>
<rscale>  1 0.30000000E+03</rscale>
<asrwt>0</asrwt>
<pdfrwt beam="1">  1       21 0.60140751E-02 0.30000000E+03</pdfrwt>
<pdfrwt beam="2">0</pdfrwt>
<totfact> 0.20986682E+04</totfact>
</mgrwt>
</event>
<event>
 6    1  0.6513574E-002  0.3000000E+03  0.7818608E-02  0.1093470E+00
         21   -1    0    0  501  502  0.00000000000E+00  0.00000000000E+00  0.60623925505E+01  0.60623925505E+01  0.00000000000E+00 0. -1.
         13   -1    0    0    0    0 -0.00000000000E+00 -0.00000000000E+00 -0.10000000000E+04  0.10000000000E+04  0.00000000000E+00 0.  1.
    9000005    2    1    2  501    0 -0.47521733799E+02 -0.38399596673E+02 -0.18608706101E+03  0.19590478468E+03  0.41768621277E+01 0.  0.
         13    1    3    3    0    0 -0.27359472879E+02 -0.22001915508E+02 -0.11346921390E+03  0.11877662879E+03  0.00000000000E+00 0.  1.
          3    1    3    3  501    0 -0.20162260920E+02 -0.16397681165E+02 -0.72617847110E+02  0.77128155896E+02  0.00000000000E+00 0.  1.
         -1    1    1    2    0  502  0.47521733799E+02  0.38399596673E+02 -0.80785054644E+03  0.81015760787E+03  0.00000000000E+00 0. -1.
<mgrwt>
<rscale>  1 0.30000000E+03</rscale>
<asrwt>0</asrwt>
<pdfrwt beam="1">  1       21 0.22045110E-01 0.30000000E+03</pdfrwt>
<pdfrwt beam="2">0</pdfrwt>
<totfact> 0.19907257E+03</totfact>
</mgrwt>
</event>
<event>
 6    1  0.6513574E-002  0.3000000E+03  0.7818608E-02  0.1093470E+00
         21   -1    0    0  501  502  0.00000000000E+00  0.00000000000E+00  0.11105382299E+01  0.11105382299E+01  0.00000000000E+00 0. -1.
         13   -1    0    0    0    0 -0.00000000000E+00 -0.00000000000E+00 -0.10000000000E+04  0.10000000000E+04  0.00000000000E+00 0.  1.
    9000005    2    1    2  501    0 -0.32694490462E+02 -0.57497468566E+01 -0.47319303602E+03  0.47436703201E+03  0.32314744755E+01 0.  0.
         13    1    3    3    0    0 -0.28233350559E+02 -0.40115708603E+01 -0.41365658891E+03  0.41463838261E+03  0.00000000000E+00 0.  1.
          1    1    3    3  501    0 -0.44611399027E+01 -0.17381759963E+01 -0.59536447104E+02  0.59728649397E+02  0.00000000000E+00 0.  1.
         -3    1    1    2    0  502  0.32694490462E+02  0.57497468566E+01 -0.52569642575E+03  0.52674350622E+03  0.00000000000E+00 0. -1.
<mgrwt>
<rscale>  1 0.30000000E+03</rscale>
<asrwt>0</asrwt>
<pdfrwt beam="1">  1       21 0.40383294E-02 0.30000000E+03</pdfrwt>
<pdfrwt beam="2">0</pdfrwt>
<totfact> 0.41377269E+04</totfact>
</mgrwt>
</event>
<event>
 6    1  0.6513574E-002  0.3000000E+03  0.7818608E-02  0.1093470E+00
         21   -1    0    0  501  502  0.00000000000E+00  0.00000000000E+00  0.13497983528E+01  0.13497983528E+01  0.00000000000E+00 0. -1.
         13   -1    0    0    0    0 -0.00000000000E+00 -0.00000000000E+00 -0.10000000000E+04  0.10000000000E+04  0.00000000000E+00 0.  1.
    9000005    2    1    2  501    0  0.21071759837E+02 -0.29952890327E+02 -0.52350856111E+03  0.52479888473E+03  0.33854331571E+01 0.  0.
         13    1    3    3    0    0  0.20758746205E+02 -0.29696062865E+02 -0.51056980132E+03  0.51185379134E+03  0.00000000000E+00 0.  1.
          1    1    3    3  501    0  0.31301363240E+00 -0.25682746159E+00 -0.12938759794E+02  0.12945093390E+02  0.00000000000E+00 0.  1.
         -3    1    1    2    0  502 -0.21071759837E+02  0.29952890327E+02 -0.47514164054E+03  0.47655091362E+03  0.00000000000E+00 0. -1.
<mgrwt>
<rscale>  1 0.30000000E+03</rscale>
<asrwt>0</asrwt>
<pdfrwt beam="1">  1       21 0.49083680E-02 0.30000000E+03</pdfrwt>
<pdfrwt beam="2">0</pdfrwt>
<totfact> 0.29726958E+04</totfact>
</mgrwt>
</event>
<event>
 6    1  0.6513574E-002  0.3000000E+03  0.7818608E-02  0.1093470E+00
         21   -1    0    0  501  502  0.00000000000E+00  0.00000000000E+00  0.11817256036E+02  0.11817256036E+02  0.00000000000E+00 0. -1.
         13   -1    0    0    0    0 -0.00000000000E+00 -0.00000000000E+00 -0.10000000000E+04  0.10000000000E+04  0.00000000000E+00 0.  1.
    9000005    2    1    2  501    0  0.64567323691E+02  0.47410402620E+02 -0.15226735530E+03  0.17207251948E+03  0.26303811703E+01 0.  0.
         13    1    3    3    0    0  0.64024892721E+02  0.46893517321E+02 -0.15128344900E+03  0.17083580068E+03  0.00000000000E+00 0.  1.
          3    1    3    3  501    0  0.54243097028E+00  0.51688529909E+00 -0.98390629988E+00  0.12367187946E+01  0.00000000000E+00 0.  1.
         -1    1    1    2    0  502 -0.64567323691E+02 -0.47410402620E+02 -0.83591538867E+03  0.83974473656E+03  0.00000000000E+00 0. -1.
<mgrwt>
<rscale>  1 0.30000000E+03</rscale>
<asrwt>0</asrwt>
<pdfrwt beam="1">  1       21 0.42971931E-01 0.30000000E+03</pdfrwt>
<pdfrwt beam="2">0</pdfrwt>
<totfact> 0.51951787E+02</totfact>
</mgrwt>
</event>
<event>
 6    1  0.6513574E-002  0.3000000E+03  0.7818608E-02  0.1093470E+00
         21   -1    0    0  501  502  0.00000000000E+00  0.00000000000E+00  0.22046147780E+01  0.22046147780E+01  0.00000000000E+00 0. -1.
         13   -1    0    0    0    0 -0.00000000000E+00 -0.00000000000E+00 -0.10000000000E+04  0.10000000000E+04  0.00000000000E+00 0.  1.
    9000005    2    1    2  501    0  0.16742889666E+02  0.31591250229E+02 -0.17578909399E+03  0.17942112305E+03  0.34354596581E+01 0.  0.
         13    1    3    3    0    0  0.39762387234E+01  0.10298304004E+02 -0.49739073994E+02  0.50949396675E+02  0.00000000000E+00 0.  1.
          3    1    3    3  501    0  0.12766650943E+02  0.21292946225E+02 -0.12605002000E+03  0.12847172637E+03  0.00000000000E+00 0.  1.
         -1    1    1    2    0  502 -0.16742889666E+02 -0.31591250229E+02 -0.82200629123E+03  0.82278349173E+03  0.00000000000E+00 0. -1.
<mgrwt>
<rscale>  1 0.30000000E+03</rscale>
<asrwt>0</asrwt>
<pdfrwt beam="1">  1       21 0.80167979E-02 0.30000000E+03</pdfrwt>
<pdfrwt beam="2">0</pdfrwt>
<totfact> 0.12726891E+04</totfact>
</mgrwt>
</event>
<event>
 6    1  0.6513574E-002  0.3000000E+03  0.7818608E-02  0.1093470E+00
         21   -1    0    0  501  502  0.00000000000E+00  0.00000000000E+00  0.13968250544E+01  0.13968250544E+01  0.00000000000E+00 0. -1.
         13   -1    0    0    0    0 -0.00000000000E+00 -0.00000000000E+00 -0.10000000000E+04  0.10000000000E+04  0.00000000000E+00 0.  1.
    9000005    2    1    2  501    0  0.10337151671E+02 -0.33598781317E+02 -0.66638213684E+03  0.66732115553E+03  0.40789095031E+01 0.  0.
         13    1    3    3    0    0  0.81315821170E+01 -0.25575883698E+02 -0.53881998234E+03  0.53948792556E+03  0.00000000000E+00 0.  1.
          3    1    3    3  501    0  0.22055695541E+01 -0.80228976198E+01 -0.12756215450E+03  0.12783322996E+03  0.00000000000E+00 0.  1.
         -3    1    1    2    0  502 -0.10337151671E+02  0.33598781317E+02 -0.33222103811E+03  0.33407566953E+03  0.00000000000E+00 0. -1.
<mgrwt>
<rscale>  1 0.30000000E+03</rscale>
<asrwt>0</asrwt>
<pdfrwt beam="1">  1       21 0.50793745E-02 0.30000000E+03</pdfrwt>
<pdfrwt beam="2">0</pdfrwt>
<totfact> 0.28041247E+04</totfact>
</mgrwt>
</event>
<event>
 6    1  0.6513574E-002  0.3000000E+03  0.7818608E-02  0.1093470E+00
         21   -1    0    0  501  502  0.00000000000E+00  0.00000000000E+00  0.12383113669E+01  0.12383113669E+01  0.00000000000E+00 0. -1.
         13   -1    0    0    0    0 -0.00000000000E+00 -0.00000000000E+00 -0.10000000000E+04  0.10000000000E+04  0.00000000000E+00 0.  1.
    9000005    2    1    2  501    0  0.20954962125E+02 -0.27756263151E+02 -0.43119119038E+03  0.43260328688E+03  0.32000905318E+01 0.  0.
         13    1    3    3    0    0  0.20778168075E+02 -0.26594645921E+02 -0.41723407723E+03  0.41859680202E+03  0.00000000000E+00 0.  1.
          3    1    3    3  501    0  0.17679405027E+00 -0.11616172307E+01 -0.13957113146E+02  0.14006484858E+02  0.00000000000E+00 0.  1.
         -1    1    1    2    0  502 -0.20954962125E+02  0.27756263151E+02 -0.56757049826E+03  0.56863502449E+03  0.00000000000E+00 0. -1.
<mgrwt>
<rscale>  1 0.30000000E+03</rscale>
<asrwt>0</asrwt>
<pdfrwt beam="1">  1       21 0.45029599E-02 0.30000000E+03</pdfrwt>
<pdfrwt beam="2">0</pdfrwt>
<totfact> 0.34419761E+04</totfact>
</mgrwt>
</event>
<event>
 6    1  0.6513574E-002  0.3000000E+03  0.7818608E-02  0.1093470E+00
         21   -1    0    0  501  502  0.00000000000E+00  0.00000000000E+00  0.12484910551E+01  0.12484910551E+01  0.00000000000E+00 0. -1.
         13   -1    0    0    0    0 -0.00000000000E+00 -0.00000000000E+00 -0.10000000000E+04  0.10000000000E+04  0.00000000000E+00 0.  1.
    9000005    2    1    2  501    0 -0.88647413951E+01 -0.33835506502E+02 -0.56485045039E+03  0.56593991803E+03  0.29213636843E+01 0.  0.
         13    1    3    3    0    0 -0.34373312427E+01 -0.16325573194E+02 -0.28873523882E+03  0.28921683513E+03  0.00000000000E+00 0.  1.
          1    1    3    3  501    0 -0.54274101524E+01 -0.17509933309E+02 -0.27611521158E+03  0.27672308290E+03  0.00000000000E+00 0.  1.
         -3    1    1    2    0  502  0.88647413951E+01  0.33835506502E+02 -0.43390105855E+03  0.43530857303E+03  0.00000000000E+00 0. -1.
<mgrwt>
<rscale>  1 0.30000000E+03</rscale>
<asrwt>0</asrwt>
<pdfrwt beam="1">  1       21 0.45399770E-02 0.30000000E+03</pdfrwt>
<pdfrwt beam="2">0</pdfrwt>
<totfact> 0.33944707E+04</totfact>
</mgrwt>
</event>
<event>
 6    1  0.6513574E-002  0.3000000E+03  0.7818608E-02  0.1093470E+00
         21   -1    0    0  501  502  0.00000000000E+00  0.00000000000E+00  0.11968844800E+01  0.11968844800E+01  0.00000000000E+00 0. -1.
         13   -1    0    0    0    0 -0.00000000000E+00 -0.00000000000E+00 -0.10000000000E+04  0.10000000000E+04  0.00000000000E+00 0.  1.
    9000005    2    1    2  501    0  0.18183610193E+02  0.28759930154E+02 -0.58396391065E+03  0.58496456575E+03  0.34520970268E+01 0.  0.
         13    1    3    3    0    0  0.17182457321E+02  0.25734261739E+02 -0.51749298174E+03  0.51841727905E+03  0.00000000000E+00 0.  1.
          3    1    3    3  501    0  0.10011528712E+01  0.30256684154E+01 -0.66470928910E+02  0.66547286695E+02  0.00000000000E+00 0.  1.
         -1    1    1    2    0  502 -0.18183610193E+02 -0.28759930154E+02 -0.41483920487E+03  0.41623231873E+03  0.00000000000E+00 0. -1.
<mgrwt>
<rscale>  1 0.30000000E+03</rscale>
<asrwt>0</asrwt>
<pdfrwt beam="1">  1       21 0.43523164E-02 0.30000000E+03</pdfrwt>
<pdfrwt beam="2">0</pdfrwt>
<totfact> 0.36463003E+04</totfact>
</mgrwt>
</event>
<event>
 6    1  0.6513574E-002  0.3000000E+03  0.7818608E-02  0.1093470E+00
         21   -1    0    0  501  502  0.00000000000E+00  0.00000000000E+00  0.16175812764E+01  0.16175812764E+01  0.00000000000E+00 0. -1.
         13   -1    0    0    0    0 -0.00000000000E+00 -0.00000000000E+00 -0.10000000000E+04  0.10000000000E+04  0.00000000000E+00 0.  1.
    9000005    2    1    2  501    0  0.11232677950E+02  0.34700216687E+02 -0.30175212362E+03  0.30403314470E+03  0.71785010457E+01 0.  0.
         13    1    3    3    0    0  0.79863325539E+01  0.21156281572E+02 -0.15839910625E+03  0.16000514560E+03  0.00000000000E+00 0.  1.
          3    1    3    3  501    0  0.32463453964E+01  0.13543935115E+02 -0.14335301737E+03  0.14402799910E+03  0.00000000000E+00 0.  1.
         -1    1    1    2    0  502 -0.11232677950E+02 -0.34700216687E+02 -0.69663029510E+03  0.69758443657E+03  0.00000000000E+00 0. -1.
<mgrwt>
<rscale>  1 0.30000000E+03</rscale>
<asrwt>0</asrwt>
<pdfrwt beam="1">  1       21 0.58821261E-02 0.30000000E+03</pdfrwt>
<pdfrwt beam="2">0</pdfrwt>
<totfact> 0.21804911E+04</totfact>
</mgrwt>
</event>
<event>
 6    1  0.6513574E-002  0.3000000E+03  0.7818608E-02  0.1093470E+00
         21   -1    0    0  501  502  0.00000000000E+00  0.00000000000E+00  0.16834001707E+01  0.16834001707E+01  0.00000000000E+00 0. -1.
         13   -1    0    0    0    0 -0.00000000000E+00 -0.00000000000E+00 -0.10000000000E+04  0.10000000000E+04  0.00000000000E+00 0.  1.
    9000005    2    1    2  501    0 -0.32938979779E+02  0.20382966204E+02 -0.66255029043E+03  0.66369012180E+03  0.33539108420E+01 0.  0.
         13    1    3    3    0    0 -0.88409950407E+01  0.47715079200E+01 -0.19568787859E+03  0.19594559528E+03  0.00000000000E+00 0.  1.
          1    1    3    3  501    0 -0.24097984739E+02  0.15611458284E+02 -0.46686241184E+03  0.46774452652E+03  0.00000000000E+00 0.  1.
         -1    1    1    2    0  502  0.32938979779E+02 -0.20382966204E+02 -0.33576630940E+03  0.33799327837E+03  0.00000000000E+00 0. -1.
<mgrwt>
<rscale>  1 0.30000000E+03</rscale>
<asrwt>0</asrwt>
<pdfrwt beam="1">  1       21 0.61214681E-02 0.30000000E+03</pdfrwt>
<pdfrwt beam="2">0</pdfrwt>
<totfact> 0.20355456E+04</totfact>
</mgrwt>
</event>
<event>
 6    1  0.6513574E-002  0.3000000E+03  0.7818608E-02  0.1093470E+00
         21   -1    0    0  501  502  0.00000000000E+00  0.00000000000E+00  0.11008677937E+01  0.11008677937E+01  0.00000000000E+00 0. -1.
         13   -1    0    0    0    0 -0.00000000000E+00 -0.00000000000E+00 -0.10000000000E+04  0.10000000000E+04  0.00000000000E+00 0.  1.
    9000005    2    1    2  501    0  0.31298329997E+02 -0.10759909524E+02 -0.50852415785E+03  0.50961030167E+03  0.32371804897E+01 0.  0.
         13    1    3    3    0    0  0.17025974893E+02 -0.61655398197E+01 -0.30224225386E+03  0.30278420983E+03  0.00000000000E+00 0.  1.
          3    1    3    3  501    0  0.14272355104E+02 -0.45943697043E+01 -0.20628190399E+03  0.20682609184E+03  0.00000000000E+00 0.  1.
         -1    1    1    2    0  502 -0.31298329997E+02  0.10759909524E+02 -0.49037497436E+03  0.49149056612E+03  0.00000000000E+00 0. -1.
<mgrwt>
<rscale>  1 0.30000000E+03</rscale>
<asrwt>0</asrwt>
<pdfrwt beam="1">  1       21 0.40031641E-02 0.30000000E+03</pdfrwt>
<pdfrwt beam="2">0</pdfrwt>
<totfact> 0.41991371E+04</totfact>
</mgrwt>
</event>
<event>
 6    1  0.6513574E-002  0.3000000E+03  0.7818608E-02  0.1093470E+00
         21   -1    0    0  501  502  0.00000000000E+00  0.00000000000E+00  0.22455743248E+01  0.22455743248E+01  0.00000000000E+00 0. -1.
         13   -1    0    0    0    0 -0.00000000000E+00 -0.00000000000E+00 -0.10000000000E+04  0.10000000000E+04  0.00000000000E+00 0.  1.
    9000005    2    1    2  501    0 -0.39697766087E+02  0.30242027352E+01 -0.22879239541E+03  0.23225358578E+03  0.32725334818E+01 0.  0.
         13    1    3    3    0    0 -0.82834119429E+01  0.19244074507E+01 -0.50816629102E+02  0.51523276785E+02  0.00000000000E+00 0.  1.
          3    1    3    3  501    0 -0.31414354144E+02  0.10997952844E+01 -0.17797576631E+03  0.18073030899E+03  0.00000000000E+00 0.  1.
         -1    1    1    2    0  502  0.39697766087E+02 -0.30242027352E+01 -0.76896203027E+03  0.76999198855E+03  0.00000000000E+00 0. -1.
<mgrwt>
<rscale>  1 0.30000000E+03</rscale>
<asrwt>0</asrwt>
<pdfrwt beam="1">  1       21 0.81657420E-02 0.30000000E+03</pdfrwt>
<pdfrwt beam="2">0</pdfrwt>
<totfact> 0.12321699E+04</totfact>
</mgrwt>
</event>
<event>
 6    1  0.6513574E-002  0.3000000E+03  0.7818608E-02  0.1093470E+00
         21   -1    0    0  501  502  0.00000000000E+00  0.00000000000E+00  0.16540917423E+01  0.16540917423E+01  0.00000000000E+00 0. -1.
         13   -1    0    0    0    0 -0.00000000000E+00 -0.00000000000E+00 -0.10000000000E+04  0.10000000000E+04  0.00000000000E+00 0.  1.
    9000005    2    1    2  501    0  0.13917454844E+02 -0.38145929984E+02 -0.49612737493E+03  0.49779670841E+03  0.32223007616E+01 0.  0.
         13    1    3    3    0    0  0.74705860969E+01 -0.15877059332E+02 -0.21071579830E+03  0.21144511893E+03  0.00000000000E+00 0.  1.
          3    1    3    3  501    0  0.64468687470E+01 -0.22268870652E+02 -0.28541157663E+03  0.28635158947E+03  0.00000000000E+00 0.  1.
         -3    1    1    2    0  502 -0.13917454844E+02  0.38145929984E+02 -0.50221853333E+03  0.50385738334E+03  0.00000000000E+00 0. -1.
<mgrwt>
<rscale>  1 0.30000000E+03</rscale>
<asrwt>0</asrwt>
<pdfrwt beam="1">  1       21 0.60148917E-02 0.30000000E+03</pdfrwt>
<pdfrwt beam="2">0</pdfrwt>
<totfact> 0.20981768E+04</totfact>
</mgrwt>
</event>
<event>
 6    1  0.6513574E-002  0.3000000E+03  0.7818608E-02  0.1093470E+00
         21   -1    0    0  501  502  0.00000000000E+00  0.00000000000E+00  0.68178236263E+01  0.68178236263E+01  0.00000000000E+00 0. -1.
         13   -1    0    0    0    0 -0.00000000000E+00 -0.00000000000E+00 -0.10000000000E+04  0.10000000000E+04  0.00000000000E+00 0.  1.
    9000005    2    1    2  501    0 -0.14923929515E+02 -0.80511781865E+02 -0.55985468637E+03  0.56582169633E+03  0.34715276205E+01 0.  0.
         13    1    3    3    0    0 -0.18370694153E+01 -0.11500498872E+02 -0.71827357276E+02  0.72765414529E+02  0.00000000000E+00 0.  1.
          3    1    3    3  501    0 -0.13086860099E+02 -0.69011282993E+02 -0.48802732909E+03  0.49305628180E+03  0.00000000000E+00 0.  1.
         -1    1    1    2    0  502  0.14923929515E+02  0.80511781865E+02 -0.43332749001E+03  0.44099612729E+03  0.00000000000E+00 0. -1.
<mgrwt>
<rscale>  1 0.30000000E+03</rscale>
<asrwt>0</asrwt>
<pdfrwt beam="1">  1       21 0.24792138E-01 0.30000000E+03</pdfrwt>
<pdfrwt beam="2">0</pdfrwt>
<totfact> 0.15852768E+03</totfact>
</mgrwt>
</event>
<event>
 6    1  0.6513574E-002  0.3000000E+03  0.7818608E-02  0.1093470E+00
         21   -1    0    0  501  502  0.00000000000E+00  0.00000000000E+00  0.17425813942E+01  0.17425813942E+01  0.00000000000E+00 0. -1.
         13   -1    0    0    0    0 -0.00000000000E+00 -0.00000000000E+00 -0.10000000000E+04  0.10000000000E+04  0.00000000000E+00 0.  1.
    9000005    2    1    2  501    0  0.26972890820E+02 -0.24099305884E+02 -0.25129401295E+03  0.25390393384E+03  0.31958242747E+01 0.  0.
         13    1    3    3    0    0  0.53747884382E+01 -0.39455114648E+01 -0.39292222875E+02  0.39853910598E+02  0.00000000000E+00 0.  1.
          3    1    3    3  501    0  0.21598102381E+02 -0.20153794420E+02 -0.21200179007E+03  0.21405002324E+03  0.00000000000E+00 0.  1.
         -3    1    1    2    0  502 -0.26972890820E+02  0.24099305884E+02 -0.74696340566E+03  0.74783864756E+03  0.00000000000E+00 0. -1.
<mgrwt>
<rscale>  1 0.30000000E+03</rscale>
<asrwt>0</asrwt>
<pdfrwt beam="1">  1       21 0.63366730E-02 0.30000000E+03</pdfrwt>
<pdfrwt beam="2">0</pdfrwt>
<totfact> 0.19176036E+04</totfact>
</mgrwt>
</event>
<event>
 6    1  0.6513574E-002  0.3000000E+03  0.7818608E-02  0.1093470E+00
         21   -1    0    0  501  502  0.00000000000E+00  0.00000000000E+00  0.12264936807E+01  0.12264936807E+01  0.00000000000E+00 0. -1.
         13   -1    0    0    0    0 -0.00000000000E+00 -0.00000000000E+00 -0.10000000000E+04  0.10000000000E+04  0.00000000000E+00 0.  1.
    9000005    2    1    2  501    0 -0.19698690536E+02 -0.27765972190E+02 -0.38853434452E+03  0.39003845207E+03  0.34741325765E+01 0.  0.
         13    1    3    3    0    0 -0.33616491169E+01 -0.66864786850E+01 -0.75425078573E+02  0.75795462659E+02  0.00000000000E+00 0.  1.
          3    1    3    3  501    0 -0.16337041419E+02 -0.21079493505E+02 -0.31310926595E+03  0.31424298941E+03  0.00000000000E+00 0.  1.
         -1    1    1    2    0  502  0.19698690536E+02  0.27765972190E+02 -0.61023916180E+03  0.61118804161E+03  0.00000000000E+00 0. -1.
<mgrwt>
<rscale>  1 0.30000000E+03</rscale>
<asrwt>0</asrwt>
<pdfrwt beam="1">  1       21 0.44599864E-02 0.30000000E+03</pdfrwt>
<pdfrwt beam="2">0</pdfrwt>
<totfact> 0.34984233E+04</totfact>
</mgrwt>
</event>
<event>
 6    1  0.6513574E-002  0.3000000E+03  0.7818608E-02  0.1093470E+00
         21   -1    0    0  501  502  0.00000000000E+00  0.00000000000E+00  0.14098568122E+01  0.14098568122E+01  0.00000000000E+00 0. -1.
         13   -1    0    0    0    0 -0.00000000000E+00 -0.00000000000E+00 -0.10000000000E+04  0.10000000000E+04  0.00000000000E+00 0.  1.
    9000005    2    1    2  501    0 -0.83592002183E+01  0.30333208006E+02 -0.22883100302E+03  0.23100793988E+03  0.33257494839E+01 0.  0.
         13    1    3    3    0    0 -0.24690231086E+01  0.62083898344E+01 -0.40649128900E+02  0.41194561046E+02  0.00000000000E+00 0.  1.
          1    1    3    3  501    0 -0.58901771097E+01  0.24124818172E+02 -0.18818187412E+03  0.18981337884E+03  0.00000000000E+00 0.  1.
         -3    1    1    2    0  502  0.83592002183E+01 -0.30333208006E+02 -0.76975914017E+03  0.77040191693E+03  0.00000000000E+00 0. -1.
<mgrwt>
<rscale>  1 0.30000000E+03</rscale>
<asrwt>0</asrwt>
<pdfrwt beam="1">  1       21 0.51267629E-02 0.30000000E+03</pdfrwt>
<pdfrwt beam="2">0</pdfrwt>
<totfact> 0.27600372E+04</totfact>
</mgrwt>
</event>
<event>
 6    1  0.6513574E-002  0.3000000E+03  0.7818608E-02  0.1093470E+00
         21   -1    0    0  501  502  0.00000000000E+00  0.00000000000E+00  0.13482265771E+01  0.13482265771E+01  0.00000000000E+00 0. -1.
         13   -1    0    0    0    0 -0.00000000000E+00 -0.00000000000E+00 -0.10000000000E+04  0.10000000000E+04  0.00000000000E+00 0.  1.
    9000005    2    1    2  501    0 -0.25636814563E+02  0.21842591613E+02 -0.69592341776E+03  0.69675209661E+03  0.44424849597E+01 0.  0.
         13    1    3    3    0    0 -0.10550849532E+02  0.11349318087E+02 -0.34505708034E+03  0.34540485831E+03  0.00000000000E+00 0.  1.
          1    1    3    3  501    0 -0.15085965031E+02  0.10493273526E+02 -0.35086633742E+03  0.35134723830E+03  0.00000000000E+00 0.  1.
         -3    1    1    2    0  502  0.25636814563E+02 -0.21842591613E+02 -0.30272835566E+03  0.30459612997E+03  0.00000000000E+00 0. -1.
<mgrwt>
<rscale>  1 0.30000000E+03</rscale>
<asrwt>0</asrwt>
<pdfrwt beam="1">  1       21 0.49026524E-02 0.30000000E+03</pdfrwt>
<pdfrwt beam="2">0</pdfrwt>
<totfact> 0.29786008E+04</totfact>
</mgrwt>
</event>
<event>
 6    1  0.6513574E-002  0.3000000E+03  0.7818608E-02  0.1093470E+00
         21   -1    0    0  501  502  0.00000000000E+00  0.00000000000E+00  0.15494781921E+01  0.15494781921E+01  0.00000000000E+00 0. -1.
         13   -1    0    0    0    0 -0.00000000000E+00 -0.00000000000E+00 -0.10000000000E+04  0.10000000000E+04  0.00000000000E+00 0.  1.
    9000005    2    1    2  501    0  0.50386853448E+01  0.38316883646E+02 -0.41836346567E+03  0.42017647863E+03  0.51683520828E+01 0.  0.
         13    1    3    3    0    0 -0.10578441242E+01  0.40666493635E+01 -0.45545142331E+02  0.45738568640E+02  0.00000000000E+00 0.  1.
          3    1    3    3  501    0  0.60965294689E+01  0.34250234283E+02 -0.37281832334E+03  0.37443790999E+03  0.00000000000E+00 0.  1.
         -3    1    1    2    0  502 -0.50386853448E+01 -0.38316883646E+02 -0.58008705614E+03  0.58137299956E+03  0.00000000000E+00 0. -1.
<mgrwt>
<rscale>  1 0.30000000E+03</rscale>
<asrwt>0</asrwt>
<pdfrwt beam="1">  1       21 0.56344780E-02 0.30000000E+03</pdfrwt>
<pdfrwt beam="2">0</pdfrwt>
<totfact> 0.23480232E+04</totfact>
</mgrwt>
</event>
<event>
 6    1  0.6513574E-002  0.3000000E+03  0.7818608E-02  0.1093470E+00
         21   -1    0    0  501  502  0.00000000000E+00  0.00000000000E+00  0.18409580328E+01  0.18409580328E+01  0.00000000000E+00 0. -1.
         13   -1    0    0    0    0 -0.00000000000E+00 -0.00000000000E+00 -0.10000000000E+04  0.10000000000E+04  0.00000000000E+00 0.  1.
    9000005    2    1    2  501    0  0.33967111798E+02 -0.45893333583E+01 -0.19965238009E+03  0.20259899484E+03  0.32331363037E+01 0.  0.
         13    1    3    3    0    0  0.70425587007E+01 -0.56752707685E+00 -0.48991353372E+02  0.49498206283E+02  0.00000000000E+00 0.  1.
          3    1    3    3  501    0  0.26924553097E+02 -0.40218062814E+01 -0.15066102672E+03  0.15310078856E+03  0.00000000000E+00 0.  1.
         -3    1    1    2    0  502 -0.33967111798E+02  0.45893333583E+01 -0.79850666188E+03  0.79924196319E+03  0.00000000000E+00 0. -1.
<mgrwt>
<rscale>  1 0.30000000E+03</rscale>
<asrwt>0</asrwt>
<pdfrwt beam="1">  1       21 0.66944070E-02 0.30000000E+03</pdfrwt>
<pdfrwt beam="2">0</pdfrwt>
<totfact> 0.17436422E+04</totfact>
</mgrwt>
</event>
<event>
 6    1  0.6513574E-002  0.3000000E+03  0.7818608E-02  0.1093470E+00
         21   -1    0    0  501  502  0.00000000000E+00  0.00000000000E+00  0.14216901486E+01  0.14216901486E+01  0.00000000000E+00 0. -1.
         13   -1    0    0    0    0 -0.00000000000E+00 -0.00000000000E+00 -0.10000000000E+04  0.10000000000E+04  0.00000000000E+00 0.  1.
    9000005    2    1    2  501    0 -0.86951491376E+01 -0.35902286048E+02 -0.59688604386E+03  0.59803446140E+03  0.27727066676E+01 0.  0.
         13    1    3    3    0    0 -0.29210137501E+01 -0.16410398796E+02 -0.25405989882E+03  0.25460609910E+03  0.00000000000E+00 0.  1.
          1    1    3    3  501    0 -0.57741353874E+01 -0.19491887252E+02 -0.34282614504E+03  0.34342836229E+03  0.00000000000E+00 0.  1.
         -1    1    1    2    0  502  0.86951491376E+01  0.35902286048E+02 -0.40169226599E+03  0.40338722875E+03  0.00000000000E+00 0. -1.
<mgrwt>
<rscale>  1 0.30000000E+03</rscale>
<asrwt>0</asrwt>
<pdfrwt beam="1">  1       21 0.51697933E-02 0.30000000E+03</pdfrwt>
<pdfrwt beam="2">0</pdfrwt>
<totfact> 0.27209298E+04</totfact>
</mgrwt>
</event>
<event>
 6    1  0.6513574E-002  0.3000000E+03  0.7818608E-02  0.1093470E+00
         21   -1    0    0  501  502  0.00000000000E+00  0.00000000000E+00  0.11371632274E+01  0.11371632274E+01  0.00000000000E+00 0. -1.
         13   -1    0    0    0    0 -0.00000000000E+00 -0.00000000000E+00 -0.10000000000E+04  0.10000000000E+04  0.00000000000E+00 0.  1.
    9000005    2    1    2  501    0 -0.22768033409E+02 -0.22353879529E+02 -0.34194457530E+03  0.34344446787E+03  0.31512942671E+01 0.  0.
         13    1    3    3    0    0 -0.35834307872E+01 -0.22067113507E+01 -0.39840322409E+02  0.40061974999E+02  0.00000000000E+00 0.  1.
          1    1    3    3  501    0 -0.19184602621E+02 -0.20147168178E+02 -0.30210425289E+03  0.30338249287E+03  0.00000000000E+00 0.  1.
         -1    1    1    2    0  502  0.22768033409E+02  0.22353879529E+02 -0.65691826147E+03  0.65769269536E+03  0.00000000000E+00 0. -1.
<mgrwt>
<rscale>  1 0.30000000E+03</rscale>
<asrwt>0</asrwt>
<pdfrwt beam="1">  1       21 0.41351477E-02 0.30000000E+03</pdfrwt>
<pdfrwt beam="2">0</pdfrwt>
<totfact> 0.39757097E+04</totfact>
</mgrwt>
</event>
<event>
 6    1  0.6513574E-002  0.3000000E+03  0.7818608E-02  0.1093470E+00
         21   -1    0    0  501  502  0.00000000000E+00  0.00000000000E+00  0.31629058582E+01  0.31629058582E+01  0.00000000000E+00 0. -1.
         13   -1    0    0    0    0 -0.00000000000E+00 -0.00000000000E+00 -0.10000000000E+04  0.10000000000E+04  0.00000000000E+00 0.  1.
    9000005    2    1    2  501    0 -0.43091401843E+02 -0.34998434480E+02 -0.57628778795E+03  0.57896545387E+03  0.34092394822E+01 0.  0.
         13    1    3    3    0    0 -0.36096839588E+02 -0.28939054809E+02 -0.49243278904E+03  0.49460135710E+03  0.00000000000E+00 0.  1.
          3    1    3    3  501    0 -0.69945622559E+01 -0.60593796708E+01 -0.83854998907E+02  0.84364096776E+02  0.00000000000E+00 0.  1.
         -3    1    1    2    0  502  0.43091401843E+02  0.34998434480E+02 -0.42054930620E+03  0.42419745198E+03  0.00000000000E+00 0. -1.
<mgrwt>
<rscale>  1 0.30000000E+03</rscale>
<asrwt>0</asrwt>
<pdfrwt beam="1">  1       21 0.11501500E-01 0.30000000E+03</pdfrwt>
<pdfrwt beam="2">0</pdfrwt>
<totfact> 0.66919765E+03</totfact>
</mgrwt>
</event>
<event>
 6    1  0.6513574E-002  0.3000000E+03  0.7818608E-02  0.1093470E+00
         21   -1    0    0  501  502  0.00000000000E+00  0.00000000000E+00  0.24946505620E+01  0.24946505620E+01  0.00000000000E+00 0. -1.
         13   -1    0    0    0    0 -0.00000000000E+00 -0.00000000000E+00 -0.10000000000E+04  0.10000000000E+04  0.00000000000E+00 0.  1.
    9000005    2    1    2  501    0 -0.21951976090E+02  0.43077612029E+02 -0.37551924124E+03  0.37863225491E+03  0.31802527187E+01 0.  0.
         13    1    3    3    0    0 -0.19306302254E+02  0.37951968518E+02 -0.32202683470E+03  0.32482975154E+03  0.00000000000E+00 0.  1.
          3    1    3    3  501    0 -0.26456738359E+01  0.51256435109E+01 -0.53492406543E+02  0.53802503373E+02  0.00000000000E+00 0.  1.
         -1    1    1    2    0  502  0.21951976090E+02 -0.43077612029E+02 -0.62198610820E+03  0.62386239565E+03  0.00000000000E+00 0. -1.
<mgrwt>
<rscale>  1 0.30000000E+03</rscale>
<asrwt>0</asrwt>
<pdfrwt beam="1">  1       21 0.90714757E-02 0.30000000E+03</pdfrwt>
<pdfrwt beam="2">0</pdfrwt>
<totfact> 0.10233608E+04</totfact>
</mgrwt>
</event>
<event>
 6    1  0.6513574E-002  0.3000000E+03  0.7818608E-02  0.1093470E+00
         21   -1    0    0  501  502  0.00000000000E+00  0.00000000000E+00  0.29818712148E+01  0.29818712148E+01  0.00000000000E+00 0. -1.
         13   -1    0    0    0    0 -0.00000000000E+00 -0.00000000000E+00 -0.10000000000E+04  0.10000000000E+04  0.00000000000E+00 0.  1.
    9000005    2    1    2  501    0  0.49344999682E+02  0.22921372688E+02 -0.53577721778E+03  0.53854296641E+03  0.33137967433E+01 0.  0.
         13    1    3    3    0    0  0.19883053765E+02  0.84631540650E+01 -0.19843812720E+03  0.19961125000E+03  0.00000000000E+00 0.  1.
          1    1    3    3  501    0  0.29461945917E+02  0.14458218623E+02 -0.33733909059E+03  0.33893171640E+03  0.00000000000E+00 0.  1.
         -1    1    1    2    0  502 -0.49344999682E+02 -0.22921372688E+02 -0.46124091100E+03  0.46443890481E+03  0.00000000000E+00 0. -1.
<mgrwt>
<rscale>  1 0.30000000E+03</rscale>
<asrwt>0</asrwt>
<pdfrwt beam="1">  1       21 0.10843191E-01 0.30000000E+03</pdfrwt>
<pdfrwt beam="2">0</pdfrwt>
<totfact> 0.74416804E+03</totfact>
</mgrwt>
</event>
<event>
 6    1  0.6513574E-002  0.3000000E+03  0.7818608E-02  0.1093470E+00
         21   -1    0    0  501  502  0.00000000000E+00  0.00000000000E+00  0.15358103753E+01  0.15358103753E+01  0.00000000000E+00 0. -1.
         13   -1    0    0    0    0 -0.00000000000E+00 -0.00000000000E+00 -0.10000000000E+04  0.10000000000E+04  0.00000000000E+00 0.  1.
    9000005    2    1    2  501    0 -0.38164310907E+02 -0.79637526326E+01 -0.45617320553E+03  0.45784522979E+03  0.28853107414E+01 0.  0.
         13    1    3    3    0    0 -0.26098018982E+02 -0.44995190363E+01 -0.29777612999E+03  0.29895146070E+03  0.00000000000E+00 0.  1.
          3    1    3    3  501    0 -0.12066291925E+02 -0.34642335962E+01 -0.15839707554E+03  0.15889376909E+03  0.00000000000E+00 0.  1.
         -3    1    1    2    0  502  0.38164310907E+02  0.79637526326E+01 -0.54229098410E+03  0.54369058058E+03  0.00000000000E+00 0. -1.
<mgrwt>
<rscale>  1 0.30000000E+03</rscale>
<asrwt>0</asrwt>
<pdfrwt beam="1">  1       21 0.55847768E-02 0.30000000E+03</pdfrwt>
<pdfrwt beam="2">0</pdfrwt>
<totfact> 0.23840219E+04</totfact>
</mgrwt>
</event>
<event>
 6    1  0.6513574E-002  0.3000000E+03  0.7818608E-02  0.1093470E+00
         21   -1    0    0  501  502  0.00000000000E+00  0.00000000000E+00  0.53579102700E+01  0.53579102700E+01  0.00000000000E+00 0. -1.
         13   -1    0    0    0    0 -0.00000000000E+00 -0.00000000000E+00 -0.10000000000E+04  0.10000000000E+04  0.00000000000E+00 0.  1.
    9000005    2    1    2  501    0  0.68837351049E+02 -0.96109808126E+01 -0.65441180503E+03  0.65810065911E+03  0.32733950873E+01 0.  0.
         13    1    3    3    0    0  0.31430392880E+02 -0.40029773836E+01 -0.28336873503E+03  0.28513458825E+03  0.00000000000E+00 0.  1.
          3    1    3    3  501    0  0.37406958169E+02 -0.56080034290E+01 -0.37104307000E+03  0.37296607086E+03  0.00000000000E+00 0.  1.
         -1    1    1    2    0  502 -0.68837351049E+02  0.96109808126E+01 -0.34023028470E+03  0.34725725116E+03  0.00000000000E+00 0. -1.
<mgrwt>
<rscale>  1 0.30000000E+03</rscale>
<asrwt>0</asrwt>
<pdfrwt beam="1">  1       21 0.19483351E-01 0.30000000E+03</pdfrwt>
<pdfrwt beam="2">0</pdfrwt>
<totfact> 0.25218956E+03</totfact>
</mgrwt>
</event>
<event>
 6    1  0.6513574E-002  0.3000000E+03  0.7818608E-02  0.1093470E+00
         21   -1    0    0  501  502  0.00000000000E+00  0.00000000000E+00  0.16162712741E+01  0.16162712741E+01  0.00000000000E+00 0. -1.
         13   -1    0    0    0    0 -0.00000000000E+00 -0.00000000000E+00 -0.10000000000E+04  0.10000000000E+04  0.00000000000E+00 0.  1.
    9000005    2    1    2  501    0  0.21095228737E+02  0.23261200508E+02 -0.81013976803E+03  0.81077109616E+03  0.61020083573E+01 0.  0.
         13    1    3    3    0    0  0.17654818821E+02  0.22061129833E+02 -0.73526093062E+03  0.73580365735E+03  0.00000000000E+00 0.  1.
          3    1    3    3  501    0  0.34404099165E+01  0.12000706753E+01 -0.74878837410E+02  0.74967438811E+02  0.00000000000E+00 0.  1.
         -1    1    1    2    0  502 -0.21095228737E+02 -0.23261200508E+02 -0.18824396070E+03  0.19084517512E+03  0.00000000000E+00 0. -1.
<mgrwt>
<rscale>  1 0.30000000E+03</rscale>
<asrwt>0</asrwt>
<pdfrwt beam="1">  1       21 0.58773625E-02 0.30000000E+03</pdfrwt>
<pdfrwt beam="2">0</pdfrwt>
<totfact> 0.21835377E+04</totfact>
</mgrwt>
</event>
<event>
 6    1  0.6513574E-002  0.3000000E+03  0.7818608E-02  0.1093470E+00
         21   -1    0    0  501  502  0.00000000000E+00  0.00000000000E+00  0.12030960999E+01  0.12030960999E+01  0.00000000000E+00 0. -1.
         13   -1    0    0    0    0 -0.00000000000E+00 -0.00000000000E+00 -0.10000000000E+04  0.10000000000E+04  0.00000000000E+00 0.  1.
    9000005    2    1    2  501    0  0.13069010490E+02  0.31475523785E+02 -0.41366037979E+03  0.41507490238E+03  0.32798079126E+01 0.  0.
         13    1    3    3    0    0  0.12418023290E+02  0.29633132505E+02 -0.37899409825E+03  0.38035359385E+03  0.00000000000E+00 0.  1.
          1    1    3    3  501    0  0.65098720038E+00  0.18423912804E+01 -0.34666281544E+02  0.34721308530E+02  0.00000000000E+00 0.  1.
         -1    1    1    2    0  502 -0.13069010490E+02 -0.31475523785E+02 -0.58513652411E+03  0.58612819372E+03  0.00000000000E+00 0. -1.
<mgrwt>
<rscale>  1 0.30000000E+03</rscale>
<asrwt>0</asrwt>
<pdfrwt beam="1">  1       21 0.43749041E-02 0.30000000E+03</pdfrwt>
<pdfrwt beam="2">0</pdfrwt>
<totfact> 0.36144861E+04</totfact>
</mgrwt>
</event>
<event>
 6    1  0.6513574E-002  0.3000000E+03  0.7818608E-02  0.1093470E+00
         21   -1    0    0  501  502  0.00000000000E+00  0.00000000000E+00  0.20765500409E+01  0.20765500409E+01  0.00000000000E+00 0. -1.
         13   -1    0    0    0    0 -0.00000000000E+00 -0.00000000000E+00 -0.10000000000E+04  0.10000000000E+04  0.00000000000E+00 0.  1.
    9000005    2    1    2  501    0 -0.25153136289E+02 -0.34310701969E+02 -0.67717016330E+03  0.67851422925E+03  0.34963827769E+01 0.  0.
         13    1    3    3    0    0 -0.15253733188E+02 -0.18955563800E+02 -0.36526407335E+03  0.36607353504E+03  0.00000000000E+00 0.  1.
          1    1    3    3  501    0 -0.98994031005E+01 -0.15355138169E+02 -0.31190608995E+03  0.31244069421E+03  0.00000000000E+00 0.  1.
         -1    1    1    2    0  502  0.25153136289E+02  0.34310701969E+02 -0.32075328666E+03  0.32356232079E+03  0.00000000000E+00 0. -1.
<mgrwt>
<rscale>  1 0.30000000E+03</rscale>
<asrwt>0</asrwt>
<pdfrwt beam="1">  1       21 0.75511070E-02 0.30000000E+03</pdfrwt>
<pdfrwt beam="2">0</pdfrwt>
<totfact> 0.14135360E+04</totfact>
</mgrwt>
</event>
<event>
 6    1  0.6513574E-002  0.3000000E+03  0.7818608E-02  0.1093470E+00
         21   -1    0    0  501  502  0.00000000000E+00  0.00000000000E+00  0.13576369892E+01  0.13576369892E+01  0.00000000000E+00 0. -1.
         13   -1    0    0    0    0 -0.00000000000E+00 -0.00000000000E+00 -0.10000000000E+04  0.10000000000E+04  0.00000000000E+00 0.  1.
    9000005    2    1    2  501    0 -0.35147738501E+02 -0.62113500733E+01 -0.62045909450E+03  0.62149380747E+03  0.33347250413E+01 0.  0.
         13    1    3    3    0    0 -0.14766961858E+02 -0.41299781503E+01 -0.27768915663E+03  0.27811218527E+03  0.00000000000E+00 0.  1.
          1    1    3    3  501    0 -0.20380776643E+02 -0.20813719230E+01 -0.34276993786E+03  0.34338162221E+03  0.00000000000E+00 0.  1.
         -3    1    1    2    0  502  0.35147738501E+02  0.62113500733E+01 -0.37818326851E+03  0.37986382952E+03  0.00000000000E+00 0. -1.
<mgrwt>
<rscale>  1 0.30000000E+03</rscale>
<asrwt>0</asrwt>
<pdfrwt beam="1">  1       21 0.49368722E-02 0.30000000E+03</pdfrwt>
<pdfrwt beam="2">0</pdfrwt>
<totfact> 0.29435178E+04</totfact>
</mgrwt>
</event>
<event>
 6    1  0.6513574E-002  0.3000000E+03  0.7818608E-02  0.1093470E+00
         21   -1    0    0  501  502  0.00000000000E+00  0.00000000000E+00  0.57386680241E+01  0.57386680241E+01  0.00000000000E+00 0. -1.
         13   -1    0    0    0    0 -0.00000000000E+00 -0.00000000000E+00 -0.10000000000E+04  0.10000000000E+04  0.00000000000E+00 0.  1.
    9000005    2    1    2  501    0 -0.14348785401E+02  0.72865157451E+02 -0.59353393730E+03  0.59818785689E+03  0.55640444102E+01 0.  0.
         13    1    3    3    0    0 -0.37795715144E+01  0.28512202919E+02 -0.24605932021E+03  0.24773457558E+03  0.00000000000E+00 0.  1.
          3    1    3    3  501    0 -0.10569213886E+02  0.44352954532E+02 -0.34747461708E+03  0.35045328130E+03  0.00000000000E+00 0.  1.
         -3    1    1    2    0  502  0.14348785401E+02 -0.72865157451E+02 -0.40072739468E+03  0.40755081114E+03  0.00000000000E+00 0. -1.
<mgrwt>
<rscale>  1 0.30000000E+03</rscale>
<asrwt>0</asrwt>
<pdfrwt beam="1">  1       21 0.20867928E-01 0.30000000E+03</pdfrwt>
<pdfrwt beam="2">0</pdfrwt>
<totfact> 0.22120056E+03</totfact>
</mgrwt>
</event>
<event>
 6    1  0.6513574E-002  0.3000000E+03  0.7818608E-02  0.1093470E+00
         21   -1    0    0  501  502  0.00000000000E+00  0.00000000000E+00  0.10825236003E+01  0.10825236003E+01  0.00000000000E+00 0. -1.
         13   -1    0    0    0    0 -0.00000000000E+00 -0.00000000000E+00 -0.10000000000E+04  0.10000000000E+04  0.00000000000E+00 0.  1.
    9000005    2    1    2  501    0 -0.26237406488E+02 -0.19700931255E+02 -0.49625825982E+03  0.49735361218E+03  0.34390280833E+01 0.  0.
         13    1    3    3    0    0 -0.20531242005E+02 -0.16937208225E+02 -0.39153982377E+03  0.39244341569E+03  0.00000000000E+00 0.  1.
          3    1    3    3  501    0 -0.57061644833E+01 -0.27637230296E+01 -0.10471843606E+03  0.10491019649E+03  0.00000000000E+00 0.  1.
         -1    1    1    2    0  502  0.26237406488E+02  0.19700931255E+02 -0.50265921658E+03  0.50372891142E+03  0.00000000000E+00 0. -1.
<mgrwt>
<rscale>  1 0.30000000E+03</rscale>
<asrwt>0</asrwt>
<pdfrwt beam="1">  1       21 0.39364578E-02 0.30000000E+03</pdfrwt>
<pdfrwt beam="2">0</pdfrwt>
<totfact> 0.43196162E+04</totfact>
</mgrwt>
</event>
<event>
 6    1  0.6513574E-002  0.3000000E+03  0.7818608E-02  0.1093470E+00
         21   -1    0    0  501  502  0.00000000000E+00  0.00000000000E+00  0.12509004063E+01  0.12509004063E+01  0.00000000000E+00 0. -1.
         13   -1    0    0    0    0 -0.00000000000E+00 -0.00000000000E+00 -0.10000000000E+04  0.10000000000E+04  0.00000000000E+00 0.  1.
    9000005    2    1    2  501    0 -0.47133161338E+01  0.34490334773E+02 -0.58277721015E+03  0.58382496524E+03  0.32426572588E+01 0.  0.
         13    1    3    3    0    0 -0.43480397340E+00  0.74829518814E+01 -0.10649129151E+03  0.10675476004E+03  0.00000000000E+00 0.  1.
          3    1    3    3  501    0 -0.42785121604E+01  0.27007382892E+02 -0.47628591864E+03  0.47707020520E+03  0.00000000000E+00 0.  1.
         -1    1    1    2    0  502  0.47133161338E+01 -0.34490334773E+02 -0.41597188944E+03  0.41742593516E+03  0.00000000000E+00 0. -1.
<mgrwt>
<rscale>  1 0.30000000E+03</rscale>
<asrwt>0</asrwt>
<pdfrwt beam="1">  1       21 0.45487383E-02 0.30000000E+03</pdfrwt>
<pdfrwt beam="2">0</pdfrwt>
<totfact> 0.33833748E+04</totfact>
</mgrwt>
</event>
<event>
 6    1  0.6513574E-002  0.3000000E+03  0.7818608E-02  0.1093470E+00
         21   -1    0    0  501  502  0.00000000000E+00  0.00000000000E+00  0.10774313993E+01  0.10774313993E+01  0.00000000000E+00 0. -1.
         13   -1    0    0    0    0 -0.00000000000E+00 -0.00000000000E+00 -0.10000000000E+04  0.10000000000E+04  0.00000000000E+00 0.  1.
    9000005    2    1    2  501    0  0.31984234380E+02 -0.66623252524E+01 -0.53896468145E+03  0.53996070456E+03  0.26938416164E+01 0.  0.
         13    1    3    3    0    0  0.22279748882E+02 -0.33716276904E+01 -0.36855466245E+03  0.36924286628E+03  0.00000000000E+00 0.  1.
          3    1    3    3  501    0  0.97044854977E+01 -0.32906975620E+01 -0.17041001901E+03  0.17071783828E+03  0.00000000000E+00 0.  1.
         -1    1    1    2    0  502 -0.31984234380E+02  0.66623252524E+01 -0.45995788715E+03  0.46111672684E+03  0.00000000000E+00 0. -1.
<mgrwt>
<rscale>  1 0.30000000E+03</rscale>
<asrwt>0</asrwt>
<pdfrwt beam="1">  1       21 0.39179406E-02 0.30000000E+03</pdfrwt>
<pdfrwt beam="2">0</pdfrwt>
<totfact> 0.43540214E+04</totfact>
</mgrwt>
</event>
<event>
 6    1  0.6513574E-002  0.3000000E+03  0.7818608E-02  0.1093470E+00
         21   -1    0    0  501  502  0.00000000000E+00  0.00000000000E+00  0.12742072470E+01  0.12742072470E+01  0.00000000000E+00 0. -1.
         13   -1    0    0    0    0 -0.00000000000E+00 -0.00000000000E+00 -0.10000000000E+04  0.10000000000E+04  0.00000000000E+00 0.  1.
    9000005    2    1    2  501    0 -0.19464918128E+01 -0.35439241434E+02 -0.45536505542E+03  0.45675550275E+03  0.29200920976E+01 0.  0.
         13    1    3    3    0    0  0.66414755512E+00 -0.12508719028E+02 -0.16473385584E+03  0.16520941984E+03  0.00000000000E+00 0.  1.
          3    1    3    3  501    0 -0.26106393679E+01 -0.22930522405E+02 -0.29063119957E+03  0.29154608291E+03  0.00000000000E+00 0.  1.
         -3    1    1    2    0  502  0.19464918128E+01  0.35439241434E+02 -0.54336073734E+03  0.54451870449E+03  0.00000000000E+00 0. -1.
<mgrwt>
<rscale>  1 0.30000000E+03</rscale>
<asrwt>0</asrwt>
<pdfrwt beam="1">  1       21 0.46334907E-02 0.30000000E+03</pdfrwt>
<pdfrwt beam="2">0</pdfrwt>
<totfact> 0.32789121E+04</totfact>
</mgrwt>
</event>
<event>
 6    1  0.6513574E-002  0.3000000E+03  0.7818608E-02  0.1093470E+00
         21   -1    0    0  501  502  0.00000000000E+00  0.00000000000E+00  0.10336571362E+01  0.10336571362E+01  0.00000000000E+00 0. -1.
         13   -1    0    0    0    0 -0.00000000000E+00 -0.00000000000E+00 -0.10000000000E+04  0.10000000000E+04  0.00000000000E+00 0.  1.
    9000005    2    1    2  501    0  0.31278460310E+02  0.23399966074E+01 -0.39660520762E+03  0.39785644030E+03  0.31997984048E+01 0.  0.
         13    1    3    3    0    0  0.12294492370E+02  0.23628904387E+01 -0.14989597509E+03  0.15041788838E+03  0.00000000000E+00 0.  1.
          1    1    3    3  501    0  0.18983967940E+02 -0.22893831335E-01 -0.24670923253E+03  0.24743855192E+03  0.00000000000E+00 0.  1.
         -1    1    1    2    0  502 -0.31278460310E+02 -0.23399966074E+01 -0.60236113524E+03  0.60317721684E+03  0.00000000000E+00 0. -1.
<mgrwt>
<rscale>  1 0.30000000E+03</rscale>
<asrwt>0</asrwt>
<pdfrwt beam="1">  1       21 0.37587611E-02 0.30000000E+03</pdfrwt>
<pdfrwt beam="2">0</pdfrwt>
<totfact> 0.46683965E+04</totfact>
</mgrwt>
</event>
<event>
 6    1  0.6513574E-002  0.3000000E+03  0.7818608E-02  0.1093470E+00
         21   -1    0    0  501  502  0.00000000000E+00  0.00000000000E+00  0.15212480687E+01  0.15212480687E+01  0.00000000000E+00 0. -1.
         13   -1    0    0    0    0 -0.00000000000E+00 -0.00000000000E+00 -0.10000000000E+04  0.10000000000E+04  0.00000000000E+00 0.  1.
    9000005    2    1    2  501    0 -0.30607007535E+02  0.21830444034E+02 -0.37196704124E+03  0.37388259340E+03  0.39187605244E+01 0.  0.
         13    1    3    3    0    0 -0.91253905095E+01  0.61726648260E+01 -0.12725074987E+03  0.12772677044E+03  0.00000000000E+00 0.  1.
          1    1    3    3  501    0 -0.21481617026E+02  0.15657779208E+02 -0.24471629136E+03  0.24615582296E+03  0.00000000000E+00 0.  1.
         -3    1    1    2    0  502  0.30607007535E+02 -0.21830444034E+02 -0.62651171069E+03  0.62763865467E+03  0.00000000000E+00 0. -1.
<mgrwt>
<rscale>  1 0.30000000E+03</rscale>
<asrwt>0</asrwt>
<pdfrwt beam="1">  1       21 0.55318228E-02 0.30000000E+03</pdfrwt>
<pdfrwt beam="2">0</pdfrwt>
<totfact> 0.24233182E+04</totfact>
</mgrwt>
</event>
<event>
 6    1  0.6513574E-002  0.3000000E+03  0.7818608E-02  0.1093470E+00
         21   -1    0    0  501  502  0.00000000000E+00  0.00000000000E+00  0.21795657558E+01  0.21795657558E+01  0.00000000000E+00 0. -1.
         13   -1    0    0    0    0 -0.00000000000E+00 -0.00000000000E+00 -0.10000000000E+04  0.10000000000E+04  0.00000000000E+00 0.  1.
    9000005    2    1    2  501    0  0.26154803910E+02 -0.37502802607E+02 -0.40206258692E+03  0.40466977787E+03  0.35737025089E+01 0.  0.
         13    1    3    3    0    0  0.49431299288E+00 -0.17500758617E+01 -0.19341435812E+02  0.19426740595E+02  0.00000000000E+00 0.  1.
          3    1    3    3  501    0  0.25660490917E+02 -0.35752726745E+02 -0.38272115111E+03  0.38524303727E+03  0.00000000000E+00 0.  1.
         -1    1    1    2    0  502 -0.26154803910E+02  0.37502802607E+02 -0.59575784732E+03  0.59750978789E+03  0.00000000000E+00 0. -1.
<mgrwt>
<rscale>  1 0.30000000E+03</rscale>
<asrwt>0</asrwt>
<pdfrwt beam="1">  1       21 0.79257104E-02 0.30000000E+03</pdfrwt>
<pdfrwt beam="2">0</pdfrwt>
<totfact> 0.12984864E+04</totfact>
</mgrwt>
</event>
<event>
 6    1  0.6513574E-002  0.3000000E+03  0.7818608E-02  0.1093470E+00
         21   -1    0    0  501  502  0.00000000000E+00  0.00000000000E+00  0.15229147592E+01  0.15229147592E+01  0.00000000000E+00 0. -1.
         13   -1    0    0    0    0 -0.00000000000E+00 -0.00000000000E+00 -0.10000000000E+04  0.10000000000E+04  0.00000000000E+00 0.  1.
    9000005    2    1    2  501    0  0.17718672451E+02 -0.32980471297E+02 -0.63809813738E+03  0.63920447899E+03  0.33867663670E+01 0.  0.
         13    1    3    3    0    0  0.34404581265E+01 -0.39623577714E+01 -0.86133029357E+02  0.86292733051E+02  0.00000000000E+00 0.  1.
          3    1    3    3  501    0  0.14278214325E+02 -0.29018113526E+02 -0.55196510803E+03  0.55291174594E+03  0.00000000000E+00 0.  1.
         -1    1    1    2    0  502 -0.17718672451E+02  0.32980471297E+02 -0.36037894786E+03  0.36231843577E+03  0.00000000000E+00 0. -1.
<mgrwt>
<rscale>  1 0.30000000E+03</rscale>
<asrwt>0</asrwt>
<pdfrwt beam="1">  1       21 0.55378835E-02 0.30000000E+03</pdfrwt>
<pdfrwt beam="2">0</pdfrwt>
<totfact> 0.24187703E+04</totfact>
</mgrwt>
</event>
<event>
 6    1  0.6513574E-002  0.3000000E+03  0.7818608E-02  0.1093470E+00
         21   -1    0    0  501  502  0.00000000000E+00  0.00000000000E+00  0.17785660925E+01  0.17785660925E+01  0.00000000000E+00 0. -1.
         13   -1    0    0    0    0 -0.00000000000E+00 -0.00000000000E+00 -0.10000000000E+04  0.10000000000E+04  0.00000000000E+00 0.  1.
    9000005    2    1    2  501    0 -0.39663572246E+02  0.31213756763E+01 -0.66361842726E+03  0.66481845865E+03  0.33502260664E+01 0.  0.
         13    1    3    3    0    0 -0.33704315580E+02  0.38453629038E+01 -0.56217536876E+03  0.56319793407E+03  0.00000000000E+00 0.  1.
          1    1    3    3  501    0 -0.59592566662E+01 -0.72398722750E+00 -0.10144305850E+03  0.10162052458E+03  0.00000000000E+00 0.  1.
         -1    1    1    2    0  502  0.39663572246E+02 -0.31213756763E+01 -0.33460300665E+03  0.33696010744E+03  0.00000000000E+00 0. -1.
<mgrwt>
<rscale>  1 0.30000000E+03</rscale>
<asrwt>0</asrwt>
<pdfrwt beam="1">  1       21 0.64675267E-02 0.30000000E+03</pdfrwt>
<pdfrwt beam="2">0</pdfrwt>
<totfact> 0.18509837E+04</totfact>
</mgrwt>
</event>
<event>
 6    1  0.6513574E-002  0.3000000E+03  0.7818608E-02  0.1093470E+00
         21   -1    0    0  501  502  0.00000000000E+00  0.00000000000E+00  0.30490597701E+01  0.30490597701E+01  0.00000000000E+00 0. -1.
         13   -1    0    0    0    0 -0.00000000000E+00 -0.00000000000E+00 -0.10000000000E+04  0.10000000000E+04  0.00000000000E+00 0.  1.
    9000005    2    1    2  501    0  0.35875562030E+02 -0.29533700356E+02 -0.22908970034E+03  0.23378305952E+03  0.36239082941E+01 0.  0.
         13    1    3    3    0    0  0.33915058533E+02 -0.28003544737E+02 -0.21208873315E+03  0.21660115522E+03  0.00000000000E+00 0.  1.
          1    1    3    3  501    0  0.19605034976E+01 -0.15301556185E+01 -0.17000967184E+02  0.17181904300E+02  0.00000000000E+00 0.  1.
         -3    1    1    2    0  502 -0.35875562030E+02  0.29533700356E+02 -0.76786123989E+03  0.76926600025E+03  0.00000000000E+00 0. -1.
<mgrwt>
<rscale>  1 0.30000000E+03</rscale>
<asrwt>0</asrwt>
<pdfrwt beam="1">  1       21 0.11087513E-01 0.30000000E+03</pdfrwt>
<pdfrwt beam="2">0</pdfrwt>
<totfact> 0.71493304E+03</totfact>
</mgrwt>
</event>
<event>
 6    1  0.6513574E-002  0.3000000E+03  0.7818608E-02  0.1093470E+00
         21   -1    0    0  501  502  0.00000000000E+00  0.00000000000E+00  0.22667192265E+01  0.22667192265E+01  0.00000000000E+00 0. -1.
         13   -1    0    0    0    0 -0.00000000000E+00 -0.00000000000E+00 -0.10000000000E+04  0.10000000000E+04  0.00000000000E+00 0.  1.
    9000005    2    1    2  501    0  0.76354308368E+01  0.45307168221E+02 -0.62853711433E+03  0.63022257049E+03  0.32473007471E+01 0.  0.
         13    1    3    3    0    0  0.10955532349E+01  0.21879263151E+01 -0.32306311268E+02  0.32398842668E+02  0.00000000000E+00 0.  1.
          1    1    3    3  501    0  0.65398776018E+01  0.43119241906E+02 -0.59623080306E+03  0.59782372782E+03  0.00000000000E+00 0.  1.
         -3    1    1    2    0  502 -0.76354308368E+01 -0.45307168221E+02 -0.36919616644E+03  0.37204414874E+03  0.00000000000E+00 0. -1.
<mgrwt>
<rscale>  1 0.30000000E+03</rscale>
<asrwt>0</asrwt>
<pdfrwt beam="1">  1       21 0.82426328E-02 0.30000000E+03</pdfrwt>
<pdfrwt beam="2">0</pdfrwt>
<totfact> 0.12120219E+04</totfact>
</mgrwt>
</event>
<event>
 6    1  0.6513574E-002  0.3000000E+03  0.7818608E-02  0.1093470E+00
         21   -1    0    0  501  502  0.00000000000E+00  0.00000000000E+00  0.18364389521E+01  0.18364389521E+01  0.00000000000E+00 0. -1.
         13   -1    0    0    0    0 -0.00000000000E+00 -0.00000000000E+00 -0.10000000000E+04  0.10000000000E+04  0.00000000000E+00 0.  1.
    9000005    2    1    2  501    0 -0.30142895870E+02  0.69041106835E+01 -0.15381357668E+03  0.15692037388E+03  0.30210017568E+01 0.  0.
         13    1    3    3    0    0 -0.94025151220E+01  0.28265122285E+01 -0.42709398751E+02  0.43823386492E+02  0.00000000000E+00 0.  1.
          1    1    3    3  501    0 -0.20740380748E+02  0.40775984550E+01 -0.11110417793E+03  0.11309698738E+03  0.00000000000E+00 0.  1.
         -1    1    1    2    0  502  0.30142895870E+02 -0.69041106835E+01 -0.84434998437E+03  0.84491606508E+03  0.00000000000E+00 0. -1.
<mgrwt>
<rscale>  1 0.30000000E+03</rscale>
<asrwt>0</asrwt>
<pdfrwt beam="1">  1       21 0.66779739E-02 0.30000000E+03</pdfrwt>
<pdfrwt beam="2">0</pdfrwt>
<totfact> 0.17510910E+04</totfact>
</mgrwt>
</event>
<event>
 6    1  0.6513574E-002  0.3000000E+03  0.7818608E-02  0.1093470E+00
         21   -1    0    0  501  502  0.00000000000E+00  0.00000000000E+00  0.15076672588E+01  0.15076672588E+01  0.00000000000E+00 0. -1.
         13   -1    0    0    0    0 -0.00000000000E+00 -0.00000000000E+00 -0.10000000000E+04  0.10000000000E+04  0.00000000000E+00 0.  1.
    9000005    2    1    2  501    0 -0.33109645137E+02  0.20083336420E+02 -0.50770905738E+03  0.50919901166E+03  0.39443031514E+01 0.  0.
         13    1    3    3    0    0 -0.12941061748E+01  0.92294379165E+00 -0.12788094437E+02  0.12886500509E+02  0.00000000000E+00 0.  1.
          3    1    3    3  501    0 -0.31815538963E+02  0.19160392628E+02 -0.49492096294E+03  0.49631251115E+03  0.00000000000E+00 0.  1.
         -3    1    1    2    0  502  0.33109645137E+02 -0.20083336420E+02 -0.49078327536E+03  0.49230865560E+03  0.00000000000E+00 0. -1.
<mgrwt>
<rscale>  1 0.30000000E+03</rscale>
<asrwt>0</asrwt>
<pdfrwt beam="1">  1       21 0.54824380E-02 0.30000000E+03</pdfrwt>
<pdfrwt beam="2">0</pdfrwt>
<totfact> 0.24608715E+04</totfact>
</mgrwt>
</event>
<event>
 6    1  0.6513574E-002  0.3000000E+03  0.7818608E-02  0.1093470E+00
         21   -1    0    0  501  502  0.00000000000E+00  0.00000000000E+00  0.10051253376E+01  0.10051253376E+01  0.00000000000E+00 0. -1.
         13   -1    0    0    0    0 -0.00000000000E+00 -0.00000000000E+00 -0.10000000000E+04  0.10000000000E+04  0.00000000000E+00 0.  1.
    9000005    2    1    2  501    0 -0.27724559344E+02  0.14360260654E+02 -0.57315009280E+03  0.57401724902E+03  0.44615049910E+01 0.  0.
         13    1    3    3    0    0 -0.22352844537E+02  0.13003571082E+02 -0.49101241097E+03  0.49169292272E+03  0.00000000000E+00 0.  1.
          1    1    3    3  501    0 -0.53717148077E+01  0.13566895721E+01 -0.82137681821E+02  0.82324326304E+02  0.00000000000E+00 0.  1.
         -3    1    1    2    0  502  0.27724559344E+02 -0.14360260654E+02 -0.42584478187E+03  0.42698787632E+03  0.00000000000E+00 0. -1.
<mgrwt>
<rscale>  1 0.30000000E+03</rscale>
<asrwt>0</asrwt>
<pdfrwt beam="1">  1       21 0.36550089E-02 0.30000000E+03</pdfrwt>
<pdfrwt beam="2">0</pdfrwt>
<totfact> 0.48929745E+04</totfact>
</mgrwt>
</event>
<event>
 6    1  0.6513574E-002  0.3000000E+03  0.7818608E-02  0.1093470E+00
         21   -1    0    0  501  502  0.00000000000E+00  0.00000000000E+00  0.11339788302E+01  0.11339788302E+01  0.00000000000E+00 0. -1.
         13   -1    0    0    0    0 -0.00000000000E+00 -0.00000000000E+00 -0.10000000000E+04  0.10000000000E+04  0.00000000000E+00 0.  1.
    9000005    2    1    2  501    0 -0.21382347052E+02  0.24256440558E+02 -0.37191292370E+03  0.37334757718E+03  0.48591043067E+01 0.  0.
         13    1    3    3    0    0 -0.19898771749E+02  0.20764176686E+02 -0.31598105473E+03  0.31728715558E+03  0.00000000000E+00 0.  1.
          1    1    3    3  501    0 -0.14835753032E+01  0.34922638726E+01 -0.55931868979E+02  0.56060421601E+02  0.00000000000E+00 0.  1.
         -3    1    1    2    0  502  0.21382347052E+02 -0.24256440558E+02 -0.62695309747E+03  0.62778640165E+03  0.00000000000E+00 0. -1.
<mgrwt>
<rscale>  1 0.30000000E+03</rscale>
<asrwt>0</asrwt>
<pdfrwt beam="1">  1       21 0.41235681E-02 0.30000000E+03</pdfrwt>
<pdfrwt beam="2">0</pdfrwt>
<totfact> 0.39945614E+04</totfact>
</mgrwt>
</event>
<event>
 6    1  0.6513574E-002  0.3000000E+03  0.7818608E-02  0.1093470E+00
         21   -1    0    0  501  502  0.00000000000E+00  0.00000000000E+00  0.81778427790E+01  0.81778427790E+01  0.00000000000E+00 0. -1.
         13   -1    0    0    0    0 -0.00000000000E+00 -0.00000000000E+00 -0.10000000000E+04  0.10000000000E+04  0.00000000000E+00 0.  1.
    9000005    2    1    2  501    0 -0.78207970912E+02  0.35302672495E+02 -0.65468906589E+03  0.66029641662E+03  0.32892855127E+01 0.  0.
         13    1    3    3    0    0 -0.54911600633E+02  0.23655009800E+02 -0.44742753982E+03  0.45140474827E+03  0.00000000000E+00 0.  1.
          3    1    3    3  501    0 -0.23296370279E+02  0.11647662695E+02 -0.20726152607E+03  0.20889166835E+03  0.00000000000E+00 0.  1.
         -3    1    1    2    0  502  0.78207970912E+02 -0.35302672495E+02 -0.33713309133E+03  0.34788142616E+03  0.00000000000E+00 0. -1.
<mgrwt>
<rscale>  1 0.30000000E+03</rscale>
<asrwt>0</asrwt>
<pdfrwt beam="1">  1       21 0.29737673E-01 0.30000000E+03</pdfrwt>
<pdfrwt beam="2">0</pdfrwt>
<totfact> 0.11065389E+03</totfact>
</mgrwt>
</event>
<event>
 6    1  0.6513574E-002  0.3000000E+03  0.7818608E-02  0.1093470E+00
         21   -1    0    0  501  502  0.00000000000E+00  0.00000000000E+00  0.13302211246E+01  0.13302211246E+01  0.00000000000E+00 0. -1.
         13   -1    0    0    0    0 -0.00000000000E+00 -0.00000000000E+00 -0.10000000000E+04  0.10000000000E+04  0.00000000000E+00 0.  1.
    9000005    2    1    2  501    0  0.28619455444E+02 -0.21329461103E+02 -0.59831196071E+03  0.59938445151E+03  0.32402543797E+01 0.  0.
         13    1    3    3    0    0  0.22504657407E+02 -0.17255146738E+02 -0.45290534872E+03  0.45379230337E+03  0.00000000000E+00 0.  1.
          1    1    3    3  501    0  0.61147980366E+01 -0.40743143651E+01 -0.14540661199E+03  0.14559214815E+03  0.00000000000E+00 0.  1.
         -3    1    1    2    0  502 -0.28619455444E+02  0.21329461103E+02 -0.40035781817E+03  0.40194576961E+03  0.00000000000E+00 0. -1.
<mgrwt>
<rscale>  1 0.30000000E+03</rscale>
<asrwt>0</asrwt>
<pdfrwt beam="1">  1       21 0.48371779E-02 0.30000000E+03</pdfrwt>
<pdfrwt beam="2">0</pdfrwt>
<totfact> 0.30475729E+04</totfact>
</mgrwt>
</event>
<event>
 6    1  0.6513574E-002  0.3000000E+03  0.7818608E-02  0.1093470E+00
         21   -1    0    0  501  502  0.00000000000E+00  0.00000000000E+00  0.11399438696E+01  0.11399438696E+01  0.00000000000E+00 0. -1.
         13   -1    0    0    0    0 -0.00000000000E+00 -0.00000000000E+00 -0.10000000000E+04  0.10000000000E+04  0.00000000000E+00 0.  1.
    9000005    2    1    2  501    0 -0.81741257108E+01 -0.32681145588E+02 -0.50260645396E+03  0.50374421482E+03  0.31800622364E+01 0.  0.
         13    1    3    3    0    0 -0.43472896213E+01 -0.22713434865E+02 -0.33303393095E+03  0.33383588515E+03  0.00000000000E+00 0.  1.
          3    1    3    3  501    0 -0.38268360895E+01 -0.99677107228E+01 -0.16957252301E+03  0.16990832967E+03  0.00000000000E+00 0.  1.
         -1    1    1    2    0  502  0.81741257108E+01  0.32681145588E+02 -0.49625360217E+03  0.49739572905E+03  0.00000000000E+00 0. -1.
<mgrwt>
<rscale>  1 0.30000000E+03</rscale>
<asrwt>0</asrwt>
<pdfrwt beam="1">  1       21 0.41452592E-02 0.30000000E+03</pdfrwt>
<pdfrwt beam="2">0</pdfrwt>
<totfact> 0.39593613E+04</totfact>
</mgrwt>
</event>
<event>
 6    1  0.6513574E-002  0.3000000E+03  0.7818608E-02  0.1093470E+00
         21   -1    0    0  501  502  0.00000000000E+00  0.00000000000E+00  0.13002907916E+01  0.13002907916E+01  0.00000000000E+00 0. -1.
         13   -1    0    0    0    0 -0.00000000000E+00 -0.00000000000E+00 -0.10000000000E+04  0.10000000000E+04  0.00000000000E+00 0.  1.
    9000005    2    1    2  501    0  0.27351590332E+02 -0.22858704476E+02 -0.43246399431E+03  0.43394368803E+03  0.33746329628E+01 0.  0.
         13    1    3    3    0    0  0.23858405935E+02 -0.19711685173E+02 -0.36030074219E+03  0.36162743105E+03  0.00000000000E+00 0.  1.
          1    1    3    3  501    0  0.34931843965E+01 -0.31470193036E+01 -0.72163252118E+02  0.72316256982E+02  0.00000000000E+00 0.  1.
         -3    1    1    2    0  502 -0.27351590332E+02  0.22858704476E+02 -0.56623571490E+03  0.56735660276E+03  0.00000000000E+00 0. -1.
<mgrwt>
<rscale>  1 0.30000000E+03</rscale>
<asrwt>0</asrwt>
<pdfrwt beam="1">  1       21 0.47283401E-02 0.30000000E+03</pdfrwt>
<pdfrwt beam="2">0</pdfrwt>
<totfact> 0.31678839E+04</totfact>
</mgrwt>
</event>
<event>
 6    1  0.6513574E-002  0.3000000E+03  0.7818608E-02  0.1093470E+00
         21   -1    0    0  501  502  0.00000000000E+00  0.00000000000E+00  0.13954631608E+01  0.13954631608E+01  0.00000000000E+00 0. -1.
         13   -1    0    0    0    0 -0.00000000000E+00 -0.00000000000E+00 -0.10000000000E+04  0.10000000000E+04  0.00000000000E+00 0.  1.
    9000005    2    1    2  501    0 -0.33668847815E+02 -0.14859616967E+02 -0.54425400544E+03  0.54555688986E+03  0.80930897950E+01 0.  0.
         13    1    3    3    0    0 -0.27394809457E+02 -0.93021828705E+01 -0.45099888920E+03  0.45192588358E+03  0.00000000000E+00 0.  1.
          3    1    3    3  501    0 -0.62740383585E+01 -0.55574340965E+01 -0.93255116242E+02  0.93631006276E+02  0.00000000000E+00 0.  1.
         -3    1    1    2    0  502  0.33668847815E+02  0.14859616967E+02 -0.45435053140E+03  0.45583857330E+03  0.00000000000E+00 0. -1.
<mgrwt>
<rscale>  1 0.30000000E+03</rscale>
<asrwt>0</asrwt>
<pdfrwt beam="1">  1       21 0.50744222E-02 0.30000000E+03</pdfrwt>
<pdfrwt beam="2">0</pdfrwt>
<totfact> 0.28087953E+04</totfact>
</mgrwt>
</event>
<event>
 6    1  0.6513574E-002  0.3000000E+03  0.7818608E-02  0.1093470E+00
         21   -1    0    0  501  502  0.00000000000E+00  0.00000000000E+00  0.13033708575E+01  0.13033708575E+01  0.00000000000E+00 0. -1.
         13   -1    0    0    0    0 -0.00000000000E+00 -0.00000000000E+00 -0.10000000000E+04  0.10000000000E+04  0.00000000000E+00 0.  1.
    9000005    2    1    2  501    0  0.15719201832E+02  0.28280229776E+02 -0.28094069178E+03  0.28281854129E+03  0.34337000414E+01 0.  0.
         13    1    3    3    0    0  0.11247086895E+02  0.17040322597E+02 -0.17126326682E+03  0.17247601607E+03  0.00000000000E+00 0.  1.
          1    1    3    3  501    0  0.44721149362E+01  0.11239907180E+02 -0.10967742496E+03  0.11034252522E+03  0.00000000000E+00 0.  1.
         -1    1    1    2    0  502 -0.15719201832E+02 -0.28280229776E+02 -0.71775593736E+03  0.71848482957E+03  0.00000000000E+00 0. -1.
<mgrwt>
<rscale>  1 0.30000000E+03</rscale>
<asrwt>0</asrwt>
<pdfrwt beam="1">  1       21 0.47395404E-02 0.30000000E+03</pdfrwt>
<pdfrwt beam="2">0</pdfrwt>
<totfact> 0.31551628E+04</totfact>
</mgrwt>
</event>
<event>
 6    1  0.6513574E-002  0.3000000E+03  0.7818608E-02  0.1093470E+00
         21   -1    0    0  501  502  0.00000000000E+00  0.00000000000E+00  0.16442430627E+01  0.16442430627E+01  0.00000000000E+00 0. -1.
         13   -1    0    0    0    0 -0.00000000000E+00 -0.00000000000E+00 -0.10000000000E+04  0.10000000000E+04  0.00000000000E+00 0.  1.
    9000005    2    1    2  501    0 -0.92861465967E+01 -0.34656692344E+02 -0.73150207146E+03  0.73238932984E+03  0.33957425138E+01 0.  0.
         13    1    3    3    0    0 -0.84727371967E+01 -0.31179417116E+02 -0.67681823286E+03  0.67758900793E+03  0.00000000000E+00 0.  1.
          3    1    3    3  501    0 -0.81340940002E+00 -0.34772752278E+01 -0.54683838600E+02  0.54800321914E+02  0.00000000000E+00 0.  1.
         -1    1    1    2    0  502  0.92861465967E+01  0.34656692344E+02 -0.26685368547E+03  0.26925491322E+03  0.00000000000E+00 0. -1.
<mgrwt>
<rscale>  1 0.30000000E+03</rscale>
<asrwt>0</asrwt>
<pdfrwt beam="1">  1       21 0.59790783E-02 0.30000000E+03</pdfrwt>
<pdfrwt beam="2">0</pdfrwt>
<totfact> 0.21198981E+04</totfact>
</mgrwt>
</event>
<event>
 6    1  0.6513574E-002  0.3000000E+03  0.7818608E-02  0.1093470E+00
         21   -1    0    0  501  502  0.00000000000E+00  0.00000000000E+00  0.15718555795E+01  0.15718555795E+01  0.00000000000E+00 0. -1.
         13   -1    0    0    0    0 -0.00000000000E+00 -0.00000000000E+00 -0.10000000000E+04  0.10000000000E+04  0.00000000000E+00 0.  1.
    9000005    2    1    2  501    0  0.33656316100E+02 -0.15197107315E+02 -0.32137352194E+03  0.32351089850E+03  0.38289899842E+01 0.  0.
         13    1    3    3    0    0  0.53030799726E+01 -0.93906654621E+00 -0.44912375375E+02  0.45234123900E+02  0.00000000000E+00 0.  1.
          3    1    3    3  501    0  0.28353236127E+02 -0.14258040769E+02 -0.27646114656E+03  0.27827677460E+03  0.00000000000E+00 0.  1.
         -1    1    1    2    0  502 -0.33656316100E+02  0.15197107315E+02 -0.67705462248E+03  0.67806095708E+03  0.00000000000E+00 0. -1.
<mgrwt>
<rscale>  1 0.30000000E+03</rscale>
<asrwt>0</asrwt>
<pdfrwt beam="1">  1       21 0.57158505E-02 0.30000000E+03</pdfrwt>
<pdfrwt beam="2">0</pdfrwt>
<totfact> 0.22908597E+04</totfact>
</mgrwt>
</event>
<event>
 6    1  0.6513574E-002  0.3000000E+03  0.7818608E-02  0.1093470E+00
         21   -1    0    0  501  502  0.00000000000E+00  0.00000000000E+00  0.13926986840E+01  0.13926986840E+01  0.00000000000E+00 0. -1.
         13   -1    0    0    0    0 -0.00000000000E+00 -0.00000000000E+00 -0.10000000000E+04  0.10000000000E+04  0.00000000000E+00 0.  1.
    9000005    2    1    2  501    0 -0.29848350397E+02  0.15848747302E+02 -0.29316487724E+03  0.29514124170E+03  0.45387762434E+01 0.  0.
         13    1    3    3    0    0 -0.17151390857E+02  0.10630791377E+02 -0.18952938077E+03  0.19060055118E+03  0.00000000000E+00 0.  1.
          1    1    3    3  501    0 -0.12696959541E+02  0.52179559247E+01 -0.10363549647E+03  0.10454069052E+03  0.00000000000E+00 0.  1.
         -3    1    1    2    0  502  0.29848350397E+02 -0.15848747302E+02 -0.70544242407E+03  0.70625145699E+03  0.00000000000E+00 0. -1.
<mgrwt>
<rscale>  1 0.30000000E+03</rscale>
<asrwt>0</asrwt>
<pdfrwt beam="1">  1       21 0.50643695E-02 0.30000000E+03</pdfrwt>
<pdfrwt beam="2">0</pdfrwt>
<totfact> 0.28183131E+04</totfact>
</mgrwt>
</event>
<event>
 6    1  0.6513574E-002  0.3000000E+03  0.7818608E-02  0.1093470E+00
         21   -1    0    0  501  502  0.00000000000E+00  0.00000000000E+00  0.18639230799E+01  0.18639230799E+01  0.00000000000E+00 0. -1.
         13   -1    0    0    0    0 -0.00000000000E+00 -0.00000000000E+00 -0.10000000000E+04  0.10000000000E+04  0.00000000000E+00 0.  1.
    9000005    2    1    2  501    0 -0.20547569361E+02 -0.23262153434E+02 -0.15241409497E+03  0.15557260140E+03  0.30736905030E+01 0.  0.
         13    1    3    3    0    0 -0.14914413374E+02 -0.14718914254E+02 -0.10162590751E+03  0.10376372796E+03  0.00000000000E+00 0.  1.
          1    1    3    3  501    0 -0.56331559872E+01 -0.85432391798E+01 -0.50788187456E+02  0.51808873440E+02  0.00000000000E+00 0.  1.
         -1    1    1    2    0  502  0.20547569361E+02  0.23262153434E+02 -0.84572198195E+03  0.84629132168E+03  0.00000000000E+00 0. -1.
<mgrwt>
<rscale>  1 0.30000000E+03</rscale>
<asrwt>0</asrwt>
<pdfrwt beam="1">  1       21 0.67779164E-02 0.30000000E+03</pdfrwt>
<pdfrwt beam="2">0</pdfrwt>
<totfact> 0.17065308E+04</totfact>
</mgrwt>
</event>
<event>
 6    1  0.6513574E-002  0.3000000E+03  0.7818608E-02  0.1093470E+00
         21   -1    0    0  501  502  0.00000000000E+00  0.00000000000E+00  0.15079962080E+01  0.15079962080E+01  0.00000000000E+00 0. -1.
         13   -1    0    0    0    0 -0.00000000000E+00 -0.00000000000E+00 -0.10000000000E+04  0.10000000000E+04  0.00000000000E+00 0.  1.
    9000005    2    1    2  501    0 -0.18991211153E+02 -0.28502777876E+02 -0.26682551067E+03  0.26904029616E+03  0.37085534872E+01 0.  0.
         13    1    3    3    0    0 -0.66236809805E+01 -0.11872102954E+02 -0.11733903655E+03  0.11812395810E+03  0.00000000000E+00 0.  1.
          3    1    3    3  501    0 -0.12367530172E+02 -0.16630674922E+02 -0.14948647411E+03  0.15091633806E+03  0.00000000000E+00 0.  1.
         -3    1    1    2    0  502  0.18991211153E+02  0.28502777876E+02 -0.73166649313E+03  0.73246770005E+03  0.00000000000E+00 0. -1.
<mgrwt>
<rscale>  1 0.30000000E+03</rscale>
<asrwt>0</asrwt>
<pdfrwt beam="1">  1       21 0.54836341E-02 0.30000000E+03</pdfrwt>
<pdfrwt beam="2">0</pdfrwt>
<totfact> 0.24599514E+04</totfact>
</mgrwt>
</event>
<event>
 6    1  0.6513574E-002  0.3000000E+03  0.7818608E-02  0.1093470E+00
         21   -1    0    0  501  502  0.00000000000E+00  0.00000000000E+00  0.46652881087E+01  0.46652881087E+01  0.00000000000E+00 0. -1.
         13   -1    0    0    0    0 -0.00000000000E+00 -0.00000000000E+00 -0.10000000000E+04  0.10000000000E+04  0.00000000000E+00 0.  1.
    9000005    2    1    2  501    0 -0.48210507723E+02 -0.44227360022E+02 -0.35470121909E+03  0.36069977309E+03  0.33255159878E+01 0.  0.
         13    1    3    3    0    0 -0.47832849988E+02 -0.44189571916E+02 -0.35304090327E+03  0.35899662837E+03  0.00000000000E+00 0.  1.
          1    1    3    3  501    0 -0.37765773484E+00 -0.37788106301E-01 -0.16603158211E+01  0.17031447183E+01  0.00000000000E+00 0.  1.
         -1    1    1    2    0  502  0.48210507723E+02  0.44227360022E+02 -0.64063349280E+03  0.64396551502E+03  0.00000000000E+00 0. -1.
<mgrwt>
<rscale>  1 0.30000000E+03</rscale>
<asrwt>0</asrwt>
<pdfrwt beam="1">  1       21 0.16964720E-01 0.30000000E+03</pdfrwt>
<pdfrwt beam="2">0</pdfrwt>
<totfact> 0.32742350E+03</totfact>
</mgrwt>
</event>
<event>
 6    1  0.6513574E-002  0.3000000E+03  0.7818608E-02  0.1093470E+00
         21   -1    0    0  501  502  0.00000000000E+00  0.00000000000E+00  0.11096485707E+01  0.11096485707E+01  0.00000000000E+00 0. -1.
         13   -1    0    0    0    0 -0.00000000000E+00 -0.00000000000E+00 -0.10000000000E+04  0.10000000000E+04  0.00000000000E+00 0.  1.
    9000005    2    1    2  501    0  0.23684705732E+02  0.22436668296E+02 -0.54711202426E+03  0.54815487570E+03  0.88222043737E+01 0.  0.
         13    1    3    3    0    0  0.53441359233E+01  0.75918793487E+00 -0.84568191788E+02  0.84740280961E+02  0.00000000000E+00 0.  1.
          1    1    3    3  501    0  0.18340569808E+02  0.21677480361E+02 -0.46254383247E+03  0.46341459474E+03  0.00000000000E+00 0.  1.
         -1    1    1    2    0  502 -0.23684705732E+02 -0.22436668296E+02 -0.45177832717E+03  0.45295477287E+03  0.00000000000E+00 0. -1.
<mgrwt>
<rscale>  1 0.30000000E+03</rscale>
<asrwt>0</asrwt>
<pdfrwt beam="1">  1       21 0.40350942E-02 0.30000000E+03</pdfrwt>
<pdfrwt beam="2">0</pdfrwt>
<totfact> 0.41433177E+04</totfact>
</mgrwt>
</event>
<event>
 6    1  0.6513574E-002  0.3000000E+03  0.7818608E-02  0.1093470E+00
         21   -1    0    0  501  502  0.00000000000E+00  0.00000000000E+00  0.19304476653E+01  0.19304476653E+01  0.00000000000E+00 0. -1.
         13   -1    0    0    0    0 -0.00000000000E+00 -0.00000000000E+00 -0.10000000000E+04  0.10000000000E+04  0.00000000000E+00 0.  1.
    9000005    2    1    2  501    0 -0.34153384807E+02  0.24418812453E+02 -0.35508737676E+03  0.35757898286E+03  0.35988540504E+01 0.  0.
         13    1    3    3    0    0 -0.12905728202E+02  0.88762924520E+01 -0.11820879858E+03  0.11924204984E+03  0.00000000000E+00 0.  1.
          3    1    3    3  501    0 -0.21247656605E+02  0.15542520001E+02 -0.23687857818E+03  0.23833693302E+03  0.00000000000E+00 0.  1.
         -1    1    1    2    0  502  0.34153384807E+02 -0.24418812453E+02 -0.64298217557E+03  0.64435146481E+03  0.00000000000E+00 0. -1.
<mgrwt>
<rscale>  1 0.30000000E+03</rscale>
<asrwt>0</asrwt>
<pdfrwt beam="1">  1       21 0.70198245E-02 0.30000000E+03</pdfrwt>
<pdfrwt beam="2">0</pdfrwt>
<totfact> 0.16056059E+04</totfact>
</mgrwt>
</event>
<event>
 6    1  0.6513574E-002  0.3000000E+03  0.7818608E-02  0.1093470E+00
         21   -1    0    0  501  502  0.00000000000E+00  0.00000000000E+00  0.10400025757E+01  0.10400025757E+01  0.00000000000E+00 0. -1.
         13   -1    0    0    0    0 -0.00000000000E+00 -0.00000000000E+00 -0.10000000000E+04  0.10000000000E+04  0.00000000000E+00 0.  1.
    9000005    2    1    2  501    0 -0.26200110659E+02 -0.16574758417E+02 -0.40469844747E+03  0.40597029391E+03  0.83592905868E+01 0.  0.
         13    1    3    3    0    0 -0.13941385888E+00  0.78251042307E+00 -0.10945503683E+02  0.10974325021E+02  0.00000000000E+00 0.  1.
          3    1    3    3  501    0 -0.26060696800E+02 -0.17357268840E+02 -0.39375294378E+03  0.39499596889E+03  0.00000000000E+00 0.  1.
         -1    1    1    2    0  502  0.26200110659E+02  0.16574758417E+02 -0.59426154996E+03  0.59506970867E+03  0.00000000000E+00 0. -1.
<mgrwt>
<rscale>  1 0.30000000E+03</rscale>
<asrwt>0</asrwt>
<pdfrwt beam="1">  1       21 0.37818355E-02 0.30000000E+03</pdfrwt>
<pdfrwt beam="2">0</pdfrwt>
<totfact> 0.46206540E+04</totfact>
</mgrwt>
</event>
<event>
 6    1  0.6513574E-002  0.3000000E+03  0.7818608E-02  0.1093470E+00
         21   -1    0    0  501  502  0.00000000000E+00  0.00000000000E+00  0.18734809306E+01  0.18734809306E+01  0.00000000000E+00 0. -1.
         13   -1    0    0    0    0 -0.00000000000E+00 -0.00000000000E+00 -0.10000000000E+04  0.10000000000E+04  0.00000000000E+00 0.  1.
    9000005    2    1    2  501    0 -0.11749941567E+02  0.30182786341E+02 -0.17869343159E+03  0.18180052894E+03  0.84278178671E+01 0.  0.
         13    1    3    3    0    0  0.54004028334E-02  0.66797120937E+01 -0.50622691386E+02  0.51061487111E+02  0.00000000000E+00 0.  1.
          1    1    3    3  501    0 -0.11755341970E+02  0.23503074248E+02 -0.12807074020E+03  0.13073904183E+03  0.00000000000E+00 0.  1.
         -1    1    1    2    0  502  0.11749941567E+02 -0.30182786341E+02 -0.81943308748E+03  0.82007295199E+03  0.00000000000E+00 0. -1.
<mgrwt>
<rscale>  1 0.30000000E+03</rscale>
<asrwt>0</asrwt>
<pdfrwt beam="1">  1       21 0.68126723E-02 0.30000000E+03</pdfrwt>
<pdfrwt beam="2">0</pdfrwt>
<totfact> 0.16914418E+04</totfact>
</mgrwt>
</event>
<event>
 6    1  0.6513574E-002  0.3000000E+03  0.7818608E-02  0.1093470E+00
         21   -1    0    0  501  502  0.00000000000E+00  0.00000000000E+00  0.16519836717E+01  0.16519836717E+01  0.00000000000E+00 0. -1.
         13   -1    0    0    0    0 -0.00000000000E+00 -0.00000000000E+00 -0.10000000000E+04  0.10000000000E+04  0.00000000000E+00 0.  1.
    9000005    2    1    2  501    0 -0.19721690520E+01  0.38089005152E+02 -0.32929369829E+03  0.33151144449E+03  0.32918585065E+01 0.  0.
         13    1    3    3    0    0 -0.11640154702E+00  0.35158008345E+01 -0.39647817013E+02  0.39803565151E+02  0.00000000000E+00 0.  1.
          3    1    3    3  501    0 -0.18557675050E+01  0.34573204317E+02 -0.28964588127E+03  0.29170787934E+03  0.00000000000E+00 0.  1.
         -3    1    1    2    0  502  0.19721690520E+01 -0.38089005152E+02 -0.66905431804E+03  0.67014053918E+03  0.00000000000E+00 0. -1.
<mgrwt>
<rscale>  1 0.30000000E+03</rscale>
<asrwt>0</asrwt>
<pdfrwt beam="1">  1       21 0.60072260E-02 0.30000000E+03</pdfrwt>
<pdfrwt beam="2">0</pdfrwt>
<totfact> 0.21027969E+04</totfact>
</mgrwt>
</event>
<event>
 6    1  0.6513574E-002  0.3000000E+03  0.7818608E-02  0.1093470E+00
         21   -1    0    0  501  502  0.00000000000E+00  0.00000000000E+00  0.15975080116E+01  0.15975080116E+01  0.00000000000E+00 0. -1.
         13   -1    0    0    0    0 -0.00000000000E+00 -0.00000000000E+00 -0.10000000000E+04  0.10000000000E+04  0.00000000000E+00 0.  1.
    9000005    2    1    2  501    0  0.32038455318E+02  0.21332290605E+02 -0.63165502375E+03  0.63283574928E+03  0.33892919396E+01 0.  0.
         13    1    3    3    0    0  0.27842796101E+02  0.17084601803E+02 -0.53664070531E+03  0.53763403120E+03  0.00000000000E+00 0.  1.
          1    1    3    3  501    0  0.41956592168E+01  0.42476888020E+01 -0.95014318443E+02  0.95201718081E+02  0.00000000000E+00 0.  1.
         -3    1    1    2    0  502 -0.32038455318E+02 -0.21332290605E+02 -0.36674746824E+03  0.36876175873E+03  0.00000000000E+00 0. -1.
<mgrwt>
<rscale>  1 0.30000000E+03</rscale>
<asrwt>0</asrwt>
<pdfrwt beam="1">  1       21 0.58091323E-02 0.30000000E+03</pdfrwt>
<pdfrwt beam="2">0</pdfrwt>
<totfact> 0.22279122E+04</totfact>
</mgrwt>
</event>
<event>
 6    1  0.6513574E-002  0.3000000E+03  0.7818608E-02  0.1093470E+00
         21   -1    0    0  501  502  0.00000000000E+00  0.00000000000E+00  0.33925374334E+01  0.33925374334E+01  0.00000000000E+00 0. -1.
         13   -1    0    0    0    0 -0.00000000000E+00 -0.00000000000E+00 -0.10000000000E+04  0.10000000000E+04  0.00000000000E+00 0.  1.
    9000005    2    1    2  501    0 -0.14326600915E+02 -0.45088014511E+02 -0.79067395285E+03  0.79209466482E+03  0.32369393044E+01 0.  0.
         13    1    3    3    0    0 -0.13215604025E+02 -0.39756488888E+02 -0.68413918336E+03  0.68542078522E+03  0.00000000000E+00 0.  1.
          3    1    3    3  501    0 -0.11109968895E+01 -0.53315256232E+01 -0.10653476949E+03  0.10667387960E+03  0.00000000000E+00 0.  1.
         -1    1    1    2    0  502  0.14326600915E+02  0.45088014511E+02 -0.20593350971E+03  0.21129787261E+03  0.00000000000E+00 0. -1.
<mgrwt>
<rscale>  1 0.30000000E+03</rscale>
<asrwt>0</asrwt>
<pdfrwt beam="1">  1       21 0.12336526E-01 0.30000000E+03</pdfrwt>
<pdfrwt beam="2">0</pdfrwt>
<totfact> 0.58932611E+03</totfact>
</mgrwt>
</event>
<event>
 6    1  0.6513574E-002  0.3000000E+03  0.7818608E-02  0.1093470E+00
         21   -1    0    0  501  502  0.00000000000E+00  0.00000000000E+00  0.14834593592E+01  0.14834593592E+01  0.00000000000E+00 0. -1.
         13   -1    0    0    0    0 -0.00000000000E+00 -0.00000000000E+00 -0.10000000000E+04  0.10000000000E+04  0.00000000000E+00 0.  1.
    9000005    2    1    2  501    0 -0.20678550494E+02 -0.30805340620E+02 -0.39163158477E+03  0.39346543239E+03  0.79483855263E+01 0.  0.
         13    1    3    3    0    0 -0.18090950184E+02 -0.27570615294E+02 -0.31484721857E+03  0.31656941158E+03  0.00000000000E+00 0.  1.
          1    1    3    3  501    0 -0.25876003098E+01 -0.32347253262E+01 -0.76784366201E+02  0.76896020808E+02  0.00000000000E+00 0.  1.
         -3    1    1    2    0  502  0.20678550494E+02  0.30805340620E+02 -0.60688495587E+03  0.60801802697E+03  0.00000000000E+00 0. -1.
<mgrwt>
<rscale>  1 0.30000000E+03</rscale>
<asrwt>0</asrwt>
<pdfrwt beam="1">  1       21 0.53944090E-02 0.30000000E+03</pdfrwt>
<pdfrwt beam="2">0</pdfrwt>
<totfact> 0.25300731E+04</totfact>
</mgrwt>
</event>
<event>
 6    1  0.6513574E-002  0.3000000E+03  0.7818608E-02  0.1093470E+00
         21   -1    0    0  501  502  0.00000000000E+00  0.00000000000E+00  0.30508356518E+01  0.30508356518E+01  0.00000000000E+00 0. -1.
         13   -1    0    0    0    0 -0.00000000000E+00 -0.00000000000E+00 -0.10000000000E+04  0.10000000000E+04  0.00000000000E+00 0.  1.
    9000005    2    1    2  501    0 -0.84109369882E+01  0.32536911745E+02 -0.10128136087E+03  0.10675277771E+03  0.29743909772E+01 0.  0.
         13    1    3    3    0    0 -0.84798316406E+00  0.83028011633E+01 -0.24270864758E+02  0.25665744850E+02  0.00000000000E+00 0.  1.
          1    1    3    3  501    0 -0.75629538241E+01  0.24234110582E+02 -0.77010496112E+02  0.81087032858E+02  0.00000000000E+00 0.  1.
         -3    1    1    2    0  502  0.84109369882E+01 -0.32536911745E+02 -0.89566780348E+03  0.89629805794E+03  0.00000000000E+00 0. -1.
<mgrwt>
<rscale>  1 0.30000000E+03</rscale>
<asrwt>0</asrwt>
<pdfrwt beam="1">  1       21 0.11093971E-01 0.30000000E+03</pdfrwt>
<pdfrwt beam="2">0</pdfrwt>
<totfact> 0.71418396E+03</totfact>
</mgrwt>
</event>
<event>
 6    1  0.6513574E-002  0.3000000E+03  0.7818608E-02  0.1093470E+00
         21   -1    0    0  501  502  0.00000000000E+00  0.00000000000E+00  0.12574315058E+01  0.12574315058E+01  0.00000000000E+00 0. -1.
         13   -1    0    0    0    0 -0.00000000000E+00 -0.00000000000E+00 -0.10000000000E+04  0.10000000000E+04  0.00000000000E+00 0.  1.
    9000005    2    1    2  501    0  0.36266143279E+01  0.35075667106E+02 -0.46034115268E+03  0.46170248592E+03  0.34283961758E+01 0.  0.
         13    1    3    3    0    0  0.20404407135E+01  0.30592629894E+02 -0.40266490400E+03  0.40383053044E+03  0.00000000000E+00 0.  1.
          1    1    3    3  501    0  0.15861736144E+01  0.44830372121E+01 -0.57676248674E+02  0.57871955475E+02  0.00000000000E+00 0.  1.
         -1    1    1    2    0  502 -0.36266143279E+01 -0.35075667106E+02 -0.53840141582E+03  0.53955494559E+03  0.00000000000E+00 0. -1.
<mgrwt>
<rscale>  1 0.30000000E+03</rscale>
<asrwt>0</asrwt>
<pdfrwt beam="1">  1       21 0.45724878E-02 0.30000000E+03</pdfrwt>
<pdfrwt beam="2">0</pdfrwt>
<totfact> 0.33535808E+04</totfact>
</mgrwt>
</event>
<event>
 6    1  0.6513574E-002  0.3000000E+03  0.7818608E-02  0.1093470E+00
         21   -1    0    0  501  502  0.00000000000E+00  0.00000000000E+00  0.23280180781E+01  0.23280180781E+01  0.00000000000E+00 0. -1.
         13   -1    0    0    0    0 -0.00000000000E+00 -0.00000000000E+00 -0.10000000000E+04  0.10000000000E+04  0.00000000000E+00 0.  1.
    9000005    2    1    2  501    0 -0.35167084050E+02  0.30879264212E+02 -0.37934221781E+03  0.38222967915E+03  0.29591634975E+01 0.  0.
         13    1    3    3    0    0 -0.17951199526E+02  0.15929233690E+02 -0.20652233211E+03  0.20791214421E+03  0.00000000000E+00 0.  1.
          3    1    3    3  501    0 -0.17215884524E+02  0.14950030522E+02 -0.17281988570E+03  0.17431753494E+03  0.00000000000E+00 0.  1.
         -3    1    1    2    0  502  0.35167084050E+02 -0.30879264212E+02 -0.61832976411E+03  0.62009833893E+03  0.00000000000E+00 0. -1.
<mgrwt>
<rscale>  1 0.30000000E+03</rscale>
<asrwt>0</asrwt>
<pdfrwt beam="1">  1       21 0.84655381E-02 0.30000000E+03</pdfrwt>
<pdfrwt beam="2">0</pdfrwt>
<totfact> 0.11563795E+04</totfact>
</mgrwt>
</event>
<event>
 6    1  0.6513574E-002  0.3000000E+03  0.7818608E-02  0.1093470E+00
         21   -1    0    0  501  502  0.00000000000E+00  0.00000000000E+00  0.16565769905E+01  0.16565769905E+01  0.00000000000E+00 0. -1.
         13   -1    0    0    0    0 -0.00000000000E+00 -0.00000000000E+00 -0.10000000000E+04  0.10000000000E+04  0.00000000000E+00 0.  1.
    9000005    2    1    2  501    0  0.33551729725E+02  0.18163868997E+02 -0.67209432723E+03  0.67318417754E+03  0.32415258042E+01 0.  0.
         13    1    3    3    0    0  0.20718285971E+02  0.97622423371E+01 -0.41892357634E+03  0.41954917658E+03  0.00000000000E+00 0.  1.
          1    1    3    3  501    0  0.12833443754E+02  0.84016266600E+01 -0.25317075089E+03  0.25363500096E+03  0.00000000000E+00 0.  1.
         -1    1    1    2    0  502 -0.33551729725E+02 -0.18163868997E+02 -0.32624909578E+03  0.32847239945E+03  0.00000000000E+00 0. -1.
<mgrwt>
<rscale>  1 0.30000000E+03</rscale>
<asrwt>0</asrwt>
<pdfrwt beam="1">  1       21 0.60239290E-02 0.30000000E+03</pdfrwt>
<pdfrwt beam="2">0</pdfrwt>
<totfact> 0.20927503E+04</totfact>
</mgrwt>
</event>
<event>
 6    1  0.6513574E-002  0.3000000E+03  0.7818608E-02  0.1093470E+00
         21   -1    0    0  501  502  0.00000000000E+00  0.00000000000E+00  0.10307567820E+01  0.10307567820E+01  0.00000000000E+00 0. -1.
         13   -1    0    0    0    0 -0.00000000000E+00 -0.00000000000E+00 -0.10000000000E+04  0.10000000000E+04  0.00000000000E+00 0.  1.
    9000005    2    1    2  501    0  0.14762105366E+02  0.26191417302E+02 -0.32878710558E+03  0.33017458166E+03  0.32223409484E+01 0.  0.
         13    1    3    3    0    0  0.53249000311E+01  0.12053802296E+02 -0.15411929272E+03  0.15468162496E+03  0.00000000000E+00 0.  1.
          1    1    3    3  501    0  0.94372053346E+01  0.14137615006E+02 -0.17466781286E+03  0.17549295670E+03  0.00000000000E+00 0.  1.
         -1    1    1    2    0  502 -0.14762105366E+02 -0.26191417302E+02 -0.67018213764E+03  0.67085617513E+03  0.00000000000E+00 0. -1.
<mgrwt>
<rscale>  1 0.30000000E+03</rscale>
<asrwt>0</asrwt>
<pdfrwt beam="1">  1       21 0.37482144E-02 0.30000000E+03</pdfrwt>
<pdfrwt beam="2">0</pdfrwt>
<totfact> 0.46904773E+04</totfact>
</mgrwt>
</event>
<event>
 6    1  0.6513574E-002  0.3000000E+03  0.7818608E-02  0.1093470E+00
         21   -1    0    0  501  502  0.00000000000E+00  0.00000000000E+00  0.18236055583E+01  0.18236055583E+01  0.00000000000E+00 0. -1.
         13   -1    0    0    0    0 -0.00000000000E+00 -0.00000000000E+00 -0.10000000000E+04  0.10000000000E+04  0.00000000000E+00 0.  1.
    9000005    2    1    2  501    0 -0.44350450916E+00 -0.38747875395E+02 -0.29178763408E+03  0.29437277666E+03  0.37032003093E+01 0.  0.
         13    1    3    3    0    0  0.14232675024E+01 -0.89086650461E+01 -0.65186480360E+02  0.65807805198E+02  0.00000000000E+00 0.  1.
          3    1    3    3  501    0 -0.18667720115E+01 -0.29839210349E+02 -0.22660115372E+03  0.22856497146E+03  0.00000000000E+00 0.  1.
         -1    1    1    2    0  502  0.44350450916E+00  0.38747875395E+02 -0.70638876036E+03  0.70745082890E+03  0.00000000000E+00 0. -1.
<mgrwt>
<rscale>  1 0.30000000E+03</rscale>
<asrwt>0</asrwt>
<pdfrwt beam="1">  1       21 0.66313069E-02 0.30000000E+03</pdfrwt>
<pdfrwt beam="2">0</pdfrwt>
<totfact> 0.17725134E+04</totfact>
</mgrwt>
</event>
<event>
 6    1  0.6513574E-002  0.3000000E+03  0.7818608E-02  0.1093470E+00
         21   -1    0    0  501  502  0.00000000000E+00  0.00000000000E+00  0.10159143529E+02  0.10159143529E+02  0.00000000000E+00 0. -1.
         13   -1    0    0    0    0 -0.00000000000E+00 -0.00000000000E+00 -0.10000000000E+04  0.10000000000E+04  0.00000000000E+00 0.  1.
    9000005    2    1    2  501    0 -0.73994201067E+02  0.67959446210E+02 -0.45732257791E+03  0.46824647056E+03  0.41459385330E+01 0.  0.
         13    1    3    3    0    0 -0.42866074666E+02  0.36754197985E+02 -0.25347355335E+03  0.25968676068E+03  0.00000000000E+00 0.  1.
          3    1    3    3  501    0 -0.31128126401E+02  0.31205248225E+02 -0.20384902456E+03  0.20855970988E+03  0.00000000000E+00 0.  1.
         -3    1    1    2    0  502  0.73994201067E+02 -0.67959446210E+02 -0.53251827856E+03  0.54191267297E+03  0.00000000000E+00 0. -1.
<mgrwt>
<rscale>  1 0.30000000E+03</rscale>
<asrwt>0</asrwt>
<pdfrwt beam="1">  1       21 0.36942418E-01 0.30000000E+03</pdfrwt>
<pdfrwt beam="2">0</pdfrwt>
<totfact> 0.71228331E+02</totfact>
</mgrwt>
</event>
<event>
 6    1  0.6513574E-002  0.3000000E+03  0.7818608E-02  0.1093470E+00
         21   -1    0    0  501  502  0.00000000000E+00  0.00000000000E+00  0.11191211305E+01  0.11191211305E+01  0.00000000000E+00 0. -1.
         13   -1    0    0    0    0 -0.00000000000E+00 -0.00000000000E+00 -0.10000000000E+04  0.10000000000E+04  0.00000000000E+00 0.  1.
    9000005    2    1    2  501    0 -0.28288347841E+02  0.16137291626E+02 -0.39238371157E+03  0.39374818279E+03  0.34657663403E+01 0.  0.
         13    1    3    3    0    0 -0.22302817058E+01  0.15506795089E+01 -0.45707071345E+02  0.45787718161E+02  0.00000000000E+00 0.  1.
          3    1    3    3  501    0 -0.26058066135E+02  0.14586612117E+02 -0.34667664023E+03  0.34796046463E+03  0.00000000000E+00 0.  1.
         -3    1    1    2    0  502  0.28288347841E+02 -0.16137291626E+02 -0.60649716730E+03  0.60737093834E+03  0.00000000000E+00 0. -1.
<mgrwt>
<rscale>  1 0.30000000E+03</rscale>
<asrwt>0</asrwt>
<pdfrwt beam="1">  1       21 0.40695400E-02 0.30000000E+03</pdfrwt>
<pdfrwt beam="2">0</pdfrwt>
<totfact> 0.40843901E+04</totfact>
</mgrwt>
</event>
<event>
 6    1  0.6513574E-002  0.3000000E+03  0.7818608E-02  0.1093470E+00
         21   -1    0    0  501  502  0.00000000000E+00  0.00000000000E+00  0.10641887258E+01  0.10641887258E+01  0.00000000000E+00 0. -1.
         13   -1    0    0    0    0 -0.00000000000E+00 -0.00000000000E+00 -0.10000000000E+04  0.10000000000E+04  0.00000000000E+00 0.  1.
    9000005    2    1    2  501    0 -0.20357535761E+02  0.25357119818E+02 -0.47007541104E+03  0.47120502279E+03  0.24225301947E+01 0.  0.
         13    1    3    3    0    0 -0.11669112886E+02  0.13965497433E+02 -0.27947650408E+03  0.28006841958E+03  0.00000000000E+00 0.  1.
          1    1    3    3  501    0 -0.86884228749E+01  0.11391622386E+02 -0.19059890696E+03  0.19113660321E+03  0.00000000000E+00 0.  1.
         -1    1    1    2    0  502  0.20357535761E+02 -0.25357119818E+02 -0.52886040024E+03  0.52985916593E+03  0.00000000000E+00 0. -1.
<mgrwt>
<rscale>  1 0.30000000E+03</rscale>
<asrwt>0</asrwt>
<pdfrwt beam="1">  1       21 0.38697853E-02 0.30000000E+03</pdfrwt>
<pdfrwt beam="2">0</pdfrwt>
<totfact> 0.44455335E+04</totfact>
</mgrwt>
</event>
<event>
 6    1  0.6513574E-002  0.3000000E+03  0.7818608E-02  0.1093470E+00
         21   -1    0    0  501  502  0.00000000000E+00  0.00000000000E+00  0.10727733977E+01  0.10727733977E+01  0.00000000000E+00 0. -1.
         13   -1    0    0    0    0 -0.00000000000E+00 -0.00000000000E+00 -0.10000000000E+04  0.10000000000E+04  0.00000000000E+00 0.  1.
    9000005    2    1    2  501    0  0.22151331525E+01 -0.32461524333E+02 -0.47185250708E+03  0.47299473245E+03  0.45355381385E+01 0.  0.
         13    1    3    3    0    0  0.20916298523E+01 -0.17302880066E+02 -0.22226619491E+03  0.22294848278E+03  0.00000000000E+00 0.  1.
          3    1    3    3  501    0  0.12350330020E+00 -0.15158644267E+02 -0.24958631217E+03  0.25004624967E+03  0.00000000000E+00 0.  1.
         -1    1    1    2    0  502 -0.22151331525E+01  0.32461524333E+02 -0.52707471952E+03  0.52807804095E+03  0.00000000000E+00 0. -1.
<mgrwt>
<rscale>  1 0.30000000E+03</rscale>
<asrwt>0</asrwt>
<pdfrwt beam="1">  1       21 0.39010024E-02 0.30000000E+03</pdfrwt>
<pdfrwt beam="2">0</pdfrwt>
<totfact> 0.43858705E+04</totfact>
</mgrwt>
</event>
<event>
 6    1  0.6513574E-002  0.3000000E+03  0.7818608E-02  0.1093470E+00
         21   -1    0    0  501  502  0.00000000000E+00  0.00000000000E+00  0.11472799335E+01  0.11472799335E+01  0.00000000000E+00 0. -1.
         13   -1    0    0    0    0 -0.00000000000E+00 -0.00000000000E+00 -0.10000000000E+04  0.10000000000E+04  0.00000000000E+00 0.  1.
    9000005    2    1    2  501    0 -0.15141073908E+02 -0.28071874933E+02 -0.33692056393E+03  0.33844715046E+03  0.37047229134E+01 0.  0.
         13    1    3    3    0    0 -0.35603294497E+01 -0.57537547873E+01 -0.88076452718E+02  0.88335967552E+02  0.00000000000E+00 0.  1.
          1    1    3    3  501    0 -0.11580744458E+02 -0.22318120146E+02 -0.24884411122E+03  0.25011118291E+03  0.00000000000E+00 0.  1.
         -3    1    1    2    0  502  0.15141073908E+02  0.28071874933E+02 -0.66193215613E+03  0.66270012947E+03  0.00000000000E+00 0. -1.
<mgrwt>
<rscale>  1 0.30000000E+03</rscale>
<asrwt>0</asrwt>
<pdfrwt beam="1">  1       21 0.41719358E-02 0.30000000E+03</pdfrwt>
<pdfrwt beam="2">0</pdfrwt>
<totfact> 0.39167290E+04</totfact>
</mgrwt>
</event>
<event>
 6    1  0.6513574E-002  0.3000000E+03  0.7818608E-02  0.1093470E+00
         21   -1    0    0  501  502  0.00000000000E+00  0.00000000000E+00  0.40183258764E+01  0.40183258764E+01  0.00000000000E+00 0. -1.
         13   -1    0    0    0    0 -0.00000000000E+00 -0.00000000000E+00 -0.10000000000E+04  0.10000000000E+04  0.00000000000E+00 0.  1.
    9000005    2    1    2  501    0 -0.15733777908E+02 -0.43822281084E+02 -0.15794277112E+03  0.16468695685E+03  0.28161534624E+01 0.  0.
         13    1    3    3    0    0 -0.73812074249E+01 -0.21353605156E+02 -0.81520898973E+02  0.84593827468E+02  0.00000000000E+00 0.  1.
          3    1    3    3  501    0 -0.83525704832E+01 -0.22468675928E+02 -0.76421872149E+02  0.80093129383E+02  0.00000000000E+00 0.  1.
         -3    1    1    2    0  502  0.15733777908E+02  0.43822281084E+02 -0.83803890300E+03  0.83933136903E+03  0.00000000000E+00 0. -1.
<mgrwt>
<rscale>  1 0.30000000E+03</rscale>
<asrwt>0</asrwt>
<pdfrwt beam="1">  1       21 0.14612125E-01 0.30000000E+03</pdfrwt>
<pdfrwt beam="2">0</pdfrwt>
<totfact> 0.43223239E+03</totfact>
</mgrwt>
</event>
<event>
 6    1  0.6513574E-002  0.3000000E+03  0.7818608E-02  0.1093470E+00
         21   -1    0    0  501  502  0.00000000000E+00  0.00000000000E+00  0.22002686446E+01  0.22002686446E+01  0.00000000000E+00 0. -1.
         13   -1    0    0    0    0 -0.00000000000E+00 -0.00000000000E+00 -0.10000000000E+04  0.10000000000E+04  0.00000000000E+00 0.  1.
    9000005    2    1    2  501    0 -0.37809560454E+02  0.16927903269E+02 -0.26575559325E+03  0.26898492721E+03  0.32770345338E+01 0.  0.
         13    1    3    3    0    0 -0.29571689182E+02  0.11761110329E+02 -0.20557926483E+03  0.20802798524E+03  0.00000000000E+00 0.  1.
          1    1    3    3  501    0 -0.82378712716E+01  0.51667929399E+01 -0.60176328421E+02  0.60956941973E+02  0.00000000000E+00 0.  1.
         -1    1    1    2    0  502  0.37809560454E+02 -0.16927903269E+02 -0.73204413811E+03  0.73321534143E+03  0.00000000000E+00 0. -1.
<mgrwt>
<rscale>  1 0.30000000E+03</rscale>
<asrwt>0</asrwt>
<pdfrwt beam="1">  1       21 0.80009938E-02 0.30000000E+03</pdfrwt>
<pdfrwt beam="2">0</pdfrwt>
<totfact> 0.12771082E+04</totfact>
</mgrwt>
</event>
<event>
 6    1  0.6513574E-002  0.3000000E+03  0.7818608E-02  0.1093470E+00
         21   -1    0    0  501  502  0.00000000000E+00  0.00000000000E+00  0.16240978393E+01  0.16240978393E+01  0.00000000000E+00 0. -1.
         13   -1    0    0    0    0 -0.00000000000E+00 -0.00000000000E+00 -0.10000000000E+04  0.10000000000E+04  0.00000000000E+00 0.  1.
    9000005    2    1    2  501    0 -0.53396922147E+01 -0.38375172455E+02 -0.36466969671E+03  0.36673456335E+03  0.30143133398E+01 0.  0.
         13    1    3    3    0    0 -0.19422817994E+01 -0.99492949931E+01 -0.84424280294E+02  0.85030700530E+02  0.00000000000E+00 0.  1.
          1    1    3    3  501    0 -0.33974104152E+01 -0.28425877462E+02 -0.28024541641E+03  0.28170386282E+03  0.00000000000E+00 0.  1.
         -1    1    1    2    0  502  0.53396922147E+01  0.38375172455E+02 -0.63370620545E+03  0.63488953449E+03  0.00000000000E+00 0. -1.
<mgrwt>
<rscale>  1 0.30000000E+03</rscale>
<asrwt>0</asrwt>
<pdfrwt beam="1">  1       21 0.59058228E-02 0.30000000E+03</pdfrwt>
<pdfrwt beam="2">0</pdfrwt>
<totfact> 0.21654342E+04</totfact>
</mgrwt>
</event>
<event>
 6    1  0.6513574E-002  0.3000000E+03  0.7818608E-02  0.1093470E+00
         21   -1    0    0  501  502  0.00000000000E+00  0.00000000000E+00  0.20701509942E+01  0.20701509942E+01  0.00000000000E+00 0. -1.
         13   -1    0    0    0    0 -0.00000000000E+00 -0.00000000000E+00 -0.10000000000E+04  0.10000000000E+04  0.00000000000E+00 0.  1.
    9000005    2    1    2  501    0  0.16214735233E+02 -0.40452108645E+02 -0.35798810606E+03  0.36064616868E+03  0.32991158612E+01 0.  0.
         13    1    3    3    0    0  0.16296290690E+02 -0.39860704997E+02 -0.35079216936E+03  0.35342550980E+03  0.00000000000E+00 0.  1.
          1    1    3    3  501    0 -0.81555456355E-01 -0.59140364781E+00 -0.71959367021E+01  0.72206588749E+01  0.00000000000E+00 0.  1.
         -1    1    1    2    0  502 -0.16214735233E+02  0.40452108645E+02 -0.63994174294E+03  0.64142398232E+03  0.00000000000E+00 0. -1.
<mgrwt>
<rscale>  1 0.30000000E+03</rscale>
<asrwt>0</asrwt>
<pdfrwt beam="1">  1       21 0.75278377E-02 0.30000000E+03</pdfrwt>
<pdfrwt beam="2">0</pdfrwt>
<totfact> 0.14211968E+04</totfact>
</mgrwt>
</event>
<event>
 6    1  0.6513574E-002  0.3000000E+03  0.7818608E-02  0.1093470E+00
         21   -1    0    0  501  502  0.00000000000E+00  0.00000000000E+00  0.43238133637E+01  0.43238133637E+01  0.00000000000E+00 0. -1.
         13   -1    0    0    0    0 -0.00000000000E+00 -0.00000000000E+00 -0.10000000000E+04  0.10000000000E+04  0.00000000000E+00 0.  1.
    9000005    2    1    2  501    0 -0.55382265468E+02 -0.35091291278E+02 -0.53057991324E+03  0.53462908529E+03  0.38236701796E+01 0.  0.
         13    1    3    3    0    0 -0.39695006465E+02 -0.23338468380E+02 -0.37895979055E+03  0.38174716829E+03  0.00000000000E+00 0.  1.
          3    1    3    3  501    0 -0.15687259003E+02 -0.11752822898E+02 -0.15162012269E+03  0.15288191700E+03  0.00000000000E+00 0.  1.
         -1    1    1    2    0  502  0.55382265468E+02  0.35091291278E+02 -0.46509627340E+03  0.46969472807E+03  0.00000000000E+00 0. -1.
<mgrwt>
<rscale>  1 0.30000000E+03</rscale>
<asrwt>0</asrwt>
<pdfrwt beam="1">  1       21 0.15722991E-01 0.30000000E+03</pdfrwt>
<pdfrwt beam="2">0</pdfrwt>
<totfact> 0.37734493E+03</totfact>
</mgrwt>
</event>
<event>
 6    1  0.6513574E-002  0.3000000E+03  0.7818608E-02  0.1093470E+00
         21   -1    0    0  501  502  0.00000000000E+00  0.00000000000E+00  0.18208063265E+01  0.18208063265E+01  0.00000000000E+00 0. -1.
         13   -1    0    0    0    0 -0.00000000000E+00 -0.00000000000E+00 -0.10000000000E+04  0.10000000000E+04  0.00000000000E+00 0.  1.
    9000005    2    1    2  501    0  0.24819860623E+02 -0.34555272806E+02 -0.47402424639E+03  0.47594201694E+03  0.34241740146E+01 0.  0.
         13    1    3    3    0    0  0.44207104338E+01 -0.73433799885E+01 -0.10932788043E+03  0.10966336376E+03  0.00000000000E+00 0.  1.
          3    1    3    3  501    0  0.20399150189E+02 -0.27211892818E+02 -0.36469636595E+03  0.36627865319E+03  0.00000000000E+00 0.  1.
         -3    1    1    2    0  502 -0.24819860623E+02  0.34555272806E+02 -0.52415494729E+03  0.52587878938E+03  0.00000000000E+00 0. -1.
<mgrwt>
<rscale>  1 0.30000000E+03</rscale>
<asrwt>0</asrwt>
<pdfrwt beam="1">  1       21 0.66211279E-02 0.30000000E+03</pdfrwt>
<pdfrwt beam="2">0</pdfrwt>
<totfact> 0.17772397E+04</totfact>
</mgrwt>
</event>
<event>
 6    1  0.6513574E-002  0.3000000E+03  0.7818608E-02  0.1093470E+00
         21   -1    0    0  501  502  0.00000000000E+00  0.00000000000E+00  0.26949217924E+01  0.26949217924E+01  0.00000000000E+00 0. -1.
         13   -1    0    0    0    0 -0.00000000000E+00 -0.00000000000E+00 -0.10000000000E+04  0.10000000000E+04  0.00000000000E+00 0.  1.
    9000005    2    1    2  501    0  0.41993649905E+02  0.59265245165E+01 -0.21114397072E+03  0.21539073836E+03  0.35781942897E+01 0.  0.
         13    1    3    3    0    0  0.27990623944E+02  0.53183758656E+01 -0.13638824703E+03  0.13933238704E+03  0.00000000000E+00 0.  1.
          3    1    3    3  501    0  0.14003025961E+02  0.60814865091E+00 -0.74755723691E+02  0.76058351319E+02  0.00000000000E+00 0.  1.
         -1    1    1    2    0  502 -0.41993649905E+02 -0.59265245165E+01 -0.78616110749E+03  0.78730418343E+03  0.00000000000E+00 0. -1.
<mgrwt>
<rscale>  1 0.30000000E+03</rscale>
<asrwt>0</asrwt>
<pdfrwt beam="1">  1       21 0.97997363E-02 0.30000000E+03</pdfrwt>
<pdfrwt beam="2">0</pdfrwt>
<totfact> 0.89196775E+03</totfact>
</mgrwt>
</event>
<event>
 6    1  0.6513574E-002  0.3000000E+03  0.7818608E-02  0.1093470E+00
         21   -1    0    0  501  502  0.00000000000E+00  0.00000000000E+00  0.15821456140E+01  0.15821456140E+01  0.00000000000E+00 0. -1.
         13   -1    0    0    0    0 -0.00000000000E+00 -0.00000000000E+00 -0.10000000000E+04  0.10000000000E+04  0.00000000000E+00 0.  1.
    9000005    2    1    2  501    0  0.26772008464E+02 -0.16190909175E+02 -0.80788459292E+03  0.80849716510E+03  0.33562645708E+01 0.  0.
         13    1    3    3    0    0  0.89581076164E+01 -0.37253328884E+01 -0.23534941150E+03  0.23554929694E+03  0.00000000000E+00 0.  1.
          1    1    3    3  501    0  0.17813900848E+02 -0.12465576287E+02 -0.57253518142E+03  0.57294786816E+03  0.00000000000E+00 0.  1.
         -1    1    1    2    0  502 -0.26772008464E+02  0.16190909175E+02 -0.19053326146E+03  0.19308498052E+03  0.00000000000E+00 0. -1.
<mgrwt>
<rscale>  1 0.30000000E+03</rscale>
<asrwt>0</asrwt>
<pdfrwt beam="1">  1       21 0.57532689E-02 0.30000000E+03</pdfrwt>
<pdfrwt beam="2">0</pdfrwt>
<totfact> 0.22652865E+04</totfact>
</mgrwt>
</event>
<event>
 6    1  0.6513574E-002  0.3000000E+03  0.7818608E-02  0.1093470E+00
         21   -1    0    0  501  502  0.00000000000E+00  0.00000000000E+00  0.11200545079E+01  0.11200545079E+01  0.00000000000E+00 0. -1.
         13   -1    0    0    0    0 -0.00000000000E+00 -0.00000000000E+00 -0.10000000000E+04  0.10000000000E+04  0.00000000000E+00 0.  1.
    9000005    2    1    2  501    0  0.34744560173E+01 -0.30273003476E+02 -0.29723327638E+03  0.29881202034E+03  0.35321843864E+01 0.  0.
         13    1    3    3    0    0  0.22155979392E+01 -0.19676801902E+02 -0.20897585409E+03  0.20991186961E+03  0.00000000000E+00 0.  1.
          1    1    3    3  501    0  0.12588580781E+01 -0.10596201574E+02 -0.88257422286E+02  0.88900150731E+02  0.00000000000E+00 0.  1.
         -1    1    1    2    0  502 -0.34744560173E+01  0.30273003476E+02 -0.70164666911E+03  0.70230803417E+03  0.00000000000E+00 0. -1.
<mgrwt>
<rscale>  1 0.30000000E+03</rscale>
<asrwt>0</asrwt>
<pdfrwt beam="1">  1       21 0.40729341E-02 0.30000000E+03</pdfrwt>
<pdfrwt beam="2">0</pdfrwt>
<totfact> 0.40786545E+04</totfact>
</mgrwt>
</event>
<event>
 6    1  0.6513574E-002  0.3000000E+03  0.7818608E-02  0.1093470E+00
         21   -1    0    0  501  502  0.00000000000E+00  0.00000000000E+00  0.22788558837E+01  0.22788558837E+01  0.00000000000E+00 0. -1.
         13   -1    0    0    0    0 -0.00000000000E+00 -0.00000000000E+00 -0.10000000000E+04  0.10000000000E+04  0.00000000000E+00 0.  1.
    9000005    2    1    2  501    0  0.29649148205E+02  0.80913526060E+01 -0.11689341142E+03  0.12091511902E+03  0.34430215332E+01 0.  0.
         13    1    3    3    0    0  0.24983701479E+02  0.67822657916E+01 -0.10289839112E+03  0.10610496390E+03  0.00000000000E+00 0.  1.
          3    1    3    3  501    0  0.46654467257E+01  0.13090868145E+01 -0.13995020302E+02  0.14810155121E+02  0.00000000000E+00 0.  1.
         -3    1    1    2    0  502 -0.29649148205E+02 -0.80913526060E+01 -0.88082773270E+03  0.88136373687E+03  0.00000000000E+00 0. -1.
<mgrwt>
<rscale>  1 0.30000000E+03</rscale>
<asrwt>0</asrwt>
<pdfrwt beam="1">  1       21 0.82867661E-02 0.30000000E+03</pdfrwt>
<pdfrwt beam="2">0</pdfrwt>
<totfact> 0.12006845E+04</totfact>
</mgrwt>
</event>
<event>
 6    1  0.6513574E-002  0.3000000E+03  0.7818608E-02  0.1093470E+00
         21   -1    0    0  501  502  0.00000000000E+00  0.00000000000E+00  0.24688011572E+01  0.24688011572E+01  0.00000000000E+00 0. -1.
         13   -1    0    0    0    0 -0.00000000000E+00 -0.00000000000E+00 -0.10000000000E+04  0.10000000000E+04  0.00000000000E+00 0.  1.
    9000005    2    1    2  501    0  0.35425597201E+02  0.29447396860E+02 -0.31343171689E+03  0.31682004025E+03  0.36571348740E+01 0.  0.
         13    1    3    3    0    0  0.35177574199E+02  0.29422003526E+02 -0.31274496133E+03  0.31608942857E+03  0.00000000000E+00 0.  1.
          1    1    3    3  501    0  0.24802300200E+00  0.25393334147E-01 -0.68675556036E+00  0.73061168251E+00  0.00000000000E+00 0.  1.
         -1    1    1    2    0  502 -0.35425597201E+02 -0.29447396860E+02 -0.68409948196E+03  0.68564876091E+03  0.00000000000E+00 0. -1.
<mgrwt>
<rscale>  1 0.30000000E+03</rscale>
<asrwt>0</asrwt>
<pdfrwt beam="1">  1       21 0.89774777E-02 0.30000000E+03</pdfrwt>
<pdfrwt beam="2">0</pdfrwt>
<totfact> 0.10424256E+04</totfact>
</mgrwt>
</event>
<event>
 6    1  0.6513574E-002  0.3000000E+03  0.7818608E-02  0.1093470E+00
         21   -1    0    0  501  502  0.00000000000E+00  0.00000000000E+00  0.12066827102E+01  0.12066827102E+01  0.00000000000E+00 0. -1.
         13   -1    0    0    0    0 -0.00000000000E+00 -0.00000000000E+00 -0.10000000000E+04  0.10000000000E+04  0.00000000000E+00 0.  1.
    9000005    2    1    2  501    0  0.27957515723E+02  0.20207469294E+02 -0.49620747074E+03  0.49743838512E+03  0.57557341765E+01 0.  0.
         13    1    3    3    0    0  0.26002614589E+02  0.20270669107E+02 -0.47376359822E+03  0.47490944714E+03  0.00000000000E+00 0.  1.
          3    1    3    3  501    0  0.19549011337E+01 -0.63199812407E-01 -0.22443872525E+02  0.22528937981E+02  0.00000000000E+00 0.  1.
         -3    1    1    2    0  502 -0.27957515723E+02 -0.20207469294E+02 -0.50258584655E+03  0.50376829759E+03  0.00000000000E+00 0. -1.
<mgrwt>
<rscale>  1 0.30000000E+03</rscale>
<asrwt>0</asrwt>
<pdfrwt beam="1">  1       21 0.43879464E-02 0.30000000E+03</pdfrwt>
<pdfrwt beam="2">0</pdfrwt>
<totfact> 0.35963117E+04</totfact>
</mgrwt>
</event>
<event>
 6    1  0.6513574E-002  0.3000000E+03  0.7818608E-02  0.1093470E+00
         21   -1    0    0  501  502  0.00000000000E+00  0.00000000000E+00  0.10150964519E+01  0.10150964519E+01  0.00000000000E+00 0. -1.
         13   -1    0    0    0    0 -0.00000000000E+00 -0.00000000000E+00 -0.10000000000E+04  0.10000000000E+04  0.00000000000E+00 0.  1.
    9000005    2    1    2  501    0 -0.11189847646E+02 -0.29343332862E+02 -0.57609805488E+03  0.57696376624E+03  0.34604695306E+01 0.  0.
         13    1    3    3    0    0 -0.55079450392E+00 -0.25466051237E+00 -0.13743326473E+02  0.13756716509E+02  0.00000000000E+00 0.  1.
          3    1    3    3  501    0 -0.10639053142E+02 -0.29088672349E+02 -0.56235472840E+03  0.56320704973E+03  0.00000000000E+00 0.  1.
         -3    1    1    2    0  502  0.11189847646E+02  0.29343332862E+02 -0.42288684867E+03  0.42405133021E+03  0.00000000000E+00 0. -1.
<mgrwt>
<rscale>  1 0.30000000E+03</rscale>
<asrwt>0</asrwt>
<pdfrwt beam="1">  1       21 0.36912676E-02 0.30000000E+03</pdfrwt>
<pdfrwt beam="2">0</pdfrwt>
<totfact> 0.48125921E+04</totfact>
</mgrwt>
</event>
<event>
 6    1  0.6513574E-002  0.3000000E+03  0.7818608E-02  0.1093470E+00
         21   -1    0    0  501  502  0.00000000000E+00  0.00000000000E+00  0.21974248107E+01  0.21974248107E+01  0.00000000000E+00 0. -1.
         13   -1    0    0    0    0 -0.00000000000E+00 -0.00000000000E+00 -0.10000000000E+04  0.10000000000E+04  0.00000000000E+00 0.  1.
    9000005    2    1    2  501    0 -0.31579593739E+02  0.21950464321E+01 -0.12978850304E+03  0.13360631363E+03  0.18715104472E+01 0.  0.
         13    1    3    3    0    0 -0.21806617509E+02  0.12300079581E+01 -0.92900468135E+02  0.95433424263E+02  0.00000000000E+00 0.  1.
          3    1    3    3  501    0 -0.97729762300E+01  0.96503847397E+00 -0.36888034903E+02  0.38172889367E+02  0.00000000000E+00 0.  1.
         -3    1    1    2    0  502  0.31579593739E+02 -0.21950464321E+01 -0.86801407215E+03  0.86859111118E+03  0.00000000000E+00 0. -1.
<mgrwt>
<rscale>  1 0.30000000E+03</rscale>
<asrwt>0</asrwt>
<pdfrwt beam="1">  1       21 0.79906525E-02 0.30000000E+03</pdfrwt>
<pdfrwt beam="2">0</pdfrwt>
<totfact> 0.12800126E+04</totfact>
</mgrwt>
</event>
<event>
 6    1  0.6513574E-002  0.3000000E+03  0.7818608E-02  0.1093470E+00
         21   -1    0    0  501  502  0.00000000000E+00  0.00000000000E+00  0.92559820826E+00  0.92559820826E+00  0.00000000000E+00 0. -1.
         13   -1    0    0    0    0 -0.00000000000E+00 -0.00000000000E+00 -0.10000000000E+04  0.10000000000E+04  0.00000000000E+00 0.  1.
    9000005    2    1    2  501    0 -0.26391301744E+02  0.14634834456E+02 -0.44846273062E+03  0.44948757665E+03  0.30954195262E+01 0.  0.
         13    1    3    3    0    0 -0.19424974047E+02  0.97185233717E+01 -0.30598952723E+03  0.30675946617E+03  0.00000000000E+00 0.  1.
          1    1    3    3  501    0 -0.69663276978E+01  0.49163110841E+01 -0.14247320339E+03  0.14272811048E+03  0.00000000000E+00 0.  1.
         -1    1    1    2    0  502  0.26391301744E+02 -0.14634834456E+02 -0.55061167117E+03  0.55143802156E+03  0.00000000000E+00 0. -1.
<mgrwt>
<rscale>  1 0.30000000E+03</rscale>
<asrwt>0</asrwt>
<pdfrwt beam="1">  1       21 0.33658188E-02 0.30000000E+03</pdfrwt>
<pdfrwt beam="2">0</pdfrwt>
<totfact> 0.56171215E+04</totfact>
</mgrwt>
</event>
<event>
 6    1  0.6513574E-002  0.3000000E+03  0.7818608E-02  0.1093470E+00
         21   -1    0    0  501  502  0.00000000000E+00  0.00000000000E+00  0.10444885938E+01  0.10444885938E+01  0.00000000000E+00 0. -1.
         13   -1    0    0    0    0 -0.00000000000E+00 -0.00000000000E+00 -0.10000000000E+04  0.10000000000E+04  0.00000000000E+00 0.  1.
    9000005    2    1    2  501    0 -0.12052415775E+02  0.28495326548E+02 -0.63763867197E+03  0.63840540794E+03  0.45983179072E+01 0.  0.
         13    1    3    3    0    0 -0.49353265255E+01  0.15999745548E+02 -0.37446576489E+03  0.37483991033E+03  0.00000000000E+00 0.  1.
          3    1    3    3  501    0 -0.71170892498E+01  0.12495581000E+02 -0.26317290709E+03  0.26356549761E+03  0.00000000000E+00 0.  1.
         -1    1    1    2    0  502  0.12052415775E+02 -0.28495326548E+02 -0.36131683943E+03  0.36263908066E+03  0.00000000000E+00 0. -1.
<mgrwt>
<rscale>  1 0.30000000E+03</rscale>
<asrwt>0</asrwt>
<pdfrwt beam="1">  1       21 0.37981484E-02 0.30000000E+03</pdfrwt>
<pdfrwt beam="2">0</pdfrwt>
<totfact> 0.45873631E+04</totfact>
</mgrwt>
</event>
<event>
 6    1  0.6513574E-002  0.3000000E+03  0.7818608E-02  0.1093470E+00
         21   -1    0    0  501  502  0.00000000000E+00  0.00000000000E+00  0.95776903710E+00  0.95776903710E+00  0.00000000000E+00 0. -1.
         13   -1    0    0    0    0 -0.00000000000E+00 -0.00000000000E+00 -0.10000000000E+04  0.10000000000E+04  0.00000000000E+00 0.  1.
    9000005    2    1    2  501    0 -0.23762105133E+02 -0.18788743405E+02 -0.59579524981E+03  0.59657455682E+03  0.34011207535E+01 0.  0.
         13    1    3    3    0    0 -0.70362354055E+01 -0.40537663100E+01 -0.17788971163E+03  0.17807495931E+03  0.00000000000E+00 0.  1.
          1    1    3    3  501    0 -0.16725869727E+02 -0.14734977095E+02 -0.41790553819E+03  0.41849959751E+03  0.00000000000E+00 0.  1.
         -3    1    1    2    0  502  0.23762105133E+02  0.18788743405E+02 -0.40324698115E+03  0.40438321222E+03  0.00000000000E+00 0. -1.
<mgrwt>
<rscale>  1 0.30000000E+03</rscale>
<asrwt>0</asrwt>
<pdfrwt beam="1">  1       21 0.34828038E-02 0.30000000E+03</pdfrwt>
<pdfrwt beam="2">0</pdfrwt>
<totfact> 0.53052467E+04</totfact>
</mgrwt>
</event>
<event>
 6    1  0.6513574E-002  0.3000000E+03  0.7818608E-02  0.1093470E+00
         21   -1    0    0  501  502  0.00000000000E+00  0.00000000000E+00  0.15497943009E+01  0.15497943009E+01  0.00000000000E+00 0. -1.
         13   -1    0    0    0    0 -0.00000000000E+00 -0.00000000000E+00 -0.10000000000E+04  0.10000000000E+04  0.00000000000E+00 0.  1.
    9000005    2    1    2  501    0 -0.13887424235E+02  0.36415379368E+02 -0.43565779170E+03  0.43740952659E+03  0.32314191780E+01 0.  0.
         13    1    3    3    0    0 -0.97172421053E+01  0.21523578434E+02 -0.27117393647E+03  0.27220028112E+03  0.00000000000E+00 0.  1.
          1    1    3    3  501    0 -0.41701821297E+01  0.14891800933E+02 -0.16448385523E+03  0.16520924546E+03  0.00000000000E+00 0.  1.
         -1    1    1    2    0  502  0.13887424235E+02 -0.36415379368E+02 -0.56279241400E+03  0.56414026771E+03  0.00000000000E+00 0. -1.
<mgrwt>
<rscale>  1 0.30000000E+03</rscale>
<asrwt>0</asrwt>
<pdfrwt beam="1">  1       21 0.56356275E-02 0.30000000E+03</pdfrwt>
<pdfrwt beam="2">0</pdfrwt>
<totfact> 0.23472005E+04</totfact>
</mgrwt>
</event>
<event>
 6    1  0.6513574E-002  0.3000000E+03  0.7818608E-02  0.1093470E+00
         21   -1    0    0  501  502  0.00000000000E+00  0.00000000000E+00  0.12609161530E+02  0.12609161530E+02  0.00000000000E+00 0. -1.
         13   -1    0    0    0    0 -0.00000000000E+00 -0.00000000000E+00 -0.10000000000E+04  0.10000000000E+04  0.00000000000E+00 0.  1.
    9000005    2    1    2  501    0 -0.10143943851E+03  0.43328965145E+02 -0.40052326934E+03  0.41546520686E+03  0.50089841030E+01 0.  0.
         13    1    3    3    0    0 -0.55926897272E+02  0.22949377116E+02 -0.21064343774E+03  0.21914641136E+03  0.00000000000E+00 0.  1.
          1    1    3    3  501    0 -0.45512541235E+02  0.20379588029E+02 -0.18987983160E+03  0.19631879550E+03  0.00000000000E+00 0.  1.
         -3    1    1    2    0  502  0.10143943851E+03 -0.43328965145E+02 -0.58686756913E+03  0.59714395467E+03  0.00000000000E+00 0. -1.
<mgrwt>
<rscale>  1 0.30000000E+03</rscale>
<asrwt>0</asrwt>
<pdfrwt beam="1">  1       21 0.45851593E-01 0.30000000E+03</pdfrwt>
<pdfrwt beam="2">0</pdfrwt>
<totfact> 0.45264007E+02</totfact>
</mgrwt>
</event>
<event>
 6    1  0.6513574E-002  0.3000000E+03  0.7818608E-02  0.1093470E+00
         21   -1    0    0  501  502  0.00000000000E+00  0.00000000000E+00  0.12284684722E+01  0.12284684722E+01  0.00000000000E+00 0. -1.
         13   -1    0    0    0    0 -0.00000000000E+00 -0.00000000000E+00 -0.10000000000E+04  0.10000000000E+04  0.00000000000E+00 0.  1.
    9000005    2    1    2  501    0  0.90696293768E+01  0.29272016473E+02 -0.26606717821E+03  0.26788354383E+03  0.55444214867E+01 0.  0.
         13    1    3    3    0    0  0.92009272016E+01  0.27137178008E+02 -0.23454647391E+03  0.23629035510E+03  0.00000000000E+00 0.  1.
          1    1    3    3  501    0 -0.13129782487E+00  0.21348384649E+01 -0.31520704305E+02  0.31593188732E+02  0.00000000000E+00 0.  1.
         -3    1    1    2    0  502 -0.90696293768E+01 -0.29272016473E+02 -0.73270435331E+03  0.73334492464E+03  0.00000000000E+00 0. -1.
<mgrwt>
<rscale>  1 0.30000000E+03</rscale>
<asrwt>0</asrwt>
<pdfrwt beam="1">  1       21 0.44671675E-02 0.30000000E+03</pdfrwt>
<pdfrwt beam="2">0</pdfrwt>
<totfact> 0.34888917E+04</totfact>
</mgrwt>
</event>
<event>
 6    1  0.6513574E-002  0.3000000E+03  0.7818608E-02  0.1093470E+00
         21   -1    0    0  501  502  0.00000000000E+00  0.00000000000E+00  0.26341343113E+01  0.26341343113E+01  0.00000000000E+00 0. -1.
         13   -1    0    0    0    0 -0.00000000000E+00 -0.00000000000E+00 -0.10000000000E+04  0.10000000000E+04  0.00000000000E+00 0.  1.
    9000005    2    1    2  501    0 -0.41112440740E+02 -0.19485241163E+02 -0.72968654274E+03  0.73111594460E+03  0.42622052708E+01 0.  0.
         13    1    3    3    0    0 -0.17365557812E+02 -0.59559840429E+01 -0.28721356528E+03  0.28779970192E+03  0.00000000000E+00 0.  1.
          3    1    3    3  501    0 -0.23746882928E+02 -0.13529257120E+02 -0.44247297745E+03  0.44331624268E+03  0.00000000000E+00 0.  1.
         -1    1    1    2    0  502  0.41112440740E+02  0.19485241163E+02 -0.26767932295E+03  0.27151818971E+03  0.00000000000E+00 0. -1.
<mgrwt>
<rscale>  1 0.30000000E+03</rscale>
<asrwt>0</asrwt>
<pdfrwt beam="1">  1       21 0.95786904E-02 0.30000000E+03</pdfrwt>
<pdfrwt beam="2">0</pdfrwt>
<totfact> 0.92901428E+03</totfact>
</mgrwt>
</event>
<event>
 6    1  0.6513574E-002  0.3000000E+03  0.7818608E-02  0.1093470E+00
         21   -1    0    0  501  502  0.00000000000E+00  0.00000000000E+00  0.52943292912E+01  0.52943292912E+01  0.00000000000E+00 0. -1.
         13   -1    0    0    0    0 -0.00000000000E+00 -0.00000000000E+00 -0.10000000000E+04  0.10000000000E+04  0.00000000000E+00 0.  1.
    9000005    2    1    2  501    0  0.70152447064E+02  0.89104102878E+01 -0.61488189390E+03  0.61894363023E+03  0.32730273448E+01 0.  0.
         13    1    3    3    0    0  0.26263501105E+02  0.40846785821E+01 -0.24342596614E+03  0.24487273650E+03  0.00000000000E+00 0.  1.
          1    1    3    3  501    0  0.43888945959E+02  0.48257317057E+01 -0.37145592776E+03  0.37407089373E+03  0.00000000000E+00 0.  1.
         -1    1    1    2    0  502 -0.70152447064E+02 -0.89104102878E+01 -0.37982377681E+03  0.38635069907E+03  0.00000000000E+00 0. -1.
<mgrwt>
<rscale>  1 0.30000000E+03</rscale>
<asrwt>0</asrwt>
<pdfrwt beam="1">  1       21 0.19252147E-01 0.30000000E+03</pdfrwt>
<pdfrwt beam="2">0</pdfrwt>
<totfact> 0.25797565E+03</totfact>
</mgrwt>
</event>
<event>
 6    1  0.6513574E-002  0.3000000E+03  0.7818608E-02  0.1093470E+00
         21   -1    0    0  501  502  0.00000000000E+00  0.00000000000E+00  0.18115669652E+01  0.18115669652E+01  0.00000000000E+00 0. -1.
         13   -1    0    0    0    0 -0.00000000000E+00 -0.00000000000E+00 -0.10000000000E+04  0.10000000000E+04  0.00000000000E+00 0.  1.
    9000005    2    1    2  501    0  0.35335521409E+02  0.22701695782E+01 -0.77636347812E+03  0.77717839184E+03  0.34999776659E+01 0.  0.
         13    1    3    3    0    0  0.10856164436E+02 -0.89013467981E+00 -0.23128118725E+03  0.23153754819E+03  0.00000000000E+00 0.  1.
          1    1    3    3  501    0  0.24479356973E+02  0.31603042580E+01 -0.54508229087E+03  0.54564084365E+03  0.00000000000E+00 0.  1.
         -3    1    1    2    0  502 -0.35335521409E+02 -0.22701695782E+01 -0.22182495492E+03  0.22463317512E+03  0.00000000000E+00 0. -1.
<mgrwt>
<rscale>  1 0.30000000E+03</rscale>
<asrwt>0</asrwt>
<pdfrwt beam="1">  1       21 0.65875301E-02 0.30000000E+03</pdfrwt>
<pdfrwt beam="2">0</pdfrwt>
<totfact> 0.17929781E+04</totfact>
</mgrwt>
</event>
<event>
 6    1  0.6513574E-002  0.3000000E+03  0.7818608E-02  0.1093470E+00
         21   -1    0    0  501  502  0.00000000000E+00  0.00000000000E+00  0.14837468581E+01  0.14837468581E+01  0.00000000000E+00 0. -1.
         13   -1    0    0    0    0 -0.00000000000E+00 -0.00000000000E+00 -0.10000000000E+04  0.10000000000E+04  0.00000000000E+00 0.  1.
    9000005    2    1    2  501    0  0.28608873299E+02  0.20523275957E+02 -0.29995172673E+03  0.30203248333E+03  0.35930671856E+01 0.  0.
         13    1    3    3    0    0  0.15117756476E+02  0.88478049057E+01 -0.15517380271E+03  0.15615933933E+03  0.00000000000E+00 0.  1.
          3    1    3    3  501    0  0.13491116823E+02  0.11675471052E+02 -0.14477792402E+03  0.14587314400E+03  0.00000000000E+00 0.  1.
         -1    1    1    2    0  502 -0.28608873299E+02 -0.20523275957E+02 -0.69856452641E+03  0.69945126353E+03  0.00000000000E+00 0. -1.
<mgrwt>
<rscale>  1 0.30000000E+03</rscale>
<asrwt>0</asrwt>
<pdfrwt beam="1">  1       21 0.53954545E-02 0.30000000E+03</pdfrwt>
<pdfrwt beam="2">0</pdfrwt>
<totfact> 0.25292337E+04</totfact>
</mgrwt>
</event>
<event>
 6    1  0.6513574E-002  0.3000000E+03  0.7818608E-02  0.1093470E+00
         21   -1    0    0  501  502  0.00000000000E+00  0.00000000000E+00  0.12130340977E+01  0.12130340977E+01  0.00000000000E+00 0. -1.
         13   -1    0    0    0    0 -0.00000000000E+00 -0.00000000000E+00 -0.10000000000E+04  0.10000000000E+04  0.00000000000E+00 0.  1.
    9000005    2    1    2  501    0 -0.21098298856E+02 -0.26333977904E+02 -0.61959362928E+03  0.62052129116E+03  0.34337623836E+01 0.  0.
         13    1    3    3    0    0 -0.16149663822E+02 -0.20371486737E+02 -0.44925616753E+03  0.45000768124E+03  0.00000000000E+00 0.  1.
          3    1    3    3  501    0 -0.49486350337E+01 -0.59624911664E+01 -0.17033746175E+03  0.17051360991E+03  0.00000000000E+00 0.  1.
         -3    1    1    2    0  502  0.21098298856E+02  0.26333977904E+02 -0.37919333662E+03  0.38069174294E+03  0.00000000000E+00 0. -1.
<mgrwt>
<rscale>  1 0.30000000E+03</rscale>
<asrwt>0</asrwt>
<pdfrwt beam="1">  1       21 0.44110424E-02 0.30000000E+03</pdfrwt>
<pdfrwt beam="2">0</pdfrwt>
<totfact> 0.35644724E+04</totfact>
</mgrwt>
</event>
<event>
 6    1  0.6513574E-002  0.3000000E+03  0.7818608E-02  0.1093470E+00
         21   -1    0    0  501  502  0.00000000000E+00  0.00000000000E+00  0.13203038405E+01  0.13203038405E+01  0.00000000000E+00 0. -1.
         13   -1    0    0    0    0 -0.00000000000E+00 -0.00000000000E+00 -0.10000000000E+04  0.10000000000E+04  0.00000000000E+00 0.  1.
    9000005    2    1    2  501    0  0.30579390058E+02 -0.19160930808E+02 -0.54567123042E+03  0.54687678656E+03  0.38584460020E+01 0.  0.
         13    1    3    3    0    0  0.10987557883E+02 -0.47482038009E+01 -0.17863359968E+03  0.17903417217E+03  0.00000000000E+00 0.  1.
          1    1    3    3  501    0  0.19591832175E+02 -0.14412727007E+02 -0.36703763073E+03  0.36784261439E+03  0.00000000000E+00 0.  1.
         -3    1    1    2    0  502 -0.30579390058E+02  0.19160930808E+02 -0.45300846574E+03  0.45444351728E+03  0.00000000000E+00 0. -1.
<mgrwt>
<rscale>  1 0.30000000E+03</rscale>
<asrwt>0</asrwt>
<pdfrwt beam="1">  1       21 0.48011150E-02 0.30000000E+03</pdfrwt>
<pdfrwt beam="2">0</pdfrwt>
<totfact> 0.30866340E+04</totfact>
</mgrwt>
</event>
<event>
 6    1  0.6513574E-002  0.3000000E+03  0.7818608E-02  0.1093470E+00
         21   -1    0    0  501  502  0.00000000000E+00  0.00000000000E+00  0.14946493320E+01  0.14946493320E+01  0.00000000000E+00 0. -1.
         13   -1    0    0    0    0 -0.00000000000E+00 -0.00000000000E+00 -0.10000000000E+04  0.10000000000E+04  0.00000000000E+00 0.  1.
    9000005    2    1    2  501    0  0.22584412451E+02 -0.27099142609E+02 -0.29676293559E+03  0.29886612989E+03  0.28817423018E+01 0.  0.
         13    1    3    3    0    0  0.83944480761E+01 -0.82377001169E+01 -0.10452137025E+03  0.10518100256E+03  0.00000000000E+00 0.  1.
          3    1    3    3  501    0  0.14189964375E+02 -0.18861442492E+02 -0.19224156534E+03  0.19368512732E+03  0.00000000000E+00 0.  1.
         -3    1    1    2    0  502 -0.22584412451E+02  0.27099142609E+02 -0.70174241508E+03  0.70262851944E+03  0.00000000000E+00 0. -1.
<mgrwt>
<rscale>  1 0.30000000E+03</rscale>
<asrwt>0</asrwt>
<pdfrwt beam="1">  1       21 0.54350999E-02 0.30000000E+03</pdfrwt>
<pdfrwt beam="2">0</pdfrwt>
<totfact> 0.24977169E+04</totfact>
</mgrwt>
</event>
<event>
 6    1  0.6513574E-002  0.3000000E+03  0.7818608E-02  0.1093470E+00
         21   -1    0    0  501  502  0.00000000000E+00  0.00000000000E+00  0.10482816791E+01  0.10482816791E+01  0.00000000000E+00 0. -1.
         13   -1    0    0    0    0 -0.00000000000E+00 -0.00000000000E+00 -0.10000000000E+04  0.10000000000E+04  0.00000000000E+00 0.  1.
    9000005    2    1    2  501    0 -0.20071006398E+02 -0.24748359723E+02 -0.41826323830E+03  0.41948621496E+03  0.30366806220E+01 0.  0.
         13    1    3    3    0    0 -0.11314934058E+02 -0.13501213409E+02 -0.25043755516E+03  0.25105632740E+03  0.00000000000E+00 0.  1.
          3    1    3    3  501    0 -0.87560723398E+01 -0.11247146314E+02 -0.16782568314E+03  0.16842988756E+03  0.00000000000E+00 0.  1.
         -3    1    1    2    0  502  0.20071006398E+02  0.24748359723E+02 -0.58068848003E+03  0.58156206671E+03  0.00000000000E+00 0. -1.
<mgrwt>
<rscale>  1 0.30000000E+03</rscale>
<asrwt>0</asrwt>
<pdfrwt beam="1">  1       21 0.38119414E-02 0.30000000E+03</pdfrwt>
<pdfrwt beam="2">0</pdfrwt>
<totfact> 0.45595076E+04</totfact>
</mgrwt>
</event>
<event>
 6    1  0.6513574E-002  0.3000000E+03  0.7818608E-02  0.1093470E+00
         21   -1    0    0  501  502  0.00000000000E+00  0.00000000000E+00  0.13309526296E+01  0.13309526296E+01  0.00000000000E+00 0. -1.
         13   -1    0    0    0    0 -0.00000000000E+00 -0.00000000000E+00 -0.10000000000E+04  0.10000000000E+04  0.00000000000E+00 0.  1.
    9000005    2    1    2  501    0  0.23860717199E+02 -0.25457557342E+02 -0.35704762850E+03  0.35876152743E+03  0.30665116478E+01 0.  0.
         13    1    3    3    0    0  0.11203209625E+02 -0.14156532134E+02 -0.18119548166E+03  0.18209261897E+03  0.00000000000E+00 0.  1.
          1    1    3    3  501    0  0.12657507573E+02 -0.11301025208E+02 -0.17585214684E+03  0.17666890846E+03  0.00000000000E+00 0.  1.
         -3    1    1    2    0  502 -0.23860717199E+02  0.25457557342E+02 -0.64162141887E+03  0.64256942520E+03  0.00000000000E+00 0. -1.
<mgrwt>
<rscale>  1 0.30000000E+03</rscale>
<asrwt>0</asrwt>
<pdfrwt beam="1">  1       21 0.48398379E-02 0.30000000E+03</pdfrwt>
<pdfrwt beam="2">0</pdfrwt>
<totfact> 0.30447223E+04</totfact>
</mgrwt>
</event>
<event>
 6    1  0.6513574E-002  0.3000000E+03  0.7818608E-02  0.1093470E+00
         21   -1    0    0  501  502  0.00000000000E+00  0.00000000000E+00  0.13982010345E+01  0.13982010345E+01  0.00000000000E+00 0. -1.
         13   -1    0    0    0    0 -0.00000000000E+00 -0.00000000000E+00 -0.10000000000E+04  0.10000000000E+04  0.00000000000E+00 0.  1.
    9000005    2    1    2  501    0  0.31741794492E+02  0.16613887388E+02 -0.64039066421E+03  0.64139989572E+03  0.31718514020E+01 0.  0.
         13    1    3    3    0    0  0.31684939705E+02  0.16676395849E+02 -0.63996849161E+03  0.64096935015E+03  0.00000000000E+00 0.  1.
          3    1    3    3  501    0  0.56854786348E-01 -0.62508460960E-01 -0.42217260203E+00  0.43054556127E+00  0.00000000000E+00 0.  1.
         -3    1    1    2    0  502 -0.31741794492E+02 -0.16613887388E+02 -0.35821113475E+03  0.35999830532E+03  0.00000000000E+00 0. -1.
<mgrwt>
<rscale>  1 0.30000000E+03</rscale>
<asrwt>0</asrwt>
<pdfrwt beam="1">  1       21 0.50843781E-02 0.30000000E+03</pdfrwt>
<pdfrwt beam="2">0</pdfrwt>
<totfact> 0.27994182E+04</totfact>
</mgrwt>
</event>
<event>
 6    1  0.6513574E-002  0.3000000E+03  0.7818608E-02  0.1093470E+00
         21   -1    0    0  501  502  0.00000000000E+00  0.00000000000E+00  0.14912292552E+01  0.14912292552E+01  0.00000000000E+00 0. -1.
         13   -1    0    0    0    0 -0.00000000000E+00 -0.00000000000E+00 -0.10000000000E+04  0.10000000000E+04  0.00000000000E+00 0.  1.
    9000005    2    1    2  501    0 -0.37383994000E+01 -0.36311102003E+02 -0.34293353429E+03  0.34490051777E+03  0.45261967663E+01 0.  0.
         13    1    3    3    0    0 -0.45725975245E+01 -0.23951013557E+02 -0.22342215987E+03  0.22474879582E+03  0.00000000000E+00 0.  1.
          3    1    3    3  501    0  0.83419812451E+00 -0.12360088446E+02 -0.11951137442E+03  0.12015172195E+03  0.00000000000E+00 0.  1.
         -3    1    1    2    0  502  0.37383994000E+01  0.36311102003E+02 -0.65557523645E+03  0.65659071148E+03  0.00000000000E+00 0. -1.
<mgrwt>
<rscale>  1 0.30000000E+03</rscale>
<asrwt>0</asrwt>
<pdfrwt beam="1">  1       21 0.54226633E-02 0.30000000E+03</pdfrwt>
<pdfrwt beam="2">0</pdfrwt>
<totfact> 0.25075381E+04</totfact>
</mgrwt>
</event>
<event>
 6    1  0.6513574E-002  0.3000000E+03  0.7818608E-02  0.1093470E+00
         21   -1    0    0  501  502  0.00000000000E+00  0.00000000000E+00  0.20705422038E+01  0.20705422038E+01  0.00000000000E+00 0. -1.
         13   -1    0    0    0    0 -0.00000000000E+00 -0.00000000000E+00 -0.10000000000E+04  0.10000000000E+04  0.00000000000E+00 0.  1.
    9000005    2    1    2  501    0  0.33885982986E+01 -0.42701129741E+02 -0.34051249479E+03  0.34325954326E+03  0.65943803469E+01 0.  0.
         13    1    3    3    0    0  0.29978515711E+01 -0.78099402680E+01 -0.74537360244E+02  0.75005335498E+02  0.00000000000E+00 0.  1.
          3    1    3    3  501    0  0.39074672750E+00 -0.34891189473E+02 -0.26597513455E+03  0.26825420777E+03  0.00000000000E+00 0.  1.
         -3    1    1    2    0  502 -0.33885982986E+01  0.42701129741E+02 -0.65741696300E+03  0.65881099894E+03  0.00000000000E+00 0. -1.
<mgrwt>
<rscale>  1 0.30000000E+03</rscale>
<asrwt>0</asrwt>
<pdfrwt beam="1">  1       21 0.75292603E-02 0.30000000E+03</pdfrwt>
<pdfrwt beam="2">0</pdfrwt>
<totfact> 0.14207266E+04</totfact>
</mgrwt>
</event>
<event>
 6    1  0.6513574E-002  0.3000000E+03  0.7818608E-02  0.1093470E+00
         21   -1    0    0  501  502  0.00000000000E+00  0.00000000000E+00  0.18423910585E+01  0.18423910585E+01  0.00000000000E+00 0. -1.
         13   -1    0    0    0    0 -0.00000000000E+00 -0.00000000000E+00 -0.10000000000E+04  0.10000000000E+04  0.00000000000E+00 0.  1.
    9000005    2    1    2  501    0  0.15023620256E+02  0.29606693399E+02 -0.81606049982E+03  0.81674343749E+03  0.35829968851E+01 0.  0.
         13    1    3    3    0    0  0.41951309108E+01  0.11270941907E+02 -0.26922509645E+03  0.26949357286E+03  0.00000000000E+00 0.  1.
          3    1    3    3  501    0  0.10828489345E+02  0.18335751491E+02 -0.54683540336E+03  0.54724986463E+03  0.00000000000E+00 0.  1.
         -3    1    1    2    0  502 -0.15023620256E+02 -0.29606693399E+02 -0.18209710913E+03  0.18509895357E+03  0.00000000000E+00 0. -1.
<mgrwt>
<rscale>  1 0.30000000E+03</rscale>
<asrwt>0</asrwt>
<pdfrwt beam="1">  1       21 0.66996180E-02 0.30000000E+03</pdfrwt>
<pdfrwt beam="2">0</pdfrwt>
<totfact> 0.17412903E+04</totfact>
</mgrwt>
</event>
<event>
 6    1  0.6513574E-002  0.3000000E+03  0.7818608E-02  0.1093470E+00
         21   -1    0    0  501  502  0.00000000000E+00  0.00000000000E+00  0.10337621185E+01  0.10337621185E+01  0.00000000000E+00 0. -1.
         13   -1    0    0    0    0 -0.00000000000E+00 -0.00000000000E+00 -0.10000000000E+04  0.10000000000E+04  0.00000000000E+00 0.  1.
    9000005    2    1    2  501    0 -0.16927177071E+02  0.26940688899E+02 -0.48608941728E+03  0.48717097581E+03  0.63488611955E+01 0.  0.
         13    1    3    3    0    0 -0.17655817309E+01  0.54928331385E+00 -0.18557052863E+02  0.18648946403E+02  0.00000000000E+00 0.  1.
          3    1    3    3  501    0 -0.15161595341E+02  0.26391405585E+02 -0.46753236442E+03  0.46852202941E+03  0.00000000000E+00 0.  1.
         -1    1    1    2    0  502  0.16927177071E+02 -0.26940688899E+02 -0.51287682060E+03  0.51386278631E+03  0.00000000000E+00 0. -1.
<mgrwt>
<rscale>  1 0.30000000E+03</rscale>
<asrwt>0</asrwt>
<pdfrwt beam="1">  1       21 0.37591429E-02 0.30000000E+03</pdfrwt>
<pdfrwt beam="2">0</pdfrwt>
<totfact> 0.46676003E+04</totfact>
</mgrwt>
</event>
<event>
 6    1  0.6513574E-002  0.3000000E+03  0.7818608E-02  0.1093470E+00
         21   -1    0    0  501  502  0.00000000000E+00  0.00000000000E+00  0.11793309969E+01  0.11793309969E+01  0.00000000000E+00 0. -1.
         13   -1    0    0    0    0 -0.00000000000E+00 -0.00000000000E+00 -0.10000000000E+04  0.10000000000E+04  0.00000000000E+00 0.  1.
    9000005    2    1    2  501    0 -0.10041668491E+02 -0.32677898387E+02 -0.53396462978E+03  0.53506795230E+03  0.32874872807E+01 0.  0.
         13    1    3    3    0    0 -0.85322273592E+01 -0.22693833101E+02 -0.37477435954E+03  0.37555775792E+03  0.00000000000E+00 0.  1.
          3    1    3    3  501    0 -0.15094411320E+01 -0.99840652861E+01 -0.15919027024E+03  0.15951019438E+03  0.00000000000E+00 0.  1.
         -3    1    1    2    0  502  0.10041668491E+02  0.32677898387E+02 -0.46485603923E+03  0.46611137870E+03  0.00000000000E+00 0. -1.
<mgrwt>
<rscale>  1 0.30000000E+03</rscale>
<asrwt>0</asrwt>
<pdfrwt beam="1">  1       21 0.42884854E-02 0.30000000E+03</pdfrwt>
<pdfrwt beam="2">0</pdfrwt>
<totfact> 0.37385883E+04</totfact>
</mgrwt>
</event>
<event>
 6    1  0.6513574E-002  0.3000000E+03  0.7818608E-02  0.1093470E+00
         21   -1    0    0  501  502  0.00000000000E+00  0.00000000000E+00  0.21574474641E+01  0.21574474641E+01  0.00000000000E+00 0. -1.
         13   -1    0    0    0    0 -0.00000000000E+00 -0.00000000000E+00 -0.10000000000E+04  0.10000000000E+04  0.00000000000E+00 0.  1.
    9000005    2    1    2  501    0  0.41119531011E+02  0.19470548957E+02 -0.40117160766E+03  0.40375446070E+03  0.30145707050E+01 0.  0.
         13    1    3    3    0    0  0.82359113573E+01  0.52612453580E+01 -0.84979460633E+02  0.85539579541E+02  0.00000000000E+00 0.  1.
          1    1    3    3  501    0  0.32883619654E+02  0.14209303599E+02 -0.31619214703E+03  0.31821488116E+03  0.00000000000E+00 0.  1.
         -1    1    1    2    0  502 -0.41119531011E+02 -0.19470548957E+02 -0.59667094488E+03  0.59840298676E+03  0.00000000000E+00 0. -1.
<mgrwt>
<rscale>  1 0.30000000E+03</rscale>
<asrwt>0</asrwt>
<pdfrwt beam="1">  1       21 0.78452800E-02 0.30000000E+03</pdfrwt>
<pdfrwt beam="2">0</pdfrwt>
<totfact> 0.13219404E+04</totfact>
</mgrwt>
</event>
<event>
 6    1  0.6513574E-002  0.3000000E+03  0.7818608E-02  0.1093470E+00
         21   -1    0    0  501  502  0.00000000000E+00  0.00000000000E+00  0.15825253998E+01  0.15825253998E+01  0.00000000000E+00 0. -1.
         13   -1    0    0    0    0 -0.00000000000E+00 -0.00000000000E+00 -0.10000000000E+04  0.10000000000E+04  0.00000000000E+00 0.  1.
    9000005    2    1    2  501    0  0.25914109200E+02 -0.23036584990E+02 -0.74367739403E+03  0.74449356424E+03  0.35178819273E+01 0.  0.
         13    1    3    3    0    0  0.18162368277E+02 -0.17872093136E+02 -0.52544571585E+03  0.52606319358E+03  0.00000000000E+00 0.  1.
          1    1    3    3  501    0  0.77517409222E+01 -0.51644918538E+01 -0.21823167818E+03  0.21843037066E+03  0.00000000000E+00 0.  1.
         -1    1    1    2    0  502 -0.25914109200E+02  0.23036584990E+02 -0.25474008057E+03  0.25708896116E+03  0.00000000000E+00 0. -1.
<mgrwt>
<rscale>  1 0.30000000E+03</rscale>
<asrwt>0</asrwt>
<pdfrwt beam="1">  1       21 0.57546500E-02 0.30000000E+03</pdfrwt>
<pdfrwt beam="2">0</pdfrwt>
<totfact> 0.22643510E+04</totfact>
</mgrwt>
</event>
<event>
 6    1  0.6513574E-002  0.3000000E+03  0.7818608E-02  0.1093470E+00
         21   -1    0    0  501  502  0.00000000000E+00  0.00000000000E+00  0.10941946900E+01  0.10941946900E+01  0.00000000000E+00 0. -1.
         13   -1    0    0    0    0 -0.00000000000E+00 -0.00000000000E+00 -0.10000000000E+04  0.10000000000E+04  0.00000000000E+00 0.  1.
    9000005    2    1    2  501    0  0.57618690566E+01 -0.32286668913E+02 -0.55382981031E+03  0.55481147101E+03  0.35611035711E+01 0.  0.
         13    1    3    3    0    0  0.99535270048E+00 -0.79433347657E+01 -0.16145797830E+03  0.16165632079E+03  0.00000000000E+00 0.  1.
          3    1    3    3  501    0  0.47665163561E+01 -0.24343334147E+02 -0.39237183201E+03  0.39315515023E+03  0.00000000000E+00 0.  1.
         -1    1    1    2    0  502 -0.57618690566E+01  0.32286668913E+02 -0.44507599500E+03  0.44628272368E+03  0.00000000000E+00 0. -1.
<mgrwt>
<rscale>  1 0.30000000E+03</rscale>
<asrwt>0</asrwt>
<pdfrwt beam="1">  1       21 0.39788982E-02 0.30000000E+03</pdfrwt>
<pdfrwt beam="2">0</pdfrwt>
<totfact> 0.42423485E+04</totfact>
</mgrwt>
</event>
<event>
 6    1  0.6513574E-002  0.3000000E+03  0.7818608E-02  0.1093470E+00
         21   -1    0    0  501  502  0.00000000000E+00  0.00000000000E+00  0.23809459415E+01  0.23809459415E+01  0.00000000000E+00 0. -1.
         13   -1    0    0    0    0 -0.00000000000E+00 -0.00000000000E+00 -0.10000000000E+04  0.10000000000E+04  0.00000000000E+00 0.  1.
    9000005    2    1    2  501    0 -0.30622854301E+02  0.37188808824E+02 -0.57561929010E+03  0.57764035748E+03  0.31699755212E+01 0.  0.
         13    1    3    3    0    0 -0.79069541161E+01  0.11676753038E+02 -0.16132185186E+03  0.16193704448E+03  0.00000000000E+00 0.  1.
          3    1    3    3  501    0 -0.22715900185E+02  0.25512055785E+02 -0.41429743824E+03  0.41570331301E+03  0.00000000000E+00 0.  1.
         -1    1    1    2    0  502  0.30622854301E+02 -0.37188808824E+02 -0.42199976395E+03  0.42474058846E+03  0.00000000000E+00 0. -1.
<mgrwt>
<rscale>  1 0.30000000E+03</rscale>
<asrwt>0</asrwt>
<pdfrwt beam="1">  1       21 0.86580035E-02 0.30000000E+03</pdfrwt>
<pdfrwt beam="2">0</pdfrwt>
<totfact> 0.11114117E+04</totfact>
</mgrwt>
</event>
<event>
 6    1  0.6513574E-002  0.3000000E+03  0.7818608E-02  0.1093470E+00
         21   -1    0    0  501  502  0.00000000000E+00  0.00000000000E+00  0.13929080362E+01  0.13929080362E+01  0.00000000000E+00 0. -1.
         13   -1    0    0    0    0 -0.00000000000E+00 -0.00000000000E+00 -0.10000000000E+04  0.10000000000E+04  0.00000000000E+00 0.  1.
    9000005    2    1    2  501    0 -0.21013016286E+02  0.30611179491E+02 -0.45941044254E+03  0.46091939535E+03  0.31848286671E+01 0.  0.
         13    1    3    3    0    0 -0.14242076951E+02  0.22278127893E+02 -0.31199574579E+03  0.31311419184E+03  0.00000000000E+00 0.  1.
          1    1    3    3  501    0 -0.67709393352E+01  0.83330515977E+01 -0.14741469675E+03  0.14780520351E+03  0.00000000000E+00 0.  1.
         -1    1    1    2    0  502  0.21013016286E+02 -0.30611179491E+02 -0.53919664942E+03  0.54047351268E+03  0.00000000000E+00 0. -1.
<mgrwt>
<rscale>  1 0.30000000E+03</rscale>
<asrwt>0</asrwt>
<pdfrwt beam="1">  1       21 0.50651308E-02 0.30000000E+03</pdfrwt>
<pdfrwt beam="2">0</pdfrwt>
<totfact> 0.28175906E+04</totfact>
</mgrwt>
</event>
<event>
 6    1  0.6513574E-002  0.3000000E+03  0.7818608E-02  0.1093470E+00
         21   -1    0    0  501  502  0.00000000000E+00  0.00000000000E+00  0.52758575313E+01  0.52758575313E+01  0.00000000000E+00 0. -1.
         13   -1    0    0    0    0 -0.00000000000E+00 -0.00000000000E+00 -0.10000000000E+04  0.10000000000E+04  0.00000000000E+00 0.  1.
    9000005    2    1    2  501    0  0.62648468002E+02 -0.36136267972E+02 -0.54108873940E+03  0.54591136247E+03  0.33957859172E+01 0.  0.
         13    1    3    3    0    0  0.51894096672E+02 -0.30530797202E+02 -0.45878062814E+03  0.46271458979E+03  0.00000000000E+00 0.  1.
          1    1    3    3  501    0  0.10754371330E+02 -0.56054707698E+01 -0.82308111256E+02  0.83196772677E+02  0.00000000000E+00 0.  1.
         -3    1    1    2    0  502 -0.62648468002E+02  0.36136267972E+02 -0.45363540307E+03  0.45936449506E+03  0.00000000000E+00 0. -1.
<mgrwt>
<rscale>  1 0.30000000E+03</rscale>
<asrwt>0</asrwt>
<pdfrwt beam="1">  1       21 0.19184977E-01 0.30000000E+03</pdfrwt>
<pdfrwt beam="2">0</pdfrwt>
<totfact> 0.25969287E+03</totfact>
</mgrwt>
</event>
<event>
 6    1  0.6513574E-002  0.3000000E+03  0.7818608E-02  0.1093470E+00
         21   -1    0    0  501  502  0.00000000000E+00  0.00000000000E+00  0.27418655010E+01  0.27418655010E+01  0.00000000000E+00 0. -1.
         13   -1    0    0    0    0 -0.00000000000E+00 -0.00000000000E+00 -0.10000000000E+04  0.10000000000E+04  0.00000000000E+00 0.  1.
    9000005    2    1    2  501    0  0.55392642528E+01 -0.41894912813E+02 -0.79422078510E+03  0.79535326306E+03  0.37802672639E+01 0.  0.
         13    1    3    3    0    0  0.34441040286E+01 -0.30768437381E+02 -0.55110459466E+03  0.55197357984E+03  0.00000000000E+00 0.  1.
          3    1    3    3  501    0  0.20951602242E+01 -0.11126475432E+02 -0.24311619044E+03  0.24337968322E+03  0.00000000000E+00 0.  1.
         -1    1    1    2    0  502 -0.55392642528E+01  0.41894912813E+02 -0.20303734940E+03  0.20738860244E+03  0.00000000000E+00 0. -1.
<mgrwt>
<rscale>  1 0.30000000E+03</rscale>
<asrwt>0</asrwt>
<pdfrwt beam="1">  1       21 0.99704410E-02 0.30000000E+03</pdfrwt>
<pdfrwt beam="2">0</pdfrwt>
<totfact> 0.86488210E+03</totfact>
</mgrwt>
</event>
<event>
 6    1  0.6513574E-002  0.3000000E+03  0.7818608E-02  0.1093470E+00
         21   -1    0    0  501  502  0.00000000000E+00  0.00000000000E+00  0.76964150548E+01  0.76964150548E+01  0.00000000000E+00 0. -1.
         13   -1    0    0    0    0 -0.00000000000E+00 -0.00000000000E+00 -0.10000000000E+04  0.10000000000E+04  0.00000000000E+00 0.  1.
    9000005    2    1    2  501    0 -0.70473702471E+02 -0.49999938967E+02 -0.58229464977E+03  0.58868106502E+03  0.34351902880E+01 0.  0.
         13    1    3    3    0    0 -0.68425234264E+02 -0.48119690612E+02 -0.56666143433E+03  0.57280249516E+03  0.00000000000E+00 0.  1.
          3    1    3    3  501    0 -0.20484682065E+01 -0.18802483552E+01 -0.15633215437E+02  0.15878569859E+02  0.00000000000E+00 0.  1.
         -1    1    1    2    0  502  0.70473702471E+02  0.49999938967E+02 -0.41000893518E+03  0.41901535003E+03  0.00000000000E+00 0. -1.
<mgrwt>
<rscale>  1 0.30000000E+03</rscale>
<asrwt>0</asrwt>
<pdfrwt beam="1">  1       21 0.27987023E-01 0.30000000E+03</pdfrwt>
<pdfrwt beam="2">0</pdfrwt>
<totfact> 0.12485465E+03</totfact>
</mgrwt>
</event>
<event>
 6    1  0.6513574E-002  0.3000000E+03  0.7818608E-02  0.1093470E+00
         21   -1    0    0  501  502  0.00000000000E+00  0.00000000000E+00  0.10782986549E+01  0.10782986549E+01  0.00000000000E+00 0. -1.
         13   -1    0    0    0    0 -0.00000000000E+00 -0.00000000000E+00 -0.10000000000E+04  0.10000000000E+04  0.00000000000E+00 0.  1.
    9000005    2    1    2  501    0 -0.30453300257E+02 -0.11838021368E+02 -0.53392905652E+03  0.53493915420E+03  0.34812439636E+01 0.  0.
         13    1    3    3    0    0 -0.65290043944E+01 -0.12198432243E+01 -0.11926803268E+03  0.11945283394E+03  0.00000000000E+00 0.  1.
          3    1    3    3  501    0 -0.23924295863E+02 -0.10618178143E+02 -0.41466102384E+03  0.41548632027E+03  0.00000000000E+00 0.  1.
         -3    1    1    2    0  502  0.30453300257E+02  0.11838021368E+02 -0.46499264483E+03  0.46613914445E+03  0.00000000000E+00 0. -1.
<mgrwt>
<rscale>  1 0.30000000E+03</rscale>
<asrwt>0</asrwt>
<pdfrwt beam="1">  1       21 0.39210943E-02 0.30000000E+03</pdfrwt>
<pdfrwt beam="2">0</pdfrwt>
<totfact> 0.43481315E+04</totfact>
</mgrwt>
</event>
<event>
 6    1  0.6513574E-002  0.3000000E+03  0.7818608E-02  0.1093470E+00
         21   -1    0    0  501  502  0.00000000000E+00  0.00000000000E+00  0.12477015167E+01  0.12477015167E+01  0.00000000000E+00 0. -1.
         13   -1    0    0    0    0 -0.00000000000E+00 -0.00000000000E+00 -0.10000000000E+04  0.10000000000E+04  0.00000000000E+00 0.  1.
    9000005    2    1    2  501    0  0.17735832262E+02  0.30172734584E+02 -0.55620571705E+03  0.55731929468E+03  0.38785158442E+01 0.  0.
         13    1    3    3    0    0  0.11145256889E+01  0.54669207323E+00 -0.18526878926E+02  0.18568421648E+02  0.00000000000E+00 0.  1.
          1    1    3    3  501    0  0.16621306573E+02  0.29626042511E+02 -0.53767883812E+03  0.53875087303E+03  0.00000000000E+00 0.  1.
         -3    1    1    2    0  502 -0.17735832262E+02 -0.30172734584E+02 -0.44254658143E+03  0.44392840684E+03  0.00000000000E+00 0. -1.
<mgrwt>
<rscale>  1 0.30000000E+03</rscale>
<asrwt>0</asrwt>
<pdfrwt beam="1">  1       21 0.45371060E-02 0.30000000E+03</pdfrwt>
<pdfrwt beam="2">0</pdfrwt>
<totfact> 0.33981190E+04</totfact>
</mgrwt>
</event>
<event>
 6    1  0.6513574E-002  0.3000000E+03  0.7818608E-02  0.1093470E+00
         21   -1    0    0  501  502  0.00000000000E+00  0.00000000000E+00  0.97300296134E+00  0.97300296134E+00  0.00000000000E+00 0. -1.
         13   -1    0    0    0    0 -0.00000000000E+00 -0.00000000000E+00 -0.10000000000E+04  0.10000000000E+04  0.00000000000E+00 0.  1.
    9000005    2    1    2  501    0  0.29252765850E+02  0.72741925932E+01 -0.62374486251E+03  0.62448220801E+03  0.34258464463E+01 0.  0.
         13    1    3    3    0    0  0.17787489559E+02  0.50759569371E+01 -0.34985088902E+03  0.35033955625E+03  0.00000000000E+00 0.  1.
          3    1    3    3  501    0  0.11465276292E+02  0.21982356561E+01 -0.27389397349E+03  0.27414265176E+03  0.00000000000E+00 0.  1.
         -1    1    1    2    0  502 -0.29252765850E+02 -0.72741925932E+01 -0.37528213453E+03  0.37649079495E+03  0.00000000000E+00 0. -1.
<mgrwt>
<rscale>  1 0.30000000E+03</rscale>
<asrwt>0</asrwt>
<pdfrwt beam="1">  1       21 0.35382000E-02 0.30000000E+03</pdfrwt>
<pdfrwt beam="2">0</pdfrwt>
<totfact> 0.51668674E+04</totfact>
</mgrwt>
</event>
<event>
 6    1  0.6513574E-002  0.3000000E+03  0.7818608E-02  0.1093470E+00
         21   -1    0    0  501  502  0.00000000000E+00  0.00000000000E+00  0.10343818084E+01  0.10343818084E+01  0.00000000000E+00 0. -1.
         13   -1    0    0    0    0 -0.00000000000E+00 -0.00000000000E+00 -0.10000000000E+04  0.10000000000E+04  0.00000000000E+00 0.  1.
    9000005    2    1    2  501    0  0.29078879519E+02  0.12976061675E+02 -0.44427412191E+03  0.44542965230E+03  0.37577032850E+01 0.  0.
         13    1    3    3    0    0  0.14064346484E+02  0.43308500592E+01 -0.19584004651E+03  0.19639217378E+03  0.00000000000E+00 0.  1.
          3    1    3    3  501    0  0.15014533035E+02  0.86452116158E+01 -0.24843407540E+03  0.24903747852E+03  0.00000000000E+00 0.  1.
         -1    1    1    2    0  502 -0.29078879519E+02 -0.12976061675E+02 -0.55469149628E+03  0.55560472951E+03  0.00000000000E+00 0. -1.
<mgrwt>
<rscale>  1 0.30000000E+03</rscale>
<asrwt>0</asrwt>
<pdfrwt beam="1">  1       21 0.37613963E-02 0.30000000E+03</pdfrwt>
<pdfrwt beam="2">0</pdfrwt>
<totfact> 0.46629050E+04</totfact>
</mgrwt>
</event>
<event>
 6    1  0.6513574E-002  0.3000000E+03  0.7818608E-02  0.1093470E+00
         21   -1    0    0  501  502  0.00000000000E+00  0.00000000000E+00  0.12635005687E+01  0.12635005687E+01  0.00000000000E+00 0. -1.
         13   -1    0    0    0    0 -0.00000000000E+00 -0.00000000000E+00 -0.10000000000E+04  0.10000000000E+04  0.00000000000E+00 0.  1.
    9000005    2    1    2  501    0  0.32915652111E+02 -0.12484721832E+02 -0.43917711794E+03  0.44059781601E+03  0.32536306682E+01 0.  0.
         13    1    3    3    0    0  0.26304620726E+02 -0.99576771268E+01 -0.33348336414E+03  0.33466736107E+03  0.00000000000E+00 0.  1.
          1    1    3    3  501    0  0.66110313846E+01 -0.25270447054E+01 -0.10569375380E+03  0.10593045494E+03  0.00000000000E+00 0.  1.
         -1    1    1    2    0  502 -0.32915652111E+02  0.12484721832E+02 -0.55955938149E+03  0.56066568456E+03  0.00000000000E+00 0. -1.
<mgrwt>
<rscale>  1 0.30000000E+03</rscale>
<asrwt>0</asrwt>
<pdfrwt beam="1">  1       21 0.45945572E-02 0.30000000E+03</pdfrwt>
<pdfrwt beam="2">0</pdfrwt>
<totfact> 0.33262621E+04</totfact>
</mgrwt>
</event>
<event>
 6    1  0.6513574E-002  0.3000000E+03  0.7818608E-02  0.1093470E+00
         21   -1    0    0  501  502  0.00000000000E+00  0.00000000000E+00  0.27407592427E+01  0.27407592427E+01  0.00000000000E+00 0. -1.
         13   -1    0    0    0    0 -0.00000000000E+00 -0.00000000000E+00 -0.10000000000E+04  0.10000000000E+04  0.00000000000E+00 0.  1.
    9000005    2    1    2  501    0 -0.28705168605E+02  0.32982387373E+02 -0.22447620841E+03  0.22872174160E+03  0.34989082673E+01 0.  0.
         13    1    3    3    0    0 -0.20562068503E+02  0.22866677210E+02 -0.16549080066E+03  0.16832376151E+03  0.00000000000E+00 0.  1.
          1    1    3    3  501    0 -0.81431001025E+01  0.10115710163E+02 -0.58985407749E+02  0.60397980088E+02  0.00000000000E+00 0.  1.
         -3    1    1    2    0  502  0.28705168605E+02 -0.32982387373E+02 -0.77278303235E+03  0.77401901764E+03  0.00000000000E+00 0. -1.
<mgrwt>
<rscale>  1 0.30000000E+03</rscale>
<asrwt>0</asrwt>
<pdfrwt beam="1">  1       21 0.99664183E-02 0.30000000E+03</pdfrwt>
<pdfrwt beam="2">0</pdfrwt>
<totfact> 0.86550586E+03</totfact>
</mgrwt>
</event>
<event>
 6    1  0.6513574E-002  0.3000000E+03  0.7818608E-02  0.1093470E+00
         21   -1    0    0  501  502  0.00000000000E+00  0.00000000000E+00  0.39107150790E+01  0.39107150790E+01  0.00000000000E+00 0. -1.
         13   -1    0    0    0    0 -0.00000000000E+00 -0.00000000000E+00 -0.10000000000E+04  0.10000000000E+04  0.00000000000E+00 0.  1.
    9000005    2    1    2  501    0 -0.36322232802E+02 -0.50765419200E+02 -0.47763743510E+03  0.48171462838E+03  0.38770353292E+01 0.  0.
         13    1    3    3    0    0 -0.91770565828E+01 -0.15851886821E+02 -0.14068974860E+03  0.14187708076E+03  0.00000000000E+00 0.  1.
          3    1    3    3  501    0 -0.27145176219E+02 -0.34913532379E+02 -0.33694768649E+03  0.33983754761E+03  0.00000000000E+00 0.  1.
         -1    1    1    2    0  502  0.36322232802E+02  0.50765419200E+02 -0.51845184982E+03  0.52219608670E+03  0.00000000000E+00 0. -1.
<mgrwt>
<rscale>  1 0.30000000E+03</rscale>
<asrwt>0</asrwt>
<pdfrwt beam="1">  1       21 0.14220812E-01 0.30000000E+03</pdfrwt>
<pdfrwt beam="2">0</pdfrwt>
<totfact> 0.45440256E+03</totfact>
</mgrwt>
</event>
<event>
 6    1  0.6513574E-002  0.3000000E+03  0.7818608E-02  0.1093470E+00
         21   -1    0    0  501  502  0.00000000000E+00  0.00000000000E+00  0.46808829421E+01  0.46808829421E+01  0.00000000000E+00 0. -1.
         13   -1    0    0    0    0 -0.00000000000E+00 -0.00000000000E+00 -0.10000000000E+04  0.10000000000E+04  0.00000000000E+00 0.  1.
    9000005    2    1    2  501    0 -0.14433652272E+02 -0.61874516471E+02 -0.31237701369E+03  0.31878970887E+03  0.32701220512E+01 0.  0.
         13    1    3    3    0    0 -0.12817420795E+02 -0.57066768794E+02 -0.28347158756E+03  0.28944264256E+03  0.00000000000E+00 0.  1.
          1    1    3    3  501    0 -0.16162314772E+01 -0.48077476765E+01 -0.28905426122E+02  0.29347066313E+02  0.00000000000E+00 0.  1.
         -1    1    1    2    0  502  0.14433652272E+02  0.61874516471E+02 -0.68294210337E+03  0.68589117407E+03  0.00000000000E+00 0. -1.
<mgrwt>
<rscale>  1 0.30000000E+03</rscale>
<asrwt>0</asrwt>
<pdfrwt beam="1">  1       21 0.17021428E-01 0.30000000E+03</pdfrwt>
<pdfrwt beam="2">0</pdfrwt>
<totfact> 0.32538345E+03</totfact>
</mgrwt>
</event>
<event>
 6    1  0.6513574E-002  0.3000000E+03  0.7818608E-02  0.1093470E+00
         21   -1    0    0  501  502  0.00000000000E+00  0.00000000000E+00  0.11809402606E+02  0.11809402606E+02  0.00000000000E+00 0. -1.
         13   -1    0    0    0    0 -0.00000000000E+00 -0.00000000000E+00 -0.10000000000E+04  0.10000000000E+04  0.00000000000E+00 0.  1.
    9000005    2    1    2  501    0 -0.10578172895E+03  0.22318632719E+02 -0.54413746216E+03  0.55478524301E+03  0.36321599668E+01 0.  0.
         13    1    3    3    0    0 -0.60593357012E+02  0.14580424575E+02 -0.31538316532E+03  0.32148201297E+03  0.00000000000E+00 0.  1.
          1    1    3    3  501    0 -0.45188371939E+02  0.77382081437E+01 -0.22875429684E+03  0.23330323003E+03  0.00000000000E+00 0.  1.
         -3    1    1    2    0  502  0.10578172895E+03 -0.22318632719E+02 -0.44405313524E+03  0.45702415960E+03  0.00000000000E+00 0. -1.
<mgrwt>
<rscale>  1 0.30000000E+03</rscale>
<asrwt>0</asrwt>
<pdfrwt beam="1">  1       21 0.42943373E-01 0.30000000E+03</pdfrwt>
<pdfrwt beam="2">0</pdfrwt>
<totfact> 0.52024898E+02</totfact>
</mgrwt>
</event>
<event>
 6    1  0.6513574E-002  0.3000000E+03  0.7818608E-02  0.1093470E+00
         21   -1    0    0  501  502  0.00000000000E+00  0.00000000000E+00  0.20511648702E+01  0.20511648702E+01  0.00000000000E+00 0. -1.
         13   -1    0    0    0    0 -0.00000000000E+00 -0.00000000000E+00 -0.10000000000E+04  0.10000000000E+04  0.00000000000E+00 0.  1.
    9000005    2    1    2  501    0  0.10829541906E+02  0.43457806873E+02 -0.51807455214E+03  0.52009142856E+03  0.93804329916E+01 0.  0.
         13    1    3    3    0    0 -0.57069779839E+00  0.88918097856E+00 -0.33630084604E+02  0.33646677834E+02  0.00000000000E+00 0.  1.
          1    1    3    3  501    0  0.11400239704E+02  0.42568625894E+02 -0.48444446754E+03  0.48644475072E+03  0.00000000000E+00 0.  1.
         -3    1    1    2    0  502 -0.10829541906E+02 -0.43457806873E+02 -0.47987428299E+03  0.48195973631E+03  0.00000000000E+00 0. -1.
<mgrwt>
<rscale>  1 0.30000000E+03</rscale>
<asrwt>0</asrwt>
<pdfrwt beam="1">  1       21 0.74587971E-02 0.30000000E+03</pdfrwt>
<pdfrwt beam="2">0</pdfrwt>
<totfact> 0.14443085E+04</totfact>
</mgrwt>
</event>
<event>
 6    1  0.6513574E-002  0.3000000E+03  0.7818608E-02  0.1093470E+00
         21   -1    0    0  501  502  0.00000000000E+00  0.00000000000E+00  0.11550262090E+01  0.11550262090E+01  0.00000000000E+00 0. -1.
         13   -1    0    0    0    0 -0.00000000000E+00 -0.00000000000E+00 -0.10000000000E+04  0.10000000000E+04  0.00000000000E+00 0.  1.
    9000005    2    1    2  501    0 -0.14860118820E+02  0.30369905168E+02 -0.52708638139E+03  0.52818639746E+03  0.42027074159E+01 0.  0.
         13    1    3    3    0    0 -0.10787391050E+02  0.23620614272E+02 -0.42794985003E+03  0.42873695358E+03  0.00000000000E+00 0.  1.
          3    1    3    3  501    0 -0.40727277697E+01  0.67492908956E+01 -0.99136531354E+02  0.99449443880E+02  0.00000000000E+00 0.  1.
         -3    1    1    2    0  502  0.14860118820E+02 -0.30369905168E+02 -0.47175859240E+03  0.47296862875E+03  0.00000000000E+00 0. -1.
<mgrwt>
<rscale>  1 0.30000000E+03</rscale>
<asrwt>0</asrwt>
<pdfrwt beam="1">  1       21 0.42001042E-02 0.30000000E+03</pdfrwt>
<pdfrwt beam="2">0</pdfrwt>
<totfact> 0.38724836E+04</totfact>
</mgrwt>
</event>
<event>
 6    1  0.6513574E-002  0.3000000E+03  0.7818608E-02  0.1093470E+00
         21   -1    0    0  501  502  0.00000000000E+00  0.00000000000E+00  0.33022392371E+01  0.33022392371E+01  0.00000000000E+00 0. -1.
         13   -1    0    0    0    0 -0.00000000000E+00 -0.00000000000E+00 -0.10000000000E+04  0.10000000000E+04  0.00000000000E+00 0.  1.
    9000005    2    1    2  501    0 -0.31434424672E+02  0.44178605367E+02 -0.33501654801E+03  0.33940322618E+03  0.43116441072E+01 0.  0.
         13    1    3    3    0    0 -0.11892164617E+02  0.19060411874E+02 -0.14891346629E+03  0.15059861660E+03  0.00000000000E+00 0.  1.
          3    1    3    3  501    0 -0.19542260056E+02  0.25118193493E+02 -0.18610308172E+03  0.18880460958E+03  0.00000000000E+00 0.  1.
         -1    1    1    2    0  502  0.31434424672E+02 -0.44178605367E+02 -0.66168121275E+03  0.66389901305E+03  0.00000000000E+00 0. -1.
<mgrwt>
<rscale>  1 0.30000000E+03</rscale>
<asrwt>0</asrwt>
<pdfrwt beam="1">  1       21 0.12008168E-01 0.30000000E+03</pdfrwt>
<pdfrwt beam="2">0</pdfrwt>
<totfact> 0.61894713E+03</totfact>
</mgrwt>
</event>
<event>
 6    1  0.6513574E-002  0.3000000E+03  0.7818608E-02  0.1093470E+00
         21   -1    0    0  501  502  0.00000000000E+00  0.00000000000E+00  0.37682116148E+01  0.37682116148E+01  0.00000000000E+00 0. -1.
         13   -1    0    0    0    0 -0.00000000000E+00 -0.00000000000E+00 -0.10000000000E+04  0.10000000000E+04  0.00000000000E+00 0.  1.
    9000005    2    1    2  501    0  0.47417582616E+02  0.18253299645E+02 -0.21744032367E+03  0.22332106055E+03  0.32236065325E+01 0.  0.
         13    1    3    3    0    0  0.28888261175E+02  0.12766131078E+02 -0.13619764948E+03  0.13981167855E+03  0.00000000000E+00 0.  1.
          3    1    3    3  501    0  0.18529321441E+02  0.54871685669E+01 -0.81242674190E+02  0.83509381996E+02  0.00000000000E+00 0.  1.
         -1    1    1    2    0  502 -0.47417582616E+02 -0.18253299645E+02 -0.77879146472E+03  0.78044715107E+03  0.00000000000E+00 0. -1.
<mgrwt>
<rscale>  1 0.30000000E+03</rscale>
<asrwt>0</asrwt>
<pdfrwt beam="1">  1       21 0.13702617E-01 0.30000000E+03</pdfrwt>
<pdfrwt beam="2">0</pdfrwt>
<totfact> 0.48646640E+03</totfact>
</mgrwt>
</event>
<event>
 6    1  0.6513574E-002  0.3000000E+03  0.7818608E-02  0.1093470E+00
         21   -1    0    0  501  502  0.00000000000E+00  0.00000000000E+00  0.18821109802E+01  0.18821109802E+01  0.00000000000E+00 0. -1.
         13   -1    0    0    0    0 -0.00000000000E+00 -0.00000000000E+00 -0.10000000000E+04  0.10000000000E+04  0.00000000000E+00 0.  1.
    9000005    2    1    2  501    0  0.18355149603E+02  0.29993378526E+02 -0.79196965564E+03  0.79275629145E+03  0.31761442288E+01 0.  0.
         13    1    3    3    0    0  0.16379086372E+02  0.25448449816E+02 -0.65967051166E+03  0.66036435550E+03  0.00000000000E+00 0.  1.
          1    1    3    3  501    0  0.19760632315E+01  0.45449287097E+01 -0.13229914399E+03  0.13239193594E+03  0.00000000000E+00 0.  1.
         -1    1    1    2    0  502 -0.18355149603E+02 -0.29993378526E+02 -0.20614823338E+03  0.20912581954E+03  0.00000000000E+00 0. -1.
<mgrwt>
<rscale>  1 0.30000000E+03</rscale>
<asrwt>0</asrwt>
<pdfrwt beam="1">  1       21 0.68440544E-02 0.30000000E+03</pdfrwt>
<pdfrwt beam="2">0</pdfrwt>
<totfact> 0.16779927E+04</totfact>
</mgrwt>
</event>
<event>
 6    1  0.6513574E-002  0.3000000E+03  0.7818608E-02  0.1093470E+00
         21   -1    0    0  501  502  0.00000000000E+00  0.00000000000E+00  0.12327075321E+01  0.12327075321E+01  0.00000000000E+00 0. -1.
         13   -1    0    0    0    0 -0.00000000000E+00 -0.00000000000E+00 -0.10000000000E+04  0.10000000000E+04  0.00000000000E+00 0.  1.
    9000005    2    1    2  501    0 -0.54495627535E+01  0.30201290575E+02 -0.25979796300E+03  0.26162640308E+03  0.34025761803E+01 0.  0.
         13    1    3    3    0    0 -0.40229758615E+01  0.19423912097E+02 -0.15430683049E+03  0.15557657481E+03  0.00000000000E+00 0.  1.
          3    1    3    3  501    0 -0.14265868920E+01  0.10777378478E+02 -0.10549113252E+03  0.10604982827E+03  0.00000000000E+00 0.  1.
         -3    1    1    2    0  502  0.54495627535E+01 -0.30201290575E+02 -0.73896932947E+03  0.73960630445E+03  0.00000000000E+00 0. -1.
<mgrwt>
<rscale>  1 0.30000000E+03</rscale>
<asrwt>0</asrwt>
<pdfrwt beam="1">  1       21 0.44825823E-02 0.30000000E+03</pdfrwt>
<pdfrwt beam="2">0</pdfrwt>
<totfact> 0.34685663E+04</totfact>
</mgrwt>
</event>
<event>
 6    1  0.6513574E-002  0.3000000E+03  0.7818608E-02  0.1093470E+00
         21   -1    0    0  501  502  0.00000000000E+00  0.00000000000E+00  0.13553387205E+01  0.13553387205E+01  0.00000000000E+00 0. -1.
         13   -1    0    0    0    0 -0.00000000000E+00 -0.00000000000E+00 -0.10000000000E+04  0.10000000000E+04  0.00000000000E+00 0.  1.
    9000005    2    1    2  501    0 -0.17880298803E+02  0.31143339775E+02 -0.39933744686E+03  0.40097316881E+03  0.44128153115E+01 0.  0.
         13    1    3    3    0    0 -0.15123329961E+02  0.26319846455E+02 -0.31770085717E+03  0.31914774646E+03  0.00000000000E+00 0.  1.
          3    1    3    3  501    0 -0.27569688419E+01  0.48234933192E+01 -0.81636589698E+02  0.81825422349E+02  0.00000000000E+00 0.  1.
         -1    1    1    2    0  502  0.17880298803E+02 -0.31143339775E+02 -0.59930721442E+03  0.60038216991E+03  0.00000000000E+00 0. -1.
<mgrwt>
<rscale>  1 0.30000000E+03</rscale>
<asrwt>0</asrwt>
<pdfrwt beam="1">  1       21 0.49285148E-02 0.30000000E+03</pdfrwt>
<pdfrwt beam="2">0</pdfrwt>
<totfact> 0.29520263E+04</totfact>
</mgrwt>
</event>
<event>
 6    1  0.6513574E-002  0.3000000E+03  0.7818608E-02  0.1093470E+00
         21   -1    0    0  501  502  0.00000000000E+00  0.00000000000E+00  0.38181356018E+01  0.38181356018E+01  0.00000000000E+00 0. -1.
         13   -1    0    0    0    0 -0.00000000000E+00 -0.00000000000E+00 -0.10000000000E+04  0.10000000000E+04  0.00000000000E+00 0.  1.
    9000005    2    1    2  501    0  0.22048325100E+02 -0.56805062572E+02 -0.41761464712E+03  0.42205102697E+03  0.34831172998E+01 0.  0.
         13    1    3    3    0    0  0.44813411551E+00 -0.13235430399E+01 -0.65781701270E+01  0.67249470320E+01  0.00000000000E+00 0.  1.
          1    1    3    3  501    0  0.21600190984E+02 -0.55481519532E+02 -0.41103647699E+03  0.41532607994E+03  0.00000000000E+00 0.  1.
         -3    1    1    2    0  502 -0.22048325100E+02  0.56805062572E+02 -0.57856721728E+03  0.58176710863E+03  0.00000000000E+00 0. -1.
<mgrwt>
<rscale>  1 0.30000000E+03</rscale>
<asrwt>0</asrwt>
<pdfrwt beam="1">  1       21 0.13884159E-01 0.30000000E+03</pdfrwt>
<pdfrwt beam="2">0</pdfrwt>
<totfact> 0.47485912E+03</totfact>
</mgrwt>
</event>
<event>
 6    1  0.6513574E-002  0.3000000E+03  0.7818608E-02  0.1093470E+00
         21   -1    0    0  501  502  0.00000000000E+00  0.00000000000E+00  0.17098522616E+01  0.17098522616E+01  0.00000000000E+00 0. -1.
         13   -1    0    0    0    0 -0.00000000000E+00 -0.00000000000E+00 -0.10000000000E+04  0.10000000000E+04  0.00000000000E+00 0.  1.
    9000005    2    1    2  501    0  0.40601965626E+02  0.23713861871E+01 -0.58223936007E+03  0.58367588115E+03  0.45517836689E+01 0.  0.
         13    1    3    3    0    0  0.98793400441E+01 -0.46244005251E+00 -0.16626718219E+03  0.16656107314E+03  0.00000000000E+00 0.  1.
          3    1    3    3  501    0  0.30722625582E+02  0.28338262396E+01 -0.41597217788E+03  0.41711480801E+03  0.00000000000E+00 0.  1.
         -1    1    1    2    0  502 -0.40601965626E+02 -0.23713861871E+01 -0.41605078767E+03  0.41803397111E+03  0.00000000000E+00 0. -1.
<mgrwt>
<rscale>  1 0.30000000E+03</rscale>
<asrwt>0</asrwt>
<pdfrwt beam="1">  1       21 0.62176577E-02 0.30000000E+03</pdfrwt>
<pdfrwt beam="2">0</pdfrwt>
<totfact> 0.19814769E+04</totfact>
</mgrwt>
</event>
<event>
 6    1  0.6513574E-002  0.3000000E+03  0.7818608E-02  0.1093470E+00
         21   -1    0    0  501  502  0.00000000000E+00  0.00000000000E+00  0.18271579595E+01  0.18271579595E+01  0.00000000000E+00 0. -1.
         13   -1    0    0    0    0 -0.00000000000E+00 -0.00000000000E+00 -0.10000000000E+04  0.10000000000E+04  0.00000000000E+00 0.  1.
    9000005    2    1    2  501    0 -0.32445430589E+02  0.27397148687E+02 -0.44928800717E+03  0.45130207073E+03  0.32459101726E+01 0.  0.
         13    1    3    3    0    0 -0.88234738160E+01  0.66368861192E+01 -0.10367744337E+03  0.10426367638E+03  0.00000000000E+00 0.  1.
          3    1    3    3  501    0 -0.23621956773E+02  0.20760262568E+02 -0.34561056380E+03  0.34703839435E+03  0.00000000000E+00 0.  1.
         -1    1    1    2    0  502  0.32445430589E+02 -0.27397148687E+02 -0.54888483487E+03  0.55052508723E+03  0.00000000000E+00 0. -1.
<mgrwt>
<rscale>  1 0.30000000E+03</rscale>
<asrwt>0</asrwt>
<pdfrwt beam="1">  1       21 0.66442248E-02 0.30000000E+03</pdfrwt>
<pdfrwt beam="2">0</pdfrwt>
<totfact> 0.17665433E+04</totfact>
</mgrwt>
</event>
<event>
 6    1  0.6513574E-002  0.3000000E+03  0.7818608E-02  0.1093470E+00
         21   -1    0    0  501  502  0.00000000000E+00  0.00000000000E+00  0.11261466477E+02  0.11261466477E+02  0.00000000000E+00 0. -1.
         13   -1    0    0    0    0 -0.00000000000E+00 -0.00000000000E+00 -0.10000000000E+04  0.10000000000E+04  0.00000000000E+00 0.  1.
    9000005    2    1    2  501    0 -0.59107850949E+02  0.80121976302E+02 -0.66908855443E+03  0.67646394817E+03  0.32726705740E+01 0.  0.
         13    1    3    3    0    0 -0.23800379399E+01  0.27743488726E+01 -0.21062140418E+02  0.21376981809E+02  0.00000000000E+00 0.  1.
          1    1    3    3  501    0 -0.56727813009E+02  0.77347627429E+02 -0.64802641402E+03  0.65508696636E+03  0.00000000000E+00 0.  1.
         -3    1    1    2    0  502  0.59107850949E+02 -0.80121976302E+02 -0.31964997909E+03  0.33479751830E+03  0.00000000000E+00 0. -1.
<mgrwt>
<rscale>  1 0.30000000E+03</rscale>
<asrwt>0</asrwt>
<pdfrwt beam="1">  1       21 0.40950874E-01 0.30000000E+03</pdfrwt>
<pdfrwt beam="2">0</pdfrwt>
<totfact> 0.57504015E+02</totfact>
</mgrwt>
</event>
<event>
 6    1  0.6513574E-002  0.3000000E+03  0.7818608E-02  0.1093470E+00
         21   -1    0    0  501  502  0.00000000000E+00  0.00000000000E+00  0.17936373449E+01  0.17936373449E+01  0.00000000000E+00 0. -1.
         13   -1    0    0    0    0 -0.00000000000E+00 -0.00000000000E+00 -0.10000000000E+04  0.10000000000E+04  0.00000000000E+00 0.  1.
    9000005    2    1    2  501    0  0.31677371488E+02 -0.13218748627E+02 -0.79203797465E+03  0.79278742837E+03  0.30922654823E+01 0.  0.
         13    1    3    3    0    0  0.29972346022E+02 -0.13071518170E+02 -0.76121792466E+03  0.76191990061E+03  0.00000000000E+00 0.  1.
          3    1    3    3  501    0  0.17050254663E+01 -0.14723045611E+00 -0.30820049989E+02  0.30867527760E+02  0.00000000000E+00 0.  1.
         -1    1    1    2    0  502 -0.31677371488E+02  0.13218748627E+02 -0.20616838800E+03  0.20900620898E+03  0.00000000000E+00 0. -1.
<mgrwt>
<rscale>  1 0.30000000E+03</rscale>
<asrwt>0</asrwt>
<pdfrwt beam="1">  1       21 0.65223314E-02 0.30000000E+03</pdfrwt>
<pdfrwt beam="2">0</pdfrwt>
<totfact> 0.18241391E+04</totfact>
</mgrwt>
</event>
<event>
 6    1  0.6513574E-002  0.3000000E+03  0.7818608E-02  0.1093470E+00
         21   -1    0    0  501  502  0.00000000000E+00  0.00000000000E+00  0.77406354718E+01  0.77406354718E+01  0.00000000000E+00 0. -1.
         13   -1    0    0    0    0 -0.00000000000E+00 -0.00000000000E+00 -0.10000000000E+04  0.10000000000E+04  0.00000000000E+00 0.  1.
    9000005    2    1    2  501    0 -0.70335221893E+02 -0.21378299528E+02 -0.21989491408E+03  0.23188567516E+03  0.36218745680E+01 0.  0.
         13    1    3    3    0    0 -0.25965927917E+02 -0.68710959651E+01 -0.75811724172E+02  0.80429216671E+02  0.00000000000E+00 0.  1.
          3    1    3    3  501    0 -0.44369293976E+02 -0.14507203563E+02 -0.14408318991E+03  0.15145645849E+03  0.00000000000E+00 0.  1.
         -1    1    1    2    0  502  0.70335221893E+02  0.21378299528E+02 -0.77236445044E+03  0.77585496031E+03  0.00000000000E+00 0. -1.
<mgrwt>
<rscale>  1 0.30000000E+03</rscale>
<asrwt>0</asrwt>
<pdfrwt beam="1">  1       21 0.28147825E-01 0.30000000E+03</pdfrwt>
<pdfrwt beam="2">0</pdfrwt>
<totfact> 0.12344399E+03</totfact>
</mgrwt>
</event>
<event>
 6    1  0.6513574E-002  0.3000000E+03  0.7818608E-02  0.1093470E+00
         21   -1    0    0  501  502  0.00000000000E+00  0.00000000000E+00  0.13118796010E+01  0.13118796010E+01  0.00000000000E+00 0. -1.
         13   -1    0    0    0    0 -0.00000000000E+00 -0.00000000000E+00 -0.10000000000E+04  0.10000000000E+04  0.00000000000E+00 0.  1.
    9000005    2    1    2  501    0  0.16773643718E+02 -0.31927733324E+02 -0.46610679461E+03  0.46751078944E+03  0.31715897851E+01 0.  0.
         13    1    3    3    0    0  0.15404708752E+02 -0.27415332495E+02 -0.39728232428E+03  0.39852496872E+03  0.00000000000E+00 0.  1.
          3    1    3    3  501    0  0.13689349661E+01 -0.45124008286E+01 -0.68824470327E+02  0.68985820717E+02  0.00000000000E+00 0.  1.
         -1    1    1    2    0  502 -0.16773643718E+02  0.31927733324E+02 -0.53258132579E+03  0.53380109016E+03  0.00000000000E+00 0. -1.
<mgrwt>
<rscale>  1 0.30000000E+03</rscale>
<asrwt>0</asrwt>
<pdfrwt beam="1">  1       21 0.47704813E-02 0.30000000E+03</pdfrwt>
<pdfrwt beam="2">0</pdfrwt>
<totfact> 0.31204331E+04</totfact>
</mgrwt>
</event>
<event>
 6    1  0.6513574E-002  0.3000000E+03  0.7818608E-02  0.1093470E+00
         21   -1    0    0  501  502  0.00000000000E+00  0.00000000000E+00  0.29190116898E+01  0.29190116898E+01  0.00000000000E+00 0. -1.
         13   -1    0    0    0    0 -0.00000000000E+00 -0.00000000000E+00 -0.10000000000E+04  0.10000000000E+04  0.00000000000E+00 0.  1.
    9000005    2    1    2  501    0 -0.37904228668E+02  0.30991252690E+01 -0.14338360672E+03  0.14837494936E+03  0.31514747799E+01 0.  0.
         13    1    3    3    0    0 -0.56443043141E+01 -0.65283762003E+00 -0.20847744210E+02  0.21608165280E+02  0.00000000000E+00 0.  1.
          1    1    3    3  501    0 -0.32259924354E+02  0.37519628890E+01 -0.12253586251E+03  0.12676678408E+03  0.00000000000E+00 0.  1.
         -1    1    1    2    0  502  0.37904228668E+02 -0.30991252690E+01 -0.85369738159E+03  0.85454406233E+03  0.00000000000E+00 0. -1.
<mgrwt>
<rscale>  1 0.30000000E+03</rscale>
<asrwt>0</asrwt>
<pdfrwt beam="1">  1       21 0.10614610E-01 0.30000000E+03</pdfrwt>
<pdfrwt beam="2">0</pdfrwt>
<totfact> 0.77318700E+03</totfact>
</mgrwt>
</event>
<event>
 6    1  0.6513574E-002  0.3000000E+03  0.7818608E-02  0.1093470E+00
         21   -1    0    0  501  502  0.00000000000E+00  0.00000000000E+00  0.20820638991E+01  0.20820638991E+01  0.00000000000E+00 0. -1.
         13   -1    0    0    0    0 -0.00000000000E+00 -0.00000000000E+00 -0.10000000000E+04  0.10000000000E+04  0.00000000000E+00 0.  1.
    9000005    2    1    2  501    0  0.76450454976E+01 -0.39045814472E+02 -0.74347175555E+03  0.74454394799E+03  0.35237538978E+01 0.  0.
         13    1    3    3    0    0  0.89099113194E+00 -0.10160549174E+02 -0.17050315455E+03  0.17080795162E+03  0.00000000000E+00 0.  1.
          1    1    3    3  501    0  0.67540543656E+01 -0.28885265298E+02 -0.57296860100E+03  0.57373599637E+03  0.00000000000E+00 0.  1.
         -3    1    1    2    0  502 -0.76450454976E+01  0.39045814472E+02 -0.25444618056E+03  0.25753811591E+03  0.00000000000E+00 0. -1.
<mgrwt>
<rscale>  1 0.30000000E+03</rscale>
<asrwt>0</asrwt>
<pdfrwt beam="1">  1       21 0.75711574E-02 0.30000000E+03</pdfrwt>
<pdfrwt beam="2">0</pdfrwt>
<totfact> 0.14069860E+04</totfact>
</mgrwt>
</event>
<event>
 6    1  0.6513574E-002  0.3000000E+03  0.7818608E-02  0.1093470E+00
         21   -1    0    0  501  502  0.00000000000E+00  0.00000000000E+00  0.10933961113E+01  0.10933961113E+01  0.00000000000E+00 0. -1.
         13   -1    0    0    0    0 -0.00000000000E+00 -0.00000000000E+00 -0.10000000000E+04  0.10000000000E+04  0.00000000000E+00 0.  1.
    9000005    2    1    2  501    0  0.30453648306E+02 -0.11232995325E+02 -0.53843173671E+03  0.53947590491E+03  0.84800945543E+01 0.  0.
         13    1    3    3    0    0  0.19952731785E+02 -0.11430809914E+02 -0.35553372646E+03  0.35627658578E+03  0.00000000000E+00 0.  1.
          1    1    3    3  501    0  0.10500916520E+02  0.19781458966E+00 -0.18289801024E+03  0.18319931913E+03  0.00000000000E+00 0.  1.
         -1    1    1    2    0  502 -0.30453648306E+02  0.11232995325E+02 -0.46047486718E+03  0.46161749120E+03  0.00000000000E+00 0. -1.
<mgrwt>
<rscale>  1 0.30000000E+03</rscale>
<asrwt>0</asrwt>
<pdfrwt beam="1">  1       21 0.39759942E-02 0.30000000E+03</pdfrwt>
<pdfrwt beam="2">0</pdfrwt>
<totfact> 0.42475663E+04</totfact>
</mgrwt>
</event>
<event>
 6    1  0.6513574E-002  0.3000000E+03  0.7818608E-02  0.1093470E+00
         21   -1    0    0  501  502  0.00000000000E+00  0.00000000000E+00  0.11109344128E+01  0.11109344128E+01  0.00000000000E+00 0. -1.
         13   -1    0    0    0    0 -0.00000000000E+00 -0.00000000000E+00 -0.10000000000E+04  0.10000000000E+04  0.00000000000E+00 0.  1.
    9000005    2    1    2  501    0 -0.88501980790E+01 -0.31561233887E+02 -0.41740025806E+03  0.41869899191E+03  0.33812582575E+01 0.  0.
         13    1    3    3    0    0 -0.49673983141E+01 -0.23213117889E+02 -0.30458259026E+03  0.30550626537E+03  0.00000000000E+00 0.  1.
          1    1    3    3  501    0 -0.38827997649E+01 -0.83481159976E+01 -0.11281766780E+03  0.11319272654E+03  0.00000000000E+00 0.  1.
         -3    1    1    2    0  502  0.88501980790E+01  0.31561233887E+02 -0.58148880753E+03  0.58241194250E+03  0.00000000000E+00 0. -1.
<mgrwt>
<rscale>  1 0.30000000E+03</rscale>
<asrwt>0</asrwt>
<pdfrwt beam="1">  1       21 0.40397700E-02 0.30000000E+03</pdfrwt>
<pdfrwt beam="2">0</pdfrwt>
<totfact> 0.41352410E+04</totfact>
</mgrwt>
</event>
<event>
 6    1  0.6513574E-002  0.3000000E+03  0.7818608E-02  0.1093470E+00
         21   -1    0    0  501  502  0.00000000000E+00  0.00000000000E+00  0.66806925728E+01  0.66806925728E+01  0.00000000000E+00 0. -1.
         13   -1    0    0    0    0 -0.00000000000E+00 -0.00000000000E+00 -0.10000000000E+04  0.10000000000E+04  0.00000000000E+00 0.  1.
    9000005    2    1    2  501    0  0.62703815998E+02 -0.50166475237E+02 -0.58964204676E+03  0.59509379463E+03  0.32306843635E+01 0.  0.
         13    1    3    3    0    0  0.10298332044E+02 -0.83276710885E+01 -0.10643541884E+03  0.10725625451E+03  0.00000000000E+00 0.  1.
          3    1    3    3  501    0  0.52405483954E+02 -0.41838804148E+02 -0.48320662792E+03  0.48783754012E+03  0.00000000000E+00 0.  1.
         -3    1    1    2    0  502 -0.62703815998E+02  0.50166475237E+02 -0.40367726067E+03  0.41158689794E+03  0.00000000000E+00 0. -1.
<mgrwt>
<rscale>  1 0.30000000E+03</rscale>
<asrwt>0</asrwt>
<pdfrwt beam="1">  1       21 0.24293479E-01 0.30000000E+03</pdfrwt>
<pdfrwt beam="2">0</pdfrwt>
<totfact> 0.16494071E+03</totfact>
</mgrwt>
</event>
<event>
 6    1  0.6513574E-002  0.3000000E+03  0.7818608E-02  0.1093470E+00
         21   -1    0    0  501  502  0.00000000000E+00  0.00000000000E+00  0.47093281258E+01  0.47093281258E+01  0.00000000000E+00 0. -1.
         13   -1    0    0    0    0 -0.00000000000E+00 -0.00000000000E+00 -0.10000000000E+04  0.10000000000E+04  0.00000000000E+00 0.  1.
    9000005    2    1    2  501    0 -0.41168212776E+02 -0.27545997318E+02 -0.15089667588E+03  0.15886370144E+03  0.37769210048E+01 0.  0.
         13    1    3    3    0    0 -0.60168694413E+01 -0.34443031630E+01 -0.25287457975E+02  0.26220630675E+02  0.00000000000E+00 0.  1.
          3    1    3    3  501    0 -0.35151343335E+02 -0.24101694155E+02 -0.12560921790E+03  0.13264307076E+03  0.00000000000E+00 0.  1.
         -1    1    1    2    0  502  0.41168212776E+02  0.27545997318E+02 -0.84439399600E+03  0.84584562669E+03  0.00000000000E+00 0. -1.
<mgrwt>
<rscale>  1 0.30000000E+03</rscale>
<asrwt>0</asrwt>
<pdfrwt beam="1">  1       21 0.17124866E-01 0.30000000E+03</pdfrwt>
<pdfrwt beam="2">0</pdfrwt>
<totfact> 0.32171071E+03</totfact>
</mgrwt>
</event>
<event>
 6    1  0.6513574E-002  0.3000000E+03  0.7818608E-02  0.1093470E+00
         21   -1    0    0  501  502  0.00000000000E+00  0.00000000000E+00  0.17992037028E+01  0.17992037028E+01  0.00000000000E+00 0. -1.
         13   -1    0    0    0    0 -0.00000000000E+00 -0.00000000000E+00 -0.10000000000E+04  0.10000000000E+04  0.00000000000E+00 0.  1.
    9000005    2    1    2  501    0  0.21610309287E+02 -0.34634348509E+02 -0.63309003874E+03  0.63441329100E+03  0.32684995224E+01 0.  0.
         13    1    3    3    0    0  0.38385753007E+01 -0.86932464739E+01 -0.15161766430E+03  0.15191518464E+03  0.00000000000E+00 0.  1.
          1    1    3    3  501    0  0.17771733986E+02 -0.25941102035E+02 -0.48147237444E+03  0.48249810637E+03  0.00000000000E+00 0.  1.
         -3    1    1    2    0  502 -0.21610309287E+02  0.34634348509E+02 -0.36511075756E+03  0.36738591270E+03  0.00000000000E+00 0. -1.
<mgrwt>
<rscale>  1 0.30000000E+03</rscale>
<asrwt>0</asrwt>
<pdfrwt beam="1">  1       21 0.65425727E-02 0.30000000E+03</pdfrwt>
<pdfrwt beam="2">0</pdfrwt>
<totfact> 0.18143762E+04</totfact>
</mgrwt>
</event>
<event>
 6    1  0.6513574E-002  0.3000000E+03  0.7818608E-02  0.1093470E+00
         21   -1    0    0  501  502  0.00000000000E+00  0.00000000000E+00  0.10253949744E+01  0.10253949744E+01  0.00000000000E+00 0. -1.
         13   -1    0    0    0    0 -0.00000000000E+00 -0.00000000000E+00 -0.10000000000E+04  0.10000000000E+04  0.00000000000E+00 0.  1.
    9000005    2    1    2  501    0  0.25226046558E+02 -0.17060432706E+02 -0.65109894993E+03  0.65181931943E+03  0.33422736077E+01 0.  0.
         13    1    3    3    0    0  0.11840046191E+02 -0.98398943988E+01 -0.31265126171E+03  0.31303006511E+03  0.00000000000E+00 0.  1.
          1    1    3    3  501    0  0.13386000367E+02 -0.72205383067E+01 -0.33844768822E+03  0.33878925432E+03  0.00000000000E+00 0.  1.
         -3    1    1    2    0  502 -0.25226046558E+02  0.17060432706E+02 -0.34787565510E+03  0.34920607555E+03  0.00000000000E+00 0. -1.
<mgrwt>
<rscale>  1 0.30000000E+03</rscale>
<asrwt>0</asrwt>
<pdfrwt beam="1">  1       21 0.37287169E-02 0.30000000E+03</pdfrwt>
<pdfrwt beam="2">0</pdfrwt>
<totfact> 0.47317326E+04</totfact>
</mgrwt>
</event>
<event>
 6    1  0.6513574E-002  0.3000000E+03  0.7818608E-02  0.1093470E+00
         21   -1    0    0  501  502  0.00000000000E+00  0.00000000000E+00  0.93444885064E+00  0.93444885064E+00  0.00000000000E+00 0. -1.
         13   -1    0    0    0    0 -0.00000000000E+00 -0.00000000000E+00 -0.10000000000E+04  0.10000000000E+04  0.00000000000E+00 0.  1.
    9000005    2    1    2  501    0 -0.16870529978E+02 -0.25257801995E+02 -0.46334502682E+03  0.46435355883E+03  0.36114234923E+01 0.  0.
         13    1    3    3    0    0 -0.13540116100E+02 -0.20022387496E+02 -0.38888883419E+03  0.38963926407E+03  0.00000000000E+00 0.  1.
          1    1    3    3  501    0 -0.33304138771E+01 -0.52354144984E+01 -0.74456192625E+02  0.74714294762E+02  0.00000000000E+00 0.  1.
         -1    1    1    2    0  502  0.16870529978E+02  0.25257801995E+02 -0.53572052433E+03  0.53658089002E+03  0.00000000000E+00 0. -1.
<mgrwt>
<rscale>  1 0.30000000E+03</rscale>
<asrwt>0</asrwt>
<pdfrwt beam="1">  1       21 0.33980030E-02 0.30000000E+03</pdfrwt>
<pdfrwt beam="2">0</pdfrwt>
<totfact> 0.55285273E+04</totfact>
</mgrwt>
</event>
<event>
 6    1  0.6513574E-002  0.3000000E+03  0.7818608E-02  0.1093470E+00
         21   -1    0    0  501  502  0.00000000000E+00  0.00000000000E+00  0.32525874641E+01  0.32525874641E+01  0.00000000000E+00 0. -1.
         13   -1    0    0    0    0 -0.00000000000E+00 -0.00000000000E+00 -0.10000000000E+04  0.10000000000E+04  0.00000000000E+00 0.  1.
    9000005    2    1    2  501    0  0.27698423101E+02  0.31605276136E+02 -0.16052346186E+03  0.16597330801E+03  0.36415713363E+01 0.  0.
         13    1    3    3    0    0  0.23029103227E+02  0.25749478684E+02 -0.12623902404E+03  0.13088035161E+03  0.00000000000E+00 0.  1.
          1    1    3    3  501    0  0.46693198742E+01  0.58557974528E+01 -0.34284437826E+02  0.35092956401E+02  0.00000000000E+00 0.  1.
         -1    1    1    2    0  502 -0.27698423101E+02 -0.31605276136E+02 -0.83622395067E+03  0.83727927945E+03  0.00000000000E+00 0. -1.
<mgrwt>
<rscale>  1 0.30000000E+03</rscale>
<asrwt>0</asrwt>
<pdfrwt beam="1">  1       21 0.11827616E-01 0.30000000E+03</pdfrwt>
<pdfrwt beam="2">0</pdfrwt>
<totfact> 0.63618803E+03</totfact>
</mgrwt>
</event>
<event>
 6    1  0.6513574E-002  0.3000000E+03  0.7818608E-02  0.1093470E+00
         21   -1    0    0  501  502  0.00000000000E+00  0.00000000000E+00  0.13531961658E+01  0.13531961658E+01  0.00000000000E+00 0. -1.
         13   -1    0    0    0    0 -0.00000000000E+00 -0.00000000000E+00 -0.10000000000E+04  0.10000000000E+04  0.00000000000E+00 0.  1.
    9000005    2    1    2  501    0  0.19219747374E+02 -0.27123371648E+02 -0.71239804109E+03  0.71318062607E+03  0.32496899952E+01 0.  0.
         13    1    3    3    0    0  0.12222078109E+02 -0.18937383383E+02 -0.50623840319E+03  0.50673989832E+03  0.00000000000E+00 0.  1.
          1    1    3    3  501    0  0.69976692652E+01 -0.81859882643E+01 -0.20615963790E+03  0.20644072776E+03  0.00000000000E+00 0.  1.
         -1    1    1    2    0  502 -0.19219747374E+02  0.27123371648E+02 -0.28624876275E+03  0.28817257009E+03  0.00000000000E+00 0. -1.
<mgrwt>
<rscale>  1 0.30000000E+03</rscale>
<asrwt>0</asrwt>
<pdfrwt beam="1">  1       21 0.49207237E-02 0.30000000E+03</pdfrwt>
<pdfrwt beam="2">0</pdfrwt>
<totfact> 0.29599929E+04</totfact>
</mgrwt>
</event>
<event>
 6    1  0.6513574E-002  0.3000000E+03  0.7818608E-02  0.1093470E+00
         21   -1    0    0  501  502  0.00000000000E+00  0.00000000000E+00  0.44988902816E+01  0.44988902816E+01  0.00000000000E+00 0. -1.
         13   -1    0    0    0    0 -0.00000000000E+00 -0.00000000000E+00 -0.10000000000E+04  0.10000000000E+04  0.00000000000E+00 0.  1.
    9000005    2    1    2  501    0 -0.64911346172E+02  0.12665858123E+02 -0.58021167668E+03  0.58397633438E+03  0.29770023202E+01 0.  0.
         13    1    3    3    0    0 -0.25453975395E+02  0.64500909229E+01 -0.22984554607E+03  0.23134062243E+03  0.00000000000E+00 0.  1.
          1    1    3    3  501    0 -0.39457370777E+02  0.62157672004E+01 -0.35036613061E+03  0.35263571196E+03  0.00000000000E+00 0.  1.
         -1    1    1    2    0  502  0.64911346172E+02 -0.12665858123E+02 -0.41528943304E+03  0.42052255590E+03  0.00000000000E+00 0. -1.
<mgrwt>
<rscale>  1 0.30000000E+03</rscale>
<asrwt>0</asrwt>
<pdfrwt beam="1">  1       21 0.16359636E-01 0.30000000E+03</pdfrwt>
<pdfrwt beam="2">0</pdfrwt>
<totfact> 0.35043018E+03</totfact>
</mgrwt>
</event>
<event>
 6    1  0.6513574E-002  0.3000000E+03  0.7818608E-02  0.1093470E+00
         21   -1    0    0  501  502  0.00000000000E+00  0.00000000000E+00  0.16932396973E+01  0.16932396973E+01  0.00000000000E+00 0. -1.
         13   -1    0    0    0    0 -0.00000000000E+00 -0.00000000000E+00 -0.10000000000E+04  0.10000000000E+04  0.00000000000E+00 0.  1.
    9000005    2    1    2  501    0 -0.36192261760E+02 -0.16364953572E+02 -0.62822500918E+03  0.62948604736E+03  0.28861980951E+01 0.  0.
         13    1    3    3    0    0 -0.30623412162E+02 -0.14943821191E+02 -0.53505809016E+03  0.53614202504E+03  0.00000000000E+00 0.  1.
          1    1    3    3  501    0 -0.55688495980E+01 -0.14211323816E+01 -0.93166919025E+02  0.93344022324E+02  0.00000000000E+00 0.  1.
         -3    1    1    2    0  502  0.36192261760E+02  0.16364953572E+02 -0.37008175112E+03  0.37220719234E+03  0.00000000000E+00 0. -1.
<mgrwt>
<rscale>  1 0.30000000E+03</rscale>
<asrwt>0</asrwt>
<pdfrwt beam="1">  1       21 0.61572482E-02 0.30000000E+03</pdfrwt>
<pdfrwt beam="2">0</pdfrwt>
<totfact> 0.20151687E+04</totfact>
</mgrwt>
</event>
<event>
 6    1  0.6513574E-002  0.3000000E+03  0.7818608E-02  0.1093470E+00
         21   -1    0    0  501  502  0.00000000000E+00  0.00000000000E+00  0.14986539346E+01  0.14986539346E+01  0.00000000000E+00 0. -1.
         13   -1    0    0    0    0 -0.00000000000E+00 -0.00000000000E+00 -0.10000000000E+04  0.10000000000E+04  0.00000000000E+00 0.  1.
    9000005    2    1    2  501    0  0.18606397727E+02  0.25878409895E+02 -0.21775990448E+03  0.22010689000E+03  0.34317475931E+01 0.  0.
         13    1    3    3    0    0  0.10082958457E+01  0.19483857055E+01 -0.10283046563E+02  0.10514462135E+02  0.00000000000E+00 0.  1.
          1    1    3    3  501    0  0.17598101881E+02  0.23930024189E+02 -0.20747685791E+03  0.20959242786E+03  0.00000000000E+00 0.  1.
         -1    1    1    2    0  502 -0.18606397727E+02 -0.25878409895E+02 -0.78074144159E+03  0.78139176394E+03  0.00000000000E+00 0. -1.
<mgrwt>
<rscale>  1 0.30000000E+03</rscale>
<asrwt>0</asrwt>
<pdfrwt beam="1">  1       21 0.54496622E-02 0.30000000E+03</pdfrwt>
<pdfrwt beam="2">0</pdfrwt>
<totfact> 0.24862923E+04</totfact>
</mgrwt>
</event>
<event>
 6    1  0.6513574E-002  0.3000000E+03  0.7818608E-02  0.1093470E+00
         21   -1    0    0  501  502  0.00000000000E+00  0.00000000000E+00  0.10978531965E+01  0.10978531965E+01  0.00000000000E+00 0. -1.
         13   -1    0    0    0    0 -0.00000000000E+00 -0.00000000000E+00 -0.10000000000E+04  0.10000000000E+04  0.00000000000E+00 0.  1.
    9000005    2    1    2  501    0  0.32986643209E+01  0.31838718871E+02 -0.43927385761E+03  0.44055489564E+03  0.10124667066E+02 0.  0.
         13    1    3    3    0    0  0.47173117931E+01  0.29152832448E+02 -0.35497670916E+03  0.35620303861E+03  0.00000000000E+00 0.  1.
          1    1    3    3  501    0 -0.14186474722E+01  0.26858864231E+01 -0.84297148453E+02  0.84351857027E+02  0.00000000000E+00 0.  1.
         -1    1    1    2    0  502 -0.32986643209E+01 -0.31838718871E+02 -0.55962828919E+03  0.56054295756E+03  0.00000000000E+00 0. -1.
<mgrwt>
<rscale>  1 0.30000000E+03</rscale>
<asrwt>0</asrwt>
<pdfrwt beam="1">  1       21 0.39922019E-02 0.30000000E+03</pdfrwt>
<pdfrwt beam="2">0</pdfrwt>
<totfact> 0.42185723E+04</totfact>
</mgrwt>
</event>
<event>
 6    1  0.6513574E-002  0.3000000E+03  0.7818608E-02  0.1093470E+00
         21   -1    0    0  501  502  0.00000000000E+00  0.00000000000E+00  0.91897869672E+01  0.91897869672E+01  0.00000000000E+00 0. -1.
         13   -1    0    0    0    0 -0.00000000000E+00 -0.00000000000E+00 -0.10000000000E+04  0.10000000000E+04  0.00000000000E+00 0.  1.
    9000005    2    1    2  501    0 -0.36267260855E+02 -0.88703731650E+02 -0.49826195360E+03  0.50740551650E+03  0.34230907672E+01 0.  0.
         13    1    3    3    0    0 -0.34779328018E+01 -0.10163872631E+02 -0.51351754256E+02  0.52463349003E+02  0.00000000000E+00 0.  1.
          1    1    3    3  501    0 -0.32789328053E+02 -0.78539859019E+02 -0.44691019934E+03  0.45494216749E+03  0.00000000000E+00 0.  1.
         -3    1    1    2    0  502  0.36267260855E+02  0.88703731650E+02 -0.49254825944E+03  0.50178427047E+03  0.00000000000E+00 0. -1.
<mgrwt>
<rscale>  1 0.30000000E+03</rscale>
<asrwt>0</asrwt>
<pdfrwt beam="1">  1       21 0.33417478E-01 0.30000000E+03</pdfrwt>
<pdfrwt beam="2">0</pdfrwt>
<totfact> 0.87457042E+02</totfact>
</mgrwt>
</event>
<event>
 6    1  0.6513574E-002  0.3000000E+03  0.7818608E-02  0.1093470E+00
         21   -1    0    0  501  502  0.00000000000E+00  0.00000000000E+00  0.20036444590E+01  0.20036444590E+01  0.00000000000E+00 0. -1.
         13   -1    0    0    0    0 -0.00000000000E+00 -0.00000000000E+00 -0.10000000000E+04  0.10000000000E+04  0.00000000000E+00 0.  1.
    9000005    2    1    2  501    0 -0.32829058883E+02 -0.26564987762E+02 -0.66401419289E+03  0.66536209823E+03  0.29030522935E+01 0.  0.
         13    1    3    3    0    0 -0.15055034689E+02 -0.13125600196E+02 -0.33357497339E+03  0.33417240808E+03  0.00000000000E+00 0.  1.
          3    1    3    3  501    0 -0.17774024194E+02 -0.13439387566E+02 -0.33043921950E+03  0.33118969014E+03  0.00000000000E+00 0.  1.
         -1    1    1    2    0  502  0.32829058883E+02  0.26564987762E+02 -0.33398216265E+03  0.33664154623E+03  0.00000000000E+00 0. -1.
<mgrwt>
<rscale>  1 0.30000000E+03</rscale>
<asrwt>0</asrwt>
<pdfrwt beam="1">  1       21 0.72859952E-02 0.30000000E+03</pdfrwt>
<pdfrwt beam="2">0</pdfrwt>
<totfact> 0.15047317E+04</totfact>
</mgrwt>
</event>
<event>
 6    1  0.6513574E-002  0.3000000E+03  0.7818608E-02  0.1093470E+00
         21   -1    0    0  501  502  0.00000000000E+00  0.00000000000E+00  0.12620025959E+01  0.12620025959E+01  0.00000000000E+00 0. -1.
         13   -1    0    0    0    0 -0.00000000000E+00 -0.00000000000E+00 -0.10000000000E+04  0.10000000000E+04  0.00000000000E+00 0.  1.
    9000005    2    1    2  501    0  0.20401744246E+02  0.27669079331E+02 -0.61857000674E+03  0.61954285159E+03  0.47626251514E+01 0.  0.
         13    1    3    3    0    0 -0.82110434406E-01  0.93674862273E+00 -0.25571440005E+02  0.25588723767E+02  0.00000000000E+00 0.  1.
          3    1    3    3  501    0  0.20483854680E+02  0.26732330708E+02 -0.59299856674E+03  0.59395412783E+03  0.00000000000E+00 0.  1.
         -1    1    1    2    0  502 -0.20401744246E+02 -0.27669079331E+02 -0.38016799066E+03  0.38171915100E+03  0.00000000000E+00 0. -1.
<mgrwt>
<rscale>  1 0.30000000E+03</rscale>
<asrwt>0</asrwt>
<pdfrwt beam="1">  1       21 0.45891100E-02 0.30000000E+03</pdfrwt>
<pdfrwt beam="2">0</pdfrwt>
<totfact> 0.33329724E+04</totfact>
</mgrwt>
</event>
<event>
 6    1  0.6513574E-002  0.3000000E+03  0.7818608E-02  0.1093470E+00
         21   -1    0    0  501  502  0.00000000000E+00  0.00000000000E+00  0.21506041275E+01  0.21506041275E+01  0.00000000000E+00 0. -1.
         13   -1    0    0    0    0 -0.00000000000E+00 -0.00000000000E+00 -0.10000000000E+04  0.10000000000E+04  0.00000000000E+00 0.  1.
    9000005    2    1    2  501    0 -0.31529120180E+02  0.97259732300E+01 -0.14851790687E+03  0.15217845271E+03  0.34688374768E+01 0.  0.
         13    1    3    3    0    0 -0.12224431395E+02  0.45696079346E+01 -0.51866042754E+02  0.53482748906E+02  0.00000000000E+00 0.  1.
          3    1    3    3  501    0 -0.19304688786E+02  0.51563652954E+01 -0.96651864114E+02  0.98695703801E+02  0.00000000000E+00 0.  1.
         -3    1    1    2    0  502  0.31529120180E+02 -0.97259732300E+01 -0.84933148900E+03  0.84997215142E+03  0.00000000000E+00 0. -1.
<mgrwt>
<rscale>  1 0.30000000E+03</rscale>
<asrwt>0</asrwt>
<pdfrwt beam="1">  1       21 0.78203951E-02 0.30000000E+03</pdfrwt>
<pdfrwt beam="2">0</pdfrwt>
<totfact> 0.13293293E+04</totfact>
</mgrwt>
</event>
<event>
 6    1  0.6513574E-002  0.3000000E+03  0.7818608E-02  0.1093470E+00
         21   -1    0    0  501  502  0.00000000000E+00  0.00000000000E+00  0.15658756867E+01  0.15658756867E+01  0.00000000000E+00 0. -1.
         13   -1    0    0    0    0 -0.00000000000E+00 -0.00000000000E+00 -0.10000000000E+04  0.10000000000E+04  0.00000000000E+00 0.  1.
    9000005    2    1    2  501    0 -0.28920016455E+02 -0.24902048270E+02 -0.37435095951E+03  0.37631690451E+03  0.43923089915E+01 0.  0.
         13    1    3    3    0    0 -0.94912293531E+01 -0.57697115707E+01 -0.10065546719E+03  0.10126646079E+03  0.00000000000E+00 0.  1.
          3    1    3    3  501    0 -0.19428787102E+02 -0.19132336699E+02 -0.27369549232E+03  0.27505044372E+03  0.00000000000E+00 0.  1.
         -1    1    1    2    0  502  0.28920016455E+02  0.24902048270E+02 -0.62408316480E+03  0.62524897117E+03  0.00000000000E+00 0. -1.
<mgrwt>
<rscale>  1 0.30000000E+03</rscale>
<asrwt>0</asrwt>
<pdfrwt beam="1">  1       21 0.56941054E-02 0.30000000E+03</pdfrwt>
<pdfrwt beam="2">0</pdfrwt>
<totfact> 0.23059248E+04</totfact>
</mgrwt>
</event>
<event>
 6    1  0.6513574E-002  0.3000000E+03  0.7818608E-02  0.1093470E+00
         21   -1    0    0  501  502  0.00000000000E+00  0.00000000000E+00  0.32218941953E+01  0.32218941953E+01  0.00000000000E+00 0. -1.
         13   -1    0    0    0    0 -0.00000000000E+00 -0.00000000000E+00 -0.10000000000E+04  0.10000000000E+04  0.00000000000E+00 0.  1.
    9000005    2    1    2  501    0  0.28739039275E+02  0.48232355512E+02 -0.42851255403E+03  0.43218946970E+03  0.35265078205E+01 0.  0.
         13    1    3    3    0    0  0.27164546457E+02  0.46139794708E+02 -0.41320461982E+03  0.41665915457E+03  0.00000000000E+00 0.  1.
          1    1    3    3  501    0  0.15744928175E+01  0.20925608042E+01 -0.15307934212E+02  0.15530315135E+02  0.00000000000E+00 0.  1.
         -3    1    1    2    0  502 -0.28739039275E+02 -0.48232355512E+02 -0.56826555177E+03  0.57103242450E+03  0.00000000000E+00 0. -1.
<mgrwt>
<rscale>  1 0.30000000E+03</rscale>
<asrwt>0</asrwt>
<pdfrwt beam="1">  1       21 0.11716004E-01 0.30000000E+03</pdfrwt>
<pdfrwt beam="2">0</pdfrwt>
<totfact> 0.64720619E+03</totfact>
</mgrwt>
</event>
<event>
 6    1  0.6513574E-002  0.3000000E+03  0.7818608E-02  0.1093470E+00
         21   -1    0    0  501  502  0.00000000000E+00  0.00000000000E+00  0.25720157500E+01  0.25720157500E+01  0.00000000000E+00 0. -1.
         13   -1    0    0    0    0 -0.00000000000E+00 -0.00000000000E+00 -0.10000000000E+04  0.10000000000E+04  0.00000000000E+00 0.  1.
    9000005    2    1    2  501    0 -0.25489832473E+02 -0.28600595553E+02 -0.82647203797E+03  0.82737595075E+03  0.52161955344E+01 0.  0.
         13    1    3    3    0    0 -0.59337765922E+01 -0.43216731152E+01 -0.18796950068E+03  0.18811278466E+03  0.00000000000E+00 0.  1.
          3    1    3    3  501    0 -0.19556055881E+02 -0.24278922438E+02 -0.63850253729E+03  0.63926316609E+03  0.00000000000E+00 0.  1.
         -1    1    1    2    0  502  0.25489832473E+02  0.28600595553E+02 -0.17095594628E+03  0.17519606500E+03  0.00000000000E+00 0. -1.
<mgrwt>
<rscale>  1 0.30000000E+03</rscale>
<asrwt>0</asrwt>
<pdfrwt beam="1">  1       21 0.93528043E-02 0.30000000E+03</pdfrwt>
<pdfrwt beam="2">0</pdfrwt>
<totfact> 0.96934266E+03</totfact>
</mgrwt>
</event>
<event>
 6    1  0.6513574E-002  0.3000000E+03  0.7818608E-02  0.1093470E+00
         21   -1    0    0  501  502  0.00000000000E+00  0.00000000000E+00  0.14612176117E+01  0.14612176117E+01  0.00000000000E+00 0. -1.
         13   -1    0    0    0    0 -0.00000000000E+00 -0.00000000000E+00 -0.10000000000E+04  0.10000000000E+04  0.00000000000E+00 0.  1.
    9000005    2    1    2  501    0 -0.29065372713E+02  0.22510679441E+02 -0.40422636345E+03  0.40601283372E+03  0.97949810704E+01 0.  0.
         13    1    3    3    0    0 -0.25098605854E+02  0.15484321324E+02 -0.28772861819E+03  0.28923599697E+03  0.00000000000E+00 0.  1.
          1    1    3    3  501    0 -0.39667668589E+01  0.70263581171E+01 -0.11649774527E+03  0.11677683675E+03  0.00000000000E+00 0.  1.
         -1    1    1    2    0  502  0.29065372713E+02 -0.22510679441E+02 -0.59431241893E+03  0.59544838389E+03  0.00000000000E+00 0. -1.
<mgrwt>
<rscale>  1 0.30000000E+03</rscale>
<asrwt>0</asrwt>
<pdfrwt beam="1">  1       21 0.53135298E-02 0.30000000E+03</pdfrwt>
<pdfrwt beam="2">0</pdfrwt>
<totfact> 0.25963394E+04</totfact>
</mgrwt>
</event>
<event>
 6    1  0.6513574E-002  0.3000000E+03  0.7818608E-02  0.1093470E+00
         21   -1    0    0  501  502  0.00000000000E+00  0.00000000000E+00  0.25787608606E+01  0.25787608606E+01  0.00000000000E+00 0. -1.
         13   -1    0    0    0    0 -0.00000000000E+00 -0.00000000000E+00 -0.10000000000E+04  0.10000000000E+04  0.00000000000E+00 0.  1.
    9000005    2    1    2  501    0 -0.16599911871E+02  0.47784727031E+02 -0.46094738273E+03  0.46372522248E+03  0.31072671835E+01 0.  0.
         13    1    3    3    0    0 -0.11485215810E+02  0.34616909279E+02 -0.34380054777E+03  0.34572974595E+03  0.00000000000E+00 0.  1.
          3    1    3    3  501    0 -0.51146960611E+01  0.13167817752E+02 -0.11714683496E+03  0.11799547653E+03  0.00000000000E+00 0.  1.
         -3    1    1    2    0  502  0.16599911871E+02 -0.47784727031E+02 -0.53647385641E+03  0.53885353838E+03  0.00000000000E+00 0. -1.
<mgrwt>
<rscale>  1 0.30000000E+03</rscale>
<asrwt>0</asrwt>
<pdfrwt beam="1">  1       21 0.93773320E-02 0.30000000E+03</pdfrwt>
<pdfrwt beam="2">0</pdfrwt>
<totfact> 0.96483770E+03</totfact>
</mgrwt>
</event>
<event>
 6    1  0.6513574E-002  0.3000000E+03  0.7818608E-02  0.1093470E+00
         21   -1    0    0  501  502  0.00000000000E+00  0.00000000000E+00  0.16295586861E+01  0.16295586861E+01  0.00000000000E+00 0. -1.
         13   -1    0    0    0    0 -0.00000000000E+00 -0.00000000000E+00 -0.10000000000E+04  0.10000000000E+04  0.00000000000E+00 0.  1.
    9000005    2    1    2  501    0 -0.34781886305E+02 -0.39569234572E+01 -0.25995844620E+03  0.26238825073E+03  0.66153996901E+01 0.  0.
         13    1    3    3    0    0 -0.23913725627E+02 -0.48804183483E+01 -0.16277038535E+03  0.16459004558E+03  0.00000000000E+00 0.  1.
          3    1    3    3  501    0 -0.10868160679E+02  0.92349489109E+00 -0.97188060846E+02  0.97798205148E+02  0.00000000000E+00 0.  1.
         -1    1    1    2    0  502  0.34781886305E+02  0.39569234572E+01 -0.73841199512E+03  0.73924130796E+03  0.00000000000E+00 0. -1.
<mgrwt>
<rscale>  1 0.30000000E+03</rscale>
<asrwt>0</asrwt>
<pdfrwt beam="1">  1       21 0.59256804E-02 0.30000000E+03</pdfrwt>
<pdfrwt beam="2">0</pdfrwt>
<totfact> 0.21529410E+04</totfact>
</mgrwt>
</event>
<event>
 6    1  0.6513574E-002  0.3000000E+03  0.7818608E-02  0.1093470E+00
         21   -1    0    0  501  502  0.00000000000E+00  0.00000000000E+00  0.19289669882E+01  0.19289669882E+01  0.00000000000E+00 0. -1.
         13   -1    0    0    0    0 -0.00000000000E+00 -0.00000000000E+00 -0.10000000000E+04  0.10000000000E+04  0.00000000000E+00 0.  1.
    9000005    2    1    2  501    0  0.85485834323E+01  0.42196222425E+02 -0.59382851583E+03  0.59540023226E+03  0.39409252454E+01 0.  0.
         13    1    3    3    0    0  0.80540148691E+01  0.39440936101E+02 -0.56660606113E+03  0.56803422705E+03  0.00000000000E+00 0.  1.
          3    1    3    3  501    0  0.49456856318E+00  0.27552863242E+01 -0.27222454703E+02  0.27366005204E+02  0.00000000000E+00 0.  1.
         -1    1    1    2    0  502 -0.85485834323E+01 -0.42196222425E+02 -0.40424251718E+03  0.40652873473E+03  0.00000000000E+00 0. -1.
<mgrwt>
<rscale>  1 0.30000000E+03</rscale>
<asrwt>0</asrwt>
<pdfrwt beam="1">  1       21 0.70144402E-02 0.30000000E+03</pdfrwt>
<pdfrwt beam="2">0</pdfrwt>
<totfact> 0.16077518E+04</totfact>
</mgrwt>
</event>
<event>
 6    1  0.6513574E-002  0.3000000E+03  0.7818608E-02  0.1093470E+00
         21   -1    0    0  501  502  0.00000000000E+00  0.00000000000E+00  0.15021839449E+01  0.15021839449E+01  0.00000000000E+00 0. -1.
         13   -1    0    0    0    0 -0.00000000000E+00 -0.00000000000E+00 -0.10000000000E+04  0.10000000000E+04  0.00000000000E+00 0.  1.
    9000005    2    1    2  501    0 -0.89914730121E+01  0.35583926424E+02 -0.65817891605E+03  0.65920988764E+03  0.33358698071E+01 0.  0.
         13    1    3    3    0    0 -0.33033201496E+01  0.15840301244E+02 -0.26321075414E+03  0.26370765662E+03  0.00000000000E+00 0.  1.
          1    1    3    3  501    0 -0.56881528625E+01  0.19743625180E+02 -0.39496816191E+03  0.39550223102E+03  0.00000000000E+00 0.  1.
         -3    1    1    2    0  502  0.89914730121E+01 -0.35583926424E+02 -0.34031890001E+03  0.34229229631E+03  0.00000000000E+00 0. -1.
<mgrwt>
<rscale>  1 0.30000000E+03</rscale>
<asrwt>0</asrwt>
<pdfrwt beam="1">  1       21 0.54624986E-02 0.30000000E+03</pdfrwt>
<pdfrwt beam="2">0</pdfrwt>
<totfact> 0.24762884E+04</totfact>
</mgrwt>
</event>
<event>
 6    1  0.6513574E-002  0.3000000E+03  0.7818608E-02  0.1093470E+00
         21   -1    0    0  501  502  0.00000000000E+00  0.00000000000E+00  0.15793196317E+01  0.15793196317E+01  0.00000000000E+00 0. -1.
         13   -1    0    0    0    0 -0.00000000000E+00 -0.00000000000E+00 -0.10000000000E+04  0.10000000000E+04  0.00000000000E+00 0.  1.
    9000005    2    1    2  501    0 -0.76786871161E+01 -0.38520141342E+02 -0.56849394276E+03  0.56986209362E+03  0.38313529169E+01 0.  0.
         13    1    3    3    0    0 -0.48697281714E+01 -0.23769067871E+02 -0.32370637839E+03  0.32461439008E+03  0.00000000000E+00 0.  1.
          3    1    3    3  501    0 -0.28089589448E+01 -0.14751073471E+02 -0.24478756438E+03  0.24524770354E+03  0.00000000000E+00 0.  1.
         -1    1    1    2    0  502  0.76786871161E+01  0.38520141342E+02 -0.42992673761E+03  0.43171722601E+03  0.00000000000E+00 0. -1.
<mgrwt>
<rscale>  1 0.30000000E+03</rscale>
<asrwt>0</asrwt>
<pdfrwt beam="1">  1       21 0.57429926E-02 0.30000000E+03</pdfrwt>
<pdfrwt beam="2">0</pdfrwt>
<totfact> 0.22722660E+04</totfact>
</mgrwt>
</event>
<event>
 6    1  0.6513574E-002  0.3000000E+03  0.7818608E-02  0.1093470E+00
         21   -1    0    0  501  502  0.00000000000E+00  0.00000000000E+00  0.28330609184E+01  0.28330609184E+01  0.00000000000E+00 0. -1.
         13   -1    0    0    0    0 -0.00000000000E+00 -0.00000000000E+00 -0.10000000000E+04  0.10000000000E+04  0.00000000000E+00 0.  1.
    9000005    2    1    2  501    0  0.87393145569E+00  0.46901576062E+02 -0.73495104966E+03  0.73645420617E+03  0.33512373750E+01 0.  0.
         13    1    3    3    0    0 -0.10098800800E+01  0.28357179607E+02 -0.45239956673E+03  0.45328855872E+03  0.00000000000E+00 0.  1.
          1    1    3    3  501    0  0.18838115357E+01  0.18544396455E+02 -0.28255148293E+03  0.28316564744E+03  0.00000000000E+00 0.  1.
         -1    1    1    2    0  502 -0.87393145569E+00 -0.46901576062E+02 -0.26221588942E+03  0.26637885475E+03  0.00000000000E+00 0. -1.
<mgrwt>
<rscale>  1 0.30000000E+03</rscale>
<asrwt>0</asrwt>
<pdfrwt beam="1">  1       21 0.10302061E-01 0.30000000E+03</pdfrwt>
<pdfrwt beam="2">0</pdfrwt>
<totfact> 0.81572788E+03</totfact>
</mgrwt>
</event>
<event>
 6    1  0.6513574E-002  0.3000000E+03  0.7818608E-02  0.1093470E+00
         21   -1    0    0  501  502  0.00000000000E+00  0.00000000000E+00  0.14064509975E+01  0.14064509975E+01  0.00000000000E+00 0. -1.
         13   -1    0    0    0    0 -0.00000000000E+00 -0.00000000000E+00 -0.10000000000E+04  0.10000000000E+04  0.00000000000E+00 0.  1.
    9000005    2    1    2  501    0  0.36942944370E+02  0.10845690945E+01 -0.42118530502E+03  0.42281658101E+03  0.32928083005E+01 0.  0.
         13    1    3    3    0    0  0.11618848193E+02  0.12088479042E+01 -0.11899642506E+03  0.11956842444E+03  0.00000000000E+00 0.  1.
          3    1    3    3  501    0  0.25324096177E+02 -0.12427880978E+00 -0.30218887996E+03  0.30324815657E+03  0.00000000000E+00 0.  1.
         -3    1    1    2    0  502 -0.36942944370E+02 -0.10845690945E+01 -0.57740824398E+03  0.57858986998E+03  0.00000000000E+00 0. -1.
<mgrwt>
<rscale>  1 0.30000000E+03</rscale>
<asrwt>0</asrwt>
<pdfrwt beam="1">  1       21 0.51143780E-02 0.30000000E+03</pdfrwt>
<pdfrwt beam="2">0</pdfrwt>
<totfact> 0.27714549E+04</totfact>
</mgrwt>
</event>
<event>
 6    1  0.6513574E-002  0.3000000E+03  0.7818608E-02  0.1093470E+00
         21   -1    0    0  501  502  0.00000000000E+00  0.00000000000E+00  0.12958288704E+01  0.12958288704E+01  0.00000000000E+00 0. -1.
         13   -1    0    0    0    0 -0.00000000000E+00 -0.00000000000E+00 -0.10000000000E+04  0.10000000000E+04  0.00000000000E+00 0.  1.
    9000005    2    1    2  501    0 -0.29437665427E+02  0.19835508707E+02 -0.57699701250E+03  0.57809735156E+03  0.33123865610E+01 0.  0.
         13    1    3    3    0    0 -0.48904254223E+01  0.37027206595E+01 -0.12079731785E+03  0.12095295945E+03  0.00000000000E+00 0.  1.
          1    1    3    3  501    0 -0.24547240005E+02  0.16132788048E+02 -0.45619969465E+03  0.45714439211E+03  0.00000000000E+00 0.  1.
         -3    1    1    2    0  502  0.29437665427E+02 -0.19835508707E+02 -0.42170715863E+03  0.42319847731E+03  0.00000000000E+00 0. -1.
<mgrwt>
<rscale>  1 0.30000000E+03</rscale>
<asrwt>0</asrwt>
<pdfrwt beam="1">  1       21 0.47121149E-02 0.30000000E+03</pdfrwt>
<pdfrwt beam="2">0</pdfrwt>
<totfact> 0.31864552E+04</totfact>
</mgrwt>
</event>
<event>
 6    1  0.6513574E-002  0.3000000E+03  0.7818608E-02  0.1093470E+00
         21   -1    0    0  501  502  0.00000000000E+00  0.00000000000E+00  0.10267335017E+01  0.10267335017E+01  0.00000000000E+00 0. -1.
         13   -1    0    0    0    0 -0.00000000000E+00 -0.00000000000E+00 -0.10000000000E+04  0.10000000000E+04  0.00000000000E+00 0.  1.
    9000005    2    1    2  501    0  0.14333413837E+02 -0.28358337747E+02 -0.44989894475E+03  0.45103377638E+03  0.35727976565E+01 0.  0.
         13    1    3    3    0    0  0.96893280504E+01 -0.22244277698E+02 -0.33257447468E+03  0.33345835149E+03  0.00000000000E+00 0.  1.
          1    1    3    3  501    0  0.46440857867E+01 -0.61140600489E+01 -0.11732447007E+03  0.11757542490E+03  0.00000000000E+00 0.  1.
         -1    1    1    2    0  502 -0.14333413837E+02  0.28358337747E+02 -0.54907432175E+03  0.54999295712E+03  0.00000000000E+00 0. -1.
<mgrwt>
<rscale>  1 0.30000000E+03</rscale>
<asrwt>0</asrwt>
<pdfrwt beam="1">  1       21 0.37335842E-02 0.30000000E+03</pdfrwt>
<pdfrwt beam="2">0</pdfrwt>
<totfact> 0.47213803E+04</totfact>
</mgrwt>
</event>
<event>
 6    1  0.6513574E-002  0.3000000E+03  0.7818608E-02  0.1093470E+00
         21   -1    0    0  501  502  0.00000000000E+00  0.00000000000E+00  0.99066602862E+00  0.99066602862E+00  0.00000000000E+00 0. -1.
         13   -1    0    0    0    0 -0.00000000000E+00 -0.00000000000E+00 -0.10000000000E+04  0.10000000000E+04  0.00000000000E+00 0.  1.
    9000005    2    1    2  501    0  0.15805352311E+02 -0.25912094415E+02 -0.62810114501E+03  0.62884267069E+03  0.32879042670E+01 0.  0.
         13    1    3    3    0    0  0.29812964352E+01 -0.76603822801E+01 -0.16525728404E+03  0.16546159528E+03  0.00000000000E+00 0.  1.
          3    1    3    3  501    0  0.12824055876E+02 -0.18251712135E+02 -0.46284386097E+03  0.46338107541E+03  0.00000000000E+00 0.  1.
         -3    1    1    2    0  502 -0.15805352311E+02  0.25912094415E+02 -0.37090818896E+03  0.37214799534E+03  0.00000000000E+00 0. -1.
<mgrwt>
<rscale>  1 0.30000000E+03</rscale>
<asrwt>0</asrwt>
<pdfrwt beam="1">  1       21 0.36024295E-02 0.30000000E+03</pdfrwt>
<pdfrwt beam="2">0</pdfrwt>
<totfact> 0.50133561E+04</totfact>
</mgrwt>
</event>
<event>
 6    1  0.6513574E-002  0.3000000E+03  0.7818608E-02  0.1093470E+00
         21   -1    0    0  501  502  0.00000000000E+00  0.00000000000E+00  0.92665631096E+00  0.92665631096E+00  0.00000000000E+00 0. -1.
         13   -1    0    0    0    0 -0.00000000000E+00 -0.00000000000E+00 -0.10000000000E+04  0.10000000000E+04  0.00000000000E+00 0.  1.
    9000005    2    1    2  501    0  0.28950718962E+02  0.85074934811E+01 -0.51290863660E+03  0.51382641612E+03  0.56386905932E+01 0.  0.
         13    1    3    3    0    0  0.19880505872E+02  0.83330189296E+01 -0.37624547805E+03  0.37686248616E+03  0.00000000000E+00 0.  1.
          1    1    3    3  501    0  0.90702130897E+01  0.17447455156E+00 -0.13666315855E+03  0.13696392996E+03  0.00000000000E+00 0.  1.
         -1    1    1    2    0  502 -0.28950718962E+02 -0.85074934811E+01 -0.48616470709E+03  0.48710024019E+03  0.00000000000E+00 0. -1.
<mgrwt>
<rscale>  1 0.30000000E+03</rscale>
<asrwt>0</asrwt>
<pdfrwt beam="1">  1       21 0.33696664E-02 0.30000000E+03</pdfrwt>
<pdfrwt beam="2">0</pdfrwt>
<totfact> 0.56064138E+04</totfact>
</mgrwt>
</event>
<event>
 6    1  0.6513574E-002  0.3000000E+03  0.7818608E-02  0.1093470E+00
         21   -1    0    0  501  502  0.00000000000E+00  0.00000000000E+00  0.17954547170E+01  0.17954547170E+01  0.00000000000E+00 0. -1.
         13   -1    0    0    0    0 -0.00000000000E+00 -0.00000000000E+00 -0.10000000000E+04  0.10000000000E+04  0.00000000000E+00 0.  1.
    9000005    2    1    2  501    0  0.32413008511E+02 -0.24002975983E+02 -0.34859988401E+03  0.35093989322E+03  0.31911672768E+01 0.  0.
         13    1    3    3    0    0  0.71654633845E+00 -0.24304968769E+00 -0.10518074507E+02  0.10545255006E+02  0.00000000000E+00 0.  1.
          3    1    3    3  501    0  0.31696462173E+02 -0.23759926295E+02 -0.33808180950E+03  0.34039463822E+03  0.00000000000E+00 0.  1.
         -3    1    1    2    0  502 -0.32413008511E+02  0.24002975983E+02 -0.64960466127E+03  0.65085556149E+03  0.00000000000E+00 0. -1.
<mgrwt>
<rscale>  1 0.30000000E+03</rscale>
<asrwt>0</asrwt>
<pdfrwt beam="1">  1       21 0.65289400E-02 0.30000000E+03</pdfrwt>
<pdfrwt beam="2">0</pdfrwt>
<totfact> 0.18209427E+04</totfact>
</mgrwt>
</event>
<event>
 6    1  0.6513574E-002  0.3000000E+03  0.7818608E-02  0.1093470E+00
         21   -1    0    0  501  502  0.00000000000E+00  0.00000000000E+00  0.20109588416E+01  0.20109588416E+01  0.00000000000E+00 0. -1.
         13   -1    0    0    0    0 -0.00000000000E+00 -0.00000000000E+00 -0.10000000000E+04  0.10000000000E+04  0.00000000000E+00 0.  1.
    9000005    2    1    2  501    0 -0.26124965054E+02  0.21998478165E+02 -0.17542823602E+03  0.17874142521E+03  0.26427742384E+01 0.  0.
         13    1    3    3    0    0 -0.20171944922E+02  0.17657672849E+02 -0.13237815127E+03  0.13506544971E+03  0.00000000000E+00 0.  1.
          1    1    3    3  501    0 -0.59530201318E+01  0.43408053158E+01 -0.43050084750E+02  0.43675975507E+02  0.00000000000E+00 0.  1.
         -3    1    1    2    0  502  0.26124965054E+02 -0.21998478165E+02 -0.82256080514E+03  0.82326953363E+03  0.00000000000E+00 0. -1.
<mgrwt>
<rscale>  1 0.30000000E+03</rscale>
<asrwt>0</asrwt>
<pdfrwt beam="1">  1       21 0.73125930E-02 0.30000000E+03</pdfrwt>
<pdfrwt beam="2">0</pdfrwt>
<totfact> 0.14951845E+04</totfact>
</mgrwt>
</event>
<event>
 6    1  0.6513574E-002  0.3000000E+03  0.7818608E-02  0.1093470E+00
         21   -1    0    0  501  502  0.00000000000E+00  0.00000000000E+00  0.11603040372E+01  0.11603040372E+01  0.00000000000E+00 0. -1.
         13   -1    0    0    0    0 -0.00000000000E+00 -0.00000000000E+00 -0.10000000000E+04  0.10000000000E+04  0.00000000000E+00 0.  1.
    9000005    2    1    2  501    0 -0.32122360072E+02  0.69379968933E+01 -0.62852499566E+03  0.62939026883E+03  0.29083519634E+01 0.  0.
         13    1    3    3    0    0 -0.15664345521E+02  0.41702853025E+01 -0.28617231073E+03  0.28663104233E+03  0.00000000000E+00 0.  1.
          3    1    3    3  501    0 -0.16458014551E+02  0.27677115908E+01 -0.34235268493E+03  0.34275922650E+03  0.00000000000E+00 0.  1.
         -1    1    1    2    0  502  0.32122360072E+02 -0.69379968933E+01 -0.37031470030E+03  0.37177003521E+03  0.00000000000E+00 0. -1.
<mgrwt>
<rscale>  1 0.30000000E+03</rscale>
<asrwt>0</asrwt>
<pdfrwt beam="1">  1       21 0.42192963E-02 0.30000000E+03</pdfrwt>
<pdfrwt beam="2">0</pdfrwt>
<totfact> 0.38427813E+04</totfact>
</mgrwt>
</event>
<event>
 6    1  0.6513574E-002  0.3000000E+03  0.7818608E-02  0.1093470E+00
         21   -1    0    0  501  502  0.00000000000E+00  0.00000000000E+00  0.17216009971E+01  0.17216009971E+01  0.00000000000E+00 0. -1.
         13   -1    0    0    0    0 -0.00000000000E+00 -0.00000000000E+00 -0.10000000000E+04  0.10000000000E+04  0.00000000000E+00 0.  1.
    9000005    2    1    2  501    0 -0.18176769677E+02 -0.25080636812E+02 -0.16748584080E+03  0.17035182282E+03  0.29670475740E+01 0.  0.
         13    1    3    3    0    0 -0.98104302068E+01 -0.14477886855E+02 -0.86953556926E+02  0.88694840947E+02  0.00000000000E+00 0.  1.
          1    1    3    3  501    0 -0.83663394699E+01 -0.10602749957E+02 -0.80532283876E+02  0.81656981875E+02  0.00000000000E+00 0.  1.
         -1    1    1    2    0  502  0.18176769677E+02  0.25080636812E+02 -0.83079255820E+03  0.83136977817E+03  0.00000000000E+00 0. -1.
<mgrwt>
<rscale>  1 0.30000000E+03</rscale>
<asrwt>0</asrwt>
<pdfrwt beam="1">  1       21 0.62603805E-02 0.30000000E+03</pdfrwt>
<pdfrwt beam="2">0</pdfrwt>
<totfact> 0.19581740E+04</totfact>
</mgrwt>
</event>
<event>
 6    1  0.6513574E-002  0.3000000E+03  0.7818608E-02  0.1093470E+00
         21   -1    0    0  501  502  0.00000000000E+00  0.00000000000E+00  0.15638568634E+01  0.15638568634E+01  0.00000000000E+00 0. -1.
         13   -1    0    0    0    0 -0.00000000000E+00 -0.00000000000E+00 -0.10000000000E+04  0.10000000000E+04  0.00000000000E+00 0.  1.
    9000005    2    1    2  501    0  0.10210211112E+02  0.33074285626E+02 -0.25900232524E+03  0.26132029706E+03  0.28171608774E+01 0.  0.
         13    1    3    3    0    0  0.67977594002E+00  0.57240893136E+01 -0.42119451035E+02  0.42512062397E+02  0.00000000000E+00 0.  1.
          3    1    3    3  501    0  0.95304351717E+01  0.27350196312E+02 -0.21688287421E+03  0.21880823467E+03  0.00000000000E+00 0.  1.
         -3    1    1    2    0  502 -0.10210211112E+02 -0.33074285626E+02 -0.73943381789E+03  0.74024355980E+03  0.00000000000E+00 0. -1.
<mgrwt>
<rscale>  1 0.30000000E+03</rscale>
<asrwt>0</asrwt>
<pdfrwt beam="1">  1       21 0.56867642E-02 0.30000000E+03</pdfrwt>
<pdfrwt beam="2">0</pdfrwt>
<totfact> 0.23110451E+04</totfact>
</mgrwt>
</event>
<event>
 6    1  0.6513574E-002  0.3000000E+03  0.7818608E-02  0.1093470E+00
         21   -1    0    0  501  502  0.00000000000E+00  0.00000000000E+00  0.34615286680E+01  0.34615286680E+01  0.00000000000E+00 0. -1.
         13   -1    0    0    0    0 -0.00000000000E+00 -0.00000000000E+00 -0.10000000000E+04  0.10000000000E+04  0.00000000000E+00 0.  1.
    9000005    2    1    2  501    0 -0.23450434027E+01 -0.50184730878E+02 -0.24761165476E+03  0.25285152139E+03  0.99173512337E+01 0.  0.
         13    1    3    3    0    0 -0.35729202791E+01 -0.13039062735E+02 -0.83212291953E+02  0.84303430822E+02  0.00000000000E+00 0.  1.
          3    1    3    3  501    0  0.12278768764E+01 -0.37145668143E+02 -0.16439936280E+03  0.16854809057E+03  0.00000000000E+00 0.  1.
         -1    1    1    2    0  502  0.23450434027E+01  0.50184730878E+02 -0.74892681658E+03  0.75061000728E+03  0.00000000000E+00 0. -1.
<mgrwt>
<rscale>  1 0.30000000E+03</rscale>
<asrwt>0</asrwt>
<pdfrwt beam="1">  1       21 0.12587404E-01 0.30000000E+03</pdfrwt>
<pdfrwt beam="2">0</pdfrwt>
<totfact> 0.56811183E+03</totfact>
</mgrwt>
</event>
<event>
 6    1  0.6513574E-002  0.3000000E+03  0.7818608E-02  0.1093470E+00
         21   -1    0    0  501  502  0.00000000000E+00  0.00000000000E+00  0.22828239998E+01  0.22828239998E+01  0.00000000000E+00 0. -1.
         13   -1    0    0    0    0 -0.00000000000E+00 -0.00000000000E+00 -0.10000000000E+04  0.10000000000E+04  0.00000000000E+00 0.  1.
    9000005    2    1    2  501    0  0.33604857447E+02  0.16742101765E+02 -0.18999987625E+03  0.19369342218E+03  0.27576087835E+01 0.  0.
         13    1    3    3    0    0  0.58115172250E+01  0.40744154857E+01 -0.36941816727E+02  0.37617448307E+02  0.00000000000E+00 0.  1.
          1    1    3    3  501    0  0.27793340222E+02  0.12667686280E+02 -0.15305805952E+03  0.15607597387E+03  0.00000000000E+00 0.  1.
         -1    1    1    2    0  502 -0.33604857447E+02 -0.16742101765E+02 -0.80771729975E+03  0.80858940182E+03  0.00000000000E+00 0. -1.
<mgrwt>
<rscale>  1 0.30000000E+03</rscale>
<asrwt>0</asrwt>
<pdfrwt beam="1">  1       21 0.83011957E-02 0.30000000E+03</pdfrwt>
<pdfrwt beam="2">0</pdfrwt>
<totfact> 0.11970129E+04</totfact>
</mgrwt>
</event>
<event>
 6    1  0.6513574E-002  0.3000000E+03  0.7818608E-02  0.1093470E+00
         21   -1    0    0  501  502  0.00000000000E+00  0.00000000000E+00  0.10072004808E+01  0.10072004808E+01  0.00000000000E+00 0. -1.
         13   -1    0    0    0    0 -0.00000000000E+00 -0.00000000000E+00 -0.10000000000E+04  0.10000000000E+04  0.00000000000E+00 0.  1.
    9000005    2    1    2  501    0  0.18524431022E+02  0.24754329516E+02 -0.60792769751E+03  0.60872178731E+03  0.31933643079E+01 0.  0.
         13    1    3    3    0    0  0.15272541890E+02  0.20343064578E+02 -0.47414277869E+03  0.47482466806E+03  0.00000000000E+00 0.  1.
          1    1    3    3  501    0  0.32518891324E+01  0.44112649377E+01 -0.13378491881E+03  0.13389711925E+03  0.00000000000E+00 0.  1.
         -1    1    1    2    0  502 -0.18524431022E+02 -0.24754329516E+02 -0.39106510201E+03  0.39228541317E+03  0.00000000000E+00 0. -1.
<mgrwt>
<rscale>  1 0.30000000E+03</rscale>
<asrwt>0</asrwt>
<pdfrwt beam="1">  1       21 0.36625549E-02 0.30000000E+03</pdfrwt>
<pdfrwt beam="2">0</pdfrwt>
<totfact> 0.48760722E+04</totfact>
</mgrwt>
</event>
<event>
 6    1  0.6513574E-002  0.3000000E+03  0.7818608E-02  0.1093470E+00
         21   -1    0    0  501  502  0.00000000000E+00  0.00000000000E+00  0.12516589708E+01  0.12516589708E+01  0.00000000000E+00 0. -1.
         13   -1    0    0    0    0 -0.00000000000E+00 -0.00000000000E+00 -0.10000000000E+04  0.10000000000E+04  0.00000000000E+00 0.  1.
    9000005    2    1    2  501    0  0.19110443051E+01 -0.34632406239E+02 -0.49205930341E+03  0.49337683533E+03  0.97615525537E+01 0.  0.
         13    1    3    3    0    0  0.14619783366E+01 -0.16403285307E+02 -0.16809986978E+03  0.16890462211E+03  0.00000000000E+00 0.  1.
          1    1    3    3  501    0  0.44906596845E+00 -0.18229120932E+02 -0.32395943363E+03  0.32447221321E+03  0.00000000000E+00 0.  1.
         -1    1    1    2    0  502 -0.19110443051E+01  0.34632406239E+02 -0.50668903762E+03  0.50787482364E+03  0.00000000000E+00 0. -1.
<mgrwt>
<rscale>  1 0.30000000E+03</rscale>
<asrwt>0</asrwt>
<pdfrwt beam="1">  1       21 0.45514968E-02 0.30000000E+03</pdfrwt>
<pdfrwt beam="2">0</pdfrwt>
<totfact> 0.33798930E+04</totfact>
</mgrwt>
</event>
<event>
 6    1  0.6513574E-002  0.3000000E+03  0.7818608E-02  0.1093470E+00
         21   -1    0    0  501  502  0.00000000000E+00  0.00000000000E+00  0.17334144890E+01  0.17334144890E+01  0.00000000000E+00 0. -1.
         13   -1    0    0    0    0 -0.00000000000E+00 -0.00000000000E+00 -0.10000000000E+04  0.10000000000E+04  0.00000000000E+00 0.  1.
    9000005    2    1    2  501    0 -0.18371743550E+02 -0.37058830539E+02 -0.44906702279E+03  0.45097844395E+03  0.30802705720E+01 0.  0.
         13    1    3    3    0    0 -0.13684617235E+02 -0.27318391825E+02 -0.34578915167E+03  0.34713642951E+03  0.00000000000E+00 0.  1.
          3    1    3    3  501    0 -0.46871263149E+01 -0.97404387137E+01 -0.10327787112E+03  0.10384201444E+03  0.00000000000E+00 0.  1.
         -1    1    1    2    0  502  0.18371743550E+02  0.37058830539E+02 -0.54919956272E+03  0.55075497054E+03  0.00000000000E+00 0. -1.
<mgrwt>
<rscale>  1 0.30000000E+03</rscale>
<asrwt>0</asrwt>
<pdfrwt beam="1">  1       21 0.63033387E-02 0.30000000E+03</pdfrwt>
<pdfrwt beam="2">0</pdfrwt>
<totfact> 0.19351682E+04</totfact>
</mgrwt>
</event>
<event>
 6    1  0.6513574E-002  0.3000000E+03  0.7818608E-02  0.1093470E+00
         21   -1    0    0  501  502  0.00000000000E+00  0.00000000000E+00  0.10283160977E+01  0.10283160977E+01  0.00000000000E+00 0. -1.
         13   -1    0    0    0    0 -0.00000000000E+00 -0.00000000000E+00 -0.10000000000E+04  0.10000000000E+04  0.00000000000E+00 0.  1.
    9000005    2    1    2  501    0  0.27374695646E+02 -0.15966163341E+02 -0.56223145455E+03  0.56313983684E+03  0.42396951569E+01 0.  0.
         13    1    3    3    0    0  0.14080208480E+02 -0.69086071655E+01 -0.30922534715E+03  0.30962282933E+03  0.00000000000E+00 0.  1.
          3    1    3    3  501    0  0.13294487166E+02 -0.90575561752E+01 -0.25300610740E+03  0.25351700750E+03  0.00000000000E+00 0.  1.
         -1    1    1    2    0  502 -0.27374695646E+02  0.15966163341E+02 -0.43674022935E+03  0.43788847926E+03  0.00000000000E+00 0. -1.
<mgrwt>
<rscale>  1 0.30000000E+03</rscale>
<asrwt>0</asrwt>
<pdfrwt beam="1">  1       21 0.37393391E-02 0.30000000E+03</pdfrwt>
<pdfrwt beam="2">0</pdfrwt>
<totfact> 0.47091862E+04</totfact>
</mgrwt>
</event>
<event>
 6    1  0.6513574E-002  0.3000000E+03  0.7818608E-02  0.1093470E+00
         21   -1    0    0  501  502  0.00000000000E+00  0.00000000000E+00  0.13374773541E+01  0.13374773541E+01  0.00000000000E+00 0. -1.
         13   -1    0    0    0    0 -0.00000000000E+00 -0.00000000000E+00 -0.10000000000E+04  0.10000000000E+04  0.00000000000E+00 0.  1.
    9000005    2    1    2  501    0  0.19985892512E+02 -0.30118301318E+02 -0.43164329922E+03  0.43316730240E+03  0.33802562856E+01 0.  0.
         13    1    3    3    0    0  0.86013589979E+01 -0.15894363078E+02 -0.20925675164E+03  0.21003571663E+03  0.00000000000E+00 0.  1.
          1    1    3    3  501    0  0.11384533514E+02 -0.14223938240E+02 -0.22238654758E+03  0.22313158576E+03  0.00000000000E+00 0.  1.
         -1    1    1    2    0  502 -0.19985892512E+02  0.30118301318E+02 -0.56701922343E+03  0.56817017496E+03  0.00000000000E+00 0. -1.
<mgrwt>
<rscale>  1 0.30000000E+03</rscale>
<asrwt>0</asrwt>
<pdfrwt beam="1">  1       21 0.48635643E-02 0.30000000E+03</pdfrwt>
<pdfrwt beam="2">0</pdfrwt>
<totfact> 0.30194799E+04</totfact>
</mgrwt>
</event>
<event>
 6    1  0.6513574E-002  0.3000000E+03  0.7818608E-02  0.1093470E+00
         21   -1    0    0  501  502  0.00000000000E+00  0.00000000000E+00  0.11515520927E+01  0.11515520927E+01  0.00000000000E+00 0. -1.
         13   -1    0    0    0    0 -0.00000000000E+00 -0.00000000000E+00 -0.10000000000E+04  0.10000000000E+04  0.00000000000E+00 0.  1.
    9000005    2    1    2  501    0 -0.33490422399E+02 -0.34061349441E+01 -0.45068114641E+03  0.45195158798E+03  0.36785870793E+01 0.  0.
         13    1    3    3    0    0 -0.11875123714E+02 -0.15804628299E+01 -0.18406519645E+03  0.18445463662E+03  0.00000000000E+00 0.  1.
          3    1    3    3  501    0 -0.21615298685E+02 -0.18256721143E+01 -0.26661594995E+03  0.26749695136E+03  0.00000000000E+00 0.  1.
         -1    1    1    2    0  502  0.33490422399E+02  0.34061349441E+01 -0.54816730150E+03  0.54919996411E+03  0.00000000000E+00 0. -1.
<mgrwt>
<rscale>  1 0.30000000E+03</rscale>
<asrwt>0</asrwt>
<pdfrwt beam="1">  1       21 0.41874710E-02 0.30000000E+03</pdfrwt>
<pdfrwt beam="2">0</pdfrwt>
<totfact> 0.38922305E+04</totfact>
</mgrwt>
</event>
<event>
 6    1  0.6513574E-002  0.3000000E+03  0.7818608E-02  0.1093470E+00
         21   -1    0    0  501  502  0.00000000000E+00  0.00000000000E+00  0.21803967399E+01  0.21803967399E+01  0.00000000000E+00 0. -1.
         13   -1    0    0    0    0 -0.00000000000E+00 -0.00000000000E+00 -0.10000000000E+04  0.10000000000E+04  0.00000000000E+00 0.  1.
    9000005    2    1    2  501    0 -0.41758425895E+02  0.95036822599E+01 -0.30182749482E+03  0.30487192761E+03  0.36013199485E+01 0.  0.
         13    1    3    3    0    0 -0.24134520248E+02  0.46089924933E+01 -0.16184596022E+03  0.16370043591E+03  0.00000000000E+00 0.  1.
          1    1    3    3  501    0 -0.17623905648E+02  0.48946897667E+01 -0.13998153460E+03  0.14117149169E+03  0.00000000000E+00 0.  1.
         -3    1    1    2    0  502  0.41758425895E+02 -0.95036822599E+01 -0.69599210844E+03  0.69730846913E+03  0.00000000000E+00 0. -1.
<mgrwt>
<rscale>  1 0.30000000E+03</rscale>
<asrwt>0</asrwt>
<pdfrwt beam="1">  1       21 0.79287321E-02 0.30000000E+03</pdfrwt>
<pdfrwt beam="2">0</pdfrwt>
<totfact> 0.12976177E+04</totfact>
</mgrwt>
</event>
<event>
 6    1  0.6513574E-002  0.3000000E+03  0.7818608E-02  0.1093470E+00
         21   -1    0    0  501  502  0.00000000000E+00  0.00000000000E+00  0.94009099184E+00  0.94009099184E+00  0.00000000000E+00 0. -1.
         13   -1    0    0    0    0 -0.00000000000E+00 -0.00000000000E+00 -0.10000000000E+04  0.10000000000E+04  0.00000000000E+00 0.  1.
    9000005    2    1    2  501    0  0.27771239804E+02  0.12692432368E+02 -0.53234910849E+03  0.53323151622E+03  0.28172637357E+01 0.  0.
         13    1    3    3    0    0  0.39408352069E+01  0.27000162131E+01 -0.94251562861E+02  0.94372545645E+02  0.00000000000E+00 0.  1.
          1    1    3    3  501    0  0.23830404597E+02  0.99924161549E+01 -0.43809754563E+03  0.43885897057E+03  0.00000000000E+00 0.  1.
         -3    1    1    2    0  502 -0.27771239804E+02 -0.12692432368E+02 -0.46671080052E+03  0.46770857478E+03  0.00000000000E+00 0. -1.
<mgrwt>
<rscale>  1 0.30000000E+03</rscale>
<asrwt>0</asrwt>
<pdfrwt beam="1">  1       21 0.34185199E-02 0.30000000E+03</pdfrwt>
<pdfrwt beam="2">0</pdfrwt>
<totfact> 0.54731819E+04</totfact>
</mgrwt>
</event>
<event>
 6    1  0.6513574E-002  0.3000000E+03  0.7818608E-02  0.1093470E+00
         21   -1    0    0  501  502  0.00000000000E+00  0.00000000000E+00  0.11859889438E+01  0.11859889438E+01  0.00000000000E+00 0. -1.
         13   -1    0    0    0    0 -0.00000000000E+00 -0.00000000000E+00 -0.10000000000E+04  0.10000000000E+04  0.00000000000E+00 0.  1.
    9000005    2    1    2  501    0  0.11439677578E+02 -0.32152397979E+02 -0.44237802605E+03  0.44370446609E+03  0.32699194506E+01 0.  0.
         13    1    3    3    0    0  0.22622427860E+01 -0.32753724458E+01 -0.49783946708E+02  0.49942838896E+02  0.00000000000E+00 0.  1.
          3    1    3    3  501    0  0.91774347924E+01 -0.28877025533E+02 -0.39259407934E+03  0.39376162719E+03  0.00000000000E+00 0.  1.
         -3    1    1    2    0  502 -0.11439677578E+02  0.32152397979E+02 -0.55643598500E+03  0.55748152286E+03  0.00000000000E+00 0. -1.
<mgrwt>
<rscale>  1 0.30000000E+03</rscale>
<asrwt>0</asrwt>
<pdfrwt beam="1">  1       21 0.43126962E-02 0.30000000E+03</pdfrwt>
<pdfrwt beam="2">0</pdfrwt>
<totfact> 0.37031621E+04</totfact>
</mgrwt>
</event>
<event>
 6    1  0.6513574E-002  0.3000000E+03  0.7818608E-02  0.1093470E+00
         21   -1    0    0  501  502  0.00000000000E+00  0.00000000000E+00  0.18644081638E+01  0.18644081638E+01  0.00000000000E+00 0. -1.
         13   -1    0    0    0    0 -0.00000000000E+00 -0.00000000000E+00 -0.10000000000E+04  0.10000000000E+04  0.00000000000E+00 0.  1.
    9000005    2    1    2  501    0 -0.36616113173E+02  0.53478643342E+00 -0.23578128023E+03  0.23863107414E+03  0.33093349765E+01 0.  0.
         13    1    3    3    0    0 -0.26677742204E+02 -0.56874116257E+00 -0.16399192261E+03  0.16614865656E+03  0.00000000000E+00 0.  1.
          1    1    3    3  501    0 -0.99383709685E+01  0.11035275960E+01 -0.71789357620E+02  0.72482417579E+02  0.00000000000E+00 0.  1.
         -1    1    1    2    0  502  0.36616113173E+02 -0.53478643342E+00 -0.76235431160E+03  0.76323333402E+03  0.00000000000E+00 0. -1.
<mgrwt>
<rscale>  1 0.30000000E+03</rscale>
<asrwt>0</asrwt>
<pdfrwt beam="1">  1       21 0.67796803E-02 0.30000000E+03</pdfrwt>
<pdfrwt beam="2">0</pdfrwt>
<totfact> 0.17057600E+04</totfact>
</mgrwt>
</event>
<event>
 6    1  0.6513574E-002  0.3000000E+03  0.7818608E-02  0.1093470E+00
         21   -1    0    0  501  502  0.00000000000E+00  0.00000000000E+00  0.19247235788E+01  0.19247235788E+01  0.00000000000E+00 0. -1.
         13   -1    0    0    0    0 -0.00000000000E+00 -0.00000000000E+00 -0.10000000000E+04  0.10000000000E+04  0.00000000000E+00 0.  1.
    9000005    2    1    2  501    0  0.38101924825E+02  0.16380967094E+02 -0.66064227119E+03  0.66195248092E+03  0.35754378911E+01 0.  0.
         13    1    3    3    0    0  0.23287649359E+02  0.11481356895E+02 -0.42964995638E+03  0.43043375935E+03  0.00000000000E+00 0.  1.
          1    1    3    3  501    0  0.14814275466E+02  0.48996101986E+01 -0.23099231480E+03  0.23151872157E+03  0.00000000000E+00 0.  1.
         -3    1    1    2    0  502 -0.38101924825E+02 -0.16380967094E+02 -0.33743300524E+03  0.33997224266E+03  0.00000000000E+00 0. -1.
<mgrwt>
<rscale>  1 0.30000000E+03</rscale>
<asrwt>0</asrwt>
<pdfrwt beam="1">  1       21 0.69990096E-02 0.30000000E+03</pdfrwt>
<pdfrwt beam="2">0</pdfrwt>
<totfact> 0.16139261E+04</totfact>
</mgrwt>
</event>
<event>
 6    1  0.6513574E-002  0.3000000E+03  0.7818608E-02  0.1093470E+00
         21   -1    0    0  501  502  0.00000000000E+00  0.00000000000E+00  0.96687670797E+00  0.96687670797E+00  0.00000000000E+00 0. -1.
         13   -1    0    0    0    0 -0.00000000000E+00 -0.00000000000E+00 -0.10000000000E+04  0.10000000000E+04  0.00000000000E+00 0.  1.
    9000005    2    1    2  501    0 -0.29988935787E+02  0.15111251027E+01 -0.38018008316E+03  0.38138580450E+03  0.40763300954E+01 0.  0.
         13    1    3    3    0    0 -0.16457289318E+02 -0.66767033314E+00 -0.19008709146E+03  0.19079934616E+03  0.00000000000E+00 0.  1.
          1    1    3    3  501    0 -0.13531646469E+02  0.21787954359E+01 -0.19009299171E+03  0.19058645834E+03  0.00000000000E+00 0.  1.
         -1    1    1    2    0  502  0.29988935787E+02 -0.15111251027E+01 -0.61885304013E+03  0.61958107221E+03  0.00000000000E+00 0. -1.
<mgrwt>
<rscale>  1 0.30000000E+03</rscale>
<asrwt>0</asrwt>
<pdfrwt beam="1">  1       21 0.35159227E-02 0.30000000E+03</pdfrwt>
<pdfrwt beam="2">0</pdfrwt>
<totfact> 0.52218345E+04</totfact>
</mgrwt>
</event>
<event>
 6    1  0.6513574E-002  0.3000000E+03  0.7818608E-02  0.1093470E+00
         21   -1    0    0  501  502  0.00000000000E+00  0.00000000000E+00  0.23235868523E+01  0.23235868523E+01  0.00000000000E+00 0. -1.
         13   -1    0    0    0    0 -0.00000000000E+00 -0.00000000000E+00 -0.10000000000E+04  0.10000000000E+04  0.00000000000E+00 0.  1.
    9000005    2    1    2  501    0 -0.76668861887E+01 -0.45501693657E+02 -0.36907566212E+03  0.37203152006E+03  0.78372366917E+01 0.  0.
         13    1    3    3    0    0 -0.64602582344E+01 -0.18817438861E+02 -0.14091362027E+03  0.14231120588E+03  0.00000000000E+00 0.  1.
          3    1    3    3  501    0 -0.12066279543E+01 -0.26684254796E+02 -0.22816204185E+03  0.22972031418E+03  0.00000000000E+00 0.  1.
         -1    1    1    2    0  502  0.76668861887E+01  0.45501693657E+02 -0.62860075103E+03  0.63029206679E+03  0.00000000000E+00 0. -1.
<mgrwt>
<rscale>  1 0.30000000E+03</rscale>
<asrwt>0</asrwt>
<pdfrwt beam="1">  1       21 0.84494246E-02 0.30000000E+03</pdfrwt>
<pdfrwt beam="2">0</pdfrwt>
<totfact> 0.11602696E+04</totfact>
</mgrwt>
</event>
<event>
 6    1  0.6513574E-002  0.3000000E+03  0.7818608E-02  0.1093470E+00
         21   -1    0    0  501  502  0.00000000000E+00  0.00000000000E+00  0.16956509933E+01  0.16956509933E+01  0.00000000000E+00 0. -1.
         13   -1    0    0    0    0 -0.00000000000E+00 -0.00000000000E+00 -0.10000000000E+04  0.10000000000E+04  0.00000000000E+00 0.  1.
    9000005    2    1    2  501    0 -0.80824392511E+01 -0.36243393630E+02 -0.71293956108E+03  0.71392495827E+03  0.52075782846E+01 0.  0.
         13    1    3    3    0    0 -0.83491136288E+01 -0.29333655130E+02 -0.56166775069E+03  0.56249518504E+03  0.00000000000E+00 0.  1.
          3    1    3    3  501    0  0.26667437768E+00 -0.69097385001E+01 -0.15127181039E+03  0.15142977323E+03  0.00000000000E+00 0.  1.
         -1    1    1    2    0  502  0.80824392511E+01  0.36243393630E+02 -0.28536478792E+03  0.28777069273E+03  0.00000000000E+00 0. -1.
<mgrwt>
<rscale>  1 0.30000000E+03</rscale>
<asrwt>0</asrwt>
<pdfrwt beam="1">  1       21 0.61660166E-02 0.30000000E+03</pdfrwt>
<pdfrwt beam="2">0</pdfrwt>
<totfact> 0.20102235E+04</totfact>
</mgrwt>
</event>
<event>
 6    1  0.6513574E-002  0.3000000E+03  0.7818608E-02  0.1093470E+00
         21   -1    0    0  501  502  0.00000000000E+00  0.00000000000E+00  0.40959367280E+01  0.40959367280E+01  0.00000000000E+00 0. -1.
         13   -1    0    0    0    0 -0.00000000000E+00 -0.00000000000E+00 -0.10000000000E+04  0.10000000000E+04  0.00000000000E+00 0.  1.
    9000005    2    1    2  501    0 -0.32668252676E+02  0.43306169599E+02 -0.76407446249E+03  0.76600435171E+03  0.32005545141E+01 0.  0.
         13    1    3    3    0    0 -0.32221260603E+02  0.42171977225E+02 -0.75111874563E+03  0.75299140455E+03  0.00000000000E+00 0.  1.
          1    1    3    3  501    0 -0.44699207312E+00  0.11341923736E+01 -0.12955716863E+02  0.13012947156E+02  0.00000000000E+00 0.  1.
         -1    1    1    2    0  502  0.32668252676E+02 -0.43306169599E+02 -0.23182960078E+03  0.23809158502E+03  0.00000000000E+00 0. -1.
<mgrwt>
<rscale>  1 0.30000000E+03</rscale>
<asrwt>0</asrwt>
<pdfrwt beam="1">  1       21 0.14894347E-01 0.30000000E+03</pdfrwt>
<pdfrwt beam="2">0</pdfrwt>
<totfact> 0.41722432E+03</totfact>
</mgrwt>
</event>
<event>
 6    1  0.6513574E-002  0.3000000E+03  0.7818608E-02  0.1093470E+00
         21   -1    0    0  501  502  0.00000000000E+00  0.00000000000E+00  0.11411356319E+01  0.11411356319E+01  0.00000000000E+00 0. -1.
         13   -1    0    0    0    0 -0.00000000000E+00 -0.00000000000E+00 -0.10000000000E+04  0.10000000000E+04  0.00000000000E+00 0.  1.
    9000005    2    1    2  501    0  0.14171539575E+02 -0.28714557980E+02 -0.65597865310E+03  0.65676895666E+03  0.34800472604E+01 0.  0.
         13    1    3    3    0    0  0.89612490656E+01 -0.18298724162E+02 -0.38222663083E+03  0.38276930991E+03  0.00000000000E+00 0.  1.
          3    1    3    3  501    0  0.52102905096E+01 -0.10415833819E+02 -0.27375202227E+03  0.27399964675E+03  0.00000000000E+00 0.  1.
         -3    1    1    2    0  502 -0.14171539575E+02  0.28714557980E+02 -0.34288021127E+03  0.34437217897E+03  0.00000000000E+00 0. -1.
<mgrwt>
<rscale>  1 0.30000000E+03</rscale>
<asrwt>0</asrwt>
<pdfrwt beam="1">  1       21 0.41495929E-02 0.30000000E+03</pdfrwt>
<pdfrwt beam="2">0</pdfrwt>
<totfact> 0.39523865E+04</totfact>
</mgrwt>
</event>
<event>
 6    1  0.6513574E-002  0.3000000E+03  0.7818608E-02  0.1093470E+00
         21   -1    0    0  501  502  0.00000000000E+00  0.00000000000E+00  0.12372265470E+01  0.12372265470E+01  0.00000000000E+00 0. -1.
         13   -1    0    0    0    0 -0.00000000000E+00 -0.00000000000E+00 -0.10000000000E+04  0.10000000000E+04  0.00000000000E+00 0.  1.
    9000005    2    1    2  501    0 -0.13526760814E+02 -0.32362596266E+02 -0.51760140213E+03  0.51879906870E+03  0.33092748019E+01 0.  0.
         13    1    3    3    0    0 -0.61369313694E+01 -0.16284903387E+02 -0.27926667612E+03  0.27980839229E+03  0.00000000000E+00 0.  1.
          3    1    3    3  501    0 -0.73898294449E+01 -0.16077692879E+02 -0.23833472601E+03  0.23899067641E+03  0.00000000000E+00 0.  1.
         -3    1    1    2    0  502  0.13526760814E+02  0.32362596266E+02 -0.48116137132E+03  0.48243815785E+03  0.00000000000E+00 0. -1.
<mgrwt>
<rscale>  1 0.30000000E+03</rscale>
<asrwt>0</asrwt>
<pdfrwt beam="1">  1       21 0.44990151E-02 0.30000000E+03</pdfrwt>
<pdfrwt beam="2">0</pdfrwt>
<totfact> 0.34470990E+04</totfact>
</mgrwt>
</event>
<event>
 6    1  0.6513574E-002  0.3000000E+03  0.7818608E-02  0.1093470E+00
         21   -1    0    0  501  502  0.00000000000E+00  0.00000000000E+00  0.25840003754E+01  0.25840003754E+01  0.00000000000E+00 0. -1.
         13   -1    0    0    0    0 -0.00000000000E+00 -0.00000000000E+00 -0.10000000000E+04  0.10000000000E+04  0.00000000000E+00 0.  1.
    9000005    2    1    2  501    0  0.20232832525E+02  0.34310137171E+02 -0.18877239228E+03  0.19295999090E+03  0.34625099502E+01 0.  0.
         13    1    3    3    0    0  0.17585207344E+02  0.29519937935E+02 -0.15660114217E+03  0.16032649183E+03  0.00000000000E+00 0.  1.
          1    1    3    3  501    0  0.26476251805E+01  0.47901992364E+01 -0.32171250117E+02  0.32633499075E+02  0.00000000000E+00 0.  1.
         -1    1    1    2    0  502 -0.20232832525E+02 -0.34310137171E+02 -0.80864360734E+03  0.80962400947E+03  0.00000000000E+00 0. -1.
<mgrwt>
<rscale>  1 0.30000000E+03</rscale>
<asrwt>0</asrwt>
<pdfrwt beam="1">  1       21 0.93963848E-02 0.30000000E+03</pdfrwt>
<pdfrwt beam="2">0</pdfrwt>
<totfact> 0.96135997E+03</totfact>
</mgrwt>
</event>
<event>
 6    1  0.6513574E-002  0.3000000E+03  0.7818608E-02  0.1093470E+00
         21   -1    0    0  501  502  0.00000000000E+00  0.00000000000E+00  0.13779182138E+01  0.13779182138E+01  0.00000000000E+00 0. -1.
         13   -1    0    0    0    0 -0.00000000000E+00 -0.00000000000E+00 -0.10000000000E+04  0.10000000000E+04  0.00000000000E+00 0.  1.
    9000005    2    1    2  501    0  0.36150483124E+02  0.68232304310E+01 -0.44067334801E+03  0.44221765190E+03  0.31682961286E+01 0.  0.
         13    1    3    3    0    0  0.36017834299E+02  0.68876356099E+01 -0.44011857031E+03  0.44164361180E+03  0.00000000000E+00 0.  1.
          3    1    3    3  501    0  0.13264882547E+00 -0.64405178864E-01 -0.55477769597E+00  0.57404009434E+00  0.00000000000E+00 0.  1.
         -3    1    1    2    0  502 -0.36150483124E+02 -0.68232304310E+01 -0.55794873378E+03  0.55916026632E+03  0.00000000000E+00 0. -1.
<mgrwt>
<rscale>  1 0.30000000E+03</rscale>
<asrwt>0</asrwt>
<pdfrwt beam="1">  1       21 0.50106223E-02 0.30000000E+03</pdfrwt>
<pdfrwt beam="2">0</pdfrwt>
<totfact> 0.28700630E+04</totfact>
</mgrwt>
</event>
<event>
 6    1  0.6513574E-002  0.3000000E+03  0.7818608E-02  0.1093470E+00
         21   -1    0    0  501  502  0.00000000000E+00  0.00000000000E+00  0.10012165014E+01  0.10012165014E+01  0.00000000000E+00 0. -1.
         13   -1    0    0    0    0 -0.00000000000E+00 -0.00000000000E+00 -0.10000000000E+04  0.10000000000E+04  0.00000000000E+00 0.  1.
    9000005    2    1    2  501    0  0.27832982033E+02 -0.14062496551E+02 -0.57800302588E+03  0.57885212360E+03  0.31391687897E+01 0.  0.
         13    1    3    3    0    0  0.26106444803E+02 -0.12453438070E+02 -0.52428021290E+03  0.52507749544E+03  0.00000000000E+00 0.  1.
          3    1    3    3  501    0  0.17265372304E+01 -0.16090584818E+01 -0.53722812973E+02  0.53774628160E+02  0.00000000000E+00 0.  1.
         -3    1    1    2    0  502 -0.27832982033E+02  0.14062496551E+02 -0.42099575762E+03  0.42214909290E+03  0.00000000000E+00 0. -1.
<mgrwt>
<rscale>  1 0.30000000E+03</rscale>
<asrwt>0</asrwt>
<pdfrwt beam="1">  1       21 0.36407950E-02 0.30000000E+03</pdfrwt>
<pdfrwt beam="2">0</pdfrwt>
<totfact> 0.49250644E+04</totfact>
</mgrwt>
</event>
<event>
 6    1  0.6513574E-002  0.3000000E+03  0.7818608E-02  0.1093470E+00
         21   -1    0    0  501  502  0.00000000000E+00  0.00000000000E+00  0.11598858446E+01  0.11598858446E+01  0.00000000000E+00 0. -1.
         13   -1    0    0    0    0 -0.00000000000E+00 -0.00000000000E+00 -0.10000000000E+04  0.10000000000E+04  0.00000000000E+00 0.  1.
    9000005    2    1    2  501    0 -0.43890306207E+01 -0.30488466149E+02 -0.71153939822E+03  0.71221263887E+03  0.31173045017E+01 0.  0.
         13    1    3    3    0    0 -0.48104002349E+01 -0.29434896569E+02 -0.68559307419E+03  0.68624151467E+03  0.00000000000E+00 0.  1.
          1    1    3    3  501    0  0.42136961418E+00 -0.10535695804E+01 -0.25946324039E+02  0.25971124203E+02  0.00000000000E+00 0.  1.
         -1    1    1    2    0  502  0.43890306207E+01  0.30488466149E+02 -0.28730071593E+03  0.28894724697E+03  0.00000000000E+00 0. -1.
<mgrwt>
<rscale>  1 0.30000000E+03</rscale>
<asrwt>0</asrwt>
<pdfrwt beam="1">  1       21 0.42177756E-02 0.30000000E+03</pdfrwt>
<pdfrwt beam="2">0</pdfrwt>
<totfact> 0.38451219E+04</totfact>
</mgrwt>
</event>
<event>
 6    1  0.6513574E-002  0.3000000E+03  0.7818608E-02  0.1093470E+00
         21   -1    0    0  501  502  0.00000000000E+00  0.00000000000E+00  0.36005430991E+01  0.36005430991E+01  0.00000000000E+00 0. -1.
         13   -1    0    0    0    0 -0.00000000000E+00 -0.00000000000E+00 -0.10000000000E+04  0.10000000000E+04  0.00000000000E+00 0.  1.
    9000005    2    1    2  501    0  0.43471629021E+02 -0.37577537217E+02 -0.64182833868E+03  0.64440347782E+03  0.32205671891E+01 0.  0.
         13    1    3    3    0    0  0.95499578675E+00 -0.97795126492E+00 -0.10753223467E+02  0.10839751868E+02  0.00000000000E+00 0.  1.
          3    1    3    3  501    0  0.42516633234E+02 -0.36599585952E+02 -0.63107511522E+03  0.63356372595E+03  0.00000000000E+00 0.  1.
         -1    1    1    2    0  502 -0.43471629021E+02  0.37577537217E+02 -0.35457111822E+03  0.35919706528E+03  0.00000000000E+00 0. -1.
<mgrwt>
<rscale>  1 0.30000000E+03</rscale>
<asrwt>0</asrwt>
<pdfrwt beam="1">  1       21 0.13092912E-01 0.30000000E+03</pdfrwt>
<pdfrwt beam="2">0</pdfrwt>
<totfact> 0.52872954E+03</totfact>
</mgrwt>
</event>
<event>
 6    1  0.6513574E-002  0.3000000E+03  0.7818608E-02  0.1093470E+00
         21   -1    0    0  501  502  0.00000000000E+00  0.00000000000E+00  0.10623616125E+01  0.10623616125E+01  0.00000000000E+00 0. -1.
         13   -1    0    0    0    0 -0.00000000000E+00 -0.00000000000E+00 -0.10000000000E+04  0.10000000000E+04  0.00000000000E+00 0.  1.
    9000005    2    1    2  501    0 -0.31290655925E+02 -0.34031082623E+01 -0.62727373772E+03  0.62806807030E+03  0.25441305143E+01 0.  0.
         13    1    3    3    0    0 -0.36028580905E+01 -0.94260886713E+00 -0.62788069059E+02  0.62898415831E+02  0.00000000000E+00 0.  1.
          3    1    3    3  501    0 -0.27687797835E+02 -0.24604993951E+01 -0.56448566867E+03  0.56516965447E+03  0.00000000000E+00 0.  1.
         -3    1    1    2    0  502  0.31290655925E+02  0.34031082623E+01 -0.37166390066E+03  0.37299429131E+03  0.00000000000E+00 0. -1.
<mgrwt>
<rscale>  1 0.30000000E+03</rscale>
<asrwt>0</asrwt>
<pdfrwt beam="1">  1       21 0.38631413E-02 0.30000000E+03</pdfrwt>
<pdfrwt beam="2">0</pdfrwt>
<totfact> 0.44583961E+04</totfact>
</mgrwt>
</event>
<event>
 6    1  0.6513574E-002  0.3000000E+03  0.7818608E-02  0.1093470E+00
         21   -1    0    0  501  502  0.00000000000E+00  0.00000000000E+00  0.42540920078E+01  0.42540920078E+01  0.00000000000E+00 0. -1.
         13   -1    0    0    0    0 -0.00000000000E+00 -0.00000000000E+00 -0.10000000000E+04  0.10000000000E+04  0.00000000000E+00 0.  1.
    9000005    2    1    2  501    0 -0.10110043315E+02  0.64362014594E+02 -0.51073421101E+03  0.51488610357E+03  0.36855738596E+01 0.  0.
         13    1    3    3    0    0 -0.94190951576E+01  0.56168882164E+02 -0.45431057350E+03  0.45786653063E+03  0.00000000000E+00 0.  1.
          3    1    3    3  501    0 -0.69094815782E+00  0.81931324301E+01 -0.56423637511E+02  0.57019572940E+02  0.00000000000E+00 0.  1.
         -3    1    1    2    0  502  0.10110043315E+02 -0.64362014594E+02 -0.48501169698E+03  0.48936798844E+03  0.00000000000E+00 0. -1.
<mgrwt>
<rscale>  1 0.30000000E+03</rscale>
<asrwt>0</asrwt>
<pdfrwt beam="1">  1       21 0.15469458E-01 0.30000000E+03</pdfrwt>
<pdfrwt beam="2">0</pdfrwt>
<totfact> 0.38892936E+03</totfact>
</mgrwt>
</event>
<event>
 6    1  0.6513574E-002  0.3000000E+03  0.7818608E-02  0.1093470E+00
         21   -1    0    0  501  502  0.00000000000E+00  0.00000000000E+00  0.13729970590E+01  0.13729970590E+01  0.00000000000E+00 0. -1.
         13   -1    0    0    0    0 -0.00000000000E+00 -0.00000000000E+00 -0.10000000000E+04  0.10000000000E+04  0.00000000000E+00 0.  1.
    9000005    2    1    2  501    0  0.31987035947E+02  0.97577685909E+01 -0.28749466681E+03  0.28945475455E+03  0.35336913689E+01 0.  0.
         13    1    3    3    0    0  0.17993788048E+02  0.46617062799E+01 -0.17296845709E+03  0.17396434998E+03  0.00000000000E+00 0.  1.
          3    1    3    3  501    0  0.13993247899E+02  0.50960623110E+01 -0.11452620971E+03  0.11549040458E+03  0.00000000000E+00 0.  1.
         -1    1    1    2    0  502 -0.31987035947E+02 -0.97577685909E+01 -0.71113233614E+03  0.71191824251E+03  0.00000000000E+00 0. -1.
<mgrwt>
<rscale>  1 0.30000000E+03</rscale>
<asrwt>0</asrwt>
<pdfrwt beam="1">  1       21 0.49927271E-02 0.30000000E+03</pdfrwt>
<pdfrwt beam="2">0</pdfrwt>
<totfact> 0.28876219E+04</totfact>
</mgrwt>
</event>
<event>
 6    1  0.6513574E-002  0.3000000E+03  0.7818608E-02  0.1093470E+00
         21   -1    0    0  501  502  0.00000000000E+00  0.00000000000E+00  0.60122541101E+01  0.60122541101E+01  0.00000000000E+00 0. -1.
         13   -1    0    0    0    0 -0.00000000000E+00 -0.00000000000E+00 -0.10000000000E+04  0.10000000000E+04  0.00000000000E+00 0.  1.
    9000005    2    1    2  501    0 -0.17614871421E+01  0.73600630215E+02 -0.33971854909E+03  0.34761394193E+03  0.25699067885E+01 0.  0.
         13    1    3    3    0    0 -0.14119599428E+01  0.15828258012E+02 -0.72234939549E+02  0.73962246276E+02  0.00000000000E+00 0.  1.
          3    1    3    3  501    0 -0.34952719924E+00  0.57772372203E+02 -0.26748360954E+03  0.27365169565E+03  0.00000000000E+00 0.  1.
         -3    1    1    2    0  502  0.17614871421E+01 -0.73600630215E+02 -0.65426919680E+03  0.65839831218E+03  0.00000000000E+00 0. -1.
<mgrwt>
<rscale>  1 0.30000000E+03</rscale>
<asrwt>0</asrwt>
<pdfrwt beam="1">  1       21 0.21862788E-01 0.30000000E+03</pdfrwt>
<pdfrwt beam="2">0</pdfrwt>
<totfact> 0.20228061E+03</totfact>
</mgrwt>
</event>
<event>
 6    1  0.6513574E-002  0.3000000E+03  0.7818608E-02  0.1093470E+00
         21   -1    0    0  501  502  0.00000000000E+00  0.00000000000E+00  0.13528591349E+01  0.13528591349E+01  0.00000000000E+00 0. -1.
         13   -1    0    0    0    0 -0.00000000000E+00 -0.00000000000E+00 -0.10000000000E+04  0.10000000000E+04  0.00000000000E+00 0.  1.
    9000005    2    1    2  501    0 -0.14990819168E+02  0.27332276195E+02 -0.23994075647E+03  0.24200632710E+03  0.48700885978E+01 0.  0.
         13    1    3    3    0    0 -0.14693686300E+02  0.24243509413E+02 -0.20989564592E+03  0.21180140307E+03  0.00000000000E+00 0.  1.
          3    1    3    3  501    0 -0.29713286792E+00  0.30887667824E+01 -0.30045110542E+02  0.30204924030E+02  0.00000000000E+00 0.  1.
         -1    1    1    2    0  502  0.14990819168E+02 -0.27332276195E+02 -0.75870638440E+03  0.75934653203E+03  0.00000000000E+00 0. -1.
<mgrwt>
<rscale>  1 0.30000000E+03</rscale>
<asrwt>0</asrwt>
<pdfrwt beam="1">  1       21 0.49194981E-02 0.30000000E+03</pdfrwt>
<pdfrwt beam="2">0</pdfrwt>
<totfact> 0.29612491E+04</totfact>
</mgrwt>
</event>
<event>
 6    1  0.6513574E-002  0.3000000E+03  0.7818608E-02  0.1093470E+00
         21   -1    0    0  501  502  0.00000000000E+00  0.00000000000E+00  0.15862761932E+01  0.15862761932E+01  0.00000000000E+00 0. -1.
         13   -1    0    0    0    0 -0.00000000000E+00 -0.00000000000E+00 -0.10000000000E+04  0.10000000000E+04  0.00000000000E+00 0.  1.
    9000005    2    1    2  501    0 -0.31008801588E+02  0.93329288456E+01 -0.20974432587E+03  0.21225233636E+03  0.31181271933E+01 0.  0.
         13    1    3    3    0    0 -0.25061116262E+02  0.65041778684E+01 -0.16202796696E+03  0.16408359442E+03  0.00000000000E+00 0.  1.
          1    1    3    3  501    0 -0.59476853262E+01  0.28287509772E+01 -0.47716358908E+02  0.48168741942E+02  0.00000000000E+00 0.  1.
         -3    1    1    2    0  502  0.31008801588E+02 -0.93329288456E+01 -0.78866939794E+03  0.78933393984E+03  0.00000000000E+00 0. -1.
<mgrwt>
<rscale>  1 0.30000000E+03</rscale>
<asrwt>0</asrwt>
<pdfrwt beam="1">  1       21 0.57682892E-02 0.30000000E+03</pdfrwt>
<pdfrwt beam="2">0</pdfrwt>
<totfact> 0.22551437E+04</totfact>
</mgrwt>
</event>
<event>
 6    1  0.6513574E-002  0.3000000E+03  0.7818608E-02  0.1093470E+00
         21   -1    0    0  501  502  0.00000000000E+00  0.00000000000E+00  0.27424943340E+01  0.27424943340E+01  0.00000000000E+00 0. -1.
         13   -1    0    0    0    0 -0.00000000000E+00 -0.00000000000E+00 -0.10000000000E+04  0.10000000000E+04  0.00000000000E+00 0.  1.
    9000005    2    1    2  501    0 -0.36915713985E+02 -0.31642381522E+02 -0.68404155683E+03  0.68577523916E+03  0.32889096623E+01 0.  0.
         13    1    3    3    0    0 -0.36625599364E+02 -0.31105836954E+02 -0.67030628717E+03  0.67202643269E+03  0.00000000000E+00 0.  1.
          3    1    3    3  501    0 -0.29011462128E+00 -0.53654456797E+00 -0.13735269663E+02  0.13748806467E+02  0.00000000000E+00 0.  1.
         -3    1    1    2    0  502  0.36915713985E+02  0.31642381522E+02 -0.31321594884E+03  0.31696725518E+03  0.00000000000E+00 0. -1.
<mgrwt>
<rscale>  1 0.30000000E+03</rscale>
<asrwt>0</asrwt>
<pdfrwt beam="1">  1       21 0.99727277E-02 0.30000000E+03</pdfrwt>
<pdfrwt beam="2">0</pdfrwt>
<totfact> 0.86452785E+03</totfact>
</mgrwt>
</event>
<event>
 6    1  0.6513574E-002  0.3000000E+03  0.7818608E-02  0.1093470E+00
         21   -1    0    0  501  502  0.00000000000E+00  0.00000000000E+00  0.23510839914E+01  0.23510839914E+01  0.00000000000E+00 0. -1.
         13   -1    0    0    0    0 -0.00000000000E+00 -0.00000000000E+00 -0.10000000000E+04  0.10000000000E+04  0.00000000000E+00 0.  1.
    9000005    2    1    2  501    0 -0.20839943163E+02  0.39430536136E+02 -0.30380442373E+03  0.30707470018E+03  0.29450306971E+01 0.  0.
         13    1    3    3    0    0 -0.18333579414E+02  0.32333889096E+02 -0.25265309442E+03  0.25537264269E+03  0.00000000000E+00 0.  1.
          1    1    3    3  501    0 -0.25063637487E+01  0.70966470405E+01 -0.51151329309E+02  0.51702057488E+02  0.00000000000E+00 0.  1.
         -1    1    1    2    0  502  0.20839943163E+02 -0.39430536136E+02 -0.69384449228E+03  0.69527638381E+03  0.00000000000E+00 0. -1.
<mgrwt>
<rscale>  1 0.30000000E+03</rscale>
<asrwt>0</asrwt>
<pdfrwt beam="1">  1       21 0.85494144E-02 0.30000000E+03</pdfrwt>
<pdfrwt beam="2">0</pdfrwt>
<totfact> 0.11364478E+04</totfact>
</mgrwt>
</event>
<event>
 6    1  0.6513574E-002  0.3000000E+03  0.7818608E-02  0.1093470E+00
         21   -1    0    0  501  502  0.00000000000E+00  0.00000000000E+00  0.26633961887E+01  0.26633961887E+01  0.00000000000E+00 0. -1.
         13   -1    0    0    0    0 -0.00000000000E+00 -0.00000000000E+00 -0.10000000000E+04  0.10000000000E+04  0.00000000000E+00 0.  1.
    9000005    2    1    2  501    0  0.47244830801E+02 -0.18542834211E+02 -0.41096950608E+03  0.41410389704E+03  0.31924718952E+01 0.  0.
         13    1    3    3    0    0  0.17282041102E+02 -0.63555480136E+01 -0.16136326869E+03  0.16241048740E+03  0.00000000000E+00 0.  1.
          1    1    3    3  501    0  0.29962789700E+02 -0.12187286198E+02 -0.24960623739E+03  0.25169340964E+03  0.00000000000E+00 0.  1.
         -3    1    1    2    0  502 -0.47244830801E+02  0.18542834211E+02 -0.58636709773E+03  0.58855949915E+03  0.00000000000E+00 0. -1.
<mgrwt>
<rscale>  1 0.30000000E+03</rscale>
<asrwt>0</asrwt>
<pdfrwt beam="1">  1       21 0.96850975E-02 0.30000000E+03</pdfrwt>
<pdfrwt beam="2">0</pdfrwt>
<totfact> 0.91089252E+03</totfact>
</mgrwt>
</event>
<event>
 6    1  0.6513574E-002  0.3000000E+03  0.7818608E-02  0.1093470E+00
         21   -1    0    0  501  502  0.00000000000E+00  0.00000000000E+00  0.61024754030E+01  0.61024754030E+01  0.00000000000E+00 0. -1.
         13   -1    0    0    0    0 -0.00000000000E+00 -0.00000000000E+00 -0.10000000000E+04  0.10000000000E+04  0.00000000000E+00 0.  1.
    9000005    2    1    2  501    0 -0.49303821923E+02  0.59490752354E+02 -0.42494194749E+03  0.43192439746E+03  0.36069253920E+01 0.  0.
         13    1    3    3    0    0 -0.35162384534E+02  0.44789937958E+02 -0.31565006688E+03  0.32074522062E+03  0.00000000000E+00 0.  1.
          1    1    3    3  501    0 -0.14141437390E+02  0.14700814396E+02 -0.10929188061E+03  0.11117917684E+03  0.00000000000E+00 0.  1.
         -1    1    1    2    0  502  0.49303821923E+02 -0.59490752354E+02 -0.56895557710E+03  0.57417807794E+03  0.00000000000E+00 0. -1.
<mgrwt>
<rscale>  1 0.30000000E+03</rscale>
<asrwt>0</asrwt>
<pdfrwt beam="1">  1       21 0.22190866E-01 0.30000000E+03</pdfrwt>
<pdfrwt beam="2">0</pdfrwt>
<totfact> 0.19656127E+03</totfact>
</mgrwt>
</event>
<event>
 6    1  0.6513574E-002  0.3000000E+03  0.7818608E-02  0.1093470E+00
         21   -1    0    0  501  502  0.00000000000E+00  0.00000000000E+00  0.24908415723E+01  0.24908415723E+01  0.00000000000E+00 0. -1.
         13   -1    0    0    0    0 -0.00000000000E+00 -0.00000000000E+00 -0.10000000000E+04  0.10000000000E+04  0.00000000000E+00 0.  1.
    9000005    2    1    2  501    0 -0.87399175294E+01 -0.47650823168E+02 -0.38089610591E+03  0.38397758897E+03  0.31556660805E+01 0.  0.
         13    1    3    3    0    0 -0.72733158856E+01 -0.41091207596E+02 -0.33590512950E+03  0.33848728852E+03  0.00000000000E+00 0.  1.
          3    1    3    3  501    0 -0.14666016438E+01 -0.65596155721E+01 -0.44990976408E+02  0.45490300449E+02  0.00000000000E+00 0.  1.
         -3    1    1    2    0  502  0.87399175294E+01  0.47650823168E+02 -0.61661305252E+03  0.61851325260E+03  0.00000000000E+00 0. -1.
<mgrwt>
<rscale>  1 0.30000000E+03</rscale>
<asrwt>0</asrwt>
<pdfrwt beam="1">  1       21 0.90576248E-02 0.30000000E+03</pdfrwt>
<pdfrwt beam="2">0</pdfrwt>
<totfact> 0.10261368E+04</totfact>
</mgrwt>
</event>
<event>
 6    1  0.6513574E-002  0.3000000E+03  0.7818608E-02  0.1093470E+00
         21   -1    0    0  501  502  0.00000000000E+00  0.00000000000E+00  0.18536600317E+01  0.18536600317E+01  0.00000000000E+00 0. -1.
         13   -1    0    0    0    0 -0.00000000000E+00 -0.00000000000E+00 -0.10000000000E+04  0.10000000000E+04  0.00000000000E+00 0.  1.
    9000005    2    1    2  501    0  0.12966139234E+02  0.31991645817E+02 -0.79790631666E+03  0.79866002553E+03  0.34292914984E+01 0.  0.
         13    1    3    3    0    0  0.27991140263E+00  0.81573227405E+00 -0.10795075207E+02  0.10829469897E+02  0.00000000000E+00 0.  1.
          3    1    3    3  501    0  0.12686227832E+02  0.31175913543E+02 -0.78711124145E+03  0.78783055563E+03  0.00000000000E+00 0.  1.
         -1    1    1    2    0  502 -0.12966139234E+02 -0.31991645817E+02 -0.20024002331E+03  0.20319363451E+03  0.00000000000E+00 0. -1.
<mgrwt>
<rscale>  1 0.30000000E+03</rscale>
<asrwt>0</asrwt>
<pdfrwt beam="1">  1       21 0.67405961E-02 0.30000000E+03</pdfrwt>
<pdfrwt beam="2">0</pdfrwt>
<totfact> 0.17229643E+04</totfact>
</mgrwt>
</event>
<event>
 6    1  0.6513574E-002  0.3000000E+03  0.7818608E-02  0.1093470E+00
         21   -1    0    0  501  502  0.00000000000E+00  0.00000000000E+00  0.14811292310E+01  0.14811292310E+01  0.00000000000E+00 0. -1.
         13   -1    0    0    0    0 -0.00000000000E+00 -0.00000000000E+00 -0.10000000000E+04  0.10000000000E+04  0.00000000000E+00 0.  1.
    9000005    2    1    2  501    0  0.35051197555E+02  0.45498751705E+01 -0.69590689797E+03  0.69681197442E+03  0.33510049107E+01 0.  0.
         13    1    3    3    0    0  0.10736613698E+02  0.21467516715E+01 -0.24290746495E+03  0.24315410740E+03  0.00000000000E+00 0.  1.
          3    1    3    3  501    0  0.24314583856E+02  0.24031234990E+01 -0.45299943303E+03  0.45365786702E+03  0.00000000000E+00 0.  1.
         -1    1    1    2    0  502 -0.35051197555E+02 -0.45498751705E+01 -0.30261197279E+03  0.30466915481E+03  0.00000000000E+00 0. -1.
<mgrwt>
<rscale>  1 0.30000000E+03</rscale>
<asrwt>0</asrwt>
<pdfrwt beam="1">  1       21 0.53859358E-02 0.30000000E+03</pdfrwt>
<pdfrwt beam="2">0</pdfrwt>
<totfact> 0.25368921E+04</totfact>
</mgrwt>
</event>
<event>
 6    1  0.6513574E-002  0.3000000E+03  0.7818608E-02  0.1093470E+00
         21   -1    0    0  501  502  0.00000000000E+00  0.00000000000E+00  0.19706710815E+01  0.19706710815E+01  0.00000000000E+00 0. -1.
         13   -1    0    0    0    0 -0.00000000000E+00 -0.00000000000E+00 -0.10000000000E+04  0.10000000000E+04  0.00000000000E+00 0.  1.
    9000005    2    1    2  501    0  0.36110295291E+02  0.24021078736E+02 -0.39563298589E+03  0.39801511001E+03  0.30988104144E+01 0.  0.
         13    1    3    3    0    0  0.30556999452E+02  0.19396165292E+02 -0.32158237793E+03  0.32361268090E+03  0.00000000000E+00 0.  1.
          3    1    3    3  501    0  0.55532958396E+01  0.46249134439E+01 -0.74050607962E+02  0.74402429118E+02  0.00000000000E+00 0.  1.
         -1    1    1    2    0  502 -0.36110295291E+02 -0.24021078736E+02 -0.60239634303E+03  0.60395556107E+03  0.00000000000E+00 0. -1.
<mgrwt>
<rscale>  1 0.30000000E+03</rscale>
<asrwt>0</asrwt>
<pdfrwt beam="1">  1       21 0.71660918E-02 0.30000000E+03</pdfrwt>
<pdfrwt beam="2">0</pdfrwt>
<totfact> 0.15489422E+04</totfact>
</mgrwt>
</event>
<event>
 6    1  0.6513574E-002  0.3000000E+03  0.7818608E-02  0.1093470E+00
         21   -1    0    0  501  502  0.00000000000E+00  0.00000000000E+00  0.33162957087E+01  0.33162957087E+01  0.00000000000E+00 0. -1.
         13   -1    0    0    0    0 -0.00000000000E+00 -0.00000000000E+00 -0.10000000000E+04  0.10000000000E+04  0.00000000000E+00 0.  1.
    9000005    2    1    2  501    0 -0.38374817609E+02 -0.43485227510E+01 -0.87031666218E+03  0.87117937578E+03  0.32978838037E+01 0.  0.
         13    1    3    3    0    0 -0.28174539476E+02 -0.45759363701E+01 -0.63051893588E+03  0.63116469512E+03  0.00000000000E+00 0.  1.
          1    1    3    3  501    0 -0.10200278134E+02  0.22741361909E+00 -0.23979772630E+03  0.24001468066E+03  0.00000000000E+00 0.  1.
         -1    1    1    2    0  502  0.38374817609E+02  0.43485227510E+01 -0.12636704211E+03  0.13213691993E+03  0.00000000000E+00 0. -1.
<mgrwt>
<rscale>  1 0.30000000E+03</rscale>
<asrwt>0</asrwt>
<pdfrwt beam="1">  1       21 0.12059283E-01 0.30000000E+03</pdfrwt>
<pdfrwt beam="2">0</pdfrwt>
<totfact> 0.61419240E+03</totfact>
</mgrwt>
</event>
<event>
 6    1  0.6513574E-002  0.3000000E+03  0.7818608E-02  0.1093470E+00
         21   -1    0    0  501  502  0.00000000000E+00  0.00000000000E+00  0.16063899262E+01  0.16063899262E+01  0.00000000000E+00 0. -1.
         13   -1    0    0    0    0 -0.00000000000E+00 -0.00000000000E+00 -0.10000000000E+04  0.10000000000E+04  0.00000000000E+00 0.  1.
    9000005    2    1    2  501    0  0.31761485615E+02 -0.15924109740E+02 -0.26819142825E+03  0.27054032207E+03  0.17476945246E+01 0.  0.
         13    1    3    3    0    0  0.22901493240E+02 -0.11770030798E+02 -0.18860050707E+03  0.19035010713E+03  0.00000000000E+00 0.  1.
          1    1    3    3  501    0  0.88599923750E+01 -0.41540789421E+01 -0.79590921187E+02  0.80190214940E+02  0.00000000000E+00 0.  1.
         -3    1    1    2    0  502 -0.31761485615E+02  0.15924109740E+02 -0.73020218182E+03  0.73106606786E+03  0.00000000000E+00 0. -1.
<mgrwt>
<rscale>  1 0.30000000E+03</rscale>
<asrwt>0</asrwt>
<pdfrwt beam="1">  1       21 0.58414302E-02 0.30000000E+03</pdfrwt>
<pdfrwt beam="2">0</pdfrwt>
<totfact> 0.22067333E+04</totfact>
</mgrwt>
</event>
<event>
 6    1  0.6513574E-002  0.3000000E+03  0.7818608E-02  0.1093470E+00
         21   -1    0    0  501  502  0.00000000000E+00  0.00000000000E+00  0.17055407734E+01  0.17055407734E+01  0.00000000000E+00 0. -1.
         13   -1    0    0    0    0 -0.00000000000E+00 -0.00000000000E+00 -0.10000000000E+04  0.10000000000E+04  0.00000000000E+00 0.  1.
    9000005    2    1    2  501    0 -0.38812587609E+02 -0.10982048195E+02 -0.39685384432E+03  0.39891383911E+03  0.35007055587E+01 0.  0.
         13    1    3    3    0    0 -0.26497655749E+02 -0.85942651416E+01 -0.26120000610E+03  0.26268123332E+03  0.00000000000E+00 0.  1.
          3    1    3    3  501    0 -0.12314931861E+02 -0.23877830537E+01 -0.13565383822E+03  0.13623260579E+03  0.00000000000E+00 0.  1.
         -1    1    1    2    0  502  0.38812587609E+02  0.10982048195E+02 -0.60144061491E+03  0.60279170167E+03  0.00000000000E+00 0. -1.
<mgrwt>
<rscale>  1 0.30000000E+03</rscale>
<asrwt>0</asrwt>
<pdfrwt beam="1">  1       21 0.62019795E-02 0.30000000E+03</pdfrwt>
<pdfrwt beam="2">0</pdfrwt>
<totfact> 0.19901365E+04</totfact>
</mgrwt>
</event>
<event>
 6    1  0.6513574E-002  0.3000000E+03  0.7818608E-02  0.1093470E+00
         21   -1    0    0  501  502  0.00000000000E+00  0.00000000000E+00  0.14634796405E+01  0.14634796405E+01  0.00000000000E+00 0. -1.
         13   -1    0    0    0    0 -0.00000000000E+00 -0.00000000000E+00 -0.10000000000E+04  0.10000000000E+04  0.00000000000E+00 0.  1.
    9000005    2    1    2  501    0 -0.10467697265E+02 -0.30345999027E+02 -0.22955605284E+03  0.23181329172E+03  0.33118693515E+01 0.  0.
         13    1    3    3    0    0 -0.29572370917E+01 -0.52634308413E+01 -0.48322899216E+02  0.48698578461E+02  0.00000000000E+00 0.  1.
          1    1    3    3  501    0 -0.75104601737E+01 -0.25082568186E+02 -0.18123315363E+03  0.18311471326E+03  0.00000000000E+00 0.  1.
         -3    1    1    2    0  502  0.10467697265E+02  0.30345999027E+02 -0.76898046751E+03  0.76965018792E+03  0.00000000000E+00 0. -1.
<mgrwt>
<rscale>  1 0.30000000E+03</rscale>
<asrwt>0</asrwt>
<pdfrwt beam="1">  1       21 0.53217554E-02 0.30000000E+03</pdfrwt>
<pdfrwt beam="2">0</pdfrwt>
<totfact> 0.25894781E+04</totfact>
</mgrwt>
</event>
<event>
 6    1  0.6513574E-002  0.3000000E+03  0.7818608E-02  0.1093470E+00
         21   -1    0    0  501  502  0.00000000000E+00  0.00000000000E+00  0.12526042460E+01  0.12526042460E+01  0.00000000000E+00 0. -1.
         13   -1    0    0    0    0 -0.00000000000E+00 -0.00000000000E+00 -0.10000000000E+04  0.10000000000E+04  0.00000000000E+00 0.  1.
    9000005    2    1    2  501    0  0.31700932247E+02  0.13069975127E+02 -0.61962027066E+03  0.62057800523E+03  0.34651703167E+01 0.  0.
         13    1    3    3    0    0  0.53504770357E+01  0.12717182245E+01 -0.83500280934E+02  0.83681191362E+02  0.00000000000E+00 0.  1.
          3    1    3    3  501    0  0.26350455211E+02  0.11798256902E+02 -0.53611998973E+03  0.53689681387E+03  0.00000000000E+00 0.  1.
         -3    1    1    2    0  502 -0.31700932247E+02 -0.13069975127E+02 -0.37912712510E+03  0.38067459902E+03  0.00000000000E+00 0. -1.
<mgrwt>
<rscale>  1 0.30000000E+03</rscale>
<asrwt>0</asrwt>
<pdfrwt beam="1">  1       21 0.45549341E-02 0.30000000E+03</pdfrwt>
<pdfrwt beam="2">0</pdfrwt>
<totfact> 0.33755621E+04</totfact>
</mgrwt>
</event>
<event>
 6    1  0.6513574E-002  0.3000000E+03  0.7818608E-02  0.1093470E+00
         21   -1    0    0  501  502  0.00000000000E+00  0.00000000000E+00  0.13672578178E+01  0.13672578178E+01  0.00000000000E+00 0. -1.
         13   -1    0    0    0    0 -0.00000000000E+00 -0.00000000000E+00 -0.10000000000E+04  0.10000000000E+04  0.00000000000E+00 0.  1.
    9000005    2    1    2  501    0  0.30781754580E+02 -0.14444901748E+02 -0.69272406386E+03  0.69357464732E+03  0.47949096684E+01 0.  0.
         13    1    3    3    0    0  0.19916577754E+01 -0.22190270895E+01 -0.74897230997E+02  0.74956560707E+02  0.00000000000E+00 0.  1.
          3    1    3    3  501    0  0.28790096805E+02 -0.12225874658E+02 -0.61782683286E+03  0.61861808662E+03  0.00000000000E+00 0.  1.
         -1    1    1    2    0  502 -0.30781754580E+02  0.14444901748E+02 -0.30590867832E+03  0.30779261049E+03  0.00000000000E+00 0. -1.
<mgrwt>
<rscale>  1 0.30000000E+03</rscale>
<asrwt>0</asrwt>
<pdfrwt beam="1">  1       21 0.49718571E-02 0.30000000E+03</pdfrwt>
<pdfrwt beam="2">0</pdfrwt>
<totfact> 0.29083121E+04</totfact>
</mgrwt>
</event>
<event>
 6    1  0.6513574E-002  0.3000000E+03  0.7818608E-02  0.1093470E+00
         21   -1    0    0  501  502  0.00000000000E+00  0.00000000000E+00  0.10059455049E+01  0.10059455049E+01  0.00000000000E+00 0. -1.
         13   -1    0    0    0    0 -0.00000000000E+00 -0.00000000000E+00 -0.10000000000E+04  0.10000000000E+04  0.00000000000E+00 0.  1.
    9000005    2    1    2  501    0 -0.24506350364E+02  0.17704766904E+02 -0.64711954314E+03  0.64783503544E+03  0.35369537787E+01 0.  0.
         13    1    3    3    0    0 -0.20776820032E+02  0.13654780463E+02 -0.51175474676E+03  0.51235832198E+03  0.00000000000E+00 0.  1.
          1    1    3    3  501    0 -0.37295303323E+01  0.40499864410E+01 -0.13536479639E+03  0.13547671345E+03  0.00000000000E+00 0.  1.
         -1    1    1    2    0  502  0.24506350364E+02 -0.17704766904E+02 -0.35187451135E+03  0.35317091007E+03  0.00000000000E+00 0. -1.
<mgrwt>
<rscale>  1 0.30000000E+03</rscale>
<asrwt>0</asrwt>
<pdfrwt beam="1">  1       21 0.36579914E-02 0.30000000E+03</pdfrwt>
<pdfrwt beam="2">0</pdfrwt>
<totfact> 0.48862831E+04</totfact>
</mgrwt>
</event>
<event>
 6    1  0.6513574E-002  0.3000000E+03  0.7818608E-02  0.1093470E+00
         21   -1    0    0  501  502  0.00000000000E+00  0.00000000000E+00  0.10716110605E+01  0.10716110605E+01  0.00000000000E+00 0. -1.
         13   -1    0    0    0    0 -0.00000000000E+00 -0.00000000000E+00 -0.10000000000E+04  0.10000000000E+04  0.00000000000E+00 0.  1.
    9000005    2    1    2  501    0 -0.29984715663E+02 -0.12636711540E+02 -0.54297260534E+03  0.54395625773E+03  0.32234333956E+01 0.  0.
         13    1    3    3    0    0 -0.75006198498E+01 -0.28623838603E+01 -0.11253050151E+03  0.11281651612E+03  0.00000000000E+00 0.  1.
          1    1    3    3  501    0 -0.22484095813E+02 -0.97743276796E+01 -0.43044210382E+03  0.43113974160E+03  0.00000000000E+00 0.  1.
         -1    1    1    2    0  502  0.29984715663E+02  0.12636711540E+02 -0.45595578360E+03  0.45711535333E+03  0.00000000000E+00 0. -1.
<mgrwt>
<rscale>  1 0.30000000E+03</rscale>
<asrwt>0</asrwt>
<pdfrwt beam="1">  1       21 0.38967757E-02 0.30000000E+03</pdfrwt>
<pdfrwt beam="2">0</pdfrwt>
<totfact> 0.43938750E+04</totfact>
</mgrwt>
</event>
<event>
 6    1  0.6513574E-002  0.3000000E+03  0.7818608E-02  0.1093470E+00
         21   -1    0    0  501  502  0.00000000000E+00  0.00000000000E+00  0.12170129729E+01  0.12170129729E+01  0.00000000000E+00 0. -1.
         13   -1    0    0    0    0 -0.00000000000E+00 -0.00000000000E+00 -0.10000000000E+04  0.10000000000E+04  0.00000000000E+00 0.  1.
    9000005    2    1    2  501    0 -0.25611129843E+02  0.22811917975E+02 -0.41310645964E+03  0.41453711021E+03  0.27848108607E+01 0.  0.
         13    1    3    3    0    0 -0.27448068968E+01  0.14919928739E+01 -0.42083289444E+02  0.42199090726E+02  0.00000000000E+00 0.  1.
          1    1    3    3  501    0 -0.22866322946E+02  0.21319925101E+02 -0.37102317020E+03  0.37233801949E+03  0.00000000000E+00 0.  1.
         -3    1    1    2    0  502  0.25611129843E+02 -0.22811917975E+02 -0.58567652738E+03  0.58667990276E+03  0.00000000000E+00 0. -1.
<mgrwt>
<rscale>  1 0.30000000E+03</rscale>
<asrwt>0</asrwt>
<pdfrwt beam="1">  1       21 0.44255111E-02 0.30000000E+03</pdfrwt>
<pdfrwt beam="2">0</pdfrwt>
<totfact> 0.35447480E+04</totfact>
</mgrwt>
</event>
<event>
 6    1  0.6513574E-002  0.3000000E+03  0.7818608E-02  0.1093470E+00
         21   -1    0    0  501  502  0.00000000000E+00  0.00000000000E+00  0.26231850948E+01  0.26231850948E+01  0.00000000000E+00 0. -1.
         13   -1    0    0    0    0 -0.00000000000E+00 -0.00000000000E+00 -0.10000000000E+04  0.10000000000E+04  0.00000000000E+00 0.  1.
    9000005    2    1    2  501    0 -0.35883746769E+02  0.36463542669E+02 -0.49823621767E+03  0.50086769780E+03  0.34480242613E+01 0.  0.
         13    1    3    3    0    0 -0.22536597478E+02  0.23994857560E+02 -0.33447725086E+03  0.33609326497E+03  0.00000000000E+00 0.  1.
          1    1    3    3  501    0 -0.13347149291E+02  0.12468685108E+02 -0.16375896681E+03  0.16477443282E+03  0.00000000000E+00 0.  1.
         -1    1    1    2    0  502  0.35883746769E+02 -0.36463542669E+02 -0.49914059724E+03  0.50175548730E+03  0.00000000000E+00 0. -1.
<mgrwt>
<rscale>  1 0.30000000E+03</rscale>
<asrwt>0</asrwt>
<pdfrwt beam="1">  1       21 0.95388750E-02 0.30000000E+03</pdfrwt>
<pdfrwt beam="2">0</pdfrwt>
<totfact> 0.93593739E+03</totfact>
</mgrwt>
</event>
<event>
 6    1  0.6513574E-002  0.3000000E+03  0.7818608E-02  0.1093470E+00
         21   -1    0    0  501  502  0.00000000000E+00  0.00000000000E+00  0.21393488600E+01  0.21393488600E+01  0.00000000000E+00 0. -1.
         13   -1    0    0    0    0 -0.00000000000E+00 -0.00000000000E+00 -0.10000000000E+04  0.10000000000E+04  0.00000000000E+00 0.  1.
    9000005    2    1    2  501    0  0.24880250499E+02  0.36654750645E+02 -0.35948521492E+03  0.36222857760E+03  0.41623397248E+01 0.  0.
         13    1    3    3    0    0  0.65113570813E+01  0.79252682591E+01 -0.71636693737E+02  0.72367282231E+02  0.00000000000E+00 0.  1.
          3    1    3    3  501    0  0.18368893418E+02  0.28729482385E+02 -0.28784852119E+03  0.28986129537E+03  0.00000000000E+00 0.  1.
         -3    1    1    2    0  502 -0.24880250499E+02 -0.36654750645E+02 -0.63837543622E+03  0.63991077126E+03  0.00000000000E+00 0. -1.
<mgrwt>
<rscale>  1 0.30000000E+03</rscale>
<asrwt>0</asrwt>
<pdfrwt beam="1">  1       21 0.77794668E-02 0.30000000E+03</pdfrwt>
<pdfrwt beam="2">0</pdfrwt>
<totfact> 0.13416211E+04</totfact>
</mgrwt>
</event>
<event>
 6    1  0.6513574E-002  0.3000000E+03  0.7818608E-02  0.1093470E+00
         21   -1    0    0  501  502  0.00000000000E+00  0.00000000000E+00  0.11099378836E+01  0.11099378836E+01  0.00000000000E+00 0. -1.
         13   -1    0    0    0    0 -0.00000000000E+00 -0.00000000000E+00 -0.10000000000E+04  0.10000000000E+04  0.00000000000E+00 0.  1.
    9000005    2    1    2  501    0 -0.29538549133E+02  0.10176396587E+02 -0.67149300447E+03  0.67222558391E+03  0.28802222464E+01 0.  0.
         13    1    3    3    0    0 -0.11221367262E+01  0.99325208619E+00 -0.36447911115E+02  0.36478705640E+02  0.00000000000E+00 0.  1.
          1    1    3    3  501    0 -0.28416412407E+02  0.91831445009E+01 -0.63504509336E+03  0.63574687827E+03  0.00000000000E+00 0.  1.
         -1    1    1    2    0  502  0.29538549133E+02 -0.10176396587E+02 -0.32739705764E+03  0.32888435397E+03  0.00000000000E+00 0. -1.
<mgrwt>
<rscale>  1 0.30000000E+03</rscale>
<asrwt>0</asrwt>
<pdfrwt beam="1">  1       21 0.40361463E-02 0.30000000E+03</pdfrwt>
<pdfrwt beam="2">0</pdfrwt>
<totfact> 0.41414983E+04</totfact>
</mgrwt>
</event>
<event>
 6    1  0.6513574E-002  0.3000000E+03  0.7818608E-02  0.1093470E+00
         21   -1    0    0  501  502  0.00000000000E+00  0.00000000000E+00  0.14503386927E+01  0.14503386927E+01  0.00000000000E+00 0. -1.
         13   -1    0    0    0    0 -0.00000000000E+00 -0.00000000000E+00 -0.10000000000E+04  0.10000000000E+04  0.00000000000E+00 0.  1.
    9000005    2    1    2  501    0  0.88637575208E+01  0.36845580487E+02 -0.53803681747E+03  0.53938081759E+03  0.34476695336E+01 0.  0.
         13    1    3    3    0    0  0.85067076202E+01  0.34803444966E+02 -0.51781859845E+03  0.51905659109E+03  0.00000000000E+00 0.  1.
          1    1    3    3  501    0  0.35704990062E+00  0.20421355212E+01 -0.20218219022E+02  0.20324226493E+02  0.00000000000E+00 0.  1.
         -3    1    1    2    0  502 -0.88637575208E+01 -0.36845580487E+02 -0.46051284384E+03  0.46206952111E+03  0.00000000000E+00 0. -1.
<mgrwt>
<rscale>  1 0.30000000E+03</rscale>
<asrwt>0</asrwt>
<pdfrwt beam="1">  1       21 0.52739700E-02 0.30000000E+03</pdfrwt>
<pdfrwt beam="2">0</pdfrwt>
<totfact> 0.26297341E+04</totfact>
</mgrwt>
</event>
<event>
 6    1  0.6513574E-002  0.3000000E+03  0.7818608E-02  0.1093470E+00
         21   -1    0    0  501  502  0.00000000000E+00  0.00000000000E+00  0.15963835657E+01  0.15963835657E+01  0.00000000000E+00 0. -1.
         13   -1    0    0    0    0 -0.00000000000E+00 -0.00000000000E+00 -0.10000000000E+04  0.10000000000E+04  0.00000000000E+00 0.  1.
    9000005    2    1    2  501    0 -0.32458694352E+02  0.29356658162E+01 -0.21207784583E+03  0.21459549253E+03  0.34681046606E+01 0.  0.
         13    1    3    3    0    0 -0.19307104563E+02  0.30193885825E+01 -0.13408042468E+03  0.13549701575E+03  0.00000000000E+00 0.  1.
          3    1    3    3  501    0 -0.13151589790E+02 -0.83722766325E-01 -0.77997421147E+02  0.79098476781E+02  0.00000000000E+00 0.  1.
         -1    1    1    2    0  502  0.32458694352E+02 -0.29356658162E+01 -0.78632577061E+03  0.78700089104E+03  0.00000000000E+00 0. -1.
<mgrwt>
<rscale>  1 0.30000000E+03</rscale>
<asrwt>0</asrwt>
<pdfrwt beam="1">  1       21 0.58050434E-02 0.30000000E+03</pdfrwt>
<pdfrwt beam="2">0</pdfrwt>
<totfact> 0.22306157E+04</totfact>
</mgrwt>
</event>
<event>
 6    1  0.6513574E-002  0.3000000E+03  0.7818608E-02  0.1093470E+00
         21   -1    0    0  501  502  0.00000000000E+00  0.00000000000E+00  0.26346640299E+01  0.26346640299E+01  0.00000000000E+00 0. -1.
         13   -1    0    0    0    0 -0.00000000000E+00 -0.00000000000E+00 -0.10000000000E+04  0.10000000000E+04  0.00000000000E+00 0.  1.
    9000005    2    1    2  501    0 -0.49976519415E+02 -0.79113161579E+01 -0.58205316287E+03  0.58425153514E+03  0.19314471414E+01 0.  0.
         13    1    3    3    0    0 -0.34430764776E+02 -0.45793393531E+01 -0.40217500040E+03  0.40367211801E+03  0.00000000000E+00 0.  1.
          1    1    3    3  501    0 -0.15545754639E+02 -0.33319768048E+01 -0.17987816246E+03  0.18057941712E+03  0.00000000000E+00 0.  1.
         -3    1    1    2    0  502  0.49976519415E+02  0.79113161579E+01 -0.41531217310E+03  0.41838312889E+03  0.00000000000E+00 0. -1.
<mgrwt>
<rscale>  1 0.30000000E+03</rscale>
<asrwt>0</asrwt>
<pdfrwt beam="1">  1       21 0.95806167E-02 0.30000000E+03</pdfrwt>
<pdfrwt beam="2">0</pdfrwt>
<totfact> 0.92868133E+03</totfact>
</mgrwt>
</event>
<event>
 6    1  0.6513574E-002  0.3000000E+03  0.7818608E-02  0.1093470E+00
         21   -1    0    0  501  502  0.00000000000E+00  0.00000000000E+00  0.96817262914E+00  0.96817262914E+00  0.00000000000E+00 0. -1.
         13   -1    0    0    0    0 -0.00000000000E+00 -0.00000000000E+00 -0.10000000000E+04  0.10000000000E+04  0.00000000000E+00 0.  1.
    9000005    2    1    2  501    0 -0.29093999470E+02 -0.94010627600E+01 -0.58591537877E+03  0.58672181973E+03  0.32896627767E+01 0.  0.
         13    1    3    3    0    0 -0.22917238215E+02 -0.60304409719E+01 -0.45994302771E+03  0.46055309658E+03  0.00000000000E+00 0.  1.
          1    1    3    3  501    0 -0.61767612553E+01 -0.33706217881E+01 -0.12597235106E+03  0.12616872316E+03  0.00000000000E+00 0.  1.
         -3    1    1    2    0  502  0.29093999470E+02  0.94010627600E+01 -0.41311644860E+03  0.41424635289E+03  0.00000000000E+00 0. -1.
<mgrwt>
<rscale>  1 0.30000000E+03</rscale>
<asrwt>0</asrwt>
<pdfrwt beam="1">  1       21 0.35206352E-02 0.30000000E+03</pdfrwt>
<pdfrwt beam="2">0</pdfrwt>
<totfact> 0.52101316E+04</totfact>
</mgrwt>
</event>
<event>
 6    1  0.6513574E-002  0.3000000E+03  0.7818608E-02  0.1093470E+00
         21   -1    0    0  501  502  0.00000000000E+00  0.00000000000E+00  0.11519194679E+01  0.11519194679E+01  0.00000000000E+00 0. -1.
         13   -1    0    0    0    0 -0.00000000000E+00 -0.00000000000E+00 -0.10000000000E+04  0.10000000000E+04  0.00000000000E+00 0.  1.
    9000005    2    1    2  501    0  0.24196193514E+02 -0.21263751903E+02 -0.34775910690E+03  0.34926661168E+03  0.36285915290E+01 0.  0.
         13    1    3    3    0    0  0.83812905120E+01 -0.57854937924E+01 -0.97110558140E+02  0.97643117891E+02  0.00000000000E+00 0.  1.
          3    1    3    3  501    0  0.15814903002E+02 -0.15478258110E+02 -0.25064854876E+03  0.25162349379E+03  0.00000000000E+00 0.  1.
         -3    1    1    2    0  502 -0.24196193514E+02  0.21263751903E+02 -0.65108897363E+03  0.65188530778E+03  0.00000000000E+00 0. -1.
<mgrwt>
<rscale>  1 0.30000000E+03</rscale>
<asrwt>0</asrwt>
<pdfrwt beam="1">  1       21 0.41888069E-02 0.30000000E+03</pdfrwt>
<pdfrwt beam="2">0</pdfrwt>
<totfact> 0.38901349E+04</totfact>
</mgrwt>
</event>
<event>
 6    1  0.6513574E-002  0.3000000E+03  0.7818608E-02  0.1093470E+00
         21   -1    0    0  501  502  0.00000000000E+00  0.00000000000E+00  0.10384916543E+01  0.10384916543E+01  0.00000000000E+00 0. -1.
         13   -1    0    0    0    0 -0.00000000000E+00 -0.00000000000E+00 -0.10000000000E+04  0.10000000000E+04  0.00000000000E+00 0.  1.
    9000005    2    1    2  501    0  0.31146534037E+02 -0.74684432213E+01 -0.53893501643E+03  0.53989832046E+03  0.36551706227E+01 0.  0.
         13    1    3    3    0    0  0.24336080969E+02 -0.64730153080E+01 -0.39866779118E+03  0.39946232925E+03  0.00000000000E+00 0.  1.
          1    1    3    3  501    0  0.68104530680E+01 -0.99542791322E+00 -0.14026722525E+03  0.14043599121E+03  0.00000000000E+00 0.  1.
         -1    1    1    2    0  502 -0.31146534037E+02  0.74684432213E+01 -0.46002649191E+03  0.46114017119E+03  0.00000000000E+00 0. -1.
<mgrwt>
<rscale>  1 0.30000000E+03</rscale>
<asrwt>0</asrwt>
<pdfrwt beam="1">  1       21 0.37763413E-02 0.30000000E+03</pdfrwt>
<pdfrwt beam="2">0</pdfrwt>
<totfact> 0.46319522E+04</totfact>
</mgrwt>
</event>
<event>
 6    1  0.6513574E-002  0.3000000E+03  0.7818608E-02  0.1093470E+00
         21   -1    0    0  501  502  0.00000000000E+00  0.00000000000E+00  0.12847735841E+01  0.12847735841E+01  0.00000000000E+00 0. -1.
         13   -1    0    0    0    0 -0.00000000000E+00 -0.00000000000E+00 -0.10000000000E+04  0.10000000000E+04  0.00000000000E+00 0.  1.
    9000005    2    1    2  501    0 -0.24659099869E+02 -0.20907351687E+02 -0.71374768009E+03  0.71448921745E+03  0.37285993822E+01 0.  0.
         13    1    3    3    0    0 -0.64248704173E+01 -0.66769659638E+01 -0.17477643770E+03  0.17502189580E+03  0.00000000000E+00 0.  1.
          3    1    3    3  501    0 -0.18234229452E+02 -0.14230385723E+02 -0.53897124239E+03  0.53946732164E+03  0.00000000000E+00 0.  1.
         -3    1    1    2    0  502  0.24659099869E+02  0.20907351687E+02 -0.28496754632E+03  0.28679555614E+03  0.00000000000E+00 0. -1.
<mgrwt>
<rscale>  1 0.30000000E+03</rscale>
<asrwt>0</asrwt>
<pdfrwt beam="1">  1       21 0.46719138E-02 0.30000000E+03</pdfrwt>
<pdfrwt beam="2">0</pdfrwt>
<totfact> 0.32332110E+04</totfact>
</mgrwt>
</event>
<event>
 6    1  0.6513574E-002  0.3000000E+03  0.7818608E-02  0.1093470E+00
         21   -1    0    0  501  502  0.00000000000E+00  0.00000000000E+00  0.28487005708E+01  0.28487005708E+01  0.00000000000E+00 0. -1.
         13   -1    0    0    0    0 -0.00000000000E+00 -0.00000000000E+00 -0.10000000000E+04  0.10000000000E+04  0.00000000000E+00 0.  1.
    9000005    2    1    2  501    0  0.34823841741E+02 -0.42859940633E+01 -0.12479104889E+03  0.12978313807E+03  0.63077211644E+01 0.  0.
         13    1    3    3    0    0  0.22832615601E+02 -0.55059636493E+01 -0.87146481406E+02  0.90256042415E+02  0.00000000000E+00 0.  1.
          1    1    3    3  501    0  0.11991226139E+02  0.12199695860E+01 -0.37644567480E+02  0.39527095654E+02  0.00000000000E+00 0.  1.
         -3    1    1    2    0  502 -0.34823841741E+02  0.42859940633E+01 -0.87236025054E+03  0.87306556250E+03  0.00000000000E+00 0. -1.
<mgrwt>
<rscale>  1 0.30000000E+03</rscale>
<asrwt>0</asrwt>
<pdfrwt beam="1">  1       21 0.10358933E-01 0.30000000E+03</pdfrwt>
<pdfrwt beam="2">0</pdfrwt>
<totfact> 0.80772654E+03</totfact>
</mgrwt>
</event>
<event>
 6    1  0.6513574E-002  0.3000000E+03  0.7818608E-02  0.1093470E+00
         21   -1    0    0  501  502  0.00000000000E+00  0.00000000000E+00  0.17631756025E+01  0.17631756025E+01  0.00000000000E+00 0. -1.
         13   -1    0    0    0    0 -0.00000000000E+00 -0.00000000000E+00 -0.10000000000E+04  0.10000000000E+04  0.00000000000E+00 0.  1.
    9000005    2    1    2  501    0  0.28546671100E+02 -0.23009832382E+02 -0.74241278798E+03  0.74332497714E+03  0.33028870012E+01 0.  0.
         13    1    3    3    0    0  0.20028639874E+02 -0.16986229769E+02 -0.55732738592E+03  0.55794578009E+03  0.00000000000E+00 0.  1.
          3    1    3    3  501    0  0.85180312251E+01 -0.60236026123E+01 -0.18508540206E+03  0.18537919705E+03  0.00000000000E+00 0.  1.
         -3    1    1    2    0  502 -0.28546671100E+02  0.23009832382E+02 -0.25582403642E+03  0.25843819847E+03  0.00000000000E+00 0. -1.
<mgrwt>
<rscale>  1 0.30000000E+03</rscale>
<asrwt>0</asrwt>
<pdfrwt beam="1">  1       21 0.64115612E-02 0.30000000E+03</pdfrwt>
<pdfrwt beam="2">0</pdfrwt>
<totfact> 0.18790317E+04</totfact>
</mgrwt>
</event>
<event>
 6    1  0.6513574E-002  0.3000000E+03  0.7818608E-02  0.1093470E+00
         21   -1    0    0  501  502  0.00000000000E+00  0.00000000000E+00  0.20917605970E+01  0.20917605970E+01  0.00000000000E+00 0. -1.
         13   -1    0    0    0    0 -0.00000000000E+00 -0.00000000000E+00 -0.10000000000E+04  0.10000000000E+04  0.00000000000E+00 0.  1.
    9000005    2    1    2  501    0  0.23535269172E+02 -0.34193393191E+02 -0.70845692350E+03  0.70967910473E+03  0.31815410340E+01 0.  0.
         13    1    3    3    0    0  0.16024458003E+02 -0.24639078379E+02 -0.47969603757E+03  0.48059562618E+03  0.00000000000E+00 0.  1.
          3    1    3    3  501    0  0.75108111687E+01 -0.95543148111E+01 -0.22876088592E+03  0.22908347855E+03  0.00000000000E+00 0.  1.
         -3    1    1    2    0  502 -0.23535269172E+02  0.34193393191E+02 -0.28945131591E+03  0.29241265587E+03  0.00000000000E+00 0. -1.
<mgrwt>
<rscale>  1 0.30000000E+03</rscale>
<asrwt>0</asrwt>
<pdfrwt beam="1">  1       21 0.76064182E-02 0.30000000E+03</pdfrwt>
<pdfrwt beam="2">0</pdfrwt>
<totfact> 0.13955803E+04</totfact>
</mgrwt>
</event>
<event>
 6    1  0.6513574E-002  0.3000000E+03  0.7818608E-02  0.1093470E+00
         21   -1    0    0  501  502  0.00000000000E+00  0.00000000000E+00  0.15196967625E+01  0.15196967625E+01  0.00000000000E+00 0. -1.
         13   -1    0    0    0    0 -0.00000000000E+00 -0.00000000000E+00 -0.10000000000E+04  0.10000000000E+04  0.00000000000E+00 0.  1.
    9000005    2    1    2  501    0 -0.71682685372E+01 -0.29195769335E+02 -0.18280437025E+03  0.18528994683E+03  0.33391005723E+01 0.  0.
         13    1    3    3    0    0 -0.44692898368E+01 -0.11689445588E+02 -0.79013959828E+02  0.79998897102E+02  0.00000000000E+00 0.  1.
          3    1    3    3  501    0 -0.26989787004E+01 -0.17506323748E+02 -0.10379041042E+03  0.10529104973E+03  0.00000000000E+00 0.  1.
         -1    1    1    2    0  502  0.71682685372E+01  0.29195769335E+02 -0.81567593299E+03  0.81622974993E+03  0.00000000000E+00 0. -1.
<mgrwt>
<rscale>  1 0.30000000E+03</rscale>
<asrwt>0</asrwt>
<pdfrwt beam="1">  1       21 0.55261817E-02 0.30000000E+03</pdfrwt>
<pdfrwt beam="2">0</pdfrwt>
<totfact> 0.24275630E+04</totfact>
</mgrwt>
</event>
<event>
 6    1  0.6513574E-002  0.3000000E+03  0.7818608E-02  0.1093470E+00
         21   -1    0    0  501  502  0.00000000000E+00  0.00000000000E+00  0.12957346067E+01  0.12957346067E+01  0.00000000000E+00 0. -1.
         13   -1    0    0    0    0 -0.00000000000E+00 -0.00000000000E+00 -0.10000000000E+04  0.10000000000E+04  0.00000000000E+00 0.  1.
    9000005    2    1    2  501    0 -0.21056777256E+02  0.28404142231E+02 -0.41306999543E+03  0.41459506023E+03  0.34727041850E+01 0.  0.
         13    1    3    3    0    0 -0.15731630614E+02  0.23558575701E+02 -0.32953554193E+03  0.33075090943E+03  0.00000000000E+00 0.  1.
          3    1    3    3  501    0 -0.53251466414E+01  0.48455665301E+01 -0.83534453498E+02  0.83844150797E+02  0.00000000000E+00 0.  1.
         -1    1    1    2    0  502  0.21056777256E+02 -0.28404142231E+02 -0.58563426996E+03  0.58670067438E+03  0.00000000000E+00 0. -1.
<mgrwt>
<rscale>  1 0.30000000E+03</rscale>
<asrwt>0</asrwt>
<pdfrwt beam="1">  1       21 0.47117721E-02 0.30000000E+03</pdfrwt>
<pdfrwt beam="2">0</pdfrwt>
<totfact> 0.31868493E+04</totfact>
</mgrwt>
</event>
<event>
 6    1  0.6513574E-002  0.3000000E+03  0.7818608E-02  0.1093470E+00
         21   -1    0    0  501  502  0.00000000000E+00  0.00000000000E+00  0.12151466985E+01  0.12151466985E+01  0.00000000000E+00 0. -1.
         13   -1    0    0    0    0 -0.00000000000E+00 -0.00000000000E+00 -0.10000000000E+04  0.10000000000E+04  0.00000000000E+00 0.  1.
    9000005    2    1    2  501    0 -0.60253151247E+01 -0.32378085744E+02 -0.34128311268E+03  0.34288909999E+03  0.37585942002E+01 0.  0.
         13    1    3    3    0    0  0.35402155430E+00 -0.37846235433E+00 -0.51949097051E+01  0.52206945763E+01  0.00000000000E+00 0.  1.
          3    1    3    3  501    0 -0.63793366790E+01 -0.31999623390E+02 -0.33608820298E+03  0.33766840541E+03  0.00000000000E+00 0.  1.
         -1    1    1    2    0  502  0.60253151247E+01  0.32378085744E+02 -0.65750174062E+03  0.65832604671E+03  0.00000000000E+00 0. -1.
<mgrwt>
<rscale>  1 0.30000000E+03</rscale>
<asrwt>0</asrwt>
<pdfrwt beam="1">  1       21 0.44187246E-02 0.30000000E+03</pdfrwt>
<pdfrwt beam="2">0</pdfrwt>
<totfact> 0.35539786E+04</totfact>
</mgrwt>
</event>
<event>
 6    1  0.6513574E-002  0.3000000E+03  0.7818608E-02  0.1093470E+00
         21   -1    0    0  501  502  0.00000000000E+00  0.00000000000E+00  0.13588873645E+01  0.13588873645E+01  0.00000000000E+00 0. -1.
         13   -1    0    0    0    0 -0.00000000000E+00 -0.00000000000E+00 -0.10000000000E+04  0.10000000000E+04  0.00000000000E+00 0.  1.
    9000005    2    1    2  501    0 -0.27587744804E+02  0.16657779366E+02 -0.74135748505E+03  0.74206478735E+03  0.32653811464E+01 0.  0.
         13    1    3    3    0    0 -0.64016879882E+01  0.31461792540E+01 -0.13788258679E+03  0.13806696851E+03  0.00000000000E+00 0.  1.
          3    1    3    3  501    0 -0.21186056816E+02  0.13511600112E+02 -0.60347489826E+03  0.60399781884E+03  0.00000000000E+00 0.  1.
         -1    1    1    2    0  502  0.27587744804E+02 -0.16657779366E+02 -0.25728362759E+03  0.25929410001E+03  0.00000000000E+00 0. -1.
<mgrwt>
<rscale>  1 0.30000000E+03</rscale>
<asrwt>0</asrwt>
<pdfrwt beam="1">  1       21 0.49414190E-02 0.30000000E+03</pdfrwt>
<pdfrwt beam="2">0</pdfrwt>
<totfact> 0.29389048E+04</totfact>
</mgrwt>
</event>
<event>
 6    1  0.6513574E-002  0.3000000E+03  0.7818608E-02  0.1093470E+00
         21   -1    0    0  501  502  0.00000000000E+00  0.00000000000E+00  0.14075279347E+01  0.14075279347E+01  0.00000000000E+00 0. -1.
         13   -1    0    0    0    0 -0.00000000000E+00 -0.00000000000E+00 -0.10000000000E+04  0.10000000000E+04  0.00000000000E+00 0.  1.
    9000005    2    1    2  501    0 -0.37324310499E+02 -0.30162573090E+01 -0.51368934082E+03  0.51506068806E+03  0.29277214233E+01 0.  0.
         13    1    3    3    0    0 -0.42418137054E+01 -0.43961637992E+00 -0.46950777256E+02  0.47144052976E+02  0.00000000000E+00 0.  1.
          3    1    3    3  501    0 -0.33082496794E+02 -0.25766409291E+01 -0.46673856356E+03  0.46791663509E+03  0.00000000000E+00 0.  1.
         -3    1    1    2    0  502  0.37324310499E+02  0.30162573090E+01 -0.48490313125E+03  0.48634683987E+03  0.00000000000E+00 0. -1.
<mgrwt>
<rscale>  1 0.30000000E+03</rscale>
<asrwt>0</asrwt>
<pdfrwt beam="1">  1       21 0.51182942E-02 0.30000000E+03</pdfrwt>
<pdfrwt beam="2">0</pdfrwt>
<totfact> 0.27678366E+04</totfact>
</mgrwt>
</event>
<event>
 6    1  0.6513574E-002  0.3000000E+03  0.7818608E-02  0.1093470E+00
         21   -1    0    0  501  502  0.00000000000E+00  0.00000000000E+00  0.17311803790E+01  0.17311803790E+01  0.00000000000E+00 0. -1.
         13   -1    0    0    0    0 -0.00000000000E+00 -0.00000000000E+00 -0.10000000000E+04  0.10000000000E+04  0.00000000000E+00 0.  1.
    9000005    2    1    2  501    0 -0.36308284512E+02 -0.15964908889E+02 -0.64853327862E+03  0.64975374008E+03  0.33674070971E+01 0.  0.
         13    1    3    3    0    0 -0.32512507352E+02 -0.13122052048E+02 -0.57375875443E+03  0.57482898297E+03  0.00000000000E+00 0.  1.
          3    1    3    3  501    0 -0.37957771593E+01 -0.28428568412E+01 -0.74774524189E+02  0.74924757103E+02  0.00000000000E+00 0.  1.
         -1    1    1    2    0  502  0.36308284512E+02  0.15964908889E+02 -0.34973554100E+03  0.35197744030E+03  0.00000000000E+00 0. -1.
<mgrwt>
<rscale>  1 0.30000000E+03</rscale>
<asrwt>0</asrwt>
<pdfrwt beam="1">  1       21 0.62952147E-02 0.30000000E+03</pdfrwt>
<pdfrwt beam="2">0</pdfrwt>
<totfact> 0.19394867E+04</totfact>
</mgrwt>
</event>
<event>
 6    1  0.6513574E-002  0.3000000E+03  0.7818608E-02  0.1093470E+00
         21   -1    0    0  501  502  0.00000000000E+00  0.00000000000E+00  0.37592001437E+01  0.37592001437E+01  0.00000000000E+00 0. -1.
         13   -1    0    0    0    0 -0.00000000000E+00 -0.00000000000E+00 -0.10000000000E+04  0.10000000000E+04  0.00000000000E+00 0.  1.
    9000005    2    1    2  501    0 -0.53926359475E+02  0.23988734891E+02 -0.36373210701E+03  0.36850274943E+03  0.31175341821E+01 0.  0.
         13    1    3    3    0    0 -0.51743465687E+02  0.23451522252E+02 -0.34684309974E+03  0.35146478625E+03  0.00000000000E+00 0.  1.
          3    1    3    3  501    0 -0.21828937873E+01  0.53721263923E+00 -0.16889007271E+02  0.17037963179E+02  0.00000000000E+00 0.  1.
         -1    1    1    2    0  502  0.53926359475E+02 -0.23988734891E+02 -0.63250869284E+03  0.63525645071E+03  0.00000000000E+00 0. -1.
<mgrwt>
<rscale>  1 0.30000000E+03</rscale>
<asrwt>0</asrwt>
<pdfrwt beam="1">  1       21 0.13669848E-01 0.30000000E+03</pdfrwt>
<pdfrwt beam="2">0</pdfrwt>
<totfact> 0.48860676E+03</totfact>
</mgrwt>
</event>
<event>
 6    1  0.6513574E-002  0.3000000E+03  0.7818608E-02  0.1093470E+00
         21   -1    0    0  501  502  0.00000000000E+00  0.00000000000E+00  0.16520643523E+01  0.16520643523E+01  0.00000000000E+00 0. -1.
         13   -1    0    0    0    0 -0.00000000000E+00 -0.00000000000E+00 -0.10000000000E+04  0.10000000000E+04  0.00000000000E+00 0.  1.
    9000005    2    1    2  501    0 -0.80322819581E+01 -0.36873738617E+02 -0.32547387367E+03  0.32772054451E+03  0.65819981675E+01 0.  0.
         13    1    3    3    0    0 -0.34688114866E+01 -0.58566058542E+01 -0.70012825166E+02  0.70342932644E+02  0.00000000000E+00 0.  1.
          3    1    3    3  501    0 -0.45634704714E+01 -0.31017132763E+02 -0.25546104850E+03  0.25737761187E+03  0.00000000000E+00 0.  1.
         -1    1    1    2    0  502  0.80322819581E+01  0.36873738617E+02 -0.67287406198E+03  0.67393151984E+03  0.00000000000E+00 0. -1.
<mgrwt>
<rscale>  1 0.30000000E+03</rscale>
<asrwt>0</asrwt>
<pdfrwt beam="1">  1       21 0.60075194E-02 0.30000000E+03</pdfrwt>
<pdfrwt beam="2">0</pdfrwt>
<totfact> 0.21026198E+04</totfact>
</mgrwt>
</event>
<event>
 6    1  0.6513574E-002  0.3000000E+03  0.7818608E-02  0.1093470E+00
         21   -1    0    0  501  502  0.00000000000E+00  0.00000000000E+00  0.15845132274E+01  0.15845132274E+01  0.00000000000E+00 0. -1.
         13   -1    0    0    0    0 -0.00000000000E+00 -0.00000000000E+00 -0.10000000000E+04  0.10000000000E+04  0.00000000000E+00 0.  1.
    9000005    2    1    2  501    0  0.21632061573E+02 -0.31812911710E+02 -0.62083581037E+03  0.62205003591E+03  0.53978051217E+01 0.  0.
         13    1    3    3    0    0  0.83333416576E+01 -0.15084663900E+02 -0.31217206046E+03  0.31264738445E+03  0.00000000000E+00 0.  1.
          1    1    3    3  501    0  0.13298719915E+02 -0.16728247810E+02 -0.30866374991E+03  0.30940265147E+03  0.00000000000E+00 0.  1.
         -1    1    1    2    0  502 -0.21632061573E+02  0.31812911710E+02 -0.37757967640E+03  0.37953447731E+03  0.00000000000E+00 0. -1.
<mgrwt>
<rscale>  1 0.30000000E+03</rscale>
<asrwt>0</asrwt>
<pdfrwt beam="1">  1       21 0.57618784E-02 0.30000000E+03</pdfrwt>
<pdfrwt beam="2">0</pdfrwt>
<totfact> 0.22594642E+04</totfact>
</mgrwt>
</event>
<event>
 6    1  0.6513574E-002  0.3000000E+03  0.7818608E-02  0.1093470E+00
         21   -1    0    0  501  502  0.00000000000E+00  0.00000000000E+00  0.15618341213E+01  0.15618341213E+01  0.00000000000E+00 0. -1.
         13   -1    0    0    0    0 -0.00000000000E+00 -0.00000000000E+00 -0.10000000000E+04  0.10000000000E+04  0.00000000000E+00 0.  1.
    9000005    2    1    2  501    0  0.30656956402E+02 -0.19941801510E+02 -0.31355628698E+03  0.31570418675E+03  0.37501998795E+01 0.  0.
         13    1    3    3    0    0  0.17910613781E+02 -0.13416740124E+02 -0.20030861302E+03  0.20155480508E+03  0.00000000000E+00 0.  1.
          1    1    3    3  501    0  0.12746342622E+02 -0.65250613865E+01 -0.11324767396E+03  0.11414938166E+03  0.00000000000E+00 0.  1.
         -1    1    1    2    0  502 -0.30656956402E+02  0.19941801510E+02 -0.68488187889E+03  0.68585764737E+03  0.00000000000E+00 0. -1.
<mgrwt>
<rscale>  1 0.30000000E+03</rscale>
<asrwt>0</asrwt>
<pdfrwt beam="1">  1       21 0.56794088E-02 0.30000000E+03</pdfrwt>
<pdfrwt beam="2">0</pdfrwt>
<totfact> 0.23161929E+04</totfact>
</mgrwt>
</event>
<event>
 6    1  0.6513574E-002  0.3000000E+03  0.7818608E-02  0.1093470E+00
         21   -1    0    0  501  502  0.00000000000E+00  0.00000000000E+00  0.13418477821E+01  0.13418477821E+01  0.00000000000E+00 0. -1.
         13   -1    0    0    0    0 -0.00000000000E+00 -0.00000000000E+00 -0.10000000000E+04  0.10000000000E+04  0.00000000000E+00 0.  1.
    9000005    2    1    2  501    0  0.25344599759E+02 -0.23498578595E+02 -0.37944023082E+03  0.38116012755E+03  0.10659368377E+02 0.  0.
         13    1    3    3    0    0  0.23239866046E+02 -0.21738352815E+02 -0.30213035956E+03  0.30380158249E+03  0.00000000000E+00 0.  1.
          1    1    3    3  501    0  0.21047337134E+01 -0.17602257805E+01 -0.77309871262E+02  0.77358545057E+02  0.00000000000E+00 0.  1.
         -1    1    1    2    0  502 -0.25344599759E+02  0.23498578595E+02 -0.61921792139E+03  0.62018172023E+03  0.00000000000E+00 0. -1.
<mgrwt>
<rscale>  1 0.30000000E+03</rscale>
<asrwt>0</asrwt>
<pdfrwt beam="1">  1       21 0.48794568E-02 0.30000000E+03</pdfrwt>
<pdfrwt beam="2">0</pdfrwt>
<totfact> 0.30027542E+04</totfact>
</mgrwt>
</event>
<event>
 6    1  0.6513574E-002  0.3000000E+03  0.7818608E-02  0.1093470E+00
         21   -1    0    0  501  502  0.00000000000E+00  0.00000000000E+00  0.11904184352E+01  0.11904184352E+01  0.00000000000E+00 0. -1.
         13   -1    0    0    0    0 -0.00000000000E+00 -0.00000000000E+00 -0.10000000000E+04  0.10000000000E+04  0.00000000000E+00 0.  1.
    9000005    2    1    2  501    0 -0.19975438582E+01 -0.33003143163E+02 -0.63967424108E+03  0.64053630377E+03  0.32286383052E+01 0.  0.
         13    1    3    3    0    0 -0.21495739853E+01 -0.24082247221E+02 -0.44195895349E+03  0.44261980510E+03  0.00000000000E+00 0.  1.
          3    1    3    3  501    0  0.15203012703E+00 -0.89208959423E+01 -0.19771528759E+03  0.19791649867E+03  0.00000000000E+00 0.  1.
         -1    1    1    2    0  502  0.19975438582E+01  0.33003143163E+02 -0.35913534049E+03  0.36065411467E+03  0.00000000000E+00 0. -1.
<mgrwt>
<rscale>  1 0.30000000E+03</rscale>
<asrwt>0</asrwt>
<pdfrwt beam="1">  1       21 0.43288034E-02 0.30000000E+03</pdfrwt>
<pdfrwt beam="2">0</pdfrwt>
<totfact> 0.36798807E+04</totfact>
</mgrwt>
</event>
<event>
 6    1  0.6513574E-002  0.3000000E+03  0.7818608E-02  0.1093470E+00
         21   -1    0    0  501  502  0.00000000000E+00  0.00000000000E+00  0.14570124667E+01  0.14570124667E+01  0.00000000000E+00 0. -1.
         13   -1    0    0    0    0 -0.00000000000E+00 -0.00000000000E+00 -0.10000000000E+04  0.10000000000E+04  0.00000000000E+00 0.  1.
    9000005    2    1    2  501    0 -0.21096725923E+02 -0.30284319489E+02 -0.37401587341E+03  0.37584025427E+03  0.24106682344E+01 0.  0.
         13    1    3    3    0    0 -0.80662704371E+01 -0.10688596758E+02 -0.12523592706E+03  0.12594978462E+03  0.00000000000E+00 0.  1.
          1    1    3    3  501    0 -0.13030455485E+02 -0.19595722732E+02 -0.24877994635E+03  0.24989046965E+03  0.00000000000E+00 0.  1.
         -3    1    1    2    0  502  0.21096725923E+02  0.30284319489E+02 -0.62452711413E+03  0.62561675819E+03  0.00000000000E+00 0. -1.
<mgrwt>
<rscale>  1 0.30000000E+03</rscale>
<asrwt>0</asrwt>
<pdfrwt beam="1">  1       21 0.52982383E-02 0.30000000E+03</pdfrwt>
<pdfrwt beam="2">0</pdfrwt>
<totfact> 0.26091695E+04</totfact>
</mgrwt>
</event>
<event>
 6    1  0.6513574E-002  0.3000000E+03  0.7818608E-02  0.1093470E+00
         21   -1    0    0  501  502  0.00000000000E+00  0.00000000000E+00  0.11470685246E+01  0.11470685246E+01  0.00000000000E+00 0. -1.
         13   -1    0    0    0    0 -0.00000000000E+00 -0.00000000000E+00 -0.10000000000E+04  0.10000000000E+04  0.00000000000E+00 0.  1.
    9000005    2    1    2  501    0  0.15438262095E+02 -0.27944837783E+02 -0.34152585650E+03  0.34304514831E+03  0.45617129871E+01 0.  0.
         13    1    3    3    0    0  0.90453109247E+01 -0.12899151586E+02 -0.15123160375E+03  0.15205000406E+03  0.00000000000E+00 0.  1.
          3    1    3    3  501    0  0.63929511700E+01 -0.15045686197E+02 -0.19029425275E+03  0.19099514425E+03  0.00000000000E+00 0.  1.
         -1    1    1    2    0  502 -0.15438262095E+02  0.27944837783E+02 -0.65732707498E+03  0.65810192022E+03  0.00000000000E+00 0. -1.
<mgrwt>
<rscale>  1 0.30000000E+03</rscale>
<asrwt>0</asrwt>
<pdfrwt beam="1">  1       21 0.41711671E-02 0.30000000E+03</pdfrwt>
<pdfrwt beam="2">0</pdfrwt>
<totfact> 0.39179476E+04</totfact>
</mgrwt>
</event>
<event>
 6    1  0.6513574E-002  0.3000000E+03  0.7818608E-02  0.1093470E+00
         21   -1    0    0  501  502  0.00000000000E+00  0.00000000000E+00  0.20953716226E+01  0.20953716226E+01  0.00000000000E+00 0. -1.
         13   -1    0    0    0    0 -0.00000000000E+00 -0.00000000000E+00 -0.10000000000E+04  0.10000000000E+04  0.00000000000E+00 0.  1.
    9000005    2    1    2  501    0  0.43546448358E+01 -0.35824077948E+02 -0.19208298234E+03  0.19546605606E+03  0.29630182269E+01 0.  0.
         13    1    3    3    0    0  0.33955115457E+01 -0.15813219834E+02 -0.84857234661E+02  0.86384823288E+02  0.00000000000E+00 0.  1.
          1    1    3    3  501    0  0.95913329013E+00 -0.20010858114E+02 -0.10722574768E+03  0.10908123278E+03  0.00000000000E+00 0.  1.
         -1    1    1    2    0  502 -0.43546448358E+01  0.35824077948E+02 -0.80582164604E+03  0.80662931556E+03  0.00000000000E+00 0. -1.
<mgrwt>
<rscale>  1 0.30000000E+03</rscale>
<asrwt>0</asrwt>
<pdfrwt beam="1">  1       21 0.76195492E-02 0.30000000E+03</pdfrwt>
<pdfrwt beam="2">0</pdfrwt>
<totfact> 0.13913693E+04</totfact>
</mgrwt>
</event>
<event>
 6    1  0.6513574E-002  0.3000000E+03  0.7818608E-02  0.1093470E+00
         21   -1    0    0  501  502  0.00000000000E+00  0.00000000000E+00  0.18947485990E+01  0.18947485990E+01  0.00000000000E+00 0. -1.
         13   -1    0    0    0    0 -0.00000000000E+00 -0.00000000000E+00 -0.10000000000E+04  0.10000000000E+04  0.00000000000E+00 0.  1.
    9000005    2    1    2  501    0 -0.13575017281E+01  0.37556769770E+02 -0.75109822724E+03  0.75204514634E+03  0.33168353248E+01 0.  0.
         13    1    3    3    0    0 -0.63001723791E+00  0.44123686189E+01 -0.11008347407E+03  0.11017366828E+03  0.00000000000E+00 0.  1.
          1    1    3    3  501    0 -0.72748449022E+00  0.33144401152E+02 -0.64101475317E+03  0.64187147806E+03  0.00000000000E+00 0.  1.
         -3    1    1    2    0  502  0.13575017281E+01 -0.37556769770E+02 -0.24700702416E+03  0.24984960226E+03  0.00000000000E+00 0. -1.
<mgrwt>
<rscale>  1 0.30000000E+03</rscale>
<asrwt>0</asrwt>
<pdfrwt beam="1">  1       21 0.68900094E-02 0.30000000E+03</pdfrwt>
<pdfrwt beam="2">0</pdfrwt>
<totfact> 0.16585920E+04</totfact>
</mgrwt>
</event>
<event>
 6    1  0.6513574E-002  0.3000000E+03  0.7818608E-02  0.1093470E+00
         21   -1    0    0  501  502  0.00000000000E+00  0.00000000000E+00  0.50394768444E+01  0.50394768444E+01  0.00000000000E+00 0. -1.
         13   -1    0    0    0    0 -0.00000000000E+00 -0.00000000000E+00 -0.10000000000E+04  0.10000000000E+04  0.00000000000E+00 0.  1.
    9000005    2    1    2  501    0 -0.19423099593E+02 -0.55282039900E+02 -0.78098209404E+03  0.78318337740E+03  0.31322026150E+01 0.  0.
         13    1    3    3    0    0 -0.60524562828E+01 -0.13591457682E+02 -0.18971482751E+03  0.19029733505E+03  0.00000000000E+00 0.  1.
          3    1    3    3  501    0 -0.13370643310E+02 -0.41690582219E+02 -0.59126726653E+03  0.59288604235E+03  0.00000000000E+00 0.  1.
         -1    1    1    2    0  502  0.19423099593E+02  0.55282039900E+02 -0.21397842912E+03  0.22185609944E+03  0.00000000000E+00 0. -1.
<mgrwt>
<rscale>  1 0.30000000E+03</rscale>
<asrwt>0</asrwt>
<pdfrwt beam="1">  1       21 0.18325409E-01 0.30000000E+03</pdfrwt>
<pdfrwt beam="2">0</pdfrwt>
<totfact> 0.28322509E+03</totfact>
</mgrwt>
</event>
<event>
 6    1  0.6513574E-002  0.3000000E+03  0.7818608E-02  0.1093470E+00
         21   -1    0    0  501  502  0.00000000000E+00  0.00000000000E+00  0.99779101056E+00  0.99779101056E+00  0.00000000000E+00 0. -1.
         13   -1    0    0    0    0 -0.00000000000E+00 -0.00000000000E+00 -0.10000000000E+04  0.10000000000E+04  0.00000000000E+00 0.  1.
    9000005    2    1    2  501    0 -0.12405243907E+02  0.28685791338E+02 -0.56432758237E+03  0.56520105430E+03  0.31379701821E+01 0.  0.
         13    1    3    3    0    0 -0.34435817510E+01  0.11479515437E+02 -0.22662389102E+03  0.22694057705E+03  0.00000000000E+00 0.  1.
          3    1    3    3  501    0 -0.89616621563E+01  0.17206275900E+02 -0.33770369135E+03  0.33826047725E+03  0.00000000000E+00 0.  1.
         -3    1    1    2    0  502  0.12405243907E+02 -0.28685791338E+02 -0.43467462662E+03  0.43579673671E+03  0.00000000000E+00 0. -1.
<mgrwt>
<rscale>  1 0.30000000E+03</rscale>
<asrwt>0</asrwt>
<pdfrwt beam="1">  1       21 0.36283386E-02 0.30000000E+03</pdfrwt>
<pdfrwt beam="2">0</pdfrwt>
<totfact> 0.49534600E+04</totfact>
</mgrwt>
</event>
<event>
 6    1  0.6513574E-002  0.3000000E+03  0.7818608E-02  0.1093470E+00
         21   -1    0    0  501  502  0.00000000000E+00  0.00000000000E+00  0.17612947696E+01  0.17612947696E+01  0.00000000000E+00 0. -1.
         13   -1    0    0    0    0 -0.00000000000E+00 -0.00000000000E+00 -0.10000000000E+04  0.10000000000E+04  0.00000000000E+00 0.  1.
    9000005    2    1    2  501    0 -0.31059954248E+02  0.11336935569E+02 -0.80707342147E+03  0.80775765413E+03  0.34166207615E+01 0.  0.
         13    1    3    3    0    0 -0.11537591659E+02  0.59141433001E+01 -0.32632425206E+03  0.32658170585E+03  0.00000000000E+00 0.  1.
          3    1    3    3  501    0 -0.19522362589E+02  0.54227922684E+01 -0.48074916941E+03  0.48117594828E+03  0.00000000000E+00 0.  1.
         -3    1    1    2    0  502  0.31059954248E+02 -0.11336935569E+02 -0.19116528376E+03  0.19400364064E+03  0.00000000000E+00 0. -1.
<mgrwt>
<rscale>  1 0.30000000E+03</rscale>
<asrwt>0</asrwt>
<pdfrwt beam="1">  1       21 0.64047218E-02 0.30000000E+03</pdfrwt>
<pdfrwt beam="2">0</pdfrwt>
<totfact> 0.18825044E+04</totfact>
</mgrwt>
</event>
<event>
 6    1  0.6513574E-002  0.3000000E+03  0.7818608E-02  0.1093470E+00
         21   -1    0    0  501  502  0.00000000000E+00  0.00000000000E+00  0.11420395511E+01  0.11420395511E+01  0.00000000000E+00 0. -1.
         13   -1    0    0    0    0 -0.00000000000E+00 -0.00000000000E+00 -0.10000000000E+04  0.10000000000E+04  0.00000000000E+00 0.  1.
    9000005    2    1    2  501    0  0.31971234460E+02  0.80549323333E+01 -0.39449888214E+03  0.39588429503E+03  0.28222817447E+01 0.  0.
         13    1    3    3    0    0  0.10440274564E+02  0.25000948491E+01 -0.11318667070E+03  0.11369464469E+03  0.00000000000E+00 0.  1.
          3    1    3    3  501    0  0.21530959896E+02  0.55548374842E+01 -0.28131221144E+03  0.28218965034E+03  0.00000000000E+00 0.  1.
         -1    1    1    2    0  502 -0.31971234460E+02 -0.80549323333E+01 -0.60435907831E+03  0.60525774452E+03  0.00000000000E+00 0. -1.
<mgrwt>
<rscale>  1 0.30000000E+03</rscale>
<asrwt>0</asrwt>
<pdfrwt beam="1">  1       21 0.41528799E-02 0.30000000E+03</pdfrwt>
<pdfrwt beam="2">0</pdfrwt>
<totfact> 0.39471091E+04</totfact>
</mgrwt>
</event>
<event>
 6    1  0.6513574E-002  0.3000000E+03  0.7818608E-02  0.1093470E+00
         21   -1    0    0  501  502  0.00000000000E+00  0.00000000000E+00  0.11276807433E+01  0.11276807433E+01  0.00000000000E+00 0. -1.
         13   -1    0    0    0    0 -0.00000000000E+00 -0.00000000000E+00 -0.10000000000E+04  0.10000000000E+04  0.00000000000E+00 0.  1.
    9000005    2    1    2  501    0  0.26161235547E+02  0.19944958439E+02 -0.40710448816E+03  0.40844616632E+03  0.34633644019E+01 0.  0.
         13    1    3    3    0    0  0.15849769489E+02  0.14145502372E+02 -0.26461168588E+03  0.26546309486E+03  0.00000000000E+00 0.  1.
          3    1    3    3  501    0  0.10311466058E+02  0.57994560667E+01 -0.14249280228E+03  0.14298307146E+03  0.00000000000E+00 0.  1.
         -1    1    1    2    0  502 -0.26161235547E+02 -0.19944958439E+02 -0.59176783110E+03  0.59268151442E+03  0.00000000000E+00 0. -1.
<mgrwt>
<rscale>  1 0.30000000E+03</rscale>
<asrwt>0</asrwt>
<pdfrwt beam="1">  1       21 0.41006659E-02 0.30000000E+03</pdfrwt>
<pdfrwt beam="2">0</pdfrwt>
<totfact> 0.40322592E+04</totfact>
</mgrwt>
</event>
<event>
 6    1  0.6513574E-002  0.3000000E+03  0.7818608E-02  0.1093470E+00
         21   -1    0    0  501  502  0.00000000000E+00  0.00000000000E+00  0.19178527799E+01  0.19178527799E+01  0.00000000000E+00 0. -1.
         13   -1    0    0    0    0 -0.00000000000E+00 -0.00000000000E+00 -0.10000000000E+04  0.10000000000E+04  0.00000000000E+00 0.  1.
    9000005    2    1    2  501    0  0.35793431444E+02 -0.24778480422E+02 -0.54492496473E+03  0.54667442903E+03  0.38172425914E+01 0.  0.
         13    1    3    3    0    0  0.14270935061E+02 -0.78723810535E+01 -0.19314188069E+03  0.19382832622E+03  0.00000000000E+00 0.  1.
          3    1    3    3  501    0  0.21522496383E+02 -0.16906099368E+02 -0.35178308404E+03  0.35284610281E+03  0.00000000000E+00 0.  1.
         -1    1    1    2    0  502 -0.35793431444E+02  0.24778480422E+02 -0.45315718249E+03  0.45524342375E+03  0.00000000000E+00 0. -1.
<mgrwt>
<rscale>  1 0.30000000E+03</rscale>
<asrwt>0</asrwt>
<pdfrwt beam="1">  1       21 0.69740248E-02 0.30000000E+03</pdfrwt>
<pdfrwt beam="2">0</pdfrwt>
<totfact> 0.16240004E+04</totfact>
</mgrwt>
</event>
<event>
 6    1  0.6513574E-002  0.3000000E+03  0.7818608E-02  0.1093470E+00
         21   -1    0    0  501  502  0.00000000000E+00  0.00000000000E+00  0.37635023192E+01  0.37635023192E+01  0.00000000000E+00 0. -1.
         13   -1    0    0    0    0 -0.00000000000E+00 -0.00000000000E+00 -0.10000000000E+04  0.10000000000E+04  0.00000000000E+00 0.  1.
    9000005    2    1    2  501    0 -0.14661755280E+02  0.55796871888E+02 -0.66812357083E+03  0.67061736209E+03  0.32066279585E+01 0.  0.
         13    1    3    3    0    0 -0.70005007556E+01  0.25965104471E+02 -0.32996285907E+03  0.33105691660E+03  0.00000000000E+00 0.  1.
          1    1    3    3  501    0 -0.76612545242E+01  0.29831767418E+02 -0.33816071175E+03  0.33956044549E+03  0.00000000000E+00 0.  1.
         -3    1    1    2    0  502  0.14661755280E+02 -0.55796871888E+02 -0.32811292685E+03  0.33314614023E+03  0.00000000000E+00 0. -1.
<mgrwt>
<rscale>  1 0.30000000E+03</rscale>
<asrwt>0</asrwt>
<pdfrwt beam="1">  1       21 0.13685492E-01 0.30000000E+03</pdfrwt>
<pdfrwt beam="2">0</pdfrwt>
<totfact> 0.48758317E+03</totfact>
</mgrwt>
</event>
<event>
 6    1  0.6513574E-002  0.3000000E+03  0.7818608E-02  0.1093470E+00
         21   -1    0    0  501  502  0.00000000000E+00  0.00000000000E+00  0.19545651989E+01  0.19545651989E+01  0.00000000000E+00 0. -1.
         13   -1    0    0    0    0 -0.00000000000E+00 -0.00000000000E+00 -0.10000000000E+04  0.10000000000E+04  0.00000000000E+00 0.  1.
    9000005    2    1    2  501    0 -0.43524945209E+02 -0.62398357853E+01 -0.45770704878E+03  0.45983010733E+03  0.38247487425E+01 0.  0.
         13    1    3    3    0    0 -0.41520357518E+02 -0.53412130812E+01 -0.44011171578E+03  0.44209816897E+03  0.00000000000E+00 0.  1.
          1    1    3    3  501    0 -0.20045876904E+01 -0.89862270402E+00 -0.17595333001E+02  0.17731938359E+02  0.00000000000E+00 0.  1.
         -3    1    1    2    0  502  0.43524945209E+02  0.62398357853E+01 -0.54033838602E+03  0.54212445787E+03  0.00000000000E+00 0. -1.
<mgrwt>
<rscale>  1 0.30000000E+03</rscale>
<asrwt>0</asrwt>
<pdfrwt beam="1">  1       21 0.71075248E-02 0.30000000E+03</pdfrwt>
<pdfrwt beam="2">0</pdfrwt>
<totfact> 0.15712592E+04</totfact>
</mgrwt>
</event>
<event>
 6    1  0.6513574E-002  0.3000000E+03  0.7818608E-02  0.1093470E+00
         21   -1    0    0  501  502  0.00000000000E+00  0.00000000000E+00  0.12498587741E+01  0.12498587741E+01  0.00000000000E+00 0. -1.
         13   -1    0    0    0    0 -0.00000000000E+00 -0.00000000000E+00 -0.10000000000E+04  0.10000000000E+04  0.00000000000E+00 0.  1.
    9000005    2    1    2  501    0 -0.30400300337E+02  0.95291159830E+01 -0.28508711663E+03  0.28687608057E+03  0.28704045091E+01 0.  0.
         13    1    3    3    0    0 -0.26414128081E+02  0.74389541905E+01 -0.23931146650E+03  0.24087968407E+03  0.00000000000E+00 0.  1.
          1    1    3    3  501    0 -0.39861722565E+01  0.20901617925E+01 -0.45775650135E+02  0.45996396499E+02  0.00000000000E+00 0.  1.
         -1    1    1    2    0  502  0.30400300337E+02 -0.95291159830E+01 -0.71366302459E+03  0.71437377820E+03  0.00000000000E+00 0. -1.
<mgrwt>
<rscale>  1 0.30000000E+03</rscale>
<asrwt>0</asrwt>
<pdfrwt beam="1">  1       21 0.45449506E-02 0.30000000E+03</pdfrwt>
<pdfrwt beam="2">0</pdfrwt>
<totfact> 0.33881650E+04</totfact>
</mgrwt>
</event>
<event>
 6    1  0.6513574E-002  0.3000000E+03  0.7818608E-02  0.1093470E+00
         21   -1    0    0  501  502  0.00000000000E+00  0.00000000000E+00  0.20552402010E+01  0.20552402010E+01  0.00000000000E+00 0. -1.
         13   -1    0    0    0    0 -0.00000000000E+00 -0.00000000000E+00 -0.10000000000E+04  0.10000000000E+04  0.00000000000E+00 0.  1.
    9000005    2    1    2  501    0 -0.10684520761E+02 -0.42280343899E+02 -0.36485396830E+03  0.36746424063E+03  0.31246581379E+01 0.  0.
         13    1    3    3    0    0 -0.35598046836E+01 -0.13640402476E+02 -0.10601586074E+03  0.10694903233E+03  0.00000000000E+00 0.  1.
          3    1    3    3  501    0 -0.71247160771E+01 -0.28639941423E+02 -0.25883810756E+03  0.26051520829E+03  0.00000000000E+00 0.  1.
         -3    1    1    2    0  502  0.10684520761E+02  0.42280343899E+02 -0.63309079150E+03  0.63459099958E+03  0.00000000000E+00 0. -1.
<mgrwt>
<rscale>  1 0.30000000E+03</rscale>
<asrwt>0</asrwt>
<pdfrwt beam="1">  1       21 0.74736165E-02 0.30000000E+03</pdfrwt>
<pdfrwt beam="2">0</pdfrwt>
<totfact> 0.14392989E+04</totfact>
</mgrwt>
</event>
<event>
 6    1  0.6513574E-002  0.3000000E+03  0.7818608E-02  0.1093470E+00
         21   -1    0    0  501  502  0.00000000000E+00  0.00000000000E+00  0.15434565421E+01  0.15434565421E+01  0.00000000000E+00 0. -1.
         13   -1    0    0    0    0 -0.00000000000E+00 -0.00000000000E+00 -0.10000000000E+04  0.10000000000E+04  0.00000000000E+00 0.  1.
    9000005    2    1    2  501    0  0.36192483233E+02 -0.38478339691E+01 -0.31280812986E+03  0.31492970141E+03  0.26625277680E+01 0.  0.
         13    1    3    3    0    0  0.43571750504E+00  0.20916842558E+00 -0.56744067819E+01  0.56949533362E+01  0.00000000000E+00 0.  1.
          3    1    3    3  501    0  0.35756765728E+02 -0.40570023947E+01 -0.30713372308E+03  0.30923474807E+03  0.00000000000E+00 0.  1.
         -3    1    1    2    0  502 -0.36192483233E+02  0.38478339691E+01 -0.68564841360E+03  0.68661375513E+03  0.00000000000E+00 0. -1.
<mgrwt>
<rscale>  1 0.30000000E+03</rscale>
<asrwt>0</asrwt>
<pdfrwt beam="1">  1       21 0.56125811E-02 0.30000000E+03</pdfrwt>
<pdfrwt beam="2">0</pdfrwt>
<totfact> 0.23637796E+04</totfact>
</mgrwt>
</event>
<event>
 6    1  0.6513574E-002  0.3000000E+03  0.7818608E-02  0.1093470E+00
         21   -1    0    0  501  502  0.00000000000E+00  0.00000000000E+00  0.37332252445E+01  0.37332252445E+01  0.00000000000E+00 0. -1.
         13   -1    0    0    0    0 -0.00000000000E+00 -0.00000000000E+00 -0.10000000000E+04  0.10000000000E+04  0.00000000000E+00 0.  1.
    9000005    2    1    2  501    0  0.27857499302E+02 -0.36735285109E+02 -0.82725039108E+03  0.82854173176E+03  0.35595340141E+01 0.  0.
         13    1    3    3    0    0  0.85323203791E+01 -0.91019640883E+01 -0.23989379458E+03  0.24021798209E+03  0.00000000000E+00 0.  1.
          3    1    3    3  501    0  0.19325178923E+02 -0.27633321021E+02 -0.58735659650E+03  0.58832374967E+03  0.00000000000E+00 0.  1.
         -1    1    1    2    0  502 -0.27857499302E+02  0.36735285109E+02 -0.16901638367E+03  0.17519149349E+03  0.00000000000E+00 0. -1.
<mgrwt>
<rscale>  1 0.30000000E+03</rscale>
<asrwt>0</asrwt>
<pdfrwt beam="1">  1       21 0.13575393E-01 0.30000000E+03</pdfrwt>
<pdfrwt beam="2">0</pdfrwt>
<totfact> 0.49485577E+03</totfact>
</mgrwt>
</event>
<event>
 6    1  0.6513574E-002  0.3000000E+03  0.7818608E-02  0.1093470E+00
         21   -1    0    0  501  502  0.00000000000E+00  0.00000000000E+00  0.24513684607E+01  0.24513684607E+01  0.00000000000E+00 0. -1.
         13   -1    0    0    0    0 -0.00000000000E+00 -0.00000000000E+00 -0.10000000000E+04  0.10000000000E+04  0.00000000000E+00 0.  1.
    9000005    2    1    2  501    0  0.32979033857E+02 -0.11749414793E+02 -0.14707181432E+03  0.15125428079E+03  0.46982411095E+01 0.  0.
         13    1    3    3    0    0  0.19793165940E+02 -0.82347579140E+01 -0.98217700925E+02  0.10053008222E+03  0.00000000000E+00 0.  1.
          3    1    3    3  501    0  0.13185867917E+02 -0.35146568786E+01 -0.48854113394E+02  0.50724198576E+02  0.00000000000E+00 0.  1.
         -3    1    1    2    0  502 -0.32979033857E+02  0.11749414793E+02 -0.85047681722E+03  0.85119708767E+03  0.00000000000E+00 0. -1.
<mgrwt>
<rscale>  1 0.30000000E+03</rscale>
<asrwt>0</asrwt>
<pdfrwt beam="1">  1       21 0.89140859E-02 0.30000000E+03</pdfrwt>
<pdfrwt beam="2">0</pdfrwt>
<totfact> 0.10555879E+04</totfact>
</mgrwt>
</event>
<event>
 6    1  0.6513574E-002  0.3000000E+03  0.7818608E-02  0.1093470E+00
         21   -1    0    0  501  502  0.00000000000E+00  0.00000000000E+00  0.18585631570E+01  0.18585631570E+01  0.00000000000E+00 0. -1.
         13   -1    0    0    0    0 -0.00000000000E+00 -0.00000000000E+00 -0.10000000000E+04  0.10000000000E+04  0.00000000000E+00 0.  1.
    9000005    2    1    2  501    0  0.15568088302E+02 -0.34219025512E+02 -0.25506571177E+03  0.25783246128E+03  0.23986848569E+01 0.  0.
         13    1    3    3    0    0  0.62296907293E+00 -0.10923840171E+01 -0.60979167207E+01  0.62262333428E+01  0.00000000000E+00 0.  1.
          1    1    3    3  501    0  0.14945119229E+02 -0.33126641494E+02 -0.24896779505E+03  0.25160622794E+03  0.00000000000E+00 0.  1.
         -1    1    1    2    0  502 -0.15568088302E+02  0.34219025512E+02 -0.74307572507E+03  0.74402610188E+03  0.00000000000E+00 0. -1.
<mgrwt>
<rscale>  1 0.30000000E+03</rscale>
<asrwt>0</asrwt>
<pdfrwt beam="1">  1       21 0.67584257E-02 0.30000000E+03</pdfrwt>
<pdfrwt beam="2">0</pdfrwt>
<totfact> 0.17150831E+04</totfact>
</mgrwt>
</event>
<event>
 6    1  0.6513574E-002  0.3000000E+03  0.7818608E-02  0.1093470E+00
         21   -1    0    0  501  502  0.00000000000E+00  0.00000000000E+00  0.15942024552E+01  0.15942024552E+01  0.00000000000E+00 0. -1.
         13   -1    0    0    0    0 -0.00000000000E+00 -0.00000000000E+00 -0.10000000000E+04  0.10000000000E+04  0.00000000000E+00 0.  1.
    9000005    2    1    2  501    0 -0.31018392928E+02 -0.16165337564E+02 -0.25997197874E+03  0.26233243312E+03  0.30686969534E+01 0.  0.
         13    1    3    3    0    0 -0.11271902844E+01 -0.13129370974E+01 -0.11972304435E+02  0.12096711753E+02  0.00000000000E+00 0.  1.
          1    1    3    3  501    0 -0.29891202643E+02 -0.14852400466E+02 -0.24799967430E+03  0.25023572137E+03  0.00000000000E+00 0.  1.
         -1    1    1    2    0  502  0.31018392928E+02  0.16165337564E+02 -0.73843381881E+03  0.73926176933E+03  0.00000000000E+00 0. -1.
<mgrwt>
<rscale>  1 0.30000000E+03</rscale>
<asrwt>0</asrwt>
<pdfrwt beam="1">  1       21 0.57971121E-02 0.30000000E+03</pdfrwt>
<pdfrwt beam="2">0</pdfrwt>
<totfact> 0.22358741E+04</totfact>
</mgrwt>
</event>
<event>
 6    1  0.6513574E-002  0.3000000E+03  0.7818608E-02  0.1093470E+00
         21   -1    0    0  501  502  0.00000000000E+00  0.00000000000E+00  0.12478209384E+01  0.12478209384E+01  0.00000000000E+00 0. -1.
         13   -1    0    0    0    0 -0.00000000000E+00 -0.00000000000E+00 -0.10000000000E+04  0.10000000000E+04  0.00000000000E+00 0.  1.
    9000005    2    1    2  501    0  0.10317628200E+02 -0.33281628392E+02 -0.57431163586E+03  0.57537941995E+03  0.36744505895E+01 0.  0.
         13    1    3    3    0    0  0.33762502939E+01 -0.15420827363E+02 -0.27996575267E+03  0.28041045567E+03  0.00000000000E+00 0.  1.
          3    1    3    3  501    0  0.69413779057E+01 -0.17860801029E+02 -0.29434588319E+03  0.29496896428E+03  0.00000000000E+00 0.  1.
         -1    1    1    2    0  502 -0.10317628200E+02  0.33281628392E+02 -0.42444054321E+03  0.42586840098E+03  0.00000000000E+00 0. -1.
<mgrwt>
<rscale>  1 0.30000000E+03</rscale>
<asrwt>0</asrwt>
<pdfrwt beam="1">  1       21 0.45375403E-02 0.30000000E+03</pdfrwt>
<pdfrwt beam="2">0</pdfrwt>
<totfact> 0.33975667E+04</totfact>
</mgrwt>
</event>
<event>
 6    1  0.6513574E-002  0.3000000E+03  0.7818608E-02  0.1093470E+00
         21   -1    0    0  501  502  0.00000000000E+00  0.00000000000E+00  0.50253128334E+01  0.50253128334E+01  0.00000000000E+00 0. -1.
         13   -1    0    0    0    0 -0.00000000000E+00 -0.00000000000E+00 -0.10000000000E+04  0.10000000000E+04  0.00000000000E+00 0.  1.
    9000005    2    1    2  501    0 -0.56669857251E+02  0.18404502956E+02 -0.22606074815E+03  0.23380624923E+03  0.34208003975E+01 0.  0.
         13    1    3    3    0    0 -0.82944678809E+00  0.64665778602E+00 -0.51549542131E+01  0.52611501790E+01  0.00000000000E+00 0.  1.
          1    1    3    3  501    0 -0.55840410463E+02  0.17757845170E+02 -0.22090579394E+03  0.22854509905E+03  0.00000000000E+00 0.  1.
         -3    1    1    2    0  502  0.56669857251E+02 -0.18404502956E+02 -0.76891393902E+03  0.77121906360E+03  0.00000000000E+00 0. -1.
<mgrwt>
<rscale>  1 0.30000000E+03</rscale>
<asrwt>0</asrwt>
<pdfrwt beam="1">  1       21 0.18273903E-01 0.30000000E+03</pdfrwt>
<pdfrwt beam="2">0</pdfrwt>
<totfact> 0.28473320E+03</totfact>
</mgrwt>
</event>
<event>
 6    1  0.6513574E-002  0.3000000E+03  0.7818608E-02  0.1093470E+00
         21   -1    0    0  501  502  0.00000000000E+00  0.00000000000E+00  0.13600559416E+01  0.13600559416E+01  0.00000000000E+00 0. -1.
         13   -1    0    0    0    0 -0.00000000000E+00 -0.00000000000E+00 -0.10000000000E+04  0.10000000000E+04  0.00000000000E+00 0.  1.
    9000005    2    1    2  501    0 -0.31308578659E+02  0.19001000566E+02 -0.54781783337E+03  0.54905281456E+03  0.36536965515E+01 0.  0.
         13    1    3    3    0    0 -0.24659745756E+02  0.15880521351E+02 -0.45541856611E+03  0.45636209788E+03  0.00000000000E+00 0.  1.
          1    1    3    3  501    0 -0.66488329032E+01  0.31204792147E+01 -0.92399267258E+02  0.92690716683E+02  0.00000000000E+00 0.  1.
         -3    1    1    2    0  502  0.31308578659E+02 -0.19001000566E+02 -0.45082211069E+03  0.45230724138E+03  0.00000000000E+00 0. -1.
<mgrwt>
<rscale>  1 0.30000000E+03</rscale>
<asrwt>0</asrwt>
<pdfrwt beam="1">  1       21 0.49456684E-02 0.30000000E+03</pdfrwt>
<pdfrwt beam="2">0</pdfrwt>
<totfact> 0.29346038E+04</totfact>
</mgrwt>
</event>
<event>
 6    1  0.6513574E-002  0.3000000E+03  0.7818608E-02  0.1093470E+00
         21   -1    0    0  501  502  0.00000000000E+00  0.00000000000E+00  0.34844959336E+01  0.34844959336E+01  0.00000000000E+00 0. -1.
         13   -1    0    0    0    0 -0.00000000000E+00 -0.00000000000E+00 -0.10000000000E+04  0.10000000000E+04  0.00000000000E+00 0.  1.
    9000005    2    1    2  501    0 -0.14780066125E+02  0.51611445897E+02 -0.29036196494E+03  0.29529312877E+03  0.24019812033E+01 0.  0.
         13    1    3    3    0    0 -0.60686914460E+01  0.24988294040E+02 -0.14221355283E+03  0.14451968192E+03  0.00000000000E+00 0.  1.
          3    1    3    3  501    0 -0.87113746786E+01  0.26623151857E+02 -0.14814841211E+03  0.15077344685E+03  0.00000000000E+00 0.  1.
         -3    1    1    2    0  502  0.14780066125E+02 -0.51611445897E+02 -0.70615353913E+03  0.70819136716E+03  0.00000000000E+00 0. -1.
<mgrwt>
<rscale>  1 0.30000000E+03</rscale>
<asrwt>0</asrwt>
<pdfrwt beam="1">  1       21 0.12670921E-01 0.30000000E+03</pdfrwt>
<pdfrwt beam="2">0</pdfrwt>
<totfact> 0.56130563E+03</totfact>
</mgrwt>
</event>
<event>
 6    1  0.6513574E-002  0.3000000E+03  0.7818608E-02  0.1093470E+00
         21   -1    0    0  501  502  0.00000000000E+00  0.00000000000E+00  0.20327933940E+01  0.20327933940E+01  0.00000000000E+00 0. -1.
         13   -1    0    0    0    0 -0.00000000000E+00 -0.00000000000E+00 -0.10000000000E+04  0.10000000000E+04  0.00000000000E+00 0.  1.
    9000005    2    1    2  501    0 -0.37590905425E+02 -0.20028738980E+02 -0.33746880874E+03  0.34016244344E+03  0.33263348349E+01 0.  0.
         13    1    3    3    0    0 -0.10129555223E+02 -0.41285305844E+01 -0.79348835495E+02  0.80099253106E+02  0.00000000000E+00 0.  1.
          1    1    3    3  501    0 -0.27461350203E+02 -0.15900208395E+02 -0.25811997324E+03  0.26006319034E+03  0.00000000000E+00 0.  1.
         -3    1    1    2    0  502  0.37590905425E+02  0.20028738980E+02 -0.66049839787E+03  0.66187034995E+03  0.00000000000E+00 0. -1.
<mgrwt>
<rscale>  1 0.30000000E+03</rscale>
<asrwt>0</asrwt>
<pdfrwt beam="1">  1       21 0.73919916E-02 0.30000000E+03</pdfrwt>
<pdfrwt beam="2">0</pdfrwt>
<totfact> 0.14672248E+04</totfact>
</mgrwt>
</event>
<event>
 6    1  0.6513574E-002  0.3000000E+03  0.7818608E-02  0.1093470E+00
         21   -1    0    0  501  502  0.00000000000E+00  0.00000000000E+00  0.52607706604E+01  0.52607706604E+01  0.00000000000E+00 0. -1.
         13   -1    0    0    0    0 -0.00000000000E+00 -0.00000000000E+00 -0.10000000000E+04  0.10000000000E+04  0.00000000000E+00 0.  1.
    9000005    2    1    2  501    0 -0.37375238210E+02 -0.37371886489E+02 -0.84134180046E+03  0.84301300482E+03  0.46189583335E+01 0.  0.
         13    1    3    3    0    0 -0.27639927605E+02 -0.29672508943E+02 -0.66445432579E+03  0.66569059964E+03  0.00000000000E+00 0.  1.
          1    1    3    3  501    0 -0.97353106052E+01 -0.76993775457E+01 -0.17688747466E+03  0.17732240518E+03  0.00000000000E+00 0.  1.
         -1    1    1    2    0  502  0.37375238210E+02  0.37371886489E+02 -0.15339742888E+03  0.16224776584E+03  0.00000000000E+00 0. -1.
<mgrwt>
<rscale>  1 0.30000000E+03</rscale>
<asrwt>0</asrwt>
<pdfrwt beam="1">  1       21 0.19130115E-01 0.30000000E+03</pdfrwt>
<pdfrwt beam="2">0</pdfrwt>
<totfact> 0.26110779E+03</totfact>
</mgrwt>
</event>
<event>
 6    1  0.6513574E-002  0.3000000E+03  0.7818608E-02  0.1093470E+00
         21   -1    0    0  501  502  0.00000000000E+00  0.00000000000E+00  0.19744847316E+01  0.19744847316E+01  0.00000000000E+00 0. -1.
         13   -1    0    0    0    0 -0.00000000000E+00 -0.00000000000E+00 -0.10000000000E+04  0.10000000000E+04  0.00000000000E+00 0.  1.
    9000005    2    1    2  501    0 -0.24586878656E+02 -0.28053933909E+02 -0.22902516283E+03  0.23206989333E+03  0.35174381877E+01 0.  0.
         13    1    3    3    0    0 -0.14842680692E+02 -0.19382146656E+02 -0.14643516769E+03  0.14845615890E+03  0.00000000000E+00 0.  1.
          1    1    3    3  501    0 -0.97441979647E+01 -0.86717872528E+01 -0.82589995140E+02  0.83613734430E+02  0.00000000000E+00 0.  1.
         -3    1    1    2    0  502  0.24586878656E+02  0.28053933909E+02 -0.76900035244E+03  0.76990459141E+03  0.00000000000E+00 0. -1.
<mgrwt>
<rscale>  1 0.30000000E+03</rscale>
<asrwt>0</asrwt>
<pdfrwt beam="1">  1       21 0.71799596E-02 0.30000000E+03</pdfrwt>
<pdfrwt beam="2">0</pdfrwt>
<totfact> 0.15437286E+04</totfact>
</mgrwt>
</event>
<event>
 6    1  0.6513574E-002  0.3000000E+03  0.7818608E-02  0.1093470E+00
         21   -1    0    0  501  502  0.00000000000E+00  0.00000000000E+00  0.34611077550E+01  0.34611077550E+01  0.00000000000E+00 0. -1.
         13   -1    0    0    0    0 -0.00000000000E+00 -0.00000000000E+00 -0.10000000000E+04  0.10000000000E+04  0.00000000000E+00 0.  1.
    9000005    2    1    2  501    0 -0.51327781645E+02 -0.16400537591E+02 -0.29818151172E+03  0.30302799194E+03  0.31986190010E+01 0.  0.
         13    1    3    3    0    0 -0.36606414206E+02 -0.13101371717E+02 -0.21188292978E+03  0.21542063836E+03  0.00000000000E+00 0.  1.
          3    1    3    3  501    0 -0.14721367439E+02 -0.32991658733E+01 -0.86298581948E+02  0.87607353579E+02  0.00000000000E+00 0.  1.
         -1    1    1    2    0  502  0.51327781645E+02  0.16400537591E+02 -0.69835738052E+03  0.70043311582E+03  0.00000000000E+00 0. -1.
<mgrwt>
<rscale>  1 0.30000000E+03</rscale>
<asrwt>0</asrwt>
<pdfrwt beam="1">  1       21 0.12585873E-01 0.30000000E+03</pdfrwt>
<pdfrwt beam="2">0</pdfrwt>
<totfact> 0.56823773E+03</totfact>
</mgrwt>
</event>
<event>
 6    1  0.6513574E-002  0.3000000E+03  0.7818608E-02  0.1093470E+00
         21   -1    0    0  501  502  0.00000000000E+00  0.00000000000E+00  0.13546921241E+01  0.13546921241E+01  0.00000000000E+00 0. -1.
         13   -1    0    0    0    0 -0.00000000000E+00 -0.00000000000E+00 -0.10000000000E+04  0.10000000000E+04  0.00000000000E+00 0.  1.
    9000005    2    1    2  501    0 -0.53020623762E+00  0.34237004063E+02 -0.33646127034E+03  0.33828595275E+03  0.76645824552E+01 0.  0.
         13    1    3    3    0    0 -0.79328022238E+00  0.71582073750E+01 -0.45406643644E+02  0.45974259247E+02  0.00000000000E+00 0.  1.
          3    1    3    3  501    0  0.26307398476E+00  0.27078796688E+02 -0.29105462669E+03  0.29231169350E+03  0.00000000000E+00 0.  1.
         -1    1    1    2    0  502  0.53020623762E+00 -0.34237004063E+02 -0.66218403754E+03  0.66306873937E+03  0.00000000000E+00 0. -1.
<mgrwt>
<rscale>  1 0.30000000E+03</rscale>
<asrwt>0</asrwt>
<pdfrwt beam="1">  1       21 0.49261636E-02 0.30000000E+03</pdfrwt>
<pdfrwt beam="2">0</pdfrwt>
<totfact> 0.29544270E+04</totfact>
</mgrwt>
</event>
<event>
 6    1  0.6513574E-002  0.3000000E+03  0.7818608E-02  0.1093470E+00
         21   -1    0    0  501  502  0.00000000000E+00  0.00000000000E+00  0.32583040449E+01  0.32583040449E+01  0.00000000000E+00 0. -1.
         13   -1    0    0    0    0 -0.00000000000E+00 -0.00000000000E+00 -0.10000000000E+04  0.10000000000E+04  0.00000000000E+00 0.  1.
    9000005    2    1    2  501    0  0.32496730174E+02 -0.26856471672E+02 -0.16359392541E+03  0.16904459335E+03  0.59828561767E+01 0.  0.
         13    1    3    3    0    0  0.62140322007E+01 -0.38192225167E+01 -0.37156955154E+02  0.37866079453E+02  0.00000000000E+00 0.  1.
          3    1    3    3  501    0  0.26282697973E+02 -0.23037249155E+02 -0.12643697025E+03  0.13117851390E+03  0.00000000000E+00 0.  1.
         -3    1    1    2    0  502 -0.32496730174E+02  0.26856471672E+02 -0.83314777055E+03  0.83421371069E+03  0.00000000000E+00 0. -1.
<mgrwt>
<rscale>  1 0.30000000E+03</rscale>
<asrwt>0</asrwt>
<pdfrwt beam="1">  1       21 0.11848403E-01 0.30000000E+03</pdfrwt>
<pdfrwt beam="2">0</pdfrwt>
<totfact> 0.63416684E+03</totfact>
</mgrwt>
</event>
<event>
 6    1  0.6513574E-002  0.3000000E+03  0.7818608E-02  0.1093470E+00
         21   -1    0    0  501  502  0.00000000000E+00  0.00000000000E+00  0.23838315152E+01  0.23838315152E+01  0.00000000000E+00 0. -1.
         13   -1    0    0    0    0 -0.00000000000E+00 -0.00000000000E+00 -0.10000000000E+04  0.10000000000E+04  0.00000000000E+00 0.  1.
    9000005    2    1    2  501    0 -0.43758189563E+02 -0.18852591337E+02 -0.59675990826E+03  0.59870581537E+03  0.74877167857E+01 0.  0.
         13    1    3    3    0    0 -0.15442400330E+02 -0.47939670406E+01 -0.16515035795E+03  0.16594002103E+03  0.00000000000E+00 0.  1.
          1    1    3    3  501    0 -0.28315789234E+02 -0.14058624297E+02 -0.43160955031E+03  0.43276579434E+03  0.00000000000E+00 0.  1.
         -3    1    1    2    0  502  0.43758189563E+02  0.18852591337E+02 -0.40085626023E+03  0.40367801614E+03  0.00000000000E+00 0. -1.
<mgrwt>
<rscale>  1 0.30000000E+03</rscale>
<asrwt>0</asrwt>
<pdfrwt beam="1">  1       21 0.86684965E-02 0.30000000E+03</pdfrwt>
<pdfrwt beam="2">0</pdfrwt>
<totfact> 0.11090370E+04</totfact>
</mgrwt>
</event>
<event>
 6    1  0.6513574E-002  0.3000000E+03  0.7818608E-02  0.1093470E+00
         21   -1    0    0  501  502  0.00000000000E+00  0.00000000000E+00  0.11591493967E+01  0.11591493967E+01  0.00000000000E+00 0. -1.
         13   -1    0    0    0    0 -0.00000000000E+00 -0.00000000000E+00 -0.10000000000E+04  0.10000000000E+04  0.00000000000E+00 0.  1.
    9000005    2    1    2  501    0 -0.11747155700E+02  0.31833570889E+02 -0.50316017255E+03  0.50431842391E+03  0.39422780521E+01 0.  0.
         13    1    3    3    0    0 -0.85353346682E+01  0.22852724519E+02 -0.33410132748E+03  0.33499074015E+03  0.00000000000E+00 0.  1.
          1    1    3    3  501    0 -0.32118210322E+01  0.89808463700E+01 -0.16905884506E+03  0.16932768377E+03  0.00000000000E+00 0.  1.
         -3    1    1    2    0  502  0.11747155700E+02 -0.31833570889E+02 -0.49568067806E+03  0.49684072549E+03  0.00000000000E+00 0. -1.
<mgrwt>
<rscale>  1 0.30000000E+03</rscale>
<asrwt>0</asrwt>
<pdfrwt beam="1">  1       21 0.42150976E-02 0.30000000E+03</pdfrwt>
<pdfrwt beam="2">0</pdfrwt>
<totfact> 0.38492490E+04</totfact>
</mgrwt>
</event>
<event>
 6    1  0.6513574E-002  0.3000000E+03  0.7818608E-02  0.1093470E+00
         21   -1    0    0  501  502  0.00000000000E+00  0.00000000000E+00  0.11530486766E+01  0.11530486766E+01  0.00000000000E+00 0. -1.
         13   -1    0    0    0    0 -0.00000000000E+00 -0.00000000000E+00 -0.10000000000E+04  0.10000000000E+04  0.00000000000E+00 0.  1.
    9000005    2    1    2  501    0 -0.31714974308E+02 -0.10896563967E+02 -0.57080695720E+03  0.57180143138E+03  0.34234258407E+01 0.  0.
         13    1    3    3    0    0 -0.15347482155E+01  0.20802182267E+00 -0.27514640645E+02  0.27558196149E+02  0.00000000000E+00 0.  1.
          1    1    3    3  501    0 -0.30180226092E+02 -0.11104585790E+02 -0.54329231655E+03  0.54424323523E+03  0.00000000000E+00 0.  1.
         -1    1    1    2    0  502  0.31714974308E+02  0.10896563967E+02 -0.42803999413E+03  0.42935161729E+03  0.00000000000E+00 0. -1.
<mgrwt>
<rscale>  1 0.30000000E+03</rscale>
<asrwt>0</asrwt>
<pdfrwt beam="1">  1       21 0.41929131E-02 0.30000000E+03</pdfrwt>
<pdfrwt beam="2">0</pdfrwt>
<totfact> 0.38837048E+04</totfact>
</mgrwt>
</event>
<event>
 6    1  0.6513574E-002  0.3000000E+03  0.7818608E-02  0.1093470E+00
         21   -1    0    0  501  502  0.00000000000E+00  0.00000000000E+00  0.10309163872E+01  0.10309163872E+01  0.00000000000E+00 0. -1.
         13   -1    0    0    0    0 -0.00000000000E+00 -0.00000000000E+00 -0.10000000000E+04  0.10000000000E+04  0.00000000000E+00 0.  1.
    9000005    2    1    2  501    0 -0.28361764801E+02 -0.14250559749E+02 -0.56621741033E+03  0.56711677870E+03  0.34375523957E+01 0.  0.
         13    1    3    3    0    0 -0.11815588298E+02 -0.48632364432E+01 -0.20332004962E+03  0.20372113727E+03  0.00000000000E+00 0.  1.
          1    1    3    3  501    0 -0.16546176504E+02 -0.93873233054E+01 -0.36289736071E+03  0.36339564143E+03  0.00000000000E+00 0.  1.
         -1    1    1    2    0  502  0.28361764801E+02  0.14250559749E+02 -0.43275167328E+03  0.43391413769E+03  0.00000000000E+00 0. -1.
<mgrwt>
<rscale>  1 0.30000000E+03</rscale>
<asrwt>0</asrwt>
<pdfrwt beam="1">  1       21 0.37487948E-02 0.30000000E+03</pdfrwt>
<pdfrwt beam="2">0</pdfrwt>
<totfact> 0.46892579E+04</totfact>
</mgrwt>
</event>
<event>
 6    1  0.6513574E-002  0.3000000E+03  0.7818608E-02  0.1093470E+00
         21   -1    0    0  501  502  0.00000000000E+00  0.00000000000E+00  0.13094032381E+01  0.13094032381E+01  0.00000000000E+00 0. -1.
         13   -1    0    0    0    0 -0.00000000000E+00 -0.00000000000E+00 -0.10000000000E+04  0.10000000000E+04  0.00000000000E+00 0.  1.
    9000005    2    1    2  501    0  0.98155986293E+01  0.32223777533E+02 -0.32120758806E+03  0.32298946037E+03  0.36275428041E+01 0.  0.
         13    1    3    3    0    0  0.16886752470E+01  0.11168747703E+02 -0.11181205828E+03  0.11238117692E+03  0.00000000000E+00 0.  1.
          1    1    3    3  501    0  0.81269233824E+01  0.21055029830E+02 -0.20939552979E+03  0.21060828346E+03  0.00000000000E+00 0.  1.
         -3    1    1    2    0  502 -0.98155986293E+01 -0.32223777533E+02 -0.67748300870E+03  0.67831994287E+03  0.00000000000E+00 0. -1.
<mgrwt>
<rscale>  1 0.30000000E+03</rscale>
<asrwt>0</asrwt>
<pdfrwt beam="1">  1       21 0.47614764E-02 0.30000000E+03</pdfrwt>
<pdfrwt beam="2">0</pdfrwt>
<totfact> 0.31304788E+04</totfact>
</mgrwt>
</event>
<event>
 6    1  0.6513574E-002  0.3000000E+03  0.7818608E-02  0.1093470E+00
         21   -1    0    0  501  502  0.00000000000E+00  0.00000000000E+00  0.10863465877E+01  0.10863465877E+01  0.00000000000E+00 0. -1.
         13   -1    0    0    0    0 -0.00000000000E+00 -0.00000000000E+00 -0.10000000000E+04  0.10000000000E+04  0.00000000000E+00 0.  1.
    9000005    2    1    2  501    0  0.42383857665E+01 -0.32085207113E+02 -0.58720345109E+03  0.58810606240E+03  0.36637730908E+01 0.  0.
         13    1    3    3    0    0  0.46080667828E+01 -0.23240520762E+02 -0.43758873628E+03  0.43822968658E+03  0.00000000000E+00 0.  1.
          1    1    3    3  501    0 -0.36968101629E+00 -0.88446863513E+01 -0.14961471481E+03  0.14987637582E+03  0.00000000000E+00 0.  1.
         -1    1    1    2    0  502 -0.42383857665E+01  0.32085207113E+02 -0.41171020232E+03  0.41298028419E+03  0.00000000000E+00 0. -1.
<mgrwt>
<rscale>  1 0.30000000E+03</rscale>
<asrwt>0</asrwt>
<pdfrwt beam="1">  1       21 0.39503596E-02 0.30000000E+03</pdfrwt>
<pdfrwt beam="2">0</pdfrwt>
<totfact> 0.42940653E+04</totfact>
</mgrwt>
</event>
<event>
 6    1  0.6513574E-002  0.3000000E+03  0.7818608E-02  0.1093470E+00
         21   -1    0    0  501  502  0.00000000000E+00  0.00000000000E+00  0.36011949927E+02  0.36011949927E+02  0.00000000000E+00 0. -1.
         13   -1    0    0    0    0 -0.00000000000E+00 -0.00000000000E+00 -0.10000000000E+04  0.10000000000E+04  0.00000000000E+00 0.  1.
    9000005    2    1    2  501    0 -0.31837961652E+02 -0.39292355187E+02  0.17190243317E+02  0.53531218107E+02  0.35414500482E+01 0.  0.
         13    1    3    3    0    0 -0.11264056548E+02 -0.11882194070E+02  0.44421517488E+01  0.16964616647E+02  0.00000000000E+00 0.  1.
          1    1    3    3  501    0 -0.20573905104E+02 -0.27410161117E+02  0.12748091568E+02  0.36566601460E+02  0.00000000000E+00 0.  1.
         -3    1    1    2    0  502  0.31837961652E+02  0.39292355187E+02 -0.98117829339E+03  0.98248073182E+03  0.00000000000E+00 0. -1.
<mgrwt>
<rscale>  1 0.30000000E+03</rscale>
<asrwt>0</asrwt>
<pdfrwt beam="1">  1       21 0.13095282E+00 0.30000000E+03</pdfrwt>
<pdfrwt beam="2">0</pdfrwt>
<totfact> 0.35578039E+01</totfact>
</mgrwt>
</event>
<event>
 6    1  0.6513574E-002  0.3000000E+03  0.7818608E-02  0.1093470E+00
         21   -1    0    0  501  502  0.00000000000E+00  0.00000000000E+00  0.21867405260E+01  0.21867405260E+01  0.00000000000E+00 0. -1.
         13   -1    0    0    0    0 -0.00000000000E+00 -0.00000000000E+00 -0.10000000000E+04  0.10000000000E+04  0.00000000000E+00 0.  1.
    9000005    2    1    2  501    0 -0.46448867556E+02  0.97131490136E-01 -0.55117071404E+03  0.55313544042E+03  0.34860730857E+01 0.  0.
         13    1    3    3    0    0 -0.10727057098E+02  0.14763826367E+01 -0.13080611739E+03  0.13125353254E+03  0.00000000000E+00 0.  1.
          3    1    3    3  501    0 -0.35721810459E+02 -0.13792511466E+01 -0.42036459665E+03  0.42188190788E+03  0.00000000000E+00 0.  1.
         -3    1    1    2    0  502  0.46448867556E+02 -0.97131490136E-01 -0.44664254544E+03  0.44905130010E+03  0.00000000000E+00 0. -1.
<mgrwt>
<rscale>  1 0.30000000E+03</rscale>
<asrwt>0</asrwt>
<pdfrwt beam="1">  1       21 0.79518005E-02 0.30000000E+03</pdfrwt>
<pdfrwt beam="2">0</pdfrwt>
<totfact> 0.12910157E+04</totfact>
</mgrwt>
</event>
<event>
 6    1  0.6513574E-002  0.3000000E+03  0.7818608E-02  0.1093470E+00
         21   -1    0    0  501  502  0.00000000000E+00  0.00000000000E+00  0.11067053451E+01  0.11067053451E+01  0.00000000000E+00 0. -1.
         13   -1    0    0    0    0 -0.00000000000E+00 -0.00000000000E+00 -0.10000000000E+04  0.10000000000E+04  0.00000000000E+00 0.  1.
    9000005    2    1    2  501    0 -0.24905726408E+02  0.19175538266E+02 -0.66044825798E+03  0.66120519119E+03  0.35223445004E+01 0.  0.
         13    1    3    3    0    0 -0.21149145740E+02  0.17434507524E+02 -0.58844480945E+03  0.58908279739E+03  0.00000000000E+00 0.  1.
          1    1    3    3  501    0 -0.37565806677E+01  0.17410307427E+01 -0.72003448536E+02  0.72122393800E+02  0.00000000000E+00 0.  1.
         -1    1    1    2    0  502  0.24905726408E+02 -0.19175538266E+02 -0.33844503667E+03  0.33990151415E+03  0.00000000000E+00 0. -1.
<mgrwt>
<rscale>  1 0.30000000E+03</rscale>
<asrwt>0</asrwt>
<pdfrwt beam="1">  1       21 0.40243916E-02 0.30000000E+03</pdfrwt>
<pdfrwt beam="2">0</pdfrwt>
<totfact> 0.41618979E+04</totfact>
</mgrwt>
</event>
<event>
 6    1  0.6513574E-002  0.3000000E+03  0.7818608E-02  0.1093470E+00
         21   -1    0    0  501  502  0.00000000000E+00  0.00000000000E+00  0.29565193427E+01  0.29565193427E+01  0.00000000000E+00 0. -1.
         13   -1    0    0    0    0 -0.00000000000E+00 -0.00000000000E+00 -0.10000000000E+04  0.10000000000E+04  0.00000000000E+00 0.  1.
    9000005    2    1    2  501    0  0.46547132032E+02  0.74531346941E+01 -0.25007766198E+03  0.25450470460E+03  0.34092412187E+01 0.  0.
         13    1    3    3    0    0  0.16262634483E+02  0.24230557579E+01 -0.78718689444E+02  0.80417513934E+02  0.00000000000E+00 0.  1.
          1    1    3    3  501    0  0.30284497550E+02  0.50300789362E+01 -0.17135897254E+03  0.17408719067E+03  0.00000000000E+00 0.  1.
         -3    1    1    2    0  502 -0.46547132032E+02 -0.74531346941E+01 -0.74696581868E+03  0.74845181474E+03  0.00000000000E+00 0. -1.
<mgrwt>
<rscale>  1 0.30000000E+03</rscale>
<asrwt>0</asrwt>
<pdfrwt beam="1">  1       21 0.10751002E-01 0.30000000E+03</pdfrwt>
<pdfrwt beam="2">0</pdfrwt>
<totfact> 0.75567005E+03</totfact>
</mgrwt>
</event>
<event>
 6    1  0.6513574E-002  0.3000000E+03  0.7818608E-02  0.1093470E+00
         21   -1    0    0  501  502  0.00000000000E+00  0.00000000000E+00  0.22949312380E+01  0.22949312380E+01  0.00000000000E+00 0. -1.
         13   -1    0    0    0    0 -0.00000000000E+00 -0.00000000000E+00 -0.10000000000E+04  0.10000000000E+04  0.00000000000E+00 0.  1.
    9000005    2    1    2  501    0 -0.26888527381E+02 -0.34994357418E+02 -0.69244039986E+03  0.69385674288E+03  0.39842603002E+01 0.  0.
         13    1    3    3    0    0 -0.37573996648E+00 -0.15579940587E+01 -0.20325361556E+02  0.20388448896E+02  0.00000000000E+00 0.  1.
          1    1    3    3  501    0 -0.26512787414E+02 -0.33436363360E+02 -0.67211503830E+03  0.67346829399E+03  0.00000000000E+00 0.  1.
         -3    1    1    2    0  502  0.26888527381E+02  0.34994357418E+02 -0.30526466890E+03  0.30843818836E+03  0.00000000000E+00 0. -1.
<mgrwt>
<rscale>  1 0.30000000E+03</rscale>
<asrwt>0</asrwt>
<pdfrwt beam="1">  1       21 0.83452221E-02 0.30000000E+03</pdfrwt>
<pdfrwt beam="2">0</pdfrwt>
<totfact> 0.11859159E+04</totfact>
</mgrwt>
</event>
<event>
 6    1  0.6513574E-002  0.3000000E+03  0.7818608E-02  0.1093470E+00
         21   -1    0    0  501  502  0.00000000000E+00  0.00000000000E+00  0.24291495801E+01  0.24291495801E+01  0.00000000000E+00 0. -1.
         13   -1    0    0    0    0 -0.00000000000E+00 -0.00000000000E+00 -0.10000000000E+04  0.10000000000E+04  0.00000000000E+00 0.  1.
    9000005    2    1    2  501    0  0.33394342055E+02 -0.35700680446E+02 -0.44006013179E+03  0.44277932866E+03  0.33005506024E+01 0.  0.
         13    1    3    3    0    0  0.98959339656E+01 -0.98965330667E+01 -0.13915501790E+03  0.13985703372E+03  0.00000000000E+00 0.  1.
          1    1    3    3  501    0  0.23498408090E+02 -0.25804147380E+02 -0.30090511389E+03  0.30292229494E+03  0.00000000000E+00 0.  1.
         -3    1    1    2    0  502 -0.33394342055E+02  0.35700680446E+02 -0.55751071863E+03  0.55964982092E+03  0.00000000000E+00 0. -1.
<mgrwt>
<rscale>  1 0.30000000E+03</rscale>
<asrwt>0</asrwt>
<pdfrwt beam="1">  1       21 0.88332898E-02 0.30000000E+03</pdfrwt>
<pdfrwt beam="2">0</pdfrwt>
<totfact> 0.10727323E+04</totfact>
</mgrwt>
</event>
