<event>
 6    1  0.1410305E-002  0.6632312E+03  0.7818608E-02  0.9782264E-01
          1   -1    0    0  502    0  0.00000000000E+00  0.00000000000E+00  0.10996892525E+03  0.10996892525E+03  0.00000000000E+00 0.  1.
         13   -1    0    0    0    0 -0.00000000000E+00 -0.00000000000E+00 -0.10000000000E+04  0.10000000000E+04  0.00000000000E+00 0.  1.
    9000005    2    1    2  501    0  0.34168875231E-05 -0.19152779728E-04 -0.89003109261E+03  0.11099688988E+04  0.66323118940E+03 0.  0.
         13    1    3    3    0    0  0.22406295859E+03  0.88437263027E+02 -0.82644273793E+03  0.86083271197E+03  0.00000000000E+00 0.  1.
          3    1    3    3  501    0 -0.22406295518E+03 -0.88437282179E+02 -0.63588354673E+02  0.24913618688E+03  0.00000000000E+00 0.  1.
         21    1    1    2  502  501 -0.34168875350E-05  0.19152779738E-04  0.17857476979E-04  0.26408210393E-04  0.00000000000E+00 0. -1.
<mgrwt>
<rscale>  1 0.66323119E+03</rscale>
<asrwt>0</asrwt>
<pdfrwt beam="1">  1        1 0.39988784E+00 0.66323119E+03</pdfrwt>
<pdfrwt beam="2">0</pdfrwt>
<totfact> 0.13360756E+00</totfact>
</mgrwt>
</event>
<event>
 6    1  0.1410305E-002  0.6419403E+03  0.7818608E-02  0.9822021E-01
          1   -1    0    0  502    0  0.00000000000E+00  0.00000000000E+00  0.10401510695E+03  0.10401510695E+03  0.00000000000E+00 0.  1.
         13   -1    0    0    0    0 -0.00000000000E+00 -0.00000000000E+00 -0.10000000000E+04  0.10000000000E+04  0.00000000000E+00 0.  1.
    9000005    2    1    2  501    0 -0.17054275770E+01  0.65959898377E+00 -0.89595043503E+03  0.11021862435E+04  0.64193768378E+03 0.  0.
         13    1    3    3    0    0  0.77845099488E+02  0.22632641805E+03 -0.80749737367E+02  0.25259459042E+03  0.00000000000E+00 0.  1.
          1    1    3    3  501    0 -0.79550527065E+02 -0.22566681907E+03 -0.81520069766E+03  0.84959165312E+03  0.00000000000E+00 0.  1.
         21    1    1    2  502  501  0.17054275770E+01 -0.65959898377E+00 -0.34458020014E-01  0.18288634161E+01  0.00000000000E+00 0. -1.
<mgrwt>
<rscale>  1 0.64194029E+03</rscale>
<asrwt>0</asrwt>
<pdfrwt beam="1">  1        1 0.37823755E+00 0.64194029E+03</pdfrwt>
<pdfrwt beam="2">0</pdfrwt>
<totfact> 0.16730835E+00</totfact>
</mgrwt>
</event>
<event>
 6    1  0.1410305E-002  0.6663973E+03  0.7818608E-02  0.9776488E-01
          1   -1    0    0  502    0  0.00000000000E+00  0.00000000000E+00  0.11102169795E+03  0.11102169795E+03  0.00000000000E+00 0.  1.
         13   -1    0    0    0    0 -0.00000000000E+00 -0.00000000000E+00 -0.10000000000E+04  0.10000000000E+04  0.00000000000E+00 0.  1.
    9000005    2    1    2  501    0  0.40674862618E-04  0.39638326136E-04 -0.88897864547E+03  0.11110213499E+04  0.66639733474E+03 0.  0.
         13    1    3    3    0    0 -0.22992271337E+03 -0.58470009355E+02 -0.83455178835E+03  0.86761736010E+03  0.00000000000E+00 0.  1.
          1    1    3    3  501    0  0.22992275404E+03  0.58470048993E+02 -0.54426857127E+02  0.24340398976E+03  0.00000000000E+00 0.  1.
         21    1    1    2  502  501 -0.40674862616E-04 -0.39638326138E-04  0.34342522731E-03  0.34808982763E-03  0.00000000000E+00 0.  1.
<mgrwt>
<rscale>  1 0.66639733E+03</rscale>
<asrwt>0</asrwt>
<pdfrwt beam="1">  1        1 0.40371612E+00 0.66639733E+03</pdfrwt>
<pdfrwt beam="2">0</pdfrwt>
<totfact> 0.12837606E+00</totfact>
</mgrwt>
</event>
<event>
 6    1  0.1410305E-002  0.6553009E+03  0.7818608E-02  0.9796883E-01
          1   -1    0    0  502    0  0.00000000000E+00  0.00000000000E+00  0.10765682893E+03  0.10765682893E+03  0.00000000000E+00 0.  1.
         13   -1    0    0    0    0 -0.00000000000E+00 -0.00000000000E+00 -0.10000000000E+04  0.10000000000E+04  0.00000000000E+00 0.  1.
    9000005    2    1    2  501    0  0.13834096844E-01 -0.62661970725E-02 -0.89264497215E+03  0.11073546460E+04  0.65530089687E+03 0.  0.
         13    1    3    3    0    0 -0.12522332995E+03  0.26841344113E+03 -0.68304248587E+03  0.74449559787E+03  0.00000000000E+00 0.  1.
          1    1    3    3  501    0  0.12523716404E+03 -0.26841970733E+03 -0.20960248628E+03  0.36285904811E+03  0.00000000000E+00 0.  1.
         21    1    1    2  502  501 -0.13834096844E-01  0.62661970725E-02  0.30180107290E+00  0.30218294966E+00  0.00000000000E+00 0. -1.
<mgrwt>
<rscale>  1 0.65530090E+03</rscale>
<asrwt>0</asrwt>
<pdfrwt beam="1">  1        1 0.39148020E+00 0.65530090E+03</pdfrwt>
<pdfrwt beam="2">0</pdfrwt>
<totfact> 0.14583928E+00</totfact>
</mgrwt>
</event>
<event>
 6    1  0.1410305E-002  0.6410550E+03  0.7818608E-02  0.9823710E-01
          1   -1    0    0  502    0  0.00000000000E+00  0.00000000000E+00  0.10357902348E+03  0.10357902348E+03  0.00000000000E+00 0.  1.
         13   -1    0    0    0    0 -0.00000000000E+00 -0.00000000000E+00 -0.10000000000E+04  0.10000000000E+04  0.00000000000E+00 0.  1.
    9000005    2    1    2  501    0 -0.48928423315E-02  0.18466390925E-01 -0.89726198961E+03  0.11027377935E+04  0.64105503878E+03 0.  0.
         13    1    3    3    0    0 -0.16007706075E+02 -0.27302649202E+03 -0.16112045174E+03  0.31742638827E+03  0.00000000000E+00 0.  1.
          3    1    3    3  501    0  0.16002813233E+02  0.27304495841E+03 -0.73614153787E+03  0.78531140519E+03  0.00000000000E+00 0.  1.
         21    1    1    2  502  501  0.48928423315E-02 -0.18466390925E-01  0.84101308999E+00  0.84123003099E+00  0.00000000000E+00 0.  1.
<mgrwt>
<rscale>  1 0.64105504E+03</rscale>
<asrwt>0</asrwt>
<pdfrwt beam="1">  1        1 0.37665179E+00 0.64105504E+03</pdfrwt>
<pdfrwt beam="2">0</pdfrwt>
<totfact> 0.17004969E+00</totfact>
</mgrwt>
</event>
<event>
 6    1  0.1410305E-002  0.6483073E+03  0.7818608E-02  0.9809961E-01
          1   -1    0    0  502    0  0.00000000000E+00  0.00000000000E+00  0.10679453810E+03  0.10679453810E+03  0.00000000000E+00 0.  1.
         13   -1    0    0    0    0 -0.00000000000E+00 -0.00000000000E+00 -0.10000000000E+04  0.10000000000E+04  0.00000000000E+00 0.  1.
    9000005    2    1    2  501    0  0.38768673519E-01 -0.23218595440E-01 -0.89492406707E+03  0.11050753389E+04  0.64830734750E+03 0.  0.
         13    1    3    3    0    0  0.17531450690E+03  0.52203891912E+02  0.86999660869E+01  0.18312867626E+03  0.00000000000E+00 0.  1.
          1    1    3    3  501    0 -0.17527573823E+03 -0.52227110507E+02 -0.90362403315E+03  0.92194666265E+03  0.00000000000E+00 0.  1.
         21    1    1    2  502  501 -0.38768673519E-01  0.23218595440E-01  0.17186051700E+01  0.17191991867E+01  0.00000000000E+00 0.  1.
<mgrwt>
<rscale>  1 0.64830735E+03</rscale>
<asrwt>0</asrwt>
<pdfrwt beam="1">  1        1 0.38834459E+00 0.64830735E+03</pdfrwt>
<pdfrwt beam="2">0</pdfrwt>
<totfact> 0.15077991E+00</totfact>
</mgrwt>
</event>
<event>
 6    1  0.1410305E-002  0.6535853E+03  0.7818608E-02  0.9800075E-01
          1   -1    0    0  502    0  0.00000000000E+00  0.00000000000E+00  0.10679509858E+03  0.10679509858E+03  0.00000000000E+00 0.  1.
         13   -1    0    0    0    0 -0.00000000000E+00 -0.00000000000E+00 -0.10000000000E+04  0.10000000000E+04  0.00000000000E+00 0.  1.
    9000005    2    1    2  501    0 -0.93292362953E-03 -0.38561695889E-03 -0.89320640966E+03  0.11067932837E+04  0.65358525270E+03 0.  0.
         13    1    3    3    0    0  0.31068689920E+03 -0.60318316204E+02 -0.58447337875E+03  0.66466064956E+03  0.00000000000E+00 0.  1.
          1    1    3    3  501    0 -0.31068783213E+03  0.60317930587E+02 -0.30873303091E+03  0.44213263413E+03  0.00000000000E+00 0.  1.
         21    1    1    2  502  501  0.93292362953E-03  0.38561695889E-03  0.15082403206E-02  0.18148927798E-02  0.00000000000E+00 0. -1.
<mgrwt>
<rscale>  1 0.65358525E+03</rscale>
<asrwt>0</asrwt>
<pdfrwt beam="1">  1        1 0.38834663E+00 0.65358525E+03</pdfrwt>
<pdfrwt beam="2">0</pdfrwt>
<totfact> 0.15062902E+00</totfact>
</mgrwt>
</event>
<event>
 6    1  0.1410305E-002  0.6281776E+03  0.7818608E-02  0.9848611E-01
          1   -1    0    0  502    0  0.00000000000E+00  0.00000000000E+00  0.98652283700E+02  0.98652283700E+02  0.00000000000E+00 0.  1.
         13   -1    0    0    0    0 -0.00000000000E+00 -0.00000000000E+00 -0.10000000000E+04  0.10000000000E+04  0.00000000000E+00 0.  1.
    9000005    2    1    2  501    0  0.15070129564E-04  0.79492217850E-04 -0.90134821510E+03  0.10986517784E+04  0.62817762239E+03 0.  0.
         13    1    3    3    0    0  0.80600131872E+02 -0.46275479201E+02  0.74051891174E+02  0.11883384964E+03  0.00000000000E+00 0.  1.
          1    1    3    3  501    0 -0.80600116802E+02  0.46275558694E+02 -0.97540010628E+03  0.97981792874E+03  0.00000000000E+00 0.  1.
         21    1    1    2  502  501 -0.15070129568E-04 -0.79492217853E-04  0.49880145296E-03  0.50532070112E-03  0.00000000000E+00 0.  1.
<mgrwt>
<rscale>  1 0.62817762E+03</rscale>
<asrwt>0</asrwt>
<pdfrwt beam="1">  1        1 0.35873633E+00 0.62817762E+03</pdfrwt>
<pdfrwt beam="2">0</pdfrwt>
<totfact> 0.20426675E+00</totfact>
</mgrwt>
</event>
<event>
 6    1  0.1410305E-002  0.6549335E+03  0.7818608E-02  0.9797566E-01
          1   -1    0    0  502    0  0.00000000000E+00  0.00000000000E+00  0.10723534390E+03  0.10723534390E+03  0.00000000000E+00 0.  1.
         13   -1    0    0    0    0 -0.00000000000E+00 -0.00000000000E+00 -0.10000000000E+04  0.10000000000E+04  0.00000000000E+00 0.  1.
    9000005    2    1    2  501    0 -0.48948464243E-03 -0.41678171954E-04 -0.89276544902E+03  0.11072344111E+04  0.65493350367E+03 0.  0.
         13    1    3    3    0    0 -0.18629133804E+03 -0.26838622796E+03 -0.48414616585E+03  0.58406604070E+03  0.00000000000E+00 0.  1.
          1    1    3    3  501    0  0.18629084855E+03  0.26838618628E+03 -0.40861928317E+03  0.52316837043E+03  0.00000000000E+00 0.  1.
         21    1    1    2  502  501  0.48948464241E-03  0.41678171935E-04  0.79292723790E-03  0.93277322526E-03  0.00000000000E+00 0. -1.
<mgrwt>
<rscale>  1 0.65493350E+03</rscale>
<asrwt>0</asrwt>
<pdfrwt beam="1">  1        1 0.38994753E+00 0.65493350E+03</pdfrwt>
<pdfrwt beam="2">0</pdfrwt>
<totfact> 0.14815071E+00</totfact>
</mgrwt>
</event>
<event>
 6    1  0.1410305E-002  0.6425841E+03  0.7818608E-02  0.9820795E-01
          1   -1    0    0  502    0  0.00000000000E+00  0.00000000000E+00  0.10384280432E+03  0.10384280432E+03  0.00000000000E+00 0.  1.
         13   -1    0    0    0    0 -0.00000000000E+00 -0.00000000000E+00 -0.10000000000E+04  0.10000000000E+04  0.00000000000E+00 0.  1.
    9000005    2    1    2  501    0 -0.35420061502E-01 -0.29139396800E-02 -0.89677084836E+03  0.11032281234E+04  0.64258410847E+03 0.  0.
         13    1    3    3    0    0 -0.12136950288E+03  0.27673041036E+03 -0.63585199273E+03  0.70400144382E+03  0.00000000000E+00 0.  1.
          3    1    3    3  501    0  0.12133408282E+03 -0.27673332430E+03 -0.26091885563E+03  0.39922667954E+03  0.00000000000E+00 0.  1.
         21    1    1    2  502  501  0.35420061502E-01  0.29139396800E-02  0.61365268136E+00  0.61468096207E+00  0.00000000000E+00 0.  1.
<mgrwt>
<rscale>  1 0.64258411E+03</rscale>
<asrwt>0</asrwt>
<pdfrwt beam="1">  1        1 0.37761099E+00 0.64258411E+03</pdfrwt>
<pdfrwt beam="2">0</pdfrwt>
<totfact> 0.16835564E+00</totfact>
</mgrwt>
</event>
<event>
 6    1  0.1410305E-002  0.6763259E+03  0.7818608E-02  0.9758597E-01
          1   -1    0    0  502    0  0.00000000000E+00  0.00000000000E+00  0.11435448317E+03  0.11435448317E+03  0.00000000000E+00 0.  1.
         13   -1    0    0    0    0 -0.00000000000E+00 -0.00000000000E+00 -0.10000000000E+04  0.10000000000E+04  0.00000000000E+00 0.  1.
    9000005    2    1    2  501    0  0.13298054759E-03 -0.32427731043E-04 -0.88564578765E+03  0.11143541797E+04  0.67632593968E+03 0.  0.
         13    1    3    3    0    0  0.14991771299E+03  0.18526289723E+03 -0.83811177140E+03  0.87133747947E+03  0.00000000000E+00 0.  1.
          3    1    3    3  501    0 -0.14991758001E+03 -0.18526292966E+03 -0.47534016247E+02  0.24301670026E+03  0.00000000000E+00 0.  1.
         21    1    1    2  502  501 -0.13298054760E-03  0.32427731051E-04  0.27082287109E-03  0.30344754289E-03  0.00000000000E+00 0. -1.
<mgrwt>
<rscale>  1 0.67632594E+03</rscale>
<asrwt>0</asrwt>
<pdfrwt beam="1">  1        1 0.41583536E+00 0.67632594E+03</pdfrwt>
<pdfrwt beam="2">0</pdfrwt>
<totfact> 0.11306039E+00</totfact>
</mgrwt>
</event>
<event>
 6    1  0.1410305E-002  0.6600808E+03  0.7818608E-02  0.9788045E-01
          1   -1    0    0  502    0  0.00000000000E+00  0.00000000000E+00  0.10892803253E+03  0.10892803253E+03  0.00000000000E+00 0.  1.
         13   -1    0    0    0    0 -0.00000000000E+00 -0.00000000000E+00 -0.10000000000E+04  0.10000000000E+04  0.00000000000E+00 0.  1.
    9000005    2    1    2  501    0  0.17004171013E-05 -0.48896190677E-04 -0.89107332410E+03  0.11089266750E+04  0.66008082963E+03 0.  0.
         13    1    3    3    0    0  0.20659418330E+03 -0.11134799049E+03 -0.55696070914E+02  0.24120858997E+03  0.00000000000E+00 0.  1.
          1    1    3    3  501    0 -0.20659418160E+03  0.11134794160E+03 -0.83537725319E+03  0.86771808504E+03  0.00000000000E+00 0.  1.
         21    1    1    2  502  501 -0.17004170880E-05  0.48896190688E-04  0.13566255073E-02  0.13575074571E-02  0.00000000000E+00 0. -1.
<mgrwt>
<rscale>  1 0.66008083E+03</rscale>
<asrwt>0</asrwt>
<pdfrwt beam="1">  1        1 0.39610277E+00 0.66008083E+03</pdfrwt>
<pdfrwt beam="2">0</pdfrwt>
<totfact> 0.13897807E+00</totfact>
</mgrwt>
</event>
<event>
 6    1  0.1410305E-002  0.6472408E+03  0.7818608E-02  0.9811970E-01
          1   -1    0    0  502    0  0.00000000000E+00  0.00000000000E+00  0.10473039086E+03  0.10473039086E+03  0.00000000000E+00 0.  1.
         13   -1    0    0    0    0 -0.00000000000E+00 -0.00000000000E+00 -0.10000000000E+04  0.10000000000E+04  0.00000000000E+00 0.  1.
    9000005    2    1    2  501    0  0.25945441826E-03 -0.21678358657E-03 -0.89526967844E+03  0.11047300457E+04  0.64724081826E+03 0.  0.
         13    1    3    3    0    0 -0.26414142675E+03  0.68499502893E+02 -0.15068935340E+03  0.31172128007E+03  0.00000000000E+00 0.  1.
          1    1    3    3  501    0  0.26414168620E+03 -0.68499719677E+02 -0.74458032503E+03  0.79300876566E+03  0.00000000000E+00 0.  1.
         21    1    1    2  502  501 -0.25945441828E-03  0.21678358656E-03  0.69295518460E-04  0.34512836373E-03  0.00000000000E+00 0.  1.
<mgrwt>
<rscale>  1 0.64724082E+03</rscale>
<asrwt>0</asrwt>
<pdfrwt beam="1">  1        1 0.38083859E+00 0.64724082E+03</pdfrwt>
<pdfrwt beam="2">0</pdfrwt>
<totfact> 0.16278736E+00</totfact>
</mgrwt>
</event>
<event>
 6    1  0.1410305E-002  0.6504805E+03  0.7818608E-02  0.9805878E-01
          1   -1    0    0  502    0  0.00000000000E+00  0.00000000000E+00  0.10584634169E+03  0.10584634169E+03  0.00000000000E+00 0.  1.
         13   -1    0    0    0    0 -0.00000000000E+00 -0.00000000000E+00 -0.10000000000E+04  0.10000000000E+04  0.00000000000E+00 0.  1.
    9000005    2    1    2  501    0  0.10179627628E-01 -0.87896055745E-01 -0.89418371709E+03  0.11057528919E+04  0.65048053784E+03 0.  0.
         13    1    3    3    0    0  0.15136198052E+03 -0.57559923441E+02  0.32387700907E+02  0.16514404956E+03  0.00000000000E+00 0.  1.
          1    1    3    3  501    0 -0.15135180089E+03  0.57472027385E+02 -0.92657141799E+03  0.94060884230E+03  0.00000000000E+00 0.  1.
         21    1    1    2  502  501 -0.10179627628E-01  0.87896055745E-01  0.30058772236E-01  0.93449832651E-01  0.00000000000E+00 0. -1.
<mgrwt>
<rscale>  1 0.65048054E+03</rscale>
<asrwt>0</asrwt>
<pdfrwt beam="1">  1        1 0.38489660E+00 0.65048054E+03</pdfrwt>
<pdfrwt beam="2">0</pdfrwt>
<totfact> 0.15611012E+00</totfact>
</mgrwt>
</event>
<event>
 6    1  0.1410305E-002  0.6557948E+03  0.7818608E-02  0.9795966E-01
          1   -1    0    0  502    0  0.00000000000E+00  0.00000000000E+00  0.10751670512E+03  0.10751670512E+03  0.00000000000E+00 0.  1.
         13   -1    0    0    0    0 -0.00000000000E+00 -0.00000000000E+00 -0.10000000000E+04  0.10000000000E+04  0.00000000000E+00 0.  1.
    9000005    2    1    2  501    0  0.10282327594E-05 -0.30914736726E-06 -0.89248329518E+03  0.11075167040E+04  0.65579479831E+03 0.  0.
         13    1    3    3    0    0  0.90047066891E+02 -0.20278636671E+03 -0.38519649141E+02  0.22519890797E+03  0.00000000000E+00 0.  1.
          1    1    3    3  501    0 -0.90047065863E+02  0.20278636640E+03 -0.85396364603E+03  0.88231779604E+03  0.00000000000E+00 0.  1.
         21    1    1    2  502  501 -0.10282327591E-05  0.30914736455E-06  0.29899608306E-06  0.11145552285E-05  0.00000000000E+00 0.  1.
<mgrwt>
<rscale>  1 0.65579480E+03</rscale>
<asrwt>0</asrwt>
<pdfrwt beam="1">  1        1 0.39097066E+00 0.65579480E+03</pdfrwt>
<pdfrwt beam="2">0</pdfrwt>
<totfact> 0.14658713E+00</totfact>
</mgrwt>
</event>
<event>
 6    1  0.1410305E-002  0.6458185E+03  0.7818608E-02  0.9814657E-01
          1   -1    0    0  502    0  0.00000000000E+00  0.00000000000E+00  0.13772325729E+03  0.13772325729E+03  0.00000000000E+00 0.  1.
         13   -1    0    0    0    0 -0.00000000000E+00 -0.00000000000E+00 -0.10000000000E+04  0.10000000000E+04  0.00000000000E+00 0.  1.
    9000005    2    1    2  501    0 -0.50057954064E+00 -0.46175632875E+00 -0.89572578128E+03  0.11042672865E+04  0.64581816407E+03 0.  0.
         13    1    3    3    0    0 -0.26632472478E+03  0.16619369943E+03 -0.57795149807E+03  0.65770596689E+03  0.00000000000E+00 0.  1.
          1    1    3    3  501    0  0.26582414524E+03 -0.16665545576E+03 -0.31777428321E+03  0.44656131964E+03  0.00000000000E+00 0.  1.
         21    1    1    2  502  501  0.50057954064E+00  0.46175632875E+00  0.33449038566E+02  0.33455970764E+02  0.00000000000E+00 0.  1.
<mgrwt>
<rscale>  1 0.64581852E+03</rscale>
<asrwt>0</asrwt>
<pdfrwt beam="1">  1        1 0.50081290E+00 0.64581852E+03</pdfrwt>
<pdfrwt beam="2">0</pdfrwt>
<totfact> 0.45865974E-01</totfact>
</mgrwt>
</event>
<event>
 6    1  0.1410305E-002  0.6543413E+03  0.7818608E-02  0.9798667E-01
          1   -1    0    0  502    0  0.00000000000E+00  0.00000000000E+00  0.10710304256E+03  0.10710304256E+03  0.00000000000E+00 0.  1.
         13   -1    0    0    0    0 -0.00000000000E+00 -0.00000000000E+00 -0.10000000000E+04  0.10000000000E+04  0.00000000000E+00 0.  1.
    9000005    2    1    2  501    0  0.37330509187E-03 -0.17747131840E-02 -0.89295934640E+03  0.11070406272E+04  0.65434131465E+03 0.  0.
         13    1    3    3    0    0  0.15718808828E+03  0.27191766691E+03 -0.60147293835E+03  0.67854035123E+03  0.00000000000E+00 0.  1.
          3    1    3    3  501    0 -0.15718771498E+03 -0.27191944163E+03 -0.29148640805E+03  0.42850027602E+03  0.00000000000E+00 0.  1.
         21    1    1    2  502  501 -0.37330509187E-03  0.17747131840E-02  0.62388957474E-01  0.62415310448E-01  0.00000000000E+00 0. -1.
<mgrwt>
<rscale>  1 0.65434131E+03</rscale>
<asrwt>0</asrwt>
<pdfrwt beam="1">  1        1 0.38946643E+00 0.65434131E+03</pdfrwt>
<pdfrwt beam="2">0</pdfrwt>
<totfact> 0.14889655E+00</totfact>
</mgrwt>
</event>
<event>
 6    1  0.1410305E-002  0.6933671E+03  0.7818608E-02  0.9728643E-01
          1   -1    0    0  502    0  0.00000000000E+00  0.00000000000E+00  0.12019007596E+03  0.12019007596E+03  0.00000000000E+00 0.  1.
         13   -1    0    0    0    0 -0.00000000000E+00 -0.00000000000E+00 -0.10000000000E+04  0.10000000000E+04  0.00000000000E+00 0.  1.
    9000005    2    1    2  501    0  0.22771493863E-03 -0.30294854605E-03 -0.87981045105E+03  0.11201894268E+04  0.69336709051E+03 0.  0.
         13    1    3    3    0    0  0.12763282508E+03 -0.25313888397E+03 -0.76229404431E+03  0.81330292180E+03  0.00000000000E+00 0.  1.
          3    1    3    3  501    0 -0.12763259737E+03  0.25313858103E+03 -0.11751640674E+03  0.30688650503E+03  0.00000000000E+00 0.  1.
         21    1    1    2  502  501 -0.22771493863E-03  0.30294854602E-03  0.52701360908E-03  0.64913423802E-03  0.00000000000E+00 0. -1.
<mgrwt>
<rscale>  1 0.69336709E+03</rscale>
<asrwt>0</asrwt>
<pdfrwt beam="1">  1        1 0.43705574E+00 0.69336709E+03</pdfrwt>
<pdfrwt beam="2">0</pdfrwt>
<totfact> 0.90296345E-01</totfact>
</mgrwt>
</event>
<event>
 6    1  0.1410305E-002  0.6506808E+03  0.7818608E-02  0.9805503E-01
          1   -1    0    0  502    0  0.00000000000E+00  0.00000000000E+00  0.10619881015E+03  0.10619881015E+03  0.00000000000E+00 0.  1.
         13   -1    0    0    0    0 -0.00000000000E+00 -0.00000000000E+00 -0.10000000000E+04  0.10000000000E+04  0.00000000000E+00 0.  1.
    9000005    2    1    2  501    0  0.15691575735E-01  0.85872900399E-01 -0.89414765047E+03  0.11058415213E+04  0.65068075253E+03 0.  0.
         13    1    3    3    0    0 -0.12800348744E+03 -0.22861052399E+03 -0.77471753661E+03  0.81782328531E+03  0.00000000000E+00 0.  1.
          3    1    3    3  501    0  0.12801917902E+03  0.22869639689E+03 -0.11943011386E+03  0.28801823596E+03  0.00000000000E+00 0.  1.
         21    1    1    2  502  501 -0.15691575735E-01 -0.85872900399E-01  0.34646061611E+00  0.35728887344E+00  0.00000000000E+00 0.  1.
<mgrwt>
<rscale>  1 0.65068076E+03</rscale>
<asrwt>0</asrwt>
<pdfrwt beam="1">  1        1 0.38617831E+00 0.65068076E+03</pdfrwt>
<pdfrwt beam="2">0</pdfrwt>
<totfact> 0.15407927E+00</totfact>
</mgrwt>
</event>
<event>
 6    1  0.1410305E-002  0.6458253E+03  0.7818608E-02  0.9814644E-01
          1   -1    0    0  502    0  0.00000000000E+00  0.00000000000E+00  0.10460456947E+03  0.10460456947E+03  0.00000000000E+00 0.  1.
         13   -1    0    0    0    0 -0.00000000000E+00 -0.00000000000E+00 -0.10000000000E+04  0.10000000000E+04  0.00000000000E+00 0.  1.
    9000005    2    1    2  501    0 -0.77768624916E-01  0.24635833877E+00 -0.89567102201E+03  0.11042268248E+04  0.64582523499E+03 0.  0.
         13    1    3    3    0    0  0.10292800940E+03 -0.26631590286E+03 -0.19018130768E+03  0.34305577539E+03  0.00000000000E+00 0.  1.
          1    1    3    3  501    0 -0.10300577802E+03  0.26656226120E+03 -0.70548971433E+03  0.76117104939E+03  0.00000000000E+00 0.  1.
         21    1    1    2  502  501  0.77768624916E-01 -0.24635833877E+00  0.27559147822E+00  0.37774469285E+00  0.00000000000E+00 0. -1.
<mgrwt>
<rscale>  1 0.64582529E+03</rscale>
<asrwt>0</asrwt>
<pdfrwt beam="1">  1        1 0.38038105E+00 0.64582529E+03</pdfrwt>
<pdfrwt beam="2">0</pdfrwt>
<totfact> 0.16358862E+00</totfact>
</mgrwt>
</event>
<event>
 6    1  0.1410305E-002  0.6423590E+03  0.7818608E-02  0.9821223E-01
          1   -1    0    0  502    0  0.00000000000E+00  0.00000000000E+00  0.10315629084E+03  0.10315629084E+03  0.00000000000E+00 0.  1.
         13   -1    0    0    0    0 -0.00000000000E+00 -0.00000000000E+00 -0.10000000000E+04  0.10000000000E+04  0.00000000000E+00 0.  1.
    9000005    2    1    2  501    0 -0.92459620760E-05 -0.59509345078E-05 -0.89684370694E+03  0.11031562796E+04  0.64235904491E+03 0.  0.
         13    1    3    3    0    0 -0.11897455193E+03  0.27588006815E+03 -0.64341143703E+03  0.71010072054E+03  0.00000000000E+00 0.  1.
          1    1    3    3  501    0  0.11897454268E+03 -0.27588007410E+03 -0.25343226991E+03  0.39305555908E+03  0.00000000000E+00 0.  1.
         21    1    1    2  502  501  0.92459620723E-05  0.59509345180E-05 -0.22175841244E-05  0.11216912036E-04  0.00000000000E+00 0.  1.
<mgrwt>
<rscale>  1 0.64235904E+03</rscale>
<asrwt>0</asrwt>
<pdfrwt beam="1">  1        1 0.37511458E+00 0.64235904E+03</pdfrwt>
<pdfrwt beam="2">0</pdfrwt>
<totfact> 0.17267955E+00</totfact>
</mgrwt>
</event>
<event>
 6    1  0.1410305E-002  0.5935724E+03  0.7818608E-02  0.9918832E-01
          1   -1    0    0  502    0  0.00000000000E+00  0.00000000000E+00  0.88085437412E+02  0.88085437412E+02  0.00000000000E+00 0.  1.
         13   -1    0    0    0    0 -0.00000000000E+00 -0.00000000000E+00 -0.10000000000E+04  0.10000000000E+04  0.00000000000E+00 0.  1.
    9000005    2    1    2  501    0 -0.78516800897E-04 -0.28265960864E-04 -0.91191796047E+03  0.10880820385E+04  0.59357236786E+03 0.  0.
         13    1    3    3    0    0 -0.29064840334E+03  0.53935025206E+02 -0.50433984616E+03  0.58458888266E+03  0.00000000000E+00 0.  1.
          1    1    3    3  501    0  0.29064832482E+03 -0.53935053472E+02 -0.40757811431E+03  0.50349315584E+03  0.00000000000E+00 0.  1.
         21    1    1    2  502  501  0.78516800887E-04  0.28265960865E-04  0.33978830921E-02  0.33989076716E-02  0.00000000000E+00 0.  1.
<mgrwt>
<rscale>  1 0.59357237E+03</rscale>
<asrwt>0</asrwt>
<pdfrwt beam="1">  1        1 0.32031136E+00 0.59357237E+03</pdfrwt>
<pdfrwt beam="2">0</pdfrwt>
<totfact> 0.30185426E+00</totfact>
</mgrwt>
</event>
<event>
 6    1  0.1410305E-002  0.6494679E+03  0.7818608E-02  0.9807778E-01
          1   -1    0    0  502    0  0.00000000000E+00  0.00000000000E+00  0.10545219583E+03  0.10545219583E+03  0.00000000000E+00 0.  1.
         13   -1    0    0    0    0 -0.00000000000E+00 -0.00000000000E+00 -0.10000000000E+04  0.10000000000E+04  0.00000000000E+00 0.  1.
    9000005    2    1    2  501    0  0.46807926566E-05 -0.97145010045E-05 -0.89454785485E+03  0.11054521440E+04  0.64946791922E+03 0.  0.
         13    1    3    3    0    0  0.10006846604E+03  0.30644866373E+03 -0.51380057650E+03  0.60656039584E+03  0.00000000000E+00 0.  1.
          3    1    3    3  501    0 -0.10006846136E+03 -0.30644867345E+03 -0.38074727835E+03  0.49889174817E+03  0.00000000000E+00 0.  1.
         21    1    1    2  502  501 -0.46807926452E-05  0.97145009942E-05  0.50681024525E-04  0.51815515015E-04  0.00000000000E+00 0. -1.
<mgrwt>
<rscale>  1 0.64946792E+03</rscale>
<asrwt>0</asrwt>
<pdfrwt beam="1">  1        1 0.38346334E+00 0.64946792E+03</pdfrwt>
<pdfrwt beam="2">0</pdfrwt>
<totfact> 0.15843431E+00</totfact>
</mgrwt>
</event>
<event>
 6    1  0.1410305E-002  0.6516234E+03  0.7818608E-02  0.9803738E-01
          1   -1    0    0  502    0  0.00000000000E+00  0.00000000000E+00  0.10619518990E+03  0.10619518990E+03  0.00000000000E+00 0.  1.
         13   -1    0    0    0    0 -0.00000000000E+00 -0.00000000000E+00 -0.10000000000E+04  0.10000000000E+04  0.00000000000E+00 0.  1.
    9000005    2    1    2  501    0  0.25939833576E-01 -0.46501992397E-01 -0.89382716201E+03  0.11061374412E+04  0.65162338842E+03 0.  0.
         13    1    3    3    0    0 -0.77767516256E+02 -0.89588815512E+02 -0.96202639127E+03  0.96931353026E+03  0.00000000000E+00 0.  1.
          1    1    3    3  501    0  0.77793456089E+02  0.89542313520E+02  0.68199229256E+02  0.13682391089E+03  0.00000000000E+00 0.  1.
         21    1    1    2  502  501 -0.25939833576E-01  0.46501992397E-01  0.22351910029E-01  0.57748750158E-01  0.00000000000E+00 0. -1.
<mgrwt>
<rscale>  1 0.65162339E+03</rscale>
<asrwt>0</asrwt>
<pdfrwt beam="1">  1        1 0.38616514E+00 0.65162339E+03</pdfrwt>
<pdfrwt beam="2">0</pdfrwt>
<totfact> 0.15407308E+00</totfact>
</mgrwt>
</event>
<event>
 6    1  0.1410305E-002  0.6491732E+03  0.7818608E-02  0.9808332E-01
          1   -1    0    0  502    0  0.00000000000E+00  0.00000000000E+00  0.10535650074E+03  0.10535650074E+03  0.00000000000E+00 0.  1.
         13   -1    0    0    0    0 -0.00000000000E+00 -0.00000000000E+00 -0.10000000000E+04  0.10000000000E+04  0.00000000000E+00 0.  1.
    9000005    2    1    2  501    0 -0.11770566246E-05 -0.52752892827E-05 -0.89464353300E+03  0.11053564666E+04  0.64917321806E+03 0.  0.
         13    1    3    3    0    0  0.16756670408E+02  0.16425148154E+03 -0.92315996113E+03  0.93780789559E+03  0.00000000000E+00 0.  1.
          1    1    3    3  501    0 -0.16756671586E+02 -0.16425148682E+03  0.28516428131E+02  0.16754857098E+03  0.00000000000E+00 0.  1.
         21    1    1    2  502  501  0.11770566251E-05  0.52752892706E-05  0.33743319959E-04  0.34173466038E-04  0.00000000000E+00 0. -1.
<mgrwt>
<rscale>  1 0.64917322E+03</rscale>
<asrwt>0</asrwt>
<pdfrwt beam="1">  1        1 0.38311536E+00 0.64917322E+03</pdfrwt>
<pdfrwt beam="2">0</pdfrwt>
<totfact> 0.15900497E+00</totfact>
</mgrwt>
</event>
<event>
 6    1  0.1410305E-002  0.6467664E+03  0.7818608E-02  0.9812866E-01
          1   -1    0    0  502    0  0.00000000000E+00  0.00000000000E+00  0.10460701405E+03  0.10460701405E+03  0.00000000000E+00 0.  1.
         13   -1    0    0    0    0 -0.00000000000E+00 -0.00000000000E+00 -0.10000000000E+04  0.10000000000E+04  0.00000000000E+00 0.  1.
    9000005    2    1    2  501    0  0.62752610047E-01  0.23188944873E-01 -0.89537539059E+03  0.11045378388E+04  0.64676637421E+03 0.  0.
         13    1    3    3    0    0  0.30277005276E+03 -0.89808815058E+02 -0.56675876348E+03  0.64880723185E+03  0.00000000000E+00 0.  1.
          3    1    3    3  501    0 -0.30270730015E+03  0.89832004002E+02 -0.32861662711E+03  0.45573060696E+03  0.00000000000E+00 0.  1.
         21    1    1    2  502  501 -0.62752610047E-01 -0.23188944873E-01 -0.17595365209E-01  0.69175242022E-01  0.00000000000E+00 0. -1.
<mgrwt>
<rscale>  1 0.64676638E+03</rscale>
<asrwt>0</asrwt>
<pdfrwt beam="1">  1        1 0.38038994E+00 0.64676638E+03</pdfrwt>
<pdfrwt beam="2">0</pdfrwt>
<totfact> 0.16354553E+00</totfact>
</mgrwt>
</event>
<event>
 6    1  0.1410305E-002  0.6803049E+03  0.7818608E-02  0.9751519E-01
          1   -1    0    0  502    0  0.00000000000E+00  0.00000000000E+00  0.12722956017E+03  0.12722956017E+03  0.00000000000E+00 0.  1.
         13   -1    0    0    0    0 -0.00000000000E+00 -0.00000000000E+00 -0.10000000000E+04  0.10000000000E+04  0.00000000000E+00 0.  1.
    9000005    2    1    2  501    0 -0.27720041380E+00  0.54004295524E+00 -0.88428740416E+03  0.11156966094E+04  0.68030459541E+03 0.  0.
         13    1    3    3    0    0  0.69763089096E+02 -0.12111099063E+02 -0.98765804037E+03  0.99019289637E+03  0.00000000000E+00 0.  1.
          1    1    3    3  501    0 -0.70040289510E+02  0.12651142018E+02  0.10337063621E+03  0.12550371301E+03  0.00000000000E+00 0.  1.
         21    1    1    2  502  501  0.27720041380E+00 -0.54004295524E+00  0.11516964335E+02  0.11532950792E+02  0.00000000000E+00 0.  1.
<mgrwt>
<rscale>  1 0.68030487E+03</rscale>
<asrwt>0</asrwt>
<pdfrwt beam="1">  1        1 0.46265392E+00 0.68030487E+03</pdfrwt>
<pdfrwt beam="2">0</pdfrwt>
<totfact> 0.68987824E-01</totfact>
</mgrwt>
</event>
<event>
 6    1  0.1410305E-002  0.5547855E+03  0.7818608E-02  0.1000392E+00
          1   -1    0    0  502    0  0.00000000000E+00  0.00000000000E+00  0.76946759860E+02  0.76946759860E+02  0.00000000000E+00 0.  1.
         13   -1    0    0    0    0 -0.00000000000E+00 -0.00000000000E+00 -0.10000000000E+04  0.10000000000E+04  0.00000000000E+00 0.  1.
    9000005    2    1    2  501    0 -0.10174033768E-04 -0.12949739613E-04 -0.92305326494E+03  0.10769467301E+04  0.55478548065E+03 0.  0.
         13    1    3    3    0    0 -0.61700760598E+02  0.25132559892E+03 -0.65540514949E+03  0.70464703967E+03  0.00000000000E+00 0.  1.
          3    1    3    3  501    0  0.61700750424E+02 -0.25132561187E+03 -0.26764811545E+03  0.37229969043E+03  0.00000000000E+00 0.  1.
         21    1    1    2  502  501  0.10174033764E-04  0.12949739617E-04  0.24800375358E-04  0.29770208886E-04  0.00000000000E+00 0.  1.
<mgrwt>
<rscale>  1 0.55478548E+03</rscale>
<asrwt>0</asrwt>
<pdfrwt beam="1">  1        1 0.27980699E+00 0.55478548E+03</pdfrwt>
<pdfrwt beam="2">0</pdfrwt>
<totfact> 0.45454740E+00</totfact>
</mgrwt>
</event>
<event>
 6    1  0.1410305E-002  0.6562141E+03  0.7818608E-02  0.9795188E-01
          1   -1    0    0  502    0  0.00000000000E+00  0.00000000000E+00  0.10775868669E+03  0.10775868669E+03  0.00000000000E+00 0.  1.
         13   -1    0    0    0    0 -0.00000000000E+00 -0.00000000000E+00 -0.10000000000E+04  0.10000000000E+04  0.00000000000E+00 0.  1.
    9000005    2    1    2  501    0  0.51609367363E-01  0.47059890127E-01 -0.89233267293E+03  0.11076436878E+04  0.65621409243E+03 0.  0.
         13    1    3    3    0    0  0.21041498981E+03 -0.14483487172E+03 -0.79376817079E+03  0.83385821154E+03  0.00000000000E+00 0.  1.
          3    1    3    3  501    0 -0.21036338044E+03  0.14488193161E+03 -0.98564502146E+02  0.27378547628E+03  0.00000000000E+00 0.  1.
         21    1    1    2  502  501 -0.51609367363E-01 -0.47059890127E-01  0.91359625582E-01  0.11499887497E+00  0.00000000000E+00 0. -1.
<mgrwt>
<rscale>  1 0.65621410E+03</rscale>
<asrwt>0</asrwt>
<pdfrwt beam="1">  1        1 0.39185060E+00 0.65621410E+03</pdfrwt>
<pdfrwt beam="2">0</pdfrwt>
<totfact> 0.14526359E+00</totfact>
</mgrwt>
</event>
<event>
 6    1  0.1410305E-002  0.6725362E+03  0.7818608E-02  0.9765387E-01
          1   -1    0    0  502    0  0.00000000000E+00  0.00000000000E+00  0.11323269850E+03  0.11323269850E+03  0.00000000000E+00 0.  1.
         13   -1    0    0    0    0 -0.00000000000E+00 -0.00000000000E+00 -0.10000000000E+04  0.10000000000E+04  0.00000000000E+00 0.  1.
    9000005    2    1    2  501    0  0.36029550782E-01 -0.19222370395E+00 -0.88685245047E+03  0.11130193949E+04  0.67253614494E+03 0.  0.
         13    1    3    3    0    0  0.34459596257E+02  0.31804977350E+03 -0.61428443639E+03  0.69259547428E+03  0.00000000000E+00 0.  1.
          3    1    3    3  501    0 -0.34423566706E+02 -0.31824199720E+03 -0.27256801408E+03  0.42042392062E+03  0.00000000000E+00 0.  1.
         21    1    1    2  502  501 -0.36029550782E-01  0.19222370395E+00  0.85148976593E-01  0.21330360781E+00  0.00000000000E+00 0. -1.
<mgrwt>
<rscale>  1 0.67253617E+03</rscale>
<asrwt>0</asrwt>
<pdfrwt beam="1">  1        1 0.41175614E+00 0.67253617E+03</pdfrwt>
<pdfrwt beam="2">0</pdfrwt>
<totfact> 0.11802246E+00</totfact>
</mgrwt>
</event>
<event>
 6    1  0.1410305E-002  0.6397345E+03  0.7818608E-02  0.9826235E-01
          1   -1    0    0  502    0  0.00000000000E+00  0.00000000000E+00  0.10231601667E+03  0.10231601667E+03  0.00000000000E+00 0.  1.
         13   -1    0    0    0    0 -0.00000000000E+00 -0.00000000000E+00 -0.10000000000E+04  0.10000000000E+04  0.00000000000E+00 0.  1.
    9000005    2    1    2  501    0  0.17221072812E-03 -0.15116555176E-03 -0.89768492956E+03  0.11023150431E+04  0.63973449295E+03 0.  0.
         13    1    3    3    0    0  0.17363419121E+03  0.15000029377E+03 -0.83284686250E+03  0.86387662132E+03  0.00000000000E+00 0.  1.
          3    1    3    3  501    0 -0.17363401900E+03 -0.15000044494E+03 -0.64838067060E+02  0.23843842177E+03  0.00000000000E+00 0.  1.
         21    1    1    2  502  501 -0.17221072813E-03  0.15116555176E-03  0.94622751146E-03  0.97357796933E-03  0.00000000000E+00 0.  1.
<mgrwt>
<rscale>  1 0.63973449E+03</rscale>
<asrwt>0</asrwt>
<pdfrwt beam="1">  1        1 0.37205903E+00 0.63973449E+03</pdfrwt>
<pdfrwt beam="2">0</pdfrwt>
<totfact> 0.17819293E+00</totfact>
</mgrwt>
</event>
<event>
 6    1  0.1410305E-002  0.6472429E+03  0.7818608E-02  0.9811966E-01
          1   -1    0    0  502    0  0.00000000000E+00  0.00000000000E+00  0.10707248640E+03  0.10707248640E+03  0.00000000000E+00 0.  1.
         13   -1    0    0    0    0 -0.00000000000E+00 -0.00000000000E+00 -0.10000000000E+04  0.10000000000E+04  0.00000000000E+00 0.  1.
    9000005    2    1    2  501    0 -0.96839507840E+00 -0.50550007994E+00 -0.89512758424E+03  0.11046161415E+04  0.64724202176E+03 0.  0.
         13    1    3    3    0    0 -0.19078444046E+03 -0.22990811999E+03 -0.66255822949E+03  0.72680111023E+03  0.00000000000E+00 0.  1.
          1    1    3    3  501    0  0.18981604538E+03  0.22940261991E+03 -0.23256935474E+03  0.37781503129E+03  0.00000000000E+00 0.  1.
         21    1    1    2  502  501  0.96839507840E+00  0.50550007994E+00  0.22000706369E+01  0.24563448793E+01  0.00000000000E+00 0. -1.
<mgrwt>
<rscale>  1 0.64724294E+03</rscale>
<asrwt>0</asrwt>
<pdfrwt beam="1">  1        1 0.38935532E+00 0.64724294E+03</pdfrwt>
<pdfrwt beam="2">0</pdfrwt>
<totfact> 0.14926265E+00</totfact>
</mgrwt>
</event>
<event>
 6    1  0.1410305E-002  0.6466104E+03  0.7818608E-02  0.9813160E-01
          1   -1    0    0  502    0  0.00000000000E+00  0.00000000000E+00  0.10496178595E+03  0.10496178595E+03  0.00000000000E+00 0.  1.
         13   -1    0    0    0    0 -0.00000000000E+00 -0.00000000000E+00 -0.10000000000E+04  0.10000000000E+04  0.00000000000E+00 0.  1.
    9000005    2    1    2  501    0 -0.63171305632E-01 -0.77809770567E-01 -0.89546736087E+03  0.11045210911E+04  0.64661042076E+03 0.  0.
         13    1    3    3    0    0  0.17953993959E+03 -0.77486121760E+02 -0.88749669317E+03  0.90878439102E+03  0.00000000000E+00 0.  1.
          1    1    3    3  501    0 -0.17960311090E+03  0.77408311989E+02 -0.79706676937E+01  0.19573670006E+03  0.00000000000E+00 0.  1.
         21    1    1    2  502  501  0.63171305632E-01  0.77809770567E-01  0.42914681348E+00  0.44069486243E+00  0.00000000000E+00 0. -1.
<mgrwt>
<rscale>  1 0.64661043E+03</rscale>
<asrwt>0</asrwt>
<pdfrwt beam="1">  1        1 0.38168003E+00 0.64661043E+03</pdfrwt>
<pdfrwt beam="2">0</pdfrwt>
<totfact> 0.16141959E+00</totfact>
</mgrwt>
</event>
<event>
 6    1  0.1410305E-002  0.6501182E+03  0.7818608E-02  0.9806557E-01
          1   -1    0    0  502    0  0.00000000000E+00  0.00000000000E+00  0.10568238196E+03  0.10568238196E+03  0.00000000000E+00 0.  1.
         13   -1    0    0    0    0 -0.00000000000E+00 -0.00000000000E+00 -0.10000000000E+04  0.10000000000E+04  0.00000000000E+00 0.  1.
    9000005    2    1    2  501    0 -0.11817712135E-02  0.40716266721E-02 -0.89433631694E+03  0.11056632084E+04  0.65011820670E+03 0.  0.
         13    1    3    3    0    0  0.16956698903E+03  0.18275131242E+03 -0.80193354793E+03  0.83979070086E+03  0.00000000000E+00 0.  1.
          3    1    3    3  501    0 -0.16956817080E+03 -0.18274724079E+03 -0.92402769015E+02  0.26587250758E+03  0.00000000000E+00 0.  1.
         21    1    1    2  502  501  0.11817712135E-02 -0.40716266721E-02  0.18698908205E-01  0.19173520673E-01  0.00000000000E+00 0. -1.
<mgrwt>
<rscale>  1 0.65011821E+03</rscale>
<asrwt>0</asrwt>
<pdfrwt beam="1">  1        1 0.38430038E+00 0.65011821E+03</pdfrwt>
<pdfrwt beam="2">0</pdfrwt>
<totfact> 0.15707128E+00</totfact>
</mgrwt>
</event>
<event>
 6    1  0.1410305E-002  0.6270039E+03  0.7818608E-02  0.9850913E-01
          1   -1    0    0  502    0  0.00000000000E+00  0.00000000000E+00  0.98291028363E+02  0.98291028363E+02  0.00000000000E+00 0.  1.
         13   -1    0    0    0    0 -0.00000000000E+00 -0.00000000000E+00 -0.10000000000E+04  0.10000000000E+04  0.00000000000E+00 0.  1.
    9000005    2    1    2  501    0 -0.14125617519E-02  0.16116018036E-02 -0.90171636881E+03  0.10982833270E+04  0.62700387288E+03 0.  0.
         13    1    3    3    0    0 -0.26393728074E+03 -0.75476933428E+01 -0.15481693391E+03  0.30608518237E+03  0.00000000000E+00 0.  1.
          1    1    3    3  501    0  0.26393586818E+03  0.75493049446E+01 -0.74689943490E+03  0.79219814464E+03  0.00000000000E+00 0.  1.
         21    1    1    2  502  501  0.14125617518E-02 -0.16116018036E-02  0.73971765583E-02  0.77013513172E-02  0.00000000000E+00 0. -1.
<mgrwt>
<rscale>  1 0.62700387E+03</rscale>
<asrwt>0</asrwt>
<pdfrwt beam="1">  1        1 0.35742268E+00 0.62700387E+03</pdfrwt>
<pdfrwt beam="2">0</pdfrwt>
<totfact> 0.20702863E+00</totfact>
</mgrwt>
</event>
<event>
 6    1  0.1410305E-002  0.6444820E+03  0.7818608E-02  0.9817189E-01
          1   -1    0    0  502    0  0.00000000000E+00  0.00000000000E+00  0.10388794271E+03  0.10388794271E+03  0.00000000000E+00 0.  1.
         13   -1    0    0    0    0 -0.00000000000E+00 -0.00000000000E+00 -0.10000000000E+04  0.10000000000E+04  0.00000000000E+00 0.  1.
    9000005    2    1    2  501    0  0.19020099764E-01 -0.60660094793E-02 -0.89615845739E+03  0.11038374300E+04  0.64448203295E+03 0.  0.
         13    1    3    3    0    0  0.78739933313E+02 -0.15477052524E+03 -0.91301938333E+03  0.92938597306E+03  0.00000000000E+00 0.  1.
          3    1    3    3  501    0 -0.78720913213E+02  0.15476445923E+03  0.16860925936E+02  0.17445145698E+03  0.00000000000E+00 0.  1.
         21    1    1    2  502  501 -0.19020099764E-01  0.60660094793E-02  0.46400097790E-01  0.50512669113E-01  0.00000000000E+00 0.  1.
<mgrwt>
<rscale>  1 0.64448203E+03</rscale>
<asrwt>0</asrwt>
<pdfrwt beam="1">  1        1 0.37777513E+00 0.64448203E+03</pdfrwt>
<pdfrwt beam="2">0</pdfrwt>
<totfact> 0.16801688E+00</totfact>
</mgrwt>
</event>
<event>
 6    1  0.1410305E-002  0.6471199E+03  0.7818608E-02  0.9812199E-01
          1   -1    0    0  502    0  0.00000000000E+00  0.00000000000E+00  0.12497513660E+03  0.12497513660E+03  0.00000000000E+00 0.  1.
         13   -1    0    0    0    0 -0.00000000000E+00 -0.00000000000E+00 -0.10000000000E+04  0.10000000000E+04  0.00000000000E+00 0.  1.
    9000005    2    1    2  501    0 -0.70899548022E+00  0.14938063521E+01 -0.89527173230E+03  0.11046608600E+04  0.64711776896E+03 0.  0.
         13    1    3    3    0    0 -0.19146695855E+03 -0.18853530511E+03 -0.75429770656E+03  0.80073103325E+03  0.00000000000E+00 0.  1.
          3    1    3    3  501    0  0.19075796307E+03  0.19002911146E+03 -0.14097402575E+03  0.30392982679E+03  0.00000000000E+00 0.  1.
         21    1    1    2  502  501  0.70899548022E+00 -0.14938063521E+01  0.20246868902E+02  0.20314276564E+02  0.00000000000E+00 0.  1.
<mgrwt>
<rscale>  1 0.64711988E+03</rscale>
<asrwt>0</asrwt>
<pdfrwt beam="1">  1        1 0.45445600E+00 0.64711988E+03</pdfrwt>
<pdfrwt beam="2">0</pdfrwt>
<totfact> 0.75821169E-01</totfact>
</mgrwt>
</event>
<event>
 6    1  0.1410305E-002  0.6600939E+03  0.7818608E-02  0.9788021E-01
          1   -1    0    0  502    0  0.00000000000E+00  0.00000000000E+00  0.10893218735E+03  0.10893218735E+03  0.00000000000E+00 0.  1.
         13   -1    0    0    0    0 -0.00000000000E+00 -0.00000000000E+00 -0.10000000000E+04  0.10000000000E+04  0.00000000000E+00 0.  1.
    9000005    2    1    2  501    0 -0.77727206701E-04 -0.19331767535E-03 -0.89106899600E+03  0.11089309858E+04  0.66009391424E+03 0.  0.
         13    1    3    3    0    0 -0.20055673528E+03  0.24811102049E+03 -0.58757675352E+03  0.66860191731E+03  0.00000000000E+00 0.  1.
          1    1    3    3  501    0  0.20055665755E+03 -0.24811121381E+03 -0.30349224248E+03  0.44032906849E+03  0.00000000000E+00 0.  1.
         21    1    1    2  502  501  0.77727206697E-04  0.19331767535E-03  0.11833509595E-02  0.12015542999E-02  0.00000000000E+00 0.  1.
<mgrwt>
<rscale>  1 0.66009391E+03</rscale>
<asrwt>0</asrwt>
<pdfrwt beam="1">  1        1 0.39611788E+00 0.66009391E+03</pdfrwt>
<pdfrwt beam="2">0</pdfrwt>
<totfact> 0.13895622E+00</totfact>
</mgrwt>
</event>
<event>
 6    1  0.1410305E-002  0.6486040E+03  0.7818608E-02  0.9809402E-01
          1   -1    0    0  502    0  0.00000000000E+00  0.00000000000E+00  0.10520793733E+03  0.10520793733E+03  0.00000000000E+00 0.  1.
         13   -1    0    0    0    0 -0.00000000000E+00 -0.00000000000E+00 -0.10000000000E+04  0.10000000000E+04  0.00000000000E+00 0.  1.
    9000005    2    1    2  501    0 -0.12543002085E-01  0.17088440376E-01 -0.89482474445E+03  0.11051689830E+04  0.64860400650E+03 0.  0.
         13    1    3    3    0    0  0.22553036315E+03 -0.23302153107E+03 -0.44498826011E+03  0.55061559211E+03  0.00000000000E+00 0.  1.
          3    1    3    3  501    0 -0.22554290615E+03  0.23303861951E+03 -0.44983648434E+03  0.55455339088E+03  0.00000000000E+00 0.  1.
         21    1    1    2  502  501  0.12543002085E-01 -0.17088440376E-01  0.32681773627E-01  0.38954332534E-01  0.00000000000E+00 0.  1.
<mgrwt>
<rscale>  1 0.64860401E+03</rscale>
<asrwt>0</asrwt>
<pdfrwt beam="1">  1        1 0.38257512E+00 0.64860401E+03</pdfrwt>
<pdfrwt beam="2">0</pdfrwt>
<totfact> 0.15989808E+00</totfact>
</mgrwt>
</event>
<event>
 6    1  0.1410305E-002  0.6328403E+03  0.7818608E-02  0.9839522E-01
          3   -1    0    0  502    0  0.00000000000E+00  0.00000000000E+00  0.10447563367E+03  0.10447563367E+03  0.00000000000E+00 0.  1.
         13   -1    0    0    0    0 -0.00000000000E+00 -0.00000000000E+00 -0.10000000000E+04  0.10000000000E+04  0.00000000000E+00 0.  1.
    9000005    2    1    2  501    0  0.23518437226E+00  0.55216809432E+00 -0.89985552392E+03  0.11001030912E+04  0.63284001709E+03 0.  0.
         13    1    3    3    0    0  0.19921479879E+03  0.10774572399E+03 -0.65630527405E+02  0.23580297543E+03  0.00000000000E+00 0.  1.
          1    1    3    3  501    0 -0.19897961442E+03 -0.10719355590E+03 -0.83422499651E+03  0.86430011581E+03  0.00000000000E+00 0.  1.
         21    1    1    2  502  501 -0.23518437226E+00 -0.55216809432E+00  0.43311575859E+01  0.43725424328E+01  0.00000000000E+00 0.  1.
<mgrwt>
<rscale>  1 0.63284030E+03</rscale>
<asrwt>0</asrwt>
<pdfrwt beam="1">  1        3 0.37991220E+00 0.63284030E+03</pdfrwt>
<pdfrwt beam="2">0</pdfrwt>
<totfact> 0.75775992E-02</totfact>
</mgrwt>
</event>
