<event>
 5    1  0.2381755E-004  0.6514688E+03  0.7818608E-02  0.9804027E-01
         13   -1    0    0    0    0  0.00000000000E+00  0.00000000000E+00  0.10000000000E+04  0.10000000000E+04  0.00000000000E+00 0. -1.
          2   -1    0    0  501    0 -0.00000000000E+00 -0.00000000000E+00 -0.10610289117E+03  0.10610289117E+03  0.00000000000E+00 0. -1.
    9000006    2    1    2  501    0  0.00000000000E+00  0.00000000000E+00  0.89389710883E+03  0.11061028912E+04  0.65146877489E+03 0.  0.
         13    1    3    3    0    0  0.22896462316E+02 -0.22664743913E+03  0.84226051096E+03  0.87252282376E+03  0.00000000000E+00 0. -1.
          4    1    3    3  501    0 -0.22896462316E+02  0.22664743913E+03  0.51636597872E+02  0.23358006741E+03  0.00000000000E+00 0. -1.
<mgrwt>
<rscale>  0 0.65146877E+03</rscale>
<asrwt>0</asrwt>
<pdfrwt beam="1">0</pdfrwt>
<pdfrwt beam="2">  1        2 0.38582951E+00 0.65146877E+03</pdfrwt>
<totfact> 0.44975955E+00</totfact>
</mgrwt>
</event>
<event>
 5    1  0.2381755E-004  0.6343368E+03  0.7818608E-02  0.9836622E-01
         13   -1    0    0    0    0  0.00000000000E+00  0.00000000000E+00  0.10000000000E+04  0.10000000000E+04  0.00000000000E+00 0. -1.
          2   -1    0    0  501    0 -0.00000000000E+00 -0.00000000000E+00 -0.10059578522E+03  0.10059578522E+03  0.00000000000E+00 0. -1.
    9000006    2    1    2  501    0  0.00000000000E+00  0.00000000000E+00  0.89940421478E+03  0.11005957852E+04  0.63433677246E+03 0.  0.
         13    1    3    3    0    0 -0.16302233480E+03  0.14485085939E+03  0.84927905954E+03  0.87683121185E+03  0.00000000000E+00 0. -1.
          4    1    3    3  501    0  0.16302233480E+03 -0.14485085939E+03  0.50125155238E+02  0.22376457337E+03  0.00000000000E+00 0. -1.
<mgrwt>
<rscale>  0 0.63433677E+03</rscale>
<asrwt>0</asrwt>
<pdfrwt beam="1">0</pdfrwt>
<pdfrwt beam="2">  1        2 0.36580363E+00 0.63433677E+03</pdfrwt>
<totfact> 0.53360224E+00</totfact>
</mgrwt>
</event>
<event>
 5    1  0.2381755E-004  0.6642210E+03  0.7818608E-02  0.9780454E-01
         13   -1    0    0    0    0  0.00000000000E+00  0.00000000000E+00  0.10000000000E+04  0.10000000000E+04  0.00000000000E+00 0. -1.
          2   -1    0    0  501    0 -0.00000000000E+00 -0.00000000000E+00 -0.11029740052E+03  0.11029740052E+03  0.00000000000E+00 0. -1.
    9000006    2    1    2  501    0  0.00000000000E+00  0.00000000000E+00  0.88970259948E+03  0.11102974005E+04  0.66422104912E+03 0.  0.
         13    1    3    3    0    0  0.14920826718E+03  0.29503313156E+03  0.49743949970E+03  0.59728863339E+03  0.00000000000E+00 0. -1.
          2    1    3    3  501    0 -0.14920826718E+03 -0.29503313156E+03  0.39226309977E+03  0.51300876713E+03  0.00000000000E+00 0. -1.
<mgrwt>
<rscale>  0 0.66422105E+03</rscale>
<asrwt>0</asrwt>
<pdfrwt beam="1">0</pdfrwt>
<pdfrwt beam="2">  1        2 0.40108230E+00 0.66422105E+03</pdfrwt>
<totfact> 0.39413339E+00</totfact>
</mgrwt>
</event>
<event>
 5    1  0.2381755E-004  0.6383545E+03  0.7818608E-02  0.9828880E-01
         13   -1    0    0    0    0  0.00000000000E+00  0.00000000000E+00  0.10000000000E+04  0.10000000000E+04  0.00000000000E+00 0. -1.
          2   -1    0    0  501    0 -0.00000000000E+00 -0.00000000000E+00 -0.10187411010E+03  0.10187411010E+03  0.00000000000E+00 0. -1.
    9000006    2    1    2  501    0  0.00000000000E+00  0.00000000000E+00  0.89812588990E+03  0.11018741101E+04  0.63835447863E+03 0.  0.
         13    1    3    3    0    0  0.24029878846E+03  0.40505649370E+02  0.93257248579E+02  0.26092360908E+03  0.00000000000E+00 0. -1.
          2    1    3    3  501    0 -0.24029878846E+03 -0.40505649370E+02  0.80486864133E+03  0.84095050101E+03  0.00000000000E+00 0. -1.
<mgrwt>
<rscale>  0 0.63835448E+03</rscale>
<asrwt>0</asrwt>
<pdfrwt beam="1">0</pdfrwt>
<pdfrwt beam="2">  1        2 0.37045209E+00 0.63835448E+03</pdfrwt>
<totfact> 0.51295789E+00</totfact>
</mgrwt>
</event>
<event>
 5    1  0.2381755E-004  0.7458221E+03  0.7818608E-02  0.9641928E-01
         13   -1    0    0    0    0  0.00000000000E+00  0.00000000000E+00  0.10000000000E+04  0.10000000000E+04  0.00000000000E+00 0. -1.
          2   -1    0    0  501    0 -0.00000000000E+00 -0.00000000000E+00 -0.13906263370E+03  0.13906263370E+03  0.00000000000E+00 0. -1.
    9000006    2    1    2  501    0  0.00000000000E+00  0.00000000000E+00  0.86093736630E+03  0.11390626337E+04  0.74582205303E+03 0.  0.
         13    1    3    3    0    0 -0.36591955716E+03 -0.71041137376E+02  0.41383151003E+03  0.55695644732E+03  0.00000000000E+00 0. -1.
          4    1    3    3  501    0  0.36591955716E+03  0.71041137376E+02  0.44710585627E+03  0.58210618638E+03  0.00000000000E+00 0. -1.
<mgrwt>
<rscale>  0 0.74582205E+03</rscale>
<asrwt>0</asrwt>
<pdfrwt beam="1">0</pdfrwt>
<pdfrwt beam="2">  1        2 0.50568337E+00 0.74582205E+03</pdfrwt>
<totfact> 0.15019349E+00</totfact>
</mgrwt>
</event>
<event>
 5    1  0.2381755E-004  0.6435307E+03  0.7818608E-02  0.9818995E-01
         13   -1    0    0    0    0  0.00000000000E+00  0.00000000000E+00  0.10000000000E+04  0.10000000000E+04  0.00000000000E+00 0. -1.
          2   -1    0    0  501    0 -0.00000000000E+00 -0.00000000000E+00 -0.10353294780E+03  0.10353294780E+03  0.00000000000E+00 0. -1.
    9000006    2    1    2  501    0  0.00000000000E+00  0.00000000000E+00  0.89646705220E+03  0.11035329478E+04  0.64353072282E+03 0.  0.
         13    1    3    3    0    0  0.10922239734E+03 -0.25648680137E+03  0.17269852017E+03  0.32793260013E+03  0.00000000000E+00 0. -1.
          2    1    3    3  501    0 -0.10922239734E+03  0.25648680137E+03  0.72376853203E+03  0.77560034768E+03  0.00000000000E+00 0. -1.
<mgrwt>
<rscale>  0 0.64353072E+03</rscale>
<asrwt>0</asrwt>
<pdfrwt beam="1">0</pdfrwt>
<pdfrwt beam="2">  1        2 0.37648424E+00 0.64353072E+03</pdfrwt>
<totfact> 0.48725953E+00</totfact>
</mgrwt>
</event>
<event>
 5    1  0.2381755E-004  0.6538880E+03  0.7818608E-02  0.9799511E-01
         13   -1    0    0    0    0  0.00000000000E+00  0.00000000000E+00  0.10000000000E+04  0.10000000000E+04  0.00000000000E+00 0. -1.
          2   -1    0    0  501    0 -0.00000000000E+00 -0.00000000000E+00 -0.10689237199E+03  0.10689237199E+03  0.00000000000E+00 0. -1.
    9000006    2    1    2  501    0  0.00000000000E+00  0.00000000000E+00  0.89310762801E+03  0.11068923720E+04  0.65388797814E+03 0.  0.
         13    1    3    3    0    0 -0.15253832000E+03 -0.23297139559E+03  0.73655310300E+03  0.78743512989E+03  0.00000000000E+00 0. -1.
          4    1    3    3  501    0  0.15253832000E+03  0.23297139559E+03  0.15655452501E+03  0.31945724210E+03  0.00000000000E+00 0. -1.
<mgrwt>
<rscale>  0 0.65388798E+03</rscale>
<asrwt>0</asrwt>
<pdfrwt beam="1">0</pdfrwt>
<pdfrwt beam="2">  1        2 0.38870035E+00 0.65388798E+03</pdfrwt>
<totfact> 0.43877735E+00</totfact>
</mgrwt>
</event>
<event>
 5    1  0.2381755E-004  0.5380038E+03  0.7818608E-02  0.1004309E+00
         13   -1    0    0    0    0  0.00000000000E+00  0.00000000000E+00  0.10000000000E+04  0.10000000000E+04  0.00000000000E+00 0. -1.
          2   -1    0    0  501    0 -0.00000000000E+00 -0.00000000000E+00 -0.72362022040E+02  0.72362022040E+02  0.00000000000E+00 0. -1.
    9000006    2    1    2  501    0  0.00000000000E+00  0.00000000000E+00  0.92763797796E+03  0.10723620220E+04  0.53800379939E+03 0.  0.
         13    1    3    3    0    0  0.18985739238E+03  0.15365547159E+03  0.23913934253E+03  0.34182372436E+03  0.00000000000E+00 0. -1.
          4    1    3    3  501    0 -0.18985739238E+03 -0.15365547159E+03  0.68849863543E+03  0.73053829768E+03  0.00000000000E+00 0. -1.
<mgrwt>
<rscale>  0 0.53800380E+03</rscale>
<asrwt>0</asrwt>
<pdfrwt beam="1">0</pdfrwt>
<pdfrwt beam="2">  1        2 0.26313518E+00 0.53800380E+03</pdfrwt>
<totfact> 0.12506053E+01</totfact>
</mgrwt>
</event>
<event>
 5    1  0.2381755E-004  0.6583323E+03  0.7818608E-02  0.9791269E-01
         13   -1    0    0    0    0  0.00000000000E+00  0.00000000000E+00  0.10000000000E+04  0.10000000000E+04  0.00000000000E+00 0. -1.
          2   -1    0    0  501    0 -0.00000000000E+00 -0.00000000000E+00 -0.10835033829E+03  0.10835033829E+03  0.00000000000E+00 0. -1.
    9000006    2    1    2  501    0  0.00000000000E+00  0.00000000000E+00  0.89164966171E+03  0.11083503383E+04  0.65833225133E+03 0.  0.
         13    1    3    3    0    0  0.32585921882E+03  0.28028105296E+02  0.38327079426E+03  0.50385147307E+03  0.00000000000E+00 0. -1.
          4    1    3    3  501    0 -0.32585921882E+03 -0.28028105296E+02  0.50837886745E+03  0.60449886522E+03  0.00000000000E+00 0. -1.
<mgrwt>
<rscale>  0 0.65833225E+03</rscale>
<asrwt>0</asrwt>
<pdfrwt beam="1">0</pdfrwt>
<pdfrwt beam="2">  1        2 0.39400206E+00 0.65833225E+03</pdfrwt>
<totfact> 0.41913131E+00</totfact>
</mgrwt>
</event>
<event>
 5    1  0.2381755E-004  0.6502003E+03  0.7818608E-02  0.9806403E-01
         13   -1    0    0    0    0  0.00000000000E+00  0.00000000000E+00  0.10000000000E+04  0.10000000000E+04  0.00000000000E+00 0. -1.
          2   -1    0    0  501    0 -0.00000000000E+00 -0.00000000000E+00 -0.10569009510E+03  0.10569009510E+03  0.00000000000E+00 0. -1.
    9000006    2    1    2  501    0  0.00000000000E+00  0.00000000000E+00  0.89430990490E+03  0.11056900951E+04  0.65020026177E+03 0.  0.
         13    1    3    3    0    0  0.49310309276E+02  0.28798133664E+03  0.68959545187E+03  0.74893700943E+03  0.00000000000E+00 0. -1.
          2    1    3    3  501    0 -0.49310309276E+02 -0.28798133664E+03  0.20471445303E+03  0.35675308567E+03  0.00000000000E+00 0. -1.
<mgrwt>
<rscale>  0 0.65020026E+03</rscale>
<asrwt>0</asrwt>
<pdfrwt beam="1">0</pdfrwt>
<pdfrwt beam="2">  1        2 0.38432843E+00 0.65020026E+03</pdfrwt>
<totfact> 0.45560041E+00</totfact>
</mgrwt>
</event>
<event>
 5    1  0.2381755E-004  0.6502190E+03  0.7818608E-02  0.9806368E-01
         13   -1    0    0    0    0  0.00000000000E+00  0.00000000000E+00  0.10000000000E+04  0.10000000000E+04  0.00000000000E+00 0. -1.
          2   -1    0    0  501    0 -0.00000000000E+00 -0.00000000000E+00 -0.10569618110E+03  0.10569618110E+03  0.00000000000E+00 0. -1.
    9000006    2    1    2  501    0  0.00000000000E+00  0.00000000000E+00  0.89430381890E+03  0.11056961811E+04  0.65021898189E+03 0.  0.
         13    1    3    3    0    0 -0.26855538471E+03  0.16538340798E+03  0.58129216687E+03  0.66134276254E+03  0.00000000000E+00 0. -1.
          2    1    3    3  501    0  0.26855538471E+03 -0.16538340798E+03  0.31301165202E+03  0.44435341857E+03  0.00000000000E+00 0. -1.
<mgrwt>
<rscale>  0 0.65021898E+03</rscale>
<asrwt>0</asrwt>
<pdfrwt beam="1">0</pdfrwt>
<pdfrwt beam="2">  1        2 0.38435056E+00 0.65021898E+03</pdfrwt>
<totfact> 0.45551380E+00</totfact>
</mgrwt>
</event>
<event>
 5    1  0.2381755E-004  0.6466548E+03  0.7818608E-02  0.9813077E-01
         13   -1    0    0    0    0  0.00000000000E+00  0.00000000000E+00  0.10000000000E+04  0.10000000000E+04  0.00000000000E+00 0. -1.
          4   -1    0    0  501    0 -0.00000000000E+00 -0.00000000000E+00 -0.10454059699E+03  0.10454059699E+03  0.00000000000E+00 0. -1.
    9000006    2    1    2  501    0  0.00000000000E+00  0.00000000000E+00  0.89545940301E+03  0.11045405970E+04  0.64665476722E+03 0.  0.
         13    1    3    3    0    0  0.22162963134E+03 -0.17889796784E+03  0.18635144640E+03  0.34036897326E+03  0.00000000000E+00 0. -1.
          4    1    3    3  501    0 -0.22162963134E+03  0.17889796784E+03  0.70910795661E+03  0.76417162373E+03  0.00000000000E+00 0. -1.
<mgrwt>
<rscale>  0 0.64665477E+03</rscale>
<asrwt>0</asrwt>
<pdfrwt beam="1">0</pdfrwt>
<pdfrwt beam="2">  1        4 0.38014843E+00 0.64665477E+03</pdfrwt>
<totfact> 0.43772989E-02</totfact>
</mgrwt>
</event>
<event>
 5    1  0.2381755E-004  0.6650209E+03  0.7818608E-02  0.9778995E-01
         13   -1    0    0    0    0  0.00000000000E+00  0.00000000000E+00  0.10000000000E+04  0.10000000000E+04  0.00000000000E+00 0. -1.
          2   -1    0    0  501    0 -0.00000000000E+00 -0.00000000000E+00 -0.11056318806E+03  0.11056318806E+03  0.00000000000E+00 0. -1.
    9000006    2    1    2  501    0  0.00000000000E+00  0.00000000000E+00  0.88943681194E+03  0.11105631881E+04  0.66502086603E+03 0.  0.
         13    1    3    3    0    0 -0.16746471562E+02  0.17064371534E+03  0.92047881020E+03  0.93631242752E+03  0.00000000000E+00 0. -1.
          2    1    3    3  501    0  0.16746471562E+02 -0.17064371534E+03 -0.31041998268E+02  0.17425076054E+03  0.00000000000E+00 0. -1.
<mgrwt>
<rscale>  0 0.66502087E+03</rscale>
<asrwt>0</asrwt>
<pdfrwt beam="1">0</pdfrwt>
<pdfrwt beam="2">  1        2 0.40204880E+00 0.66502087E+03</pdfrwt>
<totfact> 0.39082703E+00</totfact>
</mgrwt>
</event>
<event>
 5    1  0.2381755E-004  0.6616845E+03  0.7818608E-02  0.9785098E-01
         13   -1    0    0    0    0  0.00000000000E+00  0.00000000000E+00  0.10000000000E+04  0.10000000000E+04  0.00000000000E+00 0. -1.
          2   -1    0    0  501    0 -0.00000000000E+00 -0.00000000000E+00 -0.10945659693E+03  0.10945659693E+03  0.00000000000E+00 0. -1.
    9000006    2    1    2  501    0  0.00000000000E+00  0.00000000000E+00  0.89054340307E+03  0.11094565969E+04  0.66168450768E+03 0.  0.
         13    1    3    3    0    0 -0.25537272454E+03 -0.19135055379E+03  0.59169738595E+03  0.67226189794E+03  0.00000000000E+00 0. -1.
          4    1    3    3  501    0  0.25537272454E+03  0.19135055379E+03  0.29884601712E+03  0.43719469899E+03  0.00000000000E+00 0. -1.
<mgrwt>
<rscale>  0 0.66168451E+03</rscale>
<asrwt>0</asrwt>
<pdfrwt beam="1">0</pdfrwt>
<pdfrwt beam="2">  1        2 0.39802483E+00 0.66168451E+03</pdfrwt>
<totfact> 0.40475890E+00</totfact>
</mgrwt>
</event>
<event>
 5    1  0.2381755E-004  0.6499771E+03  0.7818608E-02  0.9806822E-01
         13   -1    0    0    0    0  0.00000000000E+00  0.00000000000E+00  0.10000000000E+04  0.10000000000E+04  0.00000000000E+00 0. -1.
          2   -1    0    0  501    0 -0.00000000000E+00 -0.00000000000E+00 -0.10561756098E+03  0.10561756098E+03  0.00000000000E+00 0. -1.
    9000006    2    1    2  501    0  0.00000000000E+00  0.00000000000E+00  0.89438243902E+03  0.11056175610E+04  0.64997711029E+03 0.  0.
         13    1    3    3    0    0 -0.29973033057E+03 -0.25658322433E+02  0.65635971196E+03  0.72201432953E+03  0.00000000000E+00 0. -1.
          4    1    3    3  501    0  0.29973033057E+03  0.25658322433E+02  0.23802272707E+03  0.38360323144E+03  0.00000000000E+00 0. -1.
<mgrwt>
<rscale>  0 0.64997711E+03</rscale>
<asrwt>0</asrwt>
<pdfrwt beam="1">0</pdfrwt>
<pdfrwt beam="2">  1        2 0.38406467E+00 0.64997711E+03</pdfrwt>
<totfact> 0.45663381E+00</totfact>
</mgrwt>
</event>
<event>
 5    1  0.2381755E-004  0.6512940E+03  0.7818608E-02  0.9804354E-01
         13   -1    0    0    0    0  0.00000000000E+00  0.00000000000E+00  0.10000000000E+04  0.10000000000E+04  0.00000000000E+00 0. -1.
          2   -1    0    0  501    0 -0.00000000000E+00 -0.00000000000E+00 -0.10604595870E+03  0.10604595870E+03  0.00000000000E+00 0. -1.
    9000006    2    1    2  501    0  0.00000000000E+00  0.00000000000E+00  0.89395404130E+03  0.11060459587E+04  0.65129396957E+03 0.  0.
         13    1    3    3    0    0 -0.32447111886E+03  0.21810663304E+02  0.41811979184E+03  0.52969932257E+03  0.00000000000E+00 0. -1.
          4    1    3    3  501    0  0.32447111886E+03 -0.21810663304E+02  0.47583424946E+03  0.57634663613E+03  0.00000000000E+00 0. -1.
<mgrwt>
<rscale>  0 0.65129397E+03</rscale>
<asrwt>0</asrwt>
<pdfrwt beam="1">0</pdfrwt>
<pdfrwt beam="2">  1        2 0.38562248E+00 0.65129397E+03</pdfrwt>
<totfact> 0.45056106E+00</totfact>
</mgrwt>
</event>
<event>
 5    1  0.2381755E-004  0.6444261E+03  0.7818608E-02  0.9817295E-01
         13   -1    0    0    0    0  0.00000000000E+00  0.00000000000E+00  0.10000000000E+04  0.10000000000E+04  0.00000000000E+00 0. -1.
          2   -1    0    0  501    0 -0.00000000000E+00 -0.00000000000E+00 -0.10382123427E+03  0.10382123427E+03  0.00000000000E+00 0. -1.
    9000006    2    1    2  501    0  0.00000000000E+00  0.00000000000E+00  0.89617876573E+03  0.11038212343E+04  0.64442605244E+03 0.  0.
         13    1    3    3    0    0  0.26890443214E+02 -0.29149102813E+03  0.67873115017E+03  0.73916580659E+03  0.00000000000E+00 0. -1.
          2    1    3    3  501    0 -0.26890443214E+02  0.29149102813E+03  0.21744761556E+03  0.36465542767E+03  0.00000000000E+00 0. -1.
<mgrwt>
<rscale>  0 0.64442605E+03</rscale>
<asrwt>0</asrwt>
<pdfrwt beam="1">0</pdfrwt>
<pdfrwt beam="2">  1        2 0.37753256E+00 0.64442605E+03</pdfrwt>
<totfact> 0.48291568E+00</totfact>
</mgrwt>
</event>
<event>
 5    1  0.2381755E-004  0.6072627E+03  0.7818608E-02  0.9890452E-01
         13   -1    0    0    0    0  0.00000000000E+00  0.00000000000E+00  0.10000000000E+04  0.10000000000E+04  0.00000000000E+00 0. -1.
          2   -1    0    0  501    0 -0.00000000000E+00 -0.00000000000E+00 -0.92192001582E+02  0.92192001582E+02  0.00000000000E+00 0. -1.
    9000006    2    1    2  501    0  0.00000000000E+00  0.00000000000E+00  0.90780799842E+03  0.10921920016E+04  0.60726271607E+03 0.  0.
         13    1    3    3    0    0 -0.57224188752E+02  0.46951242706E+02  0.98352404723E+03  0.98630551983E+03  0.00000000000E+00 0. -1.
          4    1    3    3  501    0  0.57224188752E+02 -0.46951242706E+02 -0.75716048812E+02  0.10588648175E+03  0.00000000000E+00 0. -1.
<mgrwt>
<rscale>  0 0.60726272E+03</rscale>
<asrwt>0</asrwt>
<pdfrwt beam="1">0</pdfrwt>
<pdfrwt beam="2">  1        2 0.33524435E+00 0.60726272E+03</pdfrwt>
<totfact> 0.68968356E+00</totfact>
</mgrwt>
</event>
<event>
 5    1  0.2381755E-004  0.6499812E+03  0.7818608E-02  0.9806815E-01
         13   -1    0    0    0    0  0.00000000000E+00  0.00000000000E+00  0.10000000000E+04  0.10000000000E+04  0.00000000000E+00 0. -1.
          2   -1    0    0  501    0 -0.00000000000E+00 -0.00000000000E+00 -0.10561887792E+03  0.10561887792E+03  0.00000000000E+00 0. -1.
    9000006    2    1    2  501    0  0.00000000000E+00  0.00000000000E+00  0.89438112208E+03  0.11056188779E+04  0.64998116257E+03 0.  0.
         13    1    3    3    0    0  0.29096243716E+03 -0.14450287512E+03  0.46227655132E+03  0.56501312432E+03  0.00000000000E+00 0. -1.
          4    1    3    3  501    0 -0.29096243716E+03  0.14450287512E+03  0.43210457076E+03  0.54060575360E+03  0.00000000000E+00 0. -1.
<mgrwt>
<rscale>  0 0.64998116E+03</rscale>
<asrwt>0</asrwt>
<pdfrwt beam="1">0</pdfrwt>
<pdfrwt beam="2">  1        2 0.38406946E+00 0.64998116E+03</pdfrwt>
<totfact> 0.45661503E+00</totfact>
</mgrwt>
</event>
<event>
 5    1  0.2381755E-004  0.6647629E+03  0.7818608E-02  0.9779465E-01
         13   -1    0    0    0    0  0.00000000000E+00  0.00000000000E+00  0.10000000000E+04  0.10000000000E+04  0.00000000000E+00 0. -1.
          2   -1    0    0  501    0 -0.00000000000E+00 -0.00000000000E+00 -0.11047742392E+03  0.11047742392E+03  0.00000000000E+00 0. -1.
    9000006    2    1    2  501    0  0.00000000000E+00  0.00000000000E+00  0.88952257608E+03  0.11104774239E+04  0.66476288680E+03 0.  0.
         13    1    3    3    0    0  0.20770158372E+02  0.32887948952E+03  0.51727475377E+03  0.61332396741E+03  0.00000000000E+00 0. -1.
          2    1    3    3  501    0 -0.20770158372E+02 -0.32887948952E+03  0.37224782231E+03  0.49715345651E+03  0.00000000000E+00 0. -1.
<mgrwt>
<rscale>  0 0.66476289E+03</rscale>
<asrwt>0</asrwt>
<pdfrwt beam="1">0</pdfrwt>
<pdfrwt beam="2">  1        2 0.40173693E+00 0.66476289E+03</pdfrwt>
<totfact> 0.39189119E+00</totfact>
</mgrwt>
</event>
<event>
 5    1  0.2381755E-004  0.6575044E+03  0.7818608E-02  0.9792799E-01
         13   -1    0    0    0    0  0.00000000000E+00  0.00000000000E+00  0.10000000000E+04  0.10000000000E+04  0.00000000000E+00 0. -1.
          2   -1    0    0  501    0 -0.00000000000E+00 -0.00000000000E+00 -0.10807801567E+03  0.10807801567E+03  0.00000000000E+00 0. -1.
    9000006    2    1    2  501    0  0.00000000000E+00  0.00000000000E+00  0.89192198433E+03  0.11080780157E+04  0.65750442029E+03 0.  0.
         13    1    3    3    0    0 -0.14072677702E+03  0.24195988440E+03  0.73654035346E+03  0.78793420011E+03  0.00000000000E+00 0. -1.
          4    1    3    3  501    0  0.14072677702E+03 -0.24195988440E+03  0.15538163086E+03  0.32014381556E+03  0.00000000000E+00 0. -1.
<mgrwt>
<rscale>  0 0.65750442E+03</rscale>
<asrwt>0</asrwt>
<pdfrwt beam="1">0</pdfrwt>
<pdfrwt beam="2">  1        2 0.39301179E+00 0.65750442E+03</pdfrwt>
<totfact> 0.42273936E+00</totfact>
</mgrwt>
</event>
<event>
 5    1  0.2381755E-004  0.6481873E+03  0.7818608E-02  0.9810187E-01
         13   -1    0    0    0    0  0.00000000000E+00  0.00000000000E+00  0.10000000000E+04  0.10000000000E+04  0.00000000000E+00 0. -1.
          2   -1    0    0  501    0 -0.00000000000E+00 -0.00000000000E+00 -0.10503667916E+03  0.10503667916E+03  0.00000000000E+00 0. -1.
    9000006    2    1    2  501    0  0.00000000000E+00  0.00000000000E+00  0.89496332084E+03  0.11050366792E+04  0.64818725429E+03 0.  0.
         13    1    3    3    0    0 -0.58514166593E+02 -0.21946032948E+03  0.84162101257E+03  0.87172970163E+03  0.00000000000E+00 0. -1.
          2    1    3    3  501    0  0.58514166593E+02  0.21946032948E+03  0.53342308273E+02  0.23330697752E+03  0.00000000000E+00 0. -1.
<mgrwt>
<rscale>  0 0.64818725E+03</rscale>
<asrwt>0</asrwt>
<pdfrwt beam="1">0</pdfrwt>
<pdfrwt beam="2">  1        2 0.38195237E+00 0.64818725E+03</pdfrwt>
<totfact> 0.46498673E+00</totfact>
</mgrwt>
</event>
<event>
 5    1  0.2381755E-004  0.5810639E+03  0.7818608E-02  0.9945490E-01
         13   -1    0    0    0    0  0.00000000000E+00  0.00000000000E+00  0.10000000000E+04  0.10000000000E+04  0.00000000000E+00 0. -1.
          2   -1    0    0  501    0 -0.00000000000E+00 -0.00000000000E+00 -0.84408821464E+02  0.84408821464E+02  0.00000000000E+00 0. -1.
    9000006    2    1    2  501    0  0.00000000000E+00  0.00000000000E+00  0.91559117854E+03  0.10844088215E+04  0.58106392579E+03 0.  0.
         13    1    3    3    0    0 -0.74144229611E+02 -0.25720525272E+03  0.66858166513E+03  0.72017591723E+03  0.00000000000E+00 0. -1.
          4    1    3    3  501    0  0.74144229611E+02  0.25720525272E+03  0.24700951341E+03  0.36423290423E+03  0.00000000000E+00 0. -1.
<mgrwt>
<rscale>  0 0.58106393E+03</rscale>
<asrwt>0</asrwt>
<pdfrwt beam="1">0</pdfrwt>
<pdfrwt beam="2">  1        2 0.30694182E+00 0.58106393E+03</pdfrwt>
<totfact> 0.87192554E+00</totfact>
</mgrwt>
</event>
<event>
 5    1  0.2381755E-004  0.6472381E+03  0.7818608E-02  0.9811976E-01
         13   -1    0    0    0    0  0.00000000000E+00  0.00000000000E+00  0.10000000000E+04  0.10000000000E+04  0.00000000000E+00 0. -1.
          2   -1    0    0  501    0 -0.00000000000E+00 -0.00000000000E+00 -0.10472927537E+03  0.10472927537E+03  0.00000000000E+00 0. -1.
    9000006    2    1    2  501    0  0.00000000000E+00  0.00000000000E+00  0.89527072463E+03  0.11047292754E+04  0.64723805626E+03 0.  0.
         13    1    3    3    0    0 -0.66946761239E+02  0.29575347037E+03  0.64057044960E+03  0.70871890406E+03  0.00000000000E+00 0. -1.
          2    1    3    3  501    0  0.66946761239E+02 -0.29575347037E+03  0.25470027504E+03  0.39601037131E+03  0.00000000000E+00 0. -1.
<mgrwt>
<rscale>  0 0.64723806E+03</rscale>
<asrwt>0</asrwt>
<pdfrwt beam="1">0</pdfrwt>
<pdfrwt beam="2">  1        2 0.38083453E+00 0.64723806E+03</pdfrwt>
<totfact> 0.46946306E+00</totfact>
</mgrwt>
</event>
<event>
 5    1  0.2381755E-004  0.6509838E+03  0.7818608E-02  0.9804935E-01
         13   -1    0    0    0    0  0.00000000000E+00  0.00000000000E+00  0.10000000000E+04  0.10000000000E+04  0.00000000000E+00 0. -1.
          2   -1    0    0  501    0 -0.00000000000E+00 -0.00000000000E+00 -0.10594496913E+03  0.10594496913E+03  0.00000000000E+00 0. -1.
    9000006    2    1    2  501    0  0.00000000000E+00  0.00000000000E+00  0.89405503087E+03  0.11059449691E+04  0.65098377592E+03 0.  0.
         13    1    3    3    0    0  0.12161347702E+03 -0.22770728426E+03  0.78383724065E+03  0.82525224321E+03  0.00000000000E+00 0. -1.
          4    1    3    3  501    0 -0.12161347702E+03  0.22770728426E+03  0.11021779022E+03  0.28069272591E+03  0.00000000000E+00 0. -1.
<mgrwt>
<rscale>  0 0.65098378E+03</rscale>
<asrwt>0</asrwt>
<pdfrwt beam="1">0</pdfrwt>
<pdfrwt beam="2">  1        2 0.38525525E+00 0.65098378E+03</pdfrwt>
<totfact> 0.45198600E+00</totfact>
</mgrwt>
</event>
<event>
 5    1  0.2381755E-004  0.6500448E+03  0.7818608E-02  0.9806695E-01
         13   -1    0    0    0    0  0.00000000000E+00  0.00000000000E+00  0.10000000000E+04  0.10000000000E+04  0.00000000000E+00 0. -1.
          2   -1    0    0  501    0 -0.00000000000E+00 -0.00000000000E+00 -0.10563957672E+03  0.10563957672E+03  0.00000000000E+00 0. -1.
    9000006    2    1    2  501    0  0.00000000000E+00  0.00000000000E+00  0.89436042328E+03  0.11056395767E+04  0.65004484991E+03 0.  0.
         13    1    3    3    0    0  0.10456484779E+03 -0.22779736633E+03  0.79911630746E+03  0.83750362408E+03  0.00000000000E+00 0. -1.
          4    1    3    3  501    0 -0.10456484779E+03  0.22779736633E+03  0.95244115813E+02  0.26813595264E+03  0.00000000000E+00 0. -1.
<mgrwt>
<rscale>  0 0.65004485E+03</rscale>
<asrwt>0</asrwt>
<pdfrwt beam="1">0</pdfrwt>
<pdfrwt beam="2">  1        2 0.38414473E+00 0.65004485E+03</pdfrwt>
<totfact> 0.45631992E+00</totfact>
</mgrwt>
</event>
<event>
 5    1  0.2381755E-004  0.6239305E+03  0.7818608E-02  0.9856965E-01
         13   -1    0    0    0    0  0.00000000000E+00  0.00000000000E+00  0.10000000000E+04  0.10000000000E+04  0.00000000000E+00 0. -1.
          2   -1    0    0  501    0 -0.00000000000E+00 -0.00000000000E+00 -0.97322302965E+02  0.97322302965E+02  0.00000000000E+00 0. -1.
    9000006    2    1    2  501    0  0.00000000000E+00  0.00000000000E+00  0.90267769704E+03  0.10973223030E+04  0.62393045434E+03 0.  0.
         13    1    3    3    0    0  0.25392900023E+03  0.11140235351E+03  0.70273128199E+03  0.75546123409E+03  0.00000000000E+00 0. -1.
          2    1    3    3  501    0 -0.25392900023E+03 -0.11140235351E+03  0.19994641505E+03  0.34186106888E+03  0.00000000000E+00 0. -1.
<mgrwt>
<rscale>  0 0.62393045E+03</rscale>
<asrwt>0</asrwt>
<pdfrwt beam="1">0</pdfrwt>
<pdfrwt beam="2">  1        2 0.35390003E+00 0.62393045E+03</pdfrwt>
<totfact> 0.59000905E+00</totfact>
</mgrwt>
</event>
<event>
 5    1  0.2381755E-004  0.6371022E+03  0.7818608E-02  0.9831287E-01
         13   -1    0    0    0    0  0.00000000000E+00  0.00000000000E+00  0.10000000000E+04  0.10000000000E+04  0.00000000000E+00 0. -1.
          2   -1    0    0  501    0 -0.00000000000E+00 -0.00000000000E+00 -0.10147479024E+03  0.10147479024E+03  0.00000000000E+00 0. -1.
    9000006    2    1    2  501    0  0.00000000000E+00  0.00000000000E+00  0.89852520976E+03  0.11014747902E+04  0.63710215896E+03 0.  0.
         13    1    3    3    0    0  0.76791922489E+01 -0.78278265505E+02 -0.84422830226E+02  0.11538488249E+03  0.00000000000E+00 0. -1.
          4    1    3    3  501    0 -0.76791922489E+01  0.78278265505E+02  0.98294803999E+03  0.98608990775E+03  0.00000000000E+00 0. -1.
<mgrwt>
<rscale>  0 0.63710216E+03</rscale>
<asrwt>0</asrwt>
<pdfrwt beam="1">0</pdfrwt>
<pdfrwt beam="2">  1        2 0.36900002E+00 0.63710216E+03</pdfrwt>
<totfact> 0.51932661E+00</totfact>
</mgrwt>
</event>
<event>
 5    1  0.2381755E-004  0.6482241E+03  0.7818608E-02  0.9810117E-01
         13   -1    0    0    0    0  0.00000000000E+00  0.00000000000E+00  0.10000000000E+04  0.10000000000E+04  0.00000000000E+00 0. -1.
          2   -1    0    0  501    0 -0.00000000000E+00 -0.00000000000E+00 -0.10504860712E+03  0.10504860712E+03  0.00000000000E+00 0. -1.
    9000006    2    1    2  501    0  0.00000000000E+00  0.00000000000E+00  0.89495139288E+03  0.11050486071E+04  0.64822405733E+03 0.  0.
         13    1    3    3    0    0  0.29264502638E+03 -0.10911055261E+03  0.59513331214E+03  0.67210853541E+03  0.00000000000E+00 0. -1.
          4    1    3    3  501    0 -0.29264502638E+03  0.10911055261E+03  0.29981808074E+03  0.43294007171E+03  0.00000000000E+00 0. -1.
<mgrwt>
<rscale>  0 0.64822406E+03</rscale>
<asrwt>0</asrwt>
<pdfrwt beam="1">0</pdfrwt>
<pdfrwt beam="2">  1        2 0.38199574E+00 0.64822406E+03</pdfrwt>
<totfact> 0.46481383E+00</totfact>
</mgrwt>
</event>
<event>
 5    1  0.2381755E-004  0.6223719E+03  0.7818608E-02  0.9860049E-01
         13   -1    0    0    0    0  0.00000000000E+00  0.00000000000E+00  0.10000000000E+04  0.10000000000E+04  0.00000000000E+00 0. -1.
          2   -1    0    0  501    0 -0.00000000000E+00 -0.00000000000E+00 -0.96836694031E+02  0.96836694031E+02  0.00000000000E+00 0. -1.
    9000006    2    1    2  501    0  0.00000000000E+00  0.00000000000E+00  0.90316330597E+03  0.10968366940E+04  0.62237189535E+03 0.  0.
         13    1    3    3    0    0  0.15027918264E+03  0.21332621224E+03  0.75037543591E+03  0.79445276788E+03  0.00000000000E+00 0. -1.
          4    1    3    3  501    0 -0.15027918264E+03 -0.21332621224E+03  0.15278787005E+03  0.30238392616E+03  0.00000000000E+00 0. -1.
<mgrwt>
<rscale>  0 0.62237190E+03</rscale>
<asrwt>0</asrwt>
<pdfrwt beam="1">0</pdfrwt>
<pdfrwt beam="2">  1        2 0.35213418E+00 0.62237190E+03</pdfrwt>
<totfact> 0.59883267E+00</totfact>
</mgrwt>
</event>
<event>
 5    1  0.2381755E-004  0.6591418E+03  0.7818608E-02  0.9789775E-01
         13   -1    0    0    0    0  0.00000000000E+00  0.00000000000E+00  0.10000000000E+04  0.10000000000E+04  0.00000000000E+00 0. -1.
          2   -1    0    0  501    0 -0.00000000000E+00 -0.00000000000E+00 -0.10861697911E+03  0.10861697911E+03  0.00000000000E+00 0. -1.
    9000006    2    1    2  501    0  0.00000000000E+00  0.00000000000E+00  0.89138302089E+03  0.11086169791E+04  0.65914180298E+03 0.  0.
         13    1    3    3    0    0 -0.68200811497E+02  0.32015344280E+03  0.38126314007E+03  0.50250488516E+03  0.00000000000E+00 0. -1.
          4    1    3    3  501    0  0.68200811497E+02 -0.32015344280E+03  0.51011988082E+03  0.60611209395E+03  0.00000000000E+00 0. -1.
<mgrwt>
<rscale>  0 0.65914180E+03</rscale>
<asrwt>0</asrwt>
<pdfrwt beam="1">0</pdfrwt>
<pdfrwt beam="2">  1        2 0.39497167E+00 0.65914180E+03</pdfrwt>
<totfact> 0.41562573E+00</totfact>
</mgrwt>
</event>
<event>
 5    1  0.2381755E-004  0.6547327E+03  0.7818608E-02  0.9797939E-01
         13   -1    0    0    0    0  0.00000000000E+00  0.00000000000E+00  0.10000000000E+04  0.10000000000E+04  0.00000000000E+00 0. -1.
          2   -1    0    0  501    0 -0.00000000000E+00 -0.00000000000E+00 -0.10716872374E+03  0.10716872374E+03  0.00000000000E+00 0. -1.
    9000006    2    1    2  501    0  0.00000000000E+00  0.00000000000E+00  0.89283127626E+03  0.11071687237E+04  0.65473268969E+03 0.  0.
         13    1    3    3    0    0  0.31228932628E+03  0.37337864927E+02  0.60001037848E+03  0.67744460567E+03  0.00000000000E+00 0. -1.
          2    1    3    3  501    0 -0.31228932628E+03 -0.37337864927E+02  0.29282089779E+03  0.42972411807E+03  0.00000000000E+00 0. -1.
<mgrwt>
<rscale>  0 0.65473269E+03</rscale>
<asrwt>0</asrwt>
<pdfrwt beam="1">0</pdfrwt>
<pdfrwt beam="2">  1        2 0.38970527E+00 0.65473269E+03</pdfrwt>
<totfact> 0.43499084E+00</totfact>
</mgrwt>
</event>
<event>
 5    1  0.2381755E-004  0.6584464E+03  0.7818608E-02  0.9791058E-01
         13   -1    0    0    0    0  0.00000000000E+00  0.00000000000E+00  0.10000000000E+04  0.10000000000E+04  0.00000000000E+00 0. -1.
          2   -1    0    0  501    0 -0.00000000000E+00 -0.00000000000E+00 -0.10838791710E+03  0.10838791710E+03  0.00000000000E+00 0. -1.
    9000006    2    1    2  501    0  0.00000000000E+00  0.00000000000E+00  0.89161208290E+03  0.11083879171E+04  0.65844640512E+03 0.  0.
         13    1    3    3    0    0  0.32209999335E+03 -0.97851132670E+01  0.33233653011E+03  0.46291654043E+03  0.00000000000E+00 0. -1.
          4    1    3    3  501    0 -0.32209999335E+03  0.97851132670E+01  0.55927555279E+03  0.64547137668E+03  0.00000000000E+00 0. -1.
<mgrwt>
<rscale>  0 0.65844641E+03</rscale>
<asrwt>0</asrwt>
<pdfrwt beam="1">0</pdfrwt>
<pdfrwt beam="2">  1        2 0.39413871E+00 0.65844641E+03</pdfrwt>
<totfact> 0.41863565E+00</totfact>
</mgrwt>
</event>
<event>
 5    1  0.2381755E-004  0.6439313E+03  0.7818608E-02  0.9818234E-01
         13   -1    0    0    0    0  0.00000000000E+00  0.00000000000E+00  0.10000000000E+04  0.10000000000E+04  0.00000000000E+00 0. -1.
          2   -1    0    0  501    0 -0.00000000000E+00 -0.00000000000E+00 -0.10366187501E+03  0.10366187501E+03  0.00000000000E+00 0. -1.
    9000006    2    1    2  501    0  0.00000000000E+00  0.00000000000E+00  0.89633812499E+03  0.11036618750E+04  0.64393128520E+03 0.  0.
         13    1    3    3    0    0  0.20351500470E+03  0.24268095892E+03  0.34897525417E+03  0.47127076399E+03  0.00000000000E+00 0. -1.
          2    1    3    3  501    0 -0.20351500470E+03 -0.24268095892E+03  0.54736287081E+03  0.63239111103E+03  0.00000000000E+00 0. -1.
<mgrwt>
<rscale>  0 0.64393129E+03</rscale>
<asrwt>0</asrwt>
<pdfrwt beam="1">0</pdfrwt>
<pdfrwt beam="2">  1        2 0.37695307E+00 0.64393129E+03</pdfrwt>
<totfact> 0.48531249E+00</totfact>
</mgrwt>
</event>
<event>
 5    1  0.2381755E-004  0.6554264E+03  0.7818608E-02  0.9796650E-01
         13   -1    0    0    0    0  0.00000000000E+00  0.00000000000E+00  0.10000000000E+04  0.10000000000E+04  0.00000000000E+00 0. -1.
          2   -1    0    0  501    0 -0.00000000000E+00 -0.00000000000E+00 -0.10739592888E+03  0.10739592888E+03  0.00000000000E+00 0. -1.
    9000006    2    1    2  501    0  0.00000000000E+00  0.00000000000E+00  0.89260407112E+03  0.11073959289E+04  0.65542636164E+03 0.  0.
         13    1    3    3    0    0 -0.26009676488E+03  0.16783551389E+03  0.26451032684E+03  0.40716679608E+03  0.00000000000E+00 0. -1.
          4    1    3    3  501    0  0.26009676488E+03 -0.16783551389E+03  0.62809374428E+03  0.70022913280E+03  0.00000000000E+00 0. -1.
<mgrwt>
<rscale>  0 0.65542636E+03</rscale>
<asrwt>0</asrwt>
<pdfrwt beam="1">0</pdfrwt>
<pdfrwt beam="2">  1        2 0.39053147E+00 0.65542636E+03</pdfrwt>
<totfact> 0.43189987E+00</totfact>
</mgrwt>
</event>
<event>
 5    1  0.2381755E-004  0.6014783E+03  0.7818608E-02  0.9902344E-01
         13   -1    0    0    0    0  0.00000000000E+00  0.00000000000E+00  0.10000000000E+04  0.10000000000E+04  0.00000000000E+00 0. -1.
          2   -1    0    0  501    0 -0.00000000000E+00 -0.00000000000E+00 -0.90444028409E+02  0.90444028409E+02  0.00000000000E+00 0. -1.
    9000006    2    1    2  501    0  0.00000000000E+00  0.00000000000E+00  0.90955597159E+03  0.10904440284E+04  0.60147827362E+03 0.  0.
         13    1    3    3    0    0  0.17218242995E+03 -0.23262464079E+03  0.30657065854E+03  0.42160002534E+03  0.00000000000E+00 0. -1.
          2    1    3    3  501    0 -0.17218242995E+03  0.23262464079E+03  0.60298531305E+03  0.66884400307E+03  0.00000000000E+00 0. -1.
<mgrwt>
<rscale>  0 0.60147827E+03</rscale>
<asrwt>0</asrwt>
<pdfrwt beam="1">0</pdfrwt>
<pdfrwt beam="2">  1        2 0.32888807E+00 0.60147827E+03</pdfrwt>
<totfact> 0.72711875E+00</totfact>
</mgrwt>
</event>
<event>
 5    1  0.2381755E-004  0.6411093E+03  0.7818608E-02  0.9823606E-01
         13   -1    0    0    0    0  0.00000000000E+00  0.00000000000E+00  0.10000000000E+04  0.10000000000E+04  0.00000000000E+00 0. -1.
          2   -1    0    0  501    0 -0.00000000000E+00 -0.00000000000E+00 -0.10275528002E+03  0.10275528002E+03  0.00000000000E+00 0. -1.
    9000006    2    1    2  501    0  0.00000000000E+00  0.00000000000E+00  0.89724471998E+03  0.11027552800E+04  0.64110928873E+03 0.  0.
         13    1    3    3    0    0  0.24681861370E+03  0.13167628735E+03  0.17940357164E+03  0.33233073020E+03  0.00000000000E+00 0. -1.
          4    1    3    3  501    0 -0.24681861370E+03 -0.13167628735E+03  0.71784114834E+03  0.77042454982E+03  0.00000000000E+00 0. -1.
<mgrwt>
<rscale>  0 0.64110929E+03</rscale>
<asrwt>0</asrwt>
<pdfrwt beam="1">0</pdfrwt>
<pdfrwt beam="2">  1        2 0.37365635E+00 0.64110929E+03</pdfrwt>
<totfact> 0.49915650E+00</totfact>
</mgrwt>
</event>
<event>
 5    1  0.2381755E-004  0.6505191E+03  0.7818608E-02  0.9805806E-01
         13   -1    0    0    0    0  0.00000000000E+00  0.00000000000E+00  0.10000000000E+04  0.10000000000E+04  0.00000000000E+00 0. -1.
          2   -1    0    0  501    0 -0.00000000000E+00 -0.00000000000E+00 -0.10579376684E+03  0.10579376684E+03  0.00000000000E+00 0. -1.
    9000006    2    1    2  501    0  0.00000000000E+00  0.00000000000E+00  0.89420623316E+03  0.11057937668E+04  0.65051907533E+03 0.  0.
         13    1    3    3    0    0  0.30870921845E+02  0.30898758755E+03  0.61162519420E+03  0.68593856960E+03  0.00000000000E+00 0. -1.
          2    1    3    3  501    0 -0.30870921845E+02 -0.30898758755E+03  0.28258103895E+03  0.41985519724E+03  0.00000000000E+00 0. -1.
<mgrwt>
<rscale>  0 0.65051908E+03</rscale>
<asrwt>0</asrwt>
<pdfrwt beam="1">0</pdfrwt>
<pdfrwt beam="2">  1        2 0.38470542E+00 0.65051908E+03</pdfrwt>
<totfact> 0.45412707E+00</totfact>
</mgrwt>
</event>
<event>
 5    1  0.2381755E-004  0.6477333E+03  0.7818608E-02  0.9811042E-01
         13   -1    0    0    0    0  0.00000000000E+00  0.00000000000E+00  0.10000000000E+04  0.10000000000E+04  0.00000000000E+00 0. -1.
          2   -1    0    0  501    0 -0.00000000000E+00 -0.00000000000E+00 -0.10488961308E+03  0.10488961308E+03  0.00000000000E+00 0. -1.
    9000006    2    1    2  501    0  0.00000000000E+00  0.00000000000E+00  0.89511038692E+03  0.11048896131E+04  0.64773331882E+03 0.  0.
         13    1    3    3    0    0 -0.21138132779E+03  0.43653248678E+02  0.35681398674E+02  0.21877119114E+03  0.00000000000E+00 0. -1.
          2    1    3    3  501    0  0.21138132779E+03 -0.43653248678E+02  0.85942898825E+03  0.88611842194E+03  0.00000000000E+00 0. -1.
<mgrwt>
<rscale>  0 0.64773332E+03</rscale>
<asrwt>0</asrwt>
<pdfrwt beam="1">0</pdfrwt>
<pdfrwt beam="2">  1        2 0.38141758E+00 0.64773332E+03</pdfrwt>
<totfact> 0.46712340E+00</totfact>
</mgrwt>
</event>
<event>
 5    1  0.2381755E-004  0.6629032E+03  0.7818608E-02  0.9782864E-01
         13   -1    0    0    0    0  0.00000000000E+00  0.00000000000E+00  0.10000000000E+04  0.10000000000E+04  0.00000000000E+00 0. -1.
          2   -1    0    0  501    0 -0.00000000000E+00 -0.00000000000E+00 -0.10986016444E+03  0.10986016444E+03  0.00000000000E+00 0. -1.
    9000006    2    1    2  501    0  0.00000000000E+00  0.00000000000E+00  0.89013983556E+03  0.11098601644E+04  0.66290320391E+03 0.  0.
         13    1    3    3    0    0 -0.65684447535E+00 -0.24801761069E+03  0.76938484986E+02  0.25967806439E+03  0.00000000000E+00 0. -1.
          2    1    3    3  501    0  0.65684447535E+00  0.24801761069E+03  0.81320135058E+03  0.85018210004E+03  0.00000000000E+00 0. -1.
<mgrwt>
<rscale>  0 0.66290320E+03</rscale>
<asrwt>0</asrwt>
<pdfrwt beam="1">0</pdfrwt>
<pdfrwt beam="2">  1        2 0.39949235E+00 0.66290320E+03</pdfrwt>
<totfact> 0.39962720E+00</totfact>
</mgrwt>
</event>
<event>
 5    1  0.2381755E-004  0.6644773E+03  0.7818608E-02  0.9779986E-01
         13   -1    0    0    0    0  0.00000000000E+00  0.00000000000E+00  0.10000000000E+04  0.10000000000E+04  0.00000000000E+00 0. -1.
          2   -1    0    0  501    0 -0.00000000000E+00 -0.00000000000E+00 -0.11038252527E+03  0.11038252527E+03  0.00000000000E+00 0. -1.
    9000006    2    1    2  501    0  0.00000000000E+00  0.00000000000E+00  0.88961747473E+03  0.11103825253E+04  0.66447731418E+03 0.  0.
         13    1    3    3    0    0 -0.15444549119E+02  0.33180501111E+03  0.45655687941E+03  0.56460365181E+03  0.00000000000E+00 0. -1.
          4    1    3    3  501    0  0.15444549119E+02 -0.33180501111E+03  0.43306059532E+03  0.54577887346E+03  0.00000000000E+00 0. -1.
<mgrwt>
<rscale>  0 0.66447731E+03</rscale>
<asrwt>0</asrwt>
<pdfrwt beam="1">0</pdfrwt>
<pdfrwt beam="2">  1        2 0.40139185E+00 0.66447731E+03</pdfrwt>
<totfact> 0.39307173E+00</totfact>
</mgrwt>
</event>
<event>
 5    1  0.2381755E-004  0.6711023E+03  0.7818608E-02  0.9767969E-01
         13   -1    0    0    0    0  0.00000000000E+00  0.00000000000E+00  0.10000000000E+04  0.10000000000E+04  0.00000000000E+00 0. -1.
          2   -1    0    0  501    0 -0.00000000000E+00 -0.00000000000E+00 -0.11259456027E+03  0.11259456027E+03  0.00000000000E+00 0. -1.
    9000006    2    1    2  501    0  0.00000000000E+00  0.00000000000E+00  0.88740543973E+03  0.11125945603E+04  0.67110225829E+03 0.  0.
         13    1    3    3    0    0  0.43858506181E+02  0.30306629299E+03  0.21625637190E+03  0.37488606922E+03  0.00000000000E+00 0. -1.
          4    1    3    3  501    0 -0.43858506181E+02 -0.30306629299E+03  0.67114906783E+03  0.73770849105E+03  0.00000000000E+00 0. -1.
<mgrwt>
<rscale>  0 0.67110226E+03</rscale>
<asrwt>0</asrwt>
<pdfrwt beam="1">0</pdfrwt>
<pdfrwt beam="2">  1        2 0.40943563E+00 0.67110226E+03</pdfrwt>
<totfact> 0.36636609E+00</totfact>
</mgrwt>
</event>
<event>
 5    1  0.2381755E-004  0.6580477E+03  0.7818608E-02  0.9791794E-01
         13   -1    0    0    0    0  0.00000000000E+00  0.00000000000E+00  0.10000000000E+04  0.10000000000E+04  0.00000000000E+00 0. -1.
          2   -1    0    0  501    0 -0.00000000000E+00 -0.00000000000E+00 -0.10825668358E+03  0.10825668358E+03  0.00000000000E+00 0. -1.
    9000006    2    1    2  501    0  0.00000000000E+00  0.00000000000E+00  0.89174331642E+03  0.11082566836E+04  0.65804766872E+03 0.  0.
         13    1    3    3    0    0 -0.10729585641E+03  0.30925319910E+03  0.50189978785E+03  0.59921059654E+03  0.00000000000E+00 0. -1.
          4    1    3    3  501    0  0.10729585641E+03 -0.30925319910E+03  0.38984352857E+03  0.50904608704E+03  0.00000000000E+00 0. -1.
<mgrwt>
<rscale>  0 0.65804767E+03</rscale>
<asrwt>0</asrwt>
<pdfrwt beam="1">0</pdfrwt>
<pdfrwt beam="2">  1        2 0.39366150E+00 0.65804767E+03</pdfrwt>
<totfact> 0.42036899E+00</totfact>
</mgrwt>
</event>
<event>
 5    1  0.2381755E-004  0.6186538E+03  0.7818608E-02  0.9867444E-01
         13   -1    0    0    0    0  0.00000000000E+00  0.00000000000E+00  0.10000000000E+04  0.10000000000E+04  0.00000000000E+00 0. -1.
          2   -1    0    0  501    0 -0.00000000000E+00 -0.00000000000E+00 -0.95683117642E+02  0.95683117642E+02  0.00000000000E+00 0. -1.
    9000006    2    1    2  501    0  0.00000000000E+00  0.00000000000E+00  0.90431688236E+03  0.10956831176E+04  0.61865375661E+03 0.  0.
         13    1    3    3    0    0 -0.38651591650E+02  0.91926948402E+02 -0.66433221576E+02  0.11982438111E+03  0.00000000000E+00 0. -1.
          4    1    3    3  501    0  0.38651591650E+02 -0.91926948402E+02  0.97075010393E+03  0.97585873653E+03  0.00000000000E+00 0. -1.
<mgrwt>
<rscale>  0 0.61865376E+03</rscale>
<asrwt>0</asrwt>
<pdfrwt beam="1">0</pdfrwt>
<pdfrwt beam="2">  1        2 0.34793934E+00 0.61865376E+03</pdfrwt>
<totfact> 0.62028797E+00</totfact>
</mgrwt>
</event>
<event>
 5    1  0.2381755E-004  0.6482039E+03  0.7818608E-02  0.9810155E-01
         13   -1    0    0    0    0  0.00000000000E+00  0.00000000000E+00  0.10000000000E+04  0.10000000000E+04  0.00000000000E+00 0. -1.
          2   -1    0    0  501    0 -0.00000000000E+00 -0.00000000000E+00 -0.10504208597E+03  0.10504208597E+03  0.00000000000E+00 0. -1.
    9000006    2    1    2  501    0  0.00000000000E+00  0.00000000000E+00  0.89495791403E+03  0.11050420860E+04  0.64820393694E+03 0.  0.
         13    1    3    3    0    0 -0.80162549626E+02  0.25890492853E+03  0.14450680577E+03  0.30714819436E+03  0.00000000000E+00 0. -1.
          2    1    3    3  501    0  0.80162549626E+02 -0.25890492853E+03  0.75045110826E+03  0.79789389161E+03  0.00000000000E+00 0. -1.
<mgrwt>
<rscale>  0 0.64820394E+03</rscale>
<asrwt>0</asrwt>
<pdfrwt beam="1">0</pdfrwt>
<pdfrwt beam="2">  1        2 0.38197203E+00 0.64820394E+03</pdfrwt>
<totfact> 0.46490835E+00</totfact>
</mgrwt>
</event>
<event>
 5    1  0.2381755E-004  0.5135121E+03  0.7818608E-02  0.1010311E+00
         13   -1    0    0    0    0  0.00000000000E+00  0.00000000000E+00  0.10000000000E+04  0.10000000000E+04  0.00000000000E+00 0. -1.
          2   -1    0    0  501    0 -0.00000000000E+00 -0.00000000000E+00 -0.65923679215E+02  0.65923679215E+02  0.00000000000E+00 0. -1.
    9000006    2    1    2  501    0  0.00000000000E+00  0.00000000000E+00  0.93407632079E+03  0.10659236792E+04  0.51351213896E+03 0.  0.
         13    1    3    3    0    0 -0.15012350496E+03 -0.11482237384E+03  0.82777988268E+03  0.84908231547E+03  0.00000000000E+00 0. -1.
          4    1    3    3  501    0  0.15012350496E+03  0.11482237384E+03  0.10629643811E+03  0.21684136374E+03  0.00000000000E+00 0. -1.
<mgrwt>
<rscale>  0 0.51351214E+03</rscale>
<asrwt>0</asrwt>
<pdfrwt beam="1">0</pdfrwt>
<pdfrwt beam="2">  1        2 0.23972298E+00 0.51351214E+03</pdfrwt>
<totfact> 0.15180879E+01</totfact>
</mgrwt>
</event>
<event>
 5    1  0.2381755E-004  0.6492176E+03  0.7818608E-02  0.9808248E-01
         13   -1    0    0    0    0  0.00000000000E+00  0.00000000000E+00  0.10000000000E+04  0.10000000000E+04  0.00000000000E+00 0. -1.
          2   -1    0    0  501    0 -0.00000000000E+00 -0.00000000000E+00 -0.10537086684E+03  0.10537086684E+03  0.00000000000E+00 0. -1.
    9000006    2    1    2  501    0  0.00000000000E+00  0.00000000000E+00  0.89462913316E+03  0.11053708668E+04  0.64921758091E+03 0.  0.
         13    1    3    3    0    0  0.14426496104E+03  0.14288994231E+03  0.87852121044E+03  0.90168144696E+03  0.00000000000E+00 0. -1.
          4    1    3    3  501    0 -0.14426496104E+03 -0.14288994231E+03  0.16107922722E+02  0.20368941988E+03  0.00000000000E+00 0. -1.
<mgrwt>
<rscale>  0 0.64921758E+03</rscale>
<asrwt>0</asrwt>
<pdfrwt beam="1">0</pdfrwt>
<pdfrwt beam="2">  1        2 0.38316760E+00 0.64921758E+03</pdfrwt>
<totfact> 0.46016441E+00</totfact>
</mgrwt>
</event>
<event>
 5    1  0.2381755E-004  0.6610858E+03  0.7818608E-02  0.9786197E-01
         13   -1    0    0    0    0  0.00000000000E+00  0.00000000000E+00  0.10000000000E+04  0.10000000000E+04  0.00000000000E+00 0. -1.
          2   -1    0    0  501    0 -0.00000000000E+00 -0.00000000000E+00 -0.10925860747E+03  0.10925860747E+03  0.00000000000E+00 0. -1.
    9000006    2    1    2  501    0  0.00000000000E+00  0.00000000000E+00  0.89074139253E+03  0.11092586075E+04  0.66108579617E+03 0.  0.
         13    1    3    3    0    0  0.94171901062E+02 -0.13517128685E+03  0.92620646220E+03  0.94074334139E+03  0.00000000000E+00 0. -1.
          2    1    3    3  501    0 -0.94171901062E+02  0.13517128685E+03 -0.35465069676E+02  0.16851526609E+03  0.00000000000E+00 0. -1.
<mgrwt>
<rscale>  0 0.66108580E+03</rscale>
<asrwt>0</asrwt>
<pdfrwt beam="1">0</pdfrwt>
<pdfrwt beam="2">  1        2 0.39730486E+00 0.66108580E+03</pdfrwt>
<totfact> 0.40729809E+00</totfact>
</mgrwt>
</event>
<event>
 5    1  0.2381755E-004  0.6465199E+03  0.7818608E-02  0.9813331E-01
         13   -1    0    0    0    0  0.00000000000E+00  0.00000000000E+00  0.10000000000E+04  0.10000000000E+04  0.00000000000E+00 0. -1.
          2   -1    0    0  501    0 -0.00000000000E+00 -0.00000000000E+00 -0.10449698713E+03  0.10449698713E+03  0.00000000000E+00 0. -1.
    9000006    2    1    2  501    0  0.00000000000E+00  0.00000000000E+00  0.89550301287E+03  0.11044969871E+04  0.64651987479E+03 0.  0.
         13    1    3    3    0    0  0.17289043589E+03 -0.99639941027E+02  0.88222187493E+03  0.90450796419E+03  0.00000000000E+00 0. -1.
          4    1    3    3  501    0 -0.17289043589E+03  0.99639941027E+02  0.13281137940E+02  0.19998902294E+03  0.00000000000E+00 0. -1.
<mgrwt>
<rscale>  0 0.64651987E+03</rscale>
<asrwt>0</asrwt>
<pdfrwt beam="1">0</pdfrwt>
<pdfrwt beam="2">  1        2 0.37998985E+00 0.64651987E+03</pdfrwt>
<totfact> 0.47287153E+00</totfact>
</mgrwt>
</event>
<event>
 5    1  0.2381755E-004  0.6718493E+03  0.7818608E-02  0.9766623E-01
         13   -1    0    0    0    0  0.00000000000E+00  0.00000000000E+00  0.10000000000E+04  0.10000000000E+04  0.00000000000E+00 0. -1.
          2   -1    0    0  501    0 -0.00000000000E+00 -0.00000000000E+00 -0.11284536752E+03  0.11284536752E+03  0.00000000000E+00 0. -1.
    9000006    2    1    2  501    0  0.00000000000E+00  0.00000000000E+00  0.88715463248E+03  0.11128453675E+04  0.67184929120E+03 0.  0.
         13    1    3    3    0    0 -0.19173101063E+03 -0.90583233448E+02  0.87512771696E+03  0.90045245494E+03  0.00000000000E+00 0. -1.
          2    1    3    3  501    0  0.19173101063E+03  0.90583233448E+02  0.12026915517E+02  0.21239291258E+03  0.00000000000E+00 0. -1.
<mgrwt>
<rscale>  0 0.67184929E+03</rscale>
<asrwt>0</asrwt>
<pdfrwt beam="1">0</pdfrwt>
<pdfrwt beam="2">  1        2 0.41034766E+00 0.67184929E+03</pdfrwt>
<totfact> 0.36344294E+00</totfact>
</mgrwt>
</event>
<event>
 5    1  0.2381755E-004  0.6471395E+03  0.7818608E-02  0.9812161E-01
         13   -1    0    0    0    0  0.00000000000E+00  0.00000000000E+00  0.10000000000E+04  0.10000000000E+04  0.00000000000E+00 0. -1.
          2   -1    0    0  501    0 -0.00000000000E+00 -0.00000000000E+00 -0.10469739918E+03  0.10469739918E+03  0.00000000000E+00 0. -1.
    9000006    2    1    2  501    0  0.00000000000E+00  0.00000000000E+00  0.89530260082E+03  0.11046973992E+04  0.64713954966E+03 0.  0.
         13    1    3    3    0    0 -0.89047804954E+02 -0.25373768784E+03  0.14045369084E+03  0.30338023184E+03  0.00000000000E+00 0. -1.
          4    1    3    3  501    0  0.89047804954E+02  0.25373768784E+03  0.75484890997E+03  0.80131716735E+03  0.00000000000E+00 0. -1.
<mgrwt>
<rscale>  0 0.64713955E+03</rscale>
<asrwt>0</asrwt>
<pdfrwt beam="1">0</pdfrwt>
<pdfrwt beam="2">  1        2 0.38071862E+00 0.64713955E+03</pdfrwt>
<totfact> 0.46992947E+00</totfact>
</mgrwt>
</event>
<event>
 5    1  0.2381755E-004  0.6100475E+03  0.7818608E-02  0.9884777E-01
         13   -1    0    0    0    0  0.00000000000E+00  0.00000000000E+00  0.10000000000E+04  0.10000000000E+04  0.00000000000E+00 0. -1.
          2   -1    0    0  501    0 -0.00000000000E+00 -0.00000000000E+00 -0.93039496307E+02  0.93039496307E+02  0.00000000000E+00 0. -1.
    9000006    2    1    2  501    0  0.00000000000E+00  0.00000000000E+00  0.90696050369E+03  0.10930394963E+04  0.61004752702E+03 0.  0.
         13    1    3    3    0    0 -0.12648314311E+03 -0.25530136088E+03  0.64862839935E+03  0.70844588418E+03  0.00000000000E+00 0. -1.
          2    1    3    3  501    0  0.12648314311E+03  0.25530136088E+03  0.25833210434E+03  0.38459361213E+03  0.00000000000E+00 0. -1.
<mgrwt>
<rscale>  0 0.61004753E+03</rscale>
<asrwt>0</asrwt>
<pdfrwt beam="1">0</pdfrwt>
<pdfrwt beam="2">  1        2 0.33832615E+00 0.61004753E+03</pdfrwt>
<totfact> 0.67219582E+00</totfact>
</mgrwt>
</event>
<event>
 5    1  0.2381755E-004  0.6570213E+03  0.7818608E-02  0.9793693E-01
         13   -1    0    0    0    0  0.00000000000E+00  0.00000000000E+00  0.10000000000E+04  0.10000000000E+04  0.00000000000E+00 0. -1.
          2   -1    0    0  501    0 -0.00000000000E+00 -0.00000000000E+00 -0.10791925189E+03  0.10791925189E+03  0.00000000000E+00 0. -1.
    9000006    2    1    2  501    0  0.00000000000E+00  0.00000000000E+00  0.89208074811E+03  0.11079192519E+04  0.65702131437E+03 0.  0.
         13    1    3    3    0    0  0.10827918834E+03 -0.26098537989E+03  0.16346207462E+03  0.32643161762E+03  0.00000000000E+00 0. -1.
          2    1    3    3  501    0 -0.10827918834E+03  0.26098537989E+03  0.72861867349E+03  0.78148763426E+03  0.00000000000E+00 0. -1.
<mgrwt>
<rscale>  0 0.65702131E+03</rscale>
<asrwt>0</asrwt>
<pdfrwt beam="1">0</pdfrwt>
<pdfrwt beam="2">  1        2 0.39243447E+00 0.65702131E+03</pdfrwt>
<totfact> 0.42485577E+00</totfact>
</mgrwt>
</event>
<event>
 5    1  0.2381755E-004  0.6445065E+03  0.7818608E-02  0.9817142E-01
         13   -1    0    0    0    0  0.00000000000E+00  0.00000000000E+00  0.10000000000E+04  0.10000000000E+04  0.00000000000E+00 0. -1.
          2   -1    0    0  501    0 -0.00000000000E+00 -0.00000000000E+00 -0.10384714434E+03  0.10384714434E+03  0.00000000000E+00 0. -1.
    9000006    2    1    2  501    0  0.00000000000E+00  0.00000000000E+00  0.89615285566E+03  0.11038471443E+04  0.64450646028E+03 0.  0.
         13    1    3    3    0    0 -0.10212017040E+02  0.31893248410E+03  0.52514665355E+03  0.61449265451E+03  0.00000000000E+00 0. -1.
          4    1    3    3  501    0  0.10212017040E+02 -0.31893248410E+03  0.37100620211E+03  0.48935448983E+03  0.00000000000E+00 0. -1.
<mgrwt>
<rscale>  0 0.64450646E+03</rscale>
<asrwt>0</asrwt>
<pdfrwt beam="1">0</pdfrwt>
<pdfrwt beam="2">  1        2 0.37762678E+00 0.64450646E+03</pdfrwt>
<totfact> 0.48252700E+00</totfact>
</mgrwt>
</event>
<event>
 5    1  0.2381755E-004  0.6567381E+03  0.7818608E-02  0.9794217E-01
         13   -1    0    0    0    0  0.00000000000E+00  0.00000000000E+00  0.10000000000E+04  0.10000000000E+04  0.00000000000E+00 0. -1.
          2   -1    0    0  501    0 -0.00000000000E+00 -0.00000000000E+00 -0.10782622817E+03  0.10782622817E+03  0.00000000000E+00 0. -1.
    9000006    2    1    2  501    0  0.00000000000E+00  0.00000000000E+00  0.89217377183E+03  0.11078262282E+04  0.65673808529E+03 0.  0.
         13    1    3    3    0    0  0.30753758869E+03  0.87299800770E+02  0.57260830043E+03  0.65580552712E+03  0.00000000000E+00 0. -1.
          2    1    3    3  501    0 -0.30753758869E+03 -0.87299800770E+02  0.31956547140E+03  0.45202070105E+03  0.00000000000E+00 0. -1.
<mgrwt>
<rscale>  0 0.65673809E+03</rscale>
<asrwt>0</asrwt>
<pdfrwt beam="1">0</pdfrwt>
<pdfrwt beam="2">  1        2 0.39209620E+00 0.65673809E+03</pdfrwt>
<totfact> 0.42610027E+00</totfact>
</mgrwt>
</event>
<event>
 5    1  0.2381755E-004  0.6677522E+03  0.7818608E-02  0.9774027E-01
         13   -1    0    0    0    0  0.00000000000E+00  0.00000000000E+00  0.10000000000E+04  0.10000000000E+04  0.00000000000E+00 0. -1.
          2   -1    0    0  501    0 -0.00000000000E+00 -0.00000000000E+00 -0.11147325138E+03  0.11147325138E+03  0.00000000000E+00 0. -1.
    9000006    2    1    2  501    0  0.00000000000E+00  0.00000000000E+00  0.88852674862E+03  0.11114732514E+04  0.66775220367E+03 0.  0.
         13    1    3    3    0    0 -0.97378595337E+02  0.31935021178E+03  0.44015142620E+03  0.55244947876E+03  0.00000000000E+00 0. -1.
          2    1    3    3  501    0  0.97378595337E+02 -0.31935021178E+03  0.44837532242E+03  0.55902377262E+03  0.00000000000E+00 0. -1.
<mgrwt>
<rscale>  0 0.66775220E+03</rscale>
<asrwt>0</asrwt>
<pdfrwt beam="1">0</pdfrwt>
<pdfrwt beam="2">  1        2 0.40535813E+00 0.66775220E+03</pdfrwt>
<totfact> 0.37969338E+00</totfact>
</mgrwt>
</event>
<event>
 5    1  0.2381755E-004  0.5841833E+03  0.7818608E-02  0.9938775E-01
         13   -1    0    0    0    0  0.00000000000E+00  0.00000000000E+00  0.10000000000E+04  0.10000000000E+04  0.00000000000E+00 0. -1.
          2   -1    0    0  501    0 -0.00000000000E+00 -0.00000000000E+00 -0.85317546455E+02  0.85317546455E+02  0.00000000000E+00 0. -1.
    9000006    2    1    2  501    0  0.00000000000E+00  0.00000000000E+00  0.91468245354E+03  0.10853175465E+04  0.58418334949E+03 0.  0.
         13    1    3    3    0    0 -0.20057219742E+03  0.19179385910E+03  0.28804897324E+03  0.39998287682E+03  0.00000000000E+00 0. -1.
          4    1    3    3  501    0  0.20057219742E+03 -0.19179385910E+03  0.62663348030E+03  0.68533466964E+03  0.00000000000E+00 0. -1.
<mgrwt>
<rscale>  0 0.58418335E+03</rscale>
<asrwt>0</asrwt>
<pdfrwt beam="1">0</pdfrwt>
<pdfrwt beam="2">  1        2 0.31024628E+00 0.58418335E+03</pdfrwt>
<totfact> 0.84846823E+00</totfact>
</mgrwt>
</event>
<event>
 5    1  0.2381755E-004  0.4609383E+03  0.7818608E-02  0.1024509E+00
         13   -1    0    0    0    0  0.00000000000E+00  0.00000000000E+00  0.10000000000E+04  0.10000000000E+04  0.00000000000E+00 0. -1.
          2   -1    0    0  501    0 -0.00000000000E+00 -0.00000000000E+00 -0.53116033110E+02  0.53116033110E+02  0.00000000000E+00 0. -1.
    9000006    2    1    2  501    0  0.00000000000E+00  0.00000000000E+00  0.94688396689E+03  0.10531160331E+04  0.46093831739E+03 0.  0.
         13    1    3    3    0    0 -0.35825381697E+02  0.40242467077E+01 -0.46634180224E+02  0.58944035325E+02  0.00000000000E+00 0. -1.
          2    1    3    3  501    0  0.35825381697E+02 -0.40242467077E+01  0.99351814711E+03  0.99417199778E+03  0.00000000000E+00 0. -1.
<mgrwt>
<rscale>  0 0.46093832E+03</rscale>
<asrwt>0</asrwt>
<pdfrwt beam="1">0</pdfrwt>
<pdfrwt beam="2">  1        2 0.19314962E+00 0.46093832E+03</pdfrwt>
<totfact> 0.22546945E+01</totfact>
</mgrwt>
</event>
<event>
 5    1  0.2381755E-004  0.6087441E+03  0.7818608E-02  0.9887429E-01
         13   -1    0    0    0    0  0.00000000000E+00  0.00000000000E+00  0.10000000000E+04  0.10000000000E+04  0.00000000000E+00 0. -1.
          2   -1    0    0  501    0 -0.00000000000E+00 -0.00000000000E+00 -0.92642348431E+02  0.92642348431E+02  0.00000000000E+00 0. -1.
    9000006    2    1    2  501    0  0.00000000000E+00  0.00000000000E+00  0.90735765157E+03  0.10926423484E+04  0.60874411186E+03 0.  0.
         13    1    3    3    0    0 -0.12066478170E+02  0.27877620937E+03  0.67189598605E+03  0.72753418537E+03  0.00000000000E+00 0. -1.
          4    1    3    3  501    0  0.12066478170E+02 -0.27877620937E+03  0.23546166552E+03  0.36510816307E+03  0.00000000000E+00 0. -1.
<mgrwt>
<rscale>  0 0.60874411E+03</rscale>
<asrwt>0</asrwt>
<pdfrwt beam="1">0</pdfrwt>
<pdfrwt beam="2">  1        2 0.33688198E+00 0.60874411E+03</pdfrwt>
<totfact> 0.68033813E+00</totfact>
</mgrwt>
</event>
<event>
 5    1  0.2381755E-004  0.6385421E+03  0.7818608E-02  0.9828520E-01
         13   -1    0    0    0    0  0.00000000000E+00  0.00000000000E+00  0.10000000000E+04  0.10000000000E+04  0.00000000000E+00 0. -1.
          2   -1    0    0  501    0 -0.00000000000E+00 -0.00000000000E+00 -0.10193400353E+03  0.10193400353E+03  0.00000000000E+00 0. -1.
    9000006    2    1    2  501    0  0.00000000000E+00  0.00000000000E+00  0.89806599647E+03  0.11019340035E+04  0.63854210051E+03 0.  0.
         13    1    3    3    0    0 -0.21284218471E+03 -0.66581176174E+02  0.84330667622E+03  0.87229639388E+03  0.00000000000E+00 0. -1.
          2    1    3    3  501    0  0.21284218471E+03  0.66581176174E+02  0.54759320251E+02  0.22963760965E+03  0.00000000000E+00 0. -1.
<mgrwt>
<rscale>  0 0.63854210E+03</rscale>
<asrwt>0</asrwt>
<pdfrwt beam="1">0</pdfrwt>
<pdfrwt beam="2">  1        2 0.37066989E+00 0.63854210E+03</pdfrwt>
<totfact> 0.51200885E+00</totfact>
</mgrwt>
</event>
<event>
 5    1  0.2381755E-004  0.6608859E+03  0.7818608E-02  0.9786564E-01
         13   -1    0    0    0    0  0.00000000000E+00  0.00000000000E+00  0.10000000000E+04  0.10000000000E+04  0.00000000000E+00 0. -1.
          2   -1    0    0  501    0 -0.00000000000E+00 -0.00000000000E+00 -0.10919252936E+03  0.10919252936E+03  0.00000000000E+00 0. -1.
    9000006    2    1    2  501    0  0.00000000000E+00  0.00000000000E+00  0.89080747064E+03  0.11091925294E+04  0.66088585809E+03 0.  0.
         13    1    3    3    0    0 -0.32340510150E+03  0.61818956761E+02  0.49227987001E+03  0.59224312027E+03  0.00000000000E+00 0. -1.
          2    1    3    3  501    0  0.32340510150E+03 -0.61818956761E+02  0.39852760063E+03  0.51694940909E+03  0.00000000000E+00 0. -1.
<mgrwt>
<rscale>  0 0.66088586E+03</rscale>
<asrwt>0</asrwt>
<pdfrwt beam="1">0</pdfrwt>
<pdfrwt beam="2">  1        2 0.39706458E+00 0.66088586E+03</pdfrwt>
<totfact> 0.40814872E+00</totfact>
</mgrwt>
</event>
<event>
 5    1  0.2381755E-004  0.6594757E+03  0.7818608E-02  0.9789159E-01
         13   -1    0    0    0    0  0.00000000000E+00  0.00000000000E+00  0.10000000000E+04  0.10000000000E+04  0.00000000000E+00 0. -1.
          2   -1    0    0  501    0 -0.00000000000E+00 -0.00000000000E+00 -0.10872704851E+03  0.10872704851E+03  0.00000000000E+00 0. -1.
    9000006    2    1    2  501    0  0.00000000000E+00  0.00000000000E+00  0.89127295149E+03  0.11087270485E+04  0.65947569632E+03 0.  0.
         13    1    3    3    0    0  0.15436979584E+03 -0.26955443155E+03  0.25965450944E+03  0.40485811059E+03  0.00000000000E+00 0. -1.
          4    1    3    3  501    0 -0.15436979584E+03  0.26955443155E+03  0.63161844205E+03  0.70386893792E+03  0.00000000000E+00 0. -1.
<mgrwt>
<rscale>  0 0.65947570E+03</rscale>
<asrwt>0</asrwt>
<pdfrwt beam="1">0</pdfrwt>
<pdfrwt beam="2">  1        2 0.39537192E+00 0.65947570E+03</pdfrwt>
<totfact> 0.41418634E+00</totfact>
</mgrwt>
</event>
<event>
 5    1  0.2381755E-004  0.6543016E+03  0.7818608E-02  0.9798741E-01
         13   -1    0    0    0    0  0.00000000000E+00  0.00000000000E+00  0.10000000000E+04  0.10000000000E+04  0.00000000000E+00 0. -1.
          2   -1    0    0  501    0 -0.00000000000E+00 -0.00000000000E+00 -0.10702764862E+03  0.10702764862E+03  0.00000000000E+00 0. -1.
    9000006    2    1    2  501    0  0.00000000000E+00  0.00000000000E+00  0.89297235138E+03  0.11070276486E+04  0.65430160820E+03 0.  0.
         13    1    3    3    0    0  0.40938378130E+02  0.22285345264E+03  0.84575135169E+03  0.87557693040E+03  0.00000000000E+00 0. -1.
          2    1    3    3  501    0 -0.40938378130E+02 -0.22285345264E+03  0.47220999685E+02  0.23145071823E+03  0.00000000000E+00 0. -1.
<mgrwt>
<rscale>  0 0.65430161E+03</rscale>
<asrwt>0</asrwt>
<pdfrwt beam="1">0</pdfrwt>
<pdfrwt beam="2">  1        2 0.38919227E+00 0.65430161E+03</pdfrwt>
<totfact> 0.43692011E+00</totfact>
</mgrwt>
</event>
<event>
 5    1  0.2381755E-004  0.5802834E+03  0.7818608E-02  0.9947178E-01
         13   -1    0    0    0    0  0.00000000000E+00  0.00000000000E+00  0.10000000000E+04  0.10000000000E+04  0.00000000000E+00 0. -1.
          2   -1    0    0  501    0 -0.00000000000E+00 -0.00000000000E+00 -0.84182196953E+02  0.84182196953E+02  0.00000000000E+00 0. -1.
    9000006    2    1    2  501    0  0.00000000000E+00  0.00000000000E+00  0.91581780305E+03  0.10841821970E+04  0.58028336855E+03 0.  0.
         13    1    3    3    0    0  0.66180268459E+02 -0.25283362286E+03  0.69333445174E+03  0.74095703705E+03  0.00000000000E+00 0. -1.
          2    1    3    3  501    0 -0.66180268459E+02  0.25283362286E+03  0.22248335131E+03  0.34322515990E+03  0.00000000000E+00 0. -1.
<mgrwt>
<rscale>  0 0.58028337E+03</rscale>
<asrwt>0</asrwt>
<pdfrwt beam="1">0</pdfrwt>
<pdfrwt beam="2">  1        2 0.30611773E+00 0.58028337E+03</pdfrwt>
<totfact> 0.87787280E+00</totfact>
</mgrwt>
</event>
<event>
 5    1  0.2381755E-004  0.6585047E+03  0.7818608E-02  0.9790950E-01
         13   -1    0    0    0    0  0.00000000000E+00  0.00000000000E+00  0.10000000000E+04  0.10000000000E+04  0.00000000000E+00 0. -1.
          2   -1    0    0  501    0 -0.00000000000E+00 -0.00000000000E+00 -0.10840711938E+03  0.10840711938E+03  0.00000000000E+00 0. -1.
    9000006    2    1    2  501    0  0.00000000000E+00  0.00000000000E+00  0.89159288062E+03  0.11084071194E+04  0.65850472854E+03 0.  0.
         13    1    3    3    0    0 -0.56006735021E+02 -0.31327130929E+03  0.30365216161E+03  0.43986395947E+03  0.00000000000E+00 0. -1.
          4    1    3    3  501    0  0.56006735021E+02  0.31327130929E+03  0.58794071901E+03  0.66854315991E+03  0.00000000000E+00 0. -1.
<mgrwt>
<rscale>  0 0.65850473E+03</rscale>
<asrwt>0</asrwt>
<pdfrwt beam="1">0</pdfrwt>
<pdfrwt beam="2">  1        2 0.39420854E+00 0.65850473E+03</pdfrwt>
<totfact> 0.41838257E+00</totfact>
</mgrwt>
</event>
<event>
 5    1  0.2381755E-004  0.6486790E+03  0.7818608E-02  0.9809261E-01
         13   -1    0    0    0    0  0.00000000000E+00  0.00000000000E+00  0.10000000000E+04  0.10000000000E+04  0.00000000000E+00 0. -1.
          2   -1    0    0  501    0 -0.00000000000E+00 -0.00000000000E+00 -0.10519610994E+03  0.10519610994E+03  0.00000000000E+00 0. -1.
    9000006    2    1    2  501    0  0.00000000000E+00  0.00000000000E+00  0.89480389006E+03  0.11051961099E+04  0.64867899593E+03 0.  0.
         13    1    3    3    0    0 -0.20767262300E+02  0.30503395271E+03  0.63184273932E+03  0.70192751671E+03  0.00000000000E+00 0. -1.
          4    1    3    3  501    0  0.20767262300E+02 -0.30503395271E+03  0.26296115074E+03  0.40326859323E+03  0.00000000000E+00 0. -1.
<mgrwt>
<rscale>  0 0.64867900E+03</rscale>
<asrwt>0</asrwt>
<pdfrwt beam="1">0</pdfrwt>
<pdfrwt beam="2">  1        2 0.38253212E+00 0.64867900E+03</pdfrwt>
<totfact> 0.46268045E+00</totfact>
</mgrwt>
</event>
<event>
 5    1  0.2381755E-004  0.6408908E+03  0.7818608E-02  0.9824024E-01
         13   -1    0    0    0    0  0.00000000000E+00  0.00000000000E+00  0.10000000000E+04  0.10000000000E+04  0.00000000000E+00 0. -1.
          2   -1    0    0  501    0 -0.00000000000E+00 -0.00000000000E+00 -0.10268524324E+03  0.10268524324E+03  0.00000000000E+00 0. -1.
    9000006    2    1    2  501    0  0.00000000000E+00  0.00000000000E+00  0.89731475676E+03  0.11026852432E+04  0.64089076522E+03 0.  0.
         13    1    3    3    0    0 -0.20048593603E+03 -0.35404826082E+02  0.87442728920E+03  0.89781467818E+03  0.00000000000E+00 0. -1.
          2    1    3    3  501    0  0.20048593603E+03  0.35404826082E+02  0.22887467563E+02  0.20487056506E+03  0.00000000000E+00 0. -1.
<mgrwt>
<rscale>  0 0.64089077E+03</rscale>
<asrwt>0</asrwt>
<pdfrwt beam="1">0</pdfrwt>
<pdfrwt beam="2">  1        2 0.37340167E+00 0.64089077E+03</pdfrwt>
<totfact> 0.50024089E+00</totfact>
</mgrwt>
</event>
<event>
 5    1  0.2381755E-004  0.6372401E+03  0.7818608E-02  0.9831021E-01
         13   -1    0    0    0    0  0.00000000000E+00  0.00000000000E+00  0.10000000000E+04  0.10000000000E+04  0.00000000000E+00 0. -1.
          2   -1    0    0  501    0 -0.00000000000E+00 -0.00000000000E+00 -0.10151873060E+03  0.10151873060E+03  0.00000000000E+00 0. -1.
    9000006    2    1    2  501    0  0.00000000000E+00  0.00000000000E+00  0.89848126940E+03  0.11015187306E+04  0.63724008224E+03 0.  0.
         13    1    3    3    0    0 -0.28947876140E+03 -0.52793828600E+02  0.23800319342E+03  0.37845826945E+03  0.00000000000E+00 0. -1.
          4    1    3    3  501    0  0.28947876140E+03  0.52793828600E+02  0.66047807597E+03  0.72306046115E+03  0.00000000000E+00 0. -1.
<mgrwt>
<rscale>  0 0.63724008E+03</rscale>
<asrwt>0</asrwt>
<pdfrwt beam="1">0</pdfrwt>
<pdfrwt beam="2">  1        2 0.36915980E+00 0.63724008E+03</pdfrwt>
<totfact> 0.51862227E+00</totfact>
</mgrwt>
</event>
<event>
 5    1  0.2381755E-004  0.6499753E+03  0.7818608E-02  0.9806826E-01
         13   -1    0    0    0    0  0.00000000000E+00  0.00000000000E+00  0.10000000000E+04  0.10000000000E+04  0.00000000000E+00 0. -1.
          2   -1    0    0  501    0 -0.00000000000E+00 -0.00000000000E+00 -0.10561697402E+03  0.10561697402E+03  0.00000000000E+00 0. -1.
    9000006    2    1    2  501    0  0.00000000000E+00  0.00000000000E+00  0.89438302598E+03  0.11056169740E+04  0.64997530422E+03 0.  0.
         13    1    3    3    0    0  0.13379488429E+03  0.25258220726E+03  0.18412142707E+03  0.33999932705E+03  0.00000000000E+00 0. -1.
          2    1    3    3  501    0 -0.13379488429E+03 -0.25258220726E+03  0.71026159890E+03  0.76561764698E+03  0.00000000000E+00 0. -1.
<mgrwt>
<rscale>  0 0.64997530E+03</rscale>
<asrwt>0</asrwt>
<pdfrwt beam="1">0</pdfrwt>
<pdfrwt beam="2">  1        2 0.38406253E+00 0.64997530E+03</pdfrwt>
<totfact> 0.45664218E+00</totfact>
</mgrwt>
</event>
<event>
 5    1  0.2381755E-004  0.6473244E+03  0.7818608E-02  0.9811813E-01
         13   -1    0    0    0    0  0.00000000000E+00  0.00000000000E+00  0.10000000000E+04  0.10000000000E+04  0.00000000000E+00 0. -1.
          2   -1    0    0  501    0 -0.00000000000E+00 -0.00000000000E+00 -0.10475722585E+03  0.10475722585E+03  0.00000000000E+00 0. -1.
    9000006    2    1    2  501    0  0.00000000000E+00  0.00000000000E+00  0.89524277415E+03  0.11047572258E+04  0.64732441896E+03 0.  0.
         13    1    3    3    0    0  0.17084609183E+03 -0.98472010759E+02  0.95996922970E+01  0.19742663976E+03  0.00000000000E+00 0. -1.
          4    1    3    3  501    0 -0.17084609183E+03  0.98472010759E+02  0.88564308186E+03  0.90733058608E+03  0.00000000000E+00 0. -1.
<mgrwt>
<rscale>  0 0.64732442E+03</rscale>
<asrwt>0</asrwt>
<pdfrwt beam="1">0</pdfrwt>
<pdfrwt beam="2">  1        2 0.38093617E+00 0.64732442E+03</pdfrwt>
<totfact> 0.46905444E+00</totfact>
</mgrwt>
</event>
<event>
 5    1  0.2381755E-004  0.6384011E+03  0.7818608E-02  0.9828791E-01
         13   -1    0    0    0    0  0.00000000000E+00  0.00000000000E+00  0.10000000000E+04  0.10000000000E+04  0.00000000000E+00 0. -1.
          2   -1    0    0  501    0 -0.00000000000E+00 -0.00000000000E+00 -0.10188897910E+03  0.10188897910E+03  0.00000000000E+00 0. -1.
    9000006    2    1    2  501    0  0.00000000000E+00  0.00000000000E+00  0.89811102090E+03  0.11018889791E+04  0.63840106234E+03 0.  0.
         13    1    3    3    0    0  0.98728622520E+02  0.10646566404E+03 -0.41590108731E+02  0.15103647132E+03  0.00000000000E+00 0. -1.
          2    1    3    3  501    0 -0.98728622520E+02 -0.10646566404E+03  0.93970112963E+03  0.95085250778E+03  0.00000000000E+00 0. -1.
<mgrwt>
<rscale>  0 0.63840106E+03</rscale>
<asrwt>0</asrwt>
<pdfrwt beam="1">0</pdfrwt>
<pdfrwt beam="2">  1        2 0.37050616E+00 0.63840106E+03</pdfrwt>
<totfact> 0.51272213E+00</totfact>
</mgrwt>
</event>
<event>
 5    1  0.2381755E-004  0.6485023E+03  0.7818608E-02  0.9809594E-01
         13   -1    0    0    0    0  0.00000000000E+00  0.00000000000E+00  0.10000000000E+04  0.10000000000E+04  0.00000000000E+00 0. -1.
          2   -1    0    0  501    0 -0.00000000000E+00 -0.00000000000E+00 -0.10513880058E+03  0.10513880058E+03  0.00000000000E+00 0. -1.
    9000006    2    1    2  501    0  0.00000000000E+00  0.00000000000E+00  0.89486119942E+03  0.11051388006E+04  0.64850227626E+03 0.  0.
         13    1    3    3    0    0  0.27692237570E+03 -0.16350586171E+03  0.51807808675E+03  0.60977460832E+03  0.00000000000E+00 0. -1.
          2    1    3    3  501    0 -0.27692237570E+03  0.16350586171E+03  0.37678311267E+03  0.49536419226E+03  0.00000000000E+00 0. -1.
<mgrwt>
<rscale>  0 0.64850228E+03</rscale>
<asrwt>0</asrwt>
<pdfrwt beam="1">0</pdfrwt>
<pdfrwt beam="2">  1        2 0.38232372E+00 0.64850228E+03</pdfrwt>
<totfact> 0.46350828E+00</totfact>
</mgrwt>
</event>
<event>
 5    1  0.2381755E-004  0.6178549E+03  0.7818608E-02  0.9869040E-01
         13   -1    0    0    0    0  0.00000000000E+00  0.00000000000E+00  0.10000000000E+04  0.10000000000E+04  0.00000000000E+00 0. -1.
          2   -1    0    0  501    0 -0.00000000000E+00 -0.00000000000E+00 -0.95436160944E+02  0.95436160944E+02  0.00000000000E+00 0. -1.
    9000006    2    1    2  501    0  0.00000000000E+00  0.00000000000E+00  0.90456383906E+03  0.10954361609E+04  0.61785487275E+03 0.  0.
         13    1    3    3    0    0  0.63207383411E+02  0.11669115631E+03 -0.42322306264E+02  0.13929528666E+03  0.00000000000E+00 0. -1.
          2    1    3    3  501    0 -0.63207383411E+02 -0.11669115631E+03  0.94688614532E+03  0.95614087428E+03  0.00000000000E+00 0. -1.
<mgrwt>
<rscale>  0 0.61785487E+03</rscale>
<asrwt>0</asrwt>
<pdfrwt beam="1">0</pdfrwt>
<pdfrwt beam="2">  1        2 0.34704132E+00 0.61785487E+03</pdfrwt>
<totfact> 0.62497324E+00</totfact>
</mgrwt>
</event>
<event>
 5    1  0.2381755E-004  0.6445278E+03  0.7818608E-02  0.9817102E-01
         13   -1    0    0    0    0  0.00000000000E+00  0.00000000000E+00  0.10000000000E+04  0.10000000000E+04  0.00000000000E+00 0. -1.
          2   -1    0    0  501    0 -0.00000000000E+00 -0.00000000000E+00 -0.10385403501E+03  0.10385403501E+03  0.00000000000E+00 0. -1.
    9000006    2    1    2  501    0  0.00000000000E+00  0.00000000000E+00  0.89614596499E+03  0.11038540350E+04  0.64452784270E+03 0.  0.
         13    1    3    3    0    0 -0.18840741617E+03  0.74322859090E+02  0.87737521759E+03  0.90044906257E+03  0.00000000000E+00 0. -1.
          4    1    3    3  501    0  0.18840741617E+03 -0.74322859090E+02  0.18770747406E+02  0.20340497243E+03  0.00000000000E+00 0. -1.
<mgrwt>
<rscale>  0 0.64452784E+03</rscale>
<asrwt>0</asrwt>
<pdfrwt beam="1">0</pdfrwt>
<pdfrwt beam="2">  1        2 0.37765183E+00 0.64452784E+03</pdfrwt>
<totfact> 0.48242368E+00</totfact>
</mgrwt>
</event>
<event>
 5    1  0.2381755E-004  0.4972623E+03  0.7818608E-02  0.1014496E+00
         13   -1    0    0    0    0  0.00000000000E+00  0.00000000000E+00  0.10000000000E+04  0.10000000000E+04  0.00000000000E+00 0. -1.
          2   -1    0    0  501    0 -0.00000000000E+00 -0.00000000000E+00 -0.61817443237E+02  0.61817443237E+02  0.00000000000E+00 0. -1.
    9000006    2    1    2  501    0  0.00000000000E+00  0.00000000000E+00  0.93818255676E+03  0.10618174432E+04  0.49726227783E+03 0.  0.
         13    1    3    3    0    0  0.89165708488E+02 -0.96830500135E+02  0.91949225201E+03  0.92886633637E+03  0.00000000000E+00 0. -1.
          4    1    3    3  501    0 -0.89165708488E+02  0.96830500135E+02  0.18690304752E+02  0.13295110687E+03  0.00000000000E+00 0. -1.
<mgrwt>
<rscale>  0 0.49726228E+03</rscale>
<asrwt>0</asrwt>
<pdfrwt beam="1">0</pdfrwt>
<pdfrwt beam="2">  1        2 0.22479118E+00 0.49726228E+03</pdfrwt>
<totfact> 0.17200231E+01</totfact>
</mgrwt>
</event>
<event>
 5    1  0.2381755E-004  0.6404364E+03  0.7818608E-02  0.9824892E-01
         13   -1    0    0    0    0  0.00000000000E+00  0.00000000000E+00  0.10000000000E+04  0.10000000000E+04  0.00000000000E+00 0. -1.
          2   -1    0    0  501    0 -0.00000000000E+00 -0.00000000000E+00 -0.10253970846E+03  0.10253970846E+03  0.00000000000E+00 0. -1.
    9000006    2    1    2  501    0  0.00000000000E+00  0.00000000000E+00  0.89746029154E+03  0.11025397085E+04  0.64043644013E+03 0.  0.
         13    1    3    3    0    0 -0.21423719033E+03 -0.23560614485E+03  0.39081151934E+03  0.50412446168E+03  0.00000000000E+00 0. -1.
          4    1    3    3  501    0  0.21423719033E+03  0.23560614485E+03  0.50664877220E+03  0.59841524679E+03  0.00000000000E+00 0. -1.
<mgrwt>
<rscale>  0 0.64043644E+03</rscale>
<asrwt>0</asrwt>
<pdfrwt beam="1">0</pdfrwt>
<pdfrwt beam="2">  1        2 0.37287245E+00 0.64043644E+03</pdfrwt>
<totfact> 0.50250114E+00</totfact>
</mgrwt>
</event>
<event>
 5    1  0.2381755E-004  0.6409233E+03  0.7818608E-02  0.9823962E-01
         13   -1    0    0    0    0  0.00000000000E+00  0.00000000000E+00  0.10000000000E+04  0.10000000000E+04  0.00000000000E+00 0. -1.
          2   -1    0    0  501    0 -0.00000000000E+00 -0.00000000000E+00 -0.10269567039E+03  0.10269567039E+03  0.00000000000E+00 0. -1.
    9000006    2    1    2  501    0  0.00000000000E+00  0.00000000000E+00  0.89730432961E+03  0.11026956704E+04  0.64092330395E+03 0.  0.
         13    1    3    3    0    0  0.10358287669E+03  0.26256228395E+03  0.70973069802E+03  0.76379711246E+03  0.00000000000E+00 0. -1.
          4    1    3    3  501    0 -0.10358287669E+03 -0.26256228395E+03  0.18757363160E+03  0.33889855793E+03  0.00000000000E+00 0. -1.
<mgrwt>
<rscale>  0 0.64092330E+03</rscale>
<asrwt>0</asrwt>
<pdfrwt beam="1">0</pdfrwt>
<pdfrwt beam="2">  1        2 0.37343959E+00 0.64092330E+03</pdfrwt>
<totfact> 0.50007931E+00</totfact>
</mgrwt>
</event>
<event>
 5    1  0.2381755E-004  0.6629323E+03  0.7818608E-02  0.9782811E-01
         13   -1    0    0    0    0  0.00000000000E+00  0.00000000000E+00  0.10000000000E+04  0.10000000000E+04  0.00000000000E+00 0. -1.
          2   -1    0    0  501    0 -0.00000000000E+00 -0.00000000000E+00 -0.10986981490E+03  0.10986981490E+03  0.00000000000E+00 0. -1.
    9000006    2    1    2  501    0  0.00000000000E+00  0.00000000000E+00  0.89013018510E+03  0.11098698149E+04  0.66293231903E+03 0.  0.
         13    1    3    3    0    0 -0.46900217453E+02 -0.23314453621E+03  0.58499935119E+02  0.24490456829E+03  0.00000000000E+00 0. -1.
          4    1    3    3  501    0  0.46900217453E+02  0.23314453621E+03  0.83163024998E+03  0.86496524661E+03  0.00000000000E+00 0. -1.
<mgrwt>
<rscale>  0 0.66293232E+03</rscale>
<asrwt>0</asrwt>
<pdfrwt beam="1">0</pdfrwt>
<pdfrwt beam="2">  1        2 0.39952744E+00 0.66293232E+03</pdfrwt>
<totfact> 0.39950520E+00</totfact>
</mgrwt>
</event>
<event>
 5    1  0.2381755E-004  0.6586391E+03  0.7818608E-02  0.9790702E-01
         13   -1    0    0    0    0  0.00000000000E+00  0.00000000000E+00  0.10000000000E+04  0.10000000000E+04  0.00000000000E+00 0. -1.
          2   -1    0    0  501    0 -0.00000000000E+00 -0.00000000000E+00 -0.10845137212E+03  0.10845137212E+03  0.00000000000E+00 0. -1.
    9000006    2    1    2  501    0  0.00000000000E+00  0.00000000000E+00  0.89154862788E+03  0.11084513721E+04  0.65863911854E+03 0.  0.
         13    1    3    3    0    0 -0.23234109154E+03 -0.23277484541E+03  0.41736993159E+03  0.53137949835E+03  0.00000000000E+00 0. -1.
          2    1    3    3  501    0  0.23234109154E+03  0.23277484541E+03  0.47417869629E+03  0.57707187377E+03  0.00000000000E+00 0. -1.
<mgrwt>
<rscale>  0 0.65863912E+03</rscale>
<asrwt>0</asrwt>
<pdfrwt beam="1">0</pdfrwt>
<pdfrwt beam="2">  1        2 0.39436946E+00 0.65863912E+03</pdfrwt>
<totfact> 0.41779987E+00</totfact>
</mgrwt>
</event>
<event>
 5    1  0.2381755E-004  0.6517006E+03  0.7818608E-02  0.9803593E-01
         13   -1    0    0    0    0  0.00000000000E+00  0.00000000000E+00  0.10000000000E+04  0.10000000000E+04  0.00000000000E+00 0. -1.
          2   -1    0    0  501    0 -0.00000000000E+00 -0.00000000000E+00 -0.10617842422E+03  0.10617842422E+03  0.00000000000E+00 0. -1.
    9000006    2    1    2  501    0  0.00000000000E+00  0.00000000000E+00  0.89382157578E+03  0.11061784242E+04  0.65170061907E+03 0.  0.
         13    1    3    3    0    0  0.20673286176E+03  0.58742668838E+02  0.31178500356E+02  0.21716647107E+03  0.00000000000E+00 0. -1.
          4    1    3    3  501    0 -0.20673286176E+03 -0.58742668838E+02  0.86264307542E+03  0.88901195315E+03  0.00000000000E+00 0. -1.
<mgrwt>
<rscale>  0 0.65170062E+03</rscale>
<asrwt>0</asrwt>
<pdfrwt beam="1">0</pdfrwt>
<pdfrwt beam="2">  1        2 0.38610417E+00 0.65170062E+03</pdfrwt>
<totfact> 0.44869817E+00</totfact>
</mgrwt>
</event>
<event>
 5    1  0.2381755E-004  0.6753216E+03  0.7818608E-02  0.9760392E-01
         13   -1    0    0    0    0  0.00000000000E+00  0.00000000000E+00  0.10000000000E+04  0.10000000000E+04  0.00000000000E+00 0. -1.
          2   -1    0    0  501    0 -0.00000000000E+00 -0.00000000000E+00 -0.11401481295E+03  0.11401481295E+03  0.00000000000E+00 0. -1.
    9000006    2    1    2  501    0  0.00000000000E+00  0.00000000000E+00  0.88598518705E+03  0.11140148129E+04  0.67532159139E+03 0.  0.
         13    1    3    3    0    0 -0.12636989929E+03 -0.19988984079E+03  0.84057686785E+03  0.87320946552E+03  0.00000000000E+00 0. -1.
          4    1    3    3  501    0  0.12636989929E+03  0.19988984079E+03  0.45408319199E+02  0.24080534743E+03  0.00000000000E+00 0. -1.
<mgrwt>
<rscale>  0 0.67532159E+03</rscale>
<asrwt>0</asrwt>
<pdfrwt beam="1">0</pdfrwt>
<pdfrwt beam="2">  1        2 0.41460019E+00 0.67532159E+03</pdfrwt>
<totfact> 0.35008643E+00</totfact>
</mgrwt>
</event>
<event>
 5    1  0.2381755E-004  0.6552016E+03  0.7818608E-02  0.9797067E-01
         13   -1    0    0    0    0  0.00000000000E+00  0.00000000000E+00  0.10000000000E+04  0.10000000000E+04  0.00000000000E+00 0. -1.
          2   -1    0    0  501    0 -0.00000000000E+00 -0.00000000000E+00 -0.10732229685E+03  0.10732229685E+03  0.00000000000E+00 0. -1.
    9000006    2    1    2  501    0  0.00000000000E+00  0.00000000000E+00  0.89267770315E+03  0.11073222968E+04  0.65520163873E+03 0.  0.
         13    1    3    3    0    0  0.25964167430E+03  0.45062460581E+02  0.11741765720E+03  0.28849840660E+03  0.00000000000E+00 0. -1.
          2    1    3    3  501    0 -0.25964167430E+03 -0.45062460581E+02  0.77526004595E+03  0.81882389025E+03  0.00000000000E+00 0. -1.
<mgrwt>
<rscale>  0 0.65520164E+03</rscale>
<asrwt>0</asrwt>
<pdfrwt beam="1">0</pdfrwt>
<pdfrwt beam="2">  1        2 0.39026372E+00 0.65520164E+03</pdfrwt>
<totfact> 0.43289940E+00</totfact>
</mgrwt>
</event>
<event>
 5    1  0.2381755E-004  0.6614610E+03  0.7818608E-02  0.9785508E-01
         13   -1    0    0    0    0  0.00000000000E+00  0.00000000000E+00  0.10000000000E+04  0.10000000000E+04  0.00000000000E+00 0. -1.
          2   -1    0    0  501    0 -0.00000000000E+00 -0.00000000000E+00 -0.10938267233E+03  0.10938267233E+03  0.00000000000E+00 0. -1.
    9000006    2    1    2  501    0  0.00000000000E+00  0.00000000000E+00  0.89061732767E+03  0.11093826723E+04  0.66146102629E+03 0.  0.
         13    1    3    3    0    0 -0.27084939758E+03 -0.18163654482E+03  0.53765118575E+03  0.62882432215E+03  0.00000000000E+00 0. -1.
          4    1    3    3  501    0  0.27084939758E+03  0.18163654482E+03  0.35296614192E+03  0.48055835018E+03  0.00000000000E+00 0. -1.
<mgrwt>
<rscale>  0 0.66146103E+03</rscale>
<asrwt>0</asrwt>
<pdfrwt beam="1">0</pdfrwt>
<pdfrwt beam="2">  1        2 0.39775601E+00 0.66146103E+03</pdfrwt>
<totfact> 0.40570530E+00</totfact>
</mgrwt>
</event>
<event>
 5    1  0.2381755E-004  0.5161651E+03  0.7818608E-02  0.1009644E+00
         13   -1    0    0    0    0  0.00000000000E+00  0.00000000000E+00  0.10000000000E+04  0.10000000000E+04  0.00000000000E+00 0. -1.
          2   -1    0    0  501    0 -0.00000000000E+00 -0.00000000000E+00 -0.66606604696E+02  0.66606604696E+02  0.00000000000E+00 0. -1.
    9000006    2    1    2  501    0  0.00000000000E+00  0.00000000000E+00  0.93339339530E+03  0.10666066047E+04  0.51616510806E+03 0.  0.
         13    1    3    3    0    0 -0.16587510125E+02  0.67366362453E+02 -0.46975525585E+02  0.83785871639E+02  0.00000000000E+00 0. -1.
          2    1    3    3  501    0  0.16587510125E+02 -0.67366362453E+02  0.98036892089E+03  0.98282073306E+03  0.00000000000E+00 0. -1.
<mgrwt>
<rscale>  0 0.51616511E+03</rscale>
<asrwt>0</asrwt>
<pdfrwt beam="1">0</pdfrwt>
<pdfrwt beam="2">  1        2 0.24220635E+00 0.51616511E+03</pdfrwt>
<totfact> 0.14870536E+01</totfact>
</mgrwt>
</event>
<event>
 5    1  0.2381755E-004  0.6499604E+03  0.7818608E-02  0.9806854E-01
         13   -1    0    0    0    0  0.00000000000E+00  0.00000000000E+00  0.10000000000E+04  0.10000000000E+04  0.00000000000E+00 0. -1.
          2   -1    0    0  501    0 -0.00000000000E+00 -0.00000000000E+00 -0.10561212312E+03  0.10561212312E+03  0.00000000000E+00 0. -1.
    9000006    2    1    2  501    0  0.00000000000E+00  0.00000000000E+00  0.89438787688E+03  0.11056121231E+04  0.64996037761E+03 0.  0.
         13    1    3    3    0    0  0.43498838012E+02  0.29797509868E+03  0.65504759245E+03  0.72094982954E+03  0.00000000000E+00 0. -1.
          4    1    3    3  501    0 -0.43498838012E+02 -0.29797509868E+03  0.23934028443E+03  0.38466229357E+03  0.00000000000E+00 0. -1.
<mgrwt>
<rscale>  0 0.64996038E+03</rscale>
<asrwt>0</asrwt>
<pdfrwt beam="1">0</pdfrwt>
<pdfrwt beam="2">  1        2 0.38404489E+00 0.64996038E+03</pdfrwt>
<totfact> 0.45671137E+00</totfact>
</mgrwt>
</event>
<event>
 5    1  0.2381755E-004  0.5623529E+03  0.7818608E-02  0.9986745E-01
         13   -1    0    0    0    0  0.00000000000E+00  0.00000000000E+00  0.10000000000E+04  0.10000000000E+04  0.00000000000E+00 0. -1.
          2   -1    0    0  501    0 -0.00000000000E+00 -0.00000000000E+00 -0.79060190350E+02  0.79060190350E+02  0.00000000000E+00 0. -1.
    9000006    2    1    2  501    0  0.00000000000E+00  0.00000000000E+00  0.92093980965E+03  0.10790601903E+04  0.56235287978E+03 0.  0.
         13    1    3    3    0    0 -0.12776011237E+03 -0.17639393351E+03  0.80169140462E+03  0.83075060899E+03  0.00000000000E+00 0. -1.
          4    1    3    3  501    0  0.12776011237E+03  0.17639393351E+03  0.11924840503E+03  0.24830958136E+03  0.00000000000E+00 0. -1.
<mgrwt>
<rscale>  0 0.56235288E+03</rscale>
<asrwt>0</asrwt>
<pdfrwt beam="1">0</pdfrwt>
<pdfrwt beam="2">  1        2 0.28749221E+00 0.56235288E+03</pdfrwt>
<totfact> 0.10234022E+01</totfact>
</mgrwt>
</event>
<event>
 5    1  0.2381755E-004  0.6469541E+03  0.7818608E-02  0.9812511E-01
         13   -1    0    0    0    0  0.00000000000E+00  0.00000000000E+00  0.10000000000E+04  0.10000000000E+04  0.00000000000E+00 0. -1.
          2   -1    0    0  501    0 -0.00000000000E+00 -0.00000000000E+00 -0.10463739715E+03  0.10463739715E+03  0.00000000000E+00 0. -1.
    9000006    2    1    2  501    0  0.00000000000E+00  0.00000000000E+00  0.89536260285E+03  0.11046373971E+04  0.64695408538E+03 0.  0.
         13    1    3    3    0    0  0.26458796124E+03 -0.18443486339E+03  0.49000348108E+03  0.58662289381E+03  0.00000000000E+00 0. -1.
          4    1    3    3  501    0 -0.26458796124E+03  0.18443486339E+03  0.40535912177E+03  0.51801450334E+03  0.00000000000E+00 0. -1.
<mgrwt>
<rscale>  0 0.64695409E+03</rscale>
<asrwt>0</asrwt>
<pdfrwt beam="1">0</pdfrwt>
<pdfrwt beam="2">  1        2 0.38050043E+00 0.64695409E+03</pdfrwt>
<totfact> 0.47080855E+00</totfact>
</mgrwt>
</event>
<event>
 5    1  0.2381755E-004  0.6520302E+03  0.7818608E-02  0.9802977E-01
         13   -1    0    0    0    0  0.00000000000E+00  0.00000000000E+00  0.10000000000E+04  0.10000000000E+04  0.00000000000E+00 0. -1.
          2   -1    0    0  501    0 -0.00000000000E+00 -0.00000000000E+00 -0.10628585592E+03  0.10628585592E+03  0.00000000000E+00 0. -1.
    9000006    2    1    2  501    0  0.00000000000E+00  0.00000000000E+00  0.89371414408E+03  0.11062858559E+04  0.65203023218E+03 0.  0.
         13    1    3    3    0    0  0.32369532883E+03 -0.35386068693E+02  0.41976242655E+03  0.53125449128E+03  0.00000000000E+00 0. -1.
          4    1    3    3  501    0 -0.32369532883E+03  0.35386068693E+02  0.47395171753E+03  0.57503136463E+03  0.00000000000E+00 0. -1.
<mgrwt>
<rscale>  0 0.65203023E+03</rscale>
<asrwt>0</asrwt>
<pdfrwt beam="1">0</pdfrwt>
<pdfrwt beam="2">  1        2 0.38649484E+00 0.65203023E+03</pdfrwt>
<totfact> 0.44719247E+00</totfact>
</mgrwt>
</event>
<event>
 5    1  0.2381755E-004  0.6532153E+03  0.7818608E-02  0.9800765E-01
         13   -1    0    0    0    0  0.00000000000E+00  0.00000000000E+00  0.10000000000E+04  0.10000000000E+04  0.00000000000E+00 0. -1.
          2   -1    0    0  501    0 -0.00000000000E+00 -0.00000000000E+00 -0.10667255183E+03  0.10667255183E+03  0.00000000000E+00 0. -1.
    9000006    2    1    2  501    0  0.00000000000E+00  0.00000000000E+00  0.89332744817E+03  0.11066725518E+04  0.65321528405E+03 0.  0.
         13    1    3    3    0    0 -0.15209257237E+02  0.33836764060E+02 -0.10309149842E+03  0.10956324727E+03  0.00000000000E+00 0. -1.
          4    1    3    3  501    0  0.15209257237E+02 -0.33836764060E+02  0.99641894659E+03  0.99710930455E+03  0.00000000000E+00 0. -1.
<mgrwt>
<rscale>  0 0.65321528E+03</rscale>
<asrwt>0</asrwt>
<pdfrwt beam="1">0</pdfrwt>
<pdfrwt beam="2">  1        2 0.38790101E+00 0.65321528E+03</pdfrwt>
<totfact> 0.44181055E+00</totfact>
</mgrwt>
</event>
<event>
 5    1  0.2381755E-004  0.6652453E+03  0.7818608E-02  0.9778586E-01
         13   -1    0    0    0    0  0.00000000000E+00  0.00000000000E+00  0.10000000000E+04  0.10000000000E+04  0.00000000000E+00 0. -1.
          2   -1    0    0  501    0 -0.00000000000E+00 -0.00000000000E+00 -0.11063784243E+03  0.11063784243E+03  0.00000000000E+00 0. -1.
    9000006    2    1    2  501    0  0.00000000000E+00  0.00000000000E+00  0.88936215757E+03  0.11106378424E+04  0.66524534552E+03 0.  0.
         13    1    3    3    0    0 -0.31637068567E+03  0.38013369156E+02  0.28539825398E+03  0.42777048795E+03  0.00000000000E+00 0. -1.
          2    1    3    3  501    0  0.31637068567E+03 -0.38013369156E+02  0.60396390359E+03  0.68286735449E+03  0.00000000000E+00 0. -1.
<mgrwt>
<rscale>  0 0.66524535E+03</rscale>
<asrwt>0</asrwt>
<pdfrwt beam="1">0</pdfrwt>
<pdfrwt beam="2">  1        2 0.40232028E+00 0.66524535E+03</pdfrwt>
<totfact> 0.38990282E+00</totfact>
</mgrwt>
</event>
<event>
 5    1  0.2381755E-004  0.6574153E+03  0.7818608E-02  0.9792963E-01
         13   -1    0    0    0    0  0.00000000000E+00  0.00000000000E+00  0.10000000000E+04  0.10000000000E+04  0.00000000000E+00 0. -1.
          2   -1    0    0  501    0 -0.00000000000E+00 -0.00000000000E+00 -0.10804873215E+03  0.10804873215E+03  0.00000000000E+00 0. -1.
    9000006    2    1    2  501    0  0.00000000000E+00  0.00000000000E+00  0.89195126785E+03  0.11080487322E+04  0.65741533950E+03 0.  0.
         13    1    3    3    0    0 -0.25650500904E+03  0.25721271197E+02  0.10223913740E+03  0.27732516054E+03  0.00000000000E+00 0. -1.
          4    1    3    3  501    0  0.25650500904E+03 -0.25721271197E+02  0.78971213045E+03  0.83072357161E+03  0.00000000000E+00 0. -1.
<mgrwt>
<rscale>  0 0.65741534E+03</rscale>
<asrwt>0</asrwt>
<pdfrwt beam="1">0</pdfrwt>
<pdfrwt beam="2">  1        2 0.39290531E+00 0.65741534E+03</pdfrwt>
<totfact> 0.42312901E+00</totfact>
</mgrwt>
</event>
<event>
 5    1  0.2381755E-004  0.6456756E+03  0.7818608E-02  0.9814928E-01
         13   -1    0    0    0    0  0.00000000000E+00  0.00000000000E+00  0.10000000000E+04  0.10000000000E+04  0.00000000000E+00 0. -1.
          2   -1    0    0  501    0 -0.00000000000E+00 -0.00000000000E+00 -0.10422425140E+03  0.10422425140E+03  0.00000000000E+00 0. -1.
    9000006    2    1    2  501    0  0.00000000000E+00  0.00000000000E+00  0.89577574860E+03  0.11042242514E+04  0.64567561949E+03 0.  0.
         13    1    3    3    0    0  0.12136500301E+03  0.26558810309E+03  0.21241751088E+03  0.36109237514E+03  0.00000000000E+00 0. -1.
          4    1    3    3  501    0 -0.12136500301E+03 -0.26558810309E+03  0.68335823772E+03  0.74313187626E+03  0.00000000000E+00 0. -1.
<mgrwt>
<rscale>  0 0.64567562E+03</rscale>
<asrwt>0</asrwt>
<pdfrwt beam="1">0</pdfrwt>
<pdfrwt beam="2">  1        2 0.37899808E+00 0.64567562E+03</pdfrwt>
<totfact> 0.47690225E+00</totfact>
</mgrwt>
</event>
<event>
 5    1  0.2381755E-004  0.6329873E+03  0.7818608E-02  0.9839236E-01
         13   -1    0    0    0    0  0.00000000000E+00  0.00000000000E+00  0.10000000000E+04  0.10000000000E+04  0.00000000000E+00 0. -1.
          2   -1    0    0  501    0 -0.00000000000E+00 -0.00000000000E+00 -0.10016824472E+03  0.10016824472E+03  0.00000000000E+00 0. -1.
    9000006    2    1    2  501    0  0.00000000000E+00  0.00000000000E+00  0.89983175528E+03  0.11001682447E+04  0.63298734496E+03 0.  0.
         13    1    3    3    0    0 -0.21059252866E+03 -0.22807900591E+03  0.34278895048E+03  0.46246460474E+03  0.00000000000E+00 0. -1.
          4    1    3    3  501    0  0.21059252866E+03  0.22807900591E+03  0.55704280480E+03  0.63770363998E+03  0.00000000000E+00 0. -1.
<mgrwt>
<rscale>  0 0.63298734E+03</rscale>
<asrwt>0</asrwt>
<pdfrwt beam="1">0</pdfrwt>
<pdfrwt beam="2">  1        2 0.36424893E+00 0.63298734E+03</pdfrwt>
<totfact> 0.54067537E+00</totfact>
</mgrwt>
</event>
<event>
 5    1  0.2381755E-004  0.6570618E+03  0.7818608E-02  0.9793618E-01
         13   -1    0    0    0    0  0.00000000000E+00  0.00000000000E+00  0.10000000000E+04  0.10000000000E+04  0.00000000000E+00 0. -1.
          2   -1    0    0  501    0 -0.00000000000E+00 -0.00000000000E+00 -0.10793256358E+03  0.10793256358E+03  0.00000000000E+00 0. -1.
    9000006    2    1    2  501    0  0.00000000000E+00  0.00000000000E+00  0.89206743642E+03  0.11079325636E+04  0.65706183447E+03 0.  0.
         13    1    3    3    0    0  0.17521415177E+03  0.20594703284E+03  0.13139555932E+03  0.30063095703E+03  0.00000000000E+00 0. -1.
          2    1    3    3  501    0 -0.17521415177E+03 -0.20594703284E+03  0.76067187710E+03  0.80730160655E+03  0.00000000000E+00 0. -1.
<mgrwt>
<rscale>  0 0.65706183E+03</rscale>
<asrwt>0</asrwt>
<pdfrwt beam="1">0</pdfrwt>
<pdfrwt beam="2">  1        2 0.39248288E+00 0.65706183E+03</pdfrwt>
<totfact> 0.42467795E+00</totfact>
</mgrwt>
</event>
<event>
 5    1  0.2381755E-004  0.6521864E+03  0.7818608E-02  0.9802685E-01
         13   -1    0    0    0    0  0.00000000000E+00  0.00000000000E+00  0.10000000000E+04  0.10000000000E+04  0.00000000000E+00 0. -1.
          2   -1    0    0  501    0 -0.00000000000E+00 -0.00000000000E+00 -0.10633676840E+03  0.10633676840E+03  0.00000000000E+00 0. -1.
    9000006    2    1    2  501    0  0.00000000000E+00  0.00000000000E+00  0.89366323160E+03  0.11063367684E+04  0.65218637951E+03 0.  0.
         13    1    3    3    0    0  0.19194444132E+03 -0.12271952804E+03  0.84260885526E+03  0.87286449926E+03  0.00000000000E+00 0. -1.
          2    1    3    3  501    0 -0.19194444132E+03  0.12271952804E+03  0.51054376339E+02  0.23347226914E+03  0.00000000000E+00 0. -1.
<mgrwt>
<rscale>  0 0.65218638E+03</rscale>
<asrwt>0</asrwt>
<pdfrwt beam="1">0</pdfrwt>
<pdfrwt beam="2">  1        2 0.38667997E+00 0.65218638E+03</pdfrwt>
<totfact> 0.44648050E+00</totfact>
</mgrwt>
</event>
<event>
 5    1  0.2381755E-004  0.6533575E+03  0.7818608E-02  0.9800499E-01
         13   -1    0    0    0    0  0.00000000000E+00  0.00000000000E+00  0.10000000000E+04  0.10000000000E+04  0.00000000000E+00 0. -1.
          2   -1    0    0  501    0 -0.00000000000E+00 -0.00000000000E+00 -0.10671901447E+03  0.10671901447E+03  0.00000000000E+00 0. -1.
    9000006    2    1    2  501    0  0.00000000000E+00  0.00000000000E+00  0.89328098553E+03  0.11067190145E+04  0.65335752683E+03 0.  0.
         13    1    3    3    0    0 -0.27577875495E+03 -0.16352128739E+03  0.55277462131E+03  0.63902497218E+03  0.00000000000E+00 0. -1.
          4    1    3    3  501    0  0.27577875495E+03  0.16352128739E+03  0.34050636422E+03  0.46769404228E+03  0.00000000000E+00 0. -1.
<mgrwt>
<rscale>  0 0.65335753E+03</rscale>
<asrwt>0</asrwt>
<pdfrwt beam="1">0</pdfrwt>
<pdfrwt beam="2">  1        2 0.38806996E+00 0.65335753E+03</pdfrwt>
<totfact> 0.44116785E+00</totfact>
</mgrwt>
</event>
<event>
 5    1  0.2381755E-004  0.5751827E+03  0.7818608E-02  0.9958275E-01
         13   -1    0    0    0    0  0.00000000000E+00  0.00000000000E+00  0.10000000000E+04  0.10000000000E+04  0.00000000000E+00 0. -1.
          2   -1    0    0  501    0 -0.00000000000E+00 -0.00000000000E+00 -0.82708780632E+02  0.82708780632E+02  0.00000000000E+00 0. -1.
    9000006    2    1    2  501    0  0.00000000000E+00  0.00000000000E+00  0.91729121937E+03  0.10827087806E+04  0.57518268622E+03 0.  0.
         13    1    3    3    0    0  0.27599033882E+03  0.80458669209E+02  0.47376519138E+03  0.55416398398E+03  0.00000000000E+00 0. -1.
          4    1    3    3  501    0 -0.27599033882E+03 -0.80458669209E+02  0.44352602799E+03  0.52854479666E+03  0.00000000000E+00 0. -1.
<mgrwt>
<rscale>  0 0.57518269E+03</rscale>
<asrwt>0</asrwt>
<pdfrwt beam="1">0</pdfrwt>
<pdfrwt beam="2">  1        2 0.30075984E+00 0.57518269E+03</pdfrwt>
<totfact> 0.91751482E+00</totfact>
</mgrwt>
</event>
<event>
 5    1  0.2381755E-004  0.6228434E+03  0.7818608E-02  0.9859115E-01
         13   -1    0    0    0    0  0.00000000000E+00  0.00000000000E+00  0.10000000000E+04  0.10000000000E+04  0.00000000000E+00 0. -1.
          2   -1    0    0  501    0 -0.00000000000E+00 -0.00000000000E+00 -0.96983463270E+02  0.96983463270E+02  0.00000000000E+00 0. -1.
    9000006    2    1    2  501    0  0.00000000000E+00  0.00000000000E+00  0.90301653673E+03  0.10969834633E+04  0.62284336159E+03 0.  0.
         13    1    3    3    0    0  0.18394298476E+03 -0.24709869179E+03  0.53203959068E+03  0.61478362956E+03  0.00000000000E+00 0. -1.
          2    1    3    3  501    0 -0.18394298476E+03  0.24709869179E+03  0.37097694605E+03  0.48219983371E+03  0.00000000000E+00 0. -1.
<mgrwt>
<rscale>  0 0.62284336E+03</rscale>
<asrwt>0</asrwt>
<pdfrwt beam="1">0</pdfrwt>
<pdfrwt beam="2">  1        2 0.35266788E+00 0.62284336E+03</pdfrwt>
<totfact> 0.59615300E+00</totfact>
</mgrwt>
</event>
<event>
 5    1  0.2381755E-004  0.6653303E+03  0.7818608E-02  0.9778431E-01
         13   -1    0    0    0    0  0.00000000000E+00  0.00000000000E+00  0.10000000000E+04  0.10000000000E+04  0.00000000000E+00 0. -1.
          2   -1    0    0  501    0 -0.00000000000E+00 -0.00000000000E+00 -0.11066608788E+03  0.11066608788E+03  0.00000000000E+00 0. -1.
    9000006    2    1    2  501    0  0.00000000000E+00  0.00000000000E+00  0.88933391212E+03  0.11106660879E+04  0.66533025747E+03 0.  0.
         13    1    3    3    0    0  0.62169298245E+02  0.19256911302E+03  0.38895453901E+01  0.20239321505E+03  0.00000000000E+00 0. -1.
          2    1    3    3  501    0 -0.62169298245E+02 -0.19256911302E+03  0.88544436673E+03  0.90827287283E+03  0.00000000000E+00 0. -1.
<mgrwt>
<rscale>  0 0.66533026E+03</rscale>
<asrwt>0</asrwt>
<pdfrwt beam="1">0</pdfrwt>
<pdfrwt beam="2">  1        2 0.40242299E+00 0.66533026E+03</pdfrwt>
<totfact> 0.38955366E+00</totfact>
</mgrwt>
</event>
<event>
 5    1  0.2381755E-004  0.6694646E+03  0.7818608E-02  0.9770926E-01
         13   -1    0    0    0    0  0.00000000000E+00  0.00000000000E+00  0.10000000000E+04  0.10000000000E+04  0.00000000000E+00 0. -1.
          2   -1    0    0  501    0 -0.00000000000E+00 -0.00000000000E+00 -0.11204570650E+03  0.11204570650E+03  0.00000000000E+00 0. -1.
    9000006    2    1    2  501    0  0.00000000000E+00  0.00000000000E+00  0.88795429350E+03  0.11120457065E+04  0.66946458160E+03 0.  0.
         13    1    3    3    0    0 -0.19527745489E+03  0.19179257324E+03  0.76404789942E+03  0.81159526129E+03  0.00000000000E+00 0. -1.
          2    1    3    3  501    0  0.19527745489E+03 -0.19179257324E+03  0.12390639408E+03  0.30045044522E+03  0.00000000000E+00 0. -1.
<mgrwt>
<rscale>  0 0.66946458E+03</rscale>
<asrwt>0</asrwt>
<pdfrwt beam="1">0</pdfrwt>
<pdfrwt beam="2">  1        2 0.40743979E+00 0.66946458E+03</pdfrwt>
<totfact> 0.37283631E+00</totfact>
</mgrwt>
</event>
<event>
 5    1  0.2381755E-004  0.6528904E+03  0.7818608E-02  0.9801371E-01
         13   -1    0    0    0    0  0.00000000000E+00  0.00000000000E+00  0.10000000000E+04  0.10000000000E+04  0.00000000000E+00 0. -1.
          2   -1    0    0  501    0 -0.00000000000E+00 -0.00000000000E+00 -0.10656647482E+03  0.10656647482E+03  0.00000000000E+00 0. -1.
    9000006    2    1    2  501    0  0.00000000000E+00  0.00000000000E+00  0.89343352518E+03  0.11065664748E+04  0.65289041903E+03 0.  0.
         13    1    3    3    0    0  0.31705709240E+03  0.25245818050E+02  0.57130923818E+03  0.65387827368E+03  0.00000000000E+00 0. -1.
          2    1    3    3  501    0 -0.31705709240E+03 -0.25245818050E+02  0.32212428701E+03  0.45268820113E+03  0.00000000000E+00 0. -1.
<mgrwt>
<rscale>  0 0.65289042E+03</rscale>
<asrwt>0</asrwt>
<pdfrwt beam="1">0</pdfrwt>
<pdfrwt beam="2">  1        2 0.38751527E+00 0.65289042E+03</pdfrwt>
<totfact> 0.44328103E+00</totfact>
</mgrwt>
</event>
<event>
 5    1  0.2381755E-004  0.6603006E+03  0.7818608E-02  0.9787640E-01
         13   -1    0    0    0    0  0.00000000000E+00  0.00000000000E+00  0.10000000000E+04  0.10000000000E+04  0.00000000000E+00 0. -1.
          2   -1    0    0  501    0 -0.00000000000E+00 -0.00000000000E+00 -0.10899923139E+03  0.10899923139E+03  0.00000000000E+00 0. -1.
    9000006    2    1    2  501    0  0.00000000000E+00  0.00000000000E+00  0.89100076861E+03  0.11089992314E+04  0.66030063271E+03 0.  0.
         13    1    3    3    0    0 -0.25747763442E+03  0.18883242797E+03  0.30451116207E+03  0.44122496065E+03  0.00000000000E+00 0. -1.
          2    1    3    3  501    0  0.25747763442E+03 -0.18883242797E+03  0.58648960654E+03  0.66777427074E+03  0.00000000000E+00 0. -1.
<mgrwt>
<rscale>  0 0.66030063E+03</rscale>
<asrwt>0</asrwt>
<pdfrwt beam="1">0</pdfrwt>
<pdfrwt beam="2">  1        2 0.39636168E+00 0.66030063E+03</pdfrwt>
<totfact> 0.41064625E+00</totfact>
</mgrwt>
</event>
<event>
 5    1  0.2381755E-004  0.6452439E+03  0.7818608E-02  0.9815745E-01
         13   -1    0    0    0    0  0.00000000000E+00  0.00000000000E+00  0.10000000000E+04  0.10000000000E+04  0.00000000000E+00 0. -1.
          2   -1    0    0  501    0 -0.00000000000E+00 -0.00000000000E+00 -0.10408493662E+03  0.10408493662E+03  0.00000000000E+00 0. -1.
    9000006    2    1    2  501    0  0.00000000000E+00  0.00000000000E+00  0.89591506338E+03  0.11040849366E+04  0.64524394338E+03 0.  0.
         13    1    3    3    0    0 -0.26241976670E+03 -0.18364279373E+03  0.38177204378E+03  0.49833593394E+03  0.00000000000E+00 0. -1.
          4    1    3    3  501    0  0.26241976670E+03  0.18364279373E+03  0.51414301960E+03  0.60574900268E+03  0.00000000000E+00 0. -1.
<mgrwt>
<rscale>  0 0.64524394E+03</rscale>
<asrwt>0</asrwt>
<pdfrwt beam="1">0</pdfrwt>
<pdfrwt beam="2">  1        2 0.37849148E+00 0.64524394E+03</pdfrwt>
<totfact> 0.47897321E+00</totfact>
</mgrwt>
</event>
<event>
 5    1  0.2381755E-004  0.6509285E+03  0.7818608E-02  0.9805039E-01
         13   -1    0    0    0    0  0.00000000000E+00  0.00000000000E+00  0.10000000000E+04  0.10000000000E+04  0.00000000000E+00 0. -1.
          2   -1    0    0  501    0 -0.00000000000E+00 -0.00000000000E+00 -0.10592696630E+03  0.10592696630E+03  0.00000000000E+00 0. -1.
    9000006    2    1    2  501    0  0.00000000000E+00  0.00000000000E+00  0.89407303370E+03  0.11059269663E+04  0.65092846397E+03 0.  0.
         13    1    3    3    0    0 -0.22864240792E+03  0.58473566874E+02  0.82781881627E+03  0.86080224285E+03  0.00000000000E+00 0. -1.
          4    1    3    3  501    0  0.22864240792E+03 -0.58473566874E+02  0.66254217427E+02  0.24512472345E+03  0.00000000000E+00 0. -1.
<mgrwt>
<rscale>  0 0.65092846E+03</rscale>
<asrwt>0</asrwt>
<pdfrwt beam="1">0</pdfrwt>
<pdfrwt beam="2">  1        2 0.38518978E+00 0.65092846E+03</pdfrwt>
<totfact> 0.45224045E+00</totfact>
</mgrwt>
</event>
<event>
 5    1  0.2381755E-004  0.7338592E+03  0.7818608E-02  0.9661019E-01
         13   -1    0    0    0    0  0.00000000000E+00  0.00000000000E+00  0.10000000000E+04  0.10000000000E+04  0.00000000000E+00 0. -1.
          2   -1    0    0  501    0 -0.00000000000E+00 -0.00000000000E+00 -0.13463731537E+03  0.13463731537E+03  0.00000000000E+00 0. -1.
    9000006    2    1    2  501    0  0.00000000000E+00  0.00000000000E+00  0.86536268463E+03  0.11346373154E+04  0.73385915644E+03 0.  0.
         13    1    3    3    0    0 -0.63537601533E+02 -0.34036584047E+03  0.62046626407E+03  0.71053804755E+03  0.00000000000E+00 0. -1.
          4    1    3    3  501    0  0.63537601533E+02  0.34036584047E+03  0.24489642055E+03  0.42409926782E+03  0.00000000000E+00 0. -1.
<mgrwt>
<rscale>  0 0.73385916E+03</rscale>
<asrwt>0</asrwt>
<pdfrwt beam="1">0</pdfrwt>
<pdfrwt beam="2">  1        2 0.48959127E+00 0.73385916E+03</pdfrwt>
<totfact> 0.17565999E+00</totfact>
</mgrwt>
</event>
<event>
 5    1  0.2381755E-004  0.6509416E+03  0.7818608E-02  0.9805014E-01
         13   -1    0    0    0    0  0.00000000000E+00  0.00000000000E+00  0.10000000000E+04  0.10000000000E+04  0.00000000000E+00 0. -1.
          2   -1    0    0  501    0 -0.00000000000E+00 -0.00000000000E+00 -0.10593125458E+03  0.10593125458E+03  0.00000000000E+00 0. -1.
    9000006    2    1    2  501    0  0.00000000000E+00  0.00000000000E+00  0.89406874542E+03  0.11059312546E+04  0.65094163972E+03 0.  0.
         13    1    3    3    0    0  0.10055729518E+02 -0.20246321957E+03  0.14417452868E+02  0.20322484081E+03  0.00000000000E+00 0. -1.
          2    1    3    3  501    0 -0.10055729518E+02  0.20246321957E+03  0.87965129255E+03  0.90270641377E+03  0.00000000000E+00 0. -1.
<mgrwt>
<rscale>  0 0.65094164E+03</rscale>
<asrwt>0</asrwt>
<pdfrwt beam="1">0</pdfrwt>
<pdfrwt beam="2">  1        2 0.38520537E+00 0.65094164E+03</pdfrwt>
<totfact> 0.45217983E+00</totfact>
</mgrwt>
</event>
<event>
 5    1  0.2381755E-004  0.6518098E+03  0.7818608E-02  0.9803389E-01
         13   -1    0    0    0    0  0.00000000000E+00  0.00000000000E+00  0.10000000000E+04  0.10000000000E+04  0.00000000000E+00 0. -1.
          2   -1    0    0  501    0 -0.00000000000E+00 -0.00000000000E+00 -0.10621399890E+03  0.10621399890E+03  0.00000000000E+00 0. -1.
    9000006    2    1    2  501    0  0.00000000000E+00  0.00000000000E+00  0.89378600110E+03  0.11062139989E+04  0.65180978482E+03 0.  0.
         13    1    3    3    0    0 -0.28278954798E+03  0.14708004766E+03  0.33164303745E+03  0.45998866633E+03  0.00000000000E+00 0. -1.
          2    1    3    3  501    0  0.28278954798E+03 -0.14708004766E+03  0.56214296365E+03  0.64622533257E+03  0.00000000000E+00 0. -1.
<mgrwt>
<rscale>  0 0.65180978E+03</rscale>
<asrwt>0</asrwt>
<pdfrwt beam="1">0</pdfrwt>
<pdfrwt beam="2">  1        2 0.38623354E+00 0.65180978E+03</pdfrwt>
<totfact> 0.44819907E+00</totfact>
</mgrwt>
</event>
<event>
 5    1  0.2381755E-004  0.6424954E+03  0.7818608E-02  0.9820964E-01
         13   -1    0    0    0    0  0.00000000000E+00  0.00000000000E+00  0.10000000000E+04  0.10000000000E+04  0.00000000000E+00 0. -1.
          2   -1    0    0  501    0 -0.00000000000E+00 -0.00000000000E+00 -0.10320007584E+03  0.10320007584E+03  0.00000000000E+00 0. -1.
    9000006    2    1    2  501    0  0.00000000000E+00  0.00000000000E+00  0.89679992416E+03  0.11032000758E+04  0.64249537224E+03 0.  0.
         13    1    3    3    0    0 -0.29889302689E+03 -0.10262522218E+03  0.34929897287E+03  0.47104007282E+03  0.00000000000E+00 0. -1.
          4    1    3    3  501    0  0.29889302689E+03  0.10262522218E+03  0.54750095129E+03  0.63216000302E+03  0.00000000000E+00 0. -1.
<mgrwt>
<rscale>  0 0.64249537E+03</rscale>
<asrwt>0</asrwt>
<pdfrwt beam="1">0</pdfrwt>
<pdfrwt beam="2">  1        2 0.37527379E+00 0.64249537E+03</pdfrwt>
<totfact> 0.49231962E+00</totfact>
</mgrwt>
</event>
<event>
 5    1  0.2381755E-004  0.6461565E+03  0.7818608E-02  0.9814018E-01
         13   -1    0    0    0    0  0.00000000000E+00  0.00000000000E+00  0.10000000000E+04  0.10000000000E+04  0.00000000000E+00 0. -1.
          2   -1    0    0  501    0 -0.00000000000E+00 -0.00000000000E+00 -0.10437955061E+03  0.10437955061E+03  0.00000000000E+00 0. -1.
    9000006    2    1    2  501    0  0.00000000000E+00  0.00000000000E+00  0.89562044939E+03  0.11043795506E+04  0.64615648448E+03 0.  0.
         13    1    3    3    0    0  0.13263211628E+01 -0.32153872159E+03  0.50160486608E+03  0.59581570161E+03  0.00000000000E+00 0. -1.
          4    1    3    3  501    0 -0.13263211628E+01  0.32153872159E+03  0.39401558331E+03  0.50856384900E+03  0.00000000000E+00 0. -1.
<mgrwt>
<rscale>  0 0.64615648E+03</rscale>
<asrwt>0</asrwt>
<pdfrwt beam="1">0</pdfrwt>
<pdfrwt beam="2">  1        2 0.37956280E+00 0.64615648E+03</pdfrwt>
<totfact> 0.47460329E+00</totfact>
</mgrwt>
</event>
<event>
 5    1  0.2381755E-004  0.6483286E+03  0.7818608E-02  0.9809920E-01
         13   -1    0    0    0    0  0.00000000000E+00  0.00000000000E+00  0.10000000000E+04  0.10000000000E+04  0.00000000000E+00 0. -1.
          2   -1    0    0  501    0 -0.00000000000E+00 -0.00000000000E+00 -0.10508249578E+03  0.10508249578E+03  0.00000000000E+00 0. -1.
    9000006    2    1    2  501    0  0.00000000000E+00  0.00000000000E+00  0.89491750422E+03  0.11050824958E+04  0.64832860735E+03 0.  0.
         13    1    3    3    0    0 -0.15586505023E+03 -0.12073983790E+03  0.88645752346E+01  0.19735907132E+03  0.00000000000E+00 0. -1.
          4    1    3    3  501    0  0.15586505023E+03  0.12073983790E+03  0.88605292899E+03  0.90772342446E+03  0.00000000000E+00 0. -1.
<mgrwt>
<rscale>  0 0.64832861E+03</rscale>
<asrwt>0</asrwt>
<pdfrwt beam="1">0</pdfrwt>
<pdfrwt beam="2">  1        2 0.38211897E+00 0.64832861E+03</pdfrwt>
<totfact> 0.46432290E+00</totfact>
</mgrwt>
</event>
<event>
 5    1  0.2381755E-004  0.6489445E+03  0.7818608E-02  0.9808762E-01
         13   -1    0    0    0    0  0.00000000000E+00  0.00000000000E+00  0.10000000000E+04  0.10000000000E+04  0.00000000000E+00 0. -1.
          2   -1    0    0  501    0 -0.00000000000E+00 -0.00000000000E+00 -0.10528224163E+03  0.10528224163E+03  0.00000000000E+00 0. -1.
    9000006    2    1    2  501    0  0.00000000000E+00  0.00000000000E+00  0.89471775837E+03  0.11052822416E+04  0.64894450187E+03 0.  0.
         13    1    3    3    0    0 -0.24794711883E+03 -0.41706171834E+01  0.80375961901E+03  0.84114487036E+03  0.00000000000E+00 0. -1.
          4    1    3    3  501    0  0.24794711883E+03  0.41706171834E+01  0.90958139364E+02  0.26413737127E+03  0.00000000000E+00 0. -1.
<mgrwt>
<rscale>  0 0.64894450E+03</rscale>
<asrwt>0</asrwt>
<pdfrwt beam="1">0</pdfrwt>
<pdfrwt beam="2">  1        2 0.38284532E+00 0.64894450E+03</pdfrwt>
<totfact> 0.46143883E+00</totfact>
</mgrwt>
</event>
<event>
 5    1  0.2381755E-004  0.6463378E+03  0.7818608E-02  0.9813675E-01
         13   -1    0    0    0    0  0.00000000000E+00  0.00000000000E+00  0.10000000000E+04  0.10000000000E+04  0.00000000000E+00 0. -1.
          2   -1    0    0  501    0 -0.00000000000E+00 -0.00000000000E+00 -0.10443812359E+03  0.10443812359E+03  0.00000000000E+00 0. -1.
    9000006    2    1    2  501    0  0.00000000000E+00  0.00000000000E+00  0.89556187641E+03  0.11044381236E+04  0.64633775563E+03 0.  0.
         13    1    3    3    0    0  0.32277215907E+03  0.76503654128E+01  0.42375298044E+03  0.53273537820E+03  0.00000000000E+00 0. -1.
          4    1    3    3  501    0 -0.32277215907E+03 -0.76503654128E+01  0.47180889598E+03  0.57170274539E+03  0.00000000000E+00 0. -1.
<mgrwt>
<rscale>  0 0.64633776E+03</rscale>
<asrwt>0</asrwt>
<pdfrwt beam="1">0</pdfrwt>
<pdfrwt beam="2">  1        2 0.37977580E+00 0.64633776E+03</pdfrwt>
<totfact> 0.47373883E+00</totfact>
</mgrwt>
</event>
<event>
 5    1  0.2381755E-004  0.6476895E+03  0.7818608E-02  0.9811124E-01
         13   -1    0    0    0    0  0.00000000000E+00  0.00000000000E+00  0.10000000000E+04  0.10000000000E+04  0.00000000000E+00 0. -1.
          2   -1    0    0  501    0 -0.00000000000E+00 -0.00000000000E+00 -0.10487540854E+03  0.10487540854E+03  0.00000000000E+00 0. -1.
    9000006    2    1    2  501    0  0.00000000000E+00  0.00000000000E+00  0.89512459146E+03  0.11048754085E+04  0.64768945811E+03 0.  0.
         13    1    3    3    0    0  0.16846362570E+03  0.12620941186E+03  0.27742343129E+02  0.21231685385E+03  0.00000000000E+00 0. -1.
          2    1    3    3  501    0 -0.16846362570E+03 -0.12620941186E+03  0.86738224833E+03  0.89255855469E+03  0.00000000000E+00 0. -1.
<mgrwt>
<rscale>  0 0.64768946E+03</rscale>
<asrwt>0</asrwt>
<pdfrwt beam="1">0</pdfrwt>
<pdfrwt beam="2">  1        2 0.38136593E+00 0.64768946E+03</pdfrwt>
<totfact> 0.46733025E+00</totfact>
</mgrwt>
</event>
<event>
 5    1  0.2381755E-004  0.6586763E+03  0.7818608E-02  0.9790634E-01
         13   -1    0    0    0    0  0.00000000000E+00  0.00000000000E+00  0.10000000000E+04  0.10000000000E+04  0.00000000000E+00 0. -1.
          2   -1    0    0  501    0 -0.00000000000E+00 -0.00000000000E+00 -0.10846360611E+03  0.10846360611E+03  0.00000000000E+00 0. -1.
    9000006    2    1    2  501    0  0.00000000000E+00  0.00000000000E+00  0.89153639389E+03  0.11084636061E+04  0.65867626680E+03 0.  0.
         13    1    3    3    0    0  0.24003260855E+03 -0.20137176149E+03  0.61653856361E+03  0.69158227269E+03  0.00000000000E+00 0. -1.
          2    1    3    3  501    0 -0.24003260855E+03  0.20137176149E+03  0.27499783028E+03  0.41688133342E+03  0.00000000000E+00 0. -1.
<mgrwt>
<rscale>  0 0.65867627E+03</rscale>
<asrwt>0</asrwt>
<pdfrwt beam="1">0</pdfrwt>
<pdfrwt beam="2">  1        2 0.39441394E+00 0.65867627E+03</pdfrwt>
<totfact> 0.41763891E+00</totfact>
</mgrwt>
</event>
<event>
 5    1  0.2381755E-004  0.6427032E+03  0.7818608E-02  0.9820568E-01
         13   -1    0    0    0    0  0.00000000000E+00  0.00000000000E+00  0.10000000000E+04  0.10000000000E+04  0.00000000000E+00 0. -1.
          2   -1    0    0  501    0 -0.00000000000E+00 -0.00000000000E+00 -0.10326685186E+03  0.10326685186E+03  0.00000000000E+00 0. -1.
    9000006    2    1    2  501    0  0.00000000000E+00  0.00000000000E+00  0.89673314814E+03  0.11032668519E+04  0.64270320321E+03 0.  0.
         13    1    3    3    0    0 -0.31083085642E+03 -0.11331957413E+01  0.58834872021E+03  0.66541064164E+03  0.00000000000E+00 0. -1.
          4    1    3    3  501    0  0.31083085642E+03  0.11331957413E+01  0.30838442793E+03  0.43785621022E+03  0.00000000000E+00 0. -1.
<mgrwt>
<rscale>  0 0.64270320E+03</rscale>
<asrwt>0</asrwt>
<pdfrwt beam="1">0</pdfrwt>
<pdfrwt beam="2">  1        2 0.37551662E+00 0.64270320E+03</pdfrwt>
<totfact> 0.49130063E+00</totfact>
</mgrwt>
</event>
<event>
 5    1  0.2381755E-004  0.6554448E+03  0.7818608E-02  0.9796616E-01
         13   -1    0    0    0    0  0.00000000000E+00  0.00000000000E+00  0.10000000000E+04  0.10000000000E+04  0.00000000000E+00 0. -1.
          2   -1    0    0  501    0 -0.00000000000E+00 -0.00000000000E+00 -0.10740197056E+03  0.10740197056E+03  0.00000000000E+00 0. -1.
    9000006    2    1    2  501    0  0.00000000000E+00  0.00000000000E+00  0.89259802944E+03  0.11074019706E+04  0.65544479726E+03 0.  0.
         13    1    3    3    0    0 -0.27007566830E+01 -0.72357878000E+02  0.98631612151E+03  0.98897039801E+03  0.00000000000E+00 0. -1.
          2    1    3    3  501    0  0.27007566830E+01  0.72357878000E+02 -0.93718092073E+02  0.11843157255E+03  0.00000000000E+00 0. -1.
<mgrwt>
<rscale>  0 0.65544480E+03</rscale>
<asrwt>0</asrwt>
<pdfrwt beam="1">0</pdfrwt>
<pdfrwt beam="2">  1        2 0.39055344E+00 0.65544480E+03</pdfrwt>
<totfact> 0.43181795E+00</totfact>
</mgrwt>
</event>
<event>
 5    1  0.2381755E-004  0.6601338E+03  0.7818608E-02  0.9787947E-01
         13   -1    0    0    0    0  0.00000000000E+00  0.00000000000E+00  0.10000000000E+04  0.10000000000E+04  0.00000000000E+00 0. -1.
          2   -1    0    0  501    0 -0.00000000000E+00 -0.00000000000E+00 -0.10894416195E+03  0.10894416195E+03  0.00000000000E+00 0. -1.
    9000006    2    1    2  501    0  0.00000000000E+00  0.00000000000E+00  0.89105583805E+03  0.11089441619E+04  0.66013381052E+03 0.  0.
         13    1    3    3    0    0  0.31713793748E+03  0.13022713574E+02  0.59762969825E+03  0.67668849457E+03  0.00000000000E+00 0. -1.
          4    1    3    3  501    0 -0.31713793748E+03 -0.13022713574E+02  0.29342613981E+03  0.43225566738E+03  0.00000000000E+00 0. -1.
<mgrwt>
<rscale>  0 0.66013381E+03</rscale>
<asrwt>0</asrwt>
<pdfrwt beam="1">0</pdfrwt>
<pdfrwt beam="2">  1        2 0.39616142E+00 0.66013381E+03</pdfrwt>
<totfact> 0.41136029E+00</totfact>
</mgrwt>
</event>
<event>
 5    1  0.2381755E-004  0.6506887E+03  0.7818608E-02  0.9805488E-01
         13   -1    0    0    0    0  0.00000000000E+00  0.00000000000E+00  0.10000000000E+04  0.10000000000E+04  0.00000000000E+00 0. -1.
          2   -1    0    0  501    0 -0.00000000000E+00 -0.00000000000E+00 -0.10584893091E+03  0.10584893091E+03  0.00000000000E+00 0. -1.
    9000006    2    1    2  501    0  0.00000000000E+00  0.00000000000E+00  0.89415106909E+03  0.11058489309E+04  0.65068865338E+03 0.  0.
         13    1    3    3    0    0  0.23771056846E+03 -0.22066074437E+03  0.40369809354E+03  0.51785097199E+03  0.00000000000E+00 0. -1.
          2    1    3    3  501    0 -0.23771056846E+03  0.22066074437E+03  0.49045297556E+03  0.58799795892E+03  0.00000000000E+00 0. -1.
<mgrwt>
<rscale>  0 0.65068865E+03</rscale>
<asrwt>0</asrwt>
<pdfrwt beam="1">0</pdfrwt>
<pdfrwt beam="2">  1        2 0.38490601E+00 0.65068865E+03</pdfrwt>
<totfact> 0.45334487E+00</totfact>
</mgrwt>
</event>
<event>
 5    1  0.2381755E-004  0.6458253E+03  0.7818608E-02  0.9814644E-01
         13   -1    0    0    0    0  0.00000000000E+00  0.00000000000E+00  0.10000000000E+04  0.10000000000E+04  0.00000000000E+00 0. -1.
          2   -1    0    0  501    0 -0.00000000000E+00 -0.00000000000E+00 -0.10427259349E+03  0.10427259349E+03  0.00000000000E+00 0. -1.
    9000006    2    1    2  501    0  0.00000000000E+00  0.00000000000E+00  0.89572740651E+03  0.11042725935E+04  0.64582534322E+03 0.  0.
         13    1    3    3    0    0  0.14393307089E+03  0.25618258153E+03  0.67679603942E+03  0.73783407549E+03  0.00000000000E+00 0. -1.
          4    1    3    3  501    0 -0.14393307089E+03 -0.25618258153E+03  0.21893136709E+03  0.36643851800E+03  0.00000000000E+00 0. -1.
<mgrwt>
<rscale>  0 0.64582534E+03</rscale>
<asrwt>0</asrwt>
<pdfrwt beam="1">0</pdfrwt>
<pdfrwt beam="2">  1        2 0.37917387E+00 0.64582534E+03</pdfrwt>
<totfact> 0.47618553E+00</totfact>
</mgrwt>
</event>
<event>
 5    1  0.2381755E-004  0.6551226E+03  0.7818608E-02  0.9797214E-01
         13   -1    0    0    0    0  0.00000000000E+00  0.00000000000E+00  0.10000000000E+04  0.10000000000E+04  0.00000000000E+00 0. -1.
          2   -1    0    0  501    0 -0.00000000000E+00 -0.00000000000E+00 -0.10729639809E+03  0.10729639809E+03  0.00000000000E+00 0. -1.
    9000006    2    1    2  501    0  0.00000000000E+00  0.00000000000E+00  0.89270360191E+03  0.11072963981E+04  0.65512257812E+03 0.  0.
         13    1    3    3    0    0  0.22248559609E+03  0.12578996612E+03  0.10007084117E+03  0.27447609968E+03  0.00000000000E+00 0. -1.
          4    1    3    3  501    0 -0.22248559609E+03 -0.12578996612E+03  0.79263276074E+03  0.83282029841E+03  0.00000000000E+00 0. -1.
<mgrwt>
<rscale>  0 0.65512258E+03</rscale>
<asrwt>0</asrwt>
<pdfrwt beam="1">0</pdfrwt>
<pdfrwt beam="2">  1        2 0.39016954E+00 0.65512258E+03</pdfrwt>
<totfact> 0.43325147E+00</totfact>
</mgrwt>
</event>
<event>
 5    1  0.2381755E-004  0.6601968E+03  0.7818608E-02  0.9787832E-01
         13   -1    0    0    0    0  0.00000000000E+00  0.00000000000E+00  0.10000000000E+04  0.10000000000E+04  0.00000000000E+00 0. -1.
          2   -1    0    0  501    0 -0.00000000000E+00 -0.00000000000E+00 -0.10896494846E+03  0.10896494846E+03  0.00000000000E+00 0. -1.
    9000006    2    1    2  501    0  0.00000000000E+00  0.00000000000E+00  0.89103505154E+03  0.11089649485E+04  0.66019678417E+03 0.  0.
         13    1    3    3    0    0  0.28387355874E+03 -0.14107135521E+03  0.60019700762E+03  0.67876488755E+03  0.00000000000E+00 0. -1.
          2    1    3    3  501    0 -0.28387355874E+03  0.14107135521E+03  0.29083804393E+03  0.43020006091E+03  0.00000000000E+00 0. -1.
<mgrwt>
<rscale>  0 0.66019678E+03</rscale>
<asrwt>0</asrwt>
<pdfrwt beam="1">0</pdfrwt>
<pdfrwt beam="2">  1        2 0.39623701E+00 0.66019678E+03</pdfrwt>
<totfact> 0.41109064E+00</totfact>
</mgrwt>
</event>
<event>
 5    1  0.2381755E-004  0.6462397E+03  0.7818608E-02  0.9813861E-01
         13   -1    0    0    0    0  0.00000000000E+00  0.00000000000E+00  0.10000000000E+04  0.10000000000E+04  0.00000000000E+00 0. -1.
          2   -1    0    0  501    0 -0.00000000000E+00 -0.00000000000E+00 -0.10440642391E+03  0.10440642391E+03  0.00000000000E+00 0. -1.
    9000006    2    1    2  501    0  0.00000000000E+00  0.00000000000E+00  0.89559357609E+03  0.11044064239E+04  0.64623965805E+03 0.  0.
         13    1    3    3    0    0  0.24496276160E+03 -0.20892460553E+03  0.40098905200E+03  0.51424553007E+03  0.00000000000E+00 0. -1.
          4    1    3    3  501    0 -0.24496276160E+03  0.20892460553E+03  0.49460452409E+03  0.59016089384E+03  0.00000000000E+00 0. -1.
<mgrwt>
<rscale>  0 0.64623966E+03</rscale>
<asrwt>0</asrwt>
<pdfrwt beam="1">0</pdfrwt>
<pdfrwt beam="2">  1        2 0.37966052E+00 0.64623966E+03</pdfrwt>
<totfact> 0.47420650E+00</totfact>
</mgrwt>
</event>
<event>
 5    1  0.2381755E-004  0.6572633E+03  0.7818608E-02  0.9793245E-01
         13   -1    0    0    0    0  0.00000000000E+00  0.00000000000E+00  0.10000000000E+04  0.10000000000E+04  0.00000000000E+00 0. -1.
          2   -1    0    0  501    0 -0.00000000000E+00 -0.00000000000E+00 -0.10799875203E+03  0.10799875203E+03  0.00000000000E+00 0. -1.
    9000006    2    1    2  501    0  0.00000000000E+00  0.00000000000E+00  0.89200124797E+03  0.11079987520E+04  0.65726327155E+03 0.  0.
         13    1    3    3    0    0  0.84412900093E+02 -0.31553334649E+03  0.38494103931E+03  0.50484297974E+03  0.00000000000E+00 0. -1.
          4    1    3    3  501    0 -0.84412900093E+02  0.31553334649E+03  0.50706020866E+03  0.60315577230E+03  0.00000000000E+00 0. -1.
<mgrwt>
<rscale>  0 0.65726327E+03</rscale>
<asrwt>0</asrwt>
<pdfrwt beam="1">0</pdfrwt>
<pdfrwt beam="2">  1        2 0.39272356E+00 0.65726327E+03</pdfrwt>
<totfact> 0.42379480E+00</totfact>
</mgrwt>
</event>
<event>
 5    1  0.2381755E-004  0.6462461E+03  0.7818608E-02  0.9813849E-01
         13   -1    0    0    0    0  0.00000000000E+00  0.00000000000E+00  0.10000000000E+04  0.10000000000E+04  0.00000000000E+00 0. -1.
          2   -1    0    0  501    0 -0.00000000000E+00 -0.00000000000E+00 -0.10440849482E+03  0.10440849482E+03  0.00000000000E+00 0. -1.
    9000006    2    1    2  501    0  0.00000000000E+00  0.00000000000E+00  0.89559150518E+03  0.11044084948E+04  0.64624606714E+03 0.  0.
         13    1    3    3    0    0 -0.21874911955E+03  0.88057171041E+02  0.82532987221E+03  0.85835577742E+03  0.00000000000E+00 0. -1.
          4    1    3    3  501    0  0.21874911955E+03 -0.88057171041E+02  0.70261632966E+02  0.24605271740E+03  0.00000000000E+00 0. -1.
<mgrwt>
<rscale>  0 0.64624607E+03</rscale>
<asrwt>0</asrwt>
<pdfrwt beam="1">0</pdfrwt>
<pdfrwt beam="2">  1        2 0.37966805E+00 0.64624607E+03</pdfrwt>
<totfact> 0.47417593E+00</totfact>
</mgrwt>
</event>
<event>
 5    1  0.2381755E-004  0.6492232E+03  0.7818608E-02  0.9808238E-01
         13   -1    0    0    0    0  0.00000000000E+00  0.00000000000E+00  0.10000000000E+04  0.10000000000E+04  0.00000000000E+00 0. -1.
          2   -1    0    0  501    0 -0.00000000000E+00 -0.00000000000E+00 -0.10537270021E+03  0.10537270021E+03  0.00000000000E+00 0. -1.
    9000006    2    1    2  501    0  0.00000000000E+00  0.00000000000E+00  0.89462729979E+03  0.11053727002E+04  0.64922322883E+03 0.  0.
         13    1    3    3    0    0 -0.81278726784E+02  0.30414683347E+03  0.58203688960E+03  0.66172386129E+03  0.00000000000E+00 0. -1.
          2    1    3    3  501    0  0.81278726784E+02 -0.30414683347E+03  0.31259041019E+03  0.44364883893E+03  0.00000000000E+00 0. -1.
<mgrwt>
<rscale>  0 0.64922323E+03</rscale>
<asrwt>0</asrwt>
<pdfrwt beam="1">0</pdfrwt>
<pdfrwt beam="2">  1        2 0.38317426E+00 0.64922323E+03</pdfrwt>
<totfact> 0.46013808E+00</totfact>
</mgrwt>
</event>
<event>
 5    1  0.2381755E-004  0.6350245E+03  0.7818608E-02  0.9835293E-01
         13   -1    0    0    0    0  0.00000000000E+00  0.00000000000E+00  0.10000000000E+04  0.10000000000E+04  0.00000000000E+00 0. -1.
          2   -1    0    0  501    0 -0.00000000000E+00 -0.00000000000E+00 -0.10081402818E+03  0.10081402818E+03  0.00000000000E+00 0. -1.
    9000006    2    1    2  501    0  0.00000000000E+00  0.00000000000E+00  0.89918597182E+03  0.11008140282E+04  0.63502449773E+03 0.  0.
         13    1    3    3    0    0  0.31649121200E+03  0.24115846067E+02  0.43553487163E+03  0.53892382181E+03  0.00000000000E+00 0. -1.
          4    1    3    3  501    0 -0.31649121200E+03 -0.24115846067E+02  0.46365110019E+03  0.56189020637E+03  0.00000000000E+00 0. -1.
<mgrwt>
<rscale>  0 0.63502450E+03</rscale>
<asrwt>0</asrwt>
<pdfrwt beam="1">0</pdfrwt>
<pdfrwt beam="2">  1        2 0.36659724E+00 0.63502450E+03</pdfrwt>
<totfact> 0.53002458E+00</totfact>
</mgrwt>
</event>
<event>
 5    1  0.2381755E-004  0.6388367E+03  0.7818608E-02  0.9827955E-01
         13   -1    0    0    0    0  0.00000000000E+00  0.00000000000E+00  0.10000000000E+04  0.10000000000E+04  0.00000000000E+00 0. -1.
          2   -1    0    0  501    0 -0.00000000000E+00 -0.00000000000E+00 -0.10202807892E+03  0.10202807892E+03  0.00000000000E+00 0. -1.
    9000006    2    1    2  501    0  0.00000000000E+00  0.00000000000E+00  0.89797192108E+03  0.11020280789E+04  0.63883668937E+03 0.  0.
         13    1    3    3    0    0  0.22975411746E+03 -0.99832555462E+02  0.10711783259E+03  0.27244765310E+03  0.00000000000E+00 0. -1.
          2    1    3    3  501    0 -0.22975411746E+03  0.99832555462E+02  0.79085408849E+03  0.82958042582E+03  0.00000000000E+00 0. -1.
<mgrwt>
<rscale>  0 0.63883669E+03</rscale>
<asrwt>0</asrwt>
<pdfrwt beam="1">0</pdfrwt>
<pdfrwt beam="2">  1        2 0.37101198E+00 0.63883669E+03</pdfrwt>
<totfact> 0.51052143E+00</totfact>
</mgrwt>
</event>
<event>
 5    1  0.2381755E-004  0.6450519E+03  0.7818608E-02  0.9816109E-01
         13   -1    0    0    0    0  0.00000000000E+00  0.00000000000E+00  0.10000000000E+04  0.10000000000E+04  0.00000000000E+00 0. -1.
          2   -1    0    0  501    0 -0.00000000000E+00 -0.00000000000E+00 -0.10402297388E+03  0.10402297388E+03  0.00000000000E+00 0. -1.
    9000006    2    1    2  501    0  0.00000000000E+00  0.00000000000E+00  0.89597702612E+03  0.11040229739E+04  0.64505185490E+03 0.  0.
         13    1    3    3    0    0 -0.13740732797E+03 -0.28812234944E+03  0.36904073914E+03  0.48794090746E+03  0.00000000000E+00 0. -1.
          2    1    3    3  501    0  0.13740732797E+03  0.28812234944E+03  0.52693628698E+03  0.61608206642E+03  0.00000000000E+00 0. -1.
<mgrwt>
<rscale>  0 0.64505185E+03</rscale>
<asrwt>0</asrwt>
<pdfrwt beam="1">0</pdfrwt>
<pdfrwt beam="2">  1        2 0.37826616E+00 0.64505185E+03</pdfrwt>
<totfact> 0.47989693E+00</totfact>
</mgrwt>
</event>
<event>
 5    1  0.2381755E-004  0.6447462E+03  0.7818608E-02  0.9816688E-01
         13   -1    0    0    0    0  0.00000000000E+00  0.00000000000E+00  0.10000000000E+04  0.10000000000E+04  0.00000000000E+00 0. -1.
          2   -1    0    0  501    0 -0.00000000000E+00 -0.00000000000E+00 -0.10392440264E+03  0.10392440264E+03  0.00000000000E+00 0. -1.
    9000006    2    1    2  501    0  0.00000000000E+00  0.00000000000E+00  0.89607559736E+03  0.11039244026E+04  0.64474615979E+03 0.  0.
         13    1    3    3    0    0  0.80178074535E+01 -0.32189292002E+03  0.47484130483E+03  0.57371909674E+03  0.00000000000E+00 0. -1.
          2    1    3    3  501    0 -0.80178074535E+01  0.32189292002E+03  0.42123429253E+03  0.53020530590E+03  0.00000000000E+00 0. -1.
<mgrwt>
<rscale>  0 0.64474616E+03</rscale>
<asrwt>0</asrwt>
<pdfrwt beam="1">0</pdfrwt>
<pdfrwt beam="2">  1        2 0.37790772E+00 0.64474616E+03</pdfrwt>
<totfact> 0.48136975E+00</totfact>
</mgrwt>
</event>
<event>
 5    1  0.2381755E-004  0.6496260E+03  0.7818608E-02  0.9807481E-01
         13   -1    0    0    0    0  0.00000000000E+00  0.00000000000E+00  0.10000000000E+04  0.10000000000E+04  0.00000000000E+00 0. -1.
          2   -1    0    0  501    0 -0.00000000000E+00 -0.00000000000E+00 -0.10550349696E+03  0.10550349696E+03  0.00000000000E+00 0. -1.
    9000006    2    1    2  501    0  0.00000000000E+00  0.00000000000E+00  0.89449650304E+03  0.11055034970E+04  0.64962603692E+03 0.  0.
         13    1    3    3    0    0  0.95034395643E+02  0.30054254979E+03  0.58066114206E+03  0.66070017594E+03  0.00000000000E+00 0. -1.
          2    1    3    3  501    0 -0.95034395643E+02 -0.30054254979E+03  0.31383536097E+03  0.44480332102E+03  0.00000000000E+00 0. -1.
<mgrwt>
<rscale>  0 0.64962604E+03</rscale>
<asrwt>0</asrwt>
<pdfrwt beam="1">0</pdfrwt>
<pdfrwt beam="2">  1        2 0.38364989E+00 0.64962604E+03</pdfrwt>
<totfact> 0.45826319E+00</totfact>
</mgrwt>
</event>
<event>
 5    1  0.2381755E-004  0.6558987E+03  0.7818608E-02  0.9795773E-01
         13   -1    0    0    0    0  0.00000000000E+00  0.00000000000E+00  0.10000000000E+04  0.10000000000E+04  0.00000000000E+00 0. -1.
          2   -1    0    0  501    0 -0.00000000000E+00 -0.00000000000E+00 -0.10755076964E+03  0.10755076964E+03  0.00000000000E+00 0. -1.
    9000006    2    1    2  501    0  0.00000000000E+00  0.00000000000E+00  0.89244923036E+03  0.11075507696E+04  0.65589868009E+03 0.  0.
         13    1    3    3    0    0 -0.24630198299E+03  0.48509186531E+02  0.89882071703E+02  0.26663944722E+03  0.00000000000E+00 0. -1.
          4    1    3    3  501    0  0.24630198299E+03 -0.48509186531E+02  0.80256715866E+03  0.84091132241E+03  0.00000000000E+00 0. -1.
<mgrwt>
<rscale>  0 0.65589868E+03</rscale>
<asrwt>0</asrwt>
<pdfrwt beam="1">0</pdfrwt>
<pdfrwt beam="2">  1        2 0.39109453E+00 0.65589868E+03</pdfrwt>
<totfact> 0.42980476E+00</totfact>
</mgrwt>
</event>
<event>
 5    1  0.2381755E-004  0.6540280E+03  0.7818608E-02  0.9799250E-01
         13   -1    0    0    0    0  0.00000000000E+00  0.00000000000E+00  0.10000000000E+04  0.10000000000E+04  0.00000000000E+00 0. -1.
          2   -1    0    0  501    0 -0.00000000000E+00 -0.00000000000E+00 -0.10693817202E+03  0.10693817202E+03  0.00000000000E+00 0. -1.
    9000006    2    1    2  501    0  0.00000000000E+00  0.00000000000E+00  0.89306182798E+03  0.11069381720E+04  0.65402804840E+03 0.  0.
         13    1    3    3    0    0 -0.41440392938E+02  0.20122367786E+03  0.87713629181E+03  0.90087532384E+03  0.00000000000E+00 0. -1.
          2    1    3    3  501    0  0.41440392938E+02 -0.20122367786E+03  0.15925536166E+02  0.20606284818E+03  0.00000000000E+00 0. -1.
<mgrwt>
<rscale>  0 0.65402805E+03</rscale>
<asrwt>0</asrwt>
<pdfrwt beam="1">0</pdfrwt>
<pdfrwt beam="2">  1        2 0.38886690E+00 0.65402805E+03</pdfrwt>
<totfact> 0.43814776E+00</totfact>
</mgrwt>
</event>
<event>
 5    1  0.2381755E-004  0.6753025E+03  0.7818608E-02  0.9760426E-01
         13   -1    0    0    0    0  0.00000000000E+00  0.00000000000E+00  0.10000000000E+04  0.10000000000E+04  0.00000000000E+00 0. -1.
          2   -1    0    0  501    0 -0.00000000000E+00 -0.00000000000E+00 -0.11400836490E+03  0.11400836490E+03  0.00000000000E+00 0. -1.
    9000006    2    1    2  501    0  0.00000000000E+00  0.00000000000E+00  0.88599163510E+03  0.11140083649E+04  0.67530249489E+03 0.  0.
         13    1    3    3    0    0 -0.28710114065E+03 -0.14604249651E+03  0.27595860706E+03  0.42415637277E+03  0.00000000000E+00 0. -1.
          2    1    3    3  501    0  0.28710114065E+03  0.14604249651E+03  0.61003302804E+03  0.68985199213E+03  0.00000000000E+00 0. -1.
<mgrwt>
<rscale>  0 0.67530249E+03</rscale>
<asrwt>0</asrwt>
<pdfrwt beam="1">0</pdfrwt>
<pdfrwt beam="2">  1        2 0.41457675E+00 0.67530249E+03</pdfrwt>
<totfact> 0.35015885E+00</totfact>
</mgrwt>
</event>
<event>
 5    1  0.2381755E-004  0.5316653E+03  0.7818608E-02  0.1005829E+00
         13   -1    0    0    0    0  0.00000000000E+00  0.00000000000E+00  0.10000000000E+04  0.10000000000E+04  0.00000000000E+00 0. -1.
          2   -1    0    0  501    0 -0.00000000000E+00 -0.00000000000E+00 -0.70666990662E+02  0.70666990662E+02  0.00000000000E+00 0. -1.
    9000006    2    1    2  501    0  0.00000000000E+00  0.00000000000E+00  0.92933300934E+03  0.10706669907E+04  0.53166527313E+03 0.  0.
         13    1    3    3    0    0  0.73440387592E+02 -0.19152227631E+03  0.12414555337E+03  0.23976319834E+03  0.00000000000E+00 0. -1.
          4    1    3    3  501    0 -0.73440387592E+02  0.19152227631E+03  0.80518745597E+03  0.83090379233E+03  0.00000000000E+00 0. -1.
<mgrwt>
<rscale>  0 0.53166527E+03</rscale>
<asrwt>0</asrwt>
<pdfrwt beam="1">0</pdfrwt>
<pdfrwt beam="2">  1        2 0.25697142E+00 0.53166527E+03</pdfrwt>
<totfact> 0.13158639E+01</totfact>
</mgrwt>
</event>
<event>
 5    1  0.2381755E-004  0.6424580E+03  0.7818608E-02  0.9821035E-01
         13   -1    0    0    0    0  0.00000000000E+00  0.00000000000E+00  0.10000000000E+04  0.10000000000E+04  0.00000000000E+00 0. -1.
          2   -1    0    0  501    0 -0.00000000000E+00 -0.00000000000E+00 -0.10318807095E+03  0.10318807095E+03  0.00000000000E+00 0. -1.
    9000006    2    1    2  501    0  0.00000000000E+00  0.00000000000E+00  0.89681192905E+03  0.11031880709E+04  0.64245800158E+03 0.  0.
         13    1    3    3    0    0 -0.31056904528E+03 -0.51927552783E+02  0.55752817502E+03  0.64030248209E+03  0.00000000000E+00 0. -1.
          4    1    3    3  501    0  0.31056904528E+03  0.51927552783E+02  0.33928375403E+03  0.46288558886E+03  0.00000000000E+00 0. -1.
<mgrwt>
<rscale>  0 0.64245800E+03</rscale>
<asrwt>0</asrwt>
<pdfrwt beam="1">0</pdfrwt>
<pdfrwt beam="2">  1        2 0.37523014E+00 0.64245800E+03</pdfrwt>
<totfact> 0.49250301E+00</totfact>
</mgrwt>
</event>
<event>
 5    1  0.2381755E-004  0.6488671E+03  0.7818608E-02  0.9808907E-01
         13   -1    0    0    0    0  0.00000000000E+00  0.00000000000E+00  0.10000000000E+04  0.10000000000E+04  0.00000000000E+00 0. -1.
          2   -1    0    0  501    0 -0.00000000000E+00 -0.00000000000E+00 -0.10525712965E+03  0.10525712965E+03  0.00000000000E+00 0. -1.
    9000006    2    1    2  501    0  0.00000000000E+00  0.00000000000E+00  0.89474287035E+03  0.11052571296E+04  0.64886710396E+03 0.  0.
         13    1    3    3    0    0  0.95922829965E+02 -0.14846041220E+01 -0.80544412491E+02  0.12526290649E+03  0.00000000000E+00 0. -1.
          2    1    3    3  501    0 -0.95922829965E+02  0.14846041220E+01  0.97528728284E+03  0.97999422316E+03  0.00000000000E+00 0. -1.
<mgrwt>
<rscale>  0 0.64886710E+03</rscale>
<asrwt>0</asrwt>
<pdfrwt beam="1">0</pdfrwt>
<pdfrwt beam="2">  1        2 0.38275401E+00 0.64886710E+03</pdfrwt>
<totfact> 0.46180051E+00</totfact>
</mgrwt>
</event>
<event>
 5    1  0.2381755E-004  0.6562169E+03  0.7818608E-02  0.9795183E-01
         13   -1    0    0    0    0  0.00000000000E+00  0.00000000000E+00  0.10000000000E+04  0.10000000000E+04  0.00000000000E+00 0. -1.
          2   -1    0    0  501    0 -0.00000000000E+00 -0.00000000000E+00 -0.10765516667E+03  0.10765516667E+03  0.00000000000E+00 0. -1.
    9000006    2    1    2  501    0  0.00000000000E+00  0.00000000000E+00  0.89234483333E+03  0.11076551667E+04  0.65621693568E+03 0.  0.
         13    1    3    3    0    0  0.14921657041E+03 -0.17146076784E+03  0.46765640555E+02  0.23205905484E+03  0.00000000000E+00 0. -1.
          4    1    3    3  501    0 -0.14921657041E+03  0.17146076784E+03  0.84557919278E+03  0.87559611183E+03  0.00000000000E+00 0. -1.
<mgrwt>
<rscale>  0 0.65621694E+03</rscale>
<asrwt>0</asrwt>
<pdfrwt beam="1">0</pdfrwt>
<pdfrwt beam="2">  1        2 0.39147416E+00 0.65621694E+03</pdfrwt>
<totfact> 0.42839737E+00</totfact>
</mgrwt>
</event>
<event>
 5    1  0.2381755E-004  0.5855790E+03  0.7818608E-02  0.9935785E-01
         13   -1    0    0    0    0  0.00000000000E+00  0.00000000000E+00  0.10000000000E+04  0.10000000000E+04  0.00000000000E+00 0. -1.
          4   -1    0    0  501    0 -0.00000000000E+00 -0.00000000000E+00 -0.85725700193E+02  0.85725700193E+02  0.00000000000E+00 0. -1.
    9000006    2    1    2  501    0  0.00000000000E+00  0.00000000000E+00  0.91427429981E+03  0.10857257002E+04  0.58557903034E+03 0.  0.
         13    1    3    3    0    0  0.15673460450E+03 -0.19963719494E+03  0.18650779281E+03  0.31496968526E+03  0.00000000000E+00 0. -1.
          4    1    3    3  501    0 -0.15673460450E+03  0.19963719494E+03  0.72776650699E+03  0.77075601493E+03  0.00000000000E+00 0. -1.
<mgrwt>
<rscale>  0 0.58557903E+03</rscale>
<asrwt>0</asrwt>
<pdfrwt beam="1">0</pdfrwt>
<pdfrwt beam="2">  1        4 0.31173048E+00 0.58557903E+03</pdfrwt>
<totfact> 0.12065656E-01</totfact>
</mgrwt>
</event>
<event>
 5    1  0.2381755E-004  0.6503740E+03  0.7818608E-02  0.9806078E-01
         13   -1    0    0    0    0  0.00000000000E+00  0.00000000000E+00  0.10000000000E+04  0.10000000000E+04  0.00000000000E+00 0. -1.
          2   -1    0    0  501    0 -0.00000000000E+00 -0.00000000000E+00 -0.10574658158E+03  0.10574658158E+03  0.00000000000E+00 0. -1.
    9000006    2    1    2  501    0  0.00000000000E+00  0.00000000000E+00  0.89425341842E+03  0.11057465816E+04  0.65037398956E+03 0.  0.
         13    1    3    3    0    0 -0.12568313826E+03  0.20286862686E+03  0.71567386335E+02  0.24914618559E+03  0.00000000000E+00 0. -1.
          4    1    3    3  501    0  0.12568313826E+03 -0.20286862686E+03  0.82268603209E+03  0.85660039599E+03  0.00000000000E+00 0. -1.
<mgrwt>
<rscale>  0 0.65037399E+03</rscale>
<asrwt>0</asrwt>
<pdfrwt beam="1">0</pdfrwt>
<pdfrwt beam="2">  1        2 0.38453383E+00 0.65037399E+03</pdfrwt>
<totfact> 0.45479711E+00</totfact>
</mgrwt>
</event>
<event>
 5    1  0.2381755E-004  0.6607308E+03  0.7818608E-02  0.9786849E-01
         13   -1    0    0    0    0  0.00000000000E+00  0.00000000000E+00  0.10000000000E+04  0.10000000000E+04  0.00000000000E+00 0. -1.
          2   -1    0    0  501    0 -0.00000000000E+00 -0.00000000000E+00 -0.10914130098E+03  0.10914130098E+03  0.00000000000E+00 0. -1.
    9000006    2    1    2  501    0  0.00000000000E+00  0.00000000000E+00  0.89085869902E+03  0.11091413010E+04  0.66073081049E+03 0.  0.
         13    1    3    3    0    0  0.12422222545E+03 -0.25853380333E+03  0.17026036376E+03  0.33355581276E+03  0.00000000000E+00 0. -1.
          2    1    3    3  501    0 -0.12422222545E+03  0.25853380333E+03  0.72059833526E+03  0.77558548822E+03  0.00000000000E+00 0. -1.
<mgrwt>
<rscale>  0 0.66073081E+03</rscale>
<asrwt>0</asrwt>
<pdfrwt beam="1">0</pdfrwt>
<pdfrwt beam="2">  1        2 0.39687830E+00 0.66073081E+03</pdfrwt>
<totfact> 0.40880929E+00</totfact>
</mgrwt>
</event>
<event>
 5    1  0.2381755E-004  0.6362933E+03  0.7818608E-02  0.9832844E-01
         13   -1    0    0    0    0  0.00000000000E+00  0.00000000000E+00  0.10000000000E+04  0.10000000000E+04  0.00000000000E+00 0. -1.
          2   -1    0    0  501    0 -0.00000000000E+00 -0.00000000000E+00 -0.10121727694E+03  0.10121727694E+03  0.00000000000E+00 0. -1.
    9000006    2    1    2  501    0  0.00000000000E+00  0.00000000000E+00  0.89878272306E+03  0.11012172769E+04  0.63629325610E+03 0.  0.
         13    1    3    3    0    0  0.31537430952E+03  0.18782982193E+02  0.51422870580E+03  0.60352706434E+03  0.00000000000E+00 0. -1.
          2    1    3    3  501    0 -0.31537430952E+03 -0.18782982193E+02  0.38455401726E+03  0.49769021260E+03  0.00000000000E+00 0. -1.
<mgrwt>
<rscale>  0 0.63629326E+03</rscale>
<asrwt>0</asrwt>
<pdfrwt beam="1">0</pdfrwt>
<pdfrwt beam="2">  1        2 0.36806360E+00 0.63629326E+03</pdfrwt>
<totfact> 0.52347204E+00</totfact>
</mgrwt>
</event>
<event>
 5    1  0.2381755E-004  0.6314120E+03  0.7818608E-02  0.9842297E-01
         13   -1    0    0    0    0  0.00000000000E+00  0.00000000000E+00  0.10000000000E+04  0.10000000000E+04  0.00000000000E+00 0. -1.
          2   -1    0    0  501    0 -0.00000000000E+00 -0.00000000000E+00 -0.99670268601E+02  0.99670268601E+02  0.00000000000E+00 0. -1.
    9000006    2    1    2  501    0  0.00000000000E+00  0.00000000000E+00  0.90032973140E+03  0.10996702686E+04  0.63141196885E+03 0.  0.
         13    1    3    3    0    0  0.69919431996E+02  0.15322581407E+03  0.91522034659E+03  0.93058860937E+03  0.00000000000E+00 0. -1.
          2    1    3    3  501    0 -0.69919431996E+02 -0.15322581407E+03 -0.14890615191E+02  0.16908165924E+03  0.00000000000E+00 0. -1.
<mgrwt>
<rscale>  0 0.63141197E+03</rscale>
<asrwt>0</asrwt>
<pdfrwt beam="1">0</pdfrwt>
<pdfrwt beam="2">  1        2 0.36243810E+00 0.63141197E+03</pdfrwt>
<totfact> 0.54902254E+00</totfact>
</mgrwt>
</event>
<event>
 5    1  0.2381755E-004  0.6560314E+03  0.7818608E-02  0.9795527E-01
         13   -1    0    0    0    0  0.00000000000E+00  0.00000000000E+00  0.10000000000E+04  0.10000000000E+04  0.00000000000E+00 0. -1.
          2   -1    0    0  501    0 -0.00000000000E+00 -0.00000000000E+00 -0.10759428325E+03  0.10759428325E+03  0.00000000000E+00 0. -1.
    9000006    2    1    2  501    0  0.00000000000E+00  0.00000000000E+00  0.89240571675E+03  0.11075942832E+04  0.65603135061E+03 0.  0.
         13    1    3    3    0    0  0.35759893619E+02 -0.28908153759E+03  0.70084001874E+03  0.75896221068E+03  0.00000000000E+00 0. -1.
          2    1    3    3  501    0 -0.35759893619E+02  0.28908153759E+03  0.19156569801E+03  0.34863207257E+03  0.00000000000E+00 0. -1.
<mgrwt>
<rscale>  0 0.65603135E+03</rscale>
<asrwt>0</asrwt>
<pdfrwt beam="1">0</pdfrwt>
<pdfrwt beam="2">  1        2 0.39125276E+00 0.65603135E+03</pdfrwt>
<totfact> 0.42921764E+00</totfact>
</mgrwt>
</event>
<event>
 5    1  0.2381755E-004  0.7086512E+03  0.7818608E-02  0.9702551E-01
         13   -1    0    0    0    0  0.00000000000E+00  0.00000000000E+00  0.10000000000E+04  0.10000000000E+04  0.00000000000E+00 0. -1.
          2   -1    0    0  501    0 -0.00000000000E+00 -0.00000000000E+00 -0.12554661421E+03  0.12554661421E+03  0.00000000000E+00 0. -1.
    9000006    2    1    2  501    0  0.00000000000E+00  0.00000000000E+00  0.87445338579E+03  0.11255466142E+04  0.70865115313E+03 0.  0.
         13    1    3    3    0    0 -0.51603103976E+02  0.34612013392E+03  0.34901432439E+03  0.49423984671E+03  0.00000000000E+00 0. -1.
          2    1    3    3  501    0  0.51603103976E+02 -0.34612013392E+03  0.52543906140E+03  0.63130676750E+03  0.00000000000E+00 0. -1.
<mgrwt>
<rscale>  0 0.70865115E+03</rscale>
<asrwt>0</asrwt>
<pdfrwt beam="1">0</pdfrwt>
<pdfrwt beam="2">  1        2 0.45653411E+00 0.70865115E+03</pdfrwt>
<totfact> 0.23984749E+00</totfact>
</mgrwt>
</event>
<event>
 5    1  0.2381755E-004  0.6500008E+03  0.7818608E-02  0.9806778E-01
         13   -1    0    0    0    0  0.00000000000E+00  0.00000000000E+00  0.10000000000E+04  0.10000000000E+04  0.00000000000E+00 0. -1.
          2   -1    0    0  501    0 -0.00000000000E+00 -0.00000000000E+00 -0.10562525271E+03  0.10562525271E+03  0.00000000000E+00 0. -1.
    9000006    2    1    2  501    0  0.00000000000E+00  0.00000000000E+00  0.89437474729E+03  0.11056252527E+04  0.65000077755E+03 0.  0.
         13    1    3    3    0    0  0.26080273516E+02 -0.16112502432E+03 -0.30851353764E+02  0.16611219148E+03  0.00000000000E+00 0. -1.
          2    1    3    3  501    0 -0.26080273516E+02  0.16112502432E+03  0.92522610106E+03  0.93951306122E+03  0.00000000000E+00 0. -1.
<mgrwt>
<rscale>  0 0.65000078E+03</rscale>
<asrwt>0</asrwt>
<pdfrwt beam="1">0</pdfrwt>
<pdfrwt beam="2">  1        2 0.38409264E+00 0.65000078E+03</pdfrwt>
<totfact> 0.45652412E+00</totfact>
</mgrwt>
</event>
<event>
 5    1  0.2381755E-004  0.6559193E+03  0.7818608E-02  0.9795735E-01
         13   -1    0    0    0    0  0.00000000000E+00  0.00000000000E+00  0.10000000000E+04  0.10000000000E+04  0.00000000000E+00 0. -1.
          2   -1    0    0  501    0 -0.00000000000E+00 -0.00000000000E+00 -0.10755753052E+03  0.10755753052E+03  0.00000000000E+00 0. -1.
    9000006    2    1    2  501    0  0.00000000000E+00  0.00000000000E+00  0.89244246948E+03  0.11075575305E+04  0.65591929539E+03 0.  0.
         13    1    3    3    0    0 -0.25011375359E+03  0.21213246392E+03  0.44736464252E+03  0.55470009498E+03  0.00000000000E+00 0. -1.
          4    1    3    3  501    0  0.25011375359E+03 -0.21213246392E+03  0.44507782696E+03  0.55285743554E+03  0.00000000000E+00 0. -1.
<mgrwt>
<rscale>  0 0.65591930E+03</rscale>
<asrwt>0</asrwt>
<pdfrwt beam="1">0</pdfrwt>
<pdfrwt beam="2">  1        2 0.39111912E+00 0.65591930E+03</pdfrwt>
<totfact> 0.42971349E+00</totfact>
</mgrwt>
</event>
<event>
 5    1  0.2381755E-004  0.6680431E+03  0.7818608E-02  0.9773499E-01
         13   -1    0    0    0    0  0.00000000000E+00  0.00000000000E+00  0.10000000000E+04  0.10000000000E+04  0.00000000000E+00 0. -1.
          2   -1    0    0  501    0 -0.00000000000E+00 -0.00000000000E+00 -0.11157040953E+03  0.11157040953E+03  0.00000000000E+00 0. -1.
    9000006    2    1    2  501    0  0.00000000000E+00  0.00000000000E+00  0.88842959047E+03  0.11115704095E+04  0.66804314091E+03 0.  0.
         13    1    3    3    0    0  0.86984207623E+02  0.31771648035E+03  0.53626425176E+03  0.62935630765E+03  0.00000000000E+00 0. -1.
          4    1    3    3  501    0 -0.86984207623E+02 -0.31771648035E+03  0.35216533871E+03  0.48221410188E+03  0.00000000000E+00 0. -1.
<mgrwt>
<rscale>  0 0.66804314E+03</rscale>
<asrwt>0</asrwt>
<pdfrwt beam="1">0</pdfrwt>
<pdfrwt beam="2">  1        2 0.40571144E+00 0.66804314E+03</pdfrwt>
<totfact> 0.37852170E+00</totfact>
</mgrwt>
</event>
<event>
 5    1  0.2381755E-004  0.5115443E+03  0.7818608E-02  0.1010809E+00
         13   -1    0    0    0    0  0.00000000000E+00  0.00000000000E+00  0.10000000000E+04  0.10000000000E+04  0.00000000000E+00 0. -1.
          2   -1    0    0  501    0 -0.00000000000E+00 -0.00000000000E+00 -0.65419388055E+02  0.65419388055E+02  0.00000000000E+00 0. -1.
    9000006    2    1    2  501    0  0.00000000000E+00  0.00000000000E+00  0.93458061195E+03  0.10654193881E+04  0.51154428178E+03 0.  0.
         13    1    3    3    0    0 -0.40935073862E+02  0.32591171330E+02  0.98873365512E+03  0.99011721806E+03  0.00000000000E+00 0. -1.
          2    1    3    3  501    0  0.40935073862E+02 -0.32591171330E+02 -0.54153043179E+02  0.75302169997E+02  0.00000000000E+00 0. -1.
<mgrwt>
<rscale>  0 0.51154428E+03</rscale>
<asrwt>0</asrwt>
<pdfrwt beam="1">0</pdfrwt>
<pdfrwt beam="2">  1        2 0.23788919E+00 0.51154428E+03</pdfrwt>
<totfact> 0.15414480E+01</totfact>
</mgrwt>
</event>
<event>
 5    1  0.2381755E-004  0.6499464E+03  0.7818608E-02  0.9806880E-01
         13   -1    0    0    0    0  0.00000000000E+00  0.00000000000E+00  0.10000000000E+04  0.10000000000E+04  0.00000000000E+00 0. -1.
          2   -1    0    0  501    0 -0.00000000000E+00 -0.00000000000E+00 -0.10560758515E+03  0.10560758515E+03  0.00000000000E+00 0. -1.
    9000006    2    1    2  501    0  0.00000000000E+00  0.00000000000E+00  0.89439241485E+03  0.11056075851E+04  0.64994641362E+03 0.  0.
         13    1    3    3    0    0 -0.14626930790E+03 -0.27573845774E+03  0.60105820590E+03  0.67727200916E+03  0.00000000000E+00 0. -1.
          4    1    3    3  501    0  0.14626930790E+03  0.27573845774E+03  0.29333420895E+03  0.42833557598E+03  0.00000000000E+00 0. -1.
<mgrwt>
<rscale>  0 0.64994641E+03</rscale>
<asrwt>0</asrwt>
<pdfrwt beam="1">0</pdfrwt>
<pdfrwt beam="2">  1        2 0.38402839E+00 0.64994641E+03</pdfrwt>
<totfact> 0.45677610E+00</totfact>
</mgrwt>
</event>
<event>
 5    1  0.2381755E-004  0.6530098E+03  0.7818608E-02  0.9801148E-01
         13   -1    0    0    0    0  0.00000000000E+00  0.00000000000E+00  0.10000000000E+04  0.10000000000E+04  0.00000000000E+00 0. -1.
          2   -1    0    0  501    0 -0.00000000000E+00 -0.00000000000E+00 -0.10660544546E+03  0.10660544546E+03  0.00000000000E+00 0. -1.
    9000006    2    1    2  501    0  0.00000000000E+00  0.00000000000E+00  0.89339455454E+03  0.11066054455E+04  0.65300978693E+03 0.  0.
         13    1    3    3    0    0 -0.20206721443E+03 -0.18449587560E+03  0.74858550892E+03  0.79702581603E+03  0.00000000000E+00 0. -1.
          2    1    3    3  501    0  0.20206721443E+03  0.18449587560E+03  0.14480904563E+03  0.30957962943E+03  0.00000000000E+00 0. -1.
<mgrwt>
<rscale>  0 0.65300979E+03</rscale>
<asrwt>0</asrwt>
<pdfrwt beam="1">0</pdfrwt>
<pdfrwt beam="2">  1        2 0.38765698E+00 0.65300979E+03</pdfrwt>
<totfact> 0.44274029E+00</totfact>
</mgrwt>
</event>
<event>
 5    1  0.2381755E-004  0.7513121E+03  0.7818608E-02  0.9633294E-01
         13   -1    0    0    0    0  0.00000000000E+00  0.00000000000E+00  0.10000000000E+04  0.10000000000E+04  0.00000000000E+00 0. -1.
          2   -1    0    0  501    0 -0.00000000000E+00 -0.00000000000E+00 -0.14111745939E+03  0.14111745939E+03  0.00000000000E+00 0. -1.
    9000006    2    1    2  501    0  0.00000000000E+00  0.00000000000E+00  0.85888254061E+03  0.11411174594E+04  0.75131207734E+03 0.  0.
         13    1    3    3    0    0 -0.30422899451E+03  0.16889242274E+03  0.64443809674E+03  0.73237995064E+03  0.00000000000E+00 0. -1.
          2    1    3    3  501    0  0.30422899451E+03 -0.16889242274E+03  0.21444444386E+03  0.40873750875E+03  0.00000000000E+00 0. -1.
<mgrwt>
<rscale>  0 0.75131208E+03</rscale>
<asrwt>0</asrwt>
<pdfrwt beam="1">0</pdfrwt>
<pdfrwt beam="2">  1        2 0.51315548E+00 0.75131208E+03</pdfrwt>
<totfact> 0.13948489E+00</totfact>
</mgrwt>
</event>
<event>
 5    1  0.2381755E-004  0.6587655E+03  0.7818608E-02  0.9790469E-01
         13   -1    0    0    0    0  0.00000000000E+00  0.00000000000E+00  0.10000000000E+04  0.10000000000E+04  0.00000000000E+00 0. -1.
          2   -1    0    0  501    0 -0.00000000000E+00 -0.00000000000E+00 -0.10849300386E+03  0.10849300386E+03  0.00000000000E+00 0. -1.
    9000006    2    1    2  501    0  0.00000000000E+00  0.00000000000E+00  0.89150699614E+03  0.11084930039E+04  0.65876552386E+03 0.  0.
         13    1    3    3    0    0  0.24883817462E+03 -0.17829412763E+03  0.65034835099E+03  0.71879218884E+03  0.00000000000E+00 0. -1.
          2    1    3    3  501    0 -0.24883817462E+03  0.17829412763E+03  0.24115864515E+03  0.38970081502E+03  0.00000000000E+00 0. -1.
<mgrwt>
<rscale>  0 0.65876552E+03</rscale>
<asrwt>0</asrwt>
<pdfrwt beam="1">0</pdfrwt>
<pdfrwt beam="2">  1        2 0.39452085E+00 0.65876552E+03</pdfrwt>
<totfact> 0.41725236E+00</totfact>
</mgrwt>
</event>
<event>
 5    1  0.2381755E-004  0.6470588E+03  0.7818608E-02  0.9812314E-01
         13   -1    0    0    0    0  0.00000000000E+00  0.00000000000E+00  0.10000000000E+04  0.10000000000E+04  0.00000000000E+00 0. -1.
          2   -1    0    0  501    0 -0.00000000000E+00 -0.00000000000E+00 -0.10467128528E+03  0.10467128528E+03  0.00000000000E+00 0. -1.
    9000006    2    1    2  501    0  0.00000000000E+00  0.00000000000E+00  0.89532871472E+03  0.11046712853E+04  0.64705883900E+03 0.  0.
         13    1    3    3    0    0  0.16676972248E+03 -0.21074820071E+03  0.75517402126E+03  0.80157017586E+03  0.00000000000E+00 0. -1.
          2    1    3    3  501    0 -0.16676972248E+03  0.21074820071E+03  0.14015469346E+03  0.30310110942E+03  0.00000000000E+00 0. -1.
<mgrwt>
<rscale>  0 0.64705884E+03</rscale>
<asrwt>0</asrwt>
<pdfrwt beam="1">0</pdfrwt>
<pdfrwt beam="2">  1        2 0.38062366E+00 0.64705884E+03</pdfrwt>
<totfact> 0.47031188E+00</totfact>
</mgrwt>
</event>
<event>
 5    1  0.2381755E-004  0.6312695E+03  0.7818608E-02  0.9842575E-01
         13   -1    0    0    0    0  0.00000000000E+00  0.00000000000E+00  0.10000000000E+04  0.10000000000E+04  0.00000000000E+00 0. -1.
          2   -1    0    0  501    0 -0.00000000000E+00 -0.00000000000E+00 -0.99625295606E+02  0.99625295606E+02  0.00000000000E+00 0. -1.
    9000006    2    1    2  501    0  0.00000000000E+00  0.00000000000E+00  0.90037470439E+03  0.10996252956E+04  0.63126950063E+03 0.  0.
         13    1    3    3    0    0  0.23823544324E+03 -0.16800474229E+03  0.66097904121E+03  0.72240917268E+03  0.00000000000E+00 0. -1.
          2    1    3    3  501    0 -0.23823544324E+03  0.16800474229E+03  0.23939566318E+03  0.37721612293E+03  0.00000000000E+00 0. -1.
<mgrwt>
<rscale>  0 0.63126950E+03</rscale>
<asrwt>0</asrwt>
<pdfrwt beam="1">0</pdfrwt>
<pdfrwt beam="2">  1        2 0.36227457E+00 0.63126950E+03</pdfrwt>
<totfact> 0.54978220E+00</totfact>
</mgrwt>
</event>
<event>
 5    1  0.2381755E-004  0.6652730E+03  0.7818608E-02  0.9778535E-01
         13   -1    0    0    0    0  0.00000000000E+00  0.00000000000E+00  0.10000000000E+04  0.10000000000E+04  0.00000000000E+00 0. -1.
          2   -1    0    0  501    0 -0.00000000000E+00 -0.00000000000E+00 -0.11064704417E+03  0.11064704417E+03  0.00000000000E+00 0. -1.
    9000006    2    1    2  501    0  0.00000000000E+00  0.00000000000E+00  0.88935295583E+03  0.11106470442E+04  0.66527300912E+03 0.  0.
         13    1    3    3    0    0  0.13996151616E+03  0.19530795328E+03  0.60654747093E+02  0.24781731369E+03  0.00000000000E+00 0. -1.
          2    1    3    3  501    0 -0.13996151616E+03 -0.19530795328E+03  0.82869820874E+03  0.86282973047E+03  0.00000000000E+00 0. -1.
<mgrwt>
<rscale>  0 0.66527301E+03</rscale>
<asrwt>0</asrwt>
<pdfrwt beam="1">0</pdfrwt>
<pdfrwt beam="2">  1        2 0.40235374E+00 0.66527301E+03</pdfrwt>
<totfact> 0.38978904E+00</totfact>
</mgrwt>
</event>
<event>
 5    1  0.2381755E-004  0.6473537E+03  0.7818608E-02  0.9811758E-01
         13   -1    0    0    0    0  0.00000000000E+00  0.00000000000E+00  0.10000000000E+04  0.10000000000E+04  0.00000000000E+00 0. -1.
          2   -1    0    0  501    0 -0.00000000000E+00 -0.00000000000E+00 -0.10476669971E+03  0.10476669971E+03  0.00000000000E+00 0. -1.
    9000006    2    1    2  501    0  0.00000000000E+00  0.00000000000E+00  0.89523330029E+03  0.11047666997E+04  0.64735368913E+03 0.  0.
         13    1    3    3    0    0 -0.26567917947E+03  0.15950421198E+03  0.60715926482E+03  0.68166662885E+03  0.00000000000E+00 0. -1.
          2    1    3    3  501    0  0.26567917947E+03 -0.15950421198E+03  0.28807403548E+03  0.42310007085E+03  0.00000000000E+00 0. -1.
<mgrwt>
<rscale>  0 0.64735369E+03</rscale>
<asrwt>0</asrwt>
<pdfrwt beam="1">0</pdfrwt>
<pdfrwt beam="2">  1        2 0.38097062E+00 0.64735369E+03</pdfrwt>
<totfact> 0.46891601E+00</totfact>
</mgrwt>
</event>
<event>
 5    1  0.2381755E-004  0.6459643E+03  0.7818608E-02  0.9814381E-01
         13   -1    0    0    0    0  0.00000000000E+00  0.00000000000E+00  0.10000000000E+04  0.10000000000E+04  0.00000000000E+00 0. -1.
          2   -1    0    0  501    0 -0.00000000000E+00 -0.00000000000E+00 -0.10431747059E+03  0.10431747059E+03  0.00000000000E+00 0. -1.
    9000006    2    1    2  501    0  0.00000000000E+00  0.00000000000E+00  0.89568252941E+03  0.11043174706E+04  0.64596430424E+03 0.  0.
         13    1    3    3    0    0  0.28144035929E+02  0.26638544667E+03  0.13934104283E+03  0.30194241035E+03  0.00000000000E+00 0. -1.
          2    1    3    3  501    0 -0.28144035929E+02 -0.26638544667E+03  0.75634148659E+03  0.80237506023E+03  0.00000000000E+00 0. -1.
<mgrwt>
<rscale>  0 0.64596430E+03</rscale>
<asrwt>0</asrwt>
<pdfrwt beam="1">0</pdfrwt>
<pdfrwt beam="2">  1        2 0.37933706E+00 0.64596430E+03</pdfrwt>
<totfact> 0.47552107E+00</totfact>
</mgrwt>
</event>
<event>
 5    1  0.2381755E-004  0.6873442E+03  0.7818608E-02  0.9739124E-01
         13   -1    0    0    0    0  0.00000000000E+00  0.00000000000E+00  0.10000000000E+04  0.10000000000E+04  0.00000000000E+00 0. -1.
          2   -1    0    0  501    0 -0.00000000000E+00 -0.00000000000E+00 -0.11811049702E+03  0.11811049702E+03  0.00000000000E+00 0. -1.
    9000006    2    1    2  501    0  0.00000000000E+00  0.00000000000E+00  0.88188950298E+03  0.11181104970E+04  0.68734415550E+03 0.  0.
         13    1    3    3    0    0 -0.24817940834E+03 -0.89810298251E+02  0.79901191105E+03  0.84147426722E+03  0.00000000000E+00 0. -1.
          4    1    3    3  501    0  0.24817940834E+03  0.89810298251E+02  0.82877591925E+02  0.27663622980E+03  0.00000000000E+00 0. -1.
<mgrwt>
<rscale>  0 0.68734416E+03</rscale>
<asrwt>0</asrwt>
<pdfrwt beam="1">0</pdfrwt>
<pdfrwt beam="2">  1        2 0.42949362E+00 0.68734416E+03</pdfrwt>
<totfact> 0.30667946E+00</totfact>
</mgrwt>
</event>
<event>
 5    1  0.2381755E-004  0.6487587E+03  0.7818608E-02  0.9809111E-01
         13   -1    0    0    0    0  0.00000000000E+00  0.00000000000E+00  0.10000000000E+04  0.10000000000E+04  0.00000000000E+00 0. -1.
          2   -1    0    0  501    0 -0.00000000000E+00 -0.00000000000E+00 -0.10522196888E+03  0.10522196888E+03  0.00000000000E+00 0. -1.
    9000006    2    1    2  501    0  0.00000000000E+00  0.00000000000E+00  0.89477803112E+03  0.11052219689E+04  0.64875871902E+03 0.  0.
         13    1    3    3    0    0  0.62855482412E+02  0.23705679542E+03  0.80907800760E+03  0.84543122624E+03  0.00000000000E+00 0. -1.
          4    1    3    3  501    0 -0.62855482412E+02 -0.23705679542E+03  0.85700023522E+02  0.25979074263E+03  0.00000000000E+00 0. -1.
<mgrwt>
<rscale>  0 0.64875872E+03</rscale>
<asrwt>0</asrwt>
<pdfrwt beam="1">0</pdfrwt>
<pdfrwt beam="2">  1        2 0.38262615E+00 0.64875872E+03</pdfrwt>
<totfact> 0.46230737E+00</totfact>
</mgrwt>
</event>
<event>
 5    1  0.2381755E-004  0.6568266E+03  0.7818608E-02  0.9794053E-01
         13   -1    0    0    0    0  0.00000000000E+00  0.00000000000E+00  0.10000000000E+04  0.10000000000E+04  0.00000000000E+00 0. -1.
          2   -1    0    0  501    0 -0.00000000000E+00 -0.00000000000E+00 -0.10785530340E+03  0.10785530340E+03  0.00000000000E+00 0. -1.
    9000006    2    1    2  501    0  0.00000000000E+00  0.00000000000E+00  0.89214469660E+03  0.11078553034E+04  0.65682662370E+03 0.  0.
         13    1    3    3    0    0 -0.27525138853E+03 -0.17577811828E+03  0.38778962345E+03  0.50699316150E+03  0.00000000000E+00 0. -1.
          2    1    3    3  501    0  0.27525138853E+03  0.17577811828E+03  0.50435507315E+03  0.60086214190E+03  0.00000000000E+00 0. -1.
<mgrwt>
<rscale>  0 0.65682662E+03</rscale>
<asrwt>0</asrwt>
<pdfrwt beam="1">0</pdfrwt>
<pdfrwt beam="2">  1        2 0.39220193E+00 0.65682662E+03</pdfrwt>
<totfact> 0.42571094E+00</totfact>
</mgrwt>
</event>
<event>
 5    1  0.2381755E-004  0.6447839E+03  0.7818608E-02  0.9816616E-01
         13   -1    0    0    0    0  0.00000000000E+00  0.00000000000E+00  0.10000000000E+04  0.10000000000E+04  0.00000000000E+00 0. -1.
          2   -1    0    0  501    0 -0.00000000000E+00 -0.00000000000E+00 -0.10393658158E+03  0.10393658158E+03  0.00000000000E+00 0. -1.
    9000006    2    1    2  501    0  0.00000000000E+00  0.00000000000E+00  0.89606341842E+03  0.11039365816E+04  0.64478393771E+03 0.  0.
         13    1    3    3    0    0  0.55000253793E+02 -0.11903703222E+03  0.95227946752E+03  0.96126532613E+03  0.00000000000E+00 0. -1.
          4    1    3    3  501    0 -0.55000253793E+02  0.11903703222E+03 -0.56216049100E+02  0.14267125545E+03  0.00000000000E+00 0. -1.
<mgrwt>
<rscale>  0 0.64478394E+03</rscale>
<asrwt>0</asrwt>
<pdfrwt beam="1">0</pdfrwt>
<pdfrwt beam="2">  1        2 0.37795200E+00 0.64478394E+03</pdfrwt>
<totfact> 0.48118756E+00</totfact>
</mgrwt>
</event>
<event>
 5    1  0.2381755E-004  0.6685112E+03  0.7818608E-02  0.9772651E-01
         13   -1    0    0    0    0  0.00000000000E+00  0.00000000000E+00  0.10000000000E+04  0.10000000000E+04  0.00000000000E+00 0. -1.
          2   -1    0    0  501    0 -0.00000000000E+00 -0.00000000000E+00 -0.11172679751E+03  0.11172679751E+03  0.00000000000E+00 0. -1.
    9000006    2    1    2  501    0  0.00000000000E+00  0.00000000000E+00  0.88827320249E+03  0.11117267975E+04  0.66851117420E+03 0.  0.
         13    1    3    3    0    0  0.98752980520E+01  0.29845252531E+03  0.69389168892E+03  0.75541849814E+03  0.00000000000E+00 0. -1.
          4    1    3    3  501    0 -0.98752980520E+01 -0.29845252531E+03  0.19438151357E+03  0.35630829936E+03  0.00000000000E+00 0. -1.
<mgrwt>
<rscale>  0 0.66851117E+03</rscale>
<asrwt>0</asrwt>
<pdfrwt beam="1">0</pdfrwt>
<pdfrwt beam="2">  1        2 0.40628012E+00 0.66851117E+03</pdfrwt>
<totfact> 0.37664252E+00</totfact>
</mgrwt>
</event>
<event>
 5    1  0.2381755E-004  0.6557723E+03  0.7818608E-02  0.9796008E-01
         13   -1    0    0    0    0  0.00000000000E+00  0.00000000000E+00  0.10000000000E+04  0.10000000000E+04  0.00000000000E+00 0. -1.
          2   -1    0    0  501    0 -0.00000000000E+00 -0.00000000000E+00 -0.10750931488E+03  0.10750931488E+03  0.00000000000E+00 0. -1.
    9000006    2    1    2  501    0  0.00000000000E+00  0.00000000000E+00  0.89249068512E+03  0.11075093149E+04  0.65577226194E+03 0.  0.
         13    1    3    3    0    0 -0.13226134043E+03 -0.26190540622E+03  0.69343052623E+03  0.75294979825E+03  0.00000000000E+00 0. -1.
          2    1    3    3  501    0  0.13226134043E+03  0.26190540622E+03  0.19906015888E+03  0.35455951663E+03  0.00000000000E+00 0. -1.
<mgrwt>
<rscale>  0 0.65577226E+03</rscale>
<asrwt>0</asrwt>
<pdfrwt beam="1">0</pdfrwt>
<pdfrwt beam="2">  1        2 0.39094379E+00 0.65577226E+03</pdfrwt>
<totfact> 0.43036477E+00</totfact>
</mgrwt>
</event>
<event>
 5    1  0.2381755E-004  0.6365694E+03  0.7818608E-02  0.9832312E-01
         13   -1    0    0    0    0  0.00000000000E+00  0.00000000000E+00  0.10000000000E+04  0.10000000000E+04  0.00000000000E+00 0. -1.
          2   -1    0    0  501    0 -0.00000000000E+00 -0.00000000000E+00 -0.10130514439E+03  0.10130514439E+03  0.00000000000E+00 0. -1.
    9000006    2    1    2  501    0  0.00000000000E+00  0.00000000000E+00  0.89869485561E+03  0.11013051444E+04  0.63656938159E+03 0.  0.
         13    1    3    3    0    0 -0.18909506035E+03  0.94624068251E+02  0.86092243162E+03  0.88650893364E+03  0.00000000000E+00 0. -1.
          4    1    3    3  501    0  0.18909506035E+03 -0.94624068251E+02  0.37772423981E+02  0.21479621076E+03  0.00000000000E+00 0. -1.
<mgrwt>
<rscale>  0 0.63656938E+03</rscale>
<asrwt>0</asrwt>
<pdfrwt beam="1">0</pdfrwt>
<pdfrwt beam="2">  1        2 0.36838312E+00 0.63656938E+03</pdfrwt>
<totfact> 0.52205416E+00</totfact>
</mgrwt>
</event>
<event>
 5    1  0.2381755E-004  0.6494294E+03  0.7818608E-02  0.9807851E-01
         13   -1    0    0    0    0  0.00000000000E+00  0.00000000000E+00  0.10000000000E+04  0.10000000000E+04  0.00000000000E+00 0. -1.
          2   -1    0    0  501    0 -0.00000000000E+00 -0.00000000000E+00 -0.10543962188E+03  0.10543962188E+03  0.00000000000E+00 0. -1.
    9000006    2    1    2  501    0  0.00000000000E+00  0.00000000000E+00  0.89456037812E+03  0.11054396219E+04  0.64942935529E+03 0.  0.
         13    1    3    3    0    0  0.22966000983E+03  0.22588023731E+03  0.51692414839E+03  0.60907813695E+03  0.00000000000E+00 0. -1.
          4    1    3    3  501    0 -0.22966000983E+03 -0.22588023731E+03  0.37763622973E+03  0.49636148493E+03  0.00000000000E+00 0. -1.
<mgrwt>
<rscale>  0 0.64942936E+03</rscale>
<asrwt>0</asrwt>
<pdfrwt beam="1">0</pdfrwt>
<pdfrwt beam="2">  1        2 0.38341762E+00 0.64942936E+03</pdfrwt>
<totfact> 0.45917793E+00</totfact>
</mgrwt>
</event>
<event>
 5    1  0.2381755E-004  0.6296739E+03  0.7818608E-02  0.9845685E-01
         13   -1    0    0    0    0  0.00000000000E+00  0.00000000000E+00  0.10000000000E+04  0.10000000000E+04  0.00000000000E+00 0. -1.
          2   -1    0    0  501    0 -0.00000000000E+00 -0.00000000000E+00 -0.99122306207E+02  0.99122306207E+02  0.00000000000E+00 0. -1.
    9000006    2    1    2  501    0  0.00000000000E+00  0.00000000000E+00  0.90087769379E+03  0.10991223062E+04  0.62967390356E+03 0.  0.
         13    1    3    3    0    0 -0.84206530044E+02 -0.13153079369E+03 -0.26740187521E+02  0.15844913070E+03  0.00000000000E+00 0. -1.
          2    1    3    3  501    0  0.84206530044E+02  0.13153079369E+03  0.92761788131E+03  0.94067317551E+03  0.00000000000E+00 0. -1.
<mgrwt>
<rscale>  0 0.62967390E+03</rscale>
<asrwt>0</asrwt>
<pdfrwt beam="1">0</pdfrwt>
<pdfrwt beam="2">  1        2 0.36044551E+00 0.62967390E+03</pdfrwt>
<totfact> 0.55834479E+00</totfact>
</mgrwt>
</event>
<event>
 5    1  0.2381755E-004  0.6537382E+03  0.7818608E-02  0.9799790E-01
         13   -1    0    0    0    0  0.00000000000E+00  0.00000000000E+00  0.10000000000E+04  0.10000000000E+04  0.00000000000E+00 0. -1.
          2   -1    0    0  501    0 -0.00000000000E+00 -0.00000000000E+00 -0.10684339468E+03  0.10684339468E+03  0.00000000000E+00 0. -1.
    9000006    2    1    2  501    0  0.00000000000E+00  0.00000000000E+00  0.89315660532E+03  0.11068433947E+04  0.65373815761E+03 0.  0.
         13    1    3    3    0    0  0.10036939895E+03 -0.12909211104E+03 -0.32615381479E+02  0.16674097424E+03  0.00000000000E+00 0. -1.
          4    1    3    3  501    0 -0.10036939895E+03  0.12909211104E+03  0.92577198680E+03  0.94010242044E+03  0.00000000000E+00 0. -1.
<mgrwt>
<rscale>  0 0.65373816E+03</rscale>
<asrwt>0</asrwt>
<pdfrwt beam="1">0</pdfrwt>
<pdfrwt beam="2">  1        2 0.38852225E+00 0.65373816E+03</pdfrwt>
<totfact> 0.43945153E+00</totfact>
</mgrwt>
</event>
<event>
 5    1  0.2381755E-004  0.6560284E+03  0.7818608E-02  0.9795533E-01
         13   -1    0    0    0    0  0.00000000000E+00  0.00000000000E+00  0.10000000000E+04  0.10000000000E+04  0.00000000000E+00 0. -1.
          2   -1    0    0  501    0 -0.00000000000E+00 -0.00000000000E+00 -0.10759330887E+03  0.10759330887E+03  0.00000000000E+00 0. -1.
    9000006    2    1    2  501    0  0.00000000000E+00  0.00000000000E+00  0.89240669113E+03  0.11075933089E+04  0.65602838009E+03 0.  0.
         13    1    3    3    0    0  0.11447837597E+03 -0.53243320286E+02 -0.64926705581E+02  0.14197051390E+03  0.00000000000E+00 0. -1.
          4    1    3    3  501    0 -0.11447837597E+03  0.53243320286E+02  0.95733339671E+03  0.96562279497E+03  0.00000000000E+00 0. -1.
<mgrwt>
<rscale>  0 0.65602838E+03</rscale>
<asrwt>0</asrwt>
<pdfrwt beam="1">0</pdfrwt>
<pdfrwt beam="2">  1        2 0.39124922E+00 0.65602838E+03</pdfrwt>
<totfact> 0.42923078E+00</totfact>
</mgrwt>
</event>
<event>
 5    1  0.2381755E-004  0.7041781E+03  0.7818608E-02  0.9710114E-01
         13   -1    0    0    0    0  0.00000000000E+00  0.00000000000E+00  0.10000000000E+04  0.10000000000E+04  0.00000000000E+00 0. -1.
          2   -1    0    0  501    0 -0.00000000000E+00 -0.00000000000E+00 -0.12396668684E+03  0.12396668684E+03  0.00000000000E+00 0. -1.
    9000006    2    1    2  501    0  0.00000000000E+00  0.00000000000E+00  0.87603331316E+03  0.11239666868E+04  0.70417806510E+03 0.  0.
         13    1    3    3    0    0 -0.11272155892E+03 -0.33180014479E+03  0.38343892005E+03  0.51944479142E+03  0.00000000000E+00 0. -1.
          4    1    3    3  501    0  0.11272155892E+03  0.33180014479E+03  0.49259439311E+03  0.60452189542E+03  0.00000000000E+00 0. -1.
<mgrwt>
<rscale>  0 0.70417807E+03</rscale>
<asrwt>0</asrwt>
<pdfrwt beam="1">0</pdfrwt>
<pdfrwt beam="2">  1        2 0.45078890E+00 0.70417807E+03</pdfrwt>
<totfact> 0.25286597E+00</totfact>
</mgrwt>
</event>
<event>
 5    1  0.2381755E-004  0.6535171E+03  0.7818608E-02  0.9800202E-01
         13   -1    0    0    0    0  0.00000000000E+00  0.00000000000E+00  0.10000000000E+04  0.10000000000E+04  0.00000000000E+00 0. -1.
          2   -1    0    0  501    0 -0.00000000000E+00 -0.00000000000E+00 -0.10677115915E+03  0.10677115915E+03  0.00000000000E+00 0. -1.
    9000006    2    1    2  501    0  0.00000000000E+00  0.00000000000E+00  0.89322884085E+03  0.11067711592E+04  0.65351712802E+03 0.  0.
         13    1    3    3    0    0  0.18608762147E+03 -0.12554034466E+03  0.84874933711E+03  0.87793189841E+03  0.00000000000E+00 0. -1.
          2    1    3    3  501    0 -0.18608762147E+03  0.12554034466E+03  0.44479503734E+02  0.22883926074E+03  0.00000000000E+00 0. -1.
<mgrwt>
<rscale>  0 0.65351713E+03</rscale>
<asrwt>0</asrwt>
<pdfrwt beam="1">0</pdfrwt>
<pdfrwt beam="2">  1        2 0.38825958E+00 0.65351713E+03</pdfrwt>
<totfact> 0.44044757E+00</totfact>
</mgrwt>
</event>
<event>
 5    1  0.2381755E-004  0.6531404E+03  0.7818608E-02  0.9800904E-01
         13   -1    0    0    0    0  0.00000000000E+00  0.00000000000E+00  0.10000000000E+04  0.10000000000E+04  0.00000000000E+00 0. -1.
          2   -1    0    0  501    0 -0.00000000000E+00 -0.00000000000E+00 -0.10664808130E+03  0.10664808130E+03  0.00000000000E+00 0. -1.
    9000006    2    1    2  501    0  0.00000000000E+00  0.00000000000E+00  0.89335191870E+03  0.11066480813E+04  0.65314035642E+03 0.  0.
         13    1    3    3    0    0 -0.17329683614E+03  0.23284484994E+03  0.19309140559E+03  0.34861555971E+03  0.00000000000E+00 0. -1.
          2    1    3    3  501    0  0.17329683614E+03 -0.23284484994E+03  0.70026051311E+03  0.75803252159E+03  0.00000000000E+00 0. -1.
<mgrwt>
<rscale>  0 0.65314036E+03</rscale>
<asrwt>0</asrwt>
<pdfrwt beam="1">0</pdfrwt>
<pdfrwt beam="2">  1        2 0.38781202E+00 0.65314036E+03</pdfrwt>
<totfact> 0.44214937E+00</totfact>
</mgrwt>
</event>
<event>
 5    1  0.2381755E-004  0.6680652E+03  0.7818608E-02  0.9773459E-01
         13   -1    0    0    0    0  0.00000000000E+00  0.00000000000E+00  0.10000000000E+04  0.10000000000E+04  0.00000000000E+00 0. -1.
          2   -1    0    0  501    0 -0.00000000000E+00 -0.00000000000E+00 -0.11157776704E+03  0.11157776704E+03  0.00000000000E+00 0. -1.
    9000006    2    1    2  501    0  0.00000000000E+00  0.00000000000E+00  0.88842223296E+03  0.11115777670E+04  0.66806516760E+03 0.  0.
         13    1    3    3    0    0  0.50472495175E+02  0.32920043299E+03  0.48687159236E+03  0.58988502719E+03  0.00000000000E+00 0. -1.
          2    1    3    3  501    0 -0.50472495175E+02 -0.32920043299E+03  0.40155064060E+03  0.52169273985E+03  0.00000000000E+00 0. -1.
<mgrwt>
<rscale>  0 0.66806517E+03</rscale>
<asrwt>0</asrwt>
<pdfrwt beam="1">0</pdfrwt>
<pdfrwt beam="2">  1        2 0.40573819E+00 0.66806517E+03</pdfrwt>
<totfact> 0.37843310E+00</totfact>
</mgrwt>
</event>
<event>
 5    1  0.2381755E-004  0.6607123E+03  0.7818608E-02  0.9786883E-01
         13   -1    0    0    0    0  0.00000000000E+00  0.00000000000E+00  0.10000000000E+04  0.10000000000E+04  0.00000000000E+00 0. -1.
          2   -1    0    0  501    0 -0.00000000000E+00 -0.00000000000E+00 -0.10913518473E+03  0.10913518473E+03  0.00000000000E+00 0. -1.
    9000006    2    1    2  501    0  0.00000000000E+00  0.00000000000E+00  0.89086481527E+03  0.11091351847E+04  0.66071229664E+03 0.  0.
         13    1    3    3    0    0  0.14561512923E+03 -0.29329324550E+03  0.37205800263E+03  0.49563277842E+03  0.00000000000E+00 0. -1.
          2    1    3    3  501    0 -0.14561512923E+03  0.29329324550E+03  0.51880681263E+03  0.61350240632E+03  0.00000000000E+00 0. -1.
<mgrwt>
<rscale>  0 0.66071230E+03</rscale>
<asrwt>0</asrwt>
<pdfrwt beam="1">0</pdfrwt>
<pdfrwt beam="2">  1        2 0.39685605E+00 0.66071230E+03</pdfrwt>
<totfact> 0.40888822E+00</totfact>
</mgrwt>
</event>
<event>
 5    1  0.2381755E-004  0.6516525E+03  0.7818608E-02  0.9803683E-01
         13   -1    0    0    0    0  0.00000000000E+00  0.00000000000E+00  0.10000000000E+04  0.10000000000E+04  0.00000000000E+00 0. -1.
          2   -1    0    0  501    0 -0.00000000000E+00 -0.00000000000E+00 -0.10616275955E+03  0.10616275955E+03  0.00000000000E+00 0. -1.
    9000006    2    1    2  501    0  0.00000000000E+00  0.00000000000E+00  0.89383724045E+03  0.11061627595E+04  0.65165254406E+03 0.  0.
         13    1    3    3    0    0  0.17390474505E+03  0.25837923981E+03  0.60938080090E+03  0.68435930067E+03  0.00000000000E+00 0. -1.
          4    1    3    3  501    0 -0.17390474505E+03 -0.25837923981E+03  0.28445643956E+03  0.42180345888E+03  0.00000000000E+00 0. -1.
<mgrwt>
<rscale>  0 0.65165254E+03</rscale>
<asrwt>0</asrwt>
<pdfrwt beam="1">0</pdfrwt>
<pdfrwt beam="2">  1        2 0.38604721E+00 0.65165254E+03</pdfrwt>
<totfact> 0.44891810E+00</totfact>
</mgrwt>
</event>
<event>
 5    1  0.2381755E-004  0.6508168E+03  0.7818608E-02  0.9805248E-01
         13   -1    0    0    0    0  0.00000000000E+00  0.00000000000E+00  0.10000000000E+04  0.10000000000E+04  0.00000000000E+00 0. -1.
          2   -1    0    0  501    0 -0.00000000000E+00 -0.00000000000E+00 -0.10589063669E+03  0.10589063669E+03  0.00000000000E+00 0. -1.
    9000006    2    1    2  501    0  0.00000000000E+00  0.00000000000E+00  0.89410936331E+03  0.11058906367E+04  0.65081683042E+03 0.  0.
         13    1    3    3    0    0  0.10339325818E+03 -0.27700564061E+03  0.21613156740E+03  0.36624465210E+03  0.00000000000E+00 0. -1.
          2    1    3    3  501    0 -0.10339325818E+03  0.27700564061E+03  0.67797779591E+03  0.73964598459E+03  0.00000000000E+00 0. -1.
<mgrwt>
<rscale>  0 0.65081683E+03</rscale>
<asrwt>0</asrwt>
<pdfrwt beam="1">0</pdfrwt>
<pdfrwt beam="2">  1        2 0.38505767E+00 0.65081683E+03</pdfrwt>
<totfact> 0.45275431E+00</totfact>
</mgrwt>
</event>
<event>
 5    1  0.2381755E-004  0.6700881E+03  0.7818608E-02  0.9769799E-01
         13   -1    0    0    0    0  0.00000000000E+00  0.00000000000E+00  0.10000000000E+04  0.10000000000E+04  0.00000000000E+00 0. -1.
          2   -1    0    0  501    0 -0.00000000000E+00 -0.00000000000E+00 -0.11225450377E+03  0.11225450377E+03  0.00000000000E+00 0. -1.
    9000006    2    1    2  501    0  0.00000000000E+00  0.00000000000E+00  0.88774549623E+03  0.11122545038E+04  0.67008806516E+03 0.  0.
         13    1    3    3    0    0  0.28170148707E+03  0.15271349289E+03  0.60631361950E+03  0.68577936971E+03  0.00000000000E+00 0. -1.
          2    1    3    3  501    0 -0.28170148707E+03 -0.15271349289E+03  0.28143187674E+03  0.42647513406E+03  0.00000000000E+00 0. -1.
<mgrwt>
<rscale>  0 0.67008807E+03</rscale>
<asrwt>0</asrwt>
<pdfrwt beam="1">0</pdfrwt>
<pdfrwt beam="2">  1        2 0.40819906E+00 0.67008807E+03</pdfrwt>
<totfact> 0.37036295E+00</totfact>
</mgrwt>
</event>
<event>
 5    1  0.2381755E-004  0.6936865E+03  0.7818608E-02  0.9728090E-01
         13   -1    0    0    0    0  0.00000000000E+00  0.00000000000E+00  0.10000000000E+04  0.10000000000E+04  0.00000000000E+00 0. -1.
          2   -1    0    0  501    0 -0.00000000000E+00 -0.00000000000E+00 -0.12030024772E+03  0.12030024772E+03  0.00000000000E+00 0. -1.
    9000006    2    1    2  501    0  0.00000000000E+00  0.00000000000E+00  0.87969975228E+03  0.11203002477E+04  0.69368652205E+03 0.  0.
         13    1    3    3    0    0  0.33479069907E+03 -0.41764105299E+02  0.56976610946E+03  0.66216498862E+03  0.00000000000E+00 0. -1.
          2    1    3    3  501    0 -0.33479069907E+03  0.41764105299E+02  0.30993364282E+03  0.45813525910E+03  0.00000000000E+00 0. -1.
<mgrwt>
<rscale>  0 0.69368652E+03</rscale>
<asrwt>0</asrwt>
<pdfrwt beam="1">0</pdfrwt>
<pdfrwt beam="2">  1        2 0.43745637E+00 0.69368652E+03</pdfrwt>
<totfact> 0.28548442E+00</totfact>
</mgrwt>
</event>
<event>
 5    1  0.2381755E-004  0.6728309E+03  0.7818608E-02  0.9764857E-01
         13   -1    0    0    0    0  0.00000000000E+00  0.00000000000E+00  0.10000000000E+04  0.10000000000E+04  0.00000000000E+00 0. -1.
          2   -1    0    0  501    0 -0.00000000000E+00 -0.00000000000E+00 -0.11317537023E+03  0.11317537023E+03  0.00000000000E+00 0. -1.
    9000006    2    1    2  501    0  0.00000000000E+00  0.00000000000E+00  0.88682462977E+03  0.11131753702E+04  0.67283094526E+03 0.  0.
         13    1    3    3    0    0  0.31377317152E+03 -0.11624912680E+03  0.38591143587E+03  0.51077891399E+03  0.00000000000E+00 0. -1.
          4    1    3    3  501    0 -0.31377317152E+03  0.11624912680E+03  0.50091319391E+03  0.60239645623E+03  0.00000000000E+00 0. -1.
<mgrwt>
<rscale>  0 0.67283095E+03</rscale>
<asrwt>0</asrwt>
<pdfrwt beam="1">0</pdfrwt>
<pdfrwt beam="2">  1        2 0.41154767E+00 0.67283095E+03</pdfrwt>
<totfact> 0.35962849E+00</totfact>
</mgrwt>
</event>
<event>
 5    1  0.2381755E-004  0.6733492E+03  0.7818608E-02  0.9763926E-01
         13   -1    0    0    0    0  0.00000000000E+00  0.00000000000E+00  0.10000000000E+04  0.10000000000E+04  0.00000000000E+00 0. -1.
          2   -1    0    0  501    0 -0.00000000000E+00 -0.00000000000E+00 -0.11334977970E+03  0.11334977970E+03  0.00000000000E+00 0. -1.
    9000006    2    1    2  501    0  0.00000000000E+00  0.00000000000E+00  0.88665022030E+03  0.11133497797E+04  0.67334918045E+03 0.  0.
         13    1    3    3    0    0 -0.31727952131E+03 -0.23696136098E+02  0.26128040957E+03  0.41169801303E+03  0.00000000000E+00 0. -1.
          2    1    3    3  501    0  0.31727952131E+03  0.23696136098E+02  0.62536981072E+03  0.70165176667E+03  0.00000000000E+00 0. -1.
<mgrwt>
<rscale>  0 0.67334918E+03</rscale>
<asrwt>0</asrwt>
<pdfrwt beam="1">0</pdfrwt>
<pdfrwt beam="2">  1        2 0.41218189E+00 0.67334918E+03</pdfrwt>
<totfact> 0.35762697E+00</totfact>
</mgrwt>
</event>
<event>
 5    1  0.2381755E-004  0.6514160E+03  0.7818608E-02  0.9804126E-01
         13   -1    0    0    0    0  0.00000000000E+00  0.00000000000E+00  0.10000000000E+04  0.10000000000E+04  0.00000000000E+00 0. -1.
          2   -1    0    0  501    0 -0.00000000000E+00 -0.00000000000E+00 -0.10608570761E+03  0.10608570761E+03  0.00000000000E+00 0. -1.
    9000006    2    1    2  501    0  0.00000000000E+00  0.00000000000E+00  0.89391429239E+03  0.11060857076E+04  0.65141601949E+03 0.  0.
         13    1    3    3    0    0 -0.13077338004E+03 -0.22900911096E+02  0.95197040466E+03  0.96118353086E+03  0.00000000000E+00 0. -1.
          2    1    3    3  501    0  0.13077338004E+03  0.22900911096E+02 -0.58056112270E+02  0.14490217675E+03  0.00000000000E+00 0. -1.
<mgrwt>
<rscale>  0 0.65141602E+03</rscale>
<asrwt>0</asrwt>
<pdfrwt beam="1">0</pdfrwt>
<pdfrwt beam="2">  1        2 0.38576702E+00 0.65141602E+03</pdfrwt>
<totfact> 0.45000133E+00</totfact>
</mgrwt>
</event>
<event>
 5    1  0.2381755E-004  0.6580144E+03  0.7818608E-02  0.9791856E-01
         13   -1    0    0    0    0  0.00000000000E+00  0.00000000000E+00  0.10000000000E+04  0.10000000000E+04  0.00000000000E+00 0. -1.
          2   -1    0    0  501    0 -0.00000000000E+00 -0.00000000000E+00 -0.10824573936E+03  0.10824573936E+03  0.00000000000E+00 0. -1.
    9000006    2    1    2  501    0  0.00000000000E+00  0.00000000000E+00  0.89175426064E+03  0.11082457394E+04  0.65801440520E+03 0.  0.
         13    1    3    3    0    0  0.32478412437E+02 -0.57355158203E+02  0.98876621976E+03  0.99096069488E+03  0.00000000000E+00 0. -1.
          4    1    3    3  501    0 -0.32478412437E+02  0.57355158203E+02 -0.97011959125E+02  0.11728504449E+03  0.00000000000E+00 0. -1.
<mgrwt>
<rscale>  0 0.65801441E+03</rscale>
<asrwt>0</asrwt>
<pdfrwt beam="1">0</pdfrwt>
<pdfrwt beam="2">  1        2 0.39362170E+00 0.65801441E+03</pdfrwt>
<totfact> 0.42051384E+00</totfact>
</mgrwt>
</event>
<event>
 5    1  0.2381755E-004  0.6545820E+03  0.7818608E-02  0.9798219E-01
         13   -1    0    0    0    0  0.00000000000E+00  0.00000000000E+00  0.10000000000E+04  0.10000000000E+04  0.00000000000E+00 0. -1.
          2   -1    0    0  501    0 -0.00000000000E+00 -0.00000000000E+00 -0.10711941212E+03  0.10711941212E+03  0.00000000000E+00 0. -1.
    9000006    2    1    2  501    0  0.00000000000E+00  0.00000000000E+00  0.89288058788E+03  0.11071194121E+04  0.65458204105E+03 0.  0.
         13    1    3    3    0    0 -0.26345582544E+03 -0.25379617085E+02  0.12081353469E+03  0.29094502416E+03  0.00000000000E+00 0. -1.
          2    1    3    3  501    0  0.26345582544E+03  0.25379617085E+02  0.77206705320E+03  0.81617438795E+03  0.00000000000E+00 0. -1.
<mgrwt>
<rscale>  0 0.65458204E+03</rscale>
<asrwt>0</asrwt>
<pdfrwt beam="1">0</pdfrwt>
<pdfrwt beam="2">  1        2 0.38952596E+00 0.65458204E+03</pdfrwt>
<totfact> 0.43566432E+00</totfact>
</mgrwt>
</event>
<event>
 5    1  0.2381755E-004  0.6840064E+03  0.7818608E-02  0.9744981E-01
         13   -1    0    0    0    0  0.00000000000E+00  0.00000000000E+00  0.10000000000E+04  0.10000000000E+04  0.00000000000E+00 0. -1.
          2   -1    0    0  501    0 -0.00000000000E+00 -0.00000000000E+00 -0.11696618769E+03  0.11696618769E+03  0.00000000000E+00 0. -1.
    9000006    2    1    2  501    0  0.00000000000E+00  0.00000000000E+00  0.88303381231E+03  0.11169661877E+04  0.68400639671E+03 0.  0.
         13    1    3    3    0    0  0.27460233814E+03 -0.91339884468E+02  0.73913446970E+03  0.79376897326E+03  0.00000000000E+00 0. -1.
          2    1    3    3  501    0 -0.27460233814E+03  0.91339884468E+02  0.14389934261E+03  0.32319721443E+03  0.00000000000E+00 0. -1.
<mgrwt>
<rscale>  0 0.68400640E+03</rscale>
<asrwt>0</asrwt>
<pdfrwt beam="1">0</pdfrwt>
<pdfrwt beam="2">  1        2 0.42533249E+00 0.68400640E+03</pdfrwt>
<totfact> 0.31829885E+00</totfact>
</mgrwt>
</event>
<event>
 5    1  0.2381755E-004  0.6081456E+03  0.7818608E-02  0.9888649E-01
         13   -1    0    0    0    0  0.00000000000E+00  0.00000000000E+00  0.10000000000E+04  0.10000000000E+04  0.00000000000E+00 0. -1.
          2   -1    0    0  501    0 -0.00000000000E+00 -0.00000000000E+00 -0.92460271894E+02  0.92460271894E+02  0.00000000000E+00 0. -1.
    9000006    2    1    2  501    0  0.00000000000E+00  0.00000000000E+00  0.90753972811E+03  0.10924602719E+04  0.60814561379E+03 0.  0.
         13    1    3    3    0    0 -0.25081036962E+03 -0.15442926951E+03  0.58946526888E+03  0.65895640524E+03  0.00000000000E+00 0. -1.
          2    1    3    3  501    0  0.25081036962E+03  0.15442926951E+03  0.31807445922E+03  0.43350386665E+03  0.00000000000E+00 0. -1.
<mgrwt>
<rscale>  0 0.60814561E+03</rscale>
<asrwt>0</asrwt>
<pdfrwt beam="1">0</pdfrwt>
<pdfrwt beam="2">  1        2 0.33621988E+00 0.60814561E+03</pdfrwt>
<totfact> 0.68410204E+00</totfact>
</mgrwt>
</event>
<event>
 5    1  0.2381755E-004  0.6497397E+03  0.7818608E-02  0.9807268E-01
         13   -1    0    0    0    0  0.00000000000E+00  0.00000000000E+00  0.10000000000E+04  0.10000000000E+04  0.00000000000E+00 0. -1.
          2   -1    0    0  501    0 -0.00000000000E+00 -0.00000000000E+00 -0.10554043264E+03  0.10554043264E+03  0.00000000000E+00 0. -1.
    9000006    2    1    2  501    0  0.00000000000E+00  0.00000000000E+00  0.89445956736E+03  0.11055404326E+04  0.64973974065E+03 0.  0.
         13    1    3    3    0    0  0.11791298958E+03 -0.30255154322E+03  0.43025526667E+03  0.53903664432E+03  0.00000000000E+00 0. -1.
          4    1    3    3  501    0 -0.11791298958E+03  0.30255154322E+03  0.46420430068E+03  0.56650378833E+03  0.00000000000E+00 0. -1.
<mgrwt>
<rscale>  0 0.64973974E+03</rscale>
<asrwt>0</asrwt>
<pdfrwt beam="1">0</pdfrwt>
<pdfrwt beam="2">  1        2 0.38378420E+00 0.64973974E+03</pdfrwt>
<totfact> 0.45773499E+00</totfact>
</mgrwt>
</event>
<event>
 5    1  0.2381755E-004  0.6172699E+03  0.7818608E-02  0.9870210E-01
         13   -1    0    0    0    0  0.00000000000E+00  0.00000000000E+00  0.10000000000E+04  0.10000000000E+04  0.00000000000E+00 0. -1.
          2   -1    0    0  501    0 -0.00000000000E+00 -0.00000000000E+00 -0.95255543358E+02  0.95255543358E+02  0.00000000000E+00 0. -1.
    9000006    2    1    2  501    0  0.00000000000E+00  0.00000000000E+00  0.90474445664E+03  0.10952555434E+04  0.61726993563E+03 0.  0.
         13    1    3    3    0    0  0.28824940846E+03 -0.42788189578E+02  0.63277260498E+03  0.69664892181E+03  0.00000000000E+00 0. -1.
          2    1    3    3  501    0 -0.28824940846E+03  0.42788189578E+02  0.27197185167E+03  0.39860662155E+03  0.00000000000E+00 0. -1.
<mgrwt>
<rscale>  0 0.61726994E+03</rscale>
<asrwt>0</asrwt>
<pdfrwt beam="1">0</pdfrwt>
<pdfrwt beam="2">  1        2 0.34638452E+00 0.61726994E+03</pdfrwt>
<totfact> 0.62842082E+00</totfact>
</mgrwt>
</event>
<event>
 5    1  0.2381755E-004  0.6487865E+03  0.7818608E-02  0.9809059E-01
         13   -1    0    0    0    0  0.00000000000E+00  0.00000000000E+00  0.10000000000E+04  0.10000000000E+04  0.00000000000E+00 0. -1.
          2   -1    0    0  501    0 -0.00000000000E+00 -0.00000000000E+00 -0.10523099660E+03  0.10523099660E+03  0.00000000000E+00 0. -1.
    9000006    2    1    2  501    0  0.00000000000E+00  0.00000000000E+00  0.89476900340E+03  0.11052309966E+04  0.64878654920E+03 0.  0.
         13    1    3    3    0    0  0.89273837394E+02  0.31166366519E+03  0.46657771369E+03  0.56815387103E+03  0.00000000000E+00 0. -1.
          4    1    3    3  501    0 -0.89273837394E+02 -0.31166366519E+03  0.42819128970E+03  0.53707712558E+03  0.00000000000E+00 0. -1.
<mgrwt>
<rscale>  0 0.64878655E+03</rscale>
<asrwt>0</asrwt>
<pdfrwt beam="1">0</pdfrwt>
<pdfrwt beam="2">  1        2 0.38265898E+00 0.64878655E+03</pdfrwt>
<totfact> 0.46217718E+00</totfact>
</mgrwt>
</event>
<event>
 5    1  0.2381755E-004  0.6433826E+03  0.7818608E-02  0.9819276E-01
         13   -1    0    0    0    0  0.00000000000E+00  0.00000000000E+00  0.10000000000E+04  0.10000000000E+04  0.00000000000E+00 0. -1.
          2   -1    0    0  501    0 -0.00000000000E+00 -0.00000000000E+00 -0.10348530074E+03  0.10348530074E+03  0.00000000000E+00 0. -1.
    9000006    2    1    2  501    0  0.00000000000E+00  0.00000000000E+00  0.89651469926E+03  0.11034853007E+04  0.64338262563E+03 0.  0.
         13    1    3    3    0    0  0.11432455138E+03 -0.99133739567E+02  0.93514818781E+03  0.94731184651E+03  0.00000000000E+00 0. -1.
          4    1    3    3  501    0 -0.11432455138E+03  0.99133739567E+02 -0.38633488552E+02  0.15617345423E+03  0.00000000000E+00 0. -1.
<mgrwt>
<rscale>  0 0.64338263E+03</rscale>
<asrwt>0</asrwt>
<pdfrwt beam="1">0</pdfrwt>
<pdfrwt beam="2">  1        2 0.37631098E+00 0.64338263E+03</pdfrwt>
<totfact> 0.48798089E+00</totfact>
</mgrwt>
</event>
<event>
 5    1  0.2381755E-004  0.6248330E+03  0.7818608E-02  0.9855184E-01
         13   -1    0    0    0    0  0.00000000000E+00  0.00000000000E+00  0.10000000000E+04  0.10000000000E+04  0.00000000000E+00 0. -1.
          4   -1    0    0  501    0 -0.00000000000E+00 -0.00000000000E+00 -0.97604056442E+02  0.97604056442E+02  0.00000000000E+00 0. -1.
    9000006    2    1    2  501    0  0.00000000000E+00  0.00000000000E+00  0.90239594356E+03  0.10976040564E+04  0.62483295829E+03 0.  0.
         13    1    3    3    0    0 -0.12267583016E+02  0.16733531155E+03 -0.11742957576E+02  0.16819481900E+03  0.00000000000E+00 0. -1.
          4    1    3    3  501    0  0.12267583016E+02 -0.16733531155E+03  0.91413890113E+03  0.92940923745E+03  0.00000000000E+00 0. -1.
<mgrwt>
<rscale>  0 0.62483296E+03</rscale>
<asrwt>0</asrwt>
<pdfrwt beam="1">0</pdfrwt>
<pdfrwt beam="2">  1        4 0.35492459E+00 0.62483296E+03</pdfrwt>
<totfact> 0.64248005E-02</totfact>
</mgrwt>
</event>
<event>
 5    1  0.2381755E-004  0.6570776E+03  0.7818608E-02  0.9793588E-01
         13   -1    0    0    0    0  0.00000000000E+00  0.00000000000E+00  0.10000000000E+04  0.10000000000E+04  0.00000000000E+00 0. -1.
          2   -1    0    0  501    0 -0.00000000000E+00 -0.00000000000E+00 -0.10793775759E+03  0.10793775759E+03  0.00000000000E+00 0. -1.
    9000006    2    1    2  501    0  0.00000000000E+00  0.00000000000E+00  0.89206224241E+03  0.11079377576E+04  0.65707764409E+03 0.  0.
         13    1    3    3    0    0  0.23952278398E+03 -0.10995085792E+03  0.77678240931E+03  0.82027511642E+03  0.00000000000E+00 0. -1.
          2    1    3    3  501    0 -0.23952278398E+03  0.10995085792E+03  0.11527983309E+03  0.28766264117E+03  0.00000000000E+00 0. -1.
<mgrwt>
<rscale>  0 0.65707764E+03</rscale>
<asrwt>0</asrwt>
<pdfrwt beam="1">0</pdfrwt>
<pdfrwt beam="2">  1        2 0.39250176E+00 0.65707764E+03</pdfrwt>
<totfact> 0.42460859E+00</totfact>
</mgrwt>
</event>
<event>
 5    1  0.2381755E-004  0.6399246E+03  0.7818608E-02  0.9825871E-01
         13   -1    0    0    0    0  0.00000000000E+00  0.00000000000E+00  0.10000000000E+04  0.10000000000E+04  0.00000000000E+00 0. -1.
          2   -1    0    0  501    0 -0.00000000000E+00 -0.00000000000E+00 -0.10237587359E+03  0.10237587359E+03  0.00000000000E+00 0. -1.
    9000006    2    1    2  501    0  0.00000000000E+00  0.00000000000E+00  0.89762412641E+03  0.11023758736E+04  0.63992460052E+03 0.  0.
         13    1    3    3    0    0  0.12628331150E+03 -0.27577810544E+03  0.27334665904E+03  0.40831291212E+03  0.00000000000E+00 0. -1.
          2    1    3    3  501    0 -0.12628331150E+03  0.27577810544E+03  0.62427746738E+03  0.69406296146E+03  0.00000000000E+00 0. -1.
<mgrwt>
<rscale>  0 0.63992460E+03</rscale>
<asrwt>0</asrwt>
<pdfrwt beam="1">0</pdfrwt>
<pdfrwt beam="2">  1        2 0.37227669E+00 0.63992460E+03</pdfrwt>
<totfact> 0.50505677E+00</totfact>
</mgrwt>
</event>
<event>
 5    1  0.2381755E-004  0.6476852E+03  0.7818608E-02  0.9811133E-01
         13   -1    0    0    0    0  0.00000000000E+00  0.00000000000E+00  0.10000000000E+04  0.10000000000E+04  0.00000000000E+00 0. -1.
          2   -1    0    0  501    0 -0.00000000000E+00 -0.00000000000E+00 -0.10487401588E+03  0.10487401588E+03  0.00000000000E+00 0. -1.
    9000006    2    1    2  501    0  0.00000000000E+00  0.00000000000E+00  0.89512598412E+03  0.11048740159E+04  0.64768515772E+03 0.  0.
         13    1    3    3    0    0 -0.30665522199E+03 -0.73445008125E+02  0.32171540249E+03  0.45048018224E+03  0.00000000000E+00 0. -1.
          2    1    3    3  501    0  0.30665522199E+03  0.73445008125E+02  0.57341058162E+03  0.65439383364E+03  0.00000000000E+00 0. -1.
<mgrwt>
<rscale>  0 0.64768516E+03</rscale>
<asrwt>0</asrwt>
<pdfrwt beam="1">0</pdfrwt>
<pdfrwt beam="2">  1        2 0.38136086E+00 0.64768516E+03</pdfrwt>
<totfact> 0.46735053E+00</totfact>
</mgrwt>
</event>
<event>
 5    1  0.2381755E-004  0.6415211E+03  0.7818608E-02  0.9822821E-01
         13   -1    0    0    0    0  0.00000000000E+00  0.00000000000E+00  0.10000000000E+04  0.10000000000E+04  0.00000000000E+00 0. -1.
          2   -1    0    0  501    0 -0.00000000000E+00 -0.00000000000E+00 -0.10288733941E+03  0.10288733941E+03  0.00000000000E+00 0. -1.
    9000006    2    1    2  501    0  0.00000000000E+00  0.00000000000E+00  0.89711266059E+03  0.11028873394E+04  0.64152112799E+03 0.  0.
         13    1    3    3    0    0 -0.19518324984E+02 -0.45870704151E+02 -0.96186993235E+02  0.10833754740E+03  0.00000000000E+00 0. -1.
          4    1    3    3  501    0  0.19518324984E+02  0.45870704151E+02  0.99329965382E+03  0.99454979201E+03  0.00000000000E+00 0. -1.
<mgrwt>
<rscale>  0 0.64152113E+03</rscale>
<asrwt>0</asrwt>
<pdfrwt beam="1">0</pdfrwt>
<pdfrwt beam="2">  1        2 0.37413657E+00 0.64152113E+03</pdfrwt>
<totfact> 0.49711763E+00</totfact>
</mgrwt>
</event>
<event>
 5    1  0.2381755E-004  0.6677681E+03  0.7818608E-02  0.9773998E-01
         13   -1    0    0    0    0  0.00000000000E+00  0.00000000000E+00  0.10000000000E+04  0.10000000000E+04  0.00000000000E+00 0. -1.
          2   -1    0    0  501    0 -0.00000000000E+00 -0.00000000000E+00 -0.11147856662E+03  0.11147856662E+03  0.00000000000E+00 0. -1.
    9000006    2    1    2  501    0  0.00000000000E+00  0.00000000000E+00  0.88852143338E+03  0.11114785666E+04  0.66776812328E+03 0.  0.
         13    1    3    3    0    0  0.19269170695E+03  0.15280456322E+03  0.68373762612E+02  0.25525340327E+03  0.00000000000E+00 0. -1.
          2    1    3    3  501    0 -0.19269170695E+03 -0.15280456322E+03  0.82014767077E+03  0.85622516334E+03  0.00000000000E+00 0. -1.
<mgrwt>
<rscale>  0 0.66776812E+03</rscale>
<asrwt>0</asrwt>
<pdfrwt beam="1">0</pdfrwt>
<pdfrwt beam="2">  1        2 0.40537746E+00 0.66776812E+03</pdfrwt>
<totfact> 0.37962920E+00</totfact>
</mgrwt>
</event>
<event>
 5    1  0.2381755E-004  0.6535653E+03  0.7818608E-02  0.9800112E-01
         13   -1    0    0    0    0  0.00000000000E+00  0.00000000000E+00  0.10000000000E+04  0.10000000000E+04  0.00000000000E+00 0. -1.
          2   -1    0    0  501    0 -0.00000000000E+00 -0.00000000000E+00 -0.10678689802E+03  0.10678689802E+03  0.00000000000E+00 0. -1.
    9000006    2    1    2  501    0  0.00000000000E+00  0.00000000000E+00  0.89321310198E+03  0.11067868980E+04  0.65356529291E+03 0.  0.
         13    1    3    3    0    0 -0.28645272033E+03 -0.49065750805E+02  0.69963179215E+03  0.75759306588E+03  0.00000000000E+00 0. -1.
          4    1    3    3  501    0  0.28645272033E+03  0.49065750805E+02  0.19358130983E+03  0.34919383214E+03  0.00000000000E+00 0. -1.
<mgrwt>
<rscale>  0 0.65356529E+03</rscale>
<asrwt>0</asrwt>
<pdfrwt beam="1">0</pdfrwt>
<pdfrwt beam="2">  1        2 0.38831681E+00 0.65356529E+03</pdfrwt>
<totfact> 0.44023038E+00</totfact>
</mgrwt>
</event>
<event>
 5    1  0.2381755E-004  0.6289514E+03  0.7818608E-02  0.9847097E-01
         13   -1    0    0    0    0  0.00000000000E+00  0.00000000000E+00  0.10000000000E+04  0.10000000000E+04  0.00000000000E+00 0. -1.
          2   -1    0    0  501    0 -0.00000000000E+00 -0.00000000000E+00 -0.98894975022E+02  0.98894975022E+02  0.00000000000E+00 0. -1.
    9000006    2    1    2  501    0  0.00000000000E+00  0.00000000000E+00  0.90110502498E+03  0.10988949750E+04  0.62895142904E+03 0.  0.
         13    1    3    3    0    0  0.29840991206E+03  0.48900801782E+02  0.60141075666E+03  0.67315277780E+03  0.00000000000E+00 0. -1.
          2    1    3    3  501    0 -0.29840991206E+03 -0.48900801782E+02  0.29969426832E+03  0.42574219723E+03  0.00000000000E+00 0. -1.
<mgrwt>
<rscale>  0 0.62895143E+03</rscale>
<asrwt>0</asrwt>
<pdfrwt beam="1">0</pdfrwt>
<pdfrwt beam="2">  1        2 0.35961885E+00 0.62895143E+03</pdfrwt>
<totfact> 0.56225499E+00</totfact>
</mgrwt>
</event>
<event>
 5    1  0.2381755E-004  0.6440425E+03  0.7818608E-02  0.9818023E-01
         13   -1    0    0    0    0  0.00000000000E+00  0.00000000000E+00  0.10000000000E+04  0.10000000000E+04  0.00000000000E+00 0. -1.
          2   -1    0    0  501    0 -0.00000000000E+00 -0.00000000000E+00 -0.10369770100E+03  0.10369770100E+03  0.00000000000E+00 0. -1.
    9000006    2    1    2  501    0  0.00000000000E+00  0.00000000000E+00  0.89630229900E+03  0.11036977010E+04  0.64404254827E+03 0.  0.
         13    1    3    3    0    0 -0.18601323868E+03  0.20596741470E+03  0.72803721734E+03  0.77914163713E+03  0.00000000000E+00 0. -1.
          4    1    3    3  501    0  0.18601323868E+03 -0.20596741470E+03  0.16826508166E+03  0.32455606386E+03  0.00000000000E+00 0. -1.
<mgrwt>
<rscale>  0 0.64404255E+03</rscale>
<asrwt>0</asrwt>
<pdfrwt beam="1">0</pdfrwt>
<pdfrwt beam="2">  1        2 0.37708334E+00 0.64404255E+03</pdfrwt>
<totfact> 0.48477271E+00</totfact>
</mgrwt>
</event>
<event>
 5    1  0.2381755E-004  0.6352444E+03  0.7818608E-02  0.9834868E-01
         13   -1    0    0    0    0  0.00000000000E+00  0.00000000000E+00  0.10000000000E+04  0.10000000000E+04  0.00000000000E+00 0. -1.
          2   -1    0    0  501    0 -0.00000000000E+00 -0.00000000000E+00 -0.10088385749E+03  0.10088385749E+03  0.00000000000E+00 0. -1.
    9000006    2    1    2  501    0  0.00000000000E+00  0.00000000000E+00  0.89911614251E+03  0.11008838575E+04  0.63524438601E+03 0.  0.
         13    1    3    3    0    0  0.15285087325E+03 -0.27298140949E+03  0.35461169665E+03  0.47289712917E+03  0.00000000000E+00 0. -1.
          4    1    3    3  501    0 -0.15285087325E+03  0.27298140949E+03  0.54450444586E+03  0.62798672832E+03  0.00000000000E+00 0. -1.
<mgrwt>
<rscale>  0 0.63524439E+03</rscale>
<asrwt>0</asrwt>
<pdfrwt beam="1">0</pdfrwt>
<pdfrwt beam="2">  1        2 0.36685116E+00 0.63524439E+03</pdfrwt>
<totfact> 0.52888453E+00</totfact>
</mgrwt>
</event>
<event>
 5    1  0.2381755E-004  0.6488748E+03  0.7818608E-02  0.9808893E-01
         13   -1    0    0    0    0  0.00000000000E+00  0.00000000000E+00  0.10000000000E+04  0.10000000000E+04  0.00000000000E+00 0. -1.
          2   -1    0    0  501    0 -0.00000000000E+00 -0.00000000000E+00 -0.10525962289E+03  0.10525962289E+03  0.00000000000E+00 0. -1.
    9000006    2    1    2  501    0  0.00000000000E+00  0.00000000000E+00  0.89474037711E+03  0.11052596229E+04  0.64887478881E+03 0.  0.
         13    1    3    3    0    0 -0.85974990499E+02  0.31089070220E+03  0.38799940104E+03  0.50456740175E+03  0.00000000000E+00 0. -1.
          4    1    3    3  501    0  0.85974990499E+02 -0.31089070220E+03  0.50674097607E+03  0.60069222114E+03  0.00000000000E+00 0. -1.
<mgrwt>
<rscale>  0 0.64887479E+03</rscale>
<asrwt>0</asrwt>
<pdfrwt beam="1">0</pdfrwt>
<pdfrwt beam="2">  1        2 0.38276307E+00 0.64887479E+03</pdfrwt>
<totfact> 0.46176459E+00</totfact>
</mgrwt>
</event>
<event>
 5    1  0.2381755E-004  0.6488675E+03  0.7818608E-02  0.9808906E-01
         13   -1    0    0    0    0  0.00000000000E+00  0.00000000000E+00  0.10000000000E+04  0.10000000000E+04  0.00000000000E+00 0. -1.
          2   -1    0    0  501    0 -0.00000000000E+00 -0.00000000000E+00 -0.10525727162E+03  0.10525727162E+03  0.00000000000E+00 0. -1.
    9000006    2    1    2  501    0  0.00000000000E+00  0.00000000000E+00  0.89474272838E+03  0.11052572716E+04  0.64886754156E+03 0.  0.
         13    1    3    3    0    0 -0.98497219487E+02  0.14275518143E+03 -0.19662596495E+02  0.17454902398E+03  0.00000000000E+00 0. -1.
          4    1    3    3  501    0  0.98497219487E+02 -0.14275518143E+03  0.91440532487E+03  0.93070824764E+03  0.00000000000E+00 0. -1.
<mgrwt>
<rscale>  0 0.64886754E+03</rscale>
<asrwt>0</asrwt>
<pdfrwt beam="1">0</pdfrwt>
<pdfrwt beam="2">  1        2 0.38275452E+00 0.64886754E+03</pdfrwt>
<totfact> 0.46179847E+00</totfact>
</mgrwt>
</event>
<event>
 5    1  0.2381755E-004  0.6456609E+03  0.7818608E-02  0.9814955E-01
         13   -1    0    0    0    0  0.00000000000E+00  0.00000000000E+00  0.10000000000E+04  0.10000000000E+04  0.00000000000E+00 0. -1.
          2   -1    0    0  501    0 -0.00000000000E+00 -0.00000000000E+00 -0.10421949078E+03  0.10421949078E+03  0.00000000000E+00 0. -1.
    9000006    2    1    2  501    0  0.00000000000E+00  0.00000000000E+00  0.89578050922E+03  0.11042194908E+04  0.64566087314E+03 0.  0.
         13    1    3    3    0    0  0.21225848641E+03 -0.21391264641E+03  0.64591527722E+03  0.71275439717E+03  0.00000000000E+00 0. -1.
          2    1    3    3  501    0 -0.21225848641E+03  0.21391264641E+03  0.24986523201E+03  0.39146509360E+03  0.00000000000E+00 0. -1.
<mgrwt>
<rscale>  0 0.64566087E+03</rscale>
<asrwt>0</asrwt>
<pdfrwt beam="1">0</pdfrwt>
<pdfrwt beam="2">  1        2 0.37898077E+00 0.64566087E+03</pdfrwt>
<totfact> 0.47697288E+00</totfact>
</mgrwt>
</event>
<event>
 5    1  0.2381755E-004  0.6324593E+03  0.7818608E-02  0.9840261E-01
         13   -1    0    0    0    0  0.00000000000E+00  0.00000000000E+00  0.10000000000E+04  0.10000000000E+04  0.00000000000E+00 0. -1.
          2   -1    0    0  501    0 -0.00000000000E+00 -0.00000000000E+00 -0.10000120675E+03  0.10000120675E+03  0.00000000000E+00 0. -1.
    9000006    2    1    2  501    0  0.00000000000E+00  0.00000000000E+00  0.89999879325E+03  0.11000012068E+04  0.63245934811E+03 0.  0.
         13    1    3    3    0    0 -0.90055684425E+02  0.29761851382E+03  0.55012912791E+03  0.63192472925E+03  0.00000000000E+00 0. -1.
          2    1    3    3  501    0  0.90055684425E+02 -0.29761851382E+03  0.34986966534E+03  0.46807647750E+03  0.00000000000E+00 0. -1.
<mgrwt>
<rscale>  0 0.63245935E+03</rscale>
<asrwt>0</asrwt>
<pdfrwt beam="1">0</pdfrwt>
<pdfrwt beam="2">  1        2 0.36364152E+00 0.63245935E+03</pdfrwt>
<totfact> 0.54346217E+00</totfact>
</mgrwt>
</event>
<event>
 5    1  0.2381755E-004  0.6426940E+03  0.7818608E-02  0.9820586E-01
         13   -1    0    0    0    0  0.00000000000E+00  0.00000000000E+00  0.10000000000E+04  0.10000000000E+04  0.00000000000E+00 0. -1.
          2   -1    0    0  501    0 -0.00000000000E+00 -0.00000000000E+00 -0.10326390939E+03  0.10326390939E+03  0.00000000000E+00 0. -1.
    9000006    2    1    2  501    0  0.00000000000E+00  0.00000000000E+00  0.89673609061E+03  0.11032639094E+04  0.64269404662E+03 0.  0.
         13    1    3    3    0    0 -0.17428452579E+03  0.18558618677E+03  0.11177588582E+03  0.27804887575E+03  0.00000000000E+00 0. -1.
          4    1    3    3  501    0  0.17428452579E+03 -0.18558618677E+03  0.78496020479E+03  0.82521503364E+03  0.00000000000E+00 0. -1.
<mgrwt>
<rscale>  0 0.64269405E+03</rscale>
<asrwt>0</asrwt>
<pdfrwt beam="1">0</pdfrwt>
<pdfrwt beam="2">  1        2 0.37550592E+00 0.64269405E+03</pdfrwt>
<totfact> 0.49134549E+00</totfact>
</mgrwt>
</event>
<event>
 5    1  0.2381755E-004  0.6439268E+03  0.7818608E-02  0.9818242E-01
         13   -1    0    0    0    0  0.00000000000E+00  0.00000000000E+00  0.10000000000E+04  0.10000000000E+04  0.00000000000E+00 0. -1.
          2   -1    0    0  501    0 -0.00000000000E+00 -0.00000000000E+00 -0.10366044371E+03  0.10366044371E+03  0.00000000000E+00 0. -1.
    9000006    2    1    2  501    0  0.00000000000E+00  0.00000000000E+00  0.89633955629E+03  0.11036604437E+04  0.64392683967E+03 0.  0.
         13    1    3    3    0    0  0.26183446189E+02  0.11718542932E+03 -0.63847577675E+02  0.13599452516E+03  0.00000000000E+00 0. -1.
          2    1    3    3  501    0 -0.26183446189E+02 -0.11718542932E+03  0.96018713396E+03  0.96766591855E+03  0.00000000000E+00 0. -1.
<mgrwt>
<rscale>  0 0.64392684E+03</rscale>
<asrwt>0</asrwt>
<pdfrwt beam="1">0</pdfrwt>
<pdfrwt beam="2">  1        2 0.37694786E+00 0.64392684E+03</pdfrwt>
<totfact> 0.48533407E+00</totfact>
</mgrwt>
</event>
<event>
 5    1  0.2381755E-004  0.6448927E+03  0.7818608E-02  0.9816410E-01
         13   -1    0    0    0    0  0.00000000000E+00  0.00000000000E+00  0.10000000000E+04  0.10000000000E+04  0.00000000000E+00 0. -1.
          2   -1    0    0  501    0 -0.00000000000E+00 -0.00000000000E+00 -0.10397163588E+03  0.10397163588E+03  0.00000000000E+00 0. -1.
    9000006    2    1    2  501    0  0.00000000000E+00  0.00000000000E+00  0.89602836412E+03  0.11039716359E+04  0.64489266045E+03 0.  0.
         13    1    3    3    0    0 -0.10747736259E+03  0.30333827684E+03  0.48251342336E+03  0.57998680795E+03  0.00000000000E+00 0. -1.
          2    1    3    3  501    0  0.10747736259E+03 -0.30333827684E+03  0.41351494076E+03  0.52398482793E+03  0.00000000000E+00 0. -1.
<mgrwt>
<rscale>  0 0.64489266E+03</rscale>
<asrwt>0</asrwt>
<pdfrwt beam="1">0</pdfrwt>
<pdfrwt beam="2">  1        2 0.37807947E+00 0.64489266E+03</pdfrwt>
<totfact> 0.48066350E+00</totfact>
</mgrwt>
</event>
<event>
 5    1  0.2381755E-004  0.6489345E+03  0.7818608E-02  0.9808781E-01
         13   -1    0    0    0    0  0.00000000000E+00  0.00000000000E+00  0.10000000000E+04  0.10000000000E+04  0.00000000000E+00 0. -1.
          2   -1    0    0  501    0 -0.00000000000E+00 -0.00000000000E+00 -0.10527898058E+03  0.10527898058E+03  0.00000000000E+00 0. -1.
    9000006    2    1    2  501    0  0.00000000000E+00  0.00000000000E+00  0.89472101942E+03  0.11052789806E+04  0.64893445148E+03 0.  0.
         13    1    3    3    0    0 -0.40014772353E+02  0.36913498586E+02  0.99216558162E+03  0.99365805473E+03  0.00000000000E+00 0. -1.
          4    1    3    3  501    0  0.40014772353E+02 -0.36913498586E+02 -0.97444562200E+02  0.11162092585E+03  0.00000000000E+00 0. -1.
<mgrwt>
<rscale>  0 0.64893445E+03</rscale>
<asrwt>0</asrwt>
<pdfrwt beam="1">0</pdfrwt>
<pdfrwt beam="2">  1        2 0.38283346E+00 0.64893445E+03</pdfrwt>
<totfact> 0.46148578E+00</totfact>
</mgrwt>
</event>
<event>
 5    1  0.2381755E-004  0.6467567E+03  0.7818608E-02  0.9812884E-01
         13   -1    0    0    0    0  0.00000000000E+00  0.00000000000E+00  0.10000000000E+04  0.10000000000E+04  0.00000000000E+00 0. -1.
          2   -1    0    0  501    0 -0.00000000000E+00 -0.00000000000E+00 -0.10457356046E+03  0.10457356046E+03  0.00000000000E+00 0. -1.
    9000006    2    1    2  501    0  0.00000000000E+00  0.00000000000E+00  0.89542643954E+03  0.11045735605E+04  0.64675670993E+03 0.  0.
         13    1    3    3    0    0 -0.31633318232E+03 -0.25203310938E+02  0.34144511332E+03  0.46614016619E+03  0.00000000000E+00 0. -1.
          4    1    3    3  501    0  0.31633318232E+03  0.25203310938E+02  0.55398132622E+03  0.63843339427E+03  0.00000000000E+00 0. -1.
<mgrwt>
<rscale>  0 0.64675671E+03</rscale>
<asrwt>0</asrwt>
<pdfrwt beam="1">0</pdfrwt>
<pdfrwt beam="2">  1        2 0.38026829E+00 0.64675671E+03</pdfrwt>
<totfact> 0.47174546E+00</totfact>
</mgrwt>
</event>
<event>
 5    1  0.2381755E-004  0.6494826E+03  0.7818608E-02  0.9807751E-01
         13   -1    0    0    0    0  0.00000000000E+00  0.00000000000E+00  0.10000000000E+04  0.10000000000E+04  0.00000000000E+00 0. -1.
          2   -1    0    0  501    0 -0.00000000000E+00 -0.00000000000E+00 -0.10545690565E+03  0.10545690565E+03  0.00000000000E+00 0. -1.
    9000006    2    1    2  501    0  0.00000000000E+00  0.00000000000E+00  0.89454309435E+03  0.11054569057E+04  0.64948258068E+03 0.  0.
         13    1    3    3    0    0  0.31634806629E+03 -0.54178888985E+02  0.36310217052E+03  0.48461803237E+03  0.00000000000E+00 0. -1.
          2    1    3    3  501    0 -0.31634806629E+03  0.54178888985E+02  0.53144092383E+03  0.62083887328E+03  0.00000000000E+00 0. -1.
<mgrwt>
<rscale>  0 0.64948258E+03</rscale>
<asrwt>0</asrwt>
<pdfrwt beam="1">0</pdfrwt>
<pdfrwt beam="2">  1        2 0.38348047E+00 0.64948258E+03</pdfrwt>
<totfact> 0.45893025E+00</totfact>
</mgrwt>
</event>
<event>
 5    1  0.2381755E-004  0.5377466E+03  0.7818608E-02  0.1004371E+00
         13   -1    0    0    0    0  0.00000000000E+00  0.00000000000E+00  0.10000000000E+04  0.10000000000E+04  0.00000000000E+00 0. -1.
          2   -1    0    0  501    0 -0.00000000000E+00 -0.00000000000E+00 -0.72292852687E+02  0.72292852687E+02  0.00000000000E+00 0. -1.
    9000006    2    1    2  501    0  0.00000000000E+00  0.00000000000E+00  0.92770714731E+03  0.10722928527E+04  0.53774660459E+03 0.  0.
         13    1    3    3    0    0  0.11294819365E+03 -0.21411779429E+03  0.23054879572E+03  0.33429997232E+03  0.00000000000E+00 0. -1.
          2    1    3    3  501    0 -0.11294819365E+03  0.21411779429E+03  0.69715835159E+03  0.73799288037E+03  0.00000000000E+00 0. -1.
<mgrwt>
<rscale>  0 0.53774660E+03</rscale>
<asrwt>0</asrwt>
<pdfrwt beam="1">0</pdfrwt>
<pdfrwt beam="2">  1        2 0.26288366E+00 0.53774660E+03</pdfrwt>
<totfact> 0.12532019E+01</totfact>
</mgrwt>
</event>
<event>
 5    1  0.2381755E-004  0.6493422E+03  0.7818608E-02  0.9808014E-01
         13   -1    0    0    0    0  0.00000000000E+00  0.00000000000E+00  0.10000000000E+04  0.10000000000E+04  0.00000000000E+00 0. -1.
          2   -1    0    0  501    0 -0.00000000000E+00 -0.00000000000E+00 -0.10541132172E+03  0.10541132172E+03  0.00000000000E+00 0. -1.
    9000006    2    1    2  501    0  0.00000000000E+00  0.00000000000E+00  0.89458867828E+03  0.11054113217E+04  0.64934219551E+03 0.  0.
         13    1    3    3    0    0  0.18038612839E+03 -0.26557970465E+03  0.36495263104E+03  0.48606805876E+03  0.00000000000E+00 0. -1.
          2    1    3    3  501    0 -0.18038612839E+03  0.26557970465E+03  0.52963604724E+03  0.61934326296E+03  0.00000000000E+00 0. -1.
<mgrwt>
<rscale>  0 0.64934220E+03</rscale>
<asrwt>0</asrwt>
<pdfrwt beam="1">0</pdfrwt>
<pdfrwt beam="2">  1        2 0.38331471E+00 0.64934220E+03</pdfrwt>
<totfact> 0.45958374E+00</totfact>
</mgrwt>
</event>
<event>
 5    1  0.2381755E-004  0.6552549E+03  0.7818608E-02  0.9796968E-01
         13   -1    0    0    0    0  0.00000000000E+00  0.00000000000E+00  0.10000000000E+04  0.10000000000E+04  0.00000000000E+00 0. -1.
          2   -1    0    0  501    0 -0.00000000000E+00 -0.00000000000E+00 -0.10733973837E+03  0.10733973837E+03  0.00000000000E+00 0. -1.
    9000006    2    1    2  501    0  0.00000000000E+00  0.00000000000E+00  0.89266026163E+03  0.11073397384E+04  0.65525487672E+03 0.  0.
         13    1    3    3    0    0 -0.26638628395E+03 -0.18852036362E+03  0.39740480527E+03  0.51422967536E+03  0.00000000000E+00 0. -1.
          4    1    3    3  501    0  0.26638628395E+03  0.18852036362E+03  0.49525545637E+03  0.59311006300E+03  0.00000000000E+00 0. -1.
<mgrwt>
<rscale>  0 0.65525488E+03</rscale>
<asrwt>0</asrwt>
<pdfrwt beam="1">0</pdfrwt>
<pdfrwt beam="2">  1        2 0.39032714E+00 0.65525488E+03</pdfrwt>
<totfact> 0.43266245E+00</totfact>
</mgrwt>
</event>
<event>
 5    1  0.2381755E-004  0.6469466E+03  0.7818608E-02  0.9812526E-01
         13   -1    0    0    0    0  0.00000000000E+00  0.00000000000E+00  0.10000000000E+04  0.10000000000E+04  0.00000000000E+00 0. -1.
          2   -1    0    0  501    0 -0.00000000000E+00 -0.00000000000E+00 -0.10463497722E+03  0.10463497722E+03  0.00000000000E+00 0. -1.
    9000006    2    1    2  501    0  0.00000000000E+00  0.00000000000E+00  0.89536502278E+03  0.11046349772E+04  0.64694660435E+03 0.  0.
         13    1    3    3    0    0  0.19022307069E+03  0.20084368063E+03  0.16139919218E+03  0.32026972993E+03  0.00000000000E+00 0. -1.
          4    1    3    3  501    0 -0.19022307069E+03 -0.20084368063E+03  0.73396583060E+03  0.78436524729E+03  0.00000000000E+00 0. -1.
<mgrwt>
<rscale>  0 0.64694660E+03</rscale>
<asrwt>0</asrwt>
<pdfrwt beam="1">0</pdfrwt>
<pdfrwt beam="2">  1        2 0.38049163E+00 0.64694660E+03</pdfrwt>
<totfact> 0.47084404E+00</totfact>
</mgrwt>
</event>
<event>
 5    1  0.2381755E-004  0.6479155E+03  0.7818608E-02  0.9810698E-01
         13   -1    0    0    0    0  0.00000000000E+00  0.00000000000E+00  0.10000000000E+04  0.10000000000E+04  0.00000000000E+00 0. -1.
          2   -1    0    0  501    0 -0.00000000000E+00 -0.00000000000E+00 -0.10494862820E+03  0.10494862820E+03  0.00000000000E+00 0. -1.
    9000006    2    1    2  501    0  0.00000000000E+00  0.00000000000E+00  0.89505137180E+03  0.11049486282E+04  0.64791551362E+03 0.  0.
         13    1    3    3    0    0 -0.40633405019E+02 -0.31107221681E+03  0.58535275256E+03  0.66411959962E+03  0.00000000000E+00 0. -1.
          4    1    3    3  501    0  0.40633405019E+02  0.31107221681E+03  0.30969861924E+03  0.44082902858E+03  0.00000000000E+00 0. -1.
<mgrwt>
<rscale>  0 0.64791551E+03</rscale>
<asrwt>0</asrwt>
<pdfrwt beam="1">0</pdfrwt>
<pdfrwt beam="2">  1        2 0.38163218E+00 0.64791551E+03</pdfrwt>
<totfact> 0.46626492E+00</totfact>
</mgrwt>
</event>
<event>
 5    1  0.2381755E-004  0.6486817E+03  0.7818608E-02  0.9809256E-01
         13   -1    0    0    0    0  0.00000000000E+00  0.00000000000E+00  0.10000000000E+04  0.10000000000E+04  0.00000000000E+00 0. -1.
          2   -1    0    0  501    0 -0.00000000000E+00 -0.00000000000E+00 -0.10519700148E+03  0.10519700148E+03  0.00000000000E+00 0. -1.
    9000006    2    1    2  501    0  0.00000000000E+00  0.00000000000E+00  0.89480299852E+03  0.11051970015E+04  0.64868174470E+03 0.  0.
         13    1    3    3    0    0  0.59612487798E+02  0.29402189421E+03  0.23738620590E+03  0.38256337217E+03  0.00000000000E+00 0. -1.
          4    1    3    3  501    0 -0.59612487798E+02 -0.29402189421E+03  0.65741679262E+03  0.72263362930E+03  0.00000000000E+00 0. -1.
<mgrwt>
<rscale>  0 0.64868174E+03</rscale>
<asrwt>0</asrwt>
<pdfrwt beam="1">0</pdfrwt>
<pdfrwt beam="2">  1        2 0.38253536E+00 0.64868174E+03</pdfrwt>
<totfact> 0.46266759E+00</totfact>
</mgrwt>
</event>
<event>
 5    1  0.2381755E-004  0.6568970E+03  0.7818608E-02  0.9793923E-01
         13   -1    0    0    0    0  0.00000000000E+00  0.00000000000E+00  0.10000000000E+04  0.10000000000E+04  0.00000000000E+00 0. -1.
          2   -1    0    0  501    0 -0.00000000000E+00 -0.00000000000E+00 -0.10787842859E+03  0.10787842859E+03  0.00000000000E+00 0. -1.
    9000006    2    1    2  501    0  0.00000000000E+00  0.00000000000E+00  0.89212157141E+03  0.11078784286E+04  0.65689703482E+03 0.  0.
         13    1    3    3    0    0 -0.27248584577E+01 -0.30169061964E+03  0.22711157462E+03  0.37762987456E+03  0.00000000000E+00 0. -1.
          4    1    3    3  501    0  0.27248584577E+01  0.30169061964E+03  0.66500999679E+03  0.73024855403E+03  0.00000000000E+00 0. -1.
<mgrwt>
<rscale>  0 0.65689703E+03</rscale>
<asrwt>0</asrwt>
<pdfrwt beam="1">0</pdfrwt>
<pdfrwt beam="2">  1        2 0.39228602E+00 0.65689703E+03</pdfrwt>
<totfact> 0.42540151E+00</totfact>
</mgrwt>
</event>
<event>
 5    1  0.2381755E-004  0.6451401E+03  0.7818608E-02  0.9815941E-01
         13   -1    0    0    0    0  0.00000000000E+00  0.00000000000E+00  0.10000000000E+04  0.10000000000E+04  0.00000000000E+00 0. -1.
          2   -1    0    0  501    0 -0.00000000000E+00 -0.00000000000E+00 -0.10405144733E+03  0.10405144733E+03  0.00000000000E+00 0. -1.
    9000006    2    1    2  501    0  0.00000000000E+00  0.00000000000E+00  0.89594855267E+03  0.11040514473E+04  0.64514013155E+03 0.  0.
         13    1    3    3    0    0 -0.14290362653E+01 -0.19435603018E+03  0.88853986812E+03  0.90954901234E+03  0.00000000000E+00 0. -1.
          4    1    3    3  501    0  0.14290362653E+01  0.19435603018E+03  0.74086845426E+01  0.19450243499E+03  0.00000000000E+00 0. -1.
<mgrwt>
<rscale>  0 0.64514013E+03</rscale>
<asrwt>0</asrwt>
<pdfrwt beam="1">0</pdfrwt>
<pdfrwt beam="2">  1        2 0.37836970E+00 0.64514013E+03</pdfrwt>
<totfact> 0.47947225E+00</totfact>
</mgrwt>
</event>
<event>
 5    1  0.2381755E-004  0.6373380E+03  0.7818608E-02  0.9830833E-01
         13   -1    0    0    0    0  0.00000000000E+00  0.00000000000E+00  0.10000000000E+04  0.10000000000E+04  0.00000000000E+00 0. -1.
          2   -1    0    0  501    0 -0.00000000000E+00 -0.00000000000E+00 -0.10154994073E+03  0.10154994073E+03  0.00000000000E+00 0. -1.
    9000006    2    1    2  501    0  0.00000000000E+00  0.00000000000E+00  0.89845005927E+03  0.11015499407E+04  0.63733802879E+03 0.  0.
         13    1    3    3    0    0  0.71035636249E+02  0.10869770144E+03 -0.53750739191E+02  0.14053609458E+03  0.00000000000E+00 0. -1.
          4    1    3    3  501    0 -0.71035636249E+02 -0.10869770144E+03  0.95220079846E+03  0.96101384615E+03  0.00000000000E+00 0. -1.
<mgrwt>
<rscale>  0 0.63733803E+03</rscale>
<asrwt>0</asrwt>
<pdfrwt beam="1">0</pdfrwt>
<pdfrwt beam="2">  1        2 0.36927329E+00 0.63733803E+03</pdfrwt>
<totfact> 0.51812253E+00</totfact>
</mgrwt>
</event>
<event>
 5    1  0.2381755E-004  0.6492743E+03  0.7818608E-02  0.9808142E-01
         13   -1    0    0    0    0  0.00000000000E+00  0.00000000000E+00  0.10000000000E+04  0.10000000000E+04  0.00000000000E+00 0. -1.
          2   -1    0    0  501    0 -0.00000000000E+00 -0.00000000000E+00 -0.10538928765E+03  0.10538928765E+03  0.00000000000E+00 0. -1.
    9000006    2    1    2  501    0  0.00000000000E+00  0.00000000000E+00  0.89461071235E+03  0.11053892877E+04  0.64927432615E+03 0.  0.
         13    1    3    3    0    0 -0.18893508941E+03 -0.25471978289E+03  0.56538879307E+03  0.64826161628E+03  0.00000000000E+00 0. -1.
          4    1    3    3  501    0  0.18893508941E+03  0.25471978289E+03  0.32922191928E+03  0.45712767137E+03  0.00000000000E+00 0. -1.
<mgrwt>
<rscale>  0 0.64927433E+03</rscale>
<asrwt>0</asrwt>
<pdfrwt beam="1">0</pdfrwt>
<pdfrwt beam="2">  1        2 0.38323458E+00 0.64927433E+03</pdfrwt>
<totfact> 0.45989993E+00</totfact>
</mgrwt>
</event>
<event>
 5    1  0.2381755E-004  0.6403987E+03  0.7818608E-02  0.9824964E-01
         13   -1    0    0    0    0  0.00000000000E+00  0.00000000000E+00  0.10000000000E+04  0.10000000000E+04  0.00000000000E+00 0. -1.
          2   -1    0    0  501    0 -0.00000000000E+00 -0.00000000000E+00 -0.10252763693E+03  0.10252763693E+03  0.00000000000E+00 0. -1.
    9000006    2    1    2  501    0  0.00000000000E+00  0.00000000000E+00  0.89747236307E+03  0.11025276369E+04  0.64039874119E+03 0.  0.
         13    1    3    3    0    0 -0.12291235174E+03 -0.21109528699E+03  0.92317973254E+02  0.26113459094E+03  0.00000000000E+00 0. -1.
          4    1    3    3  501    0  0.12291235174E+03  0.21109528699E+03  0.80515438982E+03  0.84139304599E+03  0.00000000000E+00 0. -1.
<mgrwt>
<rscale>  0 0.64039874E+03</rscale>
<asrwt>0</asrwt>
<pdfrwt beam="1">0</pdfrwt>
<pdfrwt beam="2">  1        2 0.37282856E+00 0.64039874E+03</pdfrwt>
<totfact> 0.50268904E+00</totfact>
</mgrwt>
</event>
<event>
 5    1  0.2381755E-004  0.6499312E+03  0.7818608E-02  0.9806908E-01
         13   -1    0    0    0    0  0.00000000000E+00  0.00000000000E+00  0.10000000000E+04  0.10000000000E+04  0.00000000000E+00 0. -1.
          2   -1    0    0  501    0 -0.00000000000E+00 -0.00000000000E+00 -0.10560263885E+03  0.10560263885E+03  0.00000000000E+00 0. -1.
    9000006    2    1    2  501    0  0.00000000000E+00  0.00000000000E+00  0.89439736115E+03  0.11056026389E+04  0.64993119283E+03 0.  0.
         13    1    3    3    0    0  0.67110065785E+02  0.27998808548E+03  0.19086970733E+03  0.34543933493E+03  0.00000000000E+00 0. -1.
          4    1    3    3  501    0 -0.67110065785E+02 -0.27998808548E+03  0.70352765382E+03  0.76016330392E+03  0.00000000000E+00 0. -1.
<mgrwt>
<rscale>  0 0.64993119E+03</rscale>
<asrwt>0</asrwt>
<pdfrwt beam="1">0</pdfrwt>
<pdfrwt beam="2">  1        2 0.38401041E+00 0.64993119E+03</pdfrwt>
<totfact> 0.45684667E+00</totfact>
</mgrwt>
</event>
<event>
 5    1  0.2381755E-004  0.6332072E+03  0.7818608E-02  0.9838810E-01
         13   -1    0    0    0    0  0.00000000000E+00  0.00000000000E+00  0.10000000000E+04  0.10000000000E+04  0.00000000000E+00 0. -1.
          2   -1    0    0  501    0 -0.00000000000E+00 -0.00000000000E+00 -0.10023785178E+03  0.10023785178E+03  0.00000000000E+00 0. -1.
    9000006    2    1    2  501    0  0.00000000000E+00  0.00000000000E+00  0.89976214822E+03  0.11002378518E+04  0.63320723869E+03 0.  0.
         13    1    3    3    0    0  0.16002455376E+02  0.96425499398E+02  0.97312692925E+03  0.97802350480E+03  0.00000000000E+00 0. -1.
          2    1    3    3  501    0 -0.16002455376E+02 -0.96425499398E+02 -0.73364781033E+02  0.12221434698E+03  0.00000000000E+00 0. -1.
<mgrwt>
<rscale>  0 0.63320724E+03</rscale>
<asrwt>0</asrwt>
<pdfrwt beam="1">0</pdfrwt>
<pdfrwt beam="2">  1        2 0.36450205E+00 0.63320724E+03</pdfrwt>
<totfact> 0.53951796E+00</totfact>
</mgrwt>
</event>
<event>
 5    1  0.2381755E-004  0.6486832E+03  0.7818608E-02  0.9809253E-01
         13   -1    0    0    0    0  0.00000000000E+00  0.00000000000E+00  0.10000000000E+04  0.10000000000E+04  0.00000000000E+00 0. -1.
          2   -1    0    0  501    0 -0.00000000000E+00 -0.00000000000E+00 -0.10519748466E+03  0.10519748466E+03  0.00000000000E+00 0. -1.
    9000006    2    1    2  501    0  0.00000000000E+00  0.00000000000E+00  0.89480251534E+03  0.11051974847E+04  0.64868323445E+03 0.  0.
         13    1    3    3    0    0 -0.12854973441E+03  0.65636538176E+02  0.94226604924E+03  0.95325678435E+03  0.00000000000E+00 0. -1.
          2    1    3    3  501    0  0.12854973441E+03 -0.65636538176E+02 -0.47463533905E+02  0.15194070031E+03  0.00000000000E+00 0. -1.
<mgrwt>
<rscale>  0 0.64868323E+03</rscale>
<asrwt>0</asrwt>
<pdfrwt beam="1">0</pdfrwt>
<pdfrwt beam="2">  1        2 0.38253711E+00 0.64868323E+03</pdfrwt>
<totfact> 0.46266061E+00</totfact>
</mgrwt>
</event>
<event>
 5    1  0.2381755E-004  0.6477413E+03  0.7818608E-02  0.9811027E-01
         13   -1    0    0    0    0  0.00000000000E+00  0.00000000000E+00  0.10000000000E+04  0.10000000000E+04  0.00000000000E+00 0. -1.
          2   -1    0    0  501    0 -0.00000000000E+00 -0.00000000000E+00 -0.10489220785E+03  0.10489220785E+03  0.00000000000E+00 0. -1.
    9000006    2    1    2  501    0  0.00000000000E+00  0.00000000000E+00  0.89510779215E+03  0.11048922079E+04  0.64774133063E+03 0.  0.
         13    1    3    3    0    0  0.49883003967E+02 -0.23136867361E+03  0.70459332736E+02  0.24694998437E+03  0.00000000000E+00 0. -1.
          4    1    3    3  501    0 -0.49883003967E+02  0.23136867361E+03  0.82464845941E+03  0.85794222348E+03  0.00000000000E+00 0. -1.
<mgrwt>
<rscale>  0 0.64774133E+03</rscale>
<asrwt>0</asrwt>
<pdfrwt beam="1">0</pdfrwt>
<pdfrwt beam="2">  1        2 0.38142701E+00 0.64774133E+03</pdfrwt>
<totfact> 0.46708563E+00</totfact>
</mgrwt>
</event>
<event>
 5    1  0.2381755E-004  0.6764612E+03  0.7818608E-02  0.9758356E-01
         13   -1    0    0    0    0  0.00000000000E+00  0.00000000000E+00  0.10000000000E+04  0.10000000000E+04  0.00000000000E+00 0. -1.
          2   -1    0    0  501    0 -0.00000000000E+00 -0.00000000000E+00 -0.11439994503E+03  0.11439994503E+03  0.00000000000E+00 0. -1.
    9000006    2    1    2  501    0  0.00000000000E+00  0.00000000000E+00  0.88560005497E+03  0.11143999450E+04  0.67646121848E+03 0.  0.
         13    1    3    3    0    0 -0.29724019773E+03 -0.12535664355E+03  0.61026761490E+03  0.69028442328E+03  0.00000000000E+00 0. -1.
          4    1    3    3  501    0  0.29724019773E+03  0.12535664355E+03  0.27533244007E+03  0.42411552175E+03  0.00000000000E+00 0. -1.
<mgrwt>
<rscale>  0 0.67646122E+03</rscale>
<asrwt>0</asrwt>
<pdfrwt beam="1">0</pdfrwt>
<pdfrwt beam="2">  1        2 0.41600068E+00 0.67646122E+03</pdfrwt>
<totfact> 0.34578461E+00</totfact>
</mgrwt>
</event>
<event>
 5    1  0.2381755E-004  0.6315940E+03  0.7818608E-02  0.9841943E-01
         13   -1    0    0    0    0  0.00000000000E+00  0.00000000000E+00  0.10000000000E+04  0.10000000000E+04  0.00000000000E+00 0. -1.
          2   -1    0    0  501    0 -0.00000000000E+00 -0.00000000000E+00 -0.99727758447E+02  0.99727758447E+02  0.00000000000E+00 0. -1.
    9000006    2    1    2  501    0  0.00000000000E+00  0.00000000000E+00  0.90027224155E+03  0.10997277584E+04  0.63159404192E+03 0.  0.
         13    1    3    3    0    0 -0.66593182874E+02  0.24645709965E+03  0.77379221318E+03  0.81481908615E+03  0.00000000000E+00 0. -1.
          2    1    3    3  501    0  0.66593182874E+02 -0.24645709965E+03  0.12648002837E+03  0.28490867230E+03  0.00000000000E+00 0. -1.
<mgrwt>
<rscale>  0 0.63159404E+03</rscale>
<asrwt>0</asrwt>
<pdfrwt beam="1">0</pdfrwt>
<pdfrwt beam="2">  1        2 0.36264716E+00 0.63159404E+03</pdfrwt>
<totfact> 0.54805285E+00</totfact>
</mgrwt>
</event>
<event>
 5    1  0.2381755E-004  0.6553966E+03  0.7818608E-02  0.9796705E-01
         13   -1    0    0    0    0  0.00000000000E+00  0.00000000000E+00  0.10000000000E+04  0.10000000000E+04  0.00000000000E+00 0. -1.
          2   -1    0    0  501    0 -0.00000000000E+00 -0.00000000000E+00 -0.10738616466E+03  0.10738616466E+03  0.00000000000E+00 0. -1.
    9000006    2    1    2  501    0  0.00000000000E+00  0.00000000000E+00  0.89261383534E+03  0.11073861647E+04  0.65539656593E+03 0.  0.
         13    1    3    3    0    0  0.16668066351E+03 -0.26721498389E+03  0.29330442483E+03  0.43036470212E+03  0.00000000000E+00 0. -1.
          2    1    3    3  501    0 -0.16668066351E+03  0.26721498389E+03  0.59930941052E+03  0.67702146254E+03  0.00000000000E+00 0. -1.
<mgrwt>
<rscale>  0 0.65539657E+03</rscale>
<asrwt>0</asrwt>
<pdfrwt beam="1">0</pdfrwt>
<pdfrwt beam="2">  1        2 0.39049597E+00 0.65539657E+03</pdfrwt>
<totfact> 0.43203230E+00</totfact>
</mgrwt>
</event>
<event>
 5    1  0.2381755E-004  0.6708037E+03  0.7818608E-02  0.9768507E-01
         13   -1    0    0    0    0  0.00000000000E+00  0.00000000000E+00  0.10000000000E+04  0.10000000000E+04  0.00000000000E+00 0. -1.
          2   -1    0    0  501    0 -0.00000000000E+00 -0.00000000000E+00 -0.11249440494E+03  0.11249440494E+03  0.00000000000E+00 0. -1.
    9000006    2    1    2  501    0  0.00000000000E+00  0.00000000000E+00  0.88750559506E+03  0.11124944049E+04  0.67080371179E+03 0.  0.
         13    1    3    3    0    0  0.32360765033E+02 -0.33339489034E+03  0.41526639435E+03  0.53352183676E+03  0.00000000000E+00 0. -1.
          4    1    3    3  501    0 -0.32360765033E+02  0.33339489034E+03  0.47223920071E+03  0.57897256818E+03  0.00000000000E+00 0. -1.
<mgrwt>
<rscale>  0 0.67080371E+03</rscale>
<asrwt>0</asrwt>
<pdfrwt beam="1">0</pdfrwt>
<pdfrwt beam="2">  1        2 0.40907143E+00 0.67080371E+03</pdfrwt>
<totfact> 0.36753924E+00</totfact>
</mgrwt>
</event>
<event>
 5    1  0.2381755E-004  0.5343983E+03  0.7818608E-02  0.1005171E+00
         13   -1    0    0    0    0  0.00000000000E+00  0.00000000000E+00  0.10000000000E+04  0.10000000000E+04  0.00000000000E+00 0. -1.
          2   -1    0    0  501    0 -0.00000000000E+00 -0.00000000000E+00 -0.71395375187E+02  0.71395375187E+02  0.00000000000E+00 0. -1.
    9000006    2    1    2  501    0  0.00000000000E+00  0.00000000000E+00  0.92860462481E+03  0.10713953752E+04  0.53439826043E+03 0.  0.
         13    1    3    3    0    0  0.30148508950E+02  0.10877174852E+03 -0.21251986957E+02  0.11485587846E+03  0.00000000000E+00 0. -1.
          4    1    3    3  501    0 -0.30148508950E+02 -0.10877174852E+03  0.94985661177E+03  0.95653949672E+03  0.00000000000E+00 0. -1.
<mgrwt>
<rscale>  0 0.53439826E+03</rscale>
<asrwt>0</asrwt>
<pdfrwt beam="1">0</pdfrwt>
<pdfrwt beam="2">  1        2 0.25962009E+00 0.53439826E+03</pdfrwt>
<totfact> 0.12874004E+01</totfact>
</mgrwt>
</event>
<event>
 5    1  0.2381755E-004  0.6424105E+03  0.7818608E-02  0.9821125E-01
         13   -1    0    0    0    0  0.00000000000E+00  0.00000000000E+00  0.10000000000E+04  0.10000000000E+04  0.00000000000E+00 0. -1.
          2   -1    0    0  501    0 -0.00000000000E+00 -0.00000000000E+00 -0.10317282722E+03  0.10317282722E+03  0.00000000000E+00 0. -1.
    9000006    2    1    2  501    0  0.00000000000E+00  0.00000000000E+00  0.89682717278E+03  0.11031728272E+04  0.64241054542E+03 0.  0.
         13    1    3    3    0    0  0.13610827741E+03  0.20730312419E+03  0.79896936026E+03  0.83657162701E+03  0.00000000000E+00 0. -1.
          4    1    3    3  501    0 -0.13610827741E+03 -0.20730312419E+03  0.97857812519E+02  0.26660120020E+03  0.00000000000E+00 0. -1.
<mgrwt>
<rscale>  0 0.64241055E+03</rscale>
<asrwt>0</asrwt>
<pdfrwt beam="1">0</pdfrwt>
<pdfrwt beam="2">  1        2 0.37517471E+00 0.64241055E+03</pdfrwt>
<totfact> 0.49273598E+00</totfact>
</mgrwt>
</event>
<event>
 5    1  0.2381755E-004  0.6547744E+03  0.7818608E-02  0.9797861E-01
         13   -1    0    0    0    0  0.00000000000E+00  0.00000000000E+00  0.10000000000E+04  0.10000000000E+04  0.00000000000E+00 0. -1.
          2   -1    0    0  501    0 -0.00000000000E+00 -0.00000000000E+00 -0.10718237085E+03  0.10718237085E+03  0.00000000000E+00 0. -1.
    9000006    2    1    2  501    0  0.00000000000E+00  0.00000000000E+00  0.89281762915E+03  0.11071823708E+04  0.65477437595E+03 0.  0.
         13    1    3    3    0    0 -0.13711713379E+03 -0.23484141467E+03  0.75465499578E+03  0.80215694292E+03  0.00000000000E+00 0. -1.
          2    1    3    3  501    0  0.13711713379E+03  0.23484141467E+03  0.13816263337E+03  0.30502542793E+03  0.00000000000E+00 0. -1.
<mgrwt>
<rscale>  0 0.65477438E+03</rscale>
<asrwt>0</asrwt>
<pdfrwt beam="1">0</pdfrwt>
<pdfrwt beam="2">  1        2 0.38975490E+00 0.65477438E+03</pdfrwt>
<totfact> 0.43480462E+00</totfact>
</mgrwt>
</event>
<event>
 5    1  0.2381755E-004  0.6635843E+03  0.7818608E-02  0.9781618E-01
         13   -1    0    0    0    0  0.00000000000E+00  0.00000000000E+00  0.10000000000E+04  0.10000000000E+04  0.00000000000E+00 0. -1.
          2   -1    0    0  501    0 -0.00000000000E+00 -0.00000000000E+00 -0.11008603780E+03  0.11008603780E+03  0.00000000000E+00 0. -1.
    9000006    2    1    2  501    0  0.00000000000E+00  0.00000000000E+00  0.88991396220E+03  0.11100860378E+04  0.66358432109E+03 0.  0.
         13    1    3    3    0    0 -0.77714805191E+02  0.58544639440E+02  0.97559756508E+03  0.98043749151E+03  0.00000000000E+00 0. -1.
          2    1    3    3  501    0  0.77714805191E+02 -0.58544639440E+02 -0.85683602883E+02  0.12964854629E+03  0.00000000000E+00 0. -1.
<mgrwt>
<rscale>  0 0.66358432E+03</rscale>
<asrwt>0</asrwt>
<pdfrwt beam="1">0</pdfrwt>
<pdfrwt beam="2">  1        2 0.40031371E+00 0.66358432E+03</pdfrwt>
<totfact> 0.39678061E+00</totfact>
</mgrwt>
</event>
<event>
 5    1  0.2381755E-004  0.6589213E+03  0.7818608E-02  0.9790182E-01
         13   -1    0    0    0    0  0.00000000000E+00  0.00000000000E+00  0.10000000000E+04  0.10000000000E+04  0.00000000000E+00 0. -1.
          2   -1    0    0  501    0 -0.00000000000E+00 -0.00000000000E+00 -0.10854431617E+03  0.10854431617E+03  0.00000000000E+00 0. -1.
    9000006    2    1    2  501    0  0.00000000000E+00  0.00000000000E+00  0.89145568383E+03  0.11085443162E+04  0.65892128867E+03 0.  0.
         13    1    3    3    0    0 -0.26751040244E+03 -0.65659764345E+01  0.76907151877E+03  0.81429474298E+03  0.00000000000E+00 0. -1.
          2    1    3    3  501    0  0.26751040244E+03  0.65659764345E+01  0.12238416506E+03  0.29424957319E+03  0.00000000000E+00 0. -1.
<mgrwt>
<rscale>  0 0.65892129E+03</rscale>
<asrwt>0</asrwt>
<pdfrwt beam="1">0</pdfrwt>
<pdfrwt beam="2">  1        2 0.39470744E+00 0.65892129E+03</pdfrwt>
<totfact> 0.41657841E+00</totfact>
</mgrwt>
</event>
<event>
 5    1  0.2381755E-004  0.6287341E+03  0.7818608E-02  0.9847522E-01
         13   -1    0    0    0    0  0.00000000000E+00  0.00000000000E+00  0.10000000000E+04  0.10000000000E+04  0.00000000000E+00 0. -1.
          2   -1    0    0  501    0 -0.00000000000E+00 -0.00000000000E+00 -0.98826650478E+02  0.98826650478E+02  0.00000000000E+00 0. -1.
    9000006    2    1    2  501    0  0.00000000000E+00  0.00000000000E+00  0.90117334952E+03  0.10988266505E+04  0.62873412657E+03 0.  0.
         13    1    3    3    0    0 -0.60343868707E+02  0.29485768061E+03  0.29190132412E+03  0.41927177025E+03  0.00000000000E+00 0. -1.
          4    1    3    3  501    0  0.60343868707E+02 -0.29485768061E+03  0.60927202540E+03  0.67955488023E+03  0.00000000000E+00 0. -1.
<mgrwt>
<rscale>  0 0.62873413E+03</rscale>
<asrwt>0</asrwt>
<pdfrwt beam="1">0</pdfrwt>
<pdfrwt beam="2">  1        2 0.35937040E+00 0.62873413E+03</pdfrwt>
<totfact> 0.56343514E+00</totfact>
</mgrwt>
</event>
<event>
 5    1  0.2381755E-004  0.6317270E+03  0.7818608E-02  0.9841685E-01
         13   -1    0    0    0    0  0.00000000000E+00  0.00000000000E+00  0.10000000000E+04  0.10000000000E+04  0.00000000000E+00 0. -1.
          2   -1    0    0  501    0 -0.00000000000E+00 -0.00000000000E+00 -0.99769739987E+02  0.99769739987E+02  0.00000000000E+00 0. -1.
    9000006    2    1    2  501    0  0.00000000000E+00  0.00000000000E+00  0.90023026001E+03  0.10997697400E+04  0.63172696630E+03 0.  0.
         13    1    3    3    0    0  0.45969749280E+02  0.77526530307E+02  0.97713802779E+03  0.98128604704E+03  0.00000000000E+00 0. -1.
          2    1    3    3  501    0 -0.45969749280E+02 -0.77526530307E+02 -0.76907767780E+02  0.11848369295E+03  0.00000000000E+00 0. -1.
<mgrwt>
<rscale>  0 0.63172697E+03</rscale>
<asrwt>0</asrwt>
<pdfrwt beam="1">0</pdfrwt>
<pdfrwt beam="2">  1        2 0.36279982E+00 0.63172697E+03</pdfrwt>
<totfact> 0.54734575E+00</totfact>
</mgrwt>
</event>
<event>
 5    1  0.2381755E-004  0.6622555E+03  0.7818608E-02  0.9784051E-01
         13   -1    0    0    0    0  0.00000000000E+00  0.00000000000E+00  0.10000000000E+04  0.10000000000E+04  0.00000000000E+00 0. -1.
          2   -1    0    0  501    0 -0.00000000000E+00 -0.00000000000E+00 -0.10964559157E+03  0.10964559157E+03  0.00000000000E+00 0. -1.
    9000006    2    1    2  501    0  0.00000000000E+00  0.00000000000E+00  0.89035440843E+03  0.11096455916E+04  0.66225551436E+03 0.  0.
         13    1    3    3    0    0 -0.19680941327E+03 -0.12240633692E+02  0.89089316446E+03  0.91245515437E+03  0.00000000000E+00 0. -1.
          4    1    3    3  501    0  0.19680941327E+03  0.12240633692E+02 -0.53875602995E+00  0.19719043720E+03  0.00000000000E+00 0. -1.
<mgrwt>
<rscale>  0 0.66225551E+03</rscale>
<asrwt>0</asrwt>
<pdfrwt beam="1">0</pdfrwt>
<pdfrwt beam="2">  1        2 0.39871208E+00 0.66225551E+03</pdfrwt>
<totfact> 0.40234834E+00</totfact>
</mgrwt>
</event>
<event>
 5    1  0.2381755E-004  0.6514742E+03  0.7818608E-02  0.9804017E-01
         13   -1    0    0    0    0  0.00000000000E+00  0.00000000000E+00  0.10000000000E+04  0.10000000000E+04  0.00000000000E+00 0. -1.
          2   -1    0    0  501    0 -0.00000000000E+00 -0.00000000000E+00 -0.10610466356E+03  0.10610466356E+03  0.00000000000E+00 0. -1.
    9000006    2    1    2  501    0  0.00000000000E+00  0.00000000000E+00  0.89389533644E+03  0.11061046636E+04  0.65147421609E+03 0.  0.
         13    1    3    3    0    0  0.96461670859E+02 -0.21092112246E+02 -0.80083096101E+02  0.12713391925E+03  0.00000000000E+00 0. -1.
          2    1    3    3  501    0 -0.96461670859E+02  0.21092112246E+02  0.97397843254E+03  0.97897074430E+03  0.00000000000E+00 0. -1.
<mgrwt>
<rscale>  0 0.65147422E+03</rscale>
<asrwt>0</asrwt>
<pdfrwt beam="1">0</pdfrwt>
<pdfrwt beam="2">  1        2 0.38583595E+00 0.65147422E+03</pdfrwt>
<totfact> 0.44973462E+00</totfact>
</mgrwt>
</event>
<event>
 5    1  0.2381755E-004  0.6472595E+03  0.7818608E-02  0.9811935E-01
         13   -1    0    0    0    0  0.00000000000E+00  0.00000000000E+00  0.10000000000E+04  0.10000000000E+04  0.00000000000E+00 0. -1.
          2   -1    0    0  501    0 -0.00000000000E+00 -0.00000000000E+00 -0.10473620198E+03  0.10473620198E+03  0.00000000000E+00 0. -1.
    9000006    2    1    2  501    0  0.00000000000E+00  0.00000000000E+00  0.89526379802E+03  0.11047362020E+04  0.64725945951E+03 0.  0.
         13    1    3    3    0    0  0.29540147296E+03 -0.12188050991E+03  0.36027969169E+03  0.48157901239E+03  0.00000000000E+00 0. -1.
          4    1    3    3  501    0 -0.29540147296E+03  0.12188050991E+03  0.53498410632E+03  0.62315718959E+03  0.00000000000E+00 0. -1.
<mgrwt>
<rscale>  0 0.64725946E+03</rscale>
<asrwt>0</asrwt>
<pdfrwt beam="1">0</pdfrwt>
<pdfrwt beam="2">  1        2 0.38085972E+00 0.64725946E+03</pdfrwt>
<totfact> 0.46936177E+00</totfact>
</mgrwt>
</event>
<event>
 5    1  0.2381755E-004  0.6511405E+03  0.7818608E-02  0.9804641E-01
         13   -1    0    0    0    0  0.00000000000E+00  0.00000000000E+00  0.10000000000E+04  0.10000000000E+04  0.00000000000E+00 0. -1.
          2   -1    0    0  501    0 -0.00000000000E+00 -0.00000000000E+00 -0.10599599070E+03  0.10599599070E+03  0.00000000000E+00 0. -1.
    9000006    2    1    2  501    0  0.00000000000E+00  0.00000000000E+00  0.89400400930E+03  0.11059959907E+04  0.65114050926E+03 0.  0.
         13    1    3    3    0    0  0.13959972001E+03  0.12486718753E+03 -0.53236728475E+01  0.18737192383E+03  0.00000000000E+00 0. -1.
          4    1    3    3  501    0 -0.13959972001E+03 -0.12486718753E+03  0.89932768215E+03  0.91862406687E+03  0.00000000000E+00 0. -1.
<mgrwt>
<rscale>  0 0.65114051E+03</rscale>
<asrwt>0</asrwt>
<pdfrwt beam="1">0</pdfrwt>
<pdfrwt beam="2">  1        2 0.38544078E+00 0.65114051E+03</pdfrwt>
<totfact> 0.45126559E+00</totfact>
</mgrwt>
</event>
<event>
 5    1  0.2381755E-004  0.6030745E+03  0.7818608E-02  0.9899048E-01
         13   -1    0    0    0    0  0.00000000000E+00  0.00000000000E+00  0.10000000000E+04  0.10000000000E+04  0.00000000000E+00 0. -1.
          2   -1    0    0  501    0 -0.00000000000E+00 -0.00000000000E+00 -0.90924707513E+02  0.90924707513E+02  0.00000000000E+00 0. -1.
    9000006    2    1    2  501    0  0.00000000000E+00  0.00000000000E+00  0.90907529249E+03  0.10909247075E+04  0.60307448135E+03 0.  0.
         13    1    3    3    0    0 -0.15926121062E+03 -0.22379588128E+03  0.22950119253E+03  0.35793788156E+03  0.00000000000E+00 0. -1.
          2    1    3    3  501    0  0.15926121062E+03  0.22379588128E+03  0.67957409996E+03  0.73298682595E+03  0.00000000000E+00 0. -1.
<mgrwt>
<rscale>  0 0.60307448E+03</rscale>
<asrwt>0</asrwt>
<pdfrwt beam="1">0</pdfrwt>
<pdfrwt beam="2">  1        2 0.33063600E+00 0.60307448E+03</pdfrwt>
<totfact> 0.71663695E+00</totfact>
</mgrwt>
</event>
<event>
 5    1  0.2381755E-004  0.6347151E+03  0.7818608E-02  0.9835891E-01
         13   -1    0    0    0    0  0.00000000000E+00  0.00000000000E+00  0.10000000000E+04  0.10000000000E+04  0.00000000000E+00 0. -1.
          2   -1    0    0  501    0 -0.00000000000E+00 -0.00000000000E+00 -0.10071581060E+03  0.10071581060E+03  0.00000000000E+00 0. -1.
    9000006    2    1    2  501    0  0.00000000000E+00  0.00000000000E+00  0.89928418940E+03  0.11007158106E+04  0.63471508759E+03 0.  0.
         13    1    3    3    0    0 -0.27547634143E+03  0.12630569862E+03  0.28626469667E+03  0.41687866431E+03  0.00000000000E+00 0. -1.
          4    1    3    3  501    0  0.27547634143E+03 -0.12630569862E+03  0.61301949273E+03  0.68383714630E+03  0.00000000000E+00 0. -1.
<mgrwt>
<rscale>  0 0.63471509E+03</rscale>
<asrwt>0</asrwt>
<pdfrwt beam="1">0</pdfrwt>
<pdfrwt beam="2">  1        2 0.36624008E+00 0.63471509E+03</pdfrwt>
<totfact> 0.53163193E+00</totfact>
</mgrwt>
</event>
<event>
 5    1  0.2381755E-004  0.6595168E+03  0.7818608E-02  0.9789084E-01
         13   -1    0    0    0    0  0.00000000000E+00  0.00000000000E+00  0.10000000000E+04  0.10000000000E+04  0.00000000000E+00 0. -1.
          2   -1    0    0  501    0 -0.00000000000E+00 -0.00000000000E+00 -0.10874060455E+03  0.10874060455E+03  0.00000000000E+00 0. -1.
    9000006    2    1    2  501    0  0.00000000000E+00  0.00000000000E+00  0.89125939545E+03  0.11087406045E+04  0.65951680661E+03 0.  0.
         13    1    3    3    0    0 -0.26760188179E+03 -0.18962249354E+03  0.50321085220E+03  0.60065682296E+03  0.00000000000E+00 0. -1.
          4    1    3    3  501    0  0.26760188179E+03  0.18962249354E+03  0.38804854325E+03  0.50808378159E+03  0.00000000000E+00 0. -1.
<mgrwt>
<rscale>  0 0.65951681E+03</rscale>
<asrwt>0</asrwt>
<pdfrwt beam="1">0</pdfrwt>
<pdfrwt beam="2">  1        2 0.39542121E+00 0.65951681E+03</pdfrwt>
<totfact> 0.41400938E+00</totfact>
</mgrwt>
</event>
<event>
 5    1  0.2381755E-004  0.6568750E+03  0.7818608E-02  0.9793963E-01
         13   -1    0    0    0    0  0.00000000000E+00  0.00000000000E+00  0.10000000000E+04  0.10000000000E+04  0.00000000000E+00 0. -1.
          2   -1    0    0  501    0 -0.00000000000E+00 -0.00000000000E+00 -0.10787120589E+03  0.10787120589E+03  0.00000000000E+00 0. -1.
    9000006    2    1    2  501    0  0.00000000000E+00  0.00000000000E+00  0.89212879411E+03  0.11078712059E+04  0.65687504411E+03 0.  0.
         13    1    3    3    0    0  0.23554079495E+03  0.21691528771E+03  0.32282297044E+03  0.45469371930E+03  0.00000000000E+00 0. -1.
          4    1    3    3  501    0 -0.23554079495E+03 -0.21691528771E+03  0.56930582367E+03  0.65317748659E+03  0.00000000000E+00 0. -1.
<mgrwt>
<rscale>  0 0.65687504E+03</rscale>
<asrwt>0</asrwt>
<pdfrwt beam="1">0</pdfrwt>
<pdfrwt beam="2">  1        2 0.39225976E+00 0.65687504E+03</pdfrwt>
<totfact> 0.42549814E+00</totfact>
</mgrwt>
</event>
<event>
 5    1  0.2381755E-004  0.6469679E+03  0.7818608E-02  0.9812485E-01
         13   -1    0    0    0    0  0.00000000000E+00  0.00000000000E+00  0.10000000000E+04  0.10000000000E+04  0.00000000000E+00 0. -1.
          2   -1    0    0  501    0 -0.00000000000E+00 -0.00000000000E+00 -0.10464186267E+03  0.10464186267E+03  0.00000000000E+00 0. -1.
    9000006    2    1    2  501    0  0.00000000000E+00  0.00000000000E+00  0.89535813733E+03  0.11046418627E+04  0.64696788999E+03 0.  0.
         13    1    3    3    0    0 -0.25845655420E+03 -0.18549738365E+03  0.54771650978E+03  0.63340543480E+03  0.00000000000E+00 0. -1.
          4    1    3    3  501    0  0.25845655420E+03  0.18549738365E+03  0.34764162755E+03  0.47123642787E+03  0.00000000000E+00 0. -1.
<mgrwt>
<rscale>  0 0.64696789E+03</rscale>
<asrwt>0</asrwt>
<pdfrwt beam="1">0</pdfrwt>
<pdfrwt beam="2">  1        2 0.38051667E+00 0.64696789E+03</pdfrwt>
<totfact> 0.47074308E+00</totfact>
</mgrwt>
</event>
<event>
 5    1  0.2381755E-004  0.6466651E+03  0.7818608E-02  0.9813057E-01
         13   -1    0    0    0    0  0.00000000000E+00  0.00000000000E+00  0.10000000000E+04  0.10000000000E+04  0.00000000000E+00 0. -1.
          2   -1    0    0  501    0 -0.00000000000E+00 -0.00000000000E+00 -0.10454392758E+03  0.10454392758E+03  0.00000000000E+00 0. -1.
    9000006    2    1    2  501    0  0.00000000000E+00  0.00000000000E+00  0.89545607242E+03  0.11045439276E+04  0.64666506813E+03 0.  0.
         13    1    3    3    0    0  0.12910033173E+03  0.23081256817E+03  0.76545779724E+03  0.80985614564E+03  0.00000000000E+00 0. -1.
          4    1    3    3  501    0 -0.12910033173E+03 -0.23081256817E+03  0.12999827517E+03  0.29468778194E+03  0.00000000000E+00 0. -1.
<mgrwt>
<rscale>  0 0.64666507E+03</rscale>
<asrwt>0</asrwt>
<pdfrwt beam="1">0</pdfrwt>
<pdfrwt beam="2">  1        2 0.38016054E+00 0.64666507E+03</pdfrwt>
<totfact> 0.47218094E+00</totfact>
</mgrwt>
</event>
<event>
 5    1  0.2381755E-004  0.6230188E+03  0.7818608E-02  0.9858768E-01
         13   -1    0    0    0    0  0.00000000000E+00  0.00000000000E+00  0.10000000000E+04  0.10000000000E+04  0.00000000000E+00 0. -1.
          2   -1    0    0  501    0 -0.00000000000E+00 -0.00000000000E+00 -0.97038117126E+02  0.97038117126E+02  0.00000000000E+00 0. -1.
    9000006    2    1    2  501    0  0.00000000000E+00  0.00000000000E+00  0.90296188287E+03  0.10970381171E+04  0.62301883479E+03 0.  0.
         13    1    3    3    0    0  0.29958699369E+03 -0.58300344672E+02  0.34170232216E+03  0.45816129687E+03  0.00000000000E+00 0. -1.
          2    1    3    3  501    0 -0.29958699369E+03  0.58300344672E+02  0.56125956071E+03  0.63887682026E+03  0.00000000000E+00 0. -1.
<mgrwt>
<rscale>  0 0.62301883E+03</rscale>
<asrwt>0</asrwt>
<pdfrwt beam="1">0</pdfrwt>
<pdfrwt beam="2">  1        2 0.35286662E+00 0.62301883E+03</pdfrwt>
<totfact> 0.59515800E+00</totfact>
</mgrwt>
</event>
<event>
 5    1  0.2381755E-004  0.6586919E+03  0.7818608E-02  0.9790605E-01
         13   -1    0    0    0    0  0.00000000000E+00  0.00000000000E+00  0.10000000000E+04  0.10000000000E+04  0.00000000000E+00 0. -1.
          2   -1    0    0  501    0 -0.00000000000E+00 -0.00000000000E+00 -0.10846874043E+03  0.10846874043E+03  0.00000000000E+00 0. -1.
    9000006    2    1    2  501    0  0.00000000000E+00  0.00000000000E+00  0.89153125957E+03  0.11084687404E+04  0.65869185643E+03 0.  0.
         13    1    3    3    0    0  0.21208699553E+03 -0.21761482878E+03  0.23202832763E+03  0.38232741492E+03  0.00000000000E+00 0. -1.
          4    1    3    3  501    0 -0.21208699553E+03  0.21761482878E+03  0.65950293194E+03  0.72614132551E+03  0.00000000000E+00 0. -1.
<mgrwt>
<rscale>  0 0.65869186E+03</rscale>
<asrwt>0</asrwt>
<pdfrwt beam="1">0</pdfrwt>
<pdfrwt beam="2">  1        2 0.39443262E+00 0.65869186E+03</pdfrwt>
<totfact> 0.41757138E+00</totfact>
</mgrwt>
</event>
<event>
 5    1  0.2381755E-004  0.6581699E+03  0.7818608E-02  0.9791568E-01
         13   -1    0    0    0    0  0.00000000000E+00  0.00000000000E+00  0.10000000000E+04  0.10000000000E+04  0.00000000000E+00 0. -1.
          2   -1    0    0  501    0 -0.00000000000E+00 -0.00000000000E+00 -0.10829691893E+03  0.10829691893E+03  0.00000000000E+00 0. -1.
    9000006    2    1    2  501    0  0.00000000000E+00  0.00000000000E+00  0.89170308107E+03  0.11082969189E+04  0.65816994441E+03 0.  0.
         13    1    3    3    0    0  0.16739453960E+03 -0.90139267874E+02 -0.64613390129E+01  0.19023082926E+03  0.00000000000E+00 0. -1.
          4    1    3    3  501    0 -0.16739453960E+03  0.90139267874E+02  0.89816442008E+03  0.91806608967E+03  0.00000000000E+00 0. -1.
<mgrwt>
<rscale>  0 0.65816994E+03</rscale>
<asrwt>0</asrwt>
<pdfrwt beam="1">0</pdfrwt>
<pdfrwt beam="2">  1        2 0.39380781E+00 0.65816994E+03</pdfrwt>
<totfact> 0.41983685E+00</totfact>
</mgrwt>
</event>
<event>
 5    1  0.2381755E-004  0.6542386E+03  0.7818608E-02  0.9798858E-01
         13   -1    0    0    0    0  0.00000000000E+00  0.00000000000E+00  0.10000000000E+04  0.10000000000E+04  0.00000000000E+00 0. -1.
          2   -1    0    0  501    0 -0.00000000000E+00 -0.00000000000E+00 -0.10700703676E+03  0.10700703676E+03  0.00000000000E+00 0. -1.
    9000006    2    1    2  501    0  0.00000000000E+00  0.00000000000E+00  0.89299296324E+03  0.11070070368E+04  0.65423860099E+03 0.  0.
         13    1    3    3    0    0 -0.25959790105E+03 -0.29619726943E+02  0.11346415426E+03  0.28485524878E+03  0.00000000000E+00 0. -1.
          4    1    3    3  501    0  0.25959790105E+03  0.29619726943E+02  0.77952880898E+03  0.82215178798E+03  0.00000000000E+00 0. -1.
<mgrwt>
<rscale>  0 0.65423860E+03</rscale>
<asrwt>0</asrwt>
<pdfrwt beam="1">0</pdfrwt>
<pdfrwt beam="2">  1        2 0.38911732E+00 0.65423860E+03</pdfrwt>
<totfact> 0.43720264E+00</totfact>
</mgrwt>
</event>
<event>
 5    1  0.2381755E-004  0.6535659E+03  0.7818608E-02  0.9800111E-01
         13   -1    0    0    0    0  0.00000000000E+00  0.00000000000E+00  0.10000000000E+04  0.10000000000E+04  0.00000000000E+00 0. -1.
          2   -1    0    0  501    0 -0.00000000000E+00 -0.00000000000E+00 -0.10678708841E+03  0.10678708841E+03  0.00000000000E+00 0. -1.
    9000006    2    1    2  501    0  0.00000000000E+00  0.00000000000E+00  0.89321291159E+03  0.11067870884E+04  0.65356587551E+03 0.  0.
         13    1    3    3    0    0  0.25820717204E+01  0.25361000348E+03  0.97645433864E+02  0.27177073373E+03  0.00000000000E+00 0. -1.
          2    1    3    3  501    0 -0.25820717204E+01 -0.25361000348E+03  0.79556747773E+03  0.83501635468E+03  0.00000000000E+00 0. -1.
<mgrwt>
<rscale>  0 0.65356588E+03</rscale>
<asrwt>0</asrwt>
<pdfrwt beam="1">0</pdfrwt>
<pdfrwt beam="2">  1        2 0.38831750E+00 0.65356588E+03</pdfrwt>
<totfact> 0.44022775E+00</totfact>
</mgrwt>
</event>
<event>
 5    1  0.2381755E-004  0.6445948E+03  0.7818608E-02  0.9816975E-01
         13   -1    0    0    0    0  0.00000000000E+00  0.00000000000E+00  0.10000000000E+04  0.10000000000E+04  0.00000000000E+00 0. -1.
          2   -1    0    0  501    0 -0.00000000000E+00 -0.00000000000E+00 -0.10387563009E+03  0.10387563009E+03  0.00000000000E+00 0. -1.
    9000006    2    1    2  501    0  0.00000000000E+00  0.00000000000E+00  0.89612436991E+03  0.11038756301E+04  0.64459484976E+03 0.  0.
         13    1    3    3    0    0  0.15787023335E+03  0.17596711587E+03  0.82320835394E+03  0.85648084067E+03  0.00000000000E+00 0. -1.
          4    1    3    3  501    0 -0.15787023335E+03 -0.17596711587E+03  0.72916015978E+02  0.24739478941E+03  0.00000000000E+00 0. -1.
<mgrwt>
<rscale>  0 0.64459485E+03</rscale>
<asrwt>0</asrwt>
<pdfrwt beam="1">0</pdfrwt>
<pdfrwt beam="2">  1        2 0.37773036E+00 0.64459485E+03</pdfrwt>
<totfact> 0.48210002E+00</totfact>
</mgrwt>
</event>
<event>
 5    1  0.2381755E-004  0.6506192E+03  0.7818608E-02  0.9805618E-01
         13   -1    0    0    0    0  0.00000000000E+00  0.00000000000E+00  0.10000000000E+04  0.10000000000E+04  0.00000000000E+00 0. -1.
          2   -1    0    0  501    0 -0.00000000000E+00 -0.00000000000E+00 -0.10582633328E+03  0.10582633328E+03  0.00000000000E+00 0. -1.
    9000006    2    1    2  501    0  0.00000000000E+00  0.00000000000E+00  0.89417366672E+03  0.11058263333E+04  0.65061919211E+03 0.  0.
         13    1    3    3    0    0  0.18081656599E+03 -0.27429959923E+02 -0.10177415104E+02  0.18316826421E+03  0.00000000000E+00 0. -1.
          2    1    3    3  501    0 -0.18081656599E+03  0.27429959923E+02  0.90435108182E+03  0.92265806907E+03  0.00000000000E+00 0. -1.
<mgrwt>
<rscale>  0 0.65061919E+03</rscale>
<asrwt>0</asrwt>
<pdfrwt beam="1">0</pdfrwt>
<pdfrwt beam="2">  1        2 0.38482384E+00 0.65061919E+03</pdfrwt>
<totfact> 0.45366515E+00</totfact>
</mgrwt>
</event>
<event>
 5    1  0.2381755E-004  0.6076690E+03  0.7818608E-02  0.9889622E-01
         13   -1    0    0    0    0  0.00000000000E+00  0.00000000000E+00  0.10000000000E+04  0.10000000000E+04  0.00000000000E+00 0. -1.
          2   -1    0    0  501    0 -0.00000000000E+00 -0.00000000000E+00 -0.92315395973E+02  0.92315395973E+02  0.00000000000E+00 0. -1.
    9000006    2    1    2  501    0  0.00000000000E+00  0.00000000000E+00  0.90768460403E+03  0.10923153960E+04  0.60766897559E+03 0.  0.
         13    1    3    3    0    0 -0.13116693287E+03 -0.20107985829E+03  0.11910429918E+03  0.26799945480E+03  0.00000000000E+00 0. -1.
          2    1    3    3  501    0  0.13116693287E+03  0.20107985829E+03  0.78858030484E+03  0.82431594117E+03  0.00000000000E+00 0. -1.
<mgrwt>
<rscale>  0 0.60766898E+03</rscale>
<asrwt>0</asrwt>
<pdfrwt beam="1">0</pdfrwt>
<pdfrwt beam="2">  1        2 0.33569306E+00 0.60766898E+03</pdfrwt>
<totfact> 0.68711095E+00</totfact>
</mgrwt>
</event>
<event>
 5    1  0.2381755E-004  0.6530386E+03  0.7818608E-02  0.9801094E-01
         13   -1    0    0    0    0  0.00000000000E+00  0.00000000000E+00  0.10000000000E+04  0.10000000000E+04  0.00000000000E+00 0. -1.
          2   -1    0    0  501    0 -0.00000000000E+00 -0.00000000000E+00 -0.10661486959E+03  0.10661486959E+03  0.00000000000E+00 0. -1.
    9000006    2    1    2  501    0  0.00000000000E+00  0.00000000000E+00  0.89338513041E+03  0.11066148696E+04  0.65303864997E+03 0.  0.
         13    1    3    3    0    0 -0.17167030980E+03 -0.93593829584E+02  0.35575795786E+01  0.19555857582E+03  0.00000000000E+00 0. -1.
          2    1    3    3  501    0  0.17167030980E+03  0.93593829584E+02  0.88982755083E+03  0.91105629377E+03  0.00000000000E+00 0. -1.
<mgrwt>
<rscale>  0 0.65303865E+03</rscale>
<asrwt>0</asrwt>
<pdfrwt beam="1">0</pdfrwt>
<pdfrwt beam="2">  1        2 0.38769125E+00 0.65303865E+03</pdfrwt>
<totfact> 0.44260961E+00</totfact>
</mgrwt>
</event>
<event>
 5    1  0.2381755E-004  0.6509890E+03  0.7818608E-02  0.9804925E-01
         13   -1    0    0    0    0  0.00000000000E+00  0.00000000000E+00  0.10000000000E+04  0.10000000000E+04  0.00000000000E+00 0. -1.
          2   -1    0    0  501    0 -0.00000000000E+00 -0.00000000000E+00 -0.10594665758E+03  0.10594665758E+03  0.00000000000E+00 0. -1.
    9000006    2    1    2  501    0  0.00000000000E+00  0.00000000000E+00  0.89405334242E+03  0.11059466576E+04  0.65098896330E+03 0.  0.
         13    1    3    3    0    0 -0.18421762593E+03  0.51330718470E+02  0.89449694020E+03  0.91471074794E+03  0.00000000000E+00 0. -1.
          4    1    3    3  501    0  0.18421762593E+03 -0.51330718470E+02 -0.44359778509E+00  0.19123590965E+03  0.00000000000E+00 0. -1.
<mgrwt>
<rscale>  0 0.65098896E+03</rscale>
<asrwt>0</asrwt>
<pdfrwt beam="1">0</pdfrwt>
<pdfrwt beam="2">  1        2 0.38526139E+00 0.65098896E+03</pdfrwt>
<totfact> 0.45196214E+00</totfact>
</mgrwt>
</event>
<event>
 5    1  0.2381755E-004  0.6440554E+03  0.7818608E-02  0.9817998E-01
         13   -1    0    0    0    0  0.00000000000E+00  0.00000000000E+00  0.10000000000E+04  0.10000000000E+04  0.00000000000E+00 0. -1.
          2   -1    0    0  501    0 -0.00000000000E+00 -0.00000000000E+00 -0.10370183061E+03  0.10370183061E+03  0.00000000000E+00 0. -1.
    9000006    2    1    2  501    0  0.00000000000E+00  0.00000000000E+00  0.89629816939E+03  0.11037018306E+04  0.64405537218E+03 0.  0.
         13    1    3    3    0    0 -0.70095859735E+02 -0.56411303460E+02  0.97802173871E+03  0.98215181418E+03  0.00000000000E+00 0. -1.
          2    1    3    3  501    0  0.70095859735E+02  0.56411303460E+02 -0.81723569322E+02  0.12155001642E+03  0.00000000000E+00 0. -1.
<mgrwt>
<rscale>  0 0.64405537E+03</rscale>
<asrwt>0</asrwt>
<pdfrwt beam="1">0</pdfrwt>
<pdfrwt beam="2">  1        2 0.37709836E+00 0.64405537E+03</pdfrwt>
<totfact> 0.48471053E+00</totfact>
</mgrwt>
</event>
<event>
 5    1  0.2381755E-004  0.6490630E+03  0.7818608E-02  0.9808539E-01
         13   -1    0    0    0    0  0.00000000000E+00  0.00000000000E+00  0.10000000000E+04  0.10000000000E+04  0.00000000000E+00 0. -1.
          2   -1    0    0  501    0 -0.00000000000E+00 -0.00000000000E+00 -0.10532070774E+03  0.10532070774E+03  0.00000000000E+00 0. -1.
    9000006    2    1    2  501    0  0.00000000000E+00  0.00000000000E+00  0.89467929226E+03  0.11053207077E+04  0.64906304082E+03 0.  0.
         13    1    3    3    0    0 -0.16636190318E+03  0.27749051176E+03  0.49053685861E+03  0.58762545605E+03  0.00000000000E+00 0. -1.
          4    1    3    3  501    0  0.16636190318E+03 -0.27749051176E+03  0.40414243365E+03  0.51769525169E+03  0.00000000000E+00 0. -1.
<mgrwt>
<rscale>  0 0.64906304E+03</rscale>
<asrwt>0</asrwt>
<pdfrwt beam="1">0</pdfrwt>
<pdfrwt beam="2">  1        2 0.38298520E+00 0.64906304E+03</pdfrwt>
<totfact> 0.46088530E+00</totfact>
</mgrwt>
</event>
<event>
 5    1  0.2381755E-004  0.6428633E+03  0.7818608E-02  0.9820264E-01
         13   -1    0    0    0    0  0.00000000000E+00  0.00000000000E+00  0.10000000000E+04  0.10000000000E+04  0.00000000000E+00 0. -1.
          2   -1    0    0  501    0 -0.00000000000E+00 -0.00000000000E+00 -0.10331830618E+03  0.10331830618E+03  0.00000000000E+00 0. -1.
    9000006    2    1    2  501    0  0.00000000000E+00  0.00000000000E+00  0.89668169382E+03  0.11033183062E+04  0.64286330174E+03 0.  0.
         13    1    3    3    0    0  0.50484239988E+01 -0.14071908467E+03 -0.47568065885E+02  0.14862727968E+03  0.00000000000E+00 0. -1.
          2    1    3    3  501    0 -0.50484239988E+01  0.14071908467E+03  0.94424975970E+03  0.95469102650E+03  0.00000000000E+00 0. -1.
<mgrwt>
<rscale>  0 0.64286330E+03</rscale>
<asrwt>0</asrwt>
<pdfrwt beam="1">0</pdfrwt>
<pdfrwt beam="2">  1        2 0.37570372E+00 0.64286330E+03</pdfrwt>
<totfact> 0.49051684E+00</totfact>
</mgrwt>
</event>
<event>
 5    1  0.2381755E-004  0.6533356E+03  0.7818608E-02  0.9800540E-01
         13   -1    0    0    0    0  0.00000000000E+00  0.00000000000E+00  0.10000000000E+04  0.10000000000E+04  0.00000000000E+00 0. -1.
          2   -1    0    0  501    0 -0.00000000000E+00 -0.00000000000E+00 -0.10671185380E+03  0.10671185380E+03  0.00000000000E+00 0. -1.
    9000006    2    1    2  501    0  0.00000000000E+00  0.00000000000E+00  0.89328814620E+03  0.11067118538E+04  0.65333560688E+03 0.  0.
         13    1    3    3    0    0 -0.47974049161E+02  0.30140148708E+03  0.24933459097E+03  0.39409656693E+03  0.00000000000E+00 0. -1.
          4    1    3    3  501    0  0.47974049161E+02 -0.30140148708E+03  0.64395355522E+03  0.71261528688E+03  0.00000000000E+00 0. -1.
<mgrwt>
<rscale>  0 0.65333561E+03</rscale>
<asrwt>0</asrwt>
<pdfrwt beam="1">0</pdfrwt>
<pdfrwt beam="2">  1        2 0.38804392E+00 0.65333561E+03</pdfrwt>
<totfact> 0.44126685E+00</totfact>
</mgrwt>
</event>
<event>
 5    1  0.2381755E-004  0.6604791E+03  0.7818608E-02  0.9787312E-01
         13   -1    0    0    0    0  0.00000000000E+00  0.00000000000E+00  0.10000000000E+04  0.10000000000E+04  0.00000000000E+00 0. -1.
          2   -1    0    0  501    0 -0.00000000000E+00 -0.00000000000E+00 -0.10905814407E+03  0.10905814407E+03  0.00000000000E+00 0. -1.
    9000006    2    1    2  501    0  0.00000000000E+00  0.00000000000E+00  0.89094185593E+03  0.11090581441E+04  0.66047905060E+03 0.  0.
         13    1    3    3    0    0 -0.60638493908E+02  0.46958901253E+01 -0.99572646072E+02  0.11667814780E+03  0.00000000000E+00 0. -1.
          2    1    3    3  501    0  0.60638493908E+02 -0.46958901253E+01  0.99051450200E+03  0.99237999627E+03  0.00000000000E+00 0. -1.
<mgrwt>
<rscale>  0 0.66047905E+03</rscale>
<asrwt>0</asrwt>
<pdfrwt beam="1">0</pdfrwt>
<pdfrwt beam="2">  1        2 0.39657591E+00 0.66047905E+03</pdfrwt>
<totfact> 0.40988361E+00</totfact>
</mgrwt>
</event>
<event>
 5    1  0.2381755E-004  0.6412907E+03  0.7818608E-02  0.9823260E-01
         13   -1    0    0    0    0  0.00000000000E+00  0.00000000000E+00  0.10000000000E+04  0.10000000000E+04  0.00000000000E+00 0. -1.
          2   -1    0    0  501    0 -0.00000000000E+00 -0.00000000000E+00 -0.10281344705E+03  0.10281344705E+03  0.00000000000E+00 0. -1.
    9000006    2    1    2  501    0  0.00000000000E+00  0.00000000000E+00  0.89718655295E+03  0.11028134471E+04  0.64129072051E+03 0.  0.
         13    1    3    3    0    0  0.31395481761E+03 -0.24919276270E+02  0.55212944057E+03  0.63563788195E+03  0.00000000000E+00 0. -1.
          2    1    3    3  501    0 -0.31395481761E+03  0.24919276270E+02  0.34505711238E+03  0.46717556510E+03  0.00000000000E+00 0. -1.
<mgrwt>
<rscale>  0 0.64129072E+03</rscale>
<asrwt>0</asrwt>
<pdfrwt beam="1">0</pdfrwt>
<pdfrwt beam="2">  1        2 0.37386787E+00 0.64129072E+03</pdfrwt>
<totfact> 0.49825752E+00</totfact>
</mgrwt>
</event>
<event>
 5    1  0.2381755E-004  0.6395738E+03  0.7818608E-02  0.9826542E-01
         13   -1    0    0    0    0  0.00000000000E+00  0.00000000000E+00  0.10000000000E+04  0.10000000000E+04  0.00000000000E+00 0. -1.
          2   -1    0    0  501    0 -0.00000000000E+00 -0.00000000000E+00 -0.10226367316E+03  0.10226367316E+03  0.00000000000E+00 0. -1.
    9000006    2    1    2  501    0  0.00000000000E+00  0.00000000000E+00  0.89773632684E+03  0.11022636732E+04  0.63957383673E+03 0.  0.
         13    1    3    3    0    0 -0.11999503824E+03 -0.26350129077E+03  0.21488734531E+03  0.36056665212E+03  0.00000000000E+00 0. -1.
          4    1    3    3  501    0  0.11999503824E+03  0.26350129077E+03  0.68284898153E+03  0.74169702104E+03  0.00000000000E+00 0. -1.
<mgrwt>
<rscale>  0 0.63957384E+03</rscale>
<asrwt>0</asrwt>
<pdfrwt beam="1">0</pdfrwt>
<pdfrwt beam="2">  1        2 0.37186869E+00 0.63957384E+03</pdfrwt>
<totfact> 0.50681382E+00</totfact>
</mgrwt>
</event>
<event>
 5    1  0.2381755E-004  0.6496184E+03  0.7818608E-02  0.9807495E-01
         13   -1    0    0    0    0  0.00000000000E+00  0.00000000000E+00  0.10000000000E+04  0.10000000000E+04  0.00000000000E+00 0. -1.
          2   -1    0    0  501    0 -0.00000000000E+00 -0.00000000000E+00 -0.10550102229E+03  0.10550102229E+03  0.00000000000E+00 0. -1.
    9000006    2    1    2  501    0  0.00000000000E+00  0.00000000000E+00  0.89449897771E+03  0.11055010223E+04  0.64961841812E+03 0.  0.
         13    1    3    3    0    0 -0.91699251956E+02  0.26761691076E+03  0.17564010166E+03  0.33298199507E+03  0.00000000000E+00 0. -1.
          2    1    3    3  501    0  0.91699251956E+02 -0.26761691076E+03  0.71885887605E+03  0.77251902721E+03  0.00000000000E+00 0. -1.
<mgrwt>
<rscale>  0 0.64961842E+03</rscale>
<asrwt>0</asrwt>
<pdfrwt beam="1">0</pdfrwt>
<pdfrwt beam="2">  1        2 0.38364089E+00 0.64961842E+03</pdfrwt>
<totfact> 0.45829860E+00</totfact>
</mgrwt>
</event>
<event>
 5    1  0.2381755E-004  0.6318441E+03  0.7818608E-02  0.9841457E-01
         13   -1    0    0    0    0  0.00000000000E+00  0.00000000000E+00  0.10000000000E+04  0.10000000000E+04  0.00000000000E+00 0. -1.
          2   -1    0    0  501    0 -0.00000000000E+00 -0.00000000000E+00 -0.99806754934E+02  0.99806754934E+02  0.00000000000E+00 0. -1.
    9000006    2    1    2  501    0  0.00000000000E+00  0.00000000000E+00  0.90019324507E+03  0.10998067549E+04  0.63184414197E+03 0.  0.
         13    1    3    3    0    0  0.30240157183E+03 -0.82238756918E+02  0.51965283365E+03  0.60683522583E+03  0.00000000000E+00 0. -1.
          2    1    3    3  501    0 -0.30240157183E+03  0.82238756918E+02  0.38054041141E+03  0.49297152910E+03  0.00000000000E+00 0. -1.
<mgrwt>
<rscale>  0 0.63184414E+03</rscale>
<asrwt>0</asrwt>
<pdfrwt beam="1">0</pdfrwt>
<pdfrwt beam="2">  1        2 0.36293442E+00 0.63184414E+03</pdfrwt>
<totfact> 0.54672299E+00</totfact>
</mgrwt>
</event>
<event>
 5    1  0.2381755E-004  0.5934863E+03  0.7818608E-02  0.9919013E-01
         13   -1    0    0    0    0  0.00000000000E+00  0.00000000000E+00  0.10000000000E+04  0.10000000000E+04  0.00000000000E+00 0. -1.
          2   -1    0    0  501    0 -0.00000000000E+00 -0.00000000000E+00 -0.88056491702E+02  0.88056491702E+02  0.00000000000E+00 0. -1.
    9000006    2    1    2  501    0  0.00000000000E+00  0.00000000000E+00  0.91194350830E+03  0.10880564917E+04  0.59348628190E+03 0.  0.
         13    1    3    3    0    0  0.13512099481E+03  0.10260550152E+03  0.96360882354E+01  0.16993653632E+03  0.00000000000E+00 0. -1.
          4    1    3    3  501    0 -0.13512099481E+03 -0.10260550152E+03  0.90230742006E+03  0.91811995539E+03  0.00000000000E+00 0. -1.
<mgrwt>
<rscale>  0 0.59348628E+03</rscale>
<asrwt>0</asrwt>
<pdfrwt beam="1">0</pdfrwt>
<pdfrwt beam="2">  1        2 0.32020610E+00 0.59348628E+03</pdfrwt>
<totfact> 0.78139257E+00</totfact>
</mgrwt>
</event>
<event>
 5    1  0.2381755E-004  0.6372470E+03  0.7818608E-02  0.9831008E-01
         13   -1    0    0    0    0  0.00000000000E+00  0.00000000000E+00  0.10000000000E+04  0.10000000000E+04  0.00000000000E+00 0. -1.
          2   -1    0    0  501    0 -0.00000000000E+00 -0.00000000000E+00 -0.10152093573E+03  0.10152093573E+03  0.00000000000E+00 0. -1.
    9000006    2    1    2  501    0  0.00000000000E+00  0.00000000000E+00  0.89847906427E+03  0.11015209357E+04  0.63724700307E+03 0.  0.
         13    1    3    3    0    0  0.22041508337E+03  0.83153994330E+02  0.78409444121E+02  0.24828499085E+03  0.00000000000E+00 0. -1.
          2    1    3    3  501    0 -0.22041508337E+03 -0.83153994330E+02  0.82006962015E+03  0.85323594488E+03  0.00000000000E+00 0. -1.
<mgrwt>
<rscale>  0 0.63724700E+03</rscale>
<asrwt>0</asrwt>
<pdfrwt beam="1">0</pdfrwt>
<pdfrwt beam="2">  1        2 0.36916782E+00 0.63724700E+03</pdfrwt>
<totfact> 0.51858695E+00</totfact>
</mgrwt>
</event>
<event>
 5    1  0.2381755E-004  0.6528672E+03  0.7818608E-02  0.9801414E-01
         13   -1    0    0    0    0  0.00000000000E+00  0.00000000000E+00  0.10000000000E+04  0.10000000000E+04  0.00000000000E+00 0. -1.
          2   -1    0    0  501    0 -0.00000000000E+00 -0.00000000000E+00 -0.10655887932E+03  0.10655887932E+03  0.00000000000E+00 0. -1.
    9000006    2    1    2  501    0  0.00000000000E+00  0.00000000000E+00  0.89344112068E+03  0.11065588793E+04  0.65286715132E+03 0.  0.
         13    1    3    3    0    0  0.37145328966E+02  0.14056402659E+03  0.94209281096E+03  0.95324544872E+03  0.00000000000E+00 0. -1.
          2    1    3    3  501    0 -0.37145328966E+02 -0.14056402659E+03 -0.48651690281E+02  0.15331343060E+03  0.00000000000E+00 0. -1.
<mgrwt>
<rscale>  0 0.65286715E+03</rscale>
<asrwt>0</asrwt>
<pdfrwt beam="1">0</pdfrwt>
<pdfrwt beam="2">  1        2 0.38748765E+00 0.65286715E+03</pdfrwt>
<totfact> 0.44338649E+00</totfact>
</mgrwt>
</event>
<event>
 5    1  0.2381755E-004  0.6678618E+03  0.7818608E-02  0.9773828E-01
         13   -1    0    0    0    0  0.00000000000E+00  0.00000000000E+00  0.10000000000E+04  0.10000000000E+04  0.00000000000E+00 0. -1.
          2   -1    0    0  501    0 -0.00000000000E+00 -0.00000000000E+00 -0.11150984133E+03  0.11150984133E+03  0.00000000000E+00 0. -1.
    9000006    2    1    2  501    0  0.00000000000E+00  0.00000000000E+00  0.88849015867E+03  0.11115098413E+04  0.66786178609E+03 0.  0.
         13    1    3    3    0    0  0.10323115881E+03 -0.16395970620E+03  0.89688791841E+03  0.91757691536E+03  0.00000000000E+00 0. -1.
          2    1    3    3  501    0 -0.10323115881E+03  0.16395970620E+03 -0.83977597443E+01  0.19393292597E+03  0.00000000000E+00 0. -1.
<mgrwt>
<rscale>  0 0.66786179E+03</rscale>
<asrwt>0</asrwt>
<pdfrwt beam="1">0</pdfrwt>
<pdfrwt beam="2">  1        2 0.40549119E+00 0.66786179E+03</pdfrwt>
<totfact> 0.37925174E+00</totfact>
</mgrwt>
</event>
<event>
 5    1  0.2381755E-004  0.6622161E+03  0.7818608E-02  0.9784123E-01
         13   -1    0    0    0    0  0.00000000000E+00  0.00000000000E+00  0.10000000000E+04  0.10000000000E+04  0.00000000000E+00 0. -1.
          2   -1    0    0  501    0 -0.00000000000E+00 -0.00000000000E+00 -0.10963254312E+03  0.10963254312E+03  0.00000000000E+00 0. -1.
    9000006    2    1    2  501    0  0.00000000000E+00  0.00000000000E+00  0.89036745688E+03  0.11096325431E+04  0.66221610708E+03 0.  0.
         13    1    3    3    0    0 -0.17213288375E+03  0.26882915912E+03  0.59254148873E+03  0.67305591322E+03  0.00000000000E+00 0. -1.
          2    1    3    3  501    0  0.17213288375E+03 -0.26882915912E+03  0.29782596816E+03  0.43657662990E+03  0.00000000000E+00 0. -1.
<mgrwt>
<rscale>  0 0.66221611E+03</rscale>
<asrwt>0</asrwt>
<pdfrwt beam="1">0</pdfrwt>
<pdfrwt beam="2">  1        2 0.39866463E+00 0.66221611E+03</pdfrwt>
<totfact> 0.40251436E+00</totfact>
</mgrwt>
</event>
<event>
 5    1  0.2381755E-004  0.5403695E+03  0.7818608E-02  0.1003748E+00
         13   -1    0    0    0    0  0.00000000000E+00  0.00000000000E+00  0.10000000000E+04  0.10000000000E+04  0.00000000000E+00 0. -1.
          2   -1    0    0  501    0 -0.00000000000E+00 -0.00000000000E+00 -0.72999793078E+02  0.72999793078E+02  0.00000000000E+00 0. -1.
    9000006    2    1    2  501    0  0.00000000000E+00  0.00000000000E+00  0.92700020692E+03  0.10729997931E+04  0.54036947759E+03 0.  0.
         13    1    3    3    0    0 -0.15268185755E+03  0.22244462980E+03  0.43497052422E+03  0.51185224420E+03  0.00000000000E+00 0. -1.
          2    1    3    3  501    0  0.15268185755E+03 -0.22244462980E+03  0.49202968270E+03  0.56114754888E+03  0.00000000000E+00 0. -1.
<mgrwt>
<rscale>  0 0.54036948E+03</rscale>
<asrwt>0</asrwt>
<pdfrwt beam="1">0</pdfrwt>
<pdfrwt beam="2">  1        2 0.26545435E+00 0.54036948E+03</pdfrwt>
<totfact> 0.12269229E+01</totfact>
</mgrwt>
</event>
<event>
 5    1  0.2381755E-004  0.6568499E+03  0.7818608E-02  0.9794010E-01
         13   -1    0    0    0    0  0.00000000000E+00  0.00000000000E+00  0.10000000000E+04  0.10000000000E+04  0.00000000000E+00 0. -1.
          2   -1    0    0  501    0 -0.00000000000E+00 -0.00000000000E+00 -0.10786295678E+03  0.10786295678E+03  0.00000000000E+00 0. -1.
    9000006    2    1    2  501    0  0.00000000000E+00  0.00000000000E+00  0.89213704322E+03  0.11078629568E+04  0.65684992738E+03 0.  0.
         13    1    3    3    0    0  0.12120146270E+03  0.11637197826E+02  0.96052596616E+03  0.96821245117E+03  0.00000000000E+00 0. -1.
          4    1    3    3  501    0 -0.12120146270E+03 -0.11637197826E+02 -0.68388922939E+02  0.13965050560E+03  0.00000000000E+00 0. -1.
<mgrwt>
<rscale>  0 0.65684993E+03</rscale>
<asrwt>0</asrwt>
<pdfrwt beam="1">0</pdfrwt>
<pdfrwt beam="2">  1        2 0.39222976E+00 0.65684993E+03</pdfrwt>
<totfact> 0.42560851E+00</totfact>
</mgrwt>
</event>
<event>
 5    1  0.2381755E-004  0.6522732E+03  0.7818608E-02  0.9802523E-01
         13   -1    0    0    0    0  0.00000000000E+00  0.00000000000E+00  0.10000000000E+04  0.10000000000E+04  0.00000000000E+00 0. -1.
          2   -1    0    0  501    0 -0.00000000000E+00 -0.00000000000E+00 -0.10636508843E+03  0.10636508843E+03  0.00000000000E+00 0. -1.
    9000006    2    1    2  501    0  0.00000000000E+00  0.00000000000E+00  0.89363491157E+03  0.11063650884E+04  0.65227322014E+03 0.  0.
         13    1    3    3    0    0 -0.15964028058E+02 -0.28229278599E+03  0.72252186684E+03  0.77587493533E+03  0.00000000000E+00 0. -1.
          2    1    3    3  501    0  0.15964028058E+02  0.28229278599E+03  0.17111304473E+03  0.33049015310E+03  0.00000000000E+00 0. -1.
<mgrwt>
<rscale>  0 0.65227322E+03</rscale>
<asrwt>0</asrwt>
<pdfrwt beam="1">0</pdfrwt>
<pdfrwt beam="2">  1        2 0.38678296E+00 0.65227322E+03</pdfrwt>
<totfact> 0.44608492E+00</totfact>
</mgrwt>
</event>
<event>
 5    1  0.2381755E-004  0.6528151E+03  0.7818608E-02  0.9801511E-01
         13   -1    0    0    0    0  0.00000000000E+00  0.00000000000E+00  0.10000000000E+04  0.10000000000E+04  0.00000000000E+00 0. -1.
          2   -1    0    0  501    0 -0.00000000000E+00 -0.00000000000E+00 -0.10654187392E+03  0.10654187392E+03  0.00000000000E+00 0. -1.
    9000006    2    1    2  501    0  0.00000000000E+00  0.00000000000E+00  0.89345812608E+03  0.11065418739E+04  0.65281505472E+03 0.  0.
         13    1    3    3    0    0  0.21671590920E+03  0.22319275104E+02  0.34735568544E+02  0.22061390497E+03  0.00000000000E+00 0. -1.
          4    1    3    3  501    0 -0.21671590920E+03 -0.22319275104E+02  0.85872255754E+03  0.88592796895E+03  0.00000000000E+00 0. -1.
<mgrwt>
<rscale>  0 0.65281505E+03</rscale>
<asrwt>0</asrwt>
<pdfrwt beam="1">0</pdfrwt>
<pdfrwt beam="2">  1        2 0.38742581E+00 0.65281505E+03</pdfrwt>
<totfact> 0.44362269E+00</totfact>
</mgrwt>
</event>
<event>
 5    1  0.2381755E-004  0.6534709E+03  0.7818608E-02  0.9800288E-01
         13   -1    0    0    0    0  0.00000000000E+00  0.00000000000E+00  0.10000000000E+04  0.10000000000E+04  0.00000000000E+00 0. -1.
          2   -1    0    0  501    0 -0.00000000000E+00 -0.00000000000E+00 -0.10675605822E+03  0.10675605822E+03  0.00000000000E+00 0. -1.
    9000006    2    1    2  501    0  0.00000000000E+00  0.00000000000E+00  0.89324394178E+03  0.11067560582E+04  0.65347091203E+03 0.  0.
         13    1    3    3    0    0  0.16454349934E+03  0.89629090904E+02  0.89996615681E+03  0.91926439097E+03  0.00000000000E+00 0. -1.
          2    1    3    3  501    0 -0.16454349934E+03 -0.89629090904E+02 -0.67222150265E+01  0.18749166724E+03  0.00000000000E+00 0. -1.
<mgrwt>
<rscale>  0 0.65347091E+03</rscale>
<asrwt>0</asrwt>
<pdfrwt beam="1">0</pdfrwt>
<pdfrwt beam="2">  1        2 0.38820467E+00 0.65347091E+03</pdfrwt>
<totfact> 0.44065605E+00</totfact>
</mgrwt>
</event>
<event>
 5    1  0.2381755E-004  0.6543931E+03  0.7818608E-02  0.9798571E-01
         13   -1    0    0    0    0  0.00000000000E+00  0.00000000000E+00  0.10000000000E+04  0.10000000000E+04  0.00000000000E+00 0. -1.
          2   -1    0    0  501    0 -0.00000000000E+00 -0.00000000000E+00 -0.10705758487E+03  0.10705758487E+03  0.00000000000E+00 0. -1.
    9000006    2    1    2  501    0  0.00000000000E+00  0.00000000000E+00  0.89294241513E+03  0.11070575849E+04  0.65439310777E+03 0.  0.
         13    1    3    3    0    0 -0.80310582357E+02 -0.20523137163E+03  0.85560413433E+03  0.88353162944E+03  0.00000000000E+00 0. -1.
          2    1    3    3  501    0  0.80310582357E+02  0.20523137163E+03  0.37338280793E+02  0.22352595543E+03  0.00000000000E+00 0. -1.
<mgrwt>
<rscale>  0 0.65439311E+03</rscale>
<asrwt>0</asrwt>
<pdfrwt beam="1">0</pdfrwt>
<pdfrwt beam="2">  1        2 0.38930113E+00 0.65439311E+03</pdfrwt>
<totfact> 0.43651007E+00</totfact>
</mgrwt>
</event>
<event>
 5    1  0.2381755E-004  0.6508534E+03  0.7818608E-02  0.9805179E-01
         13   -1    0    0    0    0  0.00000000000E+00  0.00000000000E+00  0.10000000000E+04  0.10000000000E+04  0.00000000000E+00 0. -1.
          2   -1    0    0  501    0 -0.00000000000E+00 -0.00000000000E+00 -0.10590252819E+03  0.10590252819E+03  0.00000000000E+00 0. -1.
    9000006    2    1    2  501    0  0.00000000000E+00  0.00000000000E+00  0.89409747181E+03  0.11059025282E+04  0.65085337270E+03 0.  0.
         13    1    3    3    0    0 -0.29961397275E+03 -0.97827682923E+02  0.58470924626E+03  0.66424670934E+03  0.00000000000E+00 0. -1.
          4    1    3    3  501    0  0.29961397275E+03  0.97827682923E+02  0.30938822555E+03  0.44165581885E+03  0.00000000000E+00 0. -1.
<mgrwt>
<rscale>  0 0.65085337E+03</rscale>
<asrwt>0</asrwt>
<pdfrwt beam="1">0</pdfrwt>
<pdfrwt beam="2">  1        2 0.38510091E+00 0.65085337E+03</pdfrwt>
<totfact> 0.45258605E+00</totfact>
</mgrwt>
</event>
<event>
 5    1  0.2381755E-004  0.6451028E+03  0.7818608E-02  0.9816012E-01
         13   -1    0    0    0    0  0.00000000000E+00  0.00000000000E+00  0.10000000000E+04  0.10000000000E+04  0.00000000000E+00 0. -1.
          2   -1    0    0  501    0 -0.00000000000E+00 -0.00000000000E+00 -0.10403941779E+03  0.10403941779E+03  0.00000000000E+00 0. -1.
    9000006    2    1    2  501    0  0.00000000000E+00  0.00000000000E+00  0.89596058221E+03  0.11040394178E+04  0.64510283768E+03 0.  0.
         13    1    3    3    0    0 -0.25810702142E+03 -0.11676406367E+03  0.71192891879E+03  0.76622181285E+03  0.00000000000E+00 0. -1.
          2    1    3    3  501    0  0.25810702142E+03  0.11676406367E+03  0.18403166341E+03  0.33781760495E+03  0.00000000000E+00 0. -1.
<mgrwt>
<rscale>  0 0.64510284E+03</rscale>
<asrwt>0</asrwt>
<pdfrwt beam="1">0</pdfrwt>
<pdfrwt beam="2">  1        2 0.37832595E+00 0.64510284E+03</pdfrwt>
<totfact> 0.47965163E+00</totfact>
</mgrwt>
</event>
<event>
 5    1  0.2381755E-004  0.6502926E+03  0.7818608E-02  0.9806230E-01
         13   -1    0    0    0    0  0.00000000000E+00  0.00000000000E+00  0.10000000000E+04  0.10000000000E+04  0.00000000000E+00 0. -1.
          2   -1    0    0  501    0 -0.00000000000E+00 -0.00000000000E+00 -0.10572012172E+03  0.10572012172E+03  0.00000000000E+00 0. -1.
    9000006    2    1    2  501    0  0.00000000000E+00  0.00000000000E+00  0.89427987828E+03  0.11057201217E+04  0.65029261636E+03 0.  0.
         13    1    3    3    0    0 -0.15919294686E+02  0.25508942954E+03  0.10539192025E+03  0.27646247098E+03  0.00000000000E+00 0. -1.
          2    1    3    3  501    0  0.15919294686E+02 -0.25508942954E+03  0.78888795802E+03  0.82925765074E+03  0.00000000000E+00 0. -1.
<mgrwt>
<rscale>  0 0.65029262E+03</rscale>
<asrwt>0</asrwt>
<pdfrwt beam="1">0</pdfrwt>
<pdfrwt beam="2">  1        2 0.38443762E+00 0.65029262E+03</pdfrwt>
<totfact> 0.45517324E+00</totfact>
</mgrwt>
</event>
<event>
 5    1  0.2381755E-004  0.6486630E+03  0.7818608E-02  0.9809291E-01
         13   -1    0    0    0    0  0.00000000000E+00  0.00000000000E+00  0.10000000000E+04  0.10000000000E+04  0.00000000000E+00 0. -1.
          2   -1    0    0  501    0 -0.00000000000E+00 -0.00000000000E+00 -0.10519090729E+03  0.10519090729E+03  0.00000000000E+00 0. -1.
    9000006    2    1    2  501    0  0.00000000000E+00  0.00000000000E+00  0.89480909271E+03  0.11051909073E+04  0.64866295497E+03 0.  0.
         13    1    3    3    0    0 -0.69437661900E+02  0.17847742857E+03  0.89338049407E+03  0.91367635877E+03  0.00000000000E+00 0. -1.
          4    1    3    3  501    0  0.69437661900E+02 -0.17847742857E+03  0.14285986437E+01  0.19151454852E+03  0.00000000000E+00 0. -1.
<mgrwt>
<rscale>  0 0.64866295E+03</rscale>
<asrwt>0</asrwt>
<pdfrwt beam="1">0</pdfrwt>
<pdfrwt beam="2">  1        2 0.38251320E+00 0.64866295E+03</pdfrwt>
<totfact> 0.46275555E+00</totfact>
</mgrwt>
</event>
<event>
 5    1  0.2381755E-004  0.6578934E+03  0.7818608E-02  0.9792080E-01
         13   -1    0    0    0    0  0.00000000000E+00  0.00000000000E+00  0.10000000000E+04  0.10000000000E+04  0.00000000000E+00 0. -1.
          2   -1    0    0  501    0 -0.00000000000E+00 -0.00000000000E+00 -0.10820591625E+03  0.10820591625E+03  0.00000000000E+00 0. -1.
    9000006    2    1    2  501    0  0.00000000000E+00  0.00000000000E+00  0.89179408375E+03  0.11082059163E+04  0.65789335383E+03 0.  0.
         13    1    3    3    0    0  0.88259484664E+02 -0.31582952147E+03  0.40236406088E+03  0.51907115192E+03  0.00000000000E+00 0. -1.
          4    1    3    3  501    0 -0.88259484664E+02  0.31582952147E+03  0.48943002286E+03  0.58913476433E+03  0.00000000000E+00 0. -1.
<mgrwt>
<rscale>  0 0.65789335E+03</rscale>
<asrwt>0</asrwt>
<pdfrwt beam="1">0</pdfrwt>
<pdfrwt beam="2">  1        2 0.39347689E+00 0.65789335E+03</pdfrwt>
<totfact> 0.42104129E+00</totfact>
</mgrwt>
</event>
<event>
 5    1  0.2381755E-004  0.6540904E+03  0.7818608E-02  0.9799134E-01
         13   -1    0    0    0    0  0.00000000000E+00  0.00000000000E+00  0.10000000000E+04  0.10000000000E+04  0.00000000000E+00 0. -1.
          2   -1    0    0  501    0 -0.00000000000E+00 -0.00000000000E+00 -0.10695855539E+03  0.10695855539E+03  0.00000000000E+00 0. -1.
    9000006    2    1    2  501    0  0.00000000000E+00  0.00000000000E+00  0.89304144461E+03  0.11069585554E+04  0.65409037720E+03 0.  0.
         13    1    3    3    0    0  0.13350222767E+03  0.26167616848E+03  0.68978164749E+03  0.74973060706E+03  0.00000000000E+00 0. -1.
          2    1    3    3  501    0 -0.13350222767E+03 -0.26167616848E+03  0.20325979712E+03  0.35722794833E+03  0.00000000000E+00 0. -1.
<mgrwt>
<rscale>  0 0.65409038E+03</rscale>
<asrwt>0</asrwt>
<pdfrwt beam="1">0</pdfrwt>
<pdfrwt beam="2">  1        2 0.38894102E+00 0.65409038E+03</pdfrwt>
<totfact> 0.43786782E+00</totfact>
</mgrwt>
</event>
<event>
 5    1  0.2381755E-004  0.6510321E+03  0.7818608E-02  0.9804844E-01
         13   -1    0    0    0    0  0.00000000000E+00  0.00000000000E+00  0.10000000000E+04  0.10000000000E+04  0.00000000000E+00 0. -1.
          2   -1    0    0  501    0 -0.00000000000E+00 -0.00000000000E+00 -0.10596069142E+03  0.10596069142E+03  0.00000000000E+00 0. -1.
    9000006    2    1    2  501    0  0.00000000000E+00  0.00000000000E+00  0.89403930858E+03  0.11059606914E+04  0.65103207730E+03 0.  0.
         13    1    3    3    0    0  0.14718006224E+03 -0.25846494374E+03  0.67171249374E+03  0.73461811311E+03  0.00000000000E+00 0. -1.
          2    1    3    3  501    0 -0.14718006224E+03  0.25846494374E+03  0.22232681484E+03  0.37134257831E+03  0.00000000000E+00 0. -1.
<mgrwt>
<rscale>  0 0.65103208E+03</rscale>
<asrwt>0</asrwt>
<pdfrwt beam="1">0</pdfrwt>
<pdfrwt beam="2">  1        2 0.38531242E+00 0.65103208E+03</pdfrwt>
<totfact> 0.45176389E+00</totfact>
</mgrwt>
</event>
<event>
 5    1  0.2381755E-004  0.6474399E+03  0.7818608E-02  0.9811595E-01
         13   -1    0    0    0    0  0.00000000000E+00  0.00000000000E+00  0.10000000000E+04  0.10000000000E+04  0.00000000000E+00 0. -1.
          2   -1    0    0  501    0 -0.00000000000E+00 -0.00000000000E+00 -0.10479460282E+03  0.10479460282E+03  0.00000000000E+00 0. -1.
    9000006    2    1    2  501    0  0.00000000000E+00  0.00000000000E+00  0.89520539718E+03  0.11047946028E+04  0.64743989010E+03 0.  0.
         13    1    3    3    0    0 -0.23361417625E+03  0.70124192480E+02  0.81079693065E+03  0.84669040887E+03  0.00000000000E+00 0. -1.
          4    1    3    3  501    0  0.23361417625E+03 -0.70124192480E+02  0.84408466528E+02  0.25810419396E+03  0.00000000000E+00 0. -1.
<mgrwt>
<rscale>  0 0.64743989E+03</rscale>
<asrwt>0</asrwt>
<pdfrwt beam="1">0</pdfrwt>
<pdfrwt beam="2">  1        2 0.38107209E+00 0.64743989E+03</pdfrwt>
<totfact> 0.46850852E+00</totfact>
</mgrwt>
</event>
<event>
 5    1  0.2381755E-004  0.6224161E+03  0.7818608E-02  0.9859961E-01
         13   -1    0    0    0    0  0.00000000000E+00  0.00000000000E+00  0.10000000000E+04  0.10000000000E+04  0.00000000000E+00 0. -1.
          2   -1    0    0  501    0 -0.00000000000E+00 -0.00000000000E+00 -0.96850446737E+02  0.96850446737E+02  0.00000000000E+00 0. -1.
    9000006    2    1    2  501    0  0.00000000000E+00  0.00000000000E+00  0.90314955326E+03  0.10968504467E+04  0.62241608828E+03 0.  0.
         13    1    3    3    0    0 -0.30208661989E+03 -0.13443337739E+02  0.58123344748E+03  0.65518651522E+03  0.00000000000E+00 0. -1.
          4    1    3    3  501    0  0.30208661989E+03  0.13443337739E+02  0.32191610578E+03  0.44166393152E+03  0.00000000000E+00 0. -1.
<mgrwt>
<rscale>  0 0.62241609E+03</rscale>
<asrwt>0</asrwt>
<pdfrwt beam="1">0</pdfrwt>
<pdfrwt beam="2">  1        2 0.35218419E+00 0.62241609E+03</pdfrwt>
<totfact> 0.59858111E+00</totfact>
</mgrwt>
</event>
<event>
 5    1  0.2381755E-004  0.6549984E+03  0.7818608E-02  0.9797445E-01
         13   -1    0    0    0    0  0.00000000000E+00  0.00000000000E+00  0.10000000000E+04  0.10000000000E+04  0.00000000000E+00 0. -1.
          2   -1    0    0  501    0 -0.00000000000E+00 -0.00000000000E+00 -0.10725573364E+03  0.10725573364E+03  0.00000000000E+00 0. -1.
    9000006    2    1    2  501    0  0.00000000000E+00  0.00000000000E+00  0.89274426636E+03  0.11072557336E+04  0.65499842332E+03 0.  0.
         13    1    3    3    0    0 -0.13601713562E+03  0.14143321130E+03  0.88962286830E+03  0.91100651054E+03  0.00000000000E+00 0. -1.
          2    1    3    3  501    0  0.13601713562E+03 -0.14143321130E+03  0.31213980598E+01  0.19624922310E+03  0.00000000000E+00 0. -1.
<mgrwt>
<rscale>  0 0.65499842E+03</rscale>
<asrwt>0</asrwt>
<pdfrwt beam="1">0</pdfrwt>
<pdfrwt beam="2">  1        2 0.39002167E+00 0.65499842E+03</pdfrwt>
<totfact> 0.43380478E+00</totfact>
</mgrwt>
</event>
<event>
 5    1  0.2381755E-004  0.6441456E+03  0.7818608E-02  0.9817827E-01
         13   -1    0    0    0    0  0.00000000000E+00  0.00000000000E+00  0.10000000000E+04  0.10000000000E+04  0.00000000000E+00 0. -1.
          2   -1    0    0  501    0 -0.00000000000E+00 -0.00000000000E+00 -0.10373087830E+03  0.10373087830E+03  0.00000000000E+00 0. -1.
    9000006    2    1    2  501    0  0.00000000000E+00  0.00000000000E+00  0.89626912170E+03  0.11037308783E+04  0.64414556833E+03 0.  0.
         13    1    3    3    0    0 -0.17190728105E+03  0.18954690683E+03  0.11301555226E+03  0.27973676594E+03  0.00000000000E+00 0. -1.
          2    1    3    3  501    0  0.17190728105E+03 -0.18954690683E+03  0.78325356944E+03  0.82399411236E+03  0.00000000000E+00 0. -1.
<mgrwt>
<rscale>  0 0.64414557E+03</rscale>
<asrwt>0</asrwt>
<pdfrwt beam="1">0</pdfrwt>
<pdfrwt beam="2">  1        2 0.37720399E+00 0.64414557E+03</pdfrwt>
<totfact> 0.48427333E+00</totfact>
</mgrwt>
</event>
<event>
 5    1  0.2381755E-004  0.6492745E+03  0.7818608E-02  0.9808141E-01
         13   -1    0    0    0    0  0.00000000000E+00  0.00000000000E+00  0.10000000000E+04  0.10000000000E+04  0.00000000000E+00 0. -1.
          2   -1    0    0  501    0 -0.00000000000E+00 -0.00000000000E+00 -0.10538935349E+03  0.10538935349E+03  0.00000000000E+00 0. -1.
    9000006    2    1    2  501    0  0.00000000000E+00  0.00000000000E+00  0.89461064651E+03  0.11053893535E+04  0.64927452897E+03 0.  0.
         13    1    3    3    0    0 -0.69739898924E+02  0.28884947859E+03  0.66988180418E+03  0.73282965712E+03  0.00000000000E+00 0. -1.
          4    1    3    3  501    0  0.69739898924E+02 -0.28884947859E+03  0.22472884233E+03  0.37255969637E+03  0.00000000000E+00 0. -1.
<mgrwt>
<rscale>  0 0.64927453E+03</rscale>
<asrwt>0</asrwt>
<pdfrwt beam="1">0</pdfrwt>
<pdfrwt beam="2">  1        2 0.38323482E+00 0.64927453E+03</pdfrwt>
<totfact> 0.45989898E+00</totfact>
</mgrwt>
</event>
<event>
 5    1  0.2381755E-004  0.6633251E+03  0.7818608E-02  0.9782092E-01
         13   -1    0    0    0    0  0.00000000000E+00  0.00000000000E+00  0.10000000000E+04  0.10000000000E+04  0.00000000000E+00 0. -1.
          2   -1    0    0  501    0 -0.00000000000E+00 -0.00000000000E+00 -0.11000004647E+03  0.11000004647E+03  0.00000000000E+00 0. -1.
    9000006    2    1    2  501    0  0.00000000000E+00  0.00000000000E+00  0.88999995353E+03  0.11100000465E+04  0.66332509818E+03 0.  0.
         13    1    3    3    0    0  0.84031598706E+02 -0.13198856889E+03 -0.44355791093E+02  0.16263372376E+03  0.00000000000E+00 0. -1.
          2    1    3    3  501    0 -0.84031598706E+02  0.13198856889E+03  0.93435574462E+03  0.94736632271E+03  0.00000000000E+00 0. -1.
<mgrwt>
<rscale>  0 0.66332510E+03</rscale>
<asrwt>0</asrwt>
<pdfrwt beam="1">0</pdfrwt>
<pdfrwt beam="2">  1        2 0.40000101E+00 0.66332510E+03</pdfrwt>
<totfact> 0.39786217E+00</totfact>
</mgrwt>
</event>
<event>
 5    1  0.2381755E-004  0.6584385E+03  0.7818608E-02  0.9791073E-01
         13   -1    0    0    0    0  0.00000000000E+00  0.00000000000E+00  0.10000000000E+04  0.10000000000E+04  0.00000000000E+00 0. -1.
          2   -1    0    0  501    0 -0.00000000000E+00 -0.00000000000E+00 -0.10838530090E+03  0.10838530090E+03  0.00000000000E+00 0. -1.
    9000006    2    1    2  501    0  0.00000000000E+00  0.00000000000E+00  0.89161469910E+03  0.11083853009E+04  0.65843845847E+03 0.  0.
         13    1    3    3    0    0 -0.18529161974E+03  0.58865127459E+02 -0.14305371235E+01  0.19442256560E+03  0.00000000000E+00 0. -1.
          4    1    3    3  501    0  0.18529161974E+03 -0.58865127459E+02  0.89304523622E+03  0.91396273530E+03  0.00000000000E+00 0. -1.
<mgrwt>
<rscale>  0 0.65843846E+03</rscale>
<asrwt>0</asrwt>
<pdfrwt beam="1">0</pdfrwt>
<pdfrwt beam="2">  1        2 0.39412920E+00 0.65843846E+03</pdfrwt>
<totfact> 0.41867014E+00</totfact>
</mgrwt>
</event>
<event>
 5    1  0.2381755E-004  0.6542811E+03  0.7818608E-02  0.9798779E-01
         13   -1    0    0    0    0  0.00000000000E+00  0.00000000000E+00  0.10000000000E+04  0.10000000000E+04  0.00000000000E+00 0. -1.
          2   -1    0    0  501    0 -0.00000000000E+00 -0.00000000000E+00 -0.10702093994E+03  0.10702093994E+03  0.00000000000E+00 0. -1.
    9000006    2    1    2  501    0  0.00000000000E+00  0.00000000000E+00  0.89297906006E+03  0.11070209399E+04  0.65428110149E+03 0.  0.
         13    1    3    3    0    0 -0.29927791547E+03  0.30990147261E+02  0.66378214981E+03  0.72878968319E+03  0.00000000000E+00 0. -1.
          2    1    3    3  501    0  0.29927791547E+03 -0.30990147261E+02  0.22919691024E+03  0.37823125675E+03  0.00000000000E+00 0. -1.
<mgrwt>
<rscale>  0 0.65428110E+03</rscale>
<asrwt>0</asrwt>
<pdfrwt beam="1">0</pdfrwt>
<pdfrwt beam="2">  1        2 0.38916787E+00 0.65428110E+03</pdfrwt>
<totfact> 0.43701205E+00</totfact>
</mgrwt>
</event>
<event>
 5    1  0.2381755E-004  0.6453970E+03  0.7818608E-02  0.9815455E-01
         13   -1    0    0    0    0  0.00000000000E+00  0.00000000000E+00  0.10000000000E+04  0.10000000000E+04  0.00000000000E+00 0. -1.
          2   -1    0    0  501    0 -0.00000000000E+00 -0.00000000000E+00 -0.10413432393E+03  0.10413432393E+03  0.00000000000E+00 0. -1.
    9000006    2    1    2  501    0  0.00000000000E+00  0.00000000000E+00  0.89586567607E+03  0.11041343239E+04  0.64539700627E+03 0.  0.
         13    1    3    3    0    0  0.18690901163E+02 -0.13591059069E+03 -0.51760199174E+02  0.14662931721E+03  0.00000000000E+00 0. -1.
          2    1    3    3  501    0 -0.18690901163E+02  0.13591059069E+03  0.94762587525E+03  0.95750500672E+03  0.00000000000E+00 0. -1.
<mgrwt>
<rscale>  0 0.64539701E+03</rscale>
<asrwt>0</asrwt>
<pdfrwt beam="1">0</pdfrwt>
<pdfrwt beam="2">  1        2 0.37867107E+00 0.64539701E+03</pdfrwt>
<totfact> 0.47823811E+00</totfact>
</mgrwt>
</event>
<event>
 5    1  0.2381755E-004  0.6510174E+03  0.7818608E-02  0.9804872E-01
         13   -1    0    0    0    0  0.00000000000E+00  0.00000000000E+00  0.10000000000E+04  0.10000000000E+04  0.00000000000E+00 0. -1.
          2   -1    0    0  501    0 -0.00000000000E+00 -0.00000000000E+00 -0.10595592865E+03  0.10595592865E+03  0.00000000000E+00 0. -1.
    9000006    2    1    2  501    0  0.00000000000E+00  0.00000000000E+00  0.89404407135E+03  0.11059559286E+04  0.65101744568E+03 0.  0.
         13    1    3    3    0    0 -0.62684117324E+02 -0.17247697973E+03 -0.96971163846E+01  0.18377062107E+03  0.00000000000E+00 0. -1.
          2    1    3    3  501    0  0.62684117324E+02  0.17247697973E+03  0.90374118774E+03  0.92218530758E+03  0.00000000000E+00 0. -1.
<mgrwt>
<rscale>  0 0.65101745E+03</rscale>
<asrwt>0</asrwt>
<pdfrwt beam="1">0</pdfrwt>
<pdfrwt beam="2">  1        2 0.38529510E+00 0.65101745E+03</pdfrwt>
<totfact> 0.45183117E+00</totfact>
</mgrwt>
</event>
<event>
 5    1  0.2381755E-004  0.6420865E+03  0.7818608E-02  0.9821743E-01
         13   -1    0    0    0    0  0.00000000000E+00  0.00000000000E+00  0.10000000000E+04  0.10000000000E+04  0.00000000000E+00 0. -1.
          2   -1    0    0  501    0 -0.00000000000E+00 -0.00000000000E+00 -0.10306877904E+03  0.10306877904E+03  0.00000000000E+00 0. -1.
    9000006    2    1    2  501    0  0.00000000000E+00  0.00000000000E+00  0.89693122096E+03  0.11030687790E+04  0.64208653322E+03 0.  0.
         13    1    3    3    0    0 -0.99904600092E+02 -0.25282140275E+03  0.15505811604E+03  0.31295784087E+03  0.00000000000E+00 0. -1.
          2    1    3    3  501    0  0.99904600092E+02  0.25282140275E+03  0.74187310492E+03  0.79011093817E+03  0.00000000000E+00 0. -1.
<mgrwt>
<rscale>  0 0.64208653E+03</rscale>
<asrwt>0</asrwt>
<pdfrwt beam="1">0</pdfrwt>
<pdfrwt beam="2">  1        2 0.37479635E+00 0.64208653E+03</pdfrwt>
<totfact> 0.49432880E+00</totfact>
</mgrwt>
</event>
<event>
 5    1  0.2381755E-004  0.6527579E+03  0.7818608E-02  0.9801618E-01
         13   -1    0    0    0    0  0.00000000000E+00  0.00000000000E+00  0.10000000000E+04  0.10000000000E+04  0.00000000000E+00 0. -1.
          2   -1    0    0  501    0 -0.00000000000E+00 -0.00000000000E+00 -0.10652321266E+03  0.10652321266E+03  0.00000000000E+00 0. -1.
    9000006    2    1    2  501    0  0.00000000000E+00  0.00000000000E+00  0.89347678734E+03  0.11065232127E+04  0.65275788057E+03 0.  0.
         13    1    3    3    0    0 -0.70180866690E+02 -0.17084351186E+03  0.90288950564E+03  0.92158684831E+03  0.00000000000E+00 0. -1.
          2    1    3    3  501    0  0.70180866690E+02  0.17084351186E+03 -0.94127183004E+01  0.18493636435E+03  0.00000000000E+00 0. -1.
<mgrwt>
<rscale>  0 0.65275788E+03</rscale>
<asrwt>0</asrwt>
<pdfrwt beam="1">0</pdfrwt>
<pdfrwt beam="2">  1        2 0.38735795E+00 0.65275788E+03</pdfrwt>
<totfact> 0.44388202E+00</totfact>
</mgrwt>
</event>
<event>
 5    1  0.2381755E-004  0.6475032E+03  0.7818608E-02  0.9811476E-01
         13   -1    0    0    0    0  0.00000000000E+00  0.00000000000E+00  0.10000000000E+04  0.10000000000E+04  0.00000000000E+00 0. -1.
          2   -1    0    0  501    0 -0.00000000000E+00 -0.00000000000E+00 -0.10481509804E+03  0.10481509804E+03  0.00000000000E+00 0. -1.
    9000006    2    1    2  501    0  0.00000000000E+00  0.00000000000E+00  0.89518490196E+03  0.11048150980E+04  0.64750319858E+03 0.  0.
         13    1    3    3    0    0  0.43786040246E+01 -0.28892487077E+03  0.69672153126E+03  0.75426629598E+03  0.00000000000E+00 0. -1.
          2    1    3    3  501    0 -0.43786040246E+01  0.28892487077E+03  0.19846337070E+03  0.35054880207E+03  0.00000000000E+00 0. -1.
<mgrwt>
<rscale>  0 0.64750320E+03</rscale>
<asrwt>0</asrwt>
<pdfrwt beam="1">0</pdfrwt>
<pdfrwt beam="2">  1        2 0.38114661E+00 0.64750320E+03</pdfrwt>
<totfact> 0.46820941E+00</totfact>
</mgrwt>
</event>
<event>
 5    1  0.2381755E-004  0.6458409E+03  0.7818608E-02  0.9814615E-01
         13   -1    0    0    0    0  0.00000000000E+00  0.00000000000E+00  0.10000000000E+04  0.10000000000E+04  0.00000000000E+00 0. -1.
          2   -1    0    0  501    0 -0.00000000000E+00 -0.00000000000E+00 -0.10427762869E+03  0.10427762869E+03  0.00000000000E+00 0. -1.
    9000006    2    1    2  501    0  0.00000000000E+00  0.00000000000E+00  0.89572237131E+03  0.11042776287E+04  0.64584093611E+03 0.  0.
         13    1    3    3    0    0 -0.23743154637E+03  0.13787485467E+03  0.15721833130E+03  0.31638713384E+03  0.00000000000E+00 0. -1.
          2    1    3    3  501    0  0.23743154637E+03 -0.13787485467E+03  0.73850404001E+03  0.78789049485E+03  0.00000000000E+00 0. -1.
<mgrwt>
<rscale>  0 0.64584094E+03</rscale>
<asrwt>0</asrwt>
<pdfrwt beam="1">0</pdfrwt>
<pdfrwt beam="2">  1        2 0.37919218E+00 0.64584094E+03</pdfrwt>
<totfact> 0.47611094E+00</totfact>
</mgrwt>
</event>
<event>
 5    1  0.2381755E-004  0.6530742E+03  0.7818608E-02  0.9801028E-01
         13   -1    0    0    0    0  0.00000000000E+00  0.00000000000E+00  0.10000000000E+04  0.10000000000E+04  0.00000000000E+00 0. -1.
          2   -1    0    0  501    0 -0.00000000000E+00 -0.00000000000E+00 -0.10662646980E+03  0.10662646980E+03  0.00000000000E+00 0. -1.
    9000006    2    1    2  501    0  0.00000000000E+00  0.00000000000E+00  0.89337353020E+03  0.11066264698E+04  0.65307417588E+03 0.  0.
         13    1    3    3    0    0  0.91419311251E+02 -0.61620875249E+02  0.96750927516E+03  0.97377041455E+03  0.00000000000E+00 0. -1.
          2    1    3    3  501    0 -0.91419311251E+02  0.61620875249E+02 -0.74135744959E+02  0.13285605525E+03  0.00000000000E+00 0. -1.
<mgrwt>
<rscale>  0 0.65307418E+03</rscale>
<asrwt>0</asrwt>
<pdfrwt beam="1">0</pdfrwt>
<pdfrwt beam="2">  1        2 0.38773344E+00 0.65307418E+03</pdfrwt>
<totfact> 0.44244881E+00</totfact>
</mgrwt>
</event>
<event>
 5    1  0.2381755E-004  0.6682900E+03  0.7818608E-02  0.9773052E-01
         13   -1    0    0    0    0  0.00000000000E+00  0.00000000000E+00  0.10000000000E+04  0.10000000000E+04  0.00000000000E+00 0. -1.
          2   -1    0    0  501    0 -0.00000000000E+00 -0.00000000000E+00 -0.11165289363E+03  0.11165289363E+03  0.00000000000E+00 0. -1.
    9000006    2    1    2  501    0  0.00000000000E+00  0.00000000000E+00  0.88834710637E+03  0.11116528936E+04  0.66829003773E+03 0.  0.
         13    1    3    3    0    0  0.19781766666E+03  0.12063009369E+03  0.43672385633E+02  0.23577685640E+03  0.00000000000E+00 0. -1.
          2    1    3    3  501    0 -0.19781766666E+03 -0.12063009369E+03  0.84467472073E+03  0.87587603723E+03  0.00000000000E+00 0. -1.
<mgrwt>
<rscale>  0 0.66829004E+03</rscale>
<asrwt>0</asrwt>
<pdfrwt beam="1">0</pdfrwt>
<pdfrwt beam="2">  1        2 0.40601138E+00 0.66829004E+03</pdfrwt>
<totfact> 0.37752952E+00</totfact>
</mgrwt>
</event>
<event>
 5    1  0.2381755E-004  0.6518956E+03  0.7818608E-02  0.9803229E-01
         13   -1    0    0    0    0  0.00000000000E+00  0.00000000000E+00  0.10000000000E+04  0.10000000000E+04  0.00000000000E+00 0. -1.
          2   -1    0    0  501    0 -0.00000000000E+00 -0.00000000000E+00 -0.10624198161E+03  0.10624198161E+03  0.00000000000E+00 0. -1.
    9000006    2    1    2  501    0  0.00000000000E+00  0.00000000000E+00  0.89375801839E+03  0.11062419816E+04  0.65189564077E+03 0.  0.
         13    1    3    3    0    0 -0.20470109633E+03 -0.91136040435E+02  0.84857414537E+03  0.87765961334E+03  0.00000000000E+00 0. -1.
          4    1    3    3  501    0  0.20470109633E+03  0.91136040435E+02  0.45183873021E+02  0.22858236827E+03  0.00000000000E+00 0. -1.
<mgrwt>
<rscale>  0 0.65189564E+03</rscale>
<asrwt>0</asrwt>
<pdfrwt beam="1">0</pdfrwt>
<pdfrwt beam="2">  1        2 0.38633529E+00 0.65189564E+03</pdfrwt>
<totfact> 0.44780683E+00</totfact>
</mgrwt>
</event>
<event>
 5    1  0.2381755E-004  0.6529784E+03  0.7818608E-02  0.9801206E-01
         13   -1    0    0    0    0  0.00000000000E+00  0.00000000000E+00  0.10000000000E+04  0.10000000000E+04  0.00000000000E+00 0. -1.
          2   -1    0    0  501    0 -0.00000000000E+00 -0.00000000000E+00 -0.10659519275E+03  0.10659519275E+03  0.00000000000E+00 0. -1.
    9000006    2    1    2  501    0  0.00000000000E+00  0.00000000000E+00  0.89340480725E+03  0.11065951927E+04  0.65297838478E+03 0.  0.
         13    1    3    3    0    0 -0.14284376368E+03  0.21899885173E+03  0.77805786929E+03  0.82081598781E+03  0.00000000000E+00 0. -1.
          2    1    3    3  501    0  0.14284376368E+03 -0.21899885173E+03  0.11534693796E+03  0.28577920494E+03  0.00000000000E+00 0. -1.
<mgrwt>
<rscale>  0 0.65297838E+03</rscale>
<asrwt>0</asrwt>
<pdfrwt beam="1">0</pdfrwt>
<pdfrwt beam="2">  1        2 0.38761970E+00 0.65297838E+03</pdfrwt>
<totfact> 0.44288249E+00</totfact>
</mgrwt>
</event>
<event>
 5    1  0.2381755E-004  0.6479972E+03  0.7818608E-02  0.9810545E-01
         13   -1    0    0    0    0  0.00000000000E+00  0.00000000000E+00  0.10000000000E+04  0.10000000000E+04  0.00000000000E+00 0. -1.
          2   -1    0    0  501    0 -0.00000000000E+00 -0.00000000000E+00 -0.10497510103E+03  0.10497510103E+03  0.00000000000E+00 0. -1.
    9000006    2    1    2  501    0  0.00000000000E+00  0.00000000000E+00  0.89502489897E+03  0.11049751010E+04  0.64799722539E+03 0.  0.
         13    1    3    3    0    0  0.20790530570E+03 -0.80683782952E+02  0.84829479869E+03  0.87711946419E+03  0.00000000000E+00 0. -1.
          4    1    3    3  501    0 -0.20790530570E+03  0.80683782952E+02  0.46730100280E+02  0.22785563684E+03  0.00000000000E+00 0. -1.
<mgrwt>
<rscale>  0 0.64799723E+03</rscale>
<asrwt>0</asrwt>
<pdfrwt beam="1">0</pdfrwt>
<pdfrwt beam="2">  1        2 0.38172845E+00 0.64799723E+03</pdfrwt>
<totfact> 0.46588030E+00</totfact>
</mgrwt>
</event>
<event>
 5    1  0.2381755E-004  0.6603516E+03  0.7818608E-02  0.9787547E-01
         13   -1    0    0    0    0  0.00000000000E+00  0.00000000000E+00  0.10000000000E+04  0.10000000000E+04  0.00000000000E+00 0. -1.
          2   -1    0    0  501    0 -0.00000000000E+00 -0.00000000000E+00 -0.10901605227E+03  0.10901605227E+03  0.00000000000E+00 0. -1.
    9000006    2    1    2  501    0  0.00000000000E+00  0.00000000000E+00  0.89098394773E+03  0.11090160523E+04  0.66035157990E+03 0.  0.
         13    1    3    3    0    0 -0.22127381874E+02 -0.10407748840E+03  0.97041695440E+03  0.97623296913E+03  0.00000000000E+00 0. -1.
          2    1    3    3  501    0  0.22127381874E+02  0.10407748840E+03 -0.79433006672E+02  0.13278308314E+03  0.00000000000E+00 0. -1.
<mgrwt>
<rscale>  0 0.66035158E+03</rscale>
<asrwt>0</asrwt>
<pdfrwt beam="1">0</pdfrwt>
<pdfrwt beam="2">  1        2 0.39642284E+00 0.66035158E+03</pdfrwt>
<totfact> 0.41042837E+00</totfact>
</mgrwt>
</event>
<event>
 5    1  0.2381755E-004  0.6533155E+03  0.7818608E-02  0.9800578E-01
         13   -1    0    0    0    0  0.00000000000E+00  0.00000000000E+00  0.10000000000E+04  0.10000000000E+04  0.00000000000E+00 0. -1.
          2   -1    0    0  501    0 -0.00000000000E+00 -0.00000000000E+00 -0.10670529323E+03  0.10670529323E+03  0.00000000000E+00 0. -1.
    9000006    2    1    2  501    0  0.00000000000E+00  0.00000000000E+00  0.89329470677E+03  0.11067052932E+04  0.65331552326E+03 0.  0.
         13    1    3    3    0    0  0.52160619676E+02  0.49732985917E+02 -0.93069495116E+02  0.11771164367E+03  0.00000000000E+00 0. -1.
          2    1    3    3  501    0 -0.52160619676E+02 -0.49732985917E+02  0.98636420188E+03  0.98899364957E+03  0.00000000000E+00 0. -1.
<mgrwt>
<rscale>  0 0.65331552E+03</rscale>
<asrwt>0</asrwt>
<pdfrwt beam="1">0</pdfrwt>
<pdfrwt beam="2">  1        2 0.38802007E+00 0.65331552E+03</pdfrwt>
<totfact> 0.44135756E+00</totfact>
</mgrwt>
</event>
<event>
 5    1  0.2381755E-004  0.6405651E+03  0.7818608E-02  0.9824646E-01
         13   -1    0    0    0    0  0.00000000000E+00  0.00000000000E+00  0.10000000000E+04  0.10000000000E+04  0.00000000000E+00 0. -1.
          2   -1    0    0  501    0 -0.00000000000E+00 -0.00000000000E+00 -0.10258090379E+03  0.10258090379E+03  0.00000000000E+00 0. -1.
    9000006    2    1    2  501    0  0.00000000000E+00  0.00000000000E+00  0.89741909621E+03  0.11025809038E+04  0.64056507490E+03 0.  0.
         13    1    3    3    0    0  0.20585492053E+03  0.40793307357E+02  0.86517180880E+03  0.89025985025E+03  0.00000000000E+00 0. -1.
          4    1    3    3  501    0 -0.20585492053E+03 -0.40793307357E+02  0.32247287409E+02  0.21232105354E+03  0.00000000000E+00 0. -1.
<mgrwt>
<rscale>  0 0.64056507E+03</rscale>
<asrwt>0</asrwt>
<pdfrwt beam="1">0</pdfrwt>
<pdfrwt beam="2">  1        2 0.37302225E+00 0.64056507E+03</pdfrwt>
<totfact> 0.50186040E+00</totfact>
</mgrwt>
</event>
<event>
 5    1  0.2381755E-004  0.6607796E+03  0.7818608E-02  0.9786760E-01
         13   -1    0    0    0    0  0.00000000000E+00  0.00000000000E+00  0.10000000000E+04  0.10000000000E+04  0.00000000000E+00 0. -1.
          2   -1    0    0  501    0 -0.00000000000E+00 -0.00000000000E+00 -0.10915741698E+03  0.10915741698E+03  0.00000000000E+00 0. -1.
    9000006    2    1    2  501    0  0.00000000000E+00  0.00000000000E+00  0.89084258302E+03  0.11091574170E+04  0.66077959102E+03 0.  0.
         13    1    3    3    0    0  0.27815105918E+03  0.11720306787E+03  0.21988864963E+03  0.37343753035E+03  0.00000000000E+00 0. -1.
          2    1    3    3  501    0 -0.27815105918E+03 -0.11720306787E+03  0.67095393340E+03  0.73571988663E+03  0.00000000000E+00 0. -1.
<mgrwt>
<rscale>  0 0.66077959E+03</rscale>
<asrwt>0</asrwt>
<pdfrwt beam="1">0</pdfrwt>
<pdfrwt beam="2">  1        2 0.39693690E+00 0.66077959E+03</pdfrwt>
<totfact> 0.40860138E+00</totfact>
</mgrwt>
</event>
<event>
 5    1  0.2381755E-004  0.7153862E+03  0.7818608E-02  0.9691276E-01
         13   -1    0    0    0    0  0.00000000000E+00  0.00000000000E+00  0.10000000000E+04  0.10000000000E+04  0.00000000000E+00 0. -1.
          2   -1    0    0  501    0 -0.00000000000E+00 -0.00000000000E+00 -0.12794435346E+03  0.12794435346E+03  0.00000000000E+00 0. -1.
    9000006    2    1    2  501    0  0.00000000000E+00  0.00000000000E+00  0.87205564654E+03  0.11279443535E+04  0.71538619908E+03 0.  0.
         13    1    3    3    0    0  0.28631474955E+03 -0.13698371807E+03  0.17597538228E+03  0.36291598200E+03  0.00000000000E+00 0. -1.
          2    1    3    3  501    0 -0.28631474955E+03  0.13698371807E+03  0.69608026427E+03  0.76502837145E+03  0.00000000000E+00 0. -1.
<mgrwt>
<rscale>  0 0.71538620E+03</rscale>
<asrwt>0</asrwt>
<pdfrwt beam="1">0</pdfrwt>
<pdfrwt beam="2">  1        2 0.46525318E+00 0.71538620E+03</pdfrwt>
<totfact> 0.22120420E+00</totfact>
</mgrwt>
</event>
<event>
 5    1  0.2381755E-004  0.6477002E+03  0.7818608E-02  0.9811104E-01
         13   -1    0    0    0    0  0.00000000000E+00  0.00000000000E+00  0.10000000000E+04  0.10000000000E+04  0.00000000000E+00 0. -1.
          2   -1    0    0  501    0 -0.00000000000E+00 -0.00000000000E+00 -0.10487889326E+03  0.10487889326E+03  0.00000000000E+00 0. -1.
    9000006    2    1    2  501    0  0.00000000000E+00  0.00000000000E+00  0.89512110674E+03  0.11048788933E+04  0.64770021848E+03 0.  0.
         13    1    3    3    0    0 -0.12553164976E+03  0.28983403148E+03  0.56958461361E+03  0.65129762241E+03  0.00000000000E+00 0. -1.
          2    1    3    3  501    0  0.12553164976E+03 -0.28983403148E+03  0.32553649314E+03  0.45358127085E+03  0.00000000000E+00 0. -1.
<mgrwt>
<rscale>  0 0.64770022E+03</rscale>
<asrwt>0</asrwt>
<pdfrwt beam="1">0</pdfrwt>
<pdfrwt beam="2">  1        2 0.38137860E+00 0.64770022E+03</pdfrwt>
<totfact> 0.46727950E+00</totfact>
</mgrwt>
</event>
<event>
 5    1  0.2381755E-004  0.6426608E+03  0.7818608E-02  0.9820649E-01
         13   -1    0    0    0    0  0.00000000000E+00  0.00000000000E+00  0.10000000000E+04  0.10000000000E+04  0.00000000000E+00 0. -1.
          2   -1    0    0  501    0 -0.00000000000E+00 -0.00000000000E+00 -0.10325321030E+03  0.10325321030E+03  0.00000000000E+00 0. -1.
    9000006    2    1    2  501    0  0.00000000000E+00  0.00000000000E+00  0.89674678970E+03  0.11032532103E+04  0.64266075124E+03 0.  0.
         13    1    3    3    0    0 -0.82744640928E+02 -0.72572245968E+02  0.96663312810E+03  0.97287872360E+03  0.00000000000E+00 0. -1.
          2    1    3    3  501    0  0.82744640928E+02  0.72572245968E+02 -0.69886338399E+02  0.13037448670E+03  0.00000000000E+00 0. -1.
<mgrwt>
<rscale>  0 0.64266075E+03</rscale>
<asrwt>0</asrwt>
<pdfrwt beam="1">0</pdfrwt>
<pdfrwt beam="2">  1        2 0.37546701E+00 0.64266075E+03</pdfrwt>
<totfact> 0.49150864E+00</totfact>
</mgrwt>
</event>
<event>
 5    1  0.2381755E-004  0.6566640E+03  0.7818608E-02  0.9794354E-01
         13   -1    0    0    0    0  0.00000000000E+00  0.00000000000E+00  0.10000000000E+04  0.10000000000E+04  0.00000000000E+00 0. -1.
          2   -1    0    0  501    0 -0.00000000000E+00 -0.00000000000E+00 -0.10780188610E+03  0.10780188610E+03  0.00000000000E+00 0. -1.
    9000006    2    1    2  501    0  0.00000000000E+00  0.00000000000E+00  0.89219811390E+03  0.11078018861E+04  0.65666395088E+03 0.  0.
         13    1    3    3    0    0  0.17445989528E+03  0.21921984283E+03  0.73491035366E+03  0.78650290684E+03  0.00000000000E+00 0. -1.
          4    1    3    3  501    0 -0.17445989528E+03 -0.21921984283E+03  0.15728776024E+03  0.32129897926E+03  0.00000000000E+00 0. -1.
<mgrwt>
<rscale>  0 0.65666395E+03</rscale>
<asrwt>0</asrwt>
<pdfrwt beam="1">0</pdfrwt>
<pdfrwt beam="2">  1        2 0.39200769E+00 0.65666395E+03</pdfrwt>
<totfact> 0.42642647E+00</totfact>
</mgrwt>
</event>
<event>
 5    1  0.2381755E-004  0.6717775E+03  0.7818608E-02  0.9766752E-01
         13   -1    0    0    0    0  0.00000000000E+00  0.00000000000E+00  0.10000000000E+04  0.10000000000E+04  0.00000000000E+00 0. -1.
          2   -1    0    0  501    0 -0.00000000000E+00 -0.00000000000E+00 -0.11282126251E+03  0.11282126251E+03  0.00000000000E+00 0. -1.
    9000006    2    1    2  501    0  0.00000000000E+00  0.00000000000E+00  0.88717873749E+03  0.11128212625E+04  0.67177753017E+03 0.  0.
         13    1    3    3    0    0  0.70604813151E+02 -0.27178987561E+03  0.13829045868E+03  0.31301601731E+03  0.00000000000E+00 0. -1.
          4    1    3    3  501    0 -0.70604813151E+02  0.27178987561E+03  0.74888827880E+03  0.79980524521E+03  0.00000000000E+00 0. -1.
<mgrwt>
<rscale>  0 0.67177753E+03</rscale>
<asrwt>0</asrwt>
<pdfrwt beam="1">0</pdfrwt>
<pdfrwt beam="2">  1        2 0.41026000E+00 0.67177753E+03</pdfrwt>
<totfact> 0.36372298E+00</totfact>
</mgrwt>
</event>
<event>
 5    1  0.2381755E-004  0.7280850E+03  0.7818608E-02  0.9670373E-01
         13   -1    0    0    0    0  0.00000000000E+00  0.00000000000E+00  0.10000000000E+04  0.10000000000E+04  0.00000000000E+00 0. -1.
          2   -1    0    0  501    0 -0.00000000000E+00 -0.00000000000E+00 -0.13252693937E+03  0.13252693937E+03  0.00000000000E+00 0. -1.
    9000006    2    1    2  501    0  0.00000000000E+00  0.00000000000E+00  0.86747306063E+03  0.11325269394E+04  0.72808499330E+03 0.  0.
         13    1    3    3    0    0  0.18416291663E+03 -0.26597272713E+03  0.17406113570E+03  0.36736187935E+03  0.00000000000E+00 0. -1.
          4    1    3    3  501    0 -0.18416291663E+03  0.26597272713E+03  0.69341192493E+03  0.76516506002E+03  0.00000000000E+00 0. -1.
<mgrwt>
<rscale>  0 0.72808499E+03</rscale>
<asrwt>0</asrwt>
<pdfrwt beam="1">0</pdfrwt>
<pdfrwt beam="2">  1        2 0.48191716E+00 0.72808499E+03</pdfrwt>
<totfact> 0.18905261E+00</totfact>
</mgrwt>
</event>
<event>
 5    1  0.2381755E-004  0.6320741E+03  0.7818608E-02  0.9841010E-01
         13   -1    0    0    0    0  0.00000000000E+00  0.00000000000E+00  0.10000000000E+04  0.10000000000E+04  0.00000000000E+00 0. -1.
          2   -1    0    0  501    0 -0.00000000000E+00 -0.00000000000E+00 -0.99879406865E+02  0.99879406865E+02  0.00000000000E+00 0. -1.
    9000006    2    1    2  501    0  0.00000000000E+00  0.00000000000E+00  0.90012059313E+03  0.10998794069E+04  0.63207406802E+03 0.  0.
         13    1    3    3    0    0  0.25345955971E+03  0.16446587644E+03  0.28879565919E+03  0.41796376121E+03  0.00000000000E+00 0. -1.
          2    1    3    3  501    0 -0.25345955971E+03 -0.16446587644E+03  0.61132493394E+03  0.68191564565E+03  0.00000000000E+00 0. -1.
<mgrwt>
<rscale>  0 0.63207407E+03</rscale>
<asrwt>0</asrwt>
<pdfrwt beam="1">0</pdfrwt>
<pdfrwt beam="2">  1        2 0.36319861E+00 0.63207407E+03</pdfrwt>
<totfact> 0.54550257E+00</totfact>
</mgrwt>
</event>
<event>
 5    1  0.2381755E-004  0.6210297E+03  0.7818608E-02  0.9862712E-01
         13   -1    0    0    0    0  0.00000000000E+00  0.00000000000E+00  0.10000000000E+04  0.10000000000E+04  0.00000000000E+00 0. -1.
          2   -1    0    0  501    0 -0.00000000000E+00 -0.00000000000E+00 -0.96419475055E+02  0.96419475055E+02  0.00000000000E+00 0. -1.
    9000006    2    1    2  501    0  0.00000000000E+00  0.00000000000E+00  0.90358052494E+03  0.10964194751E+04  0.62102970961E+03 0.  0.
         13    1    3    3    0    0  0.28975949494E+03  0.11311636311E+01  0.64884282583E+03  0.71060457152E+03  0.00000000000E+00 0. -1.
          2    1    3    3  501    0 -0.28975949494E+03 -0.11311636311E+01  0.25473769911E+03  0.38581490353E+03  0.00000000000E+00 0. -1.
<mgrwt>
<rscale>  0 0.62102971E+03</rscale>
<asrwt>0</asrwt>
<pdfrwt beam="1">0</pdfrwt>
<pdfrwt beam="2">  1        2 0.35061701E+00 0.62102971E+03</pdfrwt>
<totfact> 0.60651144E+00</totfact>
</mgrwt>
</event>
<event>
 5    1  0.2381755E-004  0.6460866E+03  0.7818608E-02  0.9814150E-01
         13   -1    0    0    0    0  0.00000000000E+00  0.00000000000E+00  0.10000000000E+04  0.10000000000E+04  0.00000000000E+00 0. -1.
          2   -1    0    0  501    0 -0.00000000000E+00 -0.00000000000E+00 -0.10435698435E+03  0.10435698435E+03  0.00000000000E+00 0. -1.
    9000006    2    1    2  501    0  0.00000000000E+00  0.00000000000E+00  0.89564301565E+03  0.11043569843E+04  0.64608663304E+03 0.  0.
         13    1    3    3    0    0  0.23703445814E+03 -0.59390060703E+02  0.80898393694E+03  0.84508432945E+03  0.00000000000E+00 0. -1.
          4    1    3    3  501    0 -0.23703445814E+03  0.59390060703E+02  0.86659078713E+02  0.25927265490E+03  0.00000000000E+00 0. -1.
<mgrwt>
<rscale>  0 0.64608663E+03</rscale>
<asrwt>0</asrwt>
<pdfrwt beam="1">0</pdfrwt>
<pdfrwt beam="2">  1        2 0.37948074E+00 0.64608663E+03</pdfrwt>
<totfact> 0.47493672E+00</totfact>
</mgrwt>
</event>
<event>
 5    1  0.2381755E-004  0.6709440E+03  0.7818608E-02  0.9768254E-01
         13   -1    0    0    0    0  0.00000000000E+00  0.00000000000E+00  0.10000000000E+04  0.10000000000E+04  0.00000000000E+00 0. -1.
          2   -1    0    0  501    0 -0.00000000000E+00 -0.00000000000E+00 -0.11254146270E+03  0.11254146270E+03  0.00000000000E+00 0. -1.
    9000006    2    1    2  501    0  0.00000000000E+00  0.00000000000E+00  0.88745853730E+03  0.11125414627E+04  0.67094399976E+03 0.  0.
         13    1    3    3    0    0  0.27683609251E+03 -0.18945136418E+03  0.44933310942E+03  0.56074083561E+03  0.00000000000E+00 0. -1.
          4    1    3    3  501    0 -0.27683609251E+03  0.18945136418E+03  0.43812542788E+03  0.55180062709E+03  0.00000000000E+00 0. -1.
<mgrwt>
<rscale>  0 0.67094400E+03</rscale>
<asrwt>0</asrwt>
<pdfrwt beam="1">0</pdfrwt>
<pdfrwt beam="2">  1        2 0.40924255E+00 0.67094400E+03</pdfrwt>
<totfact> 0.36698762E+00</totfact>
</mgrwt>
</event>
<event>
 5    1  0.2381755E-004  0.6459526E+03  0.7818608E-02  0.9814404E-01
         13   -1    0    0    0    0  0.00000000000E+00  0.00000000000E+00  0.10000000000E+04  0.10000000000E+04  0.00000000000E+00 0. -1.
          2   -1    0    0  501    0 -0.00000000000E+00 -0.00000000000E+00 -0.10431368783E+03  0.10431368783E+03  0.00000000000E+00 0. -1.
    9000006    2    1    2  501    0  0.00000000000E+00  0.00000000000E+00  0.89568631217E+03  0.11043136878E+04  0.64595259215E+03 0.  0.
         13    1    3    3    0    0 -0.17833834626E+03 -0.24355710548E+03  0.25150771323E+03  0.39291317004E+03  0.00000000000E+00 0. -1.
          2    1    3    3  501    0  0.17833834626E+03  0.24355710548E+03  0.64417859894E+03  0.71140051779E+03  0.00000000000E+00 0. -1.
<mgrwt>
<rscale>  0 0.64595259E+03</rscale>
<asrwt>0</asrwt>
<pdfrwt beam="1">0</pdfrwt>
<pdfrwt beam="2">  1        2 0.37932330E+00 0.64595259E+03</pdfrwt>
<totfact> 0.47557705E+00</totfact>
</mgrwt>
</event>
<event>
 5    1  0.2381755E-004  0.6540444E+03  0.7818608E-02  0.9799220E-01
         13   -1    0    0    0    0  0.00000000000E+00  0.00000000000E+00  0.10000000000E+04  0.10000000000E+04  0.00000000000E+00 0. -1.
          2   -1    0    0  501    0 -0.00000000000E+00 -0.00000000000E+00 -0.10694350913E+03  0.10694350913E+03  0.00000000000E+00 0. -1.
    9000006    2    1    2  501    0  0.00000000000E+00  0.00000000000E+00  0.89305649087E+03  0.11069435091E+04  0.65404436892E+03 0.  0.
         13    1    3    3    0    0 -0.22224697280E+02  0.24604127074E+03  0.83878534087E+02  0.26089433217E+03  0.00000000000E+00 0. -1.
          4    1    3    3  501    0  0.22224697280E+02 -0.24604127074E+03  0.80917795679E+03  0.84604917696E+03  0.00000000000E+00 0. -1.
<mgrwt>
<rscale>  0 0.65404437E+03</rscale>
<asrwt>0</asrwt>
<pdfrwt beam="1">0</pdfrwt>
<pdfrwt beam="2">  1        2 0.38888631E+00 0.65404437E+03</pdfrwt>
<totfact> 0.43807444E+00</totfact>
</mgrwt>
</event>
<event>
 5    1  0.2381755E-004  0.6018603E+03  0.7818608E-02  0.9901554E-01
         13   -1    0    0    0    0  0.00000000000E+00  0.00000000000E+00  0.10000000000E+04  0.10000000000E+04  0.00000000000E+00 0. -1.
          2   -1    0    0  501    0 -0.00000000000E+00 -0.00000000000E+00 -0.90558945726E+02  0.90558945726E+02  0.00000000000E+00 0. -1.
    9000006    2    1    2  501    0  0.00000000000E+00  0.00000000000E+00  0.90944105427E+03  0.10905589457E+04  0.60186026859E+03 0.  0.
         13    1    3    3    0    0 -0.14096278535E+03 -0.18605056661E+03  0.11057005764E+03  0.25828483857E+03  0.00000000000E+00 0. -1.
          4    1    3    3  501    0  0.14096278535E+03  0.18605056661E+03  0.79887099663E+03  0.83227410716E+03  0.00000000000E+00 0. -1.
<mgrwt>
<rscale>  0 0.60186027E+03</rscale>
<asrwt>0</asrwt>
<pdfrwt beam="1">0</pdfrwt>
<pdfrwt beam="2">  1        2 0.32930595E+00 0.60186027E+03</pdfrwt>
<totfact> 0.72459969E+00</totfact>
</mgrwt>
</event>
<event>
 5    1  0.2381755E-004  0.6662332E+03  0.7818608E-02  0.9776787E-01
         13   -1    0    0    0    0  0.00000000000E+00  0.00000000000E+00  0.10000000000E+04  0.10000000000E+04  0.00000000000E+00 0. -1.
          2   -1    0    0  501    0 -0.00000000000E+00 -0.00000000000E+00 -0.11096667920E+03  0.11096667920E+03  0.00000000000E+00 0. -1.
    9000006    2    1    2  501    0  0.00000000000E+00  0.00000000000E+00  0.88903332080E+03  0.11109666792E+04  0.66623323005E+03 0.  0.
         13    1    3    3    0    0 -0.10661365238E+03 -0.28996980686E+03  0.65224162368E+03  0.72171191997E+03  0.00000000000E+00 0. -1.
          4    1    3    3  501    0  0.10661365238E+03  0.28996980686E+03  0.23679169712E+03  0.38925475924E+03  0.00000000000E+00 0. -1.
<mgrwt>
<rscale>  0 0.66623323E+03</rscale>
<asrwt>0</asrwt>
<pdfrwt beam="1">0</pdfrwt>
<pdfrwt beam="2">  1        2 0.40351605E+00 0.66623323E+03</pdfrwt>
<totfact> 0.38585517E+00</totfact>
</mgrwt>
</event>
<event>
 5    1  0.2381755E-004  0.6620867E+03  0.7818608E-02  0.9784360E-01
         13   -1    0    0    0    0  0.00000000000E+00  0.00000000000E+00  0.10000000000E+04  0.10000000000E+04  0.00000000000E+00 0. -1.
          2   -1    0    0  501    0 -0.00000000000E+00 -0.00000000000E+00 -0.10958970788E+03  0.10958970788E+03  0.00000000000E+00 0. -1.
    9000006    2    1    2  501    0  0.00000000000E+00  0.00000000000E+00  0.89041029212E+03  0.11095897079E+04  0.66208672508E+03 0.  0.
         13    1    3    3    0    0  0.14681111457E+03  0.25790934901E+03  0.69104840356E+03  0.75207621404E+03  0.00000000000E+00 0. -1.
          4    1    3    3  501    0 -0.14681111457E+03 -0.25790934901E+03  0.19936188856E+03  0.35751349384E+03  0.00000000000E+00 0. -1.
<mgrwt>
<rscale>  0 0.66208673E+03</rscale>
<asrwt>0</asrwt>
<pdfrwt beam="1">0</pdfrwt>
<pdfrwt beam="2">  1        2 0.39850887E+00 0.66208673E+03</pdfrwt>
<totfact> 0.40305977E+00</totfact>
</mgrwt>
</event>
<event>
 5    1  0.2381755E-004  0.6352575E+03  0.7818608E-02  0.9834843E-01
         13   -1    0    0    0    0  0.00000000000E+00  0.00000000000E+00  0.10000000000E+04  0.10000000000E+04  0.00000000000E+00 0. -1.
          2   -1    0    0  501    0 -0.00000000000E+00 -0.00000000000E+00 -0.10088802367E+03  0.10088802367E+03  0.00000000000E+00 0. -1.
    9000006    2    1    2  501    0  0.00000000000E+00  0.00000000000E+00  0.89911197633E+03  0.11008880237E+04  0.63525750266E+03 0.  0.
         13    1    3    3    0    0  0.53763647641E+02 -0.14603539220E+03 -0.30298273036E+02  0.15853974559E+03  0.00000000000E+00 0. -1.
          2    1    3    3  501    0 -0.53763647641E+02  0.14603539220E+03  0.92941024936E+03  0.94234827808E+03  0.00000000000E+00 0. -1.
<mgrwt>
<rscale>  0 0.63525750E+03</rscale>
<asrwt>0</asrwt>
<pdfrwt beam="1">0</pdfrwt>
<pdfrwt beam="2">  1        2 0.36686631E+00 0.63525750E+03</pdfrwt>
<totfact> 0.52881659E+00</totfact>
</mgrwt>
</event>
<event>
 5    1  0.2381755E-004  0.6622792E+03  0.7818608E-02  0.9784007E-01
         13   -1    0    0    0    0  0.00000000000E+00  0.00000000000E+00  0.10000000000E+04  0.10000000000E+04  0.00000000000E+00 0. -1.
          2   -1    0    0  501    0 -0.00000000000E+00 -0.00000000000E+00 -0.10965344892E+03  0.10965344892E+03  0.00000000000E+00 0. -1.
    9000006    2    1    2  501    0  0.00000000000E+00  0.00000000000E+00  0.89034655108E+03  0.11096534489E+04  0.66227924297E+03 0.  0.
         13    1    3    3    0    0  0.41614278611E+02 -0.16742655343E+03 -0.28405870381E+02  0.17484362284E+03  0.00000000000E+00 0. -1.
          2    1    3    3  501    0 -0.41614278611E+02  0.16742655343E+03  0.91875242146E+03  0.93480982607E+03  0.00000000000E+00 0. -1.
<mgrwt>
<rscale>  0 0.66227924E+03</rscale>
<asrwt>0</asrwt>
<pdfrwt beam="1">0</pdfrwt>
<pdfrwt beam="2">  1        2 0.39874066E+00 0.66227924E+03</pdfrwt>
<totfact> 0.40224841E+00</totfact>
</mgrwt>
</event>
<event>
 5    1  0.2381755E-004  0.6467906E+03  0.7818608E-02  0.9812820E-01
         13   -1    0    0    0    0  0.00000000000E+00  0.00000000000E+00  0.10000000000E+04  0.10000000000E+04  0.00000000000E+00 0. -1.
          2   -1    0    0  501    0 -0.00000000000E+00 -0.00000000000E+00 -0.10458452803E+03  0.10458452803E+03  0.00000000000E+00 0. -1.
    9000006    2    1    2  501    0  0.00000000000E+00  0.00000000000E+00  0.89541547197E+03  0.11045845280E+04  0.64679062465E+03 0.  0.
         13    1    3    3    0    0 -0.13316791900E+02 -0.91576729673E+02  0.97690563519E+03  0.98127888718E+03  0.00000000000E+00 0. -1.
          4    1    3    3  501    0  0.13316791900E+02  0.91576729673E+02 -0.81490163221E+02  0.12330564085E+03  0.00000000000E+00 0. -1.
<mgrwt>
<rscale>  0 0.64679062E+03</rscale>
<asrwt>0</asrwt>
<pdfrwt beam="1">0</pdfrwt>
<pdfrwt beam="2">  1        2 0.38030818E+00 0.64679062E+03</pdfrwt>
<totfact> 0.47158437E+00</totfact>
</mgrwt>
</event>
<event>
 5    1  0.2381755E-004  0.6214075E+03  0.7818608E-02  0.9861961E-01
         13   -1    0    0    0    0  0.00000000000E+00  0.00000000000E+00  0.10000000000E+04  0.10000000000E+04  0.00000000000E+00 0. -1.
          2   -1    0    0  501    0 -0.00000000000E+00 -0.00000000000E+00 -0.96536825803E+02  0.96536825803E+02  0.00000000000E+00 0. -1.
    9000006    2    1    2  501    0  0.00000000000E+00  0.00000000000E+00  0.90346317420E+03  0.10965368258E+04  0.62140751783E+03 0.  0.
         13    1    3    3    0    0  0.11877821672E+03 -0.11479380447E+03 -0.12633505929E+02  0.16566679747E+03  0.00000000000E+00 0. -1.
          4    1    3    3  501    0 -0.11877821672E+03  0.11479380447E+03  0.91609668013E+03  0.93087002833E+03  0.00000000000E+00 0. -1.
<mgrwt>
<rscale>  0 0.62140752E+03</rscale>
<asrwt>0</asrwt>
<pdfrwt beam="1">0</pdfrwt>
<pdfrwt beam="2">  1        2 0.35104374E+00 0.62140752E+03</pdfrwt>
<totfact> 0.60434244E+00</totfact>
</mgrwt>
</event>
<event>
 5    1  0.2381755E-004  0.6490064E+03  0.7818608E-02  0.9808645E-01
         13   -1    0    0    0    0  0.00000000000E+00  0.00000000000E+00  0.10000000000E+04  0.10000000000E+04  0.00000000000E+00 0. -1.
          2   -1    0    0  501    0 -0.00000000000E+00 -0.00000000000E+00 -0.10530232745E+03  0.10530232745E+03  0.00000000000E+00 0. -1.
    9000006    2    1    2  501    0  0.00000000000E+00  0.00000000000E+00  0.89469767255E+03  0.11053023275E+04  0.64900640197E+03 0.  0.
         13    1    3    3    0    0 -0.25449631762E+03 -0.14070243958E+02  0.78939002746E+03  0.82951971821E+03  0.00000000000E+00 0. -1.
          2    1    3    3  501    0  0.25449631762E+03  0.14070243958E+02  0.10530764509E+03  0.27578260924E+03  0.00000000000E+00 0. -1.
<mgrwt>
<rscale>  0 0.64900640E+03</rscale>
<asrwt>0</asrwt>
<pdfrwt beam="1">0</pdfrwt>
<pdfrwt beam="2">  1        2 0.38291836E+00 0.64900640E+03</pdfrwt>
<totfact> 0.46114972E+00</totfact>
</mgrwt>
</event>
<event>
 5    1  0.2381755E-004  0.6407451E+03  0.7818608E-02  0.9824302E-01
         13   -1    0    0    0    0  0.00000000000E+00  0.00000000000E+00  0.10000000000E+04  0.10000000000E+04  0.00000000000E+00 0. -1.
          2   -1    0    0  501    0 -0.00000000000E+00 -0.00000000000E+00 -0.10263857299E+03  0.10263857299E+03  0.00000000000E+00 0. -1.
    9000006    2    1    2  501    0  0.00000000000E+00  0.00000000000E+00  0.89736142701E+03  0.11026385730E+04  0.64074510685E+03 0.  0.
         13    1    3    3    0    0 -0.30055544496E+03  0.29316500704E+02  0.63278590361E+03  0.70114979321E+03  0.00000000000E+00 0. -1.
          4    1    3    3  501    0  0.30055544496E+03 -0.29316500704E+02  0.26457552340E+03  0.40148877978E+03  0.00000000000E+00 0. -1.
<mgrwt>
<rscale>  0 0.64074511E+03</rscale>
<asrwt>0</asrwt>
<pdfrwt beam="1">0</pdfrwt>
<pdfrwt beam="2">  1        2 0.37323196E+00 0.64074511E+03</pdfrwt>
<totfact> 0.50096470E+00</totfact>
</mgrwt>
</event>
<event>
 5    1  0.2381755E-004  0.6557811E+03  0.7818608E-02  0.9795992E-01
         13   -1    0    0    0    0  0.00000000000E+00  0.00000000000E+00  0.10000000000E+04  0.10000000000E+04  0.00000000000E+00 0. -1.
          2   -1    0    0  501    0 -0.00000000000E+00 -0.00000000000E+00 -0.10751219770E+03  0.10751219770E+03  0.00000000000E+00 0. -1.
    9000006    2    1    2  501    0  0.00000000000E+00  0.00000000000E+00  0.89248780230E+03  0.11075121977E+04  0.65578105401E+03 0.  0.
         13    1    3    3    0    0  0.19710014505E+03  0.25027032763E+03  0.31511631829E+03  0.44808704302E+03  0.00000000000E+00 0. -1.
          4    1    3    3  501    0 -0.19710014505E+03 -0.25027032763E+03  0.57737148401E+03  0.65942515467E+03  0.00000000000E+00 0. -1.
<mgrwt>
<rscale>  0 0.65578105E+03</rscale>
<asrwt>0</asrwt>
<pdfrwt beam="1">0</pdfrwt>
<pdfrwt beam="2">  1        2 0.39095427E+00 0.65578105E+03</pdfrwt>
<totfact> 0.43032581E+00</totfact>
</mgrwt>
</event>
<event>
 5    1  0.2381755E-004  0.6728792E+03  0.7818608E-02  0.9764770E-01
         13   -1    0    0    0    0  0.00000000000E+00  0.00000000000E+00  0.10000000000E+04  0.10000000000E+04  0.00000000000E+00 0. -1.
          2   -1    0    0  501    0 -0.00000000000E+00 -0.00000000000E+00 -0.11319159825E+03  0.11319159825E+03  0.00000000000E+00 0. -1.
    9000006    2    1    2  501    0  0.00000000000E+00  0.00000000000E+00  0.88680840175E+03  0.11131915983E+04  0.67287918159E+03 0.  0.
         13    1    3    3    0    0 -0.28623695501E+03  0.62410079634E+02  0.16973215320E+03  0.33857881842E+03  0.00000000000E+00 0. -1.
          2    1    3    3  501    0  0.28623695501E+03 -0.62410079634E+02  0.71707624854E+03  0.77461277983E+03  0.00000000000E+00 0. -1.
<mgrwt>
<rscale>  0 0.67287918E+03</rscale>
<asrwt>0</asrwt>
<pdfrwt beam="1">0</pdfrwt>
<pdfrwt beam="2">  1        2 0.41160668E+00 0.67287918E+03</pdfrwt>
<totfact> 0.35944183E+00</totfact>
</mgrwt>
</event>
<event>
 5    1  0.2381755E-004  0.6496412E+03  0.7818608E-02  0.9807453E-01
         13   -1    0    0    0    0  0.00000000000E+00  0.00000000000E+00  0.10000000000E+04  0.10000000000E+04  0.00000000000E+00 0. -1.
          2   -1    0    0  501    0 -0.00000000000E+00 -0.00000000000E+00 -0.10550841928E+03  0.10550841928E+03  0.00000000000E+00 0. -1.
    9000006    2    1    2  501    0  0.00000000000E+00  0.00000000000E+00  0.89449158072E+03  0.11055084193E+04  0.64964119105E+03 0.  0.
         13    1    3    3    0    0 -0.25336203459E+03 -0.19647449325E+03  0.53589670024E+03  0.62448364301E+03  0.00000000000E+00 0. -1.
          2    1    3    3  501    0  0.25336203459E+03  0.19647449325E+03  0.35859488049E+03  0.48102477626E+03  0.00000000000E+00 0. -1.
<mgrwt>
<rscale>  0 0.64964119E+03</rscale>
<asrwt>0</asrwt>
<pdfrwt beam="1">0</pdfrwt>
<pdfrwt beam="2">  1        2 0.38366779E+00 0.64964119E+03</pdfrwt>
<totfact> 0.45819276E+00</totfact>
</mgrwt>
</event>
<event>
 5    1  0.2381755E-004  0.6596373E+03  0.7818608E-02  0.9788862E-01
         13   -1    0    0    0    0  0.00000000000E+00  0.00000000000E+00  0.10000000000E+04  0.10000000000E+04  0.00000000000E+00 0. -1.
          2   -1    0    0  501    0 -0.00000000000E+00 -0.00000000000E+00 -0.10878032602E+03  0.10878032602E+03  0.00000000000E+00 0. -1.
    9000006    2    1    2  501    0  0.00000000000E+00  0.00000000000E+00  0.89121967398E+03  0.11087803260E+04  0.65963725188E+03 0.  0.
         13    1    3    3    0    0 -0.58763894299E+02 -0.16078092904E+03 -0.28261065290E+02  0.17350040412E+03  0.00000000000E+00 0. -1.
          2    1    3    3  501    0  0.58763894299E+02  0.16078092904E+03  0.91948073927E+03  0.93527992190E+03  0.00000000000E+00 0. -1.
<mgrwt>
<rscale>  0 0.65963725E+03</rscale>
<asrwt>0</asrwt>
<pdfrwt beam="1">0</pdfrwt>
<pdfrwt beam="2">  1        2 0.39556566E+00 0.65963725E+03</pdfrwt>
<totfact> 0.41349124E+00</totfact>
</mgrwt>
</event>
<event>
 5    1  0.2381755E-004  0.6602248E+03  0.7818608E-02  0.9787780E-01
         13   -1    0    0    0    0  0.00000000000E+00  0.00000000000E+00  0.10000000000E+04  0.10000000000E+04  0.00000000000E+00 0. -1.
          2   -1    0    0  501    0 -0.00000000000E+00 -0.00000000000E+00 -0.10897418389E+03  0.10897418389E+03  0.00000000000E+00 0. -1.
    9000006    2    1    2  501    0  0.00000000000E+00  0.00000000000E+00  0.89102581611E+03  0.11089741839E+04  0.66022476140E+03 0.  0.
         13    1    3    3    0    0  0.12571923649E+03  0.28210752959E+03  0.24974267902E+03  0.39719188108E+03  0.00000000000E+00 0. -1.
          4    1    3    3  501    0 -0.12571923649E+03 -0.28210752959E+03  0.64128313709E+03  0.71178230281E+03  0.00000000000E+00 0. -1.
<mgrwt>
<rscale>  0 0.66022476E+03</rscale>
<asrwt>0</asrwt>
<pdfrwt beam="1">0</pdfrwt>
<pdfrwt beam="2">  1        2 0.39627060E+00 0.66022476E+03</pdfrwt>
<totfact> 0.41097088E+00</totfact>
</mgrwt>
</event>
<event>
 5    1  0.2381755E-004  0.5561827E+03  0.7818608E-02  0.1000073E+00
         13   -1    0    0    0    0  0.00000000000E+00  0.00000000000E+00  0.10000000000E+04  0.10000000000E+04  0.00000000000E+00 0. -1.
          2   -1    0    0  501    0 -0.00000000000E+00 -0.00000000000E+00 -0.77334792925E+02  0.77334792925E+02  0.00000000000E+00 0. -1.
    9000006    2    1    2  501    0  0.00000000000E+00  0.00000000000E+00  0.92266520707E+03  0.10773347929E+04  0.55618267835E+03 0.  0.
         13    1    3    3    0    0 -0.16719265981E+03 -0.36754543352E+02  0.36818786604E+02  0.17509970016E+03  0.00000000000E+00 0. -1.
          2    1    3    3  501    0  0.16719265981E+03  0.36754543352E+02  0.88584642047E+03  0.90223509276E+03  0.00000000000E+00 0. -1.
<mgrwt>
<rscale>  0 0.55618268E+03</rscale>
<asrwt>0</asrwt>
<pdfrwt beam="1">0</pdfrwt>
<pdfrwt beam="2">  1        2 0.28121802E+00 0.55618268E+03</pdfrwt>
<totfact> 0.10776110E+01</totfact>
</mgrwt>
</event>
<event>
 5    1  0.2381755E-004  0.5158397E+03  0.7818608E-02  0.1009725E+00
         13   -1    0    0    0    0  0.00000000000E+00  0.00000000000E+00  0.10000000000E+04  0.10000000000E+04  0.00000000000E+00 0. -1.
          2   -1    0    0  501    0 -0.00000000000E+00 -0.00000000000E+00 -0.66522646878E+02  0.66522646878E+02  0.00000000000E+00 0. -1.
    9000006    2    1    2  501    0  0.00000000000E+00  0.00000000000E+00  0.93347735312E+03  0.10665226469E+04  0.51583969168E+03 0.  0.
         13    1    3    3    0    0 -0.11609004366E+03 -0.18434197767E+03  0.18126906841E+03  0.28340313712E+03  0.00000000000E+00 0. -1.
          2    1    3    3  501    0  0.11609004366E+03  0.18434197767E+03  0.75220828471E+03  0.78311950975E+03  0.00000000000E+00 0. -1.
<mgrwt>
<rscale>  0 0.51583969E+03</rscale>
<asrwt>0</asrwt>
<pdfrwt beam="1">0</pdfrwt>
<pdfrwt beam="2">  1        2 0.24190104E+00 0.51583969E+03</pdfrwt>
<totfact> 0.14908322E+01</totfact>
</mgrwt>
</event>
<event>
 5    1  0.2381755E-004  0.6502339E+03  0.7818608E-02  0.9806340E-01
         13   -1    0    0    0    0  0.00000000000E+00  0.00000000000E+00  0.10000000000E+04  0.10000000000E+04  0.00000000000E+00 0. -1.
          2   -1    0    0  501    0 -0.00000000000E+00 -0.00000000000E+00 -0.10570102352E+03  0.10570102352E+03  0.00000000000E+00 0. -1.
    9000006    2    1    2  501    0  0.00000000000E+00  0.00000000000E+00  0.89429897648E+03  0.11057010235E+04  0.65023387643E+03 0.  0.
         13    1    3    3    0    0  0.27613342770E+03  0.40303295669E+02  0.16348739859E+03  0.32342256420E+03  0.00000000000E+00 0. -1.
          4    1    3    3  501    0 -0.27613342770E+03 -0.40303295669E+02  0.73081157789E+03  0.78227845932E+03  0.00000000000E+00 0. -1.
<mgrwt>
<rscale>  0 0.65023388E+03</rscale>
<asrwt>0</asrwt>
<pdfrwt beam="1">0</pdfrwt>
<pdfrwt beam="2">  1        2 0.38436817E+00 0.65023388E+03</pdfrwt>
<totfact> 0.45544489E+00</totfact>
</mgrwt>
</event>
<event>
 5    1  0.2381755E-004  0.6098452E+03  0.7818608E-02  0.9885188E-01
         13   -1    0    0    0    0  0.00000000000E+00  0.00000000000E+00  0.10000000000E+04  0.10000000000E+04  0.00000000000E+00 0. -1.
          2   -1    0    0  501    0 -0.00000000000E+00 -0.00000000000E+00 -0.92977804615E+02  0.92977804615E+02  0.00000000000E+00 0. -1.
    9000006    2    1    2  501    0  0.00000000000E+00  0.00000000000E+00  0.90702219539E+03  0.10929778046E+04  0.60984524140E+03 0.  0.
         13    1    3    3    0    0  0.27754374575E+03 -0.11087354773E+03  0.34516940961E+03  0.45658010877E+03  0.00000000000E+00 0. -1.
          2    1    3    3  501    0 -0.27754374575E+03  0.11087354773E+03  0.56185278578E+03  0.63639769585E+03  0.00000000000E+00 0. -1.
<mgrwt>
<rscale>  0 0.60984524E+03</rscale>
<asrwt>0</asrwt>
<pdfrwt beam="1">0</pdfrwt>
<pdfrwt beam="2">  1        2 0.33810182E+00 0.60984524E+03</pdfrwt>
<totfact> 0.67345458E+00</totfact>
</mgrwt>
</event>
<event>
 5    1  0.2381755E-004  0.6364941E+03  0.7818608E-02  0.9832457E-01
         13   -1    0    0    0    0  0.00000000000E+00  0.00000000000E+00  0.10000000000E+04  0.10000000000E+04  0.00000000000E+00 0. -1.
          2   -1    0    0  501    0 -0.00000000000E+00 -0.00000000000E+00 -0.10128119396E+03  0.10128119396E+03  0.00000000000E+00 0. -1.
    9000006    2    1    2  501    0  0.00000000000E+00  0.00000000000E+00  0.89871880604E+03  0.11012811940E+04  0.63649412866E+03 0.  0.
         13    1    3    3    0    0  0.10547182326E+03 -0.15801933812E+03  0.76022642189E+01  0.19013734810E+03  0.00000000000E+00 0. -1.
          4    1    3    3  501    0 -0.10547182326E+03  0.15801933812E+03  0.89111654183E+03  0.91114384585E+03  0.00000000000E+00 0. -1.
<mgrwt>
<rscale>  0 0.63649413E+03</rscale>
<asrwt>0</asrwt>
<pdfrwt beam="1">0</pdfrwt>
<pdfrwt beam="2">  1        2 0.36829603E+00 0.63649413E+03</pdfrwt>
<totfact> 0.52244029E+00</totfact>
</mgrwt>
</event>
<event>
 5    1  0.2381755E-004  0.6496861E+03  0.7818608E-02  0.9807368E-01
         13   -1    0    0    0    0  0.00000000000E+00  0.00000000000E+00  0.10000000000E+04  0.10000000000E+04  0.00000000000E+00 0. -1.
          2   -1    0    0  501    0 -0.00000000000E+00 -0.00000000000E+00 -0.10552301496E+03  0.10552301496E+03  0.00000000000E+00 0. -1.
    9000006    2    1    2  501    0  0.00000000000E+00  0.00000000000E+00  0.89447698504E+03  0.11055230150E+04  0.64968612408E+03 0.  0.
         13    1    3    3    0    0 -0.29829556609E+03  0.32745123268E+01  0.66602851998E+03  0.72978418496E+03  0.00000000000E+00 0. -1.
          4    1    3    3  501    0  0.29829556609E+03 -0.32745123268E+01  0.22844846506E+03  0.37573883000E+03  0.00000000000E+00 0. -1.
<mgrwt>
<rscale>  0 0.64968612E+03</rscale>
<asrwt>0</asrwt>
<pdfrwt beam="1">0</pdfrwt>
<pdfrwt beam="2">  1        2 0.38372086E+00 0.64968612E+03</pdfrwt>
<totfact> 0.45798400E+00</totfact>
</mgrwt>
</event>
<event>
 5    1  0.2381755E-004  0.6336257E+03  0.7818608E-02  0.9837999E-01
         13   -1    0    0    0    0  0.00000000000E+00  0.00000000000E+00  0.10000000000E+04  0.10000000000E+04  0.00000000000E+00 0. -1.
          2   -1    0    0  501    0 -0.00000000000E+00 -0.00000000000E+00 -0.10037037012E+03  0.10037037012E+03  0.00000000000E+00 0. -1.
    9000006    2    1    2  501    0  0.00000000000E+00  0.00000000000E+00  0.89962962988E+03  0.11003703701E+04  0.63362566274E+03 0.  0.
         13    1    3    3    0    0  0.77254542818E+01  0.24572091131E+03  0.10278544488E+03  0.26646443773E+03  0.00000000000E+00 0. -1.
          2    1    3    3  501    0 -0.77254542818E+01 -0.24572091131E+03  0.79684418500E+03  0.83390593239E+03  0.00000000000E+00 0. -1.
<mgrwt>
<rscale>  0 0.63362566E+03</rscale>
<asrwt>0</asrwt>
<pdfrwt beam="1">0</pdfrwt>
<pdfrwt beam="2">  1        2 0.36498393E+00 0.63362566E+03</pdfrwt>
<totfact> 0.53732077E+00</totfact>
</mgrwt>
</event>
<event>
 5    1  0.2381755E-004  0.6602998E+03  0.7818608E-02  0.9787642E-01
         13   -1    0    0    0    0  0.00000000000E+00  0.00000000000E+00  0.10000000000E+04  0.10000000000E+04  0.00000000000E+00 0. -1.
          2   -1    0    0  501    0 -0.00000000000E+00 -0.00000000000E+00 -0.10899896100E+03  0.10899896100E+03  0.00000000000E+00 0. -1.
    9000006    2    1    2  501    0  0.00000000000E+00  0.00000000000E+00  0.89100103900E+03  0.11089989610E+04  0.66029981373E+03 0.  0.
         13    1    3    3    0    0 -0.18841363569E+03 -0.26799396651E+03  0.37669073091E+03  0.49921575592E+03  0.00000000000E+00 0. -1.
          2    1    3    3  501    0  0.18841363569E+03  0.26799396651E+03  0.51431030808E+03  0.60978320508E+03  0.00000000000E+00 0. -1.
<mgrwt>
<rscale>  0 0.66029981E+03</rscale>
<asrwt>0</asrwt>
<pdfrwt beam="1">0</pdfrwt>
<pdfrwt beam="2">  1        2 0.39636069E+00 0.66029981E+03</pdfrwt>
<totfact> 0.41064975E+00</totfact>
</mgrwt>
</event>
<event>
 5    1  0.2381755E-004  0.6538889E+03  0.7818608E-02  0.9799509E-01
         13   -1    0    0    0    0  0.00000000000E+00  0.00000000000E+00  0.10000000000E+04  0.10000000000E+04  0.00000000000E+00 0. -1.
          2   -1    0    0  501    0 -0.00000000000E+00 -0.00000000000E+00 -0.10689266083E+03  0.10689266083E+03  0.00000000000E+00 0. -1.
    9000006    2    1    2  501    0  0.00000000000E+00  0.00000000000E+00  0.89310733917E+03  0.11068926608E+04  0.65388886160E+03 0.  0.
         13    1    3    3    0    0 -0.24599748633E+03 -0.57137183115E+02  0.79803875265E+03  0.83704556131E+03  0.00000000000E+00 0. -1.
          4    1    3    3  501    0  0.24599748633E+03  0.57137183115E+02  0.95068586515E+02  0.26984709952E+03  0.00000000000E+00 0. -1.
<mgrwt>
<rscale>  0 0.65388886E+03</rscale>
<asrwt>0</asrwt>
<pdfrwt beam="1">0</pdfrwt>
<pdfrwt beam="2">  1        2 0.38870140E+00 0.65388886E+03</pdfrwt>
<totfact> 0.43877338E+00</totfact>
</mgrwt>
</event>
<event>
 5    1  0.2381755E-004  0.6414696E+03  0.7818608E-02  0.9822919E-01
         13   -1    0    0    0    0  0.00000000000E+00  0.00000000000E+00  0.10000000000E+04  0.10000000000E+04  0.00000000000E+00 0. -1.
          2   -1    0    0  501    0 -0.00000000000E+00 -0.00000000000E+00 -0.10287080324E+03  0.10287080324E+03  0.00000000000E+00 0. -1.
    9000006    2    1    2  501    0  0.00000000000E+00  0.00000000000E+00  0.89712919676E+03  0.11028708032E+04  0.64146957291E+03 0.  0.
         13    1    3    3    0    0 -0.12215097384E+03  0.27305512977E+03  0.64751850521E+03  0.71327426625E+03  0.00000000000E+00 0. -1.
          2    1    3    3  501    0  0.12215097384E+03 -0.27305512977E+03  0.24961069155E+03  0.38959653700E+03  0.00000000000E+00 0. -1.
<mgrwt>
<rscale>  0 0.64146957E+03</rscale>
<asrwt>0</asrwt>
<pdfrwt beam="1">0</pdfrwt>
<pdfrwt beam="2">  1        2 0.37407644E+00 0.64146957E+03</pdfrwt>
<totfact> 0.49737252E+00</totfact>
</mgrwt>
</event>
<event>
 5    1  0.2381755E-004  0.6540275E+03  0.7818608E-02  0.9799251E-01
         13   -1    0    0    0    0  0.00000000000E+00  0.00000000000E+00  0.10000000000E+04  0.10000000000E+04  0.00000000000E+00 0. -1.
          2   -1    0    0  501    0 -0.00000000000E+00 -0.00000000000E+00 -0.10693798081E+03  0.10693798081E+03  0.00000000000E+00 0. -1.
    9000006    2    1    2  501    0  0.00000000000E+00  0.00000000000E+00  0.89306201919E+03  0.11069379808E+04  0.65402746369E+03 0.  0.
         13    1    3    3    0    0  0.26754106692E+03 -0.15105521206E+03  0.25698610751E+03  0.40054682502E+03  0.00000000000E+00 0. -1.
          2    1    3    3  501    0 -0.26754106692E+03  0.15105521206E+03  0.63607591168E+03  0.70639115580E+03  0.00000000000E+00 0. -1.
<mgrwt>
<rscale>  0 0.65402746E+03</rscale>
<asrwt>0</asrwt>
<pdfrwt beam="1">0</pdfrwt>
<pdfrwt beam="2">  1        2 0.38886620E+00 0.65402746E+03</pdfrwt>
<totfact> 0.43815039E+00</totfact>
</mgrwt>
</event>
<event>
 5    1  0.2381755E-004  0.6352123E+03  0.7818608E-02  0.9834930E-01
         13   -1    0    0    0    0  0.00000000000E+00  0.00000000000E+00  0.10000000000E+04  0.10000000000E+04  0.00000000000E+00 0. -1.
          4   -1    0    0  501    0 -0.00000000000E+00 -0.00000000000E+00 -0.10087367993E+03  0.10087367993E+03  0.00000000000E+00 0. -1.
    9000006    2    1    2  501    0  0.00000000000E+00  0.00000000000E+00  0.89912632007E+03  0.11008736799E+04  0.63521234223E+03 0.  0.
         13    1    3    3    0    0 -0.71156441000E+02  0.28355230693E+03  0.66469226275E+03  0.72614113919E+03  0.00000000000E+00 0. -1.
          4    1    3    3  501    0  0.71156441000E+02 -0.28355230693E+03  0.23443405732E+03  0.37473254074E+03  0.00000000000E+00 0. -1.
<mgrwt>
<rscale>  0 0.63521234E+03</rscale>
<asrwt>0</asrwt>
<pdfrwt beam="1">0</pdfrwt>
<pdfrwt beam="2">  1        4 0.36681416E+00 0.63521234E+03</pdfrwt>
<totfact> 0.53705678E-02</totfact>
</mgrwt>
</event>
<event>
 5    1  0.2381755E-004  0.6460365E+03  0.7818608E-02  0.9814245E-01
         13   -1    0    0    0    0  0.00000000000E+00  0.00000000000E+00  0.10000000000E+04  0.10000000000E+04  0.00000000000E+00 0. -1.
          2   -1    0    0  501    0 -0.00000000000E+00 -0.00000000000E+00 -0.10434080119E+03  0.10434080119E+03  0.00000000000E+00 0. -1.
    9000006    2    1    2  501    0  0.00000000000E+00  0.00000000000E+00  0.89565919881E+03  0.11043408012E+04  0.64603653515E+03 0.  0.
         13    1    3    3    0    0  0.26063385884E+03  0.64866726855E+02  0.75458688264E+03  0.80096133745E+03  0.00000000000E+00 0. -1.
          4    1    3    3  501    0 -0.26063385884E+03 -0.64866726855E+02  0.14107231617E+03  0.30337946374E+03  0.00000000000E+00 0. -1.
<mgrwt>
<rscale>  0 0.64603654E+03</rscale>
<asrwt>0</asrwt>
<pdfrwt beam="1">0</pdfrwt>
<pdfrwt beam="2">  1        2 0.37942190E+00 0.64603654E+03</pdfrwt>
<totfact> 0.47517597E+00</totfact>
</mgrwt>
</event>
<event>
 5    1  0.2381755E-004  0.6405912E+03  0.7818608E-02  0.9824596E-01
         13   -1    0    0    0    0  0.00000000000E+00  0.00000000000E+00  0.10000000000E+04  0.10000000000E+04  0.00000000000E+00 0. -1.
          2   -1    0    0  501    0 -0.00000000000E+00 -0.00000000000E+00 -0.10258928273E+03  0.10258928273E+03  0.00000000000E+00 0. -1.
    9000006    2    1    2  501    0  0.00000000000E+00  0.00000000000E+00  0.89741071727E+03  0.11025892827E+04  0.64059123545E+03 0.  0.
         13    1    3    3    0    0  0.18169975783E+03 -0.61166764450E+02  0.70790344043E+01  0.19184964893E+03  0.00000000000E+00 0. -1.
          2    1    3    3  501    0 -0.18169975783E+03  0.61166764450E+02  0.89033168286E+03  0.91073963380E+03  0.00000000000E+00 0. -1.
<mgrwt>
<rscale>  0 0.64059124E+03</rscale>
<asrwt>0</asrwt>
<pdfrwt beam="1">0</pdfrwt>
<pdfrwt beam="2">  1        2 0.37305272E+00 0.64059124E+03</pdfrwt>
<totfact> 0.50173017E+00</totfact>
</mgrwt>
</event>
<event>
 5    1  0.2381755E-004  0.6645704E+03  0.7818608E-02  0.9779816E-01
         13   -1    0    0    0    0  0.00000000000E+00  0.00000000000E+00  0.10000000000E+04  0.10000000000E+04  0.00000000000E+00 0. -1.
          2   -1    0    0  501    0 -0.00000000000E+00 -0.00000000000E+00 -0.11041346896E+03  0.11041346896E+03  0.00000000000E+00 0. -1.
    9000006    2    1    2  501    0  0.00000000000E+00  0.00000000000E+00  0.88958653104E+03  0.11104134690E+04  0.66457044462E+03 0.  0.
         13    1    3    3    0    0 -0.62105794176E+02 -0.19189895726E+03  0.88601515278E+03  0.90868321786E+03  0.00000000000E+00 0. -1.
          2    1    3    3  501    0  0.62105794176E+02  0.19189895726E+03  0.35713782514E+01  0.20173025110E+03  0.00000000000E+00 0. -1.
<mgrwt>
<rscale>  0 0.66457044E+03</rscale>
<asrwt>0</asrwt>
<pdfrwt beam="1">0</pdfrwt>
<pdfrwt beam="2">  1        2 0.40150437E+00 0.66457044E+03</pdfrwt>
<totfact> 0.39268644E+00</totfact>
</mgrwt>
</event>
<event>
 5    1  0.2381755E-004  0.6187064E+03  0.7818608E-02  0.9867339E-01
         13   -1    0    0    0    0  0.00000000000E+00  0.00000000000E+00  0.10000000000E+04  0.10000000000E+04  0.00000000000E+00 0. -1.
          2   -1    0    0  501    0 -0.00000000000E+00 -0.00000000000E+00 -0.95699416313E+02  0.95699416313E+02  0.00000000000E+00 0. -1.
    9000006    2    1    2  501    0  0.00000000000E+00  0.00000000000E+00  0.90430058369E+03  0.10956994163E+04  0.61870644514E+03 0.  0.
         13    1    3    3    0    0  0.29143575326E+02 -0.28280920406E+03  0.66809770126E+03  0.72607501838E+03  0.00000000000E+00 0. -1.
          4    1    3    3  501    0 -0.29143575326E+02  0.28280920406E+03  0.23620288243E+03  0.36962439794E+03  0.00000000000E+00 0. -1.
<mgrwt>
<rscale>  0 0.61870645E+03</rscale>
<asrwt>0</asrwt>
<pdfrwt beam="1">0</pdfrwt>
<pdfrwt beam="2">  1        2 0.34799861E+00 0.61870645E+03</pdfrwt>
<totfact> 0.61997990E+00</totfact>
</mgrwt>
</event>
<event>
 5    1  0.2381755E-004  0.6855622E+03  0.7818608E-02  0.9742246E-01
         13   -1    0    0    0    0  0.00000000000E+00  0.00000000000E+00  0.10000000000E+04  0.10000000000E+04  0.00000000000E+00 0. -1.
          2   -1    0    0  501    0 -0.00000000000E+00 -0.00000000000E+00 -0.11749888497E+03  0.11749888497E+03  0.00000000000E+00 0. -1.
    9000006    2    1    2  501    0  0.00000000000E+00  0.00000000000E+00  0.88250111503E+03  0.11174988850E+04  0.68556220716E+03 0.  0.
         13    1    3    3    0    0  0.19473823368E+03  0.13988400261E+03  0.84055684564E+03  0.87408599382E+03  0.00000000000E+00 0. -1.
          2    1    3    3  501    0 -0.19473823368E+03 -0.13988400261E+03  0.41944269392E+02  0.24341289115E+03  0.00000000000E+00 0. -1.
<mgrwt>
<rscale>  0 0.68556221E+03</rscale>
<asrwt>0</asrwt>
<pdfrwt beam="1">0</pdfrwt>
<pdfrwt beam="2">  1        2 0.42726957E+00 0.68556221E+03</pdfrwt>
<totfact> 0.31284230E+00</totfact>
</mgrwt>
</event>
<event>
 5    1  0.2381755E-004  0.6324781E+03  0.7818608E-02  0.9840225E-01
         13   -1    0    0    0    0  0.00000000000E+00  0.00000000000E+00  0.10000000000E+04  0.10000000000E+04  0.00000000000E+00 0. -1.
          2   -1    0    0  501    0 -0.00000000000E+00 -0.00000000000E+00 -0.10000714514E+03  0.10000714514E+03  0.00000000000E+00 0. -1.
    9000006    2    1    2  501    0  0.00000000000E+00  0.00000000000E+00  0.89999285486E+03  0.11000071451E+04  0.63247812653E+03 0.  0.
         13    1    3    3    0    0 -0.42435575491E+02 -0.23500229932E+03  0.81056232451E+03  0.84500777551E+03  0.00000000000E+00 0. -1.
          2    1    3    3  501    0  0.42435575491E+02  0.23500229932E+03  0.89430530350E+02  0.25499936963E+03  0.00000000000E+00 0. -1.
<mgrwt>
<rscale>  0 0.63247813E+03</rscale>
<asrwt>0</asrwt>
<pdfrwt beam="1">0</pdfrwt>
<pdfrwt beam="2">  1        2 0.36366311E+00 0.63247813E+03</pdfrwt>
<totfact> 0.54336287E+00</totfact>
</mgrwt>
</event>
<event>
 5    1  0.2381755E-004  0.6776307E+03  0.7818608E-02  0.9756270E-01
         13   -1    0    0    0    0  0.00000000000E+00  0.00000000000E+00  0.10000000000E+04  0.10000000000E+04  0.00000000000E+00 0. -1.
          2   -1    0    0  501    0 -0.00000000000E+00 -0.00000000000E+00 -0.11479582905E+03  0.11479582905E+03  0.00000000000E+00 0. -1.
    9000006    2    1    2  501    0  0.00000000000E+00  0.00000000000E+00  0.88520417095E+03  0.11147958291E+04  0.67763066358E+03 0.  0.
         13    1    3    3    0    0  0.16451656128E+03 -0.17828791872E+03  0.83171647271E+03  0.86637438320E+03  0.00000000000E+00 0. -1.
          2    1    3    3  501    0 -0.16451656128E+03  0.17828791872E+03  0.53487698240E+02  0.24842144585E+03  0.00000000000E+00 0. -1.
<mgrwt>
<rscale>  0 0.67763066E+03</rscale>
<asrwt>0</asrwt>
<pdfrwt beam="1">0</pdfrwt>
<pdfrwt beam="2">  1        2 0.41744026E+00 0.67763066E+03</pdfrwt>
<totfact> 0.34141175E+00</totfact>
</mgrwt>
</event>
<event>
 5    1  0.2381755E-004  0.6437516E+03  0.7818608E-02  0.9818575E-01
         13   -1    0    0    0    0  0.00000000000E+00  0.00000000000E+00  0.10000000000E+04  0.10000000000E+04  0.00000000000E+00 0. -1.
          2   -1    0    0  501    0 -0.00000000000E+00 -0.00000000000E+00 -0.10360403362E+03  0.10360403362E+03  0.00000000000E+00 0. -1.
    9000006    2    1    2  501    0  0.00000000000E+00  0.00000000000E+00  0.89639596638E+03  0.11036040336E+04  0.64375160929E+03 0.  0.
         13    1    3    3    0    0 -0.12412960454E+03  0.28239305499E+03  0.60578639064E+03  0.67980228546E+03  0.00000000000E+00 0. -1.
          2    1    3    3  501    0  0.12412960454E+03 -0.28239305499E+03  0.29060957574E+03  0.42380174816E+03  0.00000000000E+00 0. -1.
<mgrwt>
<rscale>  0 0.64375161E+03</rscale>
<asrwt>0</asrwt>
<pdfrwt beam="1">0</pdfrwt>
<pdfrwt beam="2">  1        2 0.37674273E+00 0.64375161E+03</pdfrwt>
<totfact> 0.48618512E+00</totfact>
</mgrwt>
</event>
<event>
 5    1  0.2381755E-004  0.6536748E+03  0.7818608E-02  0.9799908E-01
         13   -1    0    0    0    0  0.00000000000E+00  0.00000000000E+00  0.10000000000E+04  0.10000000000E+04  0.00000000000E+00 0. -1.
          2   -1    0    0  501    0 -0.00000000000E+00 -0.00000000000E+00 -0.10682267460E+03  0.10682267460E+03  0.00000000000E+00 0. -1.
    9000006    2    1    2  501    0  0.00000000000E+00  0.00000000000E+00  0.89317732540E+03  0.11068226746E+04  0.65367476500E+03 0.  0.
         13    1    3    3    0    0 -0.27012878371E+03  0.12922863302E+03  0.66835076203E+03  0.73236762659E+03  0.00000000000E+00 0. -1.
          4    1    3    3  501    0  0.27012878371E+03 -0.12922863302E+03  0.22482656337E+03  0.37445504801E+03  0.00000000000E+00 0. -1.
<mgrwt>
<rscale>  0 0.65367477E+03</rscale>
<asrwt>0</asrwt>
<pdfrwt beam="1">0</pdfrwt>
<pdfrwt beam="2">  1        2 0.38844691E+00 0.65367477E+03</pdfrwt>
<totfact> 0.43973703E+00</totfact>
</mgrwt>
</event>
<event>
 5    1  0.2381755E-004  0.6370798E+03  0.7818608E-02  0.9831330E-01
         13   -1    0    0    0    0  0.00000000000E+00  0.00000000000E+00  0.10000000000E+04  0.10000000000E+04  0.00000000000E+00 0. -1.
          2   -1    0    0  501    0 -0.00000000000E+00 -0.00000000000E+00 -0.10146766845E+03  0.10146766845E+03  0.00000000000E+00 0. -1.
    9000006    2    1    2  501    0  0.00000000000E+00  0.00000000000E+00  0.89853233155E+03  0.11014676684E+04  0.63707980175E+03 0.  0.
         13    1    3    3    0    0  0.27104314204E+03 -0.13931670162E+03  0.28898623877E+03  0.41998401683E+03  0.00000000000E+00 0. -1.
          2    1    3    3  501    0 -0.27104314204E+03  0.13931670162E+03  0.60954609278E+03  0.68148365162E+03  0.00000000000E+00 0. -1.
<mgrwt>
<rscale>  0 0.63707980E+03</rscale>
<asrwt>0</asrwt>
<pdfrwt beam="1">0</pdfrwt>
<pdfrwt beam="2">  1        2 0.36897412E+00 0.63707980E+03</pdfrwt>
<totfact> 0.51944085E+00</totfact>
</mgrwt>
</event>
<event>
 5    1  0.2381755E-004  0.5665381E+03  0.7818608E-02  0.9977369E-01
         13   -1    0    0    0    0  0.00000000000E+00  0.00000000000E+00  0.10000000000E+04  0.10000000000E+04  0.00000000000E+00 0. -1.
          2   -1    0    0  501    0 -0.00000000000E+00 -0.00000000000E+00 -0.80241365753E+02  0.80241365753E+02  0.00000000000E+00 0. -1.
    9000006    2    1    2  501    0  0.00000000000E+00  0.00000000000E+00  0.91975863425E+03  0.10802413658E+04  0.56653813906E+03 0.  0.
         13    1    3    3    0    0 -0.15377177985E+03  0.21426468340E+03  0.65698735550E+03  0.70794597260E+03  0.00000000000E+00 0. -1.
          4    1    3    3  501    0  0.15377177985E+03 -0.21426468340E+03  0.26277127875E+03  0.37229539316E+03  0.00000000000E+00 0. -1.
<mgrwt>
<rscale>  0 0.56653814E+03</rscale>
<asrwt>0</asrwt>
<pdfrwt beam="1">0</pdfrwt>
<pdfrwt beam="2">  1        2 0.29178740E+00 0.56653814E+03</pdfrwt>
<totfact> 0.98786624E+00</totfact>
</mgrwt>
</event>
<event>
 5    1  0.2381755E-004  0.6469119E+03  0.7818608E-02  0.9812591E-01
         13   -1    0    0    0    0  0.00000000000E+00  0.00000000000E+00  0.10000000000E+04  0.10000000000E+04  0.00000000000E+00 0. -1.
          2   -1    0    0  501    0 -0.00000000000E+00 -0.00000000000E+00 -0.10462374043E+03  0.10462374043E+03  0.00000000000E+00 0. -1.
    9000006    2    1    2  501    0  0.00000000000E+00  0.00000000000E+00  0.89537625957E+03  0.11046237404E+04  0.64691186549E+03 0.  0.
         13    1    3    3    0    0 -0.54616335864E+02 -0.31473354087E+03  0.53448047725E+03  0.62266325285E+03  0.00000000000E+00 0. -1.
          4    1    3    3  501    0  0.54616335864E+02  0.31473354087E+03  0.36089578232E+03  0.48196048758E+03  0.00000000000E+00 0. -1.
<mgrwt>
<rscale>  0 0.64691187E+03</rscale>
<asrwt>0</asrwt>
<pdfrwt beam="1">0</pdfrwt>
<pdfrwt beam="2">  1        2 0.38045077E+00 0.64691187E+03</pdfrwt>
<totfact> 0.47100884E+00</totfact>
</mgrwt>
</event>
<event>
 5    1  0.2381755E-004  0.6576778E+03  0.7818608E-02  0.9792478E-01
         13   -1    0    0    0    0  0.00000000000E+00  0.00000000000E+00  0.10000000000E+04  0.10000000000E+04  0.00000000000E+00 0. -1.
          2   -1    0    0  501    0 -0.00000000000E+00 -0.00000000000E+00 -0.10813503342E+03  0.10813503342E+03  0.00000000000E+00 0. -1.
    9000006    2    1    2  501    0  0.00000000000E+00  0.00000000000E+00  0.89186496658E+03  0.11081350334E+04  0.65767783426E+03 0.  0.
         13    1    3    3    0    0  0.95618584995E+02 -0.14833799596E+03  0.91344245885E+03  0.93033553113E+03  0.00000000000E+00 0. -1.
          2    1    3    3  501    0 -0.95618584995E+02  0.14833799596E+03 -0.21577492271E+02  0.17779950229E+03  0.00000000000E+00 0. -1.
<mgrwt>
<rscale>  0 0.65767783E+03</rscale>
<asrwt>0</asrwt>
<pdfrwt beam="1">0</pdfrwt>
<pdfrwt beam="2">  1        2 0.39321913E+00 0.65767783E+03</pdfrwt>
<totfact> 0.42198160E+00</totfact>
</mgrwt>
</event>
<event>
 5    1  0.2381755E-004  0.6444899E+03  0.7818608E-02  0.9817174E-01
         13   -1    0    0    0    0  0.00000000000E+00  0.00000000000E+00  0.10000000000E+04  0.10000000000E+04  0.00000000000E+00 0. -1.
          2   -1    0    0  501    0 -0.00000000000E+00 -0.00000000000E+00 -0.10384179690E+03  0.10384179690E+03  0.00000000000E+00 0. -1.
    9000006    2    1    2  501    0  0.00000000000E+00  0.00000000000E+00  0.89615820310E+03  0.11038417969E+04  0.64448986618E+03 0.  0.
         13    1    3    3    0    0  0.15297881313E+03 -0.24600279867E+03  0.20633485393E+03  0.35565990239E+03  0.00000000000E+00 0. -1.
          2    1    3    3  501    0 -0.15297881313E+03  0.24600279867E+03  0.68982334916E+03  0.74818189451E+03  0.00000000000E+00 0. -1.
<mgrwt>
<rscale>  0 0.64448987E+03</rscale>
<asrwt>0</asrwt>
<pdfrwt beam="1">0</pdfrwt>
<pdfrwt beam="2">  1        2 0.37760733E+00 0.64448987E+03</pdfrwt>
<totfact> 0.48260720E+00</totfact>
</mgrwt>
</event>
<event>
 5    1  0.2381755E-004  0.6554057E+03  0.7818608E-02  0.9796688E-01
         13   -1    0    0    0    0  0.00000000000E+00  0.00000000000E+00  0.10000000000E+04  0.10000000000E+04  0.00000000000E+00 0. -1.
          2   -1    0    0  501    0 -0.00000000000E+00 -0.00000000000E+00 -0.10738915015E+03  0.10738915015E+03  0.00000000000E+00 0. -1.
    9000006    2    1    2  501    0  0.00000000000E+00  0.00000000000E+00  0.89261084985E+03  0.11073891502E+04  0.65540567637E+03 0.  0.
         13    1    3    3    0    0 -0.23546199431E+03 -0.13561710926E+03  0.75581022366E+03  0.80317086929E+03  0.00000000000E+00 0. -1.
          2    1    3    3  501    0  0.23546199431E+03  0.13561710926E+03  0.13680062618E+03  0.30421828086E+03  0.00000000000E+00 0. -1.
<mgrwt>
<rscale>  0 0.65540568E+03</rscale>
<asrwt>0</asrwt>
<pdfrwt beam="1">0</pdfrwt>
<pdfrwt beam="2">  1        2 0.39050682E+00 0.65540568E+03</pdfrwt>
<totfact> 0.43199181E+00</totfact>
</mgrwt>
</event>
<event>
 5    1  0.2381755E-004  0.6637396E+03  0.7818608E-02  0.9781334E-01
         13   -1    0    0    0    0  0.00000000000E+00  0.00000000000E+00  0.10000000000E+04  0.10000000000E+04  0.00000000000E+00 0. -1.
          2   -1    0    0  501    0 -0.00000000000E+00 -0.00000000000E+00 -0.11013756264E+03  0.11013756264E+03  0.00000000000E+00 0. -1.
    9000006    2    1    2  501    0  0.00000000000E+00  0.00000000000E+00  0.88986243736E+03  0.11101375626E+04  0.66373959546E+03 0.  0.
         13    1    3    3    0    0 -0.19807473382E+03  0.22805624381E+03  0.67483420582E+03  0.73935408017E+03  0.00000000000E+00 0. -1.
          2    1    3    3  501    0  0.19807473382E+03 -0.22805624381E+03  0.21502823154E+03  0.37078348248E+03  0.00000000000E+00 0. -1.
<mgrwt>
<rscale>  0 0.66373960E+03</rscale>
<asrwt>0</asrwt>
<pdfrwt beam="1">0</pdfrwt>
<pdfrwt beam="2">  1        2 0.40050107E+00 0.66373960E+03</pdfrwt>
<totfact> 0.39613382E+00</totfact>
</mgrwt>
</event>
<event>
 5    1  0.2381755E-004  0.5862781E+03  0.7818608E-02  0.9934291E-01
         13   -1    0    0    0    0  0.00000000000E+00  0.00000000000E+00  0.10000000000E+04  0.10000000000E+04  0.00000000000E+00 0. -1.
          2   -1    0    0  501    0 -0.00000000000E+00 -0.00000000000E+00 -0.85930506517E+02  0.85930506517E+02  0.00000000000E+00 0. -1.
    9000006    2    1    2  501    0  0.00000000000E+00  0.00000000000E+00  0.91406949348E+03  0.10859305065E+04  0.58627811324E+03 0.  0.
         13    1    3    3    0    0 -0.23802900030E+03  0.16939238761E+03  0.41246831769E+03  0.50545197503E+03  0.00000000000E+00 0. -1.
          2    1    3    3  501    0  0.23802900030E+03 -0.16939238761E+03  0.50160117580E+03  0.58047853149E+03  0.00000000000E+00 0. -1.
<mgrwt>
<rscale>  0 0.58627811E+03</rscale>
<asrwt>0</asrwt>
<pdfrwt beam="1">0</pdfrwt>
<pdfrwt beam="2">  1        2 0.31247523E+00 0.58627811E+03</pdfrwt>
<totfact> 0.83299179E+00</totfact>
</mgrwt>
</event>
<event>
 5    1  0.2381755E-004  0.6189960E+03  0.7818608E-02  0.9866761E-01
         13   -1    0    0    0    0  0.00000000000E+00  0.00000000000E+00  0.10000000000E+04  0.10000000000E+04  0.00000000000E+00 0. -1.
          2   -1    0    0  501    0 -0.00000000000E+00 -0.00000000000E+00 -0.95789011943E+02  0.95789011943E+02  0.00000000000E+00 0. -1.
    9000006    2    1    2  501    0  0.00000000000E+00  0.00000000000E+00  0.90421098806E+03  0.10957890119E+04  0.61899599980E+03 0.  0.
         13    1    3    3    0    0 -0.21593155782E+03 -0.17028769665E+03  0.20072318655E+03  0.34046164969E+03  0.00000000000E+00 0. -1.
          2    1    3    3  501    0  0.21593155782E+03  0.17028769665E+03  0.70348780151E+03  0.75532736225E+03  0.00000000000E+00 0. -1.
<mgrwt>
<rscale>  0 0.61899600E+03</rscale>
<asrwt>0</asrwt>
<pdfrwt beam="1">0</pdfrwt>
<pdfrwt beam="2">  1        2 0.34832441E+00 0.61899600E+03</pdfrwt>
<totfact> 0.61828899E+00</totfact>
</mgrwt>
</event>
<event>
 5    1  0.2381755E-004  0.6272113E+03  0.7818608E-02  0.9850506E-01
         13   -1    0    0    0    0  0.00000000000E+00  0.00000000000E+00  0.10000000000E+04  0.10000000000E+04  0.00000000000E+00 0. -1.
          2   -1    0    0  501    0 -0.00000000000E+00 -0.00000000000E+00 -0.98348516832E+02  0.98348516832E+02  0.00000000000E+00 0. -1.
    9000006    2    1    2  501    0  0.00000000000E+00  0.00000000000E+00  0.90165148317E+03  0.10983485168E+04  0.62721134184E+03 0.  0.
         13    1    3    3    0    0 -0.21431133413E+03 -0.22849502676E+03  0.42549788563E+03  0.52838222516E+03  0.00000000000E+00 0. -1.
          4    1    3    3  501    0  0.21431133413E+03  0.22849502676E+03  0.47615359754E+03  0.56996629167E+03  0.00000000000E+00 0. -1.
<mgrwt>
<rscale>  0 0.62721134E+03</rscale>
<asrwt>0</asrwt>
<pdfrwt beam="1">0</pdfrwt>
<pdfrwt beam="2">  1        2 0.35763172E+00 0.62721134E+03</pdfrwt>
<totfact> 0.57175813E+00</totfact>
</mgrwt>
</event>
<event>
 5    1  0.2381755E-004  0.6413568E+03  0.7818608E-02  0.9823134E-01
         13   -1    0    0    0    0  0.00000000000E+00  0.00000000000E+00  0.10000000000E+04  0.10000000000E+04  0.00000000000E+00 0. -1.
          2   -1    0    0  501    0 -0.00000000000E+00 -0.00000000000E+00 -0.10283463207E+03  0.10283463207E+03  0.00000000000E+00 0. -1.
    9000006    2    1    2  501    0  0.00000000000E+00  0.00000000000E+00  0.89716536793E+03  0.11028346321E+04  0.64135678705E+03 0.  0.
         13    1    3    3    0    0  0.27183591089E+03  0.34005954745E+02  0.73520097483E+03  0.78458373728E+03  0.00000000000E+00 0. -1.
          4    1    3    3  501    0 -0.27183591089E+03 -0.34005954745E+02  0.16196439310E+03  0.31825089480E+03  0.00000000000E+00 0. -1.
<mgrwt>
<rscale>  0 0.64135679E+03</rscale>
<asrwt>0</asrwt>
<pdfrwt beam="1">0</pdfrwt>
<pdfrwt beam="2">  1        2 0.37394491E+00 0.64135679E+03</pdfrwt>
<totfact> 0.49793047E+00</totfact>
</mgrwt>
</event>
<event>
 5    1  0.2381755E-004  0.6634744E+03  0.7818608E-02  0.9781819E-01
         13   -1    0    0    0    0  0.00000000000E+00  0.00000000000E+00  0.10000000000E+04  0.10000000000E+04  0.00000000000E+00 0. -1.
          2   -1    0    0  501    0 -0.00000000000E+00 -0.00000000000E+00 -0.11004957243E+03  0.11004957243E+03  0.00000000000E+00 0. -1.
    9000006    2    1    2  501    0  0.00000000000E+00  0.00000000000E+00  0.88995042757E+03  0.11100495724E+04  0.66347440772E+03 0.  0.
         13    1    3    3    0    0 -0.23568194352E+03 -0.21780523591E+03  0.30435165406E+03  0.44228387786E+03  0.00000000000E+00 0. -1.
          2    1    3    3  501    0  0.23568194352E+03  0.21780523591E+03  0.58559877352E+03  0.66776569456E+03  0.00000000000E+00 0. -1.
<mgrwt>
<rscale>  0 0.66347441E+03</rscale>
<asrwt>0</asrwt>
<pdfrwt beam="1">0</pdfrwt>
<pdfrwt beam="2">  1        2 0.40018111E+00 0.66347441E+03</pdfrwt>
<totfact> 0.39723893E+00</totfact>
</mgrwt>
</event>
<event>
 5    1  0.2381755E-004  0.6511351E+03  0.7818608E-02  0.9804652E-01
         13   -1    0    0    0    0  0.00000000000E+00  0.00000000000E+00  0.10000000000E+04  0.10000000000E+04  0.00000000000E+00 0. -1.
          2   -1    0    0  501    0 -0.00000000000E+00 -0.00000000000E+00 -0.10599421835E+03  0.10599421835E+03  0.00000000000E+00 0. -1.
    9000006    2    1    2  501    0  0.00000000000E+00  0.00000000000E+00  0.89400578165E+03  0.11059942184E+04  0.65113506541E+03 0.  0.
         13    1    3    3    0    0 -0.20366622436E+01  0.10375490341E+03  0.97115488383E+03  0.97668369310E+03  0.00000000000E+00 0. -1.
          4    1    3    3  501    0  0.20366622436E+01 -0.10375490341E+03 -0.77149102179E+02  0.12931052525E+03  0.00000000000E+00 0. -1.
<mgrwt>
<rscale>  0 0.65113507E+03</rscale>
<asrwt>0</asrwt>
<pdfrwt beam="1">0</pdfrwt>
<pdfrwt beam="2">  1        2 0.38543433E+00 0.65113507E+03</pdfrwt>
<totfact> 0.45129060E+00</totfact>
</mgrwt>
</event>
<event>
 5    1  0.2381755E-004  0.6463746E+03  0.7818608E-02  0.9813606E-01
         13   -1    0    0    0    0  0.00000000000E+00  0.00000000000E+00  0.10000000000E+04  0.10000000000E+04  0.00000000000E+00 0. -1.
          2   -1    0    0  501    0 -0.00000000000E+00 -0.00000000000E+00 -0.10445003696E+03  0.10445003696E+03  0.00000000000E+00 0. -1.
    9000006    2    1    2  501    0  0.00000000000E+00  0.00000000000E+00  0.89554996304E+03  0.11044500370E+04  0.64637461881E+03 0.  0.
         13    1    3    3    0    0 -0.64820597019E+02  0.85538634438E+02 -0.73111613396E+02  0.12986098642E+03  0.00000000000E+00 0. -1.
          2    1    3    3  501    0  0.64820597019E+02 -0.85538634438E+02  0.96866157644E+03  0.97458905055E+03  0.00000000000E+00 0. -1.
<mgrwt>
<rscale>  0 0.64637462E+03</rscale>
<asrwt>0</asrwt>
<pdfrwt beam="1">0</pdfrwt>
<pdfrwt beam="2">  1        2 0.37981912E+00 0.64637462E+03</pdfrwt>
<totfact> 0.47356318E+00</totfact>
</mgrwt>
</event>
<event>
 5    1  0.2381755E-004  0.6501155E+03  0.7818608E-02  0.9806562E-01
         13   -1    0    0    0    0  0.00000000000E+00  0.00000000000E+00  0.10000000000E+04  0.10000000000E+04  0.00000000000E+00 0. -1.
          2   -1    0    0  501    0 -0.00000000000E+00 -0.00000000000E+00 -0.10566254443E+03  0.10566254443E+03  0.00000000000E+00 0. -1.
    9000006    2    1    2  501    0  0.00000000000E+00  0.00000000000E+00  0.89433745557E+03  0.11056625444E+04  0.65011551105E+03 0.  0.
         13    1    3    3    0    0 -0.78946721756E+02 -0.23447817028E+03  0.88603893572E+02  0.26279887209E+03  0.00000000000E+00 0. -1.
          4    1    3    3  501    0  0.78946721756E+02  0.23447817028E+03  0.80573356200E+03  0.84286367234E+03  0.00000000000E+00 0. -1.
<mgrwt>
<rscale>  0 0.65011551E+03</rscale>
<asrwt>0</asrwt>
<pdfrwt beam="1">0</pdfrwt>
<pdfrwt beam="2">  1        2 0.38422824E+00 0.65011551E+03</pdfrwt>
<totfact> 0.45599267E+00</totfact>
</mgrwt>
</event>
<event>
 5    1  0.2381755E-004  0.6511894E+03  0.7818608E-02  0.9804550E-01
         13   -1    0    0    0    0  0.00000000000E+00  0.00000000000E+00  0.10000000000E+04  0.10000000000E+04  0.00000000000E+00 0. -1.
          2   -1    0    0  501    0 -0.00000000000E+00 -0.00000000000E+00 -0.10601190627E+03  0.10601190627E+03  0.00000000000E+00 0. -1.
    9000006    2    1    2  501    0  0.00000000000E+00  0.00000000000E+00  0.89398809373E+03  0.11060119063E+04  0.65118939264E+03 0.  0.
         13    1    3    3    0    0 -0.15384324567E+03 -0.45227794539E+02 -0.34295572386E+02  0.16398013270E+03  0.00000000000E+00 0. -1.
          2    1    3    3  501    0  0.15384324567E+03  0.45227794539E+02  0.92828366612E+03  0.94203177357E+03  0.00000000000E+00 0. -1.
<mgrwt>
<rscale>  0 0.65118939E+03</rscale>
<asrwt>0</asrwt>
<pdfrwt beam="1">0</pdfrwt>
<pdfrwt beam="2">  1        2 0.38549865E+00 0.65118939E+03</pdfrwt>
<totfact> 0.45104108E+00</totfact>
</mgrwt>
</event>
<event>
 5    1  0.2381755E-004  0.6664146E+03  0.7818608E-02  0.9776457E-01
         13   -1    0    0    0    0  0.00000000000E+00  0.00000000000E+00  0.10000000000E+04  0.10000000000E+04  0.00000000000E+00 0. -1.
          2   -1    0    0  501    0 -0.00000000000E+00 -0.00000000000E+00 -0.11102711074E+03  0.11102711074E+03  0.00000000000E+00 0. -1.
    9000006    2    1    2  501    0  0.00000000000E+00  0.00000000000E+00  0.88897288926E+03  0.11110271107E+04  0.66641461791E+03 0.  0.
         13    1    3    3    0    0 -0.50827567105E+02  0.11613804830E+03 -0.69250129422E+02  0.14445438126E+03  0.00000000000E+00 0. -1.
          2    1    3    3  501    0  0.50827567105E+02 -0.11613804830E+03  0.95822301868E+03  0.96657272948E+03  0.00000000000E+00 0. -1.
<mgrwt>
<rscale>  0 0.66641462E+03</rscale>
<asrwt>0</asrwt>
<pdfrwt beam="1">0</pdfrwt>
<pdfrwt beam="2">  1        2 0.40373580E+00 0.66641462E+03</pdfrwt>
<totfact> 0.38511542E+00</totfact>
</mgrwt>
</event>
<event>
 5    1  0.2381755E-004  0.6429563E+03  0.7818608E-02  0.9820087E-01
         13   -1    0    0    0    0  0.00000000000E+00  0.00000000000E+00  0.10000000000E+04  0.10000000000E+04  0.00000000000E+00 0. -1.
          2   -1    0    0  501    0 -0.00000000000E+00 -0.00000000000E+00 -0.10334820563E+03  0.10334820563E+03  0.00000000000E+00 0. -1.
    9000006    2    1    2  501    0  0.00000000000E+00  0.00000000000E+00  0.89665179437E+03  0.11033482056E+04  0.64295631463E+03 0.  0.
         13    1    3    3    0    0 -0.65293376528E+02  0.29463564426E+03  0.63845064599E+03  0.70618171546E+03  0.00000000000E+00 0. -1.
          2    1    3    3  501    0  0.65293376528E+02 -0.29463564426E+03  0.25820114838E+03  0.39716649017E+03  0.00000000000E+00 0. -1.
<mgrwt>
<rscale>  0 0.64295631E+03</rscale>
<asrwt>0</asrwt>
<pdfrwt beam="1">0</pdfrwt>
<pdfrwt beam="2">  1        2 0.37581245E+00 0.64295631E+03</pdfrwt>
<totfact> 0.49006191E+00</totfact>
</mgrwt>
</event>
<event>
 5    1  0.2381755E-004  0.6584390E+03  0.7818608E-02  0.9791072E-01
         13   -1    0    0    0    0  0.00000000000E+00  0.00000000000E+00  0.10000000000E+04  0.10000000000E+04  0.00000000000E+00 0. -1.
          2   -1    0    0  501    0 -0.00000000000E+00 -0.00000000000E+00 -0.10838547690E+03  0.10838547690E+03  0.00000000000E+00 0. -1.
    9000006    2    1    2  501    0  0.00000000000E+00  0.00000000000E+00  0.89161452310E+03  0.11083854769E+04  0.65843899308E+03 0.  0.
         13    1    3    3    0    0  0.13159053177E+03 -0.92642743213E+02  0.92927481256E+03  0.94310679309E+03  0.00000000000E+00 0. -1.
          4    1    3    3  501    0 -0.13159053177E+03  0.92642743213E+02 -0.37660289458E+02  0.16527868381E+03  0.00000000000E+00 0. -1.
<mgrwt>
<rscale>  0 0.65843899E+03</rscale>
<asrwt>0</asrwt>
<pdfrwt beam="1">0</pdfrwt>
<pdfrwt beam="2">  1        2 0.39412984E+00 0.65843899E+03</pdfrwt>
<totfact> 0.41866782E+00</totfact>
</mgrwt>
</event>
<event>
 5    1  0.2381755E-004  0.6560684E+03  0.7818608E-02  0.9795458E-01
         13   -1    0    0    0    0  0.00000000000E+00  0.00000000000E+00  0.10000000000E+04  0.10000000000E+04  0.00000000000E+00 0. -1.
          2   -1    0    0  501    0 -0.00000000000E+00 -0.00000000000E+00 -0.10760643262E+03  0.10760643262E+03  0.00000000000E+00 0. -1.
    9000006    2    1    2  501    0  0.00000000000E+00  0.00000000000E+00  0.89239356738E+03  0.11076064326E+04  0.65606838858E+03 0.  0.
         13    1    3    3    0    0  0.27394844124E+03 -0.15409383169E+03  0.28770113584E+03  0.42610397908E+03  0.00000000000E+00 0. -1.
          2    1    3    3  501    0 -0.27394844124E+03  0.15409383169E+03  0.60469243154E+03  0.68150245355E+03  0.00000000000E+00 0. -1.
<mgrwt>
<rscale>  0 0.65606839E+03</rscale>
<asrwt>0</asrwt>
<pdfrwt beam="1">0</pdfrwt>
<pdfrwt beam="2">  1        2 0.39129694E+00 0.65606839E+03</pdfrwt>
<totfact> 0.42905384E+00</totfact>
</mgrwt>
</event>
<event>
 5    1  0.2381755E-004  0.6494885E+03  0.7818608E-02  0.9807739E-01
         13   -1    0    0    0    0  0.00000000000E+00  0.00000000000E+00  0.10000000000E+04  0.10000000000E+04  0.00000000000E+00 0. -1.
          2   -1    0    0  501    0 -0.00000000000E+00 -0.00000000000E+00 -0.10545883693E+03  0.10545883693E+03  0.00000000000E+00 0. -1.
    9000006    2    1    2  501    0  0.00000000000E+00  0.00000000000E+00  0.89454116307E+03  0.11054588369E+04  0.64948852779E+03 0.  0.
         13    1    3    3    0    0 -0.17468488304E+03 -0.16984334635E+03  0.81836812749E+02  0.25701913272E+03  0.00000000000E+00 0. -1.
          4    1    3    3  501    0  0.17468488304E+03  0.16984334635E+03  0.81270435032E+03  0.84843970422E+03  0.00000000000E+00 0. -1.
<mgrwt>
<rscale>  0 0.64948853E+03</rscale>
<asrwt>0</asrwt>
<pdfrwt beam="1">0</pdfrwt>
<pdfrwt beam="2">  1        2 0.38348749E+00 0.64948853E+03</pdfrwt>
<totfact> 0.45890258E+00</totfact>
</mgrwt>
</event>
<event>
 5    1  0.2381755E-004  0.6645356E+03  0.7818608E-02  0.9779880E-01
         13   -1    0    0    0    0  0.00000000000E+00  0.00000000000E+00  0.10000000000E+04  0.10000000000E+04  0.00000000000E+00 0. -1.
          2   -1    0    0  501    0 -0.00000000000E+00 -0.00000000000E+00 -0.11040187915E+03  0.11040187915E+03  0.00000000000E+00 0. -1.
    9000006    2    1    2  501    0  0.00000000000E+00  0.00000000000E+00  0.88959812085E+03  0.11104018791E+04  0.66453556457E+03 0.  0.
         13    1    3    3    0    0  0.13941480186E+03  0.15465655912E+03  0.87746309482E+03  0.90182959644E+03  0.00000000000E+00 0. -1.
          2    1    3    3  501    0 -0.13941480186E+03 -0.15465655912E+03  0.12135026035E+02  0.20857228270E+03  0.00000000000E+00 0. -1.
<mgrwt>
<rscale>  0 0.66453556E+03</rscale>
<asrwt>0</asrwt>
<pdfrwt beam="1">0</pdfrwt>
<pdfrwt beam="2">  1        2 0.40146223E+00 0.66453556E+03</pdfrwt>
<totfact> 0.39283071E+00</totfact>
</mgrwt>
</event>
<event>
 5    1  0.2381755E-004  0.6510284E+03  0.7818608E-02  0.9804851E-01
         13   -1    0    0    0    0  0.00000000000E+00  0.00000000000E+00  0.10000000000E+04  0.10000000000E+04  0.00000000000E+00 0. -1.
          2   -1    0    0  501    0 -0.00000000000E+00 -0.00000000000E+00 -0.10595949351E+03  0.10595949351E+03  0.00000000000E+00 0. -1.
    9000006    2    1    2  501    0  0.00000000000E+00  0.00000000000E+00  0.89404050649E+03  0.11059594935E+04  0.65102839725E+03 0.  0.
         13    1    3    3    0    0  0.10461568271E+03  0.11361257164E+03  0.93379720273E+03  0.94648268517E+03  0.00000000000E+00 0. -1.
          4    1    3    3  501    0 -0.10461568271E+03 -0.11361257164E+03 -0.39756696232E+02  0.15947680834E+03  0.00000000000E+00 0. -1.
<mgrwt>
<rscale>  0 0.65102840E+03</rscale>
<asrwt>0</asrwt>
<pdfrwt beam="1">0</pdfrwt>
<pdfrwt beam="2">  1        2 0.38530806E+00 0.65102840E+03</pdfrwt>
<totfact> 0.45178081E+00</totfact>
</mgrwt>
</event>
<event>
 5    1  0.2381755E-004  0.6505622E+03  0.7818608E-02  0.9805725E-01
         13   -1    0    0    0    0  0.00000000000E+00  0.00000000000E+00  0.10000000000E+04  0.10000000000E+04  0.00000000000E+00 0. -1.
          2   -1    0    0  501    0 -0.00000000000E+00 -0.00000000000E+00 -0.10580779580E+03  0.10580779580E+03  0.00000000000E+00 0. -1.
    9000006    2    1    2  501    0  0.00000000000E+00  0.00000000000E+00  0.89419220420E+03  0.11058077958E+04  0.65056220549E+03 0.  0.
         13    1    3    3    0    0 -0.96556566235E+02  0.30807784665E+03  0.51450372757E+03  0.60741189959E+03  0.00000000000E+00 0. -1.
          4    1    3    3  501    0  0.96556566235E+02 -0.30807784665E+03  0.37968847663E+03  0.49839589621E+03  0.00000000000E+00 0. -1.
<mgrwt>
<rscale>  0 0.65056221E+03</rscale>
<asrwt>0</asrwt>
<pdfrwt beam="1">0</pdfrwt>
<pdfrwt beam="2">  1        2 0.38475643E+00 0.65056221E+03</pdfrwt>
<totfact> 0.45392803E+00</totfact>
</mgrwt>
</event>
<event>
 5    1  0.2381755E-004  0.6471388E+03  0.7818608E-02  0.9812163E-01
         13   -1    0    0    0    0  0.00000000000E+00  0.00000000000E+00  0.10000000000E+04  0.10000000000E+04  0.00000000000E+00 0. -1.
          2   -1    0    0  501    0 -0.00000000000E+00 -0.00000000000E+00 -0.10469716816E+03  0.10469716816E+03  0.00000000000E+00 0. -1.
    9000006    2    1    2  501    0  0.00000000000E+00  0.00000000000E+00  0.89530283184E+03  0.11046971682E+04  0.64713883567E+03 0.  0.
         13    1    3    3    0    0 -0.68647814590E+02 -0.31437541337E+03  0.38969354357E+03  0.50537657334E+03  0.00000000000E+00 0. -1.
          4    1    3    3  501    0  0.68647814590E+02  0.31437541337E+03  0.50560928828E+03  0.59932059482E+03  0.00000000000E+00 0. -1.
<mgrwt>
<rscale>  0 0.64713884E+03</rscale>
<asrwt>0</asrwt>
<pdfrwt beam="1">0</pdfrwt>
<pdfrwt beam="2">  1        2 0.38071778E+00 0.64713884E+03</pdfrwt>
<totfact> 0.46993285E+00</totfact>
</mgrwt>
</event>
<event>
 5    1  0.2381755E-004  0.5111442E+03  0.7818608E-02  0.1010910E+00
         13   -1    0    0    0    0  0.00000000000E+00  0.00000000000E+00  0.10000000000E+04  0.10000000000E+04  0.00000000000E+00 0. -1.
          2   -1    0    0  501    0 -0.00000000000E+00 -0.00000000000E+00 -0.65317098096E+02  0.65317098096E+02  0.00000000000E+00 0. -1.
    9000006    2    1    2  501    0  0.00000000000E+00  0.00000000000E+00  0.93468290190E+03  0.10653170981E+04  0.51114419921E+03 0.  0.
         13    1    3    3    0    0 -0.13374071143E+03 -0.69752019772E+02  0.37347172031E+02  0.15539219226E+03  0.00000000000E+00 0. -1.
          2    1    3    3  501    0  0.13374071143E+03  0.69752019772E+02  0.89733572987E+03  0.90992490584E+03  0.00000000000E+00 0. -1.
<mgrwt>
<rscale>  0 0.51114420E+03</rscale>
<asrwt>0</asrwt>
<pdfrwt beam="1">0</pdfrwt>
<pdfrwt beam="2">  1        2 0.23751722E+00 0.51114420E+03</pdfrwt>
<totfact> 0.15462332E+01</totfact>
</mgrwt>
</event>
<event>
 5    1  0.2381755E-004  0.6574689E+03  0.7818608E-02  0.9792864E-01
         13   -1    0    0    0    0  0.00000000000E+00  0.00000000000E+00  0.10000000000E+04  0.10000000000E+04  0.00000000000E+00 0. -1.
          2   -1    0    0  501    0 -0.00000000000E+00 -0.00000000000E+00 -0.10806633101E+03  0.10806633101E+03  0.00000000000E+00 0. -1.
    9000006    2    1    2  501    0  0.00000000000E+00  0.00000000000E+00  0.89193366899E+03  0.11080663310E+04  0.65746887687E+03 0.  0.
         13    1    3    3    0    0 -0.79482720700E+01 -0.32221360177E+03  0.33698371135E+03  0.46630762584E+03  0.00000000000E+00 0. -1.
          4    1    3    3  501    0  0.79482720700E+01  0.32221360177E+03  0.55494995763E+03  0.64175870518E+03  0.00000000000E+00 0. -1.
<mgrwt>
<rscale>  0 0.65746888E+03</rscale>
<asrwt>0</asrwt>
<pdfrwt beam="1">0</pdfrwt>
<pdfrwt beam="2">  1        2 0.39296931E+00 0.65746888E+03</pdfrwt>
<totfact> 0.42289480E+00</totfact>
</mgrwt>
</event>
<event>
 5    1  0.2381755E-004  0.6540569E+03  0.7818608E-02  0.9799196E-01
         13   -1    0    0    0    0  0.00000000000E+00  0.00000000000E+00  0.10000000000E+04  0.10000000000E+04  0.00000000000E+00 0. -1.
          2   -1    0    0  501    0 -0.00000000000E+00 -0.00000000000E+00 -0.10694761076E+03  0.10694761076E+03  0.00000000000E+00 0. -1.
    9000006    2    1    2  501    0  0.00000000000E+00  0.00000000000E+00  0.89305238924E+03  0.11069476108E+04  0.65405691117E+03 0.  0.
         13    1    3    3    0    0 -0.13488554724E+03  0.28791514315E+03  0.57606501446E+03  0.65798187011E+03  0.00000000000E+00 0. -1.
          4    1    3    3  501    0  0.13488554724E+03 -0.28791514315E+03  0.31698737478E+03  0.44896574065E+03  0.00000000000E+00 0. -1.
<mgrwt>
<rscale>  0 0.65405691E+03</rscale>
<asrwt>0</asrwt>
<pdfrwt beam="1">0</pdfrwt>
<pdfrwt beam="2">  1        2 0.38890122E+00 0.65405691E+03</pdfrwt>
<totfact> 0.43801811E+00</totfact>
</mgrwt>
</event>
<event>
 5    1  0.2381755E-004  0.6489308E+03  0.7818608E-02  0.9808788E-01
         13   -1    0    0    0    0  0.00000000000E+00  0.00000000000E+00  0.10000000000E+04  0.10000000000E+04  0.00000000000E+00 0. -1.
          2   -1    0    0  501    0 -0.00000000000E+00 -0.00000000000E+00 -0.10527779535E+03  0.10527779535E+03  0.00000000000E+00 0. -1.
    9000006    2    1    2  501    0  0.00000000000E+00  0.00000000000E+00  0.89472220465E+03  0.11052777954E+04  0.64893079863E+03 0.  0.
         13    1    3    3    0    0 -0.24338919028E+03  0.50844901196E+02  0.80241101085E+03  0.84005174380E+03  0.00000000000E+00 0. -1.
          2    1    3    3  501    0  0.24338919028E+03 -0.50844901196E+02  0.92311193796E+02  0.26522605155E+03  0.00000000000E+00 0. -1.
<mgrwt>
<rscale>  0 0.64893080E+03</rscale>
<asrwt>0</asrwt>
<pdfrwt beam="1">0</pdfrwt>
<pdfrwt beam="2">  1        2 0.38282915E+00 0.64893080E+03</pdfrwt>
<totfact> 0.46150285E+00</totfact>
</mgrwt>
</event>
<event>
 5    1  0.2381755E-004  0.6482533E+03  0.7818608E-02  0.9810062E-01
         13   -1    0    0    0    0  0.00000000000E+00  0.00000000000E+00  0.10000000000E+04  0.10000000000E+04  0.00000000000E+00 0. -1.
          2   -1    0    0  501    0 -0.00000000000E+00 -0.00000000000E+00 -0.10505809938E+03  0.10505809938E+03  0.00000000000E+00 0. -1.
    9000006    2    1    2  501    0  0.00000000000E+00  0.00000000000E+00  0.89494190062E+03  0.11050580994E+04  0.64825334362E+03 0.  0.
         13    1    3    3    0    0 -0.14583132281E+03  0.27722971529E+03  0.58943026061E+03  0.66749615870E+03  0.00000000000E+00 0. -1.
          4    1    3    3  501    0  0.14583132281E+03 -0.27722971529E+03  0.30551164001E+03  0.43756194068E+03  0.00000000000E+00 0. -1.
<mgrwt>
<rscale>  0 0.64825334E+03</rscale>
<asrwt>0</asrwt>
<pdfrwt beam="1">0</pdfrwt>
<pdfrwt beam="2">  1        2 0.38203026E+00 0.64825334E+03</pdfrwt>
<totfact> 0.46467627E+00</totfact>
</mgrwt>
</event>
<event>
 5    1  0.2381755E-004  0.6488808E+03  0.7818608E-02  0.9808882E-01
         13   -1    0    0    0    0  0.00000000000E+00  0.00000000000E+00  0.10000000000E+04  0.10000000000E+04  0.00000000000E+00 0. -1.
          2   -1    0    0  501    0 -0.00000000000E+00 -0.00000000000E+00 -0.10526158033E+03  0.10526158033E+03  0.00000000000E+00 0. -1.
    9000006    2    1    2  501    0  0.00000000000E+00  0.00000000000E+00  0.89473841967E+03  0.11052615803E+04  0.64888082214E+03 0.  0.
         13    1    3    3    0    0 -0.11851592100E+02  0.80453990306E+02  0.98235824882E+03  0.98571853682E+03  0.00000000000E+00 0. -1.
          2    1    3    3  501    0  0.11851592100E+02 -0.80453990306E+02 -0.87619829159E+02  0.11954304352E+03  0.00000000000E+00 0. -1.
<mgrwt>
<rscale>  0 0.64888082E+03</rscale>
<asrwt>0</asrwt>
<pdfrwt beam="1">0</pdfrwt>
<pdfrwt beam="2">  1        2 0.38277019E+00 0.64888082E+03</pdfrwt>
<totfact> 0.46173639E+00</totfact>
</mgrwt>
</event>
<event>
 5    1  0.2381755E-004  0.6589707E+03  0.7818608E-02  0.9790090E-01
         13   -1    0    0    0    0  0.00000000000E+00  0.00000000000E+00  0.10000000000E+04  0.10000000000E+04  0.00000000000E+00 0. -1.
          2   -1    0    0  501    0 -0.00000000000E+00 -0.00000000000E+00 -0.10856058271E+03  0.10856058271E+03  0.00000000000E+00 0. -1.
    9000006    2    1    2  501    0  0.00000000000E+00  0.00000000000E+00  0.89143941729E+03  0.11085605827E+04  0.65897066008E+03 0.  0.
         13    1    3    3    0    0  0.28937380614E+03  0.31439159802E+02  0.70543683444E+03  0.76312957473E+03  0.00000000000E+00 0. -1.
          4    1    3    3  501    0 -0.28937380614E+03 -0.31439159802E+02  0.18600258285E+03  0.34543100798E+03  0.00000000000E+00 0. -1.
<mgrwt>
<rscale>  0 0.65897066E+03</rscale>
<asrwt>0</asrwt>
<pdfrwt beam="1">0</pdfrwt>
<pdfrwt beam="2">  1        2 0.39476659E+00 0.65897066E+03</pdfrwt>
<totfact> 0.41636497E+00</totfact>
</mgrwt>
</event>
<event>
 5    1  0.2381755E-004  0.6523285E+03  0.7818608E-02  0.9802420E-01
         13   -1    0    0    0    0  0.00000000000E+00  0.00000000000E+00  0.10000000000E+04  0.10000000000E+04  0.00000000000E+00 0. -1.
          2   -1    0    0  501    0 -0.00000000000E+00 -0.00000000000E+00 -0.10638310611E+03  0.10638310611E+03  0.00000000000E+00 0. -1.
    9000006    2    1    2  501    0  0.00000000000E+00  0.00000000000E+00  0.89361689389E+03  0.11063831061E+04  0.65232846363E+03 0.  0.
         13    1    3    3    0    0  0.29201702433E+03 -0.14077663308E+03  0.50775086531E+03  0.60241426290E+03  0.00000000000E+00 0. -1.
          2    1    3    3  501    0 -0.29201702433E+03  0.14077663308E+03  0.38586602857E+03  0.50396884321E+03  0.00000000000E+00 0. -1.
<mgrwt>
<rscale>  0 0.65232846E+03</rscale>
<asrwt>0</asrwt>
<pdfrwt beam="1">0</pdfrwt>
<pdfrwt beam="2">  1        2 0.38684847E+00 0.65232846E+03</pdfrwt>
<totfact> 0.44583341E+00</totfact>
</mgrwt>
</event>
<event>
 5    1  0.2381755E-004  0.6597791E+03  0.7818608E-02  0.9788601E-01
         13   -1    0    0    0    0  0.00000000000E+00  0.00000000000E+00  0.10000000000E+04  0.10000000000E+04  0.00000000000E+00 0. -1.
          2   -1    0    0  501    0 -0.00000000000E+00 -0.00000000000E+00 -0.10882710420E+03  0.10882710420E+03  0.00000000000E+00 0. -1.
    9000006    2    1    2  501    0  0.00000000000E+00  0.00000000000E+00  0.89117289580E+03  0.11088271042E+04  0.65977906665E+03 0.  0.
         13    1    3    3    0    0  0.25852143220E+03 -0.15842307855E+03  0.66403842781E+03  0.72998509323E+03  0.00000000000E+00 0. -1.
          4    1    3    3  501    0 -0.25852143220E+03  0.15842307855E+03  0.22713446799E+03  0.37884201097E+03  0.00000000000E+00 0. -1.
<mgrwt>
<rscale>  0 0.65977907E+03</rscale>
<asrwt>0</asrwt>
<pdfrwt beam="1">0</pdfrwt>
<pdfrwt beam="2">  1        2 0.39573576E+00 0.65977907E+03</pdfrwt>
<totfact> 0.41288181E+00</totfact>
</mgrwt>
</event>
<event>
 5    1  0.2381755E-004  0.6531207E+03  0.7818608E-02  0.9800941E-01
         13   -1    0    0    0    0  0.00000000000E+00  0.00000000000E+00  0.10000000000E+04  0.10000000000E+04  0.00000000000E+00 0. -1.
          2   -1    0    0  501    0 -0.00000000000E+00 -0.00000000000E+00 -0.10664165777E+03  0.10664165777E+03  0.00000000000E+00 0. -1.
    9000006    2    1    2  501    0  0.00000000000E+00  0.00000000000E+00  0.89335834223E+03  0.11066416578E+04  0.65312068646E+03 0.  0.
         13    1    3    3    0    0 -0.99334957988E+02 -0.29844997292E+03  0.59537909703E+03  0.67336178195E+03  0.00000000000E+00 0. -1.
          2    1    3    3  501    0  0.99334957988E+02  0.29844997292E+03  0.29797924520E+03  0.43327987582E+03  0.00000000000E+00 0. -1.
<mgrwt>
<rscale>  0 0.65312069E+03</rscale>
<asrwt>0</asrwt>
<pdfrwt beam="1">0</pdfrwt>
<pdfrwt beam="2">  1        2 0.38778866E+00 0.65312069E+03</pdfrwt>
<totfact> 0.44223836E+00</totfact>
</mgrwt>
</event>
<event>
 5    1  0.2381755E-004  0.6278839E+03  0.7818608E-02  0.9849187E-01
         13   -1    0    0    0    0  0.00000000000E+00  0.00000000000E+00  0.10000000000E+04  0.10000000000E+04  0.00000000000E+00 0. -1.
          2   -1    0    0  501    0 -0.00000000000E+00 -0.00000000000E+00 -0.98559559579E+02  0.98559559579E+02  0.00000000000E+00 0. -1.
    9000006    2    1    2  501    0  0.00000000000E+00  0.00000000000E+00  0.90144044042E+03  0.10985595596E+04  0.62788393698E+03 0.  0.
         13    1    3    3    0    0 -0.20951324522E+03 -0.18220967973E+03  0.19439377403E+03  0.33894705589E+03  0.00000000000E+00 0. -1.
          2    1    3    3  501    0  0.20951324522E+03  0.18220967973E+03  0.70704666639E+03  0.75961250369E+03  0.00000000000E+00 0. -1.
<mgrwt>
<rscale>  0 0.62788394E+03</rscale>
<asrwt>0</asrwt>
<pdfrwt beam="1">0</pdfrwt>
<pdfrwt beam="2">  1        2 0.35839915E+00 0.62788394E+03</pdfrwt>
<totfact> 0.56807053E+00</totfact>
</mgrwt>
</event>
<event>
 5    1  0.2381755E-004  0.6873460E+03  0.7818608E-02  0.9739120E-01
         13   -1    0    0    0    0  0.00000000000E+00  0.00000000000E+00  0.10000000000E+04  0.10000000000E+04  0.00000000000E+00 0. -1.
          2   -1    0    0  501    0 -0.00000000000E+00 -0.00000000000E+00 -0.11811111828E+03  0.11811111828E+03  0.00000000000E+00 0. -1.
    9000006    2    1    2  501    0  0.00000000000E+00  0.00000000000E+00  0.88188888172E+03  0.11181111183E+04  0.68734596319E+03 0.  0.
         13    1    3    3    0    0  0.54451869787E+02  0.33734222790E+03  0.50063228522E+03  0.60613321131E+03  0.00000000000E+00 0. -1.
          4    1    3    3  501    0 -0.54451869787E+02 -0.33734222790E+03  0.38125659650E+03  0.51197790697E+03  0.00000000000E+00 0. -1.
<mgrwt>
<rscale>  0 0.68734596E+03</rscale>
<asrwt>0</asrwt>
<pdfrwt beam="1">0</pdfrwt>
<pdfrwt beam="2">  1        2 0.42949588E+00 0.68734596E+03</pdfrwt>
<totfact> 0.30667326E+00</totfact>
</mgrwt>
</event>
<event>
 5    1  0.2381755E-004  0.6839648E+03  0.7818608E-02  0.9745054E-01
         13   -1    0    0    0    0  0.00000000000E+00  0.00000000000E+00  0.10000000000E+04  0.10000000000E+04  0.00000000000E+00 0. -1.
          2   -1    0    0  501    0 -0.00000000000E+00 -0.00000000000E+00 -0.11695195077E+03  0.11695195077E+03  0.00000000000E+00 0. -1.
    9000006    2    1    2  501    0  0.00000000000E+00  0.00000000000E+00  0.88304804923E+03  0.11169519508E+04  0.68396476741E+03 0.  0.
         13    1    3    3    0    0  0.27425743279E+03 -0.13202687441E+03  0.18693651147E+03  0.35720231568E+03  0.00000000000E+00 0. -1.
          2    1    3    3  501    0 -0.27425743279E+03  0.13202687441E+03  0.69611153776E+03  0.75974963508E+03  0.00000000000E+00 0. -1.
<mgrwt>
<rscale>  0 0.68396477E+03</rscale>
<asrwt>0</asrwt>
<pdfrwt beam="1">0</pdfrwt>
<pdfrwt beam="2">  1        2 0.42528072E+00 0.68396477E+03</pdfrwt>
<totfact> 0.31844583E+00</totfact>
</mgrwt>
</event>
<event>
 5    1  0.2381755E-004  0.6364826E+03  0.7818608E-02  0.9832479E-01
         13   -1    0    0    0    0  0.00000000000E+00  0.00000000000E+00  0.10000000000E+04  0.10000000000E+04  0.00000000000E+00 0. -1.
          2   -1    0    0  501    0 -0.00000000000E+00 -0.00000000000E+00 -0.10127753572E+03  0.10127753572E+03  0.00000000000E+00 0. -1.
    9000006    2    1    2  501    0  0.00000000000E+00  0.00000000000E+00  0.89872246428E+03  0.11012775357E+04  0.63648263360E+03 0.  0.
         13    1    3    3    0    0  0.83008465060E+02 -0.27500641148E+02 -0.80082356828E+02  0.11857434128E+03  0.00000000000E+00 0. -1.
          4    1    3    3  501    0 -0.83008465060E+02  0.27500641148E+02  0.97880482111E+03  0.98270319444E+03  0.00000000000E+00 0. -1.
<mgrwt>
<rscale>  0 0.63648263E+03</rscale>
<asrwt>0</asrwt>
<pdfrwt beam="1">0</pdfrwt>
<pdfrwt beam="2">  1        2 0.36828272E+00 0.63648263E+03</pdfrwt>
<totfact> 0.52249929E+00</totfact>
</mgrwt>
</event>
<event>
 5    1  0.2381755E-004  0.6638691E+03  0.7818608E-02  0.9781097E-01
         13   -1    0    0    0    0  0.00000000000E+00  0.00000000000E+00  0.10000000000E+04  0.10000000000E+04  0.00000000000E+00 0. -1.
          2   -1    0    0  501    0 -0.00000000000E+00 -0.00000000000E+00 -0.11018053465E+03  0.11018053465E+03  0.00000000000E+00 0. -1.
    9000006    2    1    2  501    0  0.00000000000E+00  0.00000000000E+00  0.88981946535E+03  0.11101805346E+04  0.66386906736E+03 0.  0.
         13    1    3    3    0    0  0.18612571383E+03 -0.25467151045E+03  0.27208720185E+03  0.41657148846E+03  0.00000000000E+00 0. -1.
          4    1    3    3  501    0 -0.18612571383E+03  0.25467151045E+03  0.61773226350E+03  0.69360904619E+03  0.00000000000E+00 0. -1.
<mgrwt>
<rscale>  0 0.66386907E+03</rscale>
<asrwt>0</asrwt>
<pdfrwt beam="1">0</pdfrwt>
<pdfrwt beam="2">  1        2 0.40065733E+00 0.66386907E+03</pdfrwt>
<totfact> 0.39559511E+00</totfact>
</mgrwt>
</event>
<event>
 5    1  0.2381755E-004  0.6375510E+03  0.7818608E-02  0.9830423E-01
         13   -1    0    0    0    0  0.00000000000E+00  0.00000000000E+00  0.10000000000E+04  0.10000000000E+04  0.00000000000E+00 0. -1.
          2   -1    0    0  501    0 -0.00000000000E+00 -0.00000000000E+00 -0.10161783087E+03  0.10161783087E+03  0.00000000000E+00 0. -1.
    9000006    2    1    2  501    0  0.00000000000E+00  0.00000000000E+00  0.89838216913E+03  0.11016178309E+04  0.63755103599E+03 0.  0.
         13    1    3    3    0    0 -0.99013168852E+02  0.17695988693E+03  0.87419370978E+03  0.89740350534E+03  0.00000000000E+00 0. -1.
          4    1    3    3  501    0  0.99013168852E+02 -0.17695988693E+03  0.24188459350E+02  0.20421432553E+03  0.00000000000E+00 0. -1.
<mgrwt>
<rscale>  0 0.63755104E+03</rscale>
<asrwt>0</asrwt>
<pdfrwt beam="1">0</pdfrwt>
<pdfrwt beam="2">  1        2 0.36952016E+00 0.63755104E+03</pdfrwt>
<totfact> 0.51703698E+00</totfact>
</mgrwt>
</event>
<event>
 5    1  0.2381755E-004  0.6580918E+03  0.7818608E-02  0.9791713E-01
         13   -1    0    0    0    0  0.00000000000E+00  0.00000000000E+00  0.10000000000E+04  0.10000000000E+04  0.00000000000E+00 0. -1.
          2   -1    0    0  501    0 -0.00000000000E+00 -0.00000000000E+00 -0.10827122041E+03  0.10827122041E+03  0.00000000000E+00 0. -1.
    9000006    2    1    2  501    0  0.00000000000E+00  0.00000000000E+00  0.89172877959E+03  0.11082712204E+04  0.65809184894E+03 0.  0.
         13    1    3    3    0    0 -0.16807950949E+03 -0.26465824821E+03  0.27765552607E+03  0.41879267068E+03  0.00000000000E+00 0. -1.
          2    1    3    3  501    0  0.16807950949E+03  0.26465824821E+03  0.61407325352E+03  0.68947854973E+03  0.00000000000E+00 0. -1.
<mgrwt>
<rscale>  0 0.65809185E+03</rscale>
<asrwt>0</asrwt>
<pdfrwt beam="1">0</pdfrwt>
<pdfrwt beam="2">  1        2 0.39371436E+00 0.65809185E+03</pdfrwt>
<totfact> 0.42017666E+00</totfact>
</mgrwt>
</event>
<event>
 5    1  0.2381755E-004  0.6818246E+03  0.7818608E-02  0.9748830E-01
         13   -1    0    0    0    0  0.00000000000E+00  0.00000000000E+00  0.10000000000E+04  0.10000000000E+04  0.00000000000E+00 0. -1.
          2   -1    0    0  501    0 -0.00000000000E+00 -0.00000000000E+00 -0.11622118686E+03  0.11622118686E+03  0.00000000000E+00 0. -1.
    9000006    2    1    2  501    0  0.00000000000E+00  0.00000000000E+00  0.88377881314E+03  0.11162211869E+04  0.68182457233E+03 0.  0.
         13    1    3    3    0    0  0.22661631284E+03  0.14693480129E+03  0.10132193521E+03  0.28846303686E+03  0.00000000000E+00 0. -1.
          2    1    3    3  501    0 -0.22661631284E+03 -0.14693480129E+03  0.78245687793E+03  0.82775815000E+03  0.00000000000E+00 0. -1.
<mgrwt>
<rscale>  0 0.68182457E+03</rscale>
<asrwt>0</asrwt>
<pdfrwt beam="1">0</pdfrwt>
<pdfrwt beam="2">  1        2 0.42262339E+00 0.68182457E+03</pdfrwt>
<totfact> 0.32607126E+00</totfact>
</mgrwt>
</event>
<event>
 5    1  0.2381755E-004  0.6458407E+03  0.7818608E-02  0.9814615E-01
         13   -1    0    0    0    0  0.00000000000E+00  0.00000000000E+00  0.10000000000E+04  0.10000000000E+04  0.00000000000E+00 0. -1.
          2   -1    0    0  501    0 -0.00000000000E+00 -0.00000000000E+00 -0.10427755739E+03  0.10427755739E+03  0.00000000000E+00 0. -1.
    9000006    2    1    2  501    0  0.00000000000E+00  0.00000000000E+00  0.89572244261E+03  0.11042775574E+04  0.64584071532E+03 0.  0.
         13    1    3    3    0    0  0.16472343271E+03 -0.20861342076E+03  0.13433148793E+03  0.29782262717E+03  0.00000000000E+00 0. -1.
          4    1    3    3  501    0 -0.16472343271E+03  0.20861342076E+03  0.76139095468E+03  0.80645493022E+03  0.00000000000E+00 0. -1.
<mgrwt>
<rscale>  0 0.64584072E+03</rscale>
<asrwt>0</asrwt>
<pdfrwt beam="1">0</pdfrwt>
<pdfrwt beam="2">  1        2 0.37919192E+00 0.64584072E+03</pdfrwt>
<totfact> 0.47611200E+00</totfact>
</mgrwt>
</event>
<event>
 5    1  0.2381755E-004  0.6448928E+03  0.7818608E-02  0.9816410E-01
         13   -1    0    0    0    0  0.00000000000E+00  0.00000000000E+00  0.10000000000E+04  0.10000000000E+04  0.00000000000E+00 0. -1.
          2   -1    0    0  501    0 -0.00000000000E+00 -0.00000000000E+00 -0.10397167235E+03  0.10397167235E+03  0.00000000000E+00 0. -1.
    9000006    2    1    2  501    0  0.00000000000E+00  0.00000000000E+00  0.89602832765E+03  0.11039716724E+04  0.64489277357E+03 0.  0.
         13    1    3    3    0    0  0.66230773685E+02 -0.19683897342E+03  0.87025818306E+03  0.89469626244E+03  0.00000000000E+00 0. -1.
          4    1    3    3  501    0 -0.66230773685E+02  0.19683897342E+03  0.25770144588E+02  0.20927540991E+03  0.00000000000E+00 0. -1.
<mgrwt>
<rscale>  0 0.64489277E+03</rscale>
<asrwt>0</asrwt>
<pdfrwt beam="1">0</pdfrwt>
<pdfrwt beam="2">  1        2 0.37807961E+00 0.64489277E+03</pdfrwt>
<totfact> 0.48066295E+00</totfact>
</mgrwt>
</event>
<event>
 5    1  0.2381755E-004  0.6514842E+03  0.7818608E-02  0.9803998E-01
         13   -1    0    0    0    0  0.00000000000E+00  0.00000000000E+00  0.10000000000E+04  0.10000000000E+04  0.00000000000E+00 0. -1.
          2   -1    0    0  501    0 -0.00000000000E+00 -0.00000000000E+00 -0.10610790826E+03  0.10610790826E+03  0.00000000000E+00 0. -1.
    9000006    2    1    2  501    0  0.00000000000E+00  0.00000000000E+00  0.89389209174E+03  0.11061079083E+04  0.65148417712E+03 0.  0.
         13    1    3    3    0    0 -0.31445754667E+03  0.30229193881E+02  0.31207230036E+03  0.44405683586E+03  0.00000000000E+00 0. -1.
          4    1    3    3  501    0  0.31445754667E+03 -0.30229193881E+02  0.58181979138E+03  0.66205107240E+03  0.00000000000E+00 0. -1.
<mgrwt>
<rscale>  0 0.65148418E+03</rscale>
<asrwt>0</asrwt>
<pdfrwt beam="1">0</pdfrwt>
<pdfrwt beam="2">  1        2 0.38584775E+00 0.65148418E+03</pdfrwt>
<totfact> 0.44968898E+00</totfact>
</mgrwt>
</event>
<event>
 5    1  0.2381755E-004  0.6385456E+03  0.7818608E-02  0.9828513E-01
         13   -1    0    0    0    0  0.00000000000E+00  0.00000000000E+00  0.10000000000E+04  0.10000000000E+04  0.00000000000E+00 0. -1.
          2   -1    0    0  501    0 -0.00000000000E+00 -0.00000000000E+00 -0.10193512926E+03  0.10193512926E+03  0.00000000000E+00 0. -1.
    9000006    2    1    2  501    0  0.00000000000E+00  0.00000000000E+00  0.89806487074E+03  0.11019351293E+04  0.63854562645E+03 0.  0.
         13    1    3    3    0    0  0.23631934613E+03  0.20694713489E+03  0.35048361493E+03  0.47065137238E+03  0.00000000000E+00 0. -1.
          2    1    3    3  501    0 -0.23631934613E+03 -0.20694713489E+03  0.54758125581E+03  0.63128375688E+03  0.00000000000E+00 0. -1.
<mgrwt>
<rscale>  0 0.63854563E+03</rscale>
<asrwt>0</asrwt>
<pdfrwt beam="1">0</pdfrwt>
<pdfrwt beam="2">  1        2 0.37067398E+00 0.63854563E+03</pdfrwt>
<totfact> 0.51199103E+00</totfact>
</mgrwt>
</event>
<event>
 5    1  0.2381755E-004  0.6339325E+03  0.7818608E-02  0.9837405E-01
         13   -1    0    0    0    0  0.00000000000E+00  0.00000000000E+00  0.10000000000E+04  0.10000000000E+04  0.00000000000E+00 0. -1.
          2   -1    0    0  501    0 -0.00000000000E+00 -0.00000000000E+00 -0.10046760920E+03  0.10046760920E+03  0.00000000000E+00 0. -1.
    9000006    2    1    2  501    0  0.00000000000E+00  0.00000000000E+00  0.89953239080E+03  0.11004676092E+04  0.63393251754E+03 0.  0.
         13    1    3    3    0    0 -0.22986205498E+03 -0.18316320128E+02  0.82729005848E+03  0.85882529817E+03  0.00000000000E+00 0. -1.
          2    1    3    3  501    0  0.22986205498E+03  0.18316320128E+02  0.72242332318E+02  0.24164231103E+03  0.00000000000E+00 0. -1.
<mgrwt>
<rscale>  0 0.63393252E+03</rscale>
<asrwt>0</asrwt>
<pdfrwt beam="1">0</pdfrwt>
<pdfrwt beam="2">  1        2 0.36533753E+00 0.63393252E+03</pdfrwt>
<totfact> 0.53571377E+00</totfact>
</mgrwt>
</event>
<event>
 5    1  0.2381755E-004  0.6422914E+03  0.7818608E-02  0.9821352E-01
         13   -1    0    0    0    0  0.00000000000E+00  0.00000000000E+00  0.10000000000E+04  0.10000000000E+04  0.00000000000E+00 0. -1.
          2   -1    0    0  501    0 -0.00000000000E+00 -0.00000000000E+00 -0.10313456688E+03  0.10313456688E+03  0.00000000000E+00 0. -1.
    9000006    2    1    2  501    0  0.00000000000E+00  0.00000000000E+00  0.89686543312E+03  0.11031345669E+04  0.64229141948E+03 0.  0.
         13    1    3    3    0    0  0.17090594345E+03  0.24433172262E+03  0.24356937489E+03  0.38501022398E+03  0.00000000000E+00 0. -1.
          2    1    3    3  501    0 -0.17090594345E+03 -0.24433172262E+03  0.65329605823E+03  0.71812434291E+03  0.00000000000E+00 0. -1.
<mgrwt>
<rscale>  0 0.64229142E+03</rscale>
<asrwt>0</asrwt>
<pdfrwt beam="1">0</pdfrwt>
<pdfrwt beam="2">  1        2 0.37503558E+00 0.64229142E+03</pdfrwt>
<totfact> 0.49332114E+00</totfact>
</mgrwt>
</event>
<event>
 5    1  0.2381755E-004  0.6485168E+03  0.7818608E-02  0.9809566E-01
         13   -1    0    0    0    0  0.00000000000E+00  0.00000000000E+00  0.10000000000E+04  0.10000000000E+04  0.00000000000E+00 0. -1.
          2   -1    0    0  501    0 -0.00000000000E+00 -0.00000000000E+00 -0.10514352547E+03  0.10514352547E+03  0.00000000000E+00 0. -1.
    9000006    2    1    2  501    0  0.00000000000E+00  0.00000000000E+00  0.89485647453E+03  0.11051435255E+04  0.64851684779E+03 0.  0.
         13    1    3    3    0    0  0.20781435918E+03 -0.75404159949E+02  0.43188067133E+02  0.22525053687E+03  0.00000000000E+00 0. -1.
          4    1    3    3  501    0 -0.20781435918E+03  0.75404159949E+02  0.85166840740E+03  0.87989298860E+03  0.00000000000E+00 0. -1.
<mgrwt>
<rscale>  0 0.64851685E+03</rscale>
<asrwt>0</asrwt>
<pdfrwt beam="1">0</pdfrwt>
<pdfrwt beam="2">  1        2 0.38234090E+00 0.64851685E+03</pdfrwt>
<totfact> 0.46343997E+00</totfact>
</mgrwt>
</event>
<event>
 5    1  0.2381755E-004  0.6365611E+03  0.7818608E-02  0.9832328E-01
         13   -1    0    0    0    0  0.00000000000E+00  0.00000000000E+00  0.10000000000E+04  0.10000000000E+04  0.00000000000E+00 0. -1.
          2   -1    0    0  501    0 -0.00000000000E+00 -0.00000000000E+00 -0.10130251231E+03  0.10130251231E+03  0.00000000000E+00 0. -1.
    9000006    2    1    2  501    0  0.00000000000E+00  0.00000000000E+00  0.89869748769E+03  0.11013025123E+04  0.63656111196E+03 0.  0.
         13    1    3    3    0    0 -0.26882937045E+03  0.82156250278E+02  0.70761015480E+03  0.76140069021E+03  0.00000000000E+00 0. -1.
          4    1    3    3  501    0  0.26882937045E+03 -0.82156250278E+02  0.19108733288E+03  0.33990182210E+03  0.00000000000E+00 0. -1.
<mgrwt>
<rscale>  0 0.63656111E+03</rscale>
<asrwt>0</asrwt>
<pdfrwt beam="1">0</pdfrwt>
<pdfrwt beam="2">  1        2 0.36837355E+00 0.63656111E+03</pdfrwt>
<totfact> 0.52209658E+00</totfact>
</mgrwt>
</event>
<event>
 5    1  0.2381755E-004  0.6627968E+03  0.7818608E-02  0.9783059E-01
         13   -1    0    0    0    0  0.00000000000E+00  0.00000000000E+00  0.10000000000E+04  0.10000000000E+04  0.00000000000E+00 0. -1.
          2   -1    0    0  501    0 -0.00000000000E+00 -0.00000000000E+00 -0.10982489492E+03  0.10982489492E+03  0.00000000000E+00 0. -1.
    9000006    2    1    2  501    0  0.00000000000E+00  0.00000000000E+00  0.89017510508E+03  0.11098248949E+04  0.66279678611E+03 0.  0.
         13    1    3    3    0    0  0.12339715681E+03 -0.14460430225E+03  0.89962678042E+03  0.91949203726E+03  0.00000000000E+00 0. -1.
          4    1    3    3  501    0 -0.12339715681E+03  0.14460430225E+03 -0.94516753412E+01  0.19033285766E+03  0.00000000000E+00 0. -1.
<mgrwt>
<rscale>  0 0.66279679E+03</rscale>
<asrwt>0</asrwt>
<pdfrwt beam="1">0</pdfrwt>
<pdfrwt beam="2">  1        2 0.39936410E+00 0.66279679E+03</pdfrwt>
<totfact> 0.40007334E+00</totfact>
</mgrwt>
</event>
<event>
 5    1  0.2381755E-004  0.6487702E+03  0.7818608E-02  0.9809090E-01
         13   -1    0    0    0    0  0.00000000000E+00  0.00000000000E+00  0.10000000000E+04  0.10000000000E+04  0.00000000000E+00 0. -1.
          2   -1    0    0  501    0 -0.00000000000E+00 -0.00000000000E+00 -0.10522569595E+03  0.10522569595E+03  0.00000000000E+00 0. -1.
    9000006    2    1    2  501    0  0.00000000000E+00  0.00000000000E+00  0.89477430405E+03  0.11052256959E+04  0.64877020877E+03 0.  0.
         13    1    3    3    0    0 -0.86825963266E+02  0.31102996618E+03  0.39495402969E+03  0.51016377109E+03  0.00000000000E+00 0. -1.
          2    1    3    3  501    0  0.86825963266E+02 -0.31102996618E+03  0.49982027436E+03  0.59506192486E+03  0.00000000000E+00 0. -1.
<mgrwt>
<rscale>  0 0.64877021E+03</rscale>
<asrwt>0</asrwt>
<pdfrwt beam="1">0</pdfrwt>
<pdfrwt beam="2">  1        2 0.38263970E+00 0.64877021E+03</pdfrwt>
<totfact> 0.46225362E+00</totfact>
</mgrwt>
</event>
<event>
 5    1  0.2381755E-004  0.6505649E+03  0.7818608E-02  0.9805720E-01
         13   -1    0    0    0    0  0.00000000000E+00  0.00000000000E+00  0.10000000000E+04  0.10000000000E+04  0.00000000000E+00 0. -1.
          2   -1    0    0  501    0 -0.00000000000E+00 -0.00000000000E+00 -0.10580868462E+03  0.10580868462E+03  0.00000000000E+00 0. -1.
    9000006    2    1    2  501    0  0.00000000000E+00  0.00000000000E+00  0.89419131538E+03  0.11058086846E+04  0.65056493795E+03 0.  0.
         13    1    3    3    0    0 -0.64596008030E+02 -0.31467011093E+03  0.36011206739E+03  0.48256670425E+03  0.00000000000E+00 0. -1.
          2    1    3    3  501    0  0.64596008030E+02  0.31467011093E+03  0.53407924799E+03  0.62324198037E+03  0.00000000000E+00 0. -1.
<mgrwt>
<rscale>  0 0.65056494E+03</rscale>
<asrwt>0</asrwt>
<pdfrwt beam="1">0</pdfrwt>
<pdfrwt beam="2">  1        2 0.38475966E+00 0.65056494E+03</pdfrwt>
<totfact> 0.45391542E+00</totfact>
</mgrwt>
</event>
<event>
 5    1  0.2381755E-004  0.6442159E+03  0.7818608E-02  0.9817693E-01
         13   -1    0    0    0    0  0.00000000000E+00  0.00000000000E+00  0.10000000000E+04  0.10000000000E+04  0.00000000000E+00 0. -1.
          2   -1    0    0  501    0 -0.00000000000E+00 -0.00000000000E+00 -0.10375354616E+03  0.10375354616E+03  0.00000000000E+00 0. -1.
    9000006    2    1    2  501    0  0.00000000000E+00  0.00000000000E+00  0.89624645384E+03  0.11037535462E+04  0.64421594567E+03 0.  0.
         13    1    3    3    0    0  0.10328795274E+03 -0.18650200488E+03  0.34425708035E+02  0.21595492210E+03  0.00000000000E+00 0. -1.
          4    1    3    3  501    0 -0.10328795274E+03  0.18650200488E+03  0.86182074580E+03  0.88779862407E+03  0.00000000000E+00 0. -1.
<mgrwt>
<rscale>  0 0.64421595E+03</rscale>
<asrwt>0</asrwt>
<pdfrwt beam="1">0</pdfrwt>
<pdfrwt beam="2">  1        2 0.37728642E+00 0.64421595E+03</pdfrwt>
<totfact> 0.48393240E+00</totfact>
</mgrwt>
</event>
<event>
 5    1  0.2381755E-004  0.6356430E+03  0.7818608E-02  0.9834098E-01
         13   -1    0    0    0    0  0.00000000000E+00  0.00000000000E+00  0.10000000000E+04  0.10000000000E+04  0.00000000000E+00 0. -1.
          2   -1    0    0  501    0 -0.00000000000E+00 -0.00000000000E+00 -0.10101051231E+03  0.10101051231E+03  0.00000000000E+00 0. -1.
    9000006    2    1    2  501    0  0.00000000000E+00  0.00000000000E+00  0.89898948769E+03  0.11010105123E+04  0.63564302027E+03 0.  0.
         13    1    3    3    0    0 -0.19142105276E+03 -0.25047886775E+03  0.37958849157E+03  0.49342588659E+03  0.00000000000E+00 0. -1.
          4    1    3    3  501    0  0.19142105276E+03  0.25047886775E+03  0.51940099613E+03  0.60758462572E+03  0.00000000000E+00 0. -1.
<mgrwt>
<rscale>  0 0.63564302E+03</rscale>
<asrwt>0</asrwt>
<pdfrwt beam="1">0</pdfrwt>
<pdfrwt beam="2">  1        2 0.36731173E+00 0.63564302E+03</pdfrwt>
<totfact> 0.52682249E+00</totfact>
</mgrwt>
</event>
<event>
 5    1  0.2381755E-004  0.6560269E+03  0.7818608E-02  0.9795535E-01
         13   -1    0    0    0    0  0.00000000000E+00  0.00000000000E+00  0.10000000000E+04  0.10000000000E+04  0.00000000000E+00 0. -1.
          2   -1    0    0  501    0 -0.00000000000E+00 -0.00000000000E+00 -0.10759282298E+03  0.10759282298E+03  0.00000000000E+00 0. -1.
    9000006    2    1    2  501    0  0.00000000000E+00  0.00000000000E+00  0.89240717702E+03  0.11075928230E+04  0.65602689878E+03 0.  0.
         13    1    3    3    0    0  0.18195419376E+03  0.15944787405E+03  0.72238953514E+02  0.25248647403E+03  0.00000000000E+00 0. -1.
          2    1    3    3  501    0 -0.18195419376E+03 -0.15944787405E+03  0.82016822351E+03  0.85510634895E+03  0.00000000000E+00 0. -1.
<mgrwt>
<rscale>  0 0.65602690E+03</rscale>
<asrwt>0</asrwt>
<pdfrwt beam="1">0</pdfrwt>
<pdfrwt beam="2">  1        2 0.39124745E+00 0.65602690E+03</pdfrwt>
<totfact> 0.42923733E+00</totfact>
</mgrwt>
</event>
<event>
 5    1  0.2381755E-004  0.6292243E+03  0.7818608E-02  0.9846564E-01
         13   -1    0    0    0    0  0.00000000000E+00  0.00000000000E+00  0.10000000000E+04  0.10000000000E+04  0.00000000000E+00 0. -1.
          2   -1    0    0  501    0 -0.00000000000E+00 -0.00000000000E+00 -0.98980809301E+02  0.98980809301E+02  0.00000000000E+00 0. -1.
    9000006    2    1    2  501    0  0.00000000000E+00  0.00000000000E+00  0.90101919070E+03  0.10989808093E+04  0.62922431390E+03 0.  0.
         13    1    3    3    0    0  0.24005568603E+03  0.15444354079E+03  0.68156673382E+03  0.73892675708E+03  0.00000000000E+00 0. -1.
          4    1    3    3  501    0 -0.24005568603E+03 -0.15444354079E+03  0.21945245688E+03  0.36005405222E+03  0.00000000000E+00 0. -1.
<mgrwt>
<rscale>  0 0.62922431E+03</rscale>
<asrwt>0</asrwt>
<pdfrwt beam="1">0</pdfrwt>
<pdfrwt beam="2">  1        2 0.35993097E+00 0.62922431E+03</pdfrwt>
<totfact> 0.56077564E+00</totfact>
</mgrwt>
</event>
<event>
 5    1  0.2381755E-004  0.6294455E+03  0.7818608E-02  0.9846131E-01
         13   -1    0    0    0    0  0.00000000000E+00  0.00000000000E+00  0.10000000000E+04  0.10000000000E+04  0.00000000000E+00 0. -1.
          2   -1    0    0  501    0 -0.00000000000E+00 -0.00000000000E+00 -0.99050421105E+02  0.99050421105E+02  0.00000000000E+00 0. -1.
    9000006    2    1    2  501    0  0.00000000000E+00  0.00000000000E+00  0.90094957889E+03  0.10990504211E+04  0.62944553730E+03 0.  0.
         13    1    3    3    0    0  0.39639429803E+02 -0.18466828033E+03  0.10908392648E+02  0.18918945845E+03  0.00000000000E+00 0. -1.
          4    1    3    3  501    0 -0.39639429803E+02  0.18466828033E+03  0.89004118625E+03  0.90986096266E+03  0.00000000000E+00 0. -1.
<mgrwt>
<rscale>  0 0.62944554E+03</rscale>
<asrwt>0</asrwt>
<pdfrwt beam="1">0</pdfrwt>
<pdfrwt beam="2">  1        2 0.36018411E+00 0.62944554E+03</pdfrwt>
<totfact> 0.55957852E+00</totfact>
</mgrwt>
</event>
<event>
 5    1  0.2381755E-004  0.6460176E+03  0.7818608E-02  0.9814281E-01
         13   -1    0    0    0    0  0.00000000000E+00  0.00000000000E+00  0.10000000000E+04  0.10000000000E+04  0.00000000000E+00 0. -1.
          2   -1    0    0  501    0 -0.00000000000E+00 -0.00000000000E+00 -0.10433469885E+03  0.10433469885E+03  0.00000000000E+00 0. -1.
    9000006    2    1    2  501    0  0.00000000000E+00  0.00000000000E+00  0.89566530115E+03  0.11043346988E+04  0.64601764324E+03 0.  0.
         13    1    3    3    0    0 -0.58697530084E+02  0.14201921506E+03 -0.37843177083E+02  0.15826232507E+03  0.00000000000E+00 0. -1.
          2    1    3    3  501    0  0.58697530084E+02 -0.14201921506E+03  0.93350847824E+03  0.94607237378E+03  0.00000000000E+00 0. -1.
<mgrwt>
<rscale>  0 0.64601764E+03</rscale>
<asrwt>0</asrwt>
<pdfrwt beam="1">0</pdfrwt>
<pdfrwt beam="2">  1        2 0.37939970E+00 0.64601764E+03</pdfrwt>
<totfact> 0.47526621E+00</totfact>
</mgrwt>
</event>
<event>
 5    1  0.2381755E-004  0.6621423E+03  0.7818608E-02  0.9784258E-01
         13   -1    0    0    0    0  0.00000000000E+00  0.00000000000E+00  0.10000000000E+04  0.10000000000E+04  0.00000000000E+00 0. -1.
          2   -1    0    0  501    0 -0.00000000000E+00 -0.00000000000E+00 -0.10960812030E+03  0.10960812030E+03  0.00000000000E+00 0. -1.
    9000006    2    1    2  501    0  0.00000000000E+00  0.00000000000E+00  0.89039187970E+03  0.11096081203E+04  0.66214234210E+03 0.  0.
         13    1    3    3    0    0 -0.21144714160E+03  0.25240758914E+03  0.38742058472E+03  0.50844291146E+03  0.00000000000E+00 0. -1.
          2    1    3    3  501    0  0.21144714160E+03 -0.25240758914E+03  0.50297129498E+03  0.60116520884E+03  0.00000000000E+00 0. -1.
<mgrwt>
<rscale>  0 0.66214234E+03</rscale>
<asrwt>0</asrwt>
<pdfrwt beam="1">0</pdfrwt>
<pdfrwt beam="2">  1        2 0.39857582E+00 0.66214234E+03</pdfrwt>
<totfact> 0.40282525E+00</totfact>
</mgrwt>
</event>
<event>
 5    1  0.2381755E-004  0.6611696E+03  0.7818608E-02  0.9786043E-01
         13   -1    0    0    0    0  0.00000000000E+00  0.00000000000E+00  0.10000000000E+04  0.10000000000E+04  0.00000000000E+00 0. -1.
          2   -1    0    0  501    0 -0.00000000000E+00 -0.00000000000E+00 -0.10928629945E+03  0.10928629945E+03  0.00000000000E+00 0. -1.
    9000006    2    1    2  501    0  0.00000000000E+00  0.00000000000E+00  0.89071370055E+03  0.11092862994E+04  0.66116956810E+03 0.  0.
         13    1    3    3    0    0  0.16239735795E+03 -0.27586073739E+03  0.30686001137E+03  0.44343558143E+03  0.00000000000E+00 0. -1.
          4    1    3    3  501    0 -0.16239735795E+03  0.27586073739E+03  0.58385368919E+03  0.66585071801E+03  0.00000000000E+00 0. -1.
<mgrwt>
<rscale>  0 0.66116957E+03</rscale>
<asrwt>0</asrwt>
<pdfrwt beam="1">0</pdfrwt>
<pdfrwt beam="2">  1        2 0.39740556E+00 0.66116957E+03</pdfrwt>
<totfact> 0.40694209E+00</totfact>
</mgrwt>
</event>
<event>
 5    1  0.2381755E-004  0.6444364E+03  0.7818608E-02  0.9817275E-01
         13   -1    0    0    0    0  0.00000000000E+00  0.00000000000E+00  0.10000000000E+04  0.10000000000E+04  0.00000000000E+00 0. -1.
          2   -1    0    0  501    0 -0.00000000000E+00 -0.00000000000E+00 -0.10382456376E+03  0.10382456376E+03  0.00000000000E+00 0. -1.
    9000006    2    1    2  501    0  0.00000000000E+00  0.00000000000E+00  0.89617543624E+03  0.11038245638E+04  0.64443638555E+03 0.  0.
         13    1    3    3    0    0  0.16552064039E+03  0.59611405725E+01 -0.25329215698E+02  0.16755353401E+03  0.00000000000E+00 0. -1.
          4    1    3    3  501    0 -0.16552064039E+03 -0.59611405725E+01  0.92150465194E+03  0.93627102975E+03  0.00000000000E+00 0. -1.
<mgrwt>
<rscale>  0 0.64443639E+03</rscale>
<asrwt>0</asrwt>
<pdfrwt beam="1">0</pdfrwt>
<pdfrwt beam="2">  1        2 0.37754466E+00 0.64443639E+03</pdfrwt>
<totfact> 0.48286572E+00</totfact>
</mgrwt>
</event>
<event>
 5    1  0.2381755E-004  0.6570259E+03  0.7818608E-02  0.9793684E-01
         13   -1    0    0    0    0  0.00000000000E+00  0.00000000000E+00  0.10000000000E+04  0.10000000000E+04  0.00000000000E+00 0. -1.
          2   -1    0    0  501    0 -0.00000000000E+00 -0.00000000000E+00 -0.10792076093E+03  0.10792076093E+03  0.00000000000E+00 0. -1.
    9000006    2    1    2  501    0  0.00000000000E+00  0.00000000000E+00  0.89207923907E+03  0.11079207609E+04  0.65702590794E+03 0.  0.
         13    1    3    3    0    0  0.21525961657E+03 -0.23378030014E+03  0.58642400922E+03  0.66699553960E+03  0.00000000000E+00 0. -1.
          4    1    3    3  501    0 -0.21525961657E+03  0.23378030014E+03  0.30565522986E+03  0.44092522132E+03  0.00000000000E+00 0. -1.
<mgrwt>
<rscale>  0 0.65702591E+03</rscale>
<asrwt>0</asrwt>
<pdfrwt beam="1">0</pdfrwt>
<pdfrwt beam="2">  1        2 0.39243996E+00 0.65702591E+03</pdfrwt>
<totfact> 0.42483561E+00</totfact>
</mgrwt>
</event>
<event>
 5    1  0.2381755E-004  0.6486000E+03  0.7818608E-02  0.9809410E-01
         13   -1    0    0    0    0  0.00000000000E+00  0.00000000000E+00  0.10000000000E+04  0.10000000000E+04  0.00000000000E+00 0. -1.
          2   -1    0    0  501    0 -0.00000000000E+00 -0.00000000000E+00 -0.10517050607E+03  0.10517050607E+03  0.00000000000E+00 0. -1.
    9000006    2    1    2  501    0  0.00000000000E+00  0.00000000000E+00  0.89482949393E+03  0.11051705061E+04  0.64860004956E+03 0.  0.
         13    1    3    3    0    0 -0.67541004989E+02  0.60691920806E+02 -0.83067290439E+02  0.12306693848E+03  0.00000000000E+00 0. -1.
          2    1    3    3  501    0  0.67541004989E+02 -0.60691920806E+02  0.97789678437E+03  0.98210356759E+03  0.00000000000E+00 0. -1.
<mgrwt>
<rscale>  0 0.64860005E+03</rscale>
<asrwt>0</asrwt>
<pdfrwt beam="1">0</pdfrwt>
<pdfrwt beam="2">  1        2 0.38243901E+00 0.64860005E+03</pdfrwt>
<totfact> 0.46305013E+00</totfact>
</mgrwt>
</event>
<event>
 5    1  0.2381755E-004  0.8047367E+03  0.7818608E-02  0.9553186E-01
         13   -1    0    0    0    0  0.00000000000E+00  0.00000000000E+00  0.10000000000E+04  0.10000000000E+04  0.00000000000E+00 0. -1.
          2   -1    0    0  501    0 -0.00000000000E+00 -0.00000000000E+00 -0.16190030205E+03  0.16190030205E+03  0.00000000000E+00 0. -1.
    9000006    2    1    2  501    0  0.00000000000E+00  0.00000000000E+00  0.83809969795E+03  0.11619003020E+04  0.80473673222E+03 0.  0.
         13    1    3    3    0    0 -0.20845849957E+03 -0.19602606024E+03  0.82747452989E+03  0.87555425871E+03  0.00000000000E+00 0. -1.
          2    1    3    3  501    0  0.20845849957E+03  0.19602606024E+03  0.10625168068E+02  0.28634604334E+03  0.00000000000E+00 0. -1.
<mgrwt>
<rscale>  0 0.80473673E+03</rscale>
<asrwt>0</asrwt>
<pdfrwt beam="1">0</pdfrwt>
<pdfrwt beam="2">  1        2 0.58872961E+00 0.80473673E+03</pdfrwt>
<totfact> 0.62614931E-01</totfact>
</mgrwt>
</event>
<event>
 5    1  0.2381755E-004  0.7013434E+03  0.7818608E-02  0.9714938E-01
         13   -1    0    0    0    0  0.00000000000E+00  0.00000000000E+00  0.10000000000E+04  0.10000000000E+04  0.00000000000E+00 0. -1.
          2   -1    0    0  501    0 -0.00000000000E+00 -0.00000000000E+00 -0.12297063420E+03  0.12297063420E+03  0.00000000000E+00 0. -1.
    9000006    2    1    2  501    0  0.00000000000E+00  0.00000000000E+00  0.87702936580E+03  0.11229706342E+04  0.70134338010E+03 0.  0.
         13    1    3    3    0    0  0.78465877801E+01 -0.22203754132E+03  0.41031234372E+01  0.22221402818E+03  0.00000000000E+00 0. -1.
          4    1    3    3  501    0 -0.78465877801E+01  0.22203754132E+03  0.87292624236E+03  0.90075660602E+03  0.00000000000E+00 0. -1.
<mgrwt>
<rscale>  0 0.70134338E+03</rscale>
<asrwt>0</asrwt>
<pdfrwt beam="1">0</pdfrwt>
<pdfrwt beam="2">  1        2 0.44716689E+00 0.70134338E+03</pdfrwt>
<totfact> 0.26138688E+00</totfact>
</mgrwt>
</event>
<event>
 5    1  0.2381755E-004  0.6723895E+03  0.7818608E-02  0.9765651E-01
         13   -1    0    0    0    0  0.00000000000E+00  0.00000000000E+00  0.10000000000E+04  0.10000000000E+04  0.00000000000E+00 0. -1.
          2   -1    0    0  501    0 -0.00000000000E+00 -0.00000000000E+00 -0.11302691383E+03  0.11302691383E+03  0.00000000000E+00 0. -1.
    9000006    2    1    2  501    0  0.00000000000E+00  0.00000000000E+00  0.88697308617E+03  0.11130269138E+04  0.67238951162E+03 0.  0.
         13    1    3    3    0    0 -0.26404599644E+03 -0.42468067093E+02  0.78071556724E+03  0.82525185361E+03  0.00000000000E+00 0. -1.
          4    1    3    3  501    0  0.26404599644E+03  0.42468067093E+02  0.10625751892E+03  0.28777506022E+03  0.00000000000E+00 0. -1.
<mgrwt>
<rscale>  0 0.67238951E+03</rscale>
<asrwt>0</asrwt>
<pdfrwt beam="1">0</pdfrwt>
<pdfrwt beam="2">  1        2 0.41100783E+00 0.67238951E+03</pdfrwt>
<totfact> 0.36134003E+00</totfact>
</mgrwt>
</event>
<event>
 5    1  0.2381755E-004  0.7128968E+03  0.7818608E-02  0.9695428E-01
         13   -1    0    0    0    0  0.00000000000E+00  0.00000000000E+00  0.10000000000E+04  0.10000000000E+04  0.00000000000E+00 0. -1.
          2   -1    0    0  501    0 -0.00000000000E+00 -0.00000000000E+00 -0.12705546796E+03  0.12705546796E+03  0.00000000000E+00 0. -1.
    9000006    2    1    2  501    0  0.00000000000E+00  0.00000000000E+00  0.87294453204E+03  0.11270554680E+04  0.71289681710E+03 0.  0.
         13    1    3    3    0    0  0.21276754218E+03  0.67407728849E+02  0.87585638423E+03  0.90384635570E+03  0.00000000000E+00 0. -1.
          4    1    3    3  501    0 -0.21276754218E+03 -0.67407728849E+02 -0.29118521878E+01  0.22320911226E+03  0.00000000000E+00 0. -1.
<mgrwt>
<rscale>  0 0.71289682E+03</rscale>
<asrwt>0</asrwt>
<pdfrwt beam="1">0</pdfrwt>
<pdfrwt beam="2">  1        2 0.46202086E+00 0.71289682E+03</pdfrwt>
<totfact> 0.22796322E+00</totfact>
</mgrwt>
</event>
<event>
 5    1  0.2381755E-004  0.6637435E+03  0.7818608E-02  0.9781327E-01
         13   -1    0    0    0    0  0.00000000000E+00  0.00000000000E+00  0.10000000000E+04  0.10000000000E+04  0.00000000000E+00 0. -1.
          2   -1    0    0  501    0 -0.00000000000E+00 -0.00000000000E+00 -0.11013885655E+03  0.11013885655E+03  0.00000000000E+00 0. -1.
    9000006    2    1    2  501    0  0.00000000000E+00  0.00000000000E+00  0.88986114345E+03  0.11101388566E+04  0.66374349429E+03 0.  0.
         13    1    3    3    0    0  0.30104112709E+03 -0.80503182120E+02  0.25399443647E+03  0.40201952227E+03  0.00000000000E+00 0. -1.
          4    1    3    3  501    0 -0.30104112709E+03  0.80503182120E+02  0.63586670698E+03  0.70811933428E+03  0.00000000000E+00 0. -1.
<mgrwt>
<rscale>  0 0.66374349E+03</rscale>
<asrwt>0</asrwt>
<pdfrwt beam="1">0</pdfrwt>
<pdfrwt beam="2">  1        2 0.40050578E+00 0.66374349E+03</pdfrwt>
<totfact> 0.39611759E+00</totfact>
</mgrwt>
</event>
<event>
 5    1  0.2381755E-004  0.6464028E+03  0.7818608E-02  0.9813553E-01
         13   -1    0    0    0    0  0.00000000000E+00  0.00000000000E+00  0.10000000000E+04  0.10000000000E+04  0.00000000000E+00 0. -1.
          2   -1    0    0  501    0 -0.00000000000E+00 -0.00000000000E+00 -0.10445913678E+03  0.10445913678E+03  0.00000000000E+00 0. -1.
    9000006    2    1    2  501    0  0.00000000000E+00  0.00000000000E+00  0.89554086322E+03  0.11044591368E+04  0.64640277470E+03 0.  0.
         13    1    3    3    0    0  0.60875045811E+02 -0.13248107694E+03 -0.45078321495E+02  0.15260754247E+03  0.00000000000E+00 0. -1.
          4    1    3    3  501    0 -0.60875045811E+02  0.13248107694E+03  0.94061918471E+03  0.95185159431E+03  0.00000000000E+00 0. -1.
<mgrwt>
<rscale>  0 0.64640277E+03</rscale>
<asrwt>0</asrwt>
<pdfrwt beam="1">0</pdfrwt>
<pdfrwt beam="2">  1        2 0.37985221E+00 0.64640277E+03</pdfrwt>
<totfact> 0.47342906E+00</totfact>
</mgrwt>
</event>
<event>
 5    1  0.2381755E-004  0.6732773E+03  0.7818608E-02  0.9764055E-01
         13   -1    0    0    0    0  0.00000000000E+00  0.00000000000E+00  0.10000000000E+04  0.10000000000E+04  0.00000000000E+00 0. -1.
          2   -1    0    0  501    0 -0.00000000000E+00 -0.00000000000E+00 -0.11332557771E+03  0.11332557771E+03  0.00000000000E+00 0. -1.
    9000006    2    1    2  501    0  0.00000000000E+00  0.00000000000E+00  0.88667442229E+03  0.11133255777E+04  0.67327729118E+03 0.  0.
         13    1    3    3    0    0 -0.28045985860E+03 -0.16389930908E+03  0.29725045963E+03  0.44031642207E+03  0.00000000000E+00 0. -1.
          4    1    3    3  501    0  0.28045985860E+03  0.16389930908E+03  0.58942396267E+03  0.67300915563E+03  0.00000000000E+00 0. -1.
<mgrwt>
<rscale>  0 0.67327729E+03</rscale>
<asrwt>0</asrwt>
<pdfrwt beam="1">0</pdfrwt>
<pdfrwt beam="2">  1        2 0.41209388E+00 0.67327729E+03</pdfrwt>
<totfact> 0.35790411E+00</totfact>
</mgrwt>
</event>
<event>
 5    1  0.2381755E-004  0.6527577E+03  0.7818608E-02  0.9801618E-01
         13   -1    0    0    0    0  0.00000000000E+00  0.00000000000E+00  0.10000000000E+04  0.10000000000E+04  0.00000000000E+00 0. -1.
          2   -1    0    0  501    0 -0.00000000000E+00 -0.00000000000E+00 -0.10652314002E+03  0.10652314002E+03  0.00000000000E+00 0. -1.
    9000006    2    1    2  501    0  0.00000000000E+00  0.00000000000E+00  0.89347685998E+03  0.11065231400E+04  0.65275765800E+03 0.  0.
         13    1    3    3    0    0  0.26975936185E+02  0.28985801943E+03  0.19657996523E+03  0.35126778288E+03  0.00000000000E+00 0. -1.
          2    1    3    3  501    0 -0.26975936185E+02 -0.28985801943E+03  0.69689689475E+03  0.75525535713E+03  0.00000000000E+00 0. -1.
<mgrwt>
<rscale>  0 0.65275766E+03</rscale>
<asrwt>0</asrwt>
<pdfrwt beam="1">0</pdfrwt>
<pdfrwt beam="2">  1        2 0.38735769E+00 0.65275766E+03</pdfrwt>
<totfact> 0.44388302E+00</totfact>
</mgrwt>
</event>
<event>
 5    1  0.2381755E-004  0.5917752E+03  0.7818608E-02  0.9922618E-01
         13   -1    0    0    0    0  0.00000000000E+00  0.00000000000E+00  0.10000000000E+04  0.10000000000E+04  0.00000000000E+00 0. -1.
          2   -1    0    0  501    0 -0.00000000000E+00 -0.00000000000E+00 -0.87549463177E+02  0.87549463177E+02  0.00000000000E+00 0. -1.
    9000006    2    1    2  501    0  0.00000000000E+00  0.00000000000E+00  0.91245053682E+03  0.10875494632E+04  0.59177517074E+03 0.  0.
         13    1    3    3    0    0  0.48440324613E+02 -0.28372656867E+03  0.33020386204E+03  0.43804317290E+03  0.00000000000E+00 0. -1.
          4    1    3    3  501    0 -0.48440324613E+02  0.28372656867E+03  0.58224667478E+03  0.64950629028E+03  0.00000000000E+00 0. -1.
<mgrwt>
<rscale>  0 0.59177517E+03</rscale>
<asrwt>0</asrwt>
<pdfrwt beam="1">0</pdfrwt>
<pdfrwt beam="2">  1        2 0.31836236E+00 0.59177517E+03</pdfrwt>
<totfact> 0.79341224E+00</totfact>
</mgrwt>
</event>
<event>
 5    1  0.2381755E-004  0.6544230E+03  0.7818608E-02  0.9798515E-01
         13   -1    0    0    0    0  0.00000000000E+00  0.00000000000E+00  0.10000000000E+04  0.10000000000E+04  0.00000000000E+00 0. -1.
          2   -1    0    0  501    0 -0.00000000000E+00 -0.00000000000E+00 -0.10706737156E+03  0.10706737156E+03  0.00000000000E+00 0. -1.
    9000006    2    1    2  501    0  0.00000000000E+00  0.00000000000E+00  0.89293262844E+03  0.11070673716E+04  0.65442301782E+03 0.  0.
         13    1    3    3    0    0  0.74014849845E+02 -0.30047281817E+03  0.26659755240E+03  0.40845607769E+03  0.00000000000E+00 0. -1.
          2    1    3    3  501    0 -0.74014849845E+02  0.30047281817E+03  0.62633507603E+03  0.69861129387E+03  0.00000000000E+00 0. -1.
<mgrwt>
<rscale>  0 0.65442302E+03</rscale>
<asrwt>0</asrwt>
<pdfrwt beam="1">0</pdfrwt>
<pdfrwt beam="2">  1        2 0.38933672E+00 0.65442302E+03</pdfrwt>
<totfact> 0.43637610E+00</totfact>
</mgrwt>
</event>
<event>
 5    1  0.2381755E-004  0.6645358E+03  0.7818608E-02  0.9779880E-01
         13   -1    0    0    0    0  0.00000000000E+00  0.00000000000E+00  0.10000000000E+04  0.10000000000E+04  0.00000000000E+00 0. -1.
          2   -1    0    0  501    0 -0.00000000000E+00 -0.00000000000E+00 -0.11040194540E+03  0.11040194540E+03  0.00000000000E+00 0. -1.
    9000006    2    1    2  501    0  0.00000000000E+00  0.00000000000E+00  0.88959805460E+03  0.11104019454E+04  0.66453576397E+03 0.  0.
         13    1    3    3    0    0 -0.19098131883E+03 -0.22398536029E+02 -0.79817015482E+01  0.19245588097E+03  0.00000000000E+00 0. -1.
          4    1    3    3  501    0  0.19098131883E+03  0.22398536029E+02  0.89757975615E+03  0.91794606443E+03  0.00000000000E+00 0. -1.
<mgrwt>
<rscale>  0 0.66453576E+03</rscale>
<asrwt>0</asrwt>
<pdfrwt beam="1">0</pdfrwt>
<pdfrwt beam="2">  1        2 0.40146247E+00 0.66453576E+03</pdfrwt>
<totfact> 0.39282988E+00</totfact>
</mgrwt>
</event>
<event>
 5    1  0.2381755E-004  0.6459461E+03  0.7818608E-02  0.9814416E-01
         13   -1    0    0    0    0  0.00000000000E+00  0.00000000000E+00  0.10000000000E+04  0.10000000000E+04  0.00000000000E+00 0. -1.
          2   -1    0    0  501    0 -0.00000000000E+00 -0.00000000000E+00 -0.10431160599E+03  0.10431160599E+03  0.00000000000E+00 0. -1.
    9000006    2    1    2  501    0  0.00000000000E+00  0.00000000000E+00  0.89568839401E+03  0.11043116060E+04  0.64594614634E+03 0.  0.
         13    1    3    3    0    0 -0.95223840636E+02  0.95980937466E+02  0.94929062433E+03  0.95887048637E+03  0.00000000000E+00 0. -1.
          4    1    3    3  501    0  0.95223840636E+02 -0.95980937466E+02 -0.53602230323E+02  0.14544111963E+03  0.00000000000E+00 0. -1.
<mgrwt>
<rscale>  0 0.64594615E+03</rscale>
<asrwt>0</asrwt>
<pdfrwt beam="1">0</pdfrwt>
<pdfrwt beam="2">  1        2 0.37931573E+00 0.64594615E+03</pdfrwt>
<totfact> 0.47560786E+00</totfact>
</mgrwt>
</event>
<event>
 5    1  0.2381755E-004  0.6513731E+03  0.7818608E-02  0.9804206E-01
         13   -1    0    0    0    0  0.00000000000E+00  0.00000000000E+00  0.10000000000E+04  0.10000000000E+04  0.00000000000E+00 0. -1.
          2   -1    0    0  501    0 -0.00000000000E+00 -0.00000000000E+00 -0.10607173602E+03  0.10607173602E+03  0.00000000000E+00 0. -1.
    9000006    2    1    2  501    0  0.00000000000E+00  0.00000000000E+00  0.89392826398E+03  0.11060717360E+04  0.65137312200E+03 0.  0.
         13    1    3    3    0    0 -0.23574773882E+03  0.22038811633E+03  0.52144340599E+03  0.61323009044E+03  0.00000000000E+00 0. -1.
          2    1    3    3  501    0  0.23574773882E+03 -0.22038811633E+03  0.37248485800E+03  0.49284164558E+03  0.00000000000E+00 0. -1.
<mgrwt>
<rscale>  0 0.65137312E+03</rscale>
<asrwt>0</asrwt>
<pdfrwt beam="1">0</pdfrwt>
<pdfrwt beam="2">  1        2 0.38571622E+00 0.65137312E+03</pdfrwt>
<totfact> 0.45019800E+00</totfact>
</mgrwt>
</event>
<event>
 5    1  0.2381755E-004  0.6483844E+03  0.7818608E-02  0.9809815E-01
         13   -1    0    0    0    0  0.00000000000E+00  0.00000000000E+00  0.10000000000E+04  0.10000000000E+04  0.00000000000E+00 0. -1.
          2   -1    0    0  501    0 -0.00000000000E+00 -0.00000000000E+00 -0.10510059372E+03  0.10510059372E+03  0.00000000000E+00 0. -1.
    9000006    2    1    2  501    0  0.00000000000E+00  0.00000000000E+00  0.89489940628E+03  0.11051005937E+04  0.64838443448E+03 0.  0.
         13    1    3    3    0    0  0.28144774035E+03 -0.72803189881E+02  0.69200135603E+03  0.75058577907E+03  0.00000000000E+00 0. -1.
          4    1    3    3  501    0 -0.28144774035E+03  0.72803189881E+02  0.20289805025E+03  0.35451481465E+03  0.00000000000E+00 0. -1.
<mgrwt>
<rscale>  0 0.64838443E+03</rscale>
<asrwt>0</asrwt>
<pdfrwt beam="1">0</pdfrwt>
<pdfrwt beam="2">  1        2 0.38218478E+00 0.64838443E+03</pdfrwt>
<totfact> 0.46406091E+00</totfact>
</mgrwt>
</event>
<event>
 5    1  0.2381755E-004  0.6957584E+03  0.7818608E-02  0.9724514E-01
         13   -1    0    0    0    0  0.00000000000E+00  0.00000000000E+00  0.10000000000E+04  0.10000000000E+04  0.00000000000E+00 0. -1.
          2   -1    0    0  501    0 -0.00000000000E+00 -0.00000000000E+00 -0.12101992188E+03  0.12101992188E+03  0.00000000000E+00 0. -1.
    9000006    2    1    2  501    0  0.00000000000E+00  0.00000000000E+00  0.87898007812E+03  0.11210199219E+04  0.69575835427E+03 0.  0.
         13    1    3    3    0    0 -0.16091246373E+03  0.27045778310E+03  0.20061780736E+03  0.37321272494E+03  0.00000000000E+00 0. -1.
          4    1    3    3  501    0  0.16091246373E+03 -0.27045778310E+03  0.67836227076E+03  0.74780719695E+03  0.00000000000E+00 0. -1.
<mgrwt>
<rscale>  0 0.69575835E+03</rscale>
<asrwt>0</asrwt>
<pdfrwt beam="1">0</pdfrwt>
<pdfrwt beam="2">  1        2 0.44007337E+00 0.69575835E+03</pdfrwt>
<totfact> 0.27880576E+00</totfact>
</mgrwt>
</event>
<event>
 5    1  0.2381755E-004  0.6558051E+03  0.7818608E-02  0.9795947E-01
         13   -1    0    0    0    0  0.00000000000E+00  0.00000000000E+00  0.10000000000E+04  0.10000000000E+04  0.00000000000E+00 0. -1.
          2   -1    0    0  501    0 -0.00000000000E+00 -0.00000000000E+00 -0.10752008174E+03  0.10752008174E+03  0.00000000000E+00 0. -1.
    9000006    2    1    2  501    0  0.00000000000E+00  0.00000000000E+00  0.89247991826E+03  0.11075200817E+04  0.65580509830E+03 0.  0.
         13    1    3    3    0    0  0.30746874309E+03  0.53519247163E+02  0.27636079157E+03  0.41686523591E+03  0.00000000000E+00 0. -1.
          4    1    3    3  501    0 -0.30746874309E+03 -0.53519247163E+02  0.61611912669E+03  0.69065484583E+03  0.00000000000E+00 0. -1.
<mgrwt>
<rscale>  0 0.65580510E+03</rscale>
<asrwt>0</asrwt>
<pdfrwt beam="1">0</pdfrwt>
<pdfrwt beam="2">  1        2 0.39098294E+00 0.65580510E+03</pdfrwt>
<totfact> 0.43021926E+00</totfact>
</mgrwt>
</event>
<event>
 5    1  0.2381755E-004  0.4932138E+03  0.7818608E-02  0.1015566E+00
         13   -1    0    0    0    0  0.00000000000E+00  0.00000000000E+00  0.10000000000E+04  0.10000000000E+04  0.00000000000E+00 0. -1.
          2   -1    0    0  501    0 -0.00000000000E+00 -0.00000000000E+00 -0.60814962879E+02  0.60814962879E+02  0.00000000000E+00 0. -1.
    9000006    2    1    2  501    0  0.00000000000E+00  0.00000000000E+00  0.93918503712E+03  0.10608149629E+04  0.49321379899E+03 0.  0.
         13    1    3    3    0    0 -0.64264127906E+01 -0.95294748905E+02  0.95860337528E+03  0.96334979060E+03  0.00000000000E+00 0. -1.
          2    1    3    3  501    0  0.64264127906E+01  0.95294748905E+02 -0.19418338161E+02  0.97465172278E+02  0.00000000000E+00 0. -1.
<mgrwt>
<rscale>  0 0.49321380E+03</rscale>
<asrwt>0</asrwt>
<pdfrwt beam="1">0</pdfrwt>
<pdfrwt beam="2">  1        2 0.22114579E+00 0.49321380E+03</pdfrwt>
<totfact> 0.17736656E+01</totfact>
</mgrwt>
</event>
<event>
 5    1  0.2381755E-004  0.6761178E+03  0.7818608E-02  0.9758969E-01
         13   -1    0    0    0    0  0.00000000000E+00  0.00000000000E+00  0.10000000000E+04  0.10000000000E+04  0.00000000000E+00 0. -1.
          2   -1    0    0  501    0 -0.00000000000E+00 -0.00000000000E+00 -0.11428380402E+03  0.11428380402E+03  0.00000000000E+00 0. -1.
    9000006    2    1    2  501    0  0.00000000000E+00  0.00000000000E+00  0.88571619598E+03  0.11142838040E+04  0.67611775311E+03 0.  0.
         13    1    3    3    0    0  0.20014813235E+03  0.14658537406E+03  0.64387411219E+02  0.25630506334E+03  0.00000000000E+00 0. -1.
          2    1    3    3  501    0 -0.20014813235E+03 -0.14658537406E+03  0.82132878476E+03  0.85797874068E+03  0.00000000000E+00 0. -1.
<mgrwt>
<rscale>  0 0.67611775E+03</rscale>
<asrwt>0</asrwt>
<pdfrwt beam="1">0</pdfrwt>
<pdfrwt beam="2">  1        2 0.41557835E+00 0.67611775E+03</pdfrwt>
<totfact> 0.34707689E+00</totfact>
</mgrwt>
</event>
<event>
 5    1  0.2381755E-004  0.6502302E+03  0.7818608E-02  0.9806347E-01
         13   -1    0    0    0    0  0.00000000000E+00  0.00000000000E+00  0.10000000000E+04  0.10000000000E+04  0.00000000000E+00 0. -1.
          2   -1    0    0  501    0 -0.00000000000E+00 -0.00000000000E+00 -0.10569981420E+03  0.10569981420E+03  0.00000000000E+00 0. -1.
    9000006    2    1    2  501    0  0.00000000000E+00  0.00000000000E+00  0.89430018580E+03  0.11056998142E+04  0.65023015679E+03 0.  0.
         13    1    3    3    0    0  0.19772035881E+03  0.91135128451E+02  0.85773938402E+03  0.88493830453E+03  0.00000000000E+00 0. -1.
          2    1    3    3  501    0 -0.19772035881E+03 -0.91135128451E+02  0.36560801779E+02  0.22076150967E+03  0.00000000000E+00 0. -1.
<mgrwt>
<rscale>  0 0.65023016E+03</rscale>
<asrwt>0</asrwt>
<pdfrwt beam="1">0</pdfrwt>
<pdfrwt beam="2">  1        2 0.38436377E+00 0.65023016E+03</pdfrwt>
<totfact> 0.45546210E+00</totfact>
</mgrwt>
</event>
<event>
 5    1  0.2381755E-004  0.6484023E+03  0.7818608E-02  0.9809782E-01
         13   -1    0    0    0    0  0.00000000000E+00  0.00000000000E+00  0.10000000000E+04  0.10000000000E+04  0.00000000000E+00 0. -1.
          2   -1    0    0  501    0 -0.00000000000E+00 -0.00000000000E+00 -0.10510637756E+03  0.10510637756E+03  0.00000000000E+00 0. -1.
    9000006    2    1    2  501    0  0.00000000000E+00  0.00000000000E+00  0.89489362244E+03  0.11051063776E+04  0.64840227502E+03 0.  0.
         13    1    3    3    0    0 -0.18111503728E+03  0.60113621312E+02  0.75648691903E+00  0.19083206352E+03  0.00000000000E+00 0. -1.
          4    1    3    3  501    0  0.18111503728E+03 -0.60113621312E+02  0.89413713552E+03  0.91427431404E+03  0.00000000000E+00 0. -1.
<mgrwt>
<rscale>  0 0.64840228E+03</rscale>
<asrwt>0</asrwt>
<pdfrwt beam="1">0</pdfrwt>
<pdfrwt beam="2">  1        2 0.38220582E+00 0.64840228E+03</pdfrwt>
<totfact> 0.46397721E+00</totfact>
</mgrwt>
</event>
<event>
 5    1  0.2381755E-004  0.6397152E+03  0.7818608E-02  0.9826272E-01
         13   -1    0    0    0    0  0.00000000000E+00  0.00000000000E+00  0.10000000000E+04  0.10000000000E+04  0.00000000000E+00 0. -1.
          2   -1    0    0  501    0 -0.00000000000E+00 -0.00000000000E+00 -0.10230887929E+03  0.10230887929E+03  0.00000000000E+00 0. -1.
    9000006    2    1    2  501    0  0.00000000000E+00  0.00000000000E+00  0.89769112071E+03  0.11023088793E+04  0.63971518441E+03 0.  0.
         13    1    3    3    0    0  0.28715633703E+03 -0.14044763965E+03  0.46807812355E+03  0.56681692911E+03  0.00000000000E+00 0. -1.
          2    1    3    3  501    0 -0.28715633703E+03  0.14044763965E+03  0.42961299716E+03  0.53549195018E+03  0.00000000000E+00 0. -1.
<mgrwt>
<rscale>  0 0.63971518E+03</rscale>
<asrwt>0</asrwt>
<pdfrwt beam="1">0</pdfrwt>
<pdfrwt beam="2">  1        2 0.37203307E+00 0.63971518E+03</pdfrwt>
<totfact> 0.50610522E+00</totfact>
</mgrwt>
</event>
<event>
 5    1  0.2381755E-004  0.6529073E+03  0.7818608E-02  0.9801339E-01
         13   -1    0    0    0    0  0.00000000000E+00  0.00000000000E+00  0.10000000000E+04  0.10000000000E+04  0.00000000000E+00 0. -1.
          2   -1    0    0  501    0 -0.00000000000E+00 -0.00000000000E+00 -0.10657197446E+03  0.10657197446E+03  0.00000000000E+00 0. -1.
    9000006    2    1    2  501    0  0.00000000000E+00  0.00000000000E+00  0.89342802554E+03  0.11065719745E+04  0.65290726587E+03 0.  0.
         13    1    3    3    0    0 -0.20613899002E+03 -0.23391772652E+03  0.61069506158E+03  0.68568159099E+03  0.00000000000E+00 0. -1.
          2    1    3    3  501    0  0.20613899002E+03  0.23391772652E+03  0.28273296397E+03  0.42089038347E+03  0.00000000000E+00 0. -1.
<mgrwt>
<rscale>  0 0.65290727E+03</rscale>
<asrwt>0</asrwt>
<pdfrwt beam="1">0</pdfrwt>
<pdfrwt beam="2">  1        2 0.38753527E+00 0.65290727E+03</pdfrwt>
<totfact> 0.44320468E+00</totfact>
</mgrwt>
</event>
<event>
 5    1  0.2381755E-004  0.6540127E+03  0.7818608E-02  0.9799279E-01
         13   -1    0    0    0    0  0.00000000000E+00  0.00000000000E+00  0.10000000000E+04  0.10000000000E+04  0.00000000000E+00 0. -1.
          2   -1    0    0  501    0 -0.00000000000E+00 -0.00000000000E+00 -0.10693315140E+03  0.10693315140E+03  0.00000000000E+00 0. -1.
    9000006    2    1    2  501    0  0.00000000000E+00  0.00000000000E+00  0.89306684860E+03  0.11069331514E+04  0.65401269528E+03 0.  0.
         13    1    3    3    0    0  0.18402852463E+03  0.11259914704E+03  0.30612426195E+02  0.21790407621E+03  0.00000000000E+00 0. -1.
          4    1    3    3  501    0 -0.18402852463E+03 -0.11259914704E+03  0.86245442241E+03  0.88902907518E+03  0.00000000000E+00 0. -1.
<mgrwt>
<rscale>  0 0.65401270E+03</rscale>
<asrwt>0</asrwt>
<pdfrwt beam="1">0</pdfrwt>
<pdfrwt beam="2">  1        2 0.38884864E+00 0.65401270E+03</pdfrwt>
<totfact> 0.43821674E+00</totfact>
</mgrwt>
</event>
<event>
 5    1  0.2381755E-004  0.6472154E+03  0.7818608E-02  0.9812018E-01
         13   -1    0    0    0    0  0.00000000000E+00  0.00000000000E+00  0.10000000000E+04  0.10000000000E+04  0.00000000000E+00 0. -1.
          2   -1    0    0  501    0 -0.00000000000E+00 -0.00000000000E+00 -0.10472195123E+03  0.10472195123E+03  0.00000000000E+00 0. -1.
    9000006    2    1    2  501    0  0.00000000000E+00  0.00000000000E+00  0.89527804877E+03  0.11047219512E+04  0.64721542387E+03 0.  0.
         13    1    3    3    0    0 -0.31256813287E+03 -0.76304591779E+02  0.38849300704E+03  0.50442843390E+03  0.00000000000E+00 0. -1.
          2    1    3    3  501    0  0.31256813287E+03  0.76304591779E+02  0.50678504173E+03  0.60029351732E+03  0.00000000000E+00 0. -1.
<mgrwt>
<rscale>  0 0.64721542E+03</rscale>
<asrwt>0</asrwt>
<pdfrwt beam="1">0</pdfrwt>
<pdfrwt beam="2">  1        2 0.38080790E+00 0.64721542E+03</pdfrwt>
<totfact> 0.46957019E+00</totfact>
</mgrwt>
</event>
<event>
 5    1  0.2381755E-004  0.6518636E+03  0.7818608E-02  0.9803288E-01
         13   -1    0    0    0    0  0.00000000000E+00  0.00000000000E+00  0.10000000000E+04  0.10000000000E+04  0.00000000000E+00 0. -1.
          2   -1    0    0  501    0 -0.00000000000E+00 -0.00000000000E+00 -0.10623155284E+03  0.10623155284E+03  0.00000000000E+00 0. -1.
    9000006    2    1    2  501    0  0.00000000000E+00  0.00000000000E+00  0.89376844716E+03  0.11062315528E+04  0.65186364477E+03 0.  0.
         13    1    3    3    0    0  0.19811473624E+03  0.44065964616E+02  0.87967752652E+03  0.90278669054E+03  0.00000000000E+00 0. -1.
          2    1    3    3  501    0 -0.19811473624E+03 -0.44065964616E+02  0.14090920637E+02  0.20344486230E+03  0.00000000000E+00 0. -1.
<mgrwt>
<rscale>  0 0.65186364E+03</rscale>
<asrwt>0</asrwt>
<pdfrwt beam="1">0</pdfrwt>
<pdfrwt beam="2">  1        2 0.38629737E+00 0.65186364E+03</pdfrwt>
<totfact> 0.44795298E+00</totfact>
</mgrwt>
</event>
<event>
 5    1  0.2381755E-004  0.6526773E+03  0.7818608E-02  0.9801768E-01
         13   -1    0    0    0    0  0.00000000000E+00  0.00000000000E+00  0.10000000000E+04  0.10000000000E+04  0.00000000000E+00 0. -1.
          2   -1    0    0  501    0 -0.00000000000E+00 -0.00000000000E+00 -0.10649691820E+03  0.10649691820E+03  0.00000000000E+00 0. -1.
    9000006    2    1    2  501    0  0.00000000000E+00  0.00000000000E+00  0.89350308180E+03  0.11064969182E+04  0.65267731139E+03 0.  0.
         13    1    3    3    0    0  0.23770558925E+03 -0.20129958163E+02  0.82427063295E+03  0.85809745293E+03  0.00000000000E+00 0. -1.
          4    1    3    3  501    0 -0.23770558925E+03  0.20129958163E+02  0.69232448845E+02  0.24839946527E+03  0.00000000000E+00 0. -1.
<mgrwt>
<rscale>  0 0.65267731E+03</rscale>
<asrwt>0</asrwt>
<pdfrwt beam="1">0</pdfrwt>
<pdfrwt beam="2">  1        2 0.38726234E+00 0.65267731E+03</pdfrwt>
<totfact> 0.44424765E+00</totfact>
</mgrwt>
</event>
<event>
 5    1  0.2381755E-004  0.6521690E+03  0.7818608E-02  0.9802718E-01
         13   -1    0    0    0    0  0.00000000000E+00  0.00000000000E+00  0.10000000000E+04  0.10000000000E+04  0.00000000000E+00 0. -1.
          2   -1    0    0  501    0 -0.00000000000E+00 -0.00000000000E+00 -0.10633108484E+03  0.10633108484E+03  0.00000000000E+00 0. -1.
    9000006    2    1    2  501    0  0.00000000000E+00  0.00000000000E+00  0.89366891516E+03  0.11063310848E+04  0.65216895002E+03 0.  0.
         13    1    3    3    0    0 -0.42750681612E+01 -0.27628800874E+03  0.15312057347E+03  0.31591019294E+03  0.00000000000E+00 0. -1.
          2    1    3    3  501    0  0.42750681612E+01  0.27628800874E+03  0.74054834168E+03  0.79042089190E+03  0.00000000000E+00 0. -1.
<mgrwt>
<rscale>  0 0.65216895E+03</rscale>
<asrwt>0</asrwt>
<pdfrwt beam="1">0</pdfrwt>
<pdfrwt beam="2">  1        2 0.38665931E+00 0.65216895E+03</pdfrwt>
<totfact> 0.44655993E+00</totfact>
</mgrwt>
</event>
<event>
 5    1  0.2381755E-004  0.6486247E+03  0.7818608E-02  0.9809363E-01
         13   -1    0    0    0    0  0.00000000000E+00  0.00000000000E+00  0.10000000000E+04  0.10000000000E+04  0.00000000000E+00 0. -1.
          2   -1    0    0  501    0 -0.00000000000E+00 -0.00000000000E+00 -0.10517848697E+03  0.10517848697E+03  0.00000000000E+00 0. -1.
    9000006    2    1    2  501    0  0.00000000000E+00  0.00000000000E+00  0.89482151303E+03  0.11051784870E+04  0.64862465870E+03 0.  0.
         13    1    3    3    0    0  0.23954332634E+03 -0.18568952723E+03  0.25078507957E+03  0.39338881765E+03  0.00000000000E+00 0. -1.
          2    1    3    3  501    0 -0.23954332634E+03  0.18568952723E+03  0.64403643346E+03  0.71178966932E+03  0.00000000000E+00 0. -1.
<mgrwt>
<rscale>  0 0.64862466E+03</rscale>
<asrwt>0</asrwt>
<pdfrwt beam="1">0</pdfrwt>
<pdfrwt beam="2">  1        2 0.38246803E+00 0.64862466E+03</pdfrwt>
<totfact> 0.46293487E+00</totfact>
</mgrwt>
</event>
<event>
 5    1  0.2381755E-004  0.6525418E+03  0.7818608E-02  0.9802021E-01
         13   -1    0    0    0    0  0.00000000000E+00  0.00000000000E+00  0.10000000000E+04  0.10000000000E+04  0.00000000000E+00 0. -1.
          2   -1    0    0  501    0 -0.00000000000E+00 -0.00000000000E+00 -0.10645270436E+03  0.10645270436E+03  0.00000000000E+00 0. -1.
    9000006    2    1    2  501    0  0.00000000000E+00  0.00000000000E+00  0.89354729564E+03  0.11064527044E+04  0.65254181280E+03 0.  0.
         13    1    3    3    0    0  0.13129961641E+03  0.13647158926E+03  0.89727059944E+03  0.91703795590E+03  0.00000000000E+00 0. -1.
          2    1    3    3  501    0 -0.13129961641E+03 -0.13647158926E+03 -0.37233037991E+01  0.18941474846E+03  0.00000000000E+00 0. -1.
<mgrwt>
<rscale>  0 0.65254181E+03</rscale>
<asrwt>0</asrwt>
<pdfrwt beam="1">0</pdfrwt>
<pdfrwt beam="2">  1        2 0.38710156E+00 0.65254181E+03</pdfrwt>
<totfact> 0.44486308E+00</totfact>
</mgrwt>
</event>
<event>
 5    1  0.2381755E-004  0.6766730E+03  0.7818608E-02  0.9757978E-01
         13   -1    0    0    0    0  0.00000000000E+00  0.00000000000E+00  0.10000000000E+04  0.10000000000E+04  0.00000000000E+00 0. -1.
          2   -1    0    0  501    0 -0.00000000000E+00 -0.00000000000E+00 -0.11447158324E+03  0.11447158324E+03  0.00000000000E+00 0. -1.
    9000006    2    1    2  501    0  0.00000000000E+00  0.00000000000E+00  0.88552841676E+03  0.11144715832E+04  0.67667298819E+03 0.  0.
         13    1    3    3    0    0  0.22217313560E+03  0.95211301045E+02  0.83267072263E+03  0.86704476606E+03  0.00000000000E+00 0. -1.
          2    1    3    3  501    0 -0.22217313560E+03 -0.95211301045E+02  0.52857694135E+02  0.24742681718E+03  0.00000000000E+00 0. -1.
<mgrwt>
<rscale>  0 0.67667299E+03</rscale>
<asrwt>0</asrwt>
<pdfrwt beam="1">0</pdfrwt>
<pdfrwt beam="2">  1        2 0.41626118E+00 0.67667299E+03</pdfrwt>
<totfact> 0.34498964E+00</totfact>
</mgrwt>
</event>
<event>
 5    1  0.2381755E-004  0.6798650E+03  0.7818608E-02  0.9752299E-01
         13   -1    0    0    0    0  0.00000000000E+00  0.00000000000E+00  0.10000000000E+04  0.10000000000E+04  0.00000000000E+00 0. -1.
          2   -1    0    0  501    0 -0.00000000000E+00 -0.00000000000E+00 -0.11555410409E+03  0.11555410409E+03  0.00000000000E+00 0. -1.
    9000006    2    1    2  501    0  0.00000000000E+00  0.00000000000E+00  0.88444589591E+03  0.11155541041E+04  0.67986499862E+03 0.  0.
         13    1    3    3    0    0 -0.46715889996E+02  0.32694768276E+03  0.31016851815E+03  0.45308020404E+03  0.00000000000E+00 0. -1.
          4    1    3    3  501    0  0.46715889996E+02 -0.32694768276E+03  0.57427737776E+03  0.66247390005E+03  0.00000000000E+00 0. -1.
<mgrwt>
<rscale>  0 0.67986500E+03</rscale>
<asrwt>0</asrwt>
<pdfrwt beam="1">0</pdfrwt>
<pdfrwt beam="2">  1        2 0.42019763E+00 0.67986500E+03</pdfrwt>
<totfact> 0.33317292E+00</totfact>
</mgrwt>
</event>
<event>
 5    1  0.2381755E-004  0.6526619E+03  0.7818608E-02  0.9801797E-01
         13   -1    0    0    0    0  0.00000000000E+00  0.00000000000E+00  0.10000000000E+04  0.10000000000E+04  0.00000000000E+00 0. -1.
          2   -1    0    0  501    0 -0.00000000000E+00 -0.00000000000E+00 -0.10649187741E+03  0.10649187741E+03  0.00000000000E+00 0. -1.
    9000006    2    1    2  501    0  0.00000000000E+00  0.00000000000E+00  0.89350812259E+03  0.11064918774E+04  0.65266186471E+03 0.  0.
         13    1    3    3    0    0  0.31812902075E+03  0.40224769790E+02  0.34407990892E+03  0.47033508233E+03  0.00000000000E+00 0. -1.
          2    1    3    3  501    0 -0.31812902075E+03 -0.40224769790E+02  0.54942821367E+03  0.63615679508E+03  0.00000000000E+00 0. -1.
<mgrwt>
<rscale>  0 0.65266186E+03</rscale>
<asrwt>0</asrwt>
<pdfrwt beam="1">0</pdfrwt>
<pdfrwt beam="2">  1        2 0.38724401E+00 0.65266186E+03</pdfrwt>
<totfact> 0.44431778E+00</totfact>
</mgrwt>
</event>
<event>
 5    1  0.2381755E-004  0.6508442E+03  0.7818608E-02  0.9805196E-01
         13   -1    0    0    0    0  0.00000000000E+00  0.00000000000E+00  0.10000000000E+04  0.10000000000E+04  0.00000000000E+00 0. -1.
          2   -1    0    0  501    0 -0.00000000000E+00 -0.00000000000E+00 -0.10589953118E+03  0.10589953118E+03  0.00000000000E+00 0. -1.
    9000006    2    1    2  501    0  0.00000000000E+00  0.00000000000E+00  0.89410046882E+03  0.11058995312E+04  0.65084416315E+03 0.  0.
         13    1    3    3    0    0  0.12303467185E+03 -0.11893611500E+03 -0.23275743482E+02  0.17269942143E+03  0.00000000000E+00 0. -1.
          2    1    3    3  501    0 -0.12303467185E+03  0.11893611500E+03  0.91737621231E+03  0.93320010975E+03  0.00000000000E+00 0. -1.
<mgrwt>
<rscale>  0 0.65084416E+03</rscale>
<asrwt>0</asrwt>
<pdfrwt beam="1">0</pdfrwt>
<pdfrwt beam="2">  1        2 0.38509002E+00 0.65084416E+03</pdfrwt>
<totfact> 0.45262845E+00</totfact>
</mgrwt>
</event>
<event>
 5    1  0.2381755E-004  0.6165095E+03  0.7818608E-02  0.9871734E-01
         13   -1    0    0    0    0  0.00000000000E+00  0.00000000000E+00  0.10000000000E+04  0.10000000000E+04  0.00000000000E+00 0. -1.
          2   -1    0    0  501    0 -0.00000000000E+00 -0.00000000000E+00 -0.95020991621E+02  0.95020991621E+02  0.00000000000E+00 0. -1.
    9000006    2    1    2  501    0  0.00000000000E+00  0.00000000000E+00  0.90497900838E+03  0.10950209916E+04  0.61650950235E+03 0.  0.
         13    1    3    3    0    0 -0.24090383391E+03  0.48633912401E+02  0.12200358782E+03  0.27438073924E+03  0.00000000000E+00 0. -1.
          4    1    3    3  501    0  0.24090383391E+03 -0.48633912401E+02  0.78297542056E+03  0.82064025238E+03  0.00000000000E+00 0. -1.
<mgrwt>
<rscale>  0 0.61650950E+03</rscale>
<asrwt>0</asrwt>
<pdfrwt beam="1">0</pdfrwt>
<pdfrwt beam="2">  1        2 0.34553161E+00 0.61650950E+03</pdfrwt>
<totfact> 0.63292440E+00</totfact>
</mgrwt>
</event>
<event>
 5    1  0.2381755E-004  0.6483182E+03  0.7818608E-02  0.9809940E-01
         13   -1    0    0    0    0  0.00000000000E+00  0.00000000000E+00  0.10000000000E+04  0.10000000000E+04  0.00000000000E+00 0. -1.
          2   -1    0    0  501    0 -0.00000000000E+00 -0.00000000000E+00 -0.10507912105E+03  0.10507912105E+03  0.00000000000E+00 0. -1.
    9000006    2    1    2  501    0  0.00000000000E+00  0.00000000000E+00  0.89492087895E+03  0.11050791210E+04  0.64831819671E+03 0.  0.
         13    1    3    3    0    0 -0.25656492940E+03 -0.86007606132E+02  0.75169075364E+03  0.79891292418E+03  0.00000000000E+00 0. -1.
          2    1    3    3  501    0  0.25656492940E+03  0.86007606132E+02  0.14323012531E+03  0.30616619687E+03  0.00000000000E+00 0. -1.
<mgrwt>
<rscale>  0 0.64831820E+03</rscale>
<asrwt>0</asrwt>
<pdfrwt beam="1">0</pdfrwt>
<pdfrwt beam="2">  1        2 0.38210670E+00 0.64831820E+03</pdfrwt>
<totfact> 0.46437176E+00</totfact>
</mgrwt>
</event>
<event>
 5    1  0.2381755E-004  0.6212350E+03  0.7818608E-02  0.9862304E-01
         13   -1    0    0    0    0  0.00000000000E+00  0.00000000000E+00  0.10000000000E+04  0.10000000000E+04  0.00000000000E+00 0. -1.
          2   -1    0    0  501    0 -0.00000000000E+00 -0.00000000000E+00 -0.96483236530E+02  0.96483236530E+02  0.00000000000E+00 0. -1.
    9000006    2    1    2  501    0  0.00000000000E+00  0.00000000000E+00  0.90351676347E+03  0.10964832365E+04  0.62123501682E+03 0.  0.
         13    1    3    3    0    0 -0.12690633839E+03  0.20995710174E+03  0.78801872421E+03  0.82532461069E+03  0.00000000000E+00 0. -1.
          4    1    3    3  501    0  0.12690633839E+03 -0.20995710174E+03  0.11549803926E+03  0.27115862584E+03  0.00000000000E+00 0. -1.
<mgrwt>
<rscale>  0 0.62123502E+03</rscale>
<asrwt>0</asrwt>
<pdfrwt beam="1">0</pdfrwt>
<pdfrwt beam="2">  1        2 0.35084887E+00 0.62123502E+03</pdfrwt>
<totfact> 0.60533204E+00</totfact>
</mgrwt>
</event>
<event>
 5    1  0.2381755E-004  0.6417956E+03  0.7818608E-02  0.9822297E-01
         13   -1    0    0    0    0  0.00000000000E+00  0.00000000000E+00  0.10000000000E+04  0.10000000000E+04  0.00000000000E+00 0. -1.
          2   -1    0    0  501    0 -0.00000000000E+00 -0.00000000000E+00 -0.10297540487E+03  0.10297540487E+03  0.00000000000E+00 0. -1.
    9000006    2    1    2  501    0  0.00000000000E+00  0.00000000000E+00  0.89702459513E+03  0.11029754049E+04  0.64179562127E+03 0.  0.
         13    1    3    3    0    0 -0.14112171680E+03 -0.63835993351E+02 -0.34481415089E+02  0.15867999554E+03  0.00000000000E+00 0. -1.
          4    1    3    3  501    0  0.14112171680E+03  0.63835993351E+02  0.93150601022E+03  0.94429540933E+03  0.00000000000E+00 0. -1.
<mgrwt>
<rscale>  0 0.64179562E+03</rscale>
<asrwt>0</asrwt>
<pdfrwt beam="1">0</pdfrwt>
<pdfrwt beam="2">  1        2 0.37445681E+00 0.64179562E+03</pdfrwt>
<totfact> 0.49576223E+00</totfact>
</mgrwt>
</event>
<event>
 5    1  0.2381755E-004  0.6252728E+03  0.7818608E-02  0.9854317E-01
         13   -1    0    0    0    0  0.00000000000E+00  0.00000000000E+00  0.10000000000E+04  0.10000000000E+04  0.00000000000E+00 0. -1.
          2   -1    0    0  501    0 -0.00000000000E+00 -0.00000000000E+00 -0.97741515190E+02  0.97741515190E+02  0.00000000000E+00 0. -1.
    9000006    2    1    2  501    0  0.00000000000E+00  0.00000000000E+00  0.90225848481E+03  0.10977415152E+04  0.62527278908E+03 0.  0.
         13    1    3    3    0    0 -0.14263022303E+03  0.26425122075E+03  0.29838598005E+03  0.42332762877E+03  0.00000000000E+00 0. -1.
          4    1    3    3  501    0  0.14263022303E+03 -0.26425122075E+03  0.60387250476E+03  0.67441388642E+03  0.00000000000E+00 0. -1.
<mgrwt>
<rscale>  0 0.62527279E+03</rscale>
<asrwt>0</asrwt>
<pdfrwt beam="1">0</pdfrwt>
<pdfrwt beam="2">  1        2 0.35542444E+00 0.62527279E+03</pdfrwt>
<totfact> 0.58248911E+00</totfact>
</mgrwt>
</event>
<event>
 5    1  0.2381755E-004  0.6486434E+03  0.7818608E-02  0.9809328E-01
         13   -1    0    0    0    0  0.00000000000E+00  0.00000000000E+00  0.10000000000E+04  0.10000000000E+04  0.00000000000E+00 0. -1.
          2   -1    0    0  501    0 -0.00000000000E+00 -0.00000000000E+00 -0.10518454955E+03  0.10518454955E+03  0.00000000000E+00 0. -1.
    9000006    2    1    2  501    0  0.00000000000E+00  0.00000000000E+00  0.89481545045E+03  0.11051845495E+04  0.64864335207E+03 0.  0.
         13    1    3    3    0    0  0.51174099365E+02  0.32015041697E+03  0.46160917036E+03  0.56409051055E+03  0.00000000000E+00 0. -1.
          4    1    3    3  501    0 -0.51174099365E+02 -0.32015041697E+03  0.43320628009E+03  0.54109403900E+03  0.00000000000E+00 0. -1.
<mgrwt>
<rscale>  0 0.64864335E+03</rscale>
<asrwt>0</asrwt>
<pdfrwt beam="1">0</pdfrwt>
<pdfrwt beam="2">  1        2 0.38249008E+00 0.64864335E+03</pdfrwt>
<totfact> 0.46284733E+00</totfact>
</mgrwt>
</event>
<event>
 5    1  0.2381755E-004  0.6456212E+03  0.7818608E-02  0.9815031E-01
         13   -1    0    0    0    0  0.00000000000E+00  0.00000000000E+00  0.10000000000E+04  0.10000000000E+04  0.00000000000E+00 0. -1.
          2   -1    0    0  501    0 -0.00000000000E+00 -0.00000000000E+00 -0.10420669053E+03  0.10420669053E+03  0.00000000000E+00 0. -1.
    9000006    2    1    2  501    0  0.00000000000E+00  0.00000000000E+00  0.89579330947E+03  0.11042066905E+04  0.64562122186E+03 0.  0.
         13    1    3    3    0    0  0.19607212830E+03 -0.15405188070E+03  0.97262281254E+02  0.26764942144E+03  0.00000000000E+00 0. -1.
          4    1    3    3  501    0 -0.19607212830E+03  0.15405188070E+03  0.79853102822E+03  0.83655726909E+03  0.00000000000E+00 0. -1.
<mgrwt>
<rscale>  0 0.64562122E+03</rscale>
<asrwt>0</asrwt>
<pdfrwt beam="1">0</pdfrwt>
<pdfrwt beam="2">  1        2 0.37893422E+00 0.64562122E+03</pdfrwt>
<totfact> 0.47716285E+00</totfact>
</mgrwt>
</event>
<event>
 5    1  0.2381755E-004  0.6442940E+03  0.7818608E-02  0.9817545E-01
         13   -1    0    0    0    0  0.00000000000E+00  0.00000000000E+00  0.10000000000E+04  0.10000000000E+04  0.00000000000E+00 0. -1.
          2   -1    0    0  501    0 -0.00000000000E+00 -0.00000000000E+00 -0.10377870303E+03  0.10377870303E+03  0.00000000000E+00 0. -1.
    9000006    2    1    2  501    0  0.00000000000E+00  0.00000000000E+00  0.89622129697E+03  0.11037787030E+04  0.64429404167E+03 0.  0.
         13    1    3    3    0    0 -0.14266626274E+03 -0.27233164296E+03  0.61297072840E+03  0.68574871502E+03  0.00000000000E+00 0. -1.
          2    1    3    3  501    0  0.14266626274E+03  0.27233164296E+03  0.28325056857E+03  0.41802998801E+03  0.00000000000E+00 0. -1.
<mgrwt>
<rscale>  0 0.64429404E+03</rscale>
<asrwt>0</asrwt>
<pdfrwt beam="1">0</pdfrwt>
<pdfrwt beam="2">  1        2 0.37737790E+00 0.64429404E+03</pdfrwt>
<totfact> 0.48355430E+00</totfact>
</mgrwt>
</event>
<event>
 5    1  0.2381755E-004  0.6459911E+03  0.7818608E-02  0.9814331E-01
         13   -1    0    0    0    0  0.00000000000E+00  0.00000000000E+00  0.10000000000E+04  0.10000000000E+04  0.00000000000E+00 0. -1.
          2   -1    0    0  501    0 -0.00000000000E+00 -0.00000000000E+00 -0.10432611115E+03  0.10432611115E+03  0.00000000000E+00 0. -1.
    9000006    2    1    2  501    0  0.00000000000E+00  0.00000000000E+00  0.89567388885E+03  0.11043261111E+04  0.64599105612E+03 0.  0.
         13    1    3    3    0    0  0.17992546161E+02  0.31968631404E+03  0.52042639706E+03  0.61103740136E+03  0.00000000000E+00 0. -1.
          2    1    3    3  501    0 -0.17992546161E+02 -0.31968631404E+03  0.37524749179E+03  0.49328870978E+03  0.00000000000E+00 0. -1.
<mgrwt>
<rscale>  0 0.64599106E+03</rscale>
<asrwt>0</asrwt>
<pdfrwt beam="1">0</pdfrwt>
<pdfrwt beam="2">  1        2 0.37936848E+00 0.64599106E+03</pdfrwt>
<totfact> 0.47539323E+00</totfact>
</mgrwt>
</event>
<event>
 5    1  0.2381755E-004  0.6426998E+03  0.7818608E-02  0.9820575E-01
         13   -1    0    0    0    0  0.00000000000E+00  0.00000000000E+00  0.10000000000E+04  0.10000000000E+04  0.00000000000E+00 0. -1.
          2   -1    0    0  501    0 -0.00000000000E+00 -0.00000000000E+00 -0.10326576940E+03  0.10326576940E+03  0.00000000000E+00 0. -1.
    9000006    2    1    2  501    0  0.00000000000E+00  0.00000000000E+00  0.89673423060E+03  0.11032657694E+04  0.64269983474E+03 0.  0.
         13    1    3    3    0    0  0.28239245580E+03  0.72086007354E+02  0.21599679884E+03  0.36276233081E+03  0.00000000000E+00 0. -1.
          2    1    3    3  501    0 -0.28239245580E+03 -0.72086007354E+02  0.68073743177E+03  0.74050343859E+03  0.00000000000E+00 0. -1.
<mgrwt>
<rscale>  0 0.64269983E+03</rscale>
<asrwt>0</asrwt>
<pdfrwt beam="1">0</pdfrwt>
<pdfrwt beam="2">  1        2 0.37551268E+00 0.64269983E+03</pdfrwt>
<totfact> 0.49131713E+00</totfact>
</mgrwt>
</event>
<event>
 5    1  0.2381755E-004  0.6255845E+03  0.7818608E-02  0.9853703E-01
         13   -1    0    0    0    0  0.00000000000E+00  0.00000000000E+00  0.10000000000E+04  0.10000000000E+04  0.00000000000E+00 0. -1.
          2   -1    0    0  501    0 -0.00000000000E+00 -0.00000000000E+00 -0.97838993928E+02  0.97838993928E+02  0.00000000000E+00 0. -1.
    9000006    2    1    2  501    0  0.00000000000E+00  0.00000000000E+00  0.90216100607E+03  0.10978389939E+04  0.62558450725E+03 0.  0.
         13    1    3    3    0    0  0.78909470124E+02 -0.29545703522E+03  0.56639006161E+03  0.64367636746E+03  0.00000000000E+00 0. -1.
          4    1    3    3  501    0 -0.78909470124E+02  0.29545703522E+03  0.33577094446E+03  0.45416262647E+03  0.00000000000E+00 0. -1.
<mgrwt>
<rscale>  0 0.62558451E+03</rscale>
<asrwt>0</asrwt>
<pdfrwt beam="1">0</pdfrwt>
<pdfrwt beam="2">  1        2 0.35577891E+00 0.62558451E+03</pdfrwt>
<totfact> 0.58075329E+00</totfact>
</mgrwt>
</event>
<event>
 5    1  0.2381755E-004  0.6480684E+03  0.7818608E-02  0.9810411E-01
         13   -1    0    0    0    0  0.00000000000E+00  0.00000000000E+00  0.10000000000E+04  0.10000000000E+04  0.00000000000E+00 0. -1.
          2   -1    0    0  501    0 -0.00000000000E+00 -0.00000000000E+00 -0.10499815161E+03  0.10499815161E+03  0.00000000000E+00 0. -1.
    9000006    2    1    2  501    0  0.00000000000E+00  0.00000000000E+00  0.89500184839E+03  0.11049981516E+04  0.64806836555E+03 0.  0.
         13    1    3    3    0    0  0.23406362823E+03  0.16620563640E+03  0.19124131669E+03  0.34493961333E+03  0.00000000000E+00 0. -1.
          2    1    3    3  501    0 -0.23406362823E+03 -0.16620563640E+03  0.70376053170E+03  0.76005853828E+03  0.00000000000E+00 0. -1.
<mgrwt>
<rscale>  0 0.64806837E+03</rscale>
<asrwt>0</asrwt>
<pdfrwt beam="1">0</pdfrwt>
<pdfrwt beam="2">  1        2 0.38181227E+00 0.64806837E+03</pdfrwt>
<totfact> 0.46554563E+00</totfact>
</mgrwt>
</event>
<event>
 5    1  0.2381755E-004  0.6549445E+03  0.7818608E-02  0.9797545E-01
         13   -1    0    0    0    0  0.00000000000E+00  0.00000000000E+00  0.10000000000E+04  0.10000000000E+04  0.00000000000E+00 0. -1.
          2   -1    0    0  501    0 -0.00000000000E+00 -0.00000000000E+00 -0.10723806930E+03  0.10723806930E+03  0.00000000000E+00 0. -1.
    9000006    2    1    2  501    0  0.00000000000E+00  0.00000000000E+00  0.89276193070E+03  0.11072380693E+04  0.65494448405E+03 0.  0.
         13    1    3    3    0    0  0.24039840253E+03 -0.20351633304E+03  0.59785362086E+03  0.67575087254E+03  0.00000000000E+00 0. -1.
          4    1    3    3  501    0 -0.24039840253E+03  0.20351633304E+03  0.29490830984E+03  0.43148719676E+03  0.00000000000E+00 0. -1.
<mgrwt>
<rscale>  0 0.65494448E+03</rscale>
<asrwt>0</asrwt>
<pdfrwt beam="1">0</pdfrwt>
<pdfrwt beam="2">  1        2 0.38995744E+00 0.65494448E+03</pdfrwt>
<totfact> 0.43404533E+00</totfact>
</mgrwt>
</event>
<event>
 5    1  0.2381755E-004  0.6509366E+03  0.7818608E-02  0.9805023E-01
         13   -1    0    0    0    0  0.00000000000E+00  0.00000000000E+00  0.10000000000E+04  0.10000000000E+04  0.00000000000E+00 0. -1.
          2   -1    0    0  501    0 -0.00000000000E+00 -0.00000000000E+00 -0.10592961479E+03  0.10592961479E+03  0.00000000000E+00 0. -1.
    9000006    2    1    2  501    0  0.00000000000E+00  0.00000000000E+00  0.89407038521E+03  0.11059296148E+04  0.65093660149E+03 0.  0.
         13    1    3    3    0    0 -0.23674108677E+03 -0.12966936314E+03  0.75599371050E+03  0.80273717755E+03  0.00000000000E+00 0. -1.
          4    1    3    3  501    0  0.23674108677E+03  0.12966936314E+03  0.13807667470E+03  0.30319243724E+03  0.00000000000E+00 0. -1.
<mgrwt>
<rscale>  0 0.65093660E+03</rscale>
<asrwt>0</asrwt>
<pdfrwt beam="1">0</pdfrwt>
<pdfrwt beam="2">  1        2 0.38519941E+00 0.65093660E+03</pdfrwt>
<totfact> 0.45220301E+00</totfact>
</mgrwt>
</event>
<event>
 5    1  0.2381755E-004  0.6350738E+03  0.7818608E-02  0.9835197E-01
         13   -1    0    0    0    0  0.00000000000E+00  0.00000000000E+00  0.10000000000E+04  0.10000000000E+04  0.00000000000E+00 0. -1.
          2   -1    0    0  501    0 -0.00000000000E+00 -0.00000000000E+00 -0.10082969433E+03  0.10082969433E+03  0.00000000000E+00 0. -1.
    9000006    2    1    2  501    0  0.00000000000E+00  0.00000000000E+00  0.89917030567E+03  0.11008296943E+04  0.63507383613E+03 0.  0.
         13    1    3    3    0    0  0.82759722410E+02 -0.51821207907E+02  0.97332981984E+03  0.97821549130E+03  0.00000000000E+00 0. -1.
          4    1    3    3  501    0 -0.82759722410E+02  0.51821207907E+02 -0.74159514173E+02  0.12261420303E+03  0.00000000000E+00 0. -1.
<mgrwt>
<rscale>  0 0.63507384E+03</rscale>
<asrwt>0</asrwt>
<pdfrwt beam="1">0</pdfrwt>
<pdfrwt beam="2">  1        2 0.36665421E+00 0.63507384E+03</pdfrwt>
<totfact> 0.52976862E+00</totfact>
</mgrwt>
</event>
<event>
 5    1  0.2381755E-004  0.6227961E+03  0.7818608E-02  0.9859208E-01
         13   -1    0    0    0    0  0.00000000000E+00  0.00000000000E+00  0.10000000000E+04  0.10000000000E+04  0.00000000000E+00 0. -1.
          2   -1    0    0  501    0 -0.00000000000E+00 -0.00000000000E+00 -0.96968759650E+02  0.96968759650E+02  0.00000000000E+00 0. -1.
    9000006    2    1    2  501    0  0.00000000000E+00  0.00000000000E+00  0.90303124035E+03  0.10969687597E+04  0.62279614530E+03 0.  0.
         13    1    3    3    0    0 -0.72490907416E+02  0.44138527479E+02  0.97923538130E+03  0.98290644176E+03  0.00000000000E+00 0. -1.
          4    1    3    3  501    0  0.72490907416E+02 -0.44138527479E+02 -0.76204140946E+02  0.11406231789E+03  0.00000000000E+00 0. -1.
<mgrwt>
<rscale>  0 0.62279615E+03</rscale>
<asrwt>0</asrwt>
<pdfrwt beam="1">0</pdfrwt>
<pdfrwt beam="2">  1        2 0.35261442E+00 0.62279615E+03</pdfrwt>
<totfact> 0.59642095E+00</totfact>
</mgrwt>
</event>
<event>
 5    1  0.2381755E-004  0.6566360E+03  0.7818608E-02  0.9794406E-01
         13   -1    0    0    0    0  0.00000000000E+00  0.00000000000E+00  0.10000000000E+04  0.10000000000E+04  0.00000000000E+00 0. -1.
          2   -1    0    0  501    0 -0.00000000000E+00 -0.00000000000E+00 -0.10779272087E+03  0.10779272087E+03  0.00000000000E+00 0. -1.
    9000006    2    1    2  501    0  0.00000000000E+00  0.00000000000E+00  0.89220727913E+03  0.11077927209E+04  0.65663603577E+03 0.  0.
         13    1    3    3    0    0  0.11386258042E+03  0.28126418764E+03  0.23458959428E+03  0.38354466261E+03  0.00000000000E+00 0. -1.
          4    1    3    3  501    0 -0.11386258042E+03 -0.28126418764E+03  0.65761768485E+03  0.72424805826E+03  0.00000000000E+00 0. -1.
<mgrwt>
<rscale>  0 0.65663604E+03</rscale>
<asrwt>0</asrwt>
<pdfrwt beam="1">0</pdfrwt>
<pdfrwt beam="2">  1        2 0.39197436E+00 0.65663604E+03</pdfrwt>
<totfact> 0.42654935E+00</totfact>
</mgrwt>
</event>
<event>
 5    1  0.2381755E-004  0.6243457E+03  0.7818608E-02  0.9856145E-01
         13   -1    0    0    0    0  0.00000000000E+00  0.00000000000E+00  0.10000000000E+04  0.10000000000E+04  0.00000000000E+00 0. -1.
          2   -1    0    0  501    0 -0.00000000000E+00 -0.00000000000E+00 -0.97451877670E+02  0.97451877670E+02  0.00000000000E+00 0. -1.
    9000006    2    1    2  501    0  0.00000000000E+00  0.00000000000E+00  0.90254812233E+03  0.10974518777E+04  0.62434566602E+03 0.  0.
         13    1    3    3    0    0 -0.10913056213E+03  0.73920711939E+02 -0.46139173413E+02  0.13965161856E+03  0.00000000000E+00 0. -1.
          2    1    3    3  501    0  0.10913056213E+03 -0.73920711939E+02  0.94868729574E+03  0.95780025911E+03  0.00000000000E+00 0. -1.
<mgrwt>
<rscale>  0 0.62434567E+03</rscale>
<asrwt>0</asrwt>
<pdfrwt beam="1">0</pdfrwt>
<pdfrwt beam="2">  1        2 0.35437121E+00 0.62434567E+03</pdfrwt>
<totfact> 0.58767514E+00</totfact>
</mgrwt>
</event>
<event>
 5    1  0.2381755E-004  0.6495407E+03  0.7818608E-02  0.9807641E-01
         13   -1    0    0    0    0  0.00000000000E+00  0.00000000000E+00  0.10000000000E+04  0.10000000000E+04  0.00000000000E+00 0. -1.
          2   -1    0    0  501    0 -0.00000000000E+00 -0.00000000000E+00 -0.10547577469E+03  0.10547577469E+03  0.00000000000E+00 0. -1.
    9000006    2    1    2  501    0  0.00000000000E+00  0.00000000000E+00  0.89452422531E+03  0.11054757747E+04  0.64954068291E+03 0.  0.
         13    1    3    3    0    0 -0.11805591799E+03 -0.29871578517E+03  0.52901619636E+03  0.61889131202E+03  0.00000000000E+00 0. -1.
          4    1    3    3  501    0  0.11805591799E+03  0.29871578517E+03  0.36550802895E+03  0.48658446267E+03  0.00000000000E+00 0. -1.
<mgrwt>
<rscale>  0 0.64954068E+03</rscale>
<asrwt>0</asrwt>
<pdfrwt beam="1">0</pdfrwt>
<pdfrwt beam="2">  1        2 0.38354908E+00 0.64954068E+03</pdfrwt>
<totfact> 0.45865999E+00</totfact>
</mgrwt>
</event>
<event>
 5    1  0.2381755E-004  0.6631103E+03  0.7818608E-02  0.9782485E-01
         13   -1    0    0    0    0  0.00000000000E+00  0.00000000000E+00  0.10000000000E+04  0.10000000000E+04  0.00000000000E+00 0. -1.
          2   -1    0    0  501    0 -0.00000000000E+00 -0.00000000000E+00 -0.10992883154E+03  0.10992883154E+03  0.00000000000E+00 0. -1.
    9000006    2    1    2  501    0  0.00000000000E+00  0.00000000000E+00  0.89007116846E+03  0.11099288315E+04  0.66311034239E+03 0.  0.
         13    1    3    3    0    0  0.19896926519E+03 -0.54309180191E+02  0.87955472835E+03  0.90341284898E+03  0.00000000000E+00 0. -1.
          4    1    3    3  501    0 -0.19896926519E+03  0.54309180191E+02  0.10516440110E+02  0.20651598257E+03  0.00000000000E+00 0. -1.
<mgrwt>
<rscale>  0 0.66311034E+03</rscale>
<asrwt>0</asrwt>
<pdfrwt beam="1">0</pdfrwt>
<pdfrwt beam="2">  1        2 0.39974205E+00 0.66311034E+03</pdfrwt>
<totfact> 0.39875988E+00</totfact>
</mgrwt>
</event>
<event>
 5    1  0.2381755E-004  0.6760629E+03  0.7818608E-02  0.9759067E-01
         13   -1    0    0    0    0  0.00000000000E+00  0.00000000000E+00  0.10000000000E+04  0.10000000000E+04  0.00000000000E+00 0. -1.
          2   -1    0    0  501    0 -0.00000000000E+00 -0.00000000000E+00 -0.11426525085E+03  0.11426525085E+03  0.00000000000E+00 0. -1.
    9000006    2    1    2  501    0  0.00000000000E+00  0.00000000000E+00  0.88573474915E+03  0.11142652509E+04  0.67606286943E+03 0.  0.
         13    1    3    3    0    0  0.21786500011E+03 -0.66523267717E+02  0.31238432723E+02  0.22992682118E+03  0.00000000000E+00 0. -1.
          2    1    3    3  501    0 -0.21786500011E+03  0.66523267717E+02  0.85449631642E+03  0.88433842967E+03  0.00000000000E+00 0. -1.
<mgrwt>
<rscale>  0 0.67606287E+03</rscale>
<asrwt>0</asrwt>
<pdfrwt beam="1">0</pdfrwt>
<pdfrwt beam="2">  1        2 0.41551088E+00 0.67606287E+03</pdfrwt>
<totfact> 0.34728373E+00</totfact>
</mgrwt>
</event>
<event>
 5    1  0.2381755E-004  0.6535299E+03  0.7818608E-02  0.9800178E-01
         13   -1    0    0    0    0  0.00000000000E+00  0.00000000000E+00  0.10000000000E+04  0.10000000000E+04  0.00000000000E+00 0. -1.
          2   -1    0    0  501    0 -0.00000000000E+00 -0.00000000000E+00 -0.10677533832E+03  0.10677533832E+03  0.00000000000E+00 0. -1.
    9000006    2    1    2  501    0  0.00000000000E+00  0.00000000000E+00  0.89322466168E+03  0.11067753383E+04  0.65352991768E+03 0.  0.
         13    1    3    3    0    0 -0.12376021414E+03  0.24440488760E+03  0.14496825129E+03  0.30994537191E+03  0.00000000000E+00 0. -1.
          2    1    3    3  501    0  0.12376021414E+03 -0.24440488760E+03  0.74825641039E+03  0.79682996641E+03  0.00000000000E+00 0. -1.
<mgrwt>
<rscale>  0 0.65352992E+03</rscale>
<asrwt>0</asrwt>
<pdfrwt beam="1">0</pdfrwt>
<pdfrwt beam="2">  1        2 0.38827478E+00 0.65352992E+03</pdfrwt>
<totfact> 0.44038989E+00</totfact>
</mgrwt>
</event>
<event>
 5    1  0.2381755E-004  0.7462291E+03  0.7818608E-02  0.9641285E-01
         13   -1    0    0    0    0  0.00000000000E+00  0.00000000000E+00  0.10000000000E+04  0.10000000000E+04  0.00000000000E+00 0. -1.
          2   -1    0    0  501    0 -0.00000000000E+00 -0.00000000000E+00 -0.13921446785E+03  0.13921446785E+03  0.00000000000E+00 0. -1.
    9000006    2    1    2  501    0  0.00000000000E+00  0.00000000000E+00  0.86078553215E+03  0.11392144678E+04  0.74622910115E+03 0.  0.
         13    1    3    3    0    0 -0.32381186702E+03  0.71475706309E+02  0.16929216524E+03  0.37232074751E+03  0.00000000000E+00 0. -1.
          2    1    3    3  501    0  0.32381186702E+03 -0.71475706309E+02  0.69149336691E+03  0.76689372034E+03  0.00000000000E+00 0. -1.
<mgrwt>
<rscale>  0 0.74622910E+03</rscale>
<asrwt>0</asrwt>
<pdfrwt beam="1">0</pdfrwt>
<pdfrwt beam="2">  1        2 0.50623550E+00 0.74622910E+03</pdfrwt>
<totfact> 0.14937898E+00</totfact>
</mgrwt>
</event>
<event>
 5    1  0.2381755E-004  0.6469357E+03  0.7818608E-02  0.9812546E-01
         13   -1    0    0    0    0  0.00000000000E+00  0.00000000000E+00  0.10000000000E+04  0.10000000000E+04  0.00000000000E+00 0. -1.
          2   -1    0    0  501    0 -0.00000000000E+00 -0.00000000000E+00 -0.10463143796E+03  0.10463143796E+03  0.00000000000E+00 0. -1.
    9000006    2    1    2  501    0  0.00000000000E+00  0.00000000000E+00  0.89536856204E+03  0.11046314380E+04  0.64693566284E+03 0.  0.
         13    1    3    3    0    0 -0.22787904942E+03  0.22743815827E+03  0.39438289173E+03  0.50911181708E+03  0.00000000000E+00 0. -1.
          4    1    3    3  501    0  0.22787904942E+03 -0.22743815827E+03  0.50098567031E+03  0.59551962088E+03  0.00000000000E+00 0. -1.
<mgrwt>
<rscale>  0 0.64693566E+03</rscale>
<asrwt>0</asrwt>
<pdfrwt beam="1">0</pdfrwt>
<pdfrwt beam="2">  1        2 0.38047876E+00 0.64693566E+03</pdfrwt>
<totfact> 0.47089594E+00</totfact>
</mgrwt>
</event>
<event>
 5    1  0.2381755E-004  0.6536893E+03  0.7818608E-02  0.9799881E-01
         13   -1    0    0    0    0  0.00000000000E+00  0.00000000000E+00  0.10000000000E+04  0.10000000000E+04  0.00000000000E+00 0. -1.
          2   -1    0    0  501    0 -0.00000000000E+00 -0.00000000000E+00 -0.10682743115E+03  0.10682743115E+03  0.00000000000E+00 0. -1.
    9000006    2    1    2  501    0  0.00000000000E+00  0.00000000000E+00  0.89317256885E+03  0.11068274312E+04  0.65368931811E+03 0.  0.
         13    1    3    3    0    0  0.94194215097E+02  0.16916616037E+03  0.89244084558E+03  0.91320337430E+03  0.00000000000E+00 0. -1.
          2    1    3    3  501    0 -0.94194215097E+02 -0.16916616037E+03  0.73172326490E+00  0.19362405685E+03  0.00000000000E+00 0. -1.
<mgrwt>
<rscale>  0 0.65368932E+03</rscale>
<asrwt>0</asrwt>
<pdfrwt beam="1">0</pdfrwt>
<pdfrwt beam="2">  1        2 0.38846421E+00 0.65368932E+03</pdfrwt>
<totfact> 0.43967147E+00</totfact>
</mgrwt>
</event>
<event>
 5    1  0.2381755E-004  0.6563644E+03  0.7818608E-02  0.9794910E-01
         13   -1    0    0    0    0  0.00000000000E+00  0.00000000000E+00  0.10000000000E+04  0.10000000000E+04  0.00000000000E+00 0. -1.
          2   -1    0    0  501    0 -0.00000000000E+00 -0.00000000000E+00 -0.10770357017E+03  0.10770357017E+03  0.00000000000E+00 0. -1.
    9000006    2    1    2  501    0  0.00000000000E+00  0.00000000000E+00  0.89229642983E+03  0.11077035702E+04  0.65636444196E+03 0.  0.
         13    1    3    3    0    0 -0.19004770577E+03 -0.23171072948E+03  0.67191048818E+03  0.73571169405E+03  0.00000000000E+00 0. -1.
          4    1    3    3  501    0  0.19004770577E+03  0.23171072948E+03  0.22038594165E+03  0.37199187612E+03  0.00000000000E+00 0. -1.
<mgrwt>
<rscale>  0 0.65636444E+03</rscale>
<asrwt>0</asrwt>
<pdfrwt beam="1">0</pdfrwt>
<pdfrwt beam="2">  1        2 0.39165017E+00 0.65636444E+03</pdfrwt>
<totfact> 0.42774625E+00</totfact>
</mgrwt>
</event>
<event>
 5    1  0.2381755E-004  0.6605774E+03  0.7818608E-02  0.9787131E-01
         13   -1    0    0    0    0  0.00000000000E+00  0.00000000000E+00  0.10000000000E+04  0.10000000000E+04  0.00000000000E+00 0. -1.
          2   -1    0    0  501    0 -0.00000000000E+00 -0.00000000000E+00 -0.10909060919E+03  0.10909060919E+03  0.00000000000E+00 0. -1.
    9000006    2    1    2  501    0  0.00000000000E+00  0.00000000000E+00  0.89090939081E+03  0.11090906092E+04  0.66057735107E+03 0.  0.
         13    1    3    3    0    0  0.96155043018E+02 -0.31237431062E+03  0.36551189580E+03  0.49032891839E+03  0.00000000000E+00 0. -1.
          2    1    3    3  501    0 -0.96155043018E+02  0.31237431062E+03  0.52539749501E+03  0.61876169080E+03  0.00000000000E+00 0. -1.
<mgrwt>
<rscale>  0 0.66057735E+03</rscale>
<asrwt>0</asrwt>
<pdfrwt beam="1">0</pdfrwt>
<pdfrwt beam="2">  1        2 0.39669396E+00 0.66057735E+03</pdfrwt>
<totfact> 0.40946388E+00</totfact>
</mgrwt>
</event>
<event>
 5    1  0.2381755E-004  0.6564947E+03  0.7818608E-02  0.9794668E-01
         13   -1    0    0    0    0  0.00000000000E+00  0.00000000000E+00  0.10000000000E+04  0.10000000000E+04  0.00000000000E+00 0. -1.
          2   -1    0    0  501    0 -0.00000000000E+00 -0.00000000000E+00 -0.10774631795E+03  0.10774631795E+03  0.00000000000E+00 0. -1.
    9000006    2    1    2  501    0  0.00000000000E+00  0.00000000000E+00  0.89225368205E+03  0.11077463179E+04  0.65649468527E+03 0.  0.
         13    1    3    3    0    0 -0.96749408029E+02  0.16677862993E+03 -0.21243926607E+01  0.19282134841E+03  0.00000000000E+00 0. -1.
          2    1    3    3  501    0  0.96749408029E+02 -0.16677862993E+03  0.89437807472E+03  0.91492496954E+03  0.00000000000E+00 0. -1.
<mgrwt>
<rscale>  0 0.65649469E+03</rscale>
<asrwt>0</asrwt>
<pdfrwt beam="1">0</pdfrwt>
<pdfrwt beam="2">  1        2 0.39180562E+00 0.65649469E+03</pdfrwt>
<totfact> 0.42717196E+00</totfact>
</mgrwt>
</event>
<event>
 5    1  0.2381755E-004  0.6567175E+03  0.7818608E-02  0.9794255E-01
         13   -1    0    0    0    0  0.00000000000E+00  0.00000000000E+00  0.10000000000E+04  0.10000000000E+04  0.00000000000E+00 0. -1.
          2   -1    0    0  501    0 -0.00000000000E+00 -0.00000000000E+00 -0.10781947121E+03  0.10781947121E+03  0.00000000000E+00 0. -1.
    9000006    2    1    2  501    0  0.00000000000E+00  0.00000000000E+00  0.89218052879E+03  0.11078194712E+04  0.65671750764E+03 0.  0.
         13    1    3    3    0    0 -0.53687895184E+02 -0.31803113907E+03  0.54998597176E+03  0.63758196700E+03  0.00000000000E+00 0. -1.
          4    1    3    3  501    0  0.53687895184E+02  0.31803113907E+03  0.34219455703E+03  0.47023750421E+03  0.00000000000E+00 0. -1.
<mgrwt>
<rscale>  0 0.65671751E+03</rscale>
<asrwt>0</asrwt>
<pdfrwt beam="1">0</pdfrwt>
<pdfrwt beam="2">  1        2 0.39207163E+00 0.65671751E+03</pdfrwt>
<totfact> 0.42619080E+00</totfact>
</mgrwt>
</event>
<event>
 5    1  0.2381755E-004  0.6567908E+03  0.7818608E-02  0.9794120E-01
         13   -1    0    0    0    0  0.00000000000E+00  0.00000000000E+00  0.10000000000E+04  0.10000000000E+04  0.00000000000E+00 0. -1.
          2   -1    0    0  501    0 -0.00000000000E+00 -0.00000000000E+00 -0.10784353673E+03  0.10784353673E+03  0.00000000000E+00 0. -1.
    9000006    2    1    2  501    0  0.00000000000E+00  0.00000000000E+00  0.89215646327E+03  0.11078435367E+04  0.65679079389E+03 0.  0.
         13    1    3    3    0    0 -0.14537469514E+02 -0.32301902188E+03  0.34931521733E+03  0.47599763400E+03  0.00000000000E+00 0. -1.
          2    1    3    3  501    0  0.14537469514E+02  0.32301902188E+03  0.54284124593E+03  0.63184590273E+03  0.00000000000E+00 0. -1.
<mgrwt>
<rscale>  0 0.65679079E+03</rscale>
<asrwt>0</asrwt>
<pdfrwt beam="1">0</pdfrwt>
<pdfrwt beam="2">  1        2 0.39215914E+00 0.65679079E+03</pdfrwt>
<totfact> 0.42586846E+00</totfact>
</mgrwt>
</event>
<event>
 5    1  0.2381755E-004  0.6535402E+03  0.7818608E-02  0.9800159E-01
         13   -1    0    0    0    0  0.00000000000E+00  0.00000000000E+00  0.10000000000E+04  0.10000000000E+04  0.00000000000E+00 0. -1.
          2   -1    0    0  501    0 -0.00000000000E+00 -0.00000000000E+00 -0.10677870010E+03  0.10677870010E+03  0.00000000000E+00 0. -1.
    9000006    2    1    2  501    0  0.00000000000E+00  0.00000000000E+00  0.89322129990E+03  0.11067787001E+04  0.65354020564E+03 0.  0.
         13    1    3    3    0    0 -0.38228973724E+02 -0.30902945154E+03  0.27880716983E+03  0.41796422610E+03  0.00000000000E+00 0. -1.
          4    1    3    3  501    0  0.38228973724E+02  0.30902945154E+03  0.61441413007E+03  0.68881447399E+03  0.00000000000E+00 0. -1.
<mgrwt>
<rscale>  0 0.65354021E+03</rscale>
<asrwt>0</asrwt>
<pdfrwt beam="1">0</pdfrwt>
<pdfrwt beam="2">  1        2 0.38828700E+00 0.65354021E+03</pdfrwt>
<totfact> 0.44034350E+00</totfact>
</mgrwt>
</event>
<event>
 5    1  0.2381755E-004  0.6458072E+03  0.7818608E-02  0.9814679E-01
         13   -1    0    0    0    0  0.00000000000E+00  0.00000000000E+00  0.10000000000E+04  0.10000000000E+04  0.00000000000E+00 0. -1.
          2   -1    0    0  501    0 -0.00000000000E+00 -0.00000000000E+00 -0.10426673388E+03  0.10426673388E+03  0.00000000000E+00 0. -1.
    9000006    2    1    2  501    0  0.00000000000E+00  0.00000000000E+00  0.89573326612E+03  0.11042667339E+04  0.64580719687E+03 0.  0.
         13    1    3    3    0    0 -0.20433247773E+03 -0.16384377522E+03  0.12492516253E+03  0.29017725680E+03  0.00000000000E+00 0. -1.
          2    1    3    3  501    0  0.20433247773E+03  0.16384377522E+03  0.77080810359E+03  0.81408947708E+03  0.00000000000E+00 0. -1.
<mgrwt>
<rscale>  0 0.64580720E+03</rscale>
<asrwt>0</asrwt>
<pdfrwt beam="1">0</pdfrwt>
<pdfrwt beam="2">  1        2 0.37915256E+00 0.64580720E+03</pdfrwt>
<totfact> 0.47627236E+00</totfact>
</mgrwt>
</event>
<event>
 5    1  0.2381755E-004  0.6511900E+03  0.7818608E-02  0.9804549E-01
         13   -1    0    0    0    0  0.00000000000E+00  0.00000000000E+00  0.10000000000E+04  0.10000000000E+04  0.00000000000E+00 0. -1.
          2   -1    0    0  501    0 -0.00000000000E+00 -0.00000000000E+00 -0.10601209958E+03  0.10601209958E+03  0.00000000000E+00 0. -1.
    9000006    2    1    2  501    0  0.00000000000E+00  0.00000000000E+00  0.89398790042E+03  0.11060120996E+04  0.65118998634E+03 0.  0.
         13    1    3    3    0    0 -0.14032646822E+03 -0.16758939379E+03  0.85685993881E+03  0.88430010592E+03  0.00000000000E+00 0. -1.
          2    1    3    3  501    0  0.14032646822E+03  0.16758939379E+03  0.37127961611E+02  0.22171199365E+03  0.00000000000E+00 0. -1.
<mgrwt>
<rscale>  0 0.65118999E+03</rscale>
<asrwt>0</asrwt>
<pdfrwt beam="1">0</pdfrwt>
<pdfrwt beam="2">  1        2 0.38549936E+00 0.65118999E+03</pdfrwt>
<totfact> 0.45103835E+00</totfact>
</mgrwt>
</event>
<event>
 5    1  0.2381755E-004  0.6794536E+03  0.7818608E-02  0.9753029E-01
         13   -1    0    0    0    0  0.00000000000E+00  0.00000000000E+00  0.10000000000E+04  0.10000000000E+04  0.00000000000E+00 0. -1.
          2   -1    0    0  501    0 -0.00000000000E+00 -0.00000000000E+00 -0.11541430953E+03  0.11541430953E+03  0.00000000000E+00 0. -1.
    9000006    2    1    2  501    0  0.00000000000E+00  0.00000000000E+00  0.88458569047E+03  0.11154143095E+04  0.67945363207E+03 0.  0.
         13    1    3    3    0    0 -0.10233964663E+03  0.32331739092E+03  0.40918344057E+03  0.53144955224E+03  0.00000000000E+00 0. -1.
          4    1    3    3  501    0  0.10233964663E+03 -0.32331739092E+03  0.47540224990E+03  0.58396475729E+03  0.00000000000E+00 0. -1.
<mgrwt>
<rscale>  0 0.67945363E+03</rscale>
<asrwt>0</asrwt>
<pdfrwt beam="1">0</pdfrwt>
<pdfrwt beam="2">  1        2 0.41968928E+00 0.67945363E+03</pdfrwt>
<totfact> 0.33467842E+00</totfact>
</mgrwt>
</event>
<event>
 5    1  0.2381755E-004  0.6384971E+03  0.7818608E-02  0.9828606E-01
         13   -1    0    0    0    0  0.00000000000E+00  0.00000000000E+00  0.10000000000E+04  0.10000000000E+04  0.00000000000E+00 0. -1.
          2   -1    0    0  501    0 -0.00000000000E+00 -0.00000000000E+00 -0.10191962393E+03  0.10191962393E+03  0.00000000000E+00 0. -1.
    9000006    2    1    2  501    0  0.00000000000E+00  0.00000000000E+00  0.89808037607E+03  0.11019196239E+04  0.63849706008E+03 0.  0.
         13    1    3    3    0    0  0.53466365426E+02 -0.20814456013E+03  0.41601668840E+02  0.21889154619E+03  0.00000000000E+00 0. -1.
          2    1    3    3  501    0 -0.53466365426E+02  0.20814456013E+03  0.85647870723E+03  0.88302807774E+03  0.00000000000E+00 0. -1.
<mgrwt>
<rscale>  0 0.63849706E+03</rscale>
<asrwt>0</asrwt>
<pdfrwt beam="1">0</pdfrwt>
<pdfrwt beam="2">  1        2 0.37061760E+00 0.63849706E+03</pdfrwt>
<totfact> 0.51223656E+00</totfact>
</mgrwt>
</event>
<event>
 5    1  0.2381755E-004  0.5377895E+03  0.7818608E-02  0.1004360E+00
         13   -1    0    0    0    0  0.00000000000E+00  0.00000000000E+00  0.10000000000E+04  0.10000000000E+04  0.00000000000E+00 0. -1.
          2   -1    0    0  501    0 -0.00000000000E+00 -0.00000000000E+00 -0.72304380797E+02  0.72304380797E+02  0.00000000000E+00 0. -1.
    9000006    2    1    2  501    0  0.00000000000E+00  0.00000000000E+00  0.92769561920E+03  0.10723043808E+04  0.53778947850E+03 0.  0.
         13    1    3    3    0    0 -0.10995823863E+03 -0.22562796209E+03  0.65619140019E+03  0.70255672027E+03  0.00000000000E+00 0. -1.
          4    1    3    3  501    0  0.10995823863E+03  0.22562796209E+03  0.27150421902E+03  0.36974766053E+03  0.00000000000E+00 0. -1.
<mgrwt>
<rscale>  0 0.53778948E+03</rscale>
<asrwt>0</asrwt>
<pdfrwt beam="1">0</pdfrwt>
<pdfrwt beam="2">  1        2 0.26292558E+00 0.53778948E+03</pdfrwt>
<totfact> 0.12527687E+01</totfact>
</mgrwt>
</event>
<event>
 5    1  0.2381755E-004  0.6722429E+03  0.7818608E-02  0.9765914E-01
         13   -1    0    0    0    0  0.00000000000E+00  0.00000000000E+00  0.10000000000E+04  0.10000000000E+04  0.00000000000E+00 0. -1.
          2   -1    0    0  501    0 -0.00000000000E+00 -0.00000000000E+00 -0.11297764534E+03  0.11297764534E+03  0.00000000000E+00 0. -1.
    9000006    2    1    2  501    0  0.00000000000E+00  0.00000000000E+00  0.88702235466E+03  0.11129776453E+04  0.67224294818E+03 0.  0.
         13    1    3    3    0    0  0.25039054995E+03  0.20275593411E+03  0.28494954616E+03  0.43011817001E+03  0.00000000000E+00 0. -1.
          2    1    3    3  501    0 -0.25039054995E+03 -0.20275593411E+03  0.60207280850E+03  0.68285947533E+03  0.00000000000E+00 0. -1.
<mgrwt>
<rscale>  0 0.67224295E+03</rscale>
<asrwt>0</asrwt>
<pdfrwt beam="1">0</pdfrwt>
<pdfrwt beam="2">  1        2 0.41082867E+00 0.67224295E+03</pdfrwt>
<totfact> 0.36190965E+00</totfact>
</mgrwt>
</event>
<event>
 5    1  0.2381755E-004  0.6549753E+03  0.7818608E-02  0.9797488E-01
         13   -1    0    0    0    0  0.00000000000E+00  0.00000000000E+00  0.10000000000E+04  0.10000000000E+04  0.00000000000E+00 0. -1.
          2   -1    0    0  501    0 -0.00000000000E+00 -0.00000000000E+00 -0.10724816387E+03  0.10724816387E+03  0.00000000000E+00 0. -1.
    9000006    2    1    2  501    0  0.00000000000E+00  0.00000000000E+00  0.89275183613E+03  0.11072481639E+04  0.65497530907E+03 0.  0.
         13    1    3    3    0    0  0.23288748334E+03 -0.22430119595E+03  0.35852490936E+03  0.48279158758E+03  0.00000000000E+00 0. -1.
          4    1    3    3  501    0 -0.23288748334E+03  0.22430119595E+03  0.53422692676E+03  0.62445657630E+03  0.00000000000E+00 0. -1.
<mgrwt>
<rscale>  0 0.65497531E+03</rscale>
<asrwt>0</asrwt>
<pdfrwt beam="1">0</pdfrwt>
<pdfrwt beam="2">  1        2 0.38999415E+00 0.65497531E+03</pdfrwt>
<totfact> 0.43390785E+00</totfact>
</mgrwt>
</event>
<event>
 5    1  0.2381755E-004  0.6526346E+03  0.7818608E-02  0.9801848E-01
         13   -1    0    0    0    0  0.00000000000E+00  0.00000000000E+00  0.10000000000E+04  0.10000000000E+04  0.00000000000E+00 0. -1.
          2   -1    0    0  501    0 -0.00000000000E+00 -0.00000000000E+00 -0.10648296504E+03  0.10648296504E+03  0.00000000000E+00 0. -1.
    9000006    2    1    2  501    0  0.00000000000E+00  0.00000000000E+00  0.89351703496E+03  0.11064829650E+04  0.65263455330E+03 0.  0.
         13    1    3    3    0    0 -0.11161245721E+03 -0.85559271085E+02  0.94598467181E+03  0.95638105835E+03  0.00000000000E+00 0. -1.
          4    1    3    3  501    0  0.11161245721E+03  0.85559271085E+02 -0.52467636853E+02  0.15010190669E+03  0.00000000000E+00 0. -1.
<mgrwt>
<rscale>  0 0.65263455E+03</rscale>
<asrwt>0</asrwt>
<pdfrwt beam="1">0</pdfrwt>
<pdfrwt beam="2">  1        2 0.38721160E+00 0.65263455E+03</pdfrwt>
<totfact> 0.44444179E+00</totfact>
</mgrwt>
</event>
<event>
 5    1  0.2381755E-004  0.6525120E+03  0.7818608E-02  0.9802077E-01
         13   -1    0    0    0    0  0.00000000000E+00  0.00000000000E+00  0.10000000000E+04  0.10000000000E+04  0.00000000000E+00 0. -1.
          2   -1    0    0  501    0 -0.00000000000E+00 -0.00000000000E+00 -0.10644297189E+03  0.10644297189E+03  0.00000000000E+00 0. -1.
    9000006    2    1    2  501    0  0.00000000000E+00  0.00000000000E+00  0.89355702811E+03  0.11064429719E+04  0.65251198269E+03 0.  0.
         13    1    3    3    0    0  0.13772732435E+03 -0.25030855762E+03  0.17963814330E+03  0.33748044746E+03  0.00000000000E+00 0. -1.
          2    1    3    3  501    0 -0.13772732435E+03  0.25030855762E+03  0.71391888481E+03  0.76896252443E+03  0.00000000000E+00 0. -1.
<mgrwt>
<rscale>  0 0.65251198E+03</rscale>
<asrwt>0</asrwt>
<pdfrwt beam="1">0</pdfrwt>
<pdfrwt beam="2">  1        2 0.38706617E+00 0.65251198E+03</pdfrwt>
<totfact> 0.44499865E+00</totfact>
</mgrwt>
</event>
<event>
 5    1  0.2381755E-004  0.6386085E+03  0.7818608E-02  0.9828393E-01
         13   -1    0    0    0    0  0.00000000000E+00  0.00000000000E+00  0.10000000000E+04  0.10000000000E+04  0.00000000000E+00 0. -1.
          2   -1    0    0  501    0 -0.00000000000E+00 -0.00000000000E+00 -0.10195519369E+03  0.10195519369E+03  0.00000000000E+00 0. -1.
    9000006    2    1    2  501    0  0.00000000000E+00  0.00000000000E+00  0.89804480631E+03  0.11019551937E+04  0.63860846751E+03 0.  0.
         13    1    3    3    0    0 -0.29818298195E+03  0.80181652354E+02  0.58934535387E+03  0.66533460321E+03  0.00000000000E+00 0. -1.
          4    1    3    3  501    0  0.29818298195E+03 -0.80181652354E+02  0.30869945243E+03  0.43662059048E+03  0.00000000000E+00 0. -1.
<mgrwt>
<rscale>  0 0.63860847E+03</rscale>
<asrwt>0</asrwt>
<pdfrwt beam="1">0</pdfrwt>
<pdfrwt beam="2">  1        2 0.37074694E+00 0.63860847E+03</pdfrwt>
<totfact> 0.51167347E+00</totfact>
</mgrwt>
</event>
<event>
 5    1  0.2381755E-004  0.6766083E+03  0.7818608E-02  0.9758093E-01
         13   -1    0    0    0    0  0.00000000000E+00  0.00000000000E+00  0.10000000000E+04  0.10000000000E+04  0.00000000000E+00 0. -1.
          2   -1    0    0  501    0 -0.00000000000E+00 -0.00000000000E+00 -0.11444970921E+03  0.11444970921E+03  0.00000000000E+00 0. -1.
    9000006    2    1    2  501    0  0.00000000000E+00  0.00000000000E+00  0.88555029079E+03  0.11144497092E+04  0.67660833342E+03 0.  0.
         13    1    3    3    0    0  0.81542340393E+02 -0.10516806338E+03  0.95507791104E+03  0.96430456340E+03  0.00000000000E+00 0. -1.
          4    1    3    3  501    0 -0.81542340393E+02  0.10516806338E+03 -0.69527620255E+02  0.15014514581E+03  0.00000000000E+00 0. -1.
<mgrwt>
<rscale>  0 0.67660833E+03</rscale>
<asrwt>0</asrwt>
<pdfrwt beam="1">0</pdfrwt>
<pdfrwt beam="2">  1        2 0.41618164E+00 0.67660833E+03</pdfrwt>
<totfact> 0.34523220E+00</totfact>
</mgrwt>
</event>
<event>
 5    1  0.2381755E-004  0.6553800E+03  0.7818608E-02  0.9796736E-01
         13   -1    0    0    0    0  0.00000000000E+00  0.00000000000E+00  0.10000000000E+04  0.10000000000E+04  0.00000000000E+00 0. -1.
          2   -1    0    0  501    0 -0.00000000000E+00 -0.00000000000E+00 -0.10738072104E+03  0.10738072104E+03  0.00000000000E+00 0. -1.
    9000006    2    1    2  501    0  0.00000000000E+00  0.00000000000E+00  0.89261927896E+03  0.11073807210E+04  0.65537995405E+03 0.  0.
         13    1    3    3    0    0 -0.28523836883E+03  0.14880896421E+03  0.55150052374E+03  0.63848090228E+03  0.00000000000E+00 0. -1.
          2    1    3    3  501    0  0.28523836883E+03 -0.14880896421E+03  0.34111875521E+03  0.46889981877E+03  0.00000000000E+00 0. -1.
<mgrwt>
<rscale>  0 0.65537995E+03</rscale>
<asrwt>0</asrwt>
<pdfrwt beam="1">0</pdfrwt>
<pdfrwt beam="2">  1        2 0.39047617E+00 0.65537995E+03</pdfrwt>
<totfact> 0.43210614E+00</totfact>
</mgrwt>
</event>
<event>
 5    1  0.2381755E-004  0.6483770E+03  0.7818608E-02  0.9809829E-01
         13   -1    0    0    0    0  0.00000000000E+00  0.00000000000E+00  0.10000000000E+04  0.10000000000E+04  0.00000000000E+00 0. -1.
          2   -1    0    0  501    0 -0.00000000000E+00 -0.00000000000E+00 -0.10509818468E+03  0.10509818468E+03  0.00000000000E+00 0. -1.
    9000006    2    1    2  501    0  0.00000000000E+00  0.00000000000E+00  0.89490181532E+03  0.11050981847E+04  0.64837700355E+03 0.  0.
         13    1    3    3    0    0  0.88442769271E+02  0.27421033672E+03  0.70074177466E+03  0.75766250202E+03  0.00000000000E+00 0. -1.
          2    1    3    3  501    0 -0.88442769271E+02 -0.27421033672E+03  0.19416004065E+03  0.34743568266E+03  0.00000000000E+00 0. -1.
<mgrwt>
<rscale>  0 0.64837700E+03</rscale>
<asrwt>0</asrwt>
<pdfrwt beam="1">0</pdfrwt>
<pdfrwt beam="2">  1        2 0.38217602E+00 0.64837700E+03</pdfrwt>
<totfact> 0.46409578E+00</totfact>
</mgrwt>
</event>
<event>
 5    1  0.2381755E-004  0.6527526E+03  0.7818608E-02  0.9801628E-01
         13   -1    0    0    0    0  0.00000000000E+00  0.00000000000E+00  0.10000000000E+04  0.10000000000E+04  0.00000000000E+00 0. -1.
          2   -1    0    0  501    0 -0.00000000000E+00 -0.00000000000E+00 -0.10652150232E+03  0.10652150232E+03  0.00000000000E+00 0. -1.
    9000006    2    1    2  501    0  0.00000000000E+00  0.00000000000E+00  0.89347849768E+03  0.11065215023E+04  0.65275264018E+03 0.  0.
         13    1    3    3    0    0 -0.29224529163E+03  0.10060470077E+03  0.26900665335E+03  0.40974772219E+03  0.00000000000E+00 0. -1.
          2    1    3    3  501    0  0.29224529163E+03 -0.10060470077E+03  0.62447184434E+03  0.69677378012E+03  0.00000000000E+00 0. -1.
<mgrwt>
<rscale>  0 0.65275264E+03</rscale>
<asrwt>0</asrwt>
<pdfrwt beam="1">0</pdfrwt>
<pdfrwt beam="2">  1        2 0.38735173E+00 0.65275264E+03</pdfrwt>
<totfact> 0.44390579E+00</totfact>
</mgrwt>
</event>
<event>
 5    1  0.2381755E-004  0.6420852E+03  0.7818608E-02  0.9821745E-01
         13   -1    0    0    0    0  0.00000000000E+00  0.00000000000E+00  0.10000000000E+04  0.10000000000E+04  0.00000000000E+00 0. -1.
          2   -1    0    0  501    0 -0.00000000000E+00 -0.00000000000E+00 -0.10306835691E+03  0.10306835691E+03  0.00000000000E+00 0. -1.
    9000006    2    1    2  501    0  0.00000000000E+00  0.00000000000E+00  0.89693164309E+03  0.11030683569E+04  0.64208521836E+03 0.  0.
         13    1    3    3    0    0  0.13324976598E+03  0.15304983496E+03  0.21084930226E+02  0.20402040682E+03  0.00000000000E+00 0. -1.
          2    1    3    3  501    0 -0.13324976598E+03 -0.15304983496E+03  0.87584671287E+03  0.89904795009E+03  0.00000000000E+00 0. -1.
<mgrwt>
<rscale>  0 0.64208522E+03</rscale>
<asrwt>0</asrwt>
<pdfrwt beam="1">0</pdfrwt>
<pdfrwt beam="2">  1        2 0.37479482E+00 0.64208522E+03</pdfrwt>
<totfact> 0.49433527E+00</totfact>
</mgrwt>
</event>
<event>
 5    1  0.2381755E-004  0.6554581E+03  0.7818608E-02  0.9796591E-01
         13   -1    0    0    0    0  0.00000000000E+00  0.00000000000E+00  0.10000000000E+04  0.10000000000E+04  0.00000000000E+00 0. -1.
          2   -1    0    0  501    0 -0.00000000000E+00 -0.00000000000E+00 -0.10740633797E+03  0.10740633797E+03  0.00000000000E+00 0. -1.
    9000006    2    1    2  501    0  0.00000000000E+00  0.00000000000E+00  0.89259366203E+03  0.11074063380E+04  0.65545812368E+03 0.  0.
         13    1    3    3    0    0  0.19347331331E+03 -0.16064115202E+03  0.80137177561E+03  0.83990131887E+03  0.00000000000E+00 0. -1.
          4    1    3    3  501    0 -0.19347331331E+03  0.16064115202E+03  0.91221886410E+02  0.26750501911E+03  0.00000000000E+00 0. -1.
<mgrwt>
<rscale>  0 0.65545812E+03</rscale>
<asrwt>0</asrwt>
<pdfrwt beam="1">0</pdfrwt>
<pdfrwt beam="2">  1        2 0.39056933E+00 0.65545812E+03</pdfrwt>
<totfact> 0.43175874E+00</totfact>
</mgrwt>
</event>
<event>
 5    1  0.2381755E-004  0.6440225E+03  0.7818608E-02  0.9818061E-01
         13   -1    0    0    0    0  0.00000000000E+00  0.00000000000E+00  0.10000000000E+04  0.10000000000E+04  0.00000000000E+00 0. -1.
          2   -1    0    0  501    0 -0.00000000000E+00 -0.00000000000E+00 -0.10369125554E+03  0.10369125554E+03  0.00000000000E+00 0. -1.
    9000006    2    1    2  501    0  0.00000000000E+00  0.00000000000E+00  0.89630874446E+03  0.11036912555E+04  0.64402253234E+03 0.  0.
         13    1    3    3    0    0 -0.10699699976E+03  0.11112770728E+03  0.93255237667E+03  0.94522571935E+03  0.00000000000E+00 0. -1.
          4    1    3    3  501    0  0.10699699976E+03 -0.11112770728E+03 -0.36243632210E+02  0.15846553619E+03  0.00000000000E+00 0. -1.
<mgrwt>
<rscale>  0 0.64402253E+03</rscale>
<asrwt>0</asrwt>
<pdfrwt beam="1">0</pdfrwt>
<pdfrwt beam="2">  1        2 0.37705991E+00 0.64402253E+03</pdfrwt>
<totfact> 0.48486978E+00</totfact>
</mgrwt>
</event>
<event>
 5    1  0.2381755E-004  0.6404317E+03  0.7818608E-02  0.9824901E-01
         13   -1    0    0    0    0  0.00000000000E+00  0.00000000000E+00  0.10000000000E+04  0.10000000000E+04  0.00000000000E+00 0. -1.
          2   -1    0    0  501    0 -0.00000000000E+00 -0.00000000000E+00 -0.10253819282E+03  0.10253819282E+03  0.00000000000E+00 0. -1.
    9000006    2    1    2  501    0  0.00000000000E+00  0.00000000000E+00  0.89746180718E+03  0.11025381928E+04  0.64043170697E+03 0.  0.
         13    1    3    3    0    0  0.30522063130E+03 -0.82607223667E+02  0.53574362496E+03  0.62209711369E+03  0.00000000000E+00 0. -1.
          2    1    3    3  501    0 -0.30522063130E+03  0.82607223667E+02  0.36171818221E+03  0.48044107913E+03  0.00000000000E+00 0. -1.
<mgrwt>
<rscale>  0 0.64043171E+03</rscale>
<asrwt>0</asrwt>
<pdfrwt beam="1">0</pdfrwt>
<pdfrwt beam="2">  1        2 0.37286694E+00 0.64043171E+03</pdfrwt>
<totfact> 0.50252473E+00</totfact>
</mgrwt>
</event>
<event>
 5    1  0.2381755E-004  0.6379371E+03  0.7818608E-02  0.9829681E-01
         13   -1    0    0    0    0  0.00000000000E+00  0.00000000000E+00  0.10000000000E+04  0.10000000000E+04  0.00000000000E+00 0. -1.
          2   -1    0    0  501    0 -0.00000000000E+00 -0.00000000000E+00 -0.10174093767E+03  0.10174093767E+03  0.00000000000E+00 0. -1.
    9000006    2    1    2  501    0  0.00000000000E+00  0.00000000000E+00  0.89825906233E+03  0.11017409377E+04  0.63793710558E+03 0.  0.
         13    1    3    3    0    0  0.10589408366E+03 -0.12248251230E+03  0.92375187883E+03  0.93783423717E+03  0.00000000000E+00 0. -1.
          4    1    3    3  501    0 -0.10589408366E+03  0.12248251230E+03 -0.25492816495E+02  0.16390670050E+03  0.00000000000E+00 0. -1.
<mgrwt>
<rscale>  0 0.63793711E+03</rscale>
<asrwt>0</asrwt>
<pdfrwt beam="1">0</pdfrwt>
<pdfrwt beam="2">  1        2 0.36996783E+00 0.63793711E+03</pdfrwt>
<totfact> 0.51507384E+00</totfact>
</mgrwt>
</event>
<event>
 5    1  0.2381755E-004  0.6601345E+03  0.7818608E-02  0.9787946E-01
         13   -1    0    0    0    0  0.00000000000E+00  0.00000000000E+00  0.10000000000E+04  0.10000000000E+04  0.00000000000E+00 0. -1.
          2   -1    0    0  501    0 -0.00000000000E+00 -0.00000000000E+00 -0.10894438061E+03  0.10894438061E+03  0.00000000000E+00 0. -1.
    9000006    2    1    2  501    0  0.00000000000E+00  0.00000000000E+00  0.89105561939E+03  0.11089443806E+04  0.66013447300E+03 0.  0.
         13    1    3    3    0    0  0.21659019552E+03  0.24899798670E+03  0.43586736084E+03  0.54670985579E+03  0.00000000000E+00 0. -1.
          4    1    3    3  501    0 -0.21659019552E+03 -0.24899798670E+03  0.45518825855E+03  0.56223452482E+03  0.00000000000E+00 0. -1.
<mgrwt>
<rscale>  0 0.66013447E+03</rscale>
<asrwt>0</asrwt>
<pdfrwt beam="1">0</pdfrwt>
<pdfrwt beam="2">  1        2 0.39616222E+00 0.66013447E+03</pdfrwt>
<totfact> 0.41135746E+00</totfact>
</mgrwt>
</event>
<event>
 5    1  0.2381755E-004  0.6467899E+03  0.7818608E-02  0.9812821E-01
         13   -1    0    0    0    0  0.00000000000E+00  0.00000000000E+00  0.10000000000E+04  0.10000000000E+04  0.00000000000E+00 0. -1.
          2   -1    0    0  501    0 -0.00000000000E+00 -0.00000000000E+00 -0.10458428243E+03  0.10458428243E+03  0.00000000000E+00 0. -1.
    9000006    2    1    2  501    0  0.00000000000E+00  0.00000000000E+00  0.89541571757E+03  0.11045842824E+04  0.64678986521E+03 0.  0.
         13    1    3    3    0    0  0.27990751229E+03 -0.62164302782E+02  0.70314545633E+03  0.75935903809E+03  0.00000000000E+00 0. -1.
          2    1    3    3  501    0 -0.27990751229E+03  0.62164302782E+02  0.19227026124E+03  0.34522524435E+03  0.00000000000E+00 0. -1.
<mgrwt>
<rscale>  0 0.64678987E+03</rscale>
<asrwt>0</asrwt>
<pdfrwt beam="1">0</pdfrwt>
<pdfrwt beam="2">  1        2 0.38030728E+00 0.64678987E+03</pdfrwt>
<totfact> 0.47158798E+00</totfact>
</mgrwt>
</event>
<event>
 5    1  0.2381755E-004  0.6509428E+03  0.7818608E-02  0.9805012E-01
         13   -1    0    0    0    0  0.00000000000E+00  0.00000000000E+00  0.10000000000E+04  0.10000000000E+04  0.00000000000E+00 0. -1.
          2   -1    0    0  501    0 -0.00000000000E+00 -0.00000000000E+00 -0.10593163498E+03  0.10593163498E+03  0.00000000000E+00 0. -1.
    9000006    2    1    2  501    0  0.00000000000E+00  0.00000000000E+00  0.89406836502E+03  0.11059316350E+04  0.65094280848E+03 0.  0.
         13    1    3    3    0    0 -0.74526316953E+02 -0.59005542952E+02 -0.81822436548E+02  0.12542223543E+03  0.00000000000E+00 0. -1.
          2    1    3    3  501    0  0.74526316953E+02  0.59005542952E+02  0.97589080157E+03  0.98050939955E+03  0.00000000000E+00 0. -1.
<mgrwt>
<rscale>  0 0.65094281E+03</rscale>
<asrwt>0</asrwt>
<pdfrwt beam="1">0</pdfrwt>
<pdfrwt beam="2">  1        2 0.38520676E+00 0.65094281E+03</pdfrwt>
<totfact> 0.45217445E+00</totfact>
</mgrwt>
</event>
<event>
 5    1  0.2381755E-004  0.6468211E+03  0.7818608E-02  0.9812762E-01
         13   -1    0    0    0    0  0.00000000000E+00  0.00000000000E+00  0.10000000000E+04  0.10000000000E+04  0.00000000000E+00 0. -1.
          2   -1    0    0  501    0 -0.00000000000E+00 -0.00000000000E+00 -0.10459439542E+03  0.10459439542E+03  0.00000000000E+00 0. -1.
    9000006    2    1    2  501    0  0.00000000000E+00  0.00000000000E+00  0.89540560458E+03  0.11045943954E+04  0.64682113578E+03 0.  0.
         13    1    3    3    0    0  0.35181298631E+02  0.31095160246E+03  0.30827676669E+03  0.43927575363E+03  0.00000000000E+00 0. -1.
          2    1    3    3  501    0 -0.35181298631E+02 -0.31095160246E+03  0.58712883789E+03  0.66531864180E+03  0.00000000000E+00 0. -1.
<mgrwt>
<rscale>  0 0.64682114E+03</rscale>
<asrwt>0</asrwt>
<pdfrwt beam="1">0</pdfrwt>
<pdfrwt beam="2">  1        2 0.38034406E+00 0.64682114E+03</pdfrwt>
<totfact> 0.47143948E+00</totfact>
</mgrwt>
</event>
<event>
 5    1  0.2381755E-004  0.7177392E+03  0.7818608E-02  0.9687368E-01
         13   -1    0    0    0    0  0.00000000000E+00  0.00000000000E+00  0.10000000000E+04  0.10000000000E+04  0.00000000000E+00 0. -1.
          2   -1    0    0  501    0 -0.00000000000E+00 -0.00000000000E+00 -0.12878739974E+03  0.12878739974E+03  0.00000000000E+00 0. -1.
    9000006    2    1    2  501    0  0.00000000000E+00  0.00000000000E+00  0.87121260026E+03  0.11287873997E+04  0.71773922769E+03 0.  0.
         13    1    3    3    0    0 -0.11969003133E+02 -0.32435977867E+03  0.19485047369E+03  0.37857526353E+03  0.00000000000E+00 0. -1.
          4    1    3    3  501    0  0.11969003133E+02  0.32435977867E+03  0.67636212657E+03  0.75021213621E+03  0.00000000000E+00 0. -1.
<mgrwt>
<rscale>  0 0.71773923E+03</rscale>
<asrwt>0</asrwt>
<pdfrwt beam="1">0</pdfrwt>
<pdfrwt beam="2">  1        2 0.46831880E+00 0.71773923E+03</pdfrwt>
<totfact> 0.21495509E+00</totfact>
</mgrwt>
</event>
<event>
 5    1  0.2381755E-004  0.6565198E+03  0.7818608E-02  0.9794622E-01
         13   -1    0    0    0    0  0.00000000000E+00  0.00000000000E+00  0.10000000000E+04  0.10000000000E+04  0.00000000000E+00 0. -1.
          2   -1    0    0  501    0 -0.00000000000E+00 -0.00000000000E+00 -0.10775455504E+03  0.10775455504E+03  0.00000000000E+00 0. -1.
    9000006    2    1    2  501    0  0.00000000000E+00  0.00000000000E+00  0.89224544496E+03  0.11077545550E+04  0.65651977895E+03 0.  0.
         13    1    3    3    0    0 -0.23242268327E+03 -0.12942875084E+03  0.77060693249E+03  0.81523441392E+03  0.00000000000E+00 0. -1.
          4    1    3    3  501    0  0.23242268327E+03  0.12942875084E+03  0.12163851247E+03  0.29252014112E+03  0.00000000000E+00 0. -1.
<mgrwt>
<rscale>  0 0.65651978E+03</rscale>
<asrwt>0</asrwt>
<pdfrwt beam="1">0</pdfrwt>
<pdfrwt beam="2">  1        2 0.39183557E+00 0.65651978E+03</pdfrwt>
<totfact> 0.42706138E+00</totfact>
</mgrwt>
</event>
<event>
 5    1  0.2381755E-004  0.6363598E+03  0.7818608E-02  0.9832716E-01
         13   -1    0    0    0    0  0.00000000000E+00  0.00000000000E+00  0.10000000000E+04  0.10000000000E+04  0.00000000000E+00 0. -1.
          2   -1    0    0  501    0 -0.00000000000E+00 -0.00000000000E+00 -0.10123845030E+03  0.10123845030E+03  0.00000000000E+00 0. -1.
    9000006    2    1    2  501    0  0.00000000000E+00  0.00000000000E+00  0.89876154970E+03  0.11012384503E+04  0.63635980483E+03 0.  0.
         13    1    3    3    0    0 -0.25093874280E+03  0.15413546913E+03  0.24092250001E+03  0.38048869430E+03  0.00000000000E+00 0. -1.
          2    1    3    3  501    0  0.25093874280E+03 -0.15413546913E+03  0.65783904969E+03  0.72074975600E+03  0.00000000000E+00 0. -1.
<mgrwt>
<rscale>  0 0.63635980E+03</rscale>
<asrwt>0</asrwt>
<pdfrwt beam="1">0</pdfrwt>
<pdfrwt beam="2">  1        2 0.36814060E+00 0.63635980E+03</pdfrwt>
<totfact> 0.52313005E+00</totfact>
</mgrwt>
</event>
<event>
 5    1  0.2381755E-004  0.6529858E+03  0.7818608E-02  0.9801193E-01
         13   -1    0    0    0    0  0.00000000000E+00  0.00000000000E+00  0.10000000000E+04  0.10000000000E+04  0.00000000000E+00 0. -1.
          2   -1    0    0  501    0 -0.00000000000E+00 -0.00000000000E+00 -0.10659760083E+03  0.10659760083E+03  0.00000000000E+00 0. -1.
    9000006    2    1    2  501    0  0.00000000000E+00  0.00000000000E+00  0.89340239917E+03  0.11065976008E+04  0.65298576043E+03 0.  0.
         13    1    3    3    0    0 -0.26056804539E+03  0.19409982462E+03  0.50101416389E+03  0.59714792188E+03  0.00000000000E+00 0. -1.
          4    1    3    3  501    0  0.26056804539E+03 -0.19409982462E+03  0.39238823528E+03  0.50944967895E+03  0.00000000000E+00 0. -1.
<mgrwt>
<rscale>  0 0.65298576E+03</rscale>
<asrwt>0</asrwt>
<pdfrwt beam="1">0</pdfrwt>
<pdfrwt beam="2">  1        2 0.38762846E+00 0.65298576E+03</pdfrwt>
<totfact> 0.44284909E+00</totfact>
</mgrwt>
</event>
<event>
 5    1  0.2381755E-004  0.6733023E+03  0.7818608E-02  0.9764010E-01
         13   -1    0    0    0    0  0.00000000000E+00  0.00000000000E+00  0.10000000000E+04  0.10000000000E+04  0.00000000000E+00 0. -1.
          2   -1    0    0  501    0 -0.00000000000E+00 -0.00000000000E+00 -0.11333401097E+03  0.11333401097E+03  0.00000000000E+00 0. -1.
    9000006    2    1    2  501    0  0.00000000000E+00  0.00000000000E+00  0.88666598903E+03  0.11133340110E+04  0.67330234210E+03 0.  0.
         13    1    3    3    0    0 -0.22278592421E+03 -0.16865865678E+03  0.13285997485E+03  0.30940440115E+03  0.00000000000E+00 0. -1.
          4    1    3    3  501    0  0.22278592421E+03  0.16865865678E+03  0.75380601418E+03  0.80392960982E+03  0.00000000000E+00 0. -1.
<mgrwt>
<rscale>  0 0.67330234E+03</rscale>
<asrwt>0</asrwt>
<pdfrwt beam="1">0</pdfrwt>
<pdfrwt beam="2">  1        2 0.41212455E+00 0.67330234E+03</pdfrwt>
<totfact> 0.35780752E+00</totfact>
</mgrwt>
</event>
<event>
 5    1  0.2381755E-004  0.6216910E+03  0.7818608E-02  0.9861399E-01
         13   -1    0    0    0    0  0.00000000000E+00  0.00000000000E+00  0.10000000000E+04  0.10000000000E+04  0.00000000000E+00 0. -1.
          2   -1    0    0  501    0 -0.00000000000E+00 -0.00000000000E+00 -0.96624936724E+02  0.96624936724E+02  0.00000000000E+00 0. -1.
    9000006    2    1    2  501    0  0.00000000000E+00  0.00000000000E+00  0.90337506328E+03  0.10966249367E+04  0.62169103813E+03 0.  0.
         13    1    3    3    0    0  0.15248287045E+03  0.21665036082E+03  0.16488316936E+03  0.31204945788E+03  0.00000000000E+00 0. -1.
          4    1    3    3  501    0 -0.15248287045E+03 -0.21665036082E+03  0.73849189391E+03  0.78457547884E+03  0.00000000000E+00 0. -1.
<mgrwt>
<rscale>  0 0.62169104E+03</rscale>
<asrwt>0</asrwt>
<pdfrwt beam="1">0</pdfrwt>
<pdfrwt beam="2">  1        2 0.35136415E+00 0.62169104E+03</pdfrwt>
<totfact> 0.60271862E+00</totfact>
</mgrwt>
</event>
<event>
 5    1  0.2381755E-004  0.6556534E+03  0.7818608E-02  0.9796228E-01
         13   -1    0    0    0    0  0.00000000000E+00  0.00000000000E+00  0.10000000000E+04  0.10000000000E+04  0.00000000000E+00 0. -1.
          2   -1    0    0  501    0 -0.00000000000E+00 -0.00000000000E+00 -0.10747033334E+03  0.10747033334E+03  0.00000000000E+00 0. -1.
    9000006    2    1    2  501    0  0.00000000000E+00  0.00000000000E+00  0.89252966666E+03  0.11074703333E+04  0.65565336373E+03 0.  0.
         13    1    3    3    0    0 -0.47347541902E+02 -0.19449539407E+03  0.88478344525E+03  0.90714496804E+03  0.00000000000E+00 0. -1.
          4    1    3    3  501    0  0.47347541902E+02  0.19449539407E+03  0.77462214044E+01  0.20032536531E+03  0.00000000000E+00 0. -1.
<mgrwt>
<rscale>  0 0.65565336E+03</rscale>
<asrwt>0</asrwt>
<pdfrwt beam="1">0</pdfrwt>
<pdfrwt beam="2">  1        2 0.39080204E+00 0.65565336E+03</pdfrwt>
<totfact> 0.43089198E+00</totfact>
</mgrwt>
</event>
<event>
 5    1  0.2381755E-004  0.6554365E+03  0.7818608E-02  0.9796631E-01
         13   -1    0    0    0    0  0.00000000000E+00  0.00000000000E+00  0.10000000000E+04  0.10000000000E+04  0.00000000000E+00 0. -1.
          2   -1    0    0  501    0 -0.00000000000E+00 -0.00000000000E+00 -0.10739926460E+03  0.10739926460E+03  0.00000000000E+00 0. -1.
    9000006    2    1    2  501    0  0.00000000000E+00  0.00000000000E+00  0.89260073540E+03  0.11073992646E+04  0.65543654032E+03 0.  0.
         13    1    3    3    0    0 -0.64604114208E+02  0.31582781128E+03  0.54594668669E+03  0.63401788828E+03  0.00000000000E+00 0. -1.
          2    1    3    3  501    0  0.64604114208E+02 -0.31582781128E+03  0.34665404872E+03  0.47338137632E+03  0.00000000000E+00 0. -1.
<mgrwt>
<rscale>  0 0.65543654E+03</rscale>
<asrwt>0</asrwt>
<pdfrwt beam="1">0</pdfrwt>
<pdfrwt beam="2">  1        2 0.39054360E+00 0.65543654E+03</pdfrwt>
<totfact> 0.43185464E+00</totfact>
</mgrwt>
</event>
<event>
 5    1  0.2381755E-004  0.6463528E+03  0.7818608E-02  0.9813647E-01
         13   -1    0    0    0    0  0.00000000000E+00  0.00000000000E+00  0.10000000000E+04  0.10000000000E+04  0.00000000000E+00 0. -1.
          2   -1    0    0  501    0 -0.00000000000E+00 -0.00000000000E+00 -0.10444299944E+03  0.10444299944E+03  0.00000000000E+00 0. -1.
    9000006    2    1    2  501    0  0.00000000000E+00  0.00000000000E+00  0.89555700056E+03  0.11044429994E+04  0.64635284308E+03 0.  0.
         13    1    3    3    0    0 -0.10890533876E+03 -0.20006309206E+03  0.56045173278E+02  0.23457765252E+03  0.00000000000E+00 0. -1.
          2    1    3    3  501    0  0.10890533876E+03  0.20006309206E+03  0.83951182728E+03  0.86986534692E+03  0.00000000000E+00 0. -1.
<mgrwt>
<rscale>  0 0.64635284E+03</rscale>
<asrwt>0</asrwt>
<pdfrwt beam="1">0</pdfrwt>
<pdfrwt beam="2">  1        2 0.37979353E+00 0.64635284E+03</pdfrwt>
<totfact> 0.47366694E+00</totfact>
</mgrwt>
</event>
<event>
 5    1  0.2381755E-004  0.6480333E+03  0.7818608E-02  0.9810477E-01
         13   -1    0    0    0    0  0.00000000000E+00  0.00000000000E+00  0.10000000000E+04  0.10000000000E+04  0.00000000000E+00 0. -1.
          2   -1    0    0  501    0 -0.00000000000E+00 -0.00000000000E+00 -0.10498678685E+03  0.10498678685E+03  0.00000000000E+00 0. -1.
    9000006    2    1    2  501    0  0.00000000000E+00  0.00000000000E+00  0.89501321315E+03  0.11049867869E+04  0.64803329190E+03 0.  0.
         13    1    3    3    0    0  0.27112095384E+03  0.16597682190E+03  0.34058596841E+03  0.46589020047E+03  0.00000000000E+00 0. -1.
          2    1    3    3  501    0 -0.27112095384E+03 -0.16597682190E+03  0.55442724473E+03  0.63909658638E+03  0.00000000000E+00 0. -1.
<mgrwt>
<rscale>  0 0.64803329E+03</rscale>
<asrwt>0</asrwt>
<pdfrwt beam="1">0</pdfrwt>
<pdfrwt beam="2">  1        2 0.38177094E+00 0.64803329E+03</pdfrwt>
<totfact> 0.46571060E+00</totfact>
</mgrwt>
</event>
<event>
 5    1  0.2381755E-004  0.7388128E+03  0.7818608E-02  0.9653067E-01
         13   -1    0    0    0    0  0.00000000000E+00  0.00000000000E+00  0.10000000000E+04  0.10000000000E+04  0.00000000000E+00 0. -1.
          2   -1    0    0  501    0 -0.00000000000E+00 -0.00000000000E+00 -0.13646107078E+03  0.13646107078E+03  0.00000000000E+00 0. -1.
    9000006    2    1    2  501    0  0.00000000000E+00  0.00000000000E+00  0.86353892922E+03  0.11364610708E+04  0.73881275240E+03 0.  0.
         13    1    3    3    0    0 -0.89781393713E+02  0.11633182976E+03 -0.89567290565E+02  0.17209326777E+03  0.00000000000E+00 0. -1.
          2    1    3    3  501    0  0.89781393713E+02 -0.11633182976E+03  0.95310621979E+03  0.96436780301E+03  0.00000000000E+00 0. -1.
<mgrwt>
<rscale>  0 0.73881275E+03</rscale>
<asrwt>0</asrwt>
<pdfrwt beam="1">0</pdfrwt>
<pdfrwt beam="2">  1        2 0.49622312E+00 0.73881275E+03</pdfrwt>
<totfact> 0.16475049E+00</totfact>
</mgrwt>
</event>
<event>
 5    1  0.2381755E-004  0.6459789E+03  0.7818608E-02  0.9814354E-01
         13   -1    0    0    0    0  0.00000000000E+00  0.00000000000E+00  0.10000000000E+04  0.10000000000E+04  0.00000000000E+00 0. -1.
          2   -1    0    0  501    0 -0.00000000000E+00 -0.00000000000E+00 -0.10432219712E+03  0.10432219712E+03  0.00000000000E+00 0. -1.
    9000006    2    1    2  501    0  0.00000000000E+00  0.00000000000E+00  0.89567780288E+03  0.11043221971E+04  0.64597893810E+03 0.  0.
         13    1    3    3    0    0  0.60568803481E+02  0.15540243407E+03  0.92068375349E+03  0.93566931681E+03  0.00000000000E+00 0. -1.
          4    1    3    3  501    0 -0.60568803481E+02 -0.15540243407E+03 -0.25005950607E+02  0.16865288031E+03  0.00000000000E+00 0. -1.
<mgrwt>
<rscale>  0 0.64597894E+03</rscale>
<asrwt>0</asrwt>
<pdfrwt beam="1">0</pdfrwt>
<pdfrwt beam="2">  1        2 0.37935424E+00 0.64597894E+03</pdfrwt>
<totfact> 0.47545114E+00</totfact>
</mgrwt>
</event>
<event>
 5    1  0.2381755E-004  0.6471721E+03  0.7818608E-02  0.9812100E-01
         13   -1    0    0    0    0  0.00000000000E+00  0.00000000000E+00  0.10000000000E+04  0.10000000000E+04  0.00000000000E+00 0. -1.
          2   -1    0    0  501    0 -0.00000000000E+00 -0.00000000000E+00 -0.10470794242E+03  0.10470794242E+03  0.00000000000E+00 0. -1.
    9000006    2    1    2  501    0  0.00000000000E+00  0.00000000000E+00  0.89529205758E+03  0.11047079424E+04  0.64717213297E+03 0.  0.
         13    1    3    3    0    0 -0.20861430006E+03  0.61247945196E+02  0.85673938685E+03  0.88389683446E+03  0.00000000000E+00 0. -1.
          2    1    3    3  501    0  0.20861430006E+03 -0.61247945196E+02  0.38552670725E+02  0.22081110796E+03  0.00000000000E+00 0. -1.
<mgrwt>
<rscale>  0 0.64717213E+03</rscale>
<asrwt>0</asrwt>
<pdfrwt beam="1">0</pdfrwt>
<pdfrwt beam="2">  1        2 0.38075696E+00 0.64717213E+03</pdfrwt>
<totfact> 0.46977515E+00</totfact>
</mgrwt>
</event>
<event>
 5    1  0.2381755E-004  0.6538277E+03  0.7818608E-02  0.9799623E-01
         13   -1    0    0    0    0  0.00000000000E+00  0.00000000000E+00  0.10000000000E+04  0.10000000000E+04  0.00000000000E+00 0. -1.
          2   -1    0    0  501    0 -0.00000000000E+00 -0.00000000000E+00 -0.10687264977E+03  0.10687264977E+03  0.00000000000E+00 0. -1.
    9000006    2    1    2  501    0  0.00000000000E+00  0.00000000000E+00  0.89312735023E+03  0.11068726498E+04  0.65382765243E+03 0.  0.
         13    1    3    3    0    0  0.15074572269E+03  0.18304338877E+03  0.65588913923E+02  0.24603060930E+03  0.00000000000E+00 0. -1.
          2    1    3    3  501    0 -0.15074572269E+03 -0.18304338877E+03  0.82753843630E+03  0.86084204047E+03  0.00000000000E+00 0. -1.
<mgrwt>
<rscale>  0 0.65382765E+03</rscale>
<asrwt>0</asrwt>
<pdfrwt beam="1">0</pdfrwt>
<pdfrwt beam="2">  1        2 0.38862864E+00 0.65382765E+03</pdfrwt>
<totfact> 0.43904872E+00</totfact>
</mgrwt>
</event>
<event>
 5    1  0.2381755E-004  0.6628197E+03  0.7818608E-02  0.9783017E-01
         13   -1    0    0    0    0  0.00000000000E+00  0.00000000000E+00  0.10000000000E+04  0.10000000000E+04  0.00000000000E+00 0. -1.
          2   -1    0    0  501    0 -0.00000000000E+00 -0.00000000000E+00 -0.10983249762E+03  0.10983249762E+03  0.00000000000E+00 0. -1.
    9000006    2    1    2  501    0  0.00000000000E+00  0.00000000000E+00  0.89016750238E+03  0.11098324976E+04  0.66281972698E+03 0.  0.
         13    1    3    3    0    0  0.88986132266E+02 -0.30614403197E+03  0.29355376079E+03  0.43337802266E+03  0.00000000000E+00 0. -1.
          4    1    3    3  501    0 -0.88986132266E+02  0.30614403197E+03  0.59661374159E+03  0.67645447496E+03  0.00000000000E+00 0. -1.
<mgrwt>
<rscale>  0 0.66281973E+03</rscale>
<asrwt>0</asrwt>
<pdfrwt beam="1">0</pdfrwt>
<pdfrwt beam="2">  1        2 0.39939174E+00 0.66281973E+03</pdfrwt>
<totfact> 0.39997713E+00</totfact>
</mgrwt>
</event>
<event>
 5    1  0.2381755E-004  0.6184350E+03  0.7818608E-02  0.9867881E-01
         13   -1    0    0    0    0  0.00000000000E+00  0.00000000000E+00  0.10000000000E+04  0.10000000000E+04  0.00000000000E+00 0. -1.
          2   -1    0    0  501    0 -0.00000000000E+00 -0.00000000000E+00 -0.95615449924E+02  0.95615449924E+02  0.00000000000E+00 0. -1.
    9000006    2    1    2  501    0  0.00000000000E+00  0.00000000000E+00  0.90438455008E+03  0.10956154499E+04  0.61843495996E+03 0.  0.
         13    1    3    3    0    0 -0.19269952091E+03  0.56476103119E+02  0.35612304454E+02  0.20393845104E+03  0.00000000000E+00 0. -1.
          2    1    3    3  501    0  0.19269952091E+03 -0.56476103119E+02  0.86877224562E+03  0.89167699889E+03  0.00000000000E+00 0. -1.
<mgrwt>
<rscale>  0 0.61843496E+03</rscale>
<asrwt>0</asrwt>
<pdfrwt beam="1">0</pdfrwt>
<pdfrwt beam="2">  1        2 0.34769328E+00 0.61843496E+03</pdfrwt>
<totfact> 0.62156849E+00</totfact>
</mgrwt>
</event>
<event>
 5    1  0.2381755E-004  0.6558724E+03  0.7818608E-02  0.9795822E-01
         13   -1    0    0    0    0  0.00000000000E+00  0.00000000000E+00  0.10000000000E+04  0.10000000000E+04  0.00000000000E+00 0. -1.
          2   -1    0    0  501    0 -0.00000000000E+00 -0.00000000000E+00 -0.10754216251E+03  0.10754216251E+03  0.00000000000E+00 0. -1.
    9000006    2    1    2  501    0  0.00000000000E+00  0.00000000000E+00  0.89245783749E+03  0.11075421625E+04  0.65587243429E+03 0.  0.
         13    1    3    3    0    0 -0.19220495541E+03  0.25602044769E+03  0.32619242416E+03  0.45704563458E+03  0.00000000000E+00 0. -1.
          2    1    3    3  501    0  0.19220495541E+03 -0.25602044769E+03  0.56626541333E+03  0.65049652793E+03  0.00000000000E+00 0. -1.
<mgrwt>
<rscale>  0 0.65587243E+03</rscale>
<asrwt>0</asrwt>
<pdfrwt beam="1">0</pdfrwt>
<pdfrwt beam="2">  1        2 0.39106323E+00 0.65587243E+03</pdfrwt>
<totfact> 0.42992098E+00</totfact>
</mgrwt>
</event>
<event>
 5    1  0.2381755E-004  0.6439464E+03  0.7818608E-02  0.9818205E-01
         13   -1    0    0    0    0  0.00000000000E+00  0.00000000000E+00  0.10000000000E+04  0.10000000000E+04  0.00000000000E+00 0. -1.
          2   -1    0    0  501    0 -0.00000000000E+00 -0.00000000000E+00 -0.10366673714E+03  0.10366673714E+03  0.00000000000E+00 0. -1.
    9000006    2    1    2  501    0  0.00000000000E+00  0.00000000000E+00  0.89633326286E+03  0.11036667371E+04  0.64394638639E+03 0.  0.
         13    1    3    3    0    0 -0.23890387000E+03  0.18987366654E+03  0.27221158581E+03  0.40893302116E+03  0.00000000000E+00 0. -1.
          4    1    3    3  501    0  0.23890387000E+03 -0.18987366654E+03  0.62412167705E+03  0.69473371598E+03  0.00000000000E+00 0. -1.
<mgrwt>
<rscale>  0 0.64394639E+03</rscale>
<asrwt>0</asrwt>
<pdfrwt beam="1">0</pdfrwt>
<pdfrwt beam="2">  1        2 0.37697075E+00 0.64394639E+03</pdfrwt>
<totfact> 0.48523920E+00</totfact>
</mgrwt>
</event>
<event>
 5    1  0.2381755E-004  0.6394353E+03  0.7818608E-02  0.9826807E-01
         13   -1    0    0    0    0  0.00000000000E+00  0.00000000000E+00  0.10000000000E+04  0.10000000000E+04  0.00000000000E+00 0. -1.
          2   -1    0    0  501    0 -0.00000000000E+00 -0.00000000000E+00 -0.10221939041E+03  0.10221939041E+03  0.00000000000E+00 0. -1.
    9000006    2    1    2  501    0  0.00000000000E+00  0.00000000000E+00  0.89778060959E+03  0.11022193904E+04  0.63943534596E+03 0.  0.
         13    1    3    3    0    0 -0.25807587571E+03  0.43650881072E+02  0.76537750645E+03  0.80889510100E+03  0.00000000000E+00 0. -1.
          4    1    3    3  501    0  0.25807587571E+03 -0.43650881072E+02  0.13240310314E+03  0.29332428942E+03  0.00000000000E+00 0. -1.
<mgrwt>
<rscale>  0 0.63943535E+03</rscale>
<asrwt>0</asrwt>
<pdfrwt beam="1">0</pdfrwt>
<pdfrwt beam="2">  1        2 0.37170766E+00 0.63943535E+03</pdfrwt>
<totfact> 0.50750882E+00</totfact>
</mgrwt>
</event>
<event>
 5    1  0.2381755E-004  0.6433701E+03  0.7818608E-02  0.9819300E-01
         13   -1    0    0    0    0  0.00000000000E+00  0.00000000000E+00  0.10000000000E+04  0.10000000000E+04  0.00000000000E+00 0. -1.
          2   -1    0    0  501    0 -0.00000000000E+00 -0.00000000000E+00 -0.10348126993E+03  0.10348126993E+03  0.00000000000E+00 0. -1.
    9000006    2    1    2  501    0  0.00000000000E+00  0.00000000000E+00  0.89651873007E+03  0.11034812699E+04  0.64337009546E+03 0.  0.
         13    1    3    3    0    0  0.48251691290E+02  0.13387330891E+03 -0.46559903770E+02  0.14972679516E+03  0.00000000000E+00 0. -1.
          4    1    3    3  501    0 -0.48251691290E+02 -0.13387330891E+03  0.94307863384E+03  0.95375447477E+03  0.00000000000E+00 0. -1.
<mgrwt>
<rscale>  0 0.64337010E+03</rscale>
<asrwt>0</asrwt>
<pdfrwt beam="1">0</pdfrwt>
<pdfrwt beam="2">  1        2 0.37629632E+00 0.64337010E+03</pdfrwt>
<totfact> 0.48804196E+00</totfact>
</mgrwt>
</event>
<event>
 5    1  0.2381755E-004  0.6494300E+03  0.7818608E-02  0.9807849E-01
         13   -1    0    0    0    0  0.00000000000E+00  0.00000000000E+00  0.10000000000E+04  0.10000000000E+04  0.00000000000E+00 0. -1.
          2   -1    0    0  501    0 -0.00000000000E+00 -0.00000000000E+00 -0.10543982810E+03  0.10543982810E+03  0.00000000000E+00 0. -1.
    9000006    2    1    2  501    0  0.00000000000E+00  0.00000000000E+00  0.89456017190E+03  0.11054398281E+04  0.64942999037E+03 0.  0.
         13    1    3    3    0    0 -0.26082699613E+03  0.90603381451E+02  0.73814757759E+03  0.78809995619E+03  0.00000000000E+00 0. -1.
          4    1    3    3  501    0  0.26082699613E+03 -0.90603381451E+02  0.15641259431E+03  0.31733987191E+03  0.00000000000E+00 0. -1.
<mgrwt>
<rscale>  0 0.64942999E+03</rscale>
<asrwt>0</asrwt>
<pdfrwt beam="1">0</pdfrwt>
<pdfrwt beam="2">  1        2 0.38341837E+00 0.64942999E+03</pdfrwt>
<totfact> 0.45917498E+00</totfact>
</mgrwt>
</event>
<event>
 5    1  0.2381755E-004  0.6582639E+03  0.7818608E-02  0.9791395E-01
         13   -1    0    0    0    0  0.00000000000E+00  0.00000000000E+00  0.10000000000E+04  0.10000000000E+04  0.00000000000E+00 0. -1.
          2   -1    0    0  501    0 -0.00000000000E+00 -0.00000000000E+00 -0.10832785564E+03  0.10832785564E+03  0.00000000000E+00 0. -1.
    9000006    2    1    2  501    0  0.00000000000E+00  0.00000000000E+00  0.89167214436E+03  0.11083278556E+04  0.65826394595E+03 0.  0.
         13    1    3    3    0    0  0.10805019752E+03  0.17241081151E+03  0.88141870354E+03  0.90459895205E+03  0.00000000000E+00 0. -1.
          4    1    3    3  501    0 -0.10805019752E+03 -0.17241081151E+03  0.10253440829E+02  0.20372890359E+03  0.00000000000E+00 0. -1.
<mgrwt>
<rscale>  0 0.65826395E+03</rscale>
<asrwt>0</asrwt>
<pdfrwt beam="1">0</pdfrwt>
<pdfrwt beam="2">  1        2 0.39392031E+00 0.65826395E+03</pdfrwt>
<totfact> 0.41942811E+00</totfact>
</mgrwt>
</event>
<event>
 5    1  0.2381755E-004  0.6551788E+03  0.7818608E-02  0.9797110E-01
         13   -1    0    0    0    0  0.00000000000E+00  0.00000000000E+00  0.10000000000E+04  0.10000000000E+04  0.00000000000E+00 0. -1.
          2   -1    0    0  501    0 -0.00000000000E+00 -0.00000000000E+00 -0.10731480148E+03  0.10731480148E+03  0.00000000000E+00 0. -1.
    9000006    2    1    2  501    0  0.00000000000E+00  0.00000000000E+00  0.89268519852E+03  0.11073148015E+04  0.65517875874E+03 0.  0.
         13    1    3    3    0    0 -0.16452498629E+03 -0.15869679445E+03  0.84292728316E+03  0.87337251409E+03  0.00000000000E+00 0. -1.
          2    1    3    3  501    0  0.16452498629E+03  0.15869679445E+03  0.49757915364E+02  0.23394228738E+03  0.00000000000E+00 0. -1.
<mgrwt>
<rscale>  0 0.65517876E+03</rscale>
<asrwt>0</asrwt>
<pdfrwt beam="1">0</pdfrwt>
<pdfrwt beam="2">  1        2 0.39023646E+00 0.65517876E+03</pdfrwt>
<totfact> 0.43300127E+00</totfact>
</mgrwt>
</event>
<event>
 5    1  0.2381755E-004  0.6520373E+03  0.7818608E-02  0.9802964E-01
         13   -1    0    0    0    0  0.00000000000E+00  0.00000000000E+00  0.10000000000E+04  0.10000000000E+04  0.00000000000E+00 0. -1.
          2   -1    0    0  501    0 -0.00000000000E+00 -0.00000000000E+00 -0.10628816598E+03  0.10628816598E+03  0.00000000000E+00 0. -1.
    9000006    2    1    2  501    0  0.00000000000E+00  0.00000000000E+00  0.89371183402E+03  0.11062881660E+04  0.65203731789E+03 0.  0.
         13    1    3    3    0    0 -0.18870348301E+03  0.21933586693E+03  0.19195545210E+03  0.34722344767E+03  0.00000000000E+00 0. -1.
          4    1    3    3  501    0  0.18870348301E+03 -0.21933586693E+03  0.70175638192E+03  0.75906471831E+03  0.00000000000E+00 0. -1.
<mgrwt>
<rscale>  0 0.65203732E+03</rscale>
<asrwt>0</asrwt>
<pdfrwt beam="1">0</pdfrwt>
<pdfrwt beam="2">  1        2 0.38650324E+00 0.65203732E+03</pdfrwt>
<totfact> 0.44716014E+00</totfact>
</mgrwt>
</event>
<event>
 5    1  0.2381755E-004  0.6222365E+03  0.7818608E-02  0.9860317E-01
         13   -1    0    0    0    0  0.00000000000E+00  0.00000000000E+00  0.10000000000E+04  0.10000000000E+04  0.00000000000E+00 0. -1.
          2   -1    0    0  501    0 -0.00000000000E+00 -0.00000000000E+00 -0.96794552109E+02  0.96794552109E+02  0.00000000000E+00 0. -1.
    9000006    2    1    2  501    0  0.00000000000E+00  0.00000000000E+00  0.90320544789E+03  0.10967945521E+04  0.62223645701E+03 0.  0.
         13    1    3    3    0    0 -0.24486989971E+03  0.19179747087E+03  0.43951663720E+03  0.53844443724E+03  0.00000000000E+00 0. -1.
          2    1    3    3  501    0  0.24486989971E+03 -0.19179747087E+03  0.46368881069E+03  0.55835011487E+03  0.00000000000E+00 0. -1.
<mgrwt>
<rscale>  0 0.62223646E+03</rscale>
<asrwt>0</asrwt>
<pdfrwt beam="1">0</pdfrwt>
<pdfrwt beam="2">  1        2 0.35198093E+00 0.62223646E+03</pdfrwt>
<totfact> 0.59960416E+00</totfact>
</mgrwt>
</event>
<event>
 5    1  0.2381755E-004  0.6517546E+03  0.7818608E-02  0.9803492E-01
         13   -1    0    0    0    0  0.00000000000E+00  0.00000000000E+00  0.10000000000E+04  0.10000000000E+04  0.00000000000E+00 0. -1.
          2   -1    0    0  501    0 -0.00000000000E+00 -0.00000000000E+00 -0.10619601393E+03  0.10619601393E+03  0.00000000000E+00 0. -1.
    9000006    2    1    2  501    0  0.00000000000E+00  0.00000000000E+00  0.89380398607E+03  0.11061960139E+04  0.65175459777E+03 0.  0.
         13    1    3    3    0    0 -0.49378111238E+02  0.27323625063E+03  0.15737254363E+03  0.31915883822E+03  0.00000000000E+00 0. -1.
          2    1    3    3  501    0  0.49378111238E+02 -0.27323625063E+03  0.73643144244E+03  0.78703717571E+03  0.00000000000E+00 0. -1.
<mgrwt>
<rscale>  0 0.65175460E+03</rscale>
<asrwt>0</asrwt>
<pdfrwt beam="1">0</pdfrwt>
<pdfrwt beam="2">  1        2 0.38616814E+00 0.65175460E+03</pdfrwt>
<totfact> 0.44845133E+00</totfact>
</mgrwt>
</event>
<event>
 5    1  0.2381755E-004  0.6457634E+03  0.7818608E-02  0.9814761E-01
         13   -1    0    0    0    0  0.00000000000E+00  0.00000000000E+00  0.10000000000E+04  0.10000000000E+04  0.00000000000E+00 0. -1.
          2   -1    0    0  501    0 -0.00000000000E+00 -0.00000000000E+00 -0.10425260315E+03  0.10425260315E+03  0.00000000000E+00 0. -1.
    9000006    2    1    2  501    0  0.00000000000E+00  0.00000000000E+00  0.89574739685E+03  0.11042526031E+04  0.64576343393E+03 0.  0.
         13    1    3    3    0    0  0.28852502126E+03  0.11276982185E+03  0.60355733753E+03  0.67841372355E+03  0.00000000000E+00 0. -1.
          2    1    3    3  501    0 -0.28852502126E+03 -0.11276982185E+03  0.29219005932E+03  0.42583887960E+03  0.00000000000E+00 0. -1.
<mgrwt>
<rscale>  0 0.64576343E+03</rscale>
<asrwt>0</asrwt>
<pdfrwt beam="1">0</pdfrwt>
<pdfrwt beam="2">  1        2 0.37910117E+00 0.64576343E+03</pdfrwt>
<totfact> 0.47648179E+00</totfact>
</mgrwt>
</event>
<event>
 5    1  0.2381755E-004  0.6583269E+03  0.7818608E-02  0.9791279E-01
         13   -1    0    0    0    0  0.00000000000E+00  0.00000000000E+00  0.10000000000E+04  0.10000000000E+04  0.00000000000E+00 0. -1.
          2   -1    0    0  501    0 -0.00000000000E+00 -0.00000000000E+00 -0.10834858008E+03  0.10834858008E+03  0.00000000000E+00 0. -1.
    9000006    2    1    2  501    0  0.00000000000E+00  0.00000000000E+00  0.89165141992E+03  0.11083485801E+04  0.65832690992E+03 0.  0.
         13    1    3    3    0    0  0.29363518272E+03 -0.53894377779E+02  0.67924571007E+03  0.74195751842E+03  0.00000000000E+00 0. -1.
          4    1    3    3  501    0 -0.29363518272E+03  0.53894377779E+02  0.21240570985E+03  0.36639106166E+03  0.00000000000E+00 0. -1.
<mgrwt>
<rscale>  0 0.65832691E+03</rscale>
<asrwt>0</asrwt>
<pdfrwt beam="1">0</pdfrwt>
<pdfrwt beam="2">  1        2 0.39399567E+00 0.65832691E+03</pdfrwt>
<totfact> 0.41915452E+00</totfact>
</mgrwt>
</event>
<event>
 5    1  0.2381755E-004  0.4736982E+03  0.7818608E-02  0.1020882E+00
         13   -1    0    0    0    0  0.00000000000E+00  0.00000000000E+00  0.10000000000E+04  0.10000000000E+04  0.00000000000E+00 0. -1.
          2   -1    0    0  501    0 -0.00000000000E+00 -0.00000000000E+00 -0.56097505860E+02  0.56097505860E+02  0.00000000000E+00 0. -1.
    9000006    2    1    2  501    0  0.00000000000E+00  0.00000000000E+00  0.94390249414E+03  0.10560975059E+04  0.47369824091E+03 0.  0.
         13    1    3    3    0    0  0.21223229234E+03  0.10483474614E+03  0.45402706629E+03  0.51202875586E+03  0.00000000000E+00 0. -1.
          2    1    3    3  501    0 -0.21223229234E+03 -0.10483474614E+03  0.48987542785E+03  0.54406875000E+03  0.00000000000E+00 0. -1.
<mgrwt>
<rscale>  0 0.47369824E+03</rscale>
<asrwt>0</asrwt>
<pdfrwt beam="1">0</pdfrwt>
<pdfrwt beam="2">  1        2 0.20399136E+00 0.47369824E+03</pdfrwt>
<totfact> 0.20526118E+01</totfact>
</mgrwt>
</event>
<event>
 5    1  0.2381755E-004  0.6501378E+03  0.7818608E-02  0.9806521E-01
         13   -1    0    0    0    0  0.00000000000E+00  0.00000000000E+00  0.10000000000E+04  0.10000000000E+04  0.00000000000E+00 0. -1.
          2   -1    0    0  501    0 -0.00000000000E+00 -0.00000000000E+00 -0.10566977753E+03  0.10566977753E+03  0.00000000000E+00 0. -1.
    9000006    2    1    2  501    0  0.00000000000E+00  0.00000000000E+00  0.89433022247E+03  0.11056697775E+04  0.65013776240E+03 0.  0.
         13    1    3    3    0    0 -0.15670771096E+03 -0.23269465915E+02  0.92990082614E+03  0.94329969849E+03  0.00000000000E+00 0. -1.
          2    1    3    3  501    0  0.15670771096E+03  0.23269465915E+02 -0.35570603668E+02  0.16237007903E+03  0.00000000000E+00 0. -1.
<mgrwt>
<rscale>  0 0.65013776E+03</rscale>
<asrwt>0</asrwt>
<pdfrwt beam="1">0</pdfrwt>
<pdfrwt beam="2">  1        2 0.38425455E+00 0.65013776E+03</pdfrwt>
<totfact> 0.45588966E+00</totfact>
</mgrwt>
</event>
<event>
 5    1  0.2381755E-004  0.6254980E+03  0.7818608E-02  0.9853874E-01
         13   -1    0    0    0    0  0.00000000000E+00  0.00000000000E+00  0.10000000000E+04  0.10000000000E+04  0.00000000000E+00 0. -1.
          2   -1    0    0  501    0 -0.00000000000E+00 -0.00000000000E+00 -0.97811922393E+02  0.97811922393E+02  0.00000000000E+00 0. -1.
    9000006    2    1    2  501    0  0.00000000000E+00  0.00000000000E+00  0.90218807761E+03  0.10978119224E+04  0.62549795329E+03 0.  0.
         13    1    3    3    0    0  0.69524385339E+02  0.30482668750E+03  0.46457211818E+03  0.55998232344E+03  0.00000000000E+00 0. -1.
          4    1    3    3  501    0 -0.69524385339E+02 -0.30482668750E+03  0.43761595943E+03  0.53782959896E+03  0.00000000000E+00 0. -1.
<mgrwt>
<rscale>  0 0.62549795E+03</rscale>
<asrwt>0</asrwt>
<pdfrwt beam="1">0</pdfrwt>
<pdfrwt beam="2">  1        2 0.35568047E+00 0.62549795E+03</pdfrwt>
<totfact> 0.58123488E+00</totfact>
</mgrwt>
</event>
<event>
 5    1  0.2381755E-004  0.6533061E+03  0.7818608E-02  0.9800595E-01
         13   -1    0    0    0    0  0.00000000000E+00  0.00000000000E+00  0.10000000000E+04  0.10000000000E+04  0.00000000000E+00 0. -1.
          2   -1    0    0  501    0 -0.00000000000E+00 -0.00000000000E+00 -0.10670220623E+03  0.10670220623E+03  0.00000000000E+00 0. -1.
    9000006    2    1    2  501    0  0.00000000000E+00  0.00000000000E+00  0.89329779377E+03  0.11067022062E+04  0.65330607292E+03 0.  0.
         13    1    3    3    0    0 -0.10616373050E+03 -0.22034145439E+03  0.81343513527E+03  0.84941027395E+03  0.00000000000E+00 0. -1.
          4    1    3    3  501    0  0.10616373050E+03  0.22034145439E+03  0.79862658497E+02  0.25729193228E+03  0.00000000000E+00 0. -1.
<mgrwt>
<rscale>  0 0.65330607E+03</rscale>
<asrwt>0</asrwt>
<pdfrwt beam="1">0</pdfrwt>
<pdfrwt beam="2">  1        2 0.38800884E+00 0.65330607E+03</pdfrwt>
<totfact> 0.44140026E+00</totfact>
</mgrwt>
</event>
<event>
 5    1  0.2381755E-004  0.6420558E+03  0.7818608E-02  0.9821801E-01
         13   -1    0    0    0    0  0.00000000000E+00  0.00000000000E+00  0.10000000000E+04  0.10000000000E+04  0.00000000000E+00 0. -1.
          2   -1    0    0  501    0 -0.00000000000E+00 -0.00000000000E+00 -0.10305889851E+03  0.10305889851E+03  0.00000000000E+00 0. -1.
    9000006    2    1    2  501    0  0.00000000000E+00  0.00000000000E+00  0.89694110149E+03  0.11030588985E+04  0.64205575619E+03 0.  0.
         13    1    3    3    0    0 -0.31175575438E+03  0.67236022197E+02  0.51151395999E+03  0.60279255498E+03  0.00000000000E+00 0. -1.
          2    1    3    3  501    0  0.31175575438E+03 -0.67236022197E+02  0.38542714149E+03  0.50026634353E+03  0.00000000000E+00 0. -1.
<mgrwt>
<rscale>  0 0.64205576E+03</rscale>
<asrwt>0</asrwt>
<pdfrwt beam="1">0</pdfrwt>
<pdfrwt beam="2">  1        2 0.37476042E+00 0.64205576E+03</pdfrwt>
<totfact> 0.49448030E+00</totfact>
</mgrwt>
</event>
<event>
 5    1  0.2381755E-004  0.6687823E+03  0.7818608E-02  0.9772160E-01
         13   -1    0    0    0    0  0.00000000000E+00  0.00000000000E+00  0.10000000000E+04  0.10000000000E+04  0.00000000000E+00 0. -1.
          2   -1    0    0  501    0 -0.00000000000E+00 -0.00000000000E+00 -0.11181744500E+03  0.11181744500E+03  0.00000000000E+00 0. -1.
    9000006    2    1    2  501    0  0.00000000000E+00  0.00000000000E+00  0.88818255500E+03  0.11118174450E+04  0.66878231136E+03 0.  0.
         13    1    3    3    0    0  0.20291590082E+03 -0.18245671645E+03  0.76538806665E+03  0.81257874003E+03  0.00000000000E+00 0. -1.
          2    1    3    3  501    0 -0.20291590082E+03  0.18245671645E+03  0.12279448835E+03  0.29923870497E+03  0.00000000000E+00 0. -1.
<mgrwt>
<rscale>  0 0.66878231E+03</rscale>
<asrwt>0</asrwt>
<pdfrwt beam="1">0</pdfrwt>
<pdfrwt beam="2">  1        2 0.40660975E+00 0.66878231E+03</pdfrwt>
<totfact> 0.37555712E+00</totfact>
</mgrwt>
</event>
<event>
 5    1  0.2381755E-004  0.6565281E+03  0.7818608E-02  0.9794606E-01
         13   -1    0    0    0    0  0.00000000000E+00  0.00000000000E+00  0.10000000000E+04  0.10000000000E+04  0.00000000000E+00 0. -1.
          2   -1    0    0  501    0 -0.00000000000E+00 -0.00000000000E+00 -0.10775730009E+03  0.10775730009E+03  0.00000000000E+00 0. -1.
    9000006    2    1    2  501    0  0.00000000000E+00  0.00000000000E+00  0.89224269991E+03  0.11077573001E+04  0.65652814133E+03 0.  0.
         13    1    3    3    0    0  0.25313967555E+03 -0.93131076272E+02  0.76180449775E+03  0.80814552247E+03  0.00000000000E+00 0. -1.
          2    1    3    3  501    0 -0.25313967555E+03  0.93131076272E+02  0.13043820216E+03  0.29961177762E+03  0.00000000000E+00 0. -1.
<mgrwt>
<rscale>  0 0.65652814E+03</rscale>
<asrwt>0</asrwt>
<pdfrwt beam="1">0</pdfrwt>
<pdfrwt beam="2">  1        2 0.39184555E+00 0.65652814E+03</pdfrwt>
<totfact> 0.42702453E+00</totfact>
</mgrwt>
</event>
<event>
 5    1  0.2381755E-004  0.6374219E+03  0.7818608E-02  0.9830672E-01
         13   -1    0    0    0    0  0.00000000000E+00  0.00000000000E+00  0.10000000000E+04  0.10000000000E+04  0.00000000000E+00 0. -1.
          2   -1    0    0  501    0 -0.00000000000E+00 -0.00000000000E+00 -0.10157666910E+03  0.10157666910E+03  0.00000000000E+00 0. -1.
    9000006    2    1    2  501    0  0.00000000000E+00  0.00000000000E+00  0.89842333090E+03  0.11015766691E+04  0.63742189827E+03 0.  0.
         13    1    3    3    0    0 -0.48430276505E+02 -0.20382435842E+03  0.34137211316E+02  0.21226212560E+03  0.00000000000E+00 0. -1.
          2    1    3    3  501    0  0.48430276505E+02  0.20382435842E+03  0.86428611958E+03  0.88931454350E+03  0.00000000000E+00 0. -1.
<mgrwt>
<rscale>  0 0.63742190E+03</rscale>
<asrwt>0</asrwt>
<pdfrwt beam="1">0</pdfrwt>
<pdfrwt beam="2">  1        2 0.36937048E+00 0.63742190E+03</pdfrwt>
<totfact> 0.51769490E+00</totfact>
</mgrwt>
</event>
<event>
 5    1  0.2381755E-004  0.6546829E+03  0.7818608E-02  0.9798031E-01
         13   -1    0    0    0    0  0.00000000000E+00  0.00000000000E+00  0.10000000000E+04  0.10000000000E+04  0.00000000000E+00 0. -1.
          2   -1    0    0  501    0 -0.00000000000E+00 -0.00000000000E+00 -0.10715243525E+03  0.10715243525E+03  0.00000000000E+00 0. -1.
    9000006    2    1    2  501    0  0.00000000000E+00  0.00000000000E+00  0.89284756475E+03  0.11071524352E+04  0.65468293164E+03 0.  0.
         13    1    3    3    0    0  0.15835043337E+03  0.10370209290E+03 -0.52164026598E+01  0.18935732010E+03  0.00000000000E+00 0. -1.
          2    1    3    3  501    0 -0.15835043337E+03 -0.10370209290E+03  0.89806396741E+03  0.91779511515E+03  0.00000000000E+00 0. -1.
<mgrwt>
<rscale>  0 0.65468293E+03</rscale>
<asrwt>0</asrwt>
<pdfrwt beam="1">0</pdfrwt>
<pdfrwt beam="2">  1        2 0.38964604E+00 0.65468293E+03</pdfrwt>
<totfact> 0.43521320E+00</totfact>
</mgrwt>
</event>
<event>
 5    1  0.2381755E-004  0.6532514E+03  0.7818608E-02  0.9800697E-01
         13   -1    0    0    0    0  0.00000000000E+00  0.00000000000E+00  0.10000000000E+04  0.10000000000E+04  0.00000000000E+00 0. -1.
          2   -1    0    0  501    0 -0.00000000000E+00 -0.00000000000E+00 -0.10668435155E+03  0.10668435155E+03  0.00000000000E+00 0. -1.
    9000006    2    1    2  501    0  0.00000000000E+00  0.00000000000E+00  0.89331564845E+03  0.11066843515E+04  0.65325141117E+03 0.  0.
         13    1    3    3    0    0  0.28122863380E+03 -0.12780661341E+03  0.62642812409E+03  0.69845276831E+03  0.00000000000E+00 0. -1.
          4    1    3    3  501    0 -0.28122863380E+03  0.12780661341E+03  0.26688752436E+03  0.40823158324E+03  0.00000000000E+00 0. -1.
<mgrwt>
<rscale>  0 0.65325141E+03</rscale>
<asrwt>0</asrwt>
<pdfrwt beam="1">0</pdfrwt>
<pdfrwt beam="2">  1        2 0.38794391E+00 0.65325141E+03</pdfrwt>
<totfact> 0.44164725E+00</totfact>
</mgrwt>
</event>
<event>
 5    1  0.2381755E-004  0.6565189E+03  0.7818608E-02  0.9794623E-01
         13   -1    0    0    0    0  0.00000000000E+00  0.00000000000E+00  0.10000000000E+04  0.10000000000E+04  0.00000000000E+00 0. -1.
          2   -1    0    0  501    0 -0.00000000000E+00 -0.00000000000E+00 -0.10775427838E+03  0.10775427838E+03  0.00000000000E+00 0. -1.
    9000006    2    1    2  501    0  0.00000000000E+00  0.00000000000E+00  0.89224572162E+03  0.11077542784E+04  0.65651893614E+03 0.  0.
         13    1    3    3    0    0  0.59713749251E+02  0.28997931948E+03  0.20690144848E+03  0.36119516464E+03  0.00000000000E+00 0. -1.
          2    1    3    3  501    0 -0.59713749251E+02 -0.28997931948E+03  0.68534427314E+03  0.74655911374E+03  0.00000000000E+00 0. -1.
<mgrwt>
<rscale>  0 0.65651894E+03</rscale>
<asrwt>0</asrwt>
<pdfrwt beam="1">0</pdfrwt>
<pdfrwt beam="2">  1        2 0.39183457E+00 0.65651894E+03</pdfrwt>
<totfact> 0.42706509E+00</totfact>
</mgrwt>
</event>
<event>
 5    1  0.2381755E-004  0.7045553E+03  0.7818608E-02  0.9709474E-01
         13   -1    0    0    0    0  0.00000000000E+00  0.00000000000E+00  0.10000000000E+04  0.10000000000E+04  0.00000000000E+00 0. -1.
          2   -1    0    0  501    0 -0.00000000000E+00 -0.00000000000E+00 -0.12409953085E+03  0.12409953085E+03  0.00000000000E+00 0. -1.
    9000006    2    1    2  501    0  0.00000000000E+00  0.00000000000E+00  0.87590046915E+03  0.11240995308E+04  0.70455526639E+03 0.  0.
         13    1    3    3    0    0  0.12287164147E+03  0.32104534370E+03  0.31506789773E+03  0.46629961738E+03  0.00000000000E+00 0. -1.
          4    1    3    3  501    0 -0.12287164147E+03 -0.32104534370E+03  0.56083257142E+03  0.65779991347E+03  0.00000000000E+00 0. -1.
<mgrwt>
<rscale>  0 0.70455527E+03</rscale>
<asrwt>0</asrwt>
<pdfrwt beam="1">0</pdfrwt>
<pdfrwt beam="2">  1        2 0.45127197E+00 0.70455527E+03</pdfrwt>
<totfact> 0.25174811E+00</totfact>
</mgrwt>
</event>
<event>
 5    1  0.2381755E-004  0.6439095E+03  0.7818608E-02  0.9818275E-01
         13   -1    0    0    0    0  0.00000000000E+00  0.00000000000E+00  0.10000000000E+04  0.10000000000E+04  0.00000000000E+00 0. -1.
          2   -1    0    0  501    0 -0.00000000000E+00 -0.00000000000E+00 -0.10365485501E+03  0.10365485501E+03  0.00000000000E+00 0. -1.
    9000006    2    1    2  501    0  0.00000000000E+00  0.00000000000E+00  0.89634514499E+03  0.11036548550E+04  0.64390948125E+03 0.  0.
         13    1    3    3    0    0 -0.31340014282E+03 -0.37541725759E+02  0.55692422566E+03  0.64015125074E+03  0.00000000000E+00 0. -1.
          2    1    3    3  501    0  0.31340014282E+03  0.37541725759E+02  0.33942091933E+03  0.46350360427E+03  0.00000000000E+00 0. -1.
<mgrwt>
<rscale>  0 0.64390948E+03</rscale>
<asrwt>0</asrwt>
<pdfrwt beam="1">0</pdfrwt>
<pdfrwt beam="2">  1        2 0.37692754E+00 0.64390948E+03</pdfrwt>
<totfact> 0.48541832E+00</totfact>
</mgrwt>
</event>
<event>
 5    1  0.2381755E-004  0.6519067E+03  0.7818608E-02  0.9803208E-01
         13   -1    0    0    0    0  0.00000000000E+00  0.00000000000E+00  0.10000000000E+04  0.10000000000E+04  0.00000000000E+00 0. -1.
          2   -1    0    0  501    0 -0.00000000000E+00 -0.00000000000E+00 -0.10624557790E+03  0.10624557790E+03  0.00000000000E+00 0. -1.
    9000006    2    1    2  501    0  0.00000000000E+00  0.00000000000E+00  0.89375442210E+03  0.11062455779E+04  0.65190667400E+03 0.  0.
         13    1    3    3    0    0 -0.26025624226E+03 -0.16736567360E+03  0.27298449159E+03  0.41263193403E+03  0.00000000000E+00 0. -1.
          2    1    3    3  501    0  0.26025624226E+03  0.16736567360E+03  0.62076993051E+03  0.69361364387E+03  0.00000000000E+00 0. -1.
<mgrwt>
<rscale>  0 0.65190667E+03</rscale>
<asrwt>0</asrwt>
<pdfrwt beam="1">0</pdfrwt>
<pdfrwt beam="2">  1        2 0.38634837E+00 0.65190667E+03</pdfrwt>
<totfact> 0.44775644E+00</totfact>
</mgrwt>
</event>
<event>
 5    1  0.2381755E-004  0.6704692E+03  0.7818608E-02  0.9769110E-01
         13   -1    0    0    0    0  0.00000000000E+00  0.00000000000E+00  0.10000000000E+04  0.10000000000E+04  0.00000000000E+00 0. -1.
          2   -1    0    0  501    0 -0.00000000000E+00 -0.00000000000E+00 -0.11238225328E+03  0.11238225328E+03  0.00000000000E+00 0. -1.
    9000006    2    1    2  501    0  0.00000000000E+00  0.00000000000E+00  0.88761774672E+03  0.11123822533E+04  0.67046924844E+03 0.  0.
         13    1    3    3    0    0 -0.75863071785E+02  0.31063277568E+03  0.61083046946E+03  0.68946485727E+03  0.00000000000E+00 0. -1.
          2    1    3    3  501    0  0.75863071785E+02 -0.31063277568E+03  0.27678727727E+03  0.42291739601E+03  0.00000000000E+00 0. -1.
<mgrwt>
<rscale>  0 0.67046925E+03</rscale>
<asrwt>0</asrwt>
<pdfrwt beam="1">0</pdfrwt>
<pdfrwt beam="2">  1        2 0.40866360E+00 0.67046925E+03</pdfrwt>
<totfact> 0.36885690E+00</totfact>
</mgrwt>
</event>
<event>
 5    1  0.2381755E-004  0.6485678E+03  0.7818608E-02  0.9809470E-01
         13   -1    0    0    0    0  0.00000000000E+00  0.00000000000E+00  0.10000000000E+04  0.10000000000E+04  0.00000000000E+00 0. -1.
          2   -1    0    0  501    0 -0.00000000000E+00 -0.00000000000E+00 -0.10516003750E+03  0.10516003750E+03  0.00000000000E+00 0. -1.
    9000006    2    1    2  501    0  0.00000000000E+00  0.00000000000E+00  0.89483996250E+03  0.11051600375E+04  0.64856776826E+03 0.  0.
         13    1    3    3    0    0  0.21970889911E+03 -0.21257098851E+03  0.63174855277E+03  0.70182950881E+03  0.00000000000E+00 0. -1.
          2    1    3    3  501    0 -0.21970889911E+03  0.21257098851E+03  0.26309140972E+03  0.40333052869E+03  0.00000000000E+00 0. -1.
<mgrwt>
<rscale>  0 0.64856777E+03</rscale>
<asrwt>0</asrwt>
<pdfrwt beam="1">0</pdfrwt>
<pdfrwt beam="2">  1        2 0.38240094E+00 0.64856777E+03</pdfrwt>
<totfact> 0.46320136E+00</totfact>
</mgrwt>
</event>
<event>
 5    1  0.2381755E-004  0.6526461E+03  0.7818608E-02  0.9801827E-01
         13   -1    0    0    0    0  0.00000000000E+00  0.00000000000E+00  0.10000000000E+04  0.10000000000E+04  0.00000000000E+00 0. -1.
          2   -1    0    0  501    0 -0.00000000000E+00 -0.00000000000E+00 -0.10648672053E+03  0.10648672053E+03  0.00000000000E+00 0. -1.
    9000006    2    1    2  501    0  0.00000000000E+00  0.00000000000E+00  0.89351327947E+03  0.11064867205E+04  0.65264606190E+03 0.  0.
         13    1    3    3    0    0 -0.36819636438E+00 -0.30093064095E+03  0.23279297290E+03  0.38046281614E+03  0.00000000000E+00 0. -1.
          4    1    3    3  501    0  0.36819636438E+00  0.30093064095E+03  0.66072030657E+03  0.72602390439E+03  0.00000000000E+00 0. -1.
<mgrwt>
<rscale>  0 0.65264606E+03</rscale>
<asrwt>0</asrwt>
<pdfrwt beam="1">0</pdfrwt>
<pdfrwt beam="2">  1        2 0.38722525E+00 0.65264606E+03</pdfrwt>
<totfact> 0.44438953E+00</totfact>
</mgrwt>
</event>
<event>
 5    1  0.2381755E-004  0.6608250E+03  0.7818608E-02  0.9786676E-01
         13   -1    0    0    0    0  0.00000000000E+00  0.00000000000E+00  0.10000000000E+04  0.10000000000E+04  0.00000000000E+00 0. -1.
          2   -1    0    0  501    0 -0.00000000000E+00 -0.00000000000E+00 -0.10917240659E+03  0.10917240659E+03  0.00000000000E+00 0. -1.
    9000006    2    1    2  501    0  0.00000000000E+00  0.00000000000E+00  0.89082759341E+03  0.11091724066E+04  0.66082495895E+03 0.  0.
         13    1    3    3    0    0 -0.20410409924E+03 -0.20360420069E+03  0.71636656851E+03  0.77220088989E+03  0.00000000000E+00 0. -1.
          2    1    3    3  501    0  0.20410409924E+03  0.20360420069E+03  0.17446102490E+03  0.33697151671E+03  0.00000000000E+00 0. -1.
<mgrwt>
<rscale>  0 0.66082496E+03</rscale>
<asrwt>0</asrwt>
<pdfrwt beam="1">0</pdfrwt>
<pdfrwt beam="2">  1        2 0.39699141E+00 0.66082496E+03</pdfrwt>
<totfact> 0.40840808E+00</totfact>
</mgrwt>
</event>
<event>
 5    1  0.2381755E-004  0.6133002E+03  0.7818608E-02  0.9878190E-01
         13   -1    0    0    0    0  0.00000000000E+00  0.00000000000E+00  0.10000000000E+04  0.10000000000E+04  0.00000000000E+00 0. -1.
          2   -1    0    0  501    0 -0.00000000000E+00 -0.00000000000E+00 -0.94034278803E+02  0.94034278803E+02  0.00000000000E+00 0. -1.
    9000006    2    1    2  501    0  0.00000000000E+00  0.00000000000E+00  0.90596572120E+03  0.10940342788E+04  0.61330018361E+03 0.  0.
         13    1    3    3    0    0  0.29650066653E+03  0.27313903856E+02  0.58377169507E+03  0.65532288726E+03  0.00000000000E+00 0. -1.
          2    1    3    3  501    0 -0.29650066653E+03 -0.27313903856E+02  0.32219402613E+03  0.43871139154E+03  0.00000000000E+00 0. -1.
<mgrwt>
<rscale>  0 0.61330018E+03</rscale>
<asrwt>0</asrwt>
<pdfrwt beam="1">0</pdfrwt>
<pdfrwt beam="2">  1        2 0.34194355E+00 0.61330018E+03</pdfrwt>
<totfact> 0.65220287E+00</totfact>
</mgrwt>
</event>
<event>
 5    1  0.2381755E-004  0.6516255E+03  0.7818608E-02  0.9803734E-01
         13   -1    0    0    0    0  0.00000000000E+00  0.00000000000E+00  0.10000000000E+04  0.10000000000E+04  0.00000000000E+00 0. -1.
          2   -1    0    0  501    0 -0.00000000000E+00 -0.00000000000E+00 -0.10615393696E+03  0.10615393696E+03  0.00000000000E+00 0. -1.
    9000006    2    1    2  501    0  0.00000000000E+00  0.00000000000E+00  0.89384606304E+03  0.11061539370E+04  0.65162546594E+03 0.  0.
         13    1    3    3    0    0 -0.30117201468E+02 -0.47508591272E+02  0.99169490989E+03  0.99328893398E+03  0.00000000000E+00 0. -1.
          2    1    3    3  501    0  0.30117201468E+02  0.47508591272E+02 -0.97848846851E+02  0.11286500299E+03  0.00000000000E+00 0. -1.
<mgrwt>
<rscale>  0 0.65162547E+03</rscale>
<asrwt>0</asrwt>
<pdfrwt beam="1">0</pdfrwt>
<pdfrwt beam="2">  1        2 0.38601513E+00 0.65162547E+03</pdfrwt>
<totfact> 0.44904201E+00</totfact>
</mgrwt>
</event>
<event>
 5    1  0.2381755E-004  0.6401128E+03  0.7818608E-02  0.9825511E-01
         13   -1    0    0    0    0  0.00000000000E+00  0.00000000000E+00  0.10000000000E+04  0.10000000000E+04  0.00000000000E+00 0. -1.
          2   -1    0    0  501    0 -0.00000000000E+00 -0.00000000000E+00 -0.10243611415E+03  0.10243611415E+03  0.00000000000E+00 0. -1.
    9000006    2    1    2  501    0  0.00000000000E+00  0.00000000000E+00  0.89756388585E+03  0.11024361142E+04  0.64011284678E+03 0.  0.
         13    1    3    3    0    0  0.16428261367E+03 -0.18987182255E+02 -0.23149328193E+02  0.16698856739E+03  0.00000000000E+00 0. -1.
          2    1    3    3  501    0 -0.16428261367E+03  0.18987182255E+02  0.92071321404E+03  0.93544754676E+03  0.00000000000E+00 0. -1.
<mgrwt>
<rscale>  0 0.64011285E+03</rscale>
<asrwt>0</asrwt>
<pdfrwt beam="1">0</pdfrwt>
<pdfrwt beam="2">  1        2 0.37249575E+00 0.64011285E+03</pdfrwt>
<totfact> 0.50411571E+00</totfact>
</mgrwt>
</event>
<event>
 5    1  0.2381755E-004  0.6395533E+03  0.7818608E-02  0.9826582E-01
         13   -1    0    0    0    0  0.00000000000E+00  0.00000000000E+00  0.10000000000E+04  0.10000000000E+04  0.00000000000E+00 0. -1.
          2   -1    0    0  501    0 -0.00000000000E+00 -0.00000000000E+00 -0.10225711162E+03  0.10225711162E+03  0.00000000000E+00 0. -1.
    9000006    2    1    2  501    0  0.00000000000E+00  0.00000000000E+00  0.89774288838E+03  0.11022571116E+04  0.63955331794E+03 0.  0.
         13    1    3    3    0    0  0.18048786776E+03  0.48192387600E+02  0.15671016885E+01  0.18681764488E+03  0.00000000000E+00 0. -1.
          2    1    3    3  501    0 -0.18048786776E+03 -0.48192387600E+02  0.89617578669E+03  0.91543946675E+03  0.00000000000E+00 0. -1.
<mgrwt>
<rscale>  0 0.63955332E+03</rscale>
<asrwt>0</asrwt>
<pdfrwt beam="1">0</pdfrwt>
<pdfrwt beam="2">  1        2 0.37184483E+00 0.63955332E+03</pdfrwt>
<totfact> 0.50691675E+00</totfact>
</mgrwt>
</event>
<event>
 5    1  0.2381755E-004  0.6454168E+03  0.7818608E-02  0.9815417E-01
         13   -1    0    0    0    0  0.00000000000E+00  0.00000000000E+00  0.10000000000E+04  0.10000000000E+04  0.00000000000E+00 0. -1.
          2   -1    0    0  501    0 -0.00000000000E+00 -0.00000000000E+00 -0.10414070162E+03  0.10414070162E+03  0.00000000000E+00 0. -1.
    9000006    2    1    2  501    0  0.00000000000E+00  0.00000000000E+00  0.89585929838E+03  0.11041407016E+04  0.64541676961E+03 0.  0.
         13    1    3    3    0    0 -0.30130782023E+03  0.11552218709E+03  0.44281932040E+03  0.54792401733E+03  0.00000000000E+00 0. -1.
          4    1    3    3  501    0  0.30130782023E+03 -0.11552218709E+03  0.45303997798E+03  0.55621668430E+03  0.00000000000E+00 0. -1.
<mgrwt>
<rscale>  0 0.64541677E+03</rscale>
<asrwt>0</asrwt>
<pdfrwt beam="1">0</pdfrwt>
<pdfrwt beam="2">  1        2 0.37869426E+00 0.64541677E+03</pdfrwt>
<totfact> 0.47814326E+00</totfact>
</mgrwt>
</event>
<event>
 5    1  0.2381755E-004  0.6778590E+03  0.7818608E-02  0.9755864E-01
         13   -1    0    0    0    0  0.00000000000E+00  0.00000000000E+00  0.10000000000E+04  0.10000000000E+04  0.00000000000E+00 0. -1.
          2   -1    0    0  501    0 -0.00000000000E+00 -0.00000000000E+00 -0.11487319249E+03  0.11487319249E+03  0.00000000000E+00 0. -1.
    9000006    2    1    2  501    0  0.00000000000E+00  0.00000000000E+00  0.88512680751E+03  0.11148731925E+04  0.67785896024E+03 0.  0.
         13    1    3    3    0    0 -0.27981795599E+02 -0.77936414219E+01  0.99794909434E+03  0.99837173268E+03  0.00000000000E+00 0. -1.
          2    1    3    3  501    0  0.27981795599E+02  0.77936414219E+01 -0.11282228683E+03  0.11650145981E+03  0.00000000000E+00 0. -1.
<mgrwt>
<rscale>  0 0.67785896E+03</rscale>
<asrwt>0</asrwt>
<pdfrwt beam="1">0</pdfrwt>
<pdfrwt beam="2">  1        2 0.41772158E+00 0.67785896E+03</pdfrwt>
<totfact> 0.34056297E+00</totfact>
</mgrwt>
</event>
<event>
 5    1  0.2381755E-004  0.6422924E+03  0.7818608E-02  0.9821350E-01
         13   -1    0    0    0    0  0.00000000000E+00  0.00000000000E+00  0.10000000000E+04  0.10000000000E+04  0.00000000000E+00 0. -1.
          2   -1    0    0  501    0 -0.00000000000E+00 -0.00000000000E+00 -0.10313487981E+03  0.10313487981E+03  0.00000000000E+00 0. -1.
    9000006    2    1    2  501    0  0.00000000000E+00  0.00000000000E+00  0.89686512019E+03  0.11031348798E+04  0.64229239389E+03 0.  0.
         13    1    3    3    0    0  0.19303987030E+03 -0.16817020369E+03  0.78141995093E+03  0.82229115807E+03  0.00000000000E+00 0. -1.
          2    1    3    3  501    0 -0.19303987030E+03  0.16817020369E+03  0.11544516926E+03  0.28084372174E+03  0.00000000000E+00 0. -1.
<mgrwt>
<rscale>  0 0.64229239E+03</rscale>
<asrwt>0</asrwt>
<pdfrwt beam="1">0</pdfrwt>
<pdfrwt beam="2">  1        2 0.37503672E+00 0.64229239E+03</pdfrwt>
<totfact> 0.49331635E+00</totfact>
</mgrwt>
</event>
<event>
 5    1  0.2381755E-004  0.6457213E+03  0.7818608E-02  0.9814841E-01
         13   -1    0    0    0    0  0.00000000000E+00  0.00000000000E+00  0.10000000000E+04  0.10000000000E+04  0.00000000000E+00 0. -1.
          2   -1    0    0  501    0 -0.00000000000E+00 -0.00000000000E+00 -0.10423898451E+03  0.10423898451E+03  0.00000000000E+00 0. -1.
    9000006    2    1    2  501    0  0.00000000000E+00  0.00000000000E+00  0.89576101549E+03  0.11042389845E+04  0.64572125412E+03 0.  0.
         13    1    3    3    0    0  0.79228118033E+02 -0.21737512981E+03  0.83297255882E+03  0.86450698406E+03  0.00000000000E+00 0. -1.
          2    1    3    3  501    0 -0.79228118033E+02  0.21737512981E+03  0.62788456678E+02  0.23973200045E+03  0.00000000000E+00 0. -1.
<mgrwt>
<rscale>  0 0.64572125E+03</rscale>
<asrwt>0</asrwt>
<pdfrwt beam="1">0</pdfrwt>
<pdfrwt beam="2">  1        2 0.37905165E+00 0.64572125E+03</pdfrwt>
<totfact> 0.47668371E+00</totfact>
</mgrwt>
</event>
<event>
 5    1  0.2381755E-004  0.6441470E+03  0.7818608E-02  0.9817824E-01
         13   -1    0    0    0    0  0.00000000000E+00  0.00000000000E+00  0.10000000000E+04  0.10000000000E+04  0.00000000000E+00 0. -1.
          2   -1    0    0  501    0 -0.00000000000E+00 -0.00000000000E+00 -0.10373134452E+03  0.10373134452E+03  0.00000000000E+00 0. -1.
    9000006    2    1    2  501    0  0.00000000000E+00  0.00000000000E+00  0.89626865548E+03  0.11037313445E+04  0.64414701589E+03 0.  0.
         13    1    3    3    0    0 -0.17771832144E+03  0.91291150992E+02  0.15287187736E+02  0.20037857703E+03  0.00000000000E+00 0. -1.
          2    1    3    3  501    0  0.17771832144E+03 -0.91291150992E+02  0.88098146774E+03  0.90335276749E+03  0.00000000000E+00 0. -1.
<mgrwt>
<rscale>  0 0.64414702E+03</rscale>
<asrwt>0</asrwt>
<pdfrwt beam="1">0</pdfrwt>
<pdfrwt beam="2">  1        2 0.37720568E+00 0.64414702E+03</pdfrwt>
<totfact> 0.48426632E+00</totfact>
</mgrwt>
</event>
<event>
 5    1  0.2381755E-004  0.6543925E+03  0.7818608E-02  0.9798572E-01
         13   -1    0    0    0    0  0.00000000000E+00  0.00000000000E+00  0.10000000000E+04  0.10000000000E+04  0.00000000000E+00 0. -1.
          2   -1    0    0  501    0 -0.00000000000E+00 -0.00000000000E+00 -0.10705739253E+03  0.10705739253E+03  0.00000000000E+00 0. -1.
    9000006    2    1    2  501    0  0.00000000000E+00  0.00000000000E+00  0.89294260747E+03  0.11070573925E+04  0.65439251991E+03 0.  0.
         13    1    3    3    0    0  0.86323782943E+02  0.12572624768E+03 -0.43251077064E+02  0.15852299683E+03  0.00000000000E+00 0. -1.
          2    1    3    3  501    0 -0.86323782943E+02 -0.12572624768E+03  0.93619368453E+03  0.94853439570E+03  0.00000000000E+00 0. -1.
<mgrwt>
<rscale>  0 0.65439252E+03</rscale>
<asrwt>0</asrwt>
<pdfrwt beam="1">0</pdfrwt>
<pdfrwt beam="2">  1        2 0.38930043E+00 0.65439252E+03</pdfrwt>
<totfact> 0.43651271E+00</totfact>
</mgrwt>
</event>
<event>
 5    1  0.2381755E-004  0.6383480E+03  0.7818608E-02  0.9828892E-01
         13   -1    0    0    0    0  0.00000000000E+00  0.00000000000E+00  0.10000000000E+04  0.10000000000E+04  0.00000000000E+00 0. -1.
          2   -1    0    0  501    0 -0.00000000000E+00 -0.00000000000E+00 -0.10187203761E+03  0.10187203761E+03  0.00000000000E+00 0. -1.
    9000006    2    1    2  501    0  0.00000000000E+00  0.00000000000E+00  0.89812796239E+03  0.11018720376E+04  0.63834798539E+03 0.  0.
         13    1    3    3    0    0  0.23244513481E+03  0.88049544195E+02  0.79467213311E+03  0.83263873443E+03  0.00000000000E+00 0. -1.
          2    1    3    3  501    0 -0.23244513481E+03 -0.88049544195E+02  0.10345582928E+03  0.26923330319E+03  0.00000000000E+00 0. -1.
<mgrwt>
<rscale>  0 0.63834799E+03</rscale>
<asrwt>0</asrwt>
<pdfrwt beam="1">0</pdfrwt>
<pdfrwt beam="2">  1        2 0.37044455E+00 0.63834799E+03</pdfrwt>
<totfact> 0.51299076E+00</totfact>
</mgrwt>
</event>
<event>
 5    1  0.2381755E-004  0.6564972E+03  0.7818608E-02  0.9794663E-01
         13   -1    0    0    0    0  0.00000000000E+00  0.00000000000E+00  0.10000000000E+04  0.10000000000E+04  0.00000000000E+00 0. -1.
          2   -1    0    0  501    0 -0.00000000000E+00 -0.00000000000E+00 -0.10774715055E+03  0.10774715055E+03  0.00000000000E+00 0. -1.
    9000006    2    1    2  501    0  0.00000000000E+00  0.00000000000E+00  0.89225284945E+03  0.11077471505E+04  0.65649722177E+03 0.  0.
         13    1    3    3    0    0  0.19153884039E+03  0.19989083236E+03  0.14853965115E+03  0.31417749792E+03  0.00000000000E+00 0. -1.
          4    1    3    3  501    0 -0.19153884039E+03 -0.19989083236E+03  0.74371319830E+03  0.79356965263E+03  0.00000000000E+00 0. -1.
<mgrwt>
<rscale>  0 0.65649722E+03</rscale>
<asrwt>0</asrwt>
<pdfrwt beam="1">0</pdfrwt>
<pdfrwt beam="2">  1        2 0.39180865E+00 0.65649722E+03</pdfrwt>
<totfact> 0.42716078E+00</totfact>
</mgrwt>
</event>
<event>
 5    1  0.2381755E-004  0.4798245E+03  0.7818608E-02  0.1019183E+00
         13   -1    0    0    0    0  0.00000000000E+00  0.00000000000E+00  0.10000000000E+04  0.10000000000E+04  0.00000000000E+00 0. -1.
          2   -1    0    0  501    0 -0.00000000000E+00 -0.00000000000E+00 -0.57557897409E+02  0.57557897409E+02  0.00000000000E+00 0. -1.
    9000006    2    1    2  501    0  0.00000000000E+00  0.00000000000E+00  0.94244210259E+03  0.10575578974E+04  0.47982454047E+03 0.  0.
         13    1    3    3    0    0  0.16552665883E+03 -0.14382970523E+03  0.68572675244E+03  0.71993557899E+03  0.00000000000E+00 0. -1.
          2    1    3    3  501    0 -0.16552665883E+03  0.14382970523E+03  0.25671535015E+03  0.33762231842E+03  0.00000000000E+00 0. -1.
<mgrwt>
<rscale>  0 0.47982454E+03</rscale>
<asrwt>0</asrwt>
<pdfrwt beam="1">0</pdfrwt>
<pdfrwt beam="2">  1        2 0.20930189E+00 0.47982454E+03</pdfrwt>
<totfact> 0.19612854E+01</totfact>
</mgrwt>
</event>
<event>
 5    1  0.2381755E-004  0.6547982E+03  0.7818608E-02  0.9797817E-01
         13   -1    0    0    0    0  0.00000000000E+00  0.00000000000E+00  0.10000000000E+04  0.10000000000E+04  0.00000000000E+00 0. -1.
          2   -1    0    0  501    0 -0.00000000000E+00 -0.00000000000E+00 -0.10719016035E+03  0.10719016035E+03  0.00000000000E+00 0. -1.
    9000006    2    1    2  501    0  0.00000000000E+00  0.00000000000E+00  0.89280983965E+03  0.11071901604E+04  0.65479816845E+03 0.  0.
         13    1    3    3    0    0  0.26694843968E+03  0.14905124404E+03  0.64440792248E+03  0.71325963951E+03  0.00000000000E+00 0. -1.
          4    1    3    3  501    0 -0.26694843968E+03 -0.14905124404E+03  0.24840191717E+03  0.39393052084E+03  0.00000000000E+00 0. -1.
<mgrwt>
<rscale>  0 0.65479817E+03</rscale>
<asrwt>0</asrwt>
<pdfrwt beam="1">0</pdfrwt>
<pdfrwt beam="2">  1        2 0.38978322E+00 0.65479817E+03</pdfrwt>
<totfact> 0.43469836E+00</totfact>
</mgrwt>
</event>
<event>
 5    1  0.2381755E-004  0.6720898E+03  0.7818608E-02  0.9766190E-01
         13   -1    0    0    0    0  0.00000000000E+00  0.00000000000E+00  0.10000000000E+04  0.10000000000E+04  0.00000000000E+00 0. -1.
          2   -1    0    0  501    0 -0.00000000000E+00 -0.00000000000E+00 -0.11292615893E+03  0.11292615893E+03  0.00000000000E+00 0. -1.
    9000006    2    1    2  501    0  0.00000000000E+00  0.00000000000E+00  0.88707384107E+03  0.11129261589E+04  0.67208975274E+03 0.  0.
         13    1    3    3    0    0  0.13981849278E+03  0.18482397752E+03  0.40576451090E+02  0.23527762744E+03  0.00000000000E+00 0. -1.
          2    1    3    3  501    0 -0.13981849278E+03 -0.18482397752E+03  0.84649738998E+03  0.87764853149E+03  0.00000000000E+00 0. -1.
<mgrwt>
<rscale>  0 0.67208975E+03</rscale>
<asrwt>0</asrwt>
<pdfrwt beam="1">0</pdfrwt>
<pdfrwt beam="2">  1        2 0.41064144E+00 0.67208975E+03</pdfrwt>
<totfact> 0.36250576E+00</totfact>
</mgrwt>
</event>
<event>
 5    1  0.2381755E-004  0.6197058E+03  0.7818608E-02  0.9865346E-01
         13   -1    0    0    0    0  0.00000000000E+00  0.00000000000E+00  0.10000000000E+04  0.10000000000E+04  0.00000000000E+00 0. -1.
          2   -1    0    0  501    0 -0.00000000000E+00 -0.00000000000E+00 -0.96008805655E+02  0.96008805655E+02  0.00000000000E+00 0. -1.
    9000006    2    1    2  501    0  0.00000000000E+00  0.00000000000E+00  0.90399119435E+03  0.10960088057E+04  0.61970575487E+03 0.  0.
         13    1    3    3    0    0  0.27645947091E+03 -0.54302832186E+02  0.68007015720E+03  0.73612095158E+03  0.00000000000E+00 0. -1.
          4    1    3    3  501    0 -0.27645947091E+03  0.54302832186E+02  0.22392103715E+03  0.35988785408E+03  0.00000000000E+00 0. -1.
<mgrwt>
<rscale>  0 0.61970575E+03</rscale>
<asrwt>0</asrwt>
<pdfrwt beam="1">0</pdfrwt>
<pdfrwt beam="2">  1        2 0.34912367E+00 0.61970575E+03</pdfrwt>
<totfact> 0.61415909E+00</totfact>
</mgrwt>
</event>
<event>
 5    1  0.2381755E-004  0.6593412E+03  0.7818608E-02  0.9789407E-01
         13   -1    0    0    0    0  0.00000000000E+00  0.00000000000E+00  0.10000000000E+04  0.10000000000E+04  0.00000000000E+00 0. -1.
          2   -1    0    0  501    0 -0.00000000000E+00 -0.00000000000E+00 -0.10868271652E+03  0.10868271652E+03  0.00000000000E+00 0. -1.
    9000006    2    1    2  501    0  0.00000000000E+00  0.00000000000E+00  0.89131728348E+03  0.11086827165E+04  0.65934123645E+03 0.  0.
         13    1    3    3    0    0 -0.14399885493E+03  0.23114261508E+03  0.13324261889E+03  0.30317680356E+03  0.00000000000E+00 0. -1.
          2    1    3    3  501    0  0.14399885493E+03 -0.23114261508E+03  0.75807466459E+03  0.80550591296E+03  0.00000000000E+00 0. -1.
<mgrwt>
<rscale>  0 0.65934124E+03</rscale>
<asrwt>0</asrwt>
<pdfrwt beam="1">0</pdfrwt>
<pdfrwt beam="2">  1        2 0.39521071E+00 0.65934124E+03</pdfrwt>
<totfact> 0.41476553E+00</totfact>
</mgrwt>
</event>
<event>
 5    1  0.2381755E-004  0.6765815E+03  0.7818608E-02  0.9758141E-01
         13   -1    0    0    0    0  0.00000000000E+00  0.00000000000E+00  0.10000000000E+04  0.10000000000E+04  0.00000000000E+00 0. -1.
          2   -1    0    0  501    0 -0.00000000000E+00 -0.00000000000E+00 -0.11444064208E+03  0.11444064208E+03  0.00000000000E+00 0. -1.
    9000006    2    1    2  501    0  0.00000000000E+00  0.00000000000E+00  0.88555935792E+03  0.11144406421E+04  0.67658153117E+03 0.  0.
         13    1    3    3    0    0  0.49451491010E+02 -0.94165957956E+02  0.97174235153E+03  0.97754584310E+03  0.00000000000E+00 0. -1.
          4    1    3    3  501    0 -0.49451491010E+02  0.94165957956E+02 -0.86182993611E+02  0.13689479898E+03  0.00000000000E+00 0. -1.
<mgrwt>
<rscale>  0 0.67658153E+03</rscale>
<asrwt>0</asrwt>
<pdfrwt beam="1">0</pdfrwt>
<pdfrwt beam="2">  1        2 0.41614867E+00 0.67658153E+03</pdfrwt>
<totfact> 0.34533279E+00</totfact>
</mgrwt>
</event>
<event>
 5    1  0.2381755E-004  0.6536840E+03  0.7818608E-02  0.9799891E-01
         13   -1    0    0    0    0  0.00000000000E+00  0.00000000000E+00  0.10000000000E+04  0.10000000000E+04  0.00000000000E+00 0. -1.
          2   -1    0    0  501    0 -0.00000000000E+00 -0.00000000000E+00 -0.10682570814E+03  0.10682570814E+03  0.00000000000E+00 0. -1.
    9000006    2    1    2  501    0  0.00000000000E+00  0.00000000000E+00  0.89317429186E+03  0.11068257081E+04  0.65368404643E+03 0.  0.
         13    1    3    3    0    0  0.31712958800E+03  0.48963334872E+02  0.55174535341E+03  0.63827229202E+03  0.00000000000E+00 0. -1.
          2    1    3    3  501    0 -0.31712958800E+03 -0.48963334872E+02  0.34142893845E+03  0.46855341612E+03  0.00000000000E+00 0. -1.
<mgrwt>
<rscale>  0 0.65368405E+03</rscale>
<asrwt>0</asrwt>
<pdfrwt beam="1">0</pdfrwt>
<pdfrwt beam="2">  1        2 0.38845794E+00 0.65368405E+03</pdfrwt>
<totfact> 0.43969522E+00</totfact>
</mgrwt>
</event>
<event>
 5    1  0.2381755E-004  0.6236901E+03  0.7818608E-02  0.9857440E-01
         13   -1    0    0    0    0  0.00000000000E+00  0.00000000000E+00  0.10000000000E+04  0.10000000000E+04  0.00000000000E+00 0. -1.
          2   -1    0    0  501    0 -0.00000000000E+00 -0.00000000000E+00 -0.97247330022E+02  0.97247330022E+02  0.00000000000E+00 0. -1.
    9000006    2    1    2  501    0  0.00000000000E+00  0.00000000000E+00  0.90275266998E+03  0.10972473300E+04  0.62369008337E+03 0.  0.
         13    1    3    3    0    0  0.30648488986E+03  0.19161758679E+02  0.54688400216E+03  0.62720193919E+03  0.00000000000E+00 0. -1.
          2    1    3    3  501    0 -0.30648488986E+03 -0.19161758679E+02  0.35586866782E+03  0.47004539083E+03  0.00000000000E+00 0. -1.
<mgrwt>
<rscale>  0 0.62369008E+03</rscale>
<asrwt>0</asrwt>
<pdfrwt beam="1">0</pdfrwt>
<pdfrwt beam="2">  1        2 0.35362740E+00 0.62369008E+03</pdfrwt>
<totfact> 0.59136339E+00</totfact>
</mgrwt>
</event>
<event>
 5    1  0.2381755E-004  0.6549789E+03  0.7818608E-02  0.9797481E-01
         13   -1    0    0    0    0  0.00000000000E+00  0.00000000000E+00  0.10000000000E+04  0.10000000000E+04  0.00000000000E+00 0. -1.
          2   -1    0    0  501    0 -0.00000000000E+00 -0.00000000000E+00 -0.10724932438E+03  0.10724932438E+03  0.00000000000E+00 0. -1.
    9000006    2    1    2  501    0  0.00000000000E+00  0.00000000000E+00  0.89275067562E+03  0.11072493244E+04  0.65497885274E+03 0.  0.
         13    1    3    3    0    0 -0.10347299113E+03  0.23141419563E+03  0.95863614587E+02  0.27101480114E+03  0.00000000000E+00 0. -1.
          2    1    3    3  501    0  0.10347299113E+03 -0.23141419563E+03  0.79688706103E+03  0.83623452325E+03  0.00000000000E+00 0. -1.
<mgrwt>
<rscale>  0 0.65497885E+03</rscale>
<asrwt>0</asrwt>
<pdfrwt beam="1">0</pdfrwt>
<pdfrwt beam="2">  1        2 0.38999837E+00 0.65497885E+03</pdfrwt>
<totfact> 0.43389204E+00</totfact>
</mgrwt>
</event>
<event>
 5    1  0.2381755E-004  0.6480496E+03  0.7818608E-02  0.9810446E-01
         13   -1    0    0    0    0  0.00000000000E+00  0.00000000000E+00  0.10000000000E+04  0.10000000000E+04  0.00000000000E+00 0. -1.
          2   -1    0    0  501    0 -0.00000000000E+00 -0.00000000000E+00 -0.10499207594E+03  0.10499207594E+03  0.00000000000E+00 0. -1.
    9000006    2    1    2  501    0  0.00000000000E+00  0.00000000000E+00  0.89500792406E+03  0.11049920759E+04  0.64804961520E+03 0.  0.
         13    1    3    3    0    0 -0.19603066165E+03 -0.24853009808E+03  0.56559822329E+03  0.64814857876E+03  0.00000000000E+00 0. -1.
          2    1    3    3  501    0  0.19603066165E+03  0.24853009808E+03  0.32940970077E+03  0.45684349718E+03  0.00000000000E+00 0. -1.
<mgrwt>
<rscale>  0 0.64804962E+03</rscale>
<asrwt>0</asrwt>
<pdfrwt beam="1">0</pdfrwt>
<pdfrwt beam="2">  1        2 0.38179017E+00 0.64804962E+03</pdfrwt>
<totfact> 0.46563382E+00</totfact>
</mgrwt>
</event>
<event>
 5    1  0.2381755E-004  0.7165338E+03  0.7818608E-02  0.9689368E-01
         13   -1    0    0    0    0  0.00000000000E+00  0.00000000000E+00  0.10000000000E+04  0.10000000000E+04  0.00000000000E+00 0. -1.
          2   -1    0    0  501    0 -0.00000000000E+00 -0.00000000000E+00 -0.12835518371E+03  0.12835518371E+03  0.00000000000E+00 0. -1.
    9000006    2    1    2  501    0  0.00000000000E+00  0.00000000000E+00  0.87164481629E+03  0.11283551837E+04  0.71653383370E+03 0.  0.
         13    1    3    3    0    0  0.20808582523E+03  0.24748063390E+03  0.67880656696E+03  0.75188079518E+03  0.00000000000E+00 0. -1.
          4    1    3    3  501    0 -0.20808582523E+03 -0.24748063390E+03  0.19283824933E+03  0.37647438853E+03  0.00000000000E+00 0. -1.
<mgrwt>
<rscale>  0 0.71653383E+03</rscale>
<asrwt>0</asrwt>
<pdfrwt beam="1">0</pdfrwt>
<pdfrwt beam="2">  1        2 0.46674711E+00 0.71653383E+03</pdfrwt>
<totfact> 0.21813946E+00</totfact>
</mgrwt>
</event>
<event>
 5    1  0.2381755E-004  0.6443700E+03  0.7818608E-02  0.9817401E-01
         13   -1    0    0    0    0  0.00000000000E+00  0.00000000000E+00  0.10000000000E+04  0.10000000000E+04  0.00000000000E+00 0. -1.
          2   -1    0    0  501    0 -0.00000000000E+00 -0.00000000000E+00 -0.10380316220E+03  0.10380316220E+03  0.00000000000E+00 0. -1.
    9000006    2    1    2  501    0  0.00000000000E+00  0.00000000000E+00  0.89619683780E+03  0.11038031622E+04  0.64436996267E+03 0.  0.
         13    1    3    3    0    0  0.31197539794E+03  0.51200870585E+02  0.34176862878E+03  0.46557058937E+03  0.00000000000E+00 0. -1.
          4    1    3    3  501    0 -0.31197539794E+03 -0.51200870585E+02  0.55442820902E+03  0.63823257283E+03  0.00000000000E+00 0. -1.
<mgrwt>
<rscale>  0 0.64436996E+03</rscale>
<asrwt>0</asrwt>
<pdfrwt beam="1">0</pdfrwt>
<pdfrwt beam="2">  1        2 0.37746684E+00 0.64436996E+03</pdfrwt>
<totfact> 0.48318694E+00</totfact>
</mgrwt>
</event>
<event>
 5    1  0.2381755E-004  0.6749299E+03  0.7818608E-02  0.9761093E-01
         13   -1    0    0    0    0  0.00000000000E+00  0.00000000000E+00  0.10000000000E+04  0.10000000000E+04  0.00000000000E+00 0. -1.
          2   -1    0    0  501    0 -0.00000000000E+00 -0.00000000000E+00 -0.11388258539E+03  0.11388258539E+03  0.00000000000E+00 0. -1.
    9000006    2    1    2  501    0  0.00000000000E+00  0.00000000000E+00  0.88611741461E+03  0.11138825854E+04  0.67492987900E+03 0.  0.
         13    1    3    3    0    0  0.24811378514E+03  0.70155049999E+02  0.83746658203E+02  0.27110087454E+03  0.00000000000E+00 0. -1.
          2    1    3    3  501    0 -0.24811378514E+03 -0.70155049999E+02  0.80237075641E+03  0.84278171085E+03  0.00000000000E+00 0. -1.
<mgrwt>
<rscale>  0 0.67492988E+03</rscale>
<asrwt>0</asrwt>
<pdfrwt beam="1">0</pdfrwt>
<pdfrwt beam="2">  1        2 0.41411937E+00 0.67492988E+03</pdfrwt>
<totfact> 0.35157432E+00</totfact>
</mgrwt>
</event>
<event>
 5    1  0.2381755E-004  0.6484537E+03  0.7818608E-02  0.9809685E-01
         13   -1    0    0    0    0  0.00000000000E+00  0.00000000000E+00  0.10000000000E+04  0.10000000000E+04  0.00000000000E+00 0. -1.
          2   -1    0    0  501    0 -0.00000000000E+00 -0.00000000000E+00 -0.10512303722E+03  0.10512303722E+03  0.00000000000E+00 0. -1.
    9000006    2    1    2  501    0  0.00000000000E+00  0.00000000000E+00  0.89487696278E+03  0.11051230372E+04  0.64845365978E+03 0.  0.
         13    1    3    3    0    0 -0.15480465997E+02  0.27165431946E+03  0.14695309883E+03  0.30924250575E+03  0.00000000000E+00 0. -1.
          2    1    3    3  501    0  0.15480465997E+02 -0.27165431946E+03  0.74792386395E+03  0.79588053147E+03  0.00000000000E+00 0. -1.
<mgrwt>
<rscale>  0 0.64845366E+03</rscale>
<asrwt>0</asrwt>
<pdfrwt beam="1">0</pdfrwt>
<pdfrwt beam="2">  1        2 0.38226640E+00 0.64845366E+03</pdfrwt>
<totfact> 0.46373621E+00</totfact>
</mgrwt>
</event>
<event>
 5    1  0.2381755E-004  0.6526200E+03  0.7818608E-02  0.9801875E-01
         13   -1    0    0    0    0  0.00000000000E+00  0.00000000000E+00  0.10000000000E+04  0.10000000000E+04  0.00000000000E+00 0. -1.
          2   -1    0    0  501    0 -0.00000000000E+00 -0.00000000000E+00 -0.10647821150E+03  0.10647821150E+03  0.00000000000E+00 0. -1.
    9000006    2    1    2  501    0  0.00000000000E+00  0.00000000000E+00  0.89352178850E+03  0.11064782115E+04  0.65261998590E+03 0.  0.
         13    1    3    3    0    0  0.31432987278E+02  0.29701743995E+03  0.22394869499E+03  0.37331007261E+03  0.00000000000E+00 0. -1.
          4    1    3    3  501    0 -0.31432987278E+02 -0.29701743995E+03  0.66957309351E+03  0.73316813888E+03  0.00000000000E+00 0. -1.
<mgrwt>
<rscale>  0 0.65261999E+03</rscale>
<asrwt>0</asrwt>
<pdfrwt beam="1">0</pdfrwt>
<pdfrwt beam="2">  1        2 0.38719431E+00 0.65261999E+03</pdfrwt>
<totfact> 0.44450794E+00</totfact>
</mgrwt>
</event>
<event>
 5    1  0.2381755E-004  0.6404715E+03  0.7818608E-02  0.9824825E-01
         13   -1    0    0    0    0  0.00000000000E+00  0.00000000000E+00  0.10000000000E+04  0.10000000000E+04  0.00000000000E+00 0. -1.
          2   -1    0    0  501    0 -0.00000000000E+00 -0.00000000000E+00 -0.10255092845E+03  0.10255092845E+03  0.00000000000E+00 0. -1.
    9000006    2    1    2  501    0  0.00000000000E+00  0.00000000000E+00  0.89744907155E+03  0.11025509285E+04  0.64047147774E+03 0.  0.
         13    1    3    3    0    0  0.27458083699E+03 -0.13300714347E+02  0.16596655261E+03  0.32111748883E+03  0.00000000000E+00 0. -1.
          4    1    3    3  501    0 -0.27458083699E+03  0.13300714347E+02  0.73148251894E+03  0.78143343962E+03  0.00000000000E+00 0. -1.
<mgrwt>
<rscale>  0 0.64047148E+03</rscale>
<asrwt>0</asrwt>
<pdfrwt beam="1">0</pdfrwt>
<pdfrwt beam="2">  1        2 0.37291325E+00 0.64047148E+03</pdfrwt>
<totfact> 0.50232655E+00</totfact>
</mgrwt>
</event>
<event>
 5    1  0.2381755E-004  0.6347383E+03  0.7818608E-02  0.9835846E-01
         13   -1    0    0    0    0  0.00000000000E+00  0.00000000000E+00  0.10000000000E+04  0.10000000000E+04  0.00000000000E+00 0. -1.
          2   -1    0    0  501    0 -0.00000000000E+00 -0.00000000000E+00 -0.10072319099E+03  0.10072319099E+03  0.00000000000E+00 0. -1.
    9000006    2    1    2  501    0  0.00000000000E+00  0.00000000000E+00  0.89927680901E+03  0.11007231910E+04  0.63473834291E+03 0.  0.
         13    1    3    3    0    0  0.29999574933E+03  0.91664092432E+02  0.53322732109E+03  0.61865267430E+03  0.00000000000E+00 0. -1.
          4    1    3    3  501    0 -0.29999574933E+03 -0.91664092432E+02  0.36604948792E+03  0.48207051669E+03  0.00000000000E+00 0. -1.
<mgrwt>
<rscale>  0 0.63473834E+03</rscale>
<asrwt>0</asrwt>
<pdfrwt beam="1">0</pdfrwt>
<pdfrwt beam="2">  1        2 0.36626692E+00 0.63473834E+03</pdfrwt>
<totfact> 0.53151099E+00</totfact>
</mgrwt>
</event>
<event>
 5    1  0.2381755E-004  0.6276288E+03  0.7818608E-02  0.9849687E-01
         13   -1    0    0    0    0  0.00000000000E+00  0.00000000000E+00  0.10000000000E+04  0.10000000000E+04  0.00000000000E+00 0. -1.
          2   -1    0    0  501    0 -0.00000000000E+00 -0.00000000000E+00 -0.98479469124E+02  0.98479469124E+02  0.00000000000E+00 0. -1.
    9000006    2    1    2  501    0  0.00000000000E+00  0.00000000000E+00  0.90152053088E+03  0.10984794691E+04  0.62762877284E+03 0.  0.
         13    1    3    3    0    0 -0.25086810775E+03  0.18702008135E+03  0.40904251192E+03  0.51500203385E+03  0.00000000000E+00 0. -1.
          2    1    3    3  501    0  0.25086810775E+03 -0.18702008135E+03  0.49247801896E+03  0.58347743527E+03  0.00000000000E+00 0. -1.
<mgrwt>
<rscale>  0 0.62762877E+03</rscale>
<asrwt>0</asrwt>
<pdfrwt beam="1">0</pdfrwt>
<pdfrwt beam="2">  1        2 0.35810792E+00 0.62762877E+03</pdfrwt>
<totfact> 0.56946737E+00</totfact>
</mgrwt>
</event>
<event>
 5    1  0.2381755E-004  0.6622060E+03  0.7818608E-02  0.9784141E-01
         13   -1    0    0    0    0  0.00000000000E+00  0.00000000000E+00  0.10000000000E+04  0.10000000000E+04  0.00000000000E+00 0. -1.
          2   -1    0    0  501    0 -0.00000000000E+00 -0.00000000000E+00 -0.10962921235E+03  0.10962921235E+03  0.00000000000E+00 0. -1.
    9000006    2    1    2  501    0  0.00000000000E+00  0.00000000000E+00  0.89037078765E+03  0.11096292123E+04  0.66220604753E+03 0.  0.
         13    1    3    3    0    0 -0.13714964774E+03  0.16613829529E+03  0.23874634457E+02  0.21675321729E+03  0.00000000000E+00 0. -1.
          4    1    3    3  501    0  0.13714964774E+03 -0.16613829529E+03  0.86649615320E+03  0.89287599505E+03  0.00000000000E+00 0. -1.
<mgrwt>
<rscale>  0 0.66220605E+03</rscale>
<asrwt>0</asrwt>
<pdfrwt beam="1">0</pdfrwt>
<pdfrwt beam="2">  1        2 0.39865252E+00 0.66220605E+03</pdfrwt>
<totfact> 0.40255674E+00</totfact>
</mgrwt>
</event>
<event>
 5    1  0.2381755E-004  0.6597781E+03  0.7818608E-02  0.9788602E-01
         13   -1    0    0    0    0  0.00000000000E+00  0.00000000000E+00  0.10000000000E+04  0.10000000000E+04  0.00000000000E+00 0. -1.
          2   -1    0    0  501    0 -0.00000000000E+00 -0.00000000000E+00 -0.10882679575E+03  0.10882679575E+03  0.00000000000E+00 0. -1.
    9000006    2    1    2  501    0  0.00000000000E+00  0.00000000000E+00  0.89117320425E+03  0.11088267957E+04  0.65977813164E+03 0.  0.
         13    1    3    3    0    0  0.93313290022E+02  0.31184783247E+03  0.53562621202E+03  0.62677897198E+03  0.00000000000E+00 0. -1.
          4    1    3    3  501    0 -0.93313290022E+02 -0.31184783247E+03  0.35554699223E+03  0.48204782376E+03  0.00000000000E+00 0. -1.
<mgrwt>
<rscale>  0 0.65977813E+03</rscale>
<asrwt>0</asrwt>
<pdfrwt beam="1">0</pdfrwt>
<pdfrwt beam="2">  1        2 0.39573464E+00 0.65977813E+03</pdfrwt>
<totfact> 0.41288582E+00</totfact>
</mgrwt>
</event>
<event>
 5    1  0.2381755E-004  0.6471844E+03  0.7818608E-02  0.9812077E-01
         13   -1    0    0    0    0  0.00000000000E+00  0.00000000000E+00  0.10000000000E+04  0.10000000000E+04  0.00000000000E+00 0. -1.
          2   -1    0    0  501    0 -0.00000000000E+00 -0.00000000000E+00 -0.10471189921E+03  0.10471189921E+03  0.00000000000E+00 0. -1.
    9000006    2    1    2  501    0  0.00000000000E+00  0.00000000000E+00  0.89528810079E+03  0.11047118992E+04  0.64718436078E+03 0.  0.
         13    1    3    3    0    0  0.62530173691E+02 -0.20094852193E+03  0.86722621016E+03  0.89239656582E+03  0.00000000000E+00 0. -1.
          4    1    3    3  501    0 -0.62530173691E+02  0.20094852193E+03  0.28061890630E+02  0.21231533339E+03  0.00000000000E+00 0. -1.
<mgrwt>
<rscale>  0 0.64718436E+03</rscale>
<asrwt>0</asrwt>
<pdfrwt beam="1">0</pdfrwt>
<pdfrwt beam="2">  1        2 0.38077135E+00 0.64718436E+03</pdfrwt>
<totfact> 0.46971725E+00</totfact>
</mgrwt>
</event>
<event>
 5    1  0.2381755E-004  0.6501154E+03  0.7818608E-02  0.9806563E-01
         13   -1    0    0    0    0  0.00000000000E+00  0.00000000000E+00  0.10000000000E+04  0.10000000000E+04  0.00000000000E+00 0. -1.
          2   -1    0    0  501    0 -0.00000000000E+00 -0.00000000000E+00 -0.10566250593E+03  0.10566250593E+03  0.00000000000E+00 0. -1.
    9000006    2    1    2  501    0  0.00000000000E+00  0.00000000000E+00  0.89433749407E+03  0.11056625059E+04  0.65011539262E+03 0.  0.
         13    1    3    3    0    0 -0.27181530563E+03  0.20797711875E+02  0.14605819551E+03  0.30927188956E+03  0.00000000000E+00 0. -1.
          2    1    3    3  501    0  0.27181530563E+03 -0.20797711875E+02  0.74827929856E+03  0.79639061637E+03  0.00000000000E+00 0. -1.
<mgrwt>
<rscale>  0 0.65011539E+03</rscale>
<asrwt>0</asrwt>
<pdfrwt beam="1">0</pdfrwt>
<pdfrwt beam="2">  1        2 0.38422810E+00 0.65011539E+03</pdfrwt>
<totfact> 0.45599322E+00</totfact>
</mgrwt>
</event>
<event>
 5    1  0.2381755E-004  0.6553325E+03  0.7818608E-02  0.9796824E-01
         13   -1    0    0    0    0  0.00000000000E+00  0.00000000000E+00  0.10000000000E+04  0.10000000000E+04  0.00000000000E+00 0. -1.
          2   -1    0    0  501    0 -0.00000000000E+00 -0.00000000000E+00 -0.10736518440E+03  0.10736518440E+03  0.00000000000E+00 0. -1.
    9000006    2    1    2  501    0  0.00000000000E+00  0.00000000000E+00  0.89263481560E+03  0.11073651844E+04  0.65533253971E+03 0.  0.
         13    1    3    3    0    0 -0.33149810520E+02  0.28892706705E+03  0.19123720556E+03  0.34806526515E+03  0.00000000000E+00 0. -1.
          4    1    3    3  501    0  0.33149810520E+02 -0.28892706705E+03  0.70139761004E+03  0.75929991925E+03  0.00000000000E+00 0. -1.
<mgrwt>
<rscale>  0 0.65533254E+03</rscale>
<asrwt>0</asrwt>
<pdfrwt beam="1">0</pdfrwt>
<pdfrwt beam="2">  1        2 0.39041968E+00 0.65533254E+03</pdfrwt>
<totfact> 0.43231697E+00</totfact>
</mgrwt>
</event>
<event>
 5    1  0.2381755E-004  0.6057759E+03  0.7818608E-02  0.9893495E-01
         13   -1    0    0    0    0  0.00000000000E+00  0.00000000000E+00  0.10000000000E+04  0.10000000000E+04  0.00000000000E+00 0. -1.
          2   -1    0    0  501    0 -0.00000000000E+00 -0.00000000000E+00 -0.91741110346E+02  0.91741110346E+02  0.00000000000E+00 0. -1.
    9000006    2    1    2  501    0  0.00000000000E+00  0.00000000000E+00  0.90825888965E+03  0.10917411103E+04  0.60577590030E+03 0.  0.
         13    1    3    3    0    0 -0.71730520993E+01  0.29229850156E+03  0.59662157731E+03  0.66441491043E+03  0.00000000000E+00 0. -1.
          4    1    3    3  501    0  0.71730520993E+01 -0.29229850156E+03  0.31163731234E+03  0.42732619991E+03  0.00000000000E+00 0. -1.
<mgrwt>
<rscale>  0 0.60577590E+03</rscale>
<asrwt>0</asrwt>
<pdfrwt beam="1">0</pdfrwt>
<pdfrwt beam="2">  1        2 0.33360474E+00 0.60577590E+03</pdfrwt>
<totfact> 0.69916155E+00</totfact>
</mgrwt>
</event>
<event>
 5    1  0.2381755E-004  0.6359782E+03  0.7818608E-02  0.9833452E-01
         13   -1    0    0    0    0  0.00000000000E+00  0.00000000000E+00  0.10000000000E+04  0.10000000000E+04  0.00000000000E+00 0. -1.
          2   -1    0    0  501    0 -0.00000000000E+00 -0.00000000000E+00 -0.10111707379E+03  0.10111707379E+03  0.00000000000E+00 0. -1.
    9000006    2    1    2  501    0  0.00000000000E+00  0.00000000000E+00  0.89888292621E+03  0.11011170738E+04  0.63597821908E+03 0.  0.
         13    1    3    3    0    0 -0.19874345419E+03 -0.64809518586E+02  0.86431399147E+03  0.88923445173E+03  0.00000000000E+00 0. -1.
          2    1    3    3  501    0  0.19874345419E+03  0.64809518586E+02  0.34568934739E+02  0.21188262206E+03  0.00000000000E+00 0. -1.
<mgrwt>
<rscale>  0 0.63597822E+03</rscale>
<asrwt>0</asrwt>
<pdfrwt beam="1">0</pdfrwt>
<pdfrwt beam="2">  1        2 0.36769923E+00 0.63597822E+03</pdfrwt>
<totfact> 0.52509330E+00</totfact>
</mgrwt>
</event>
<event>
 5    1  0.2381755E-004  0.6538394E+03  0.7818608E-02  0.9799601E-01
         13   -1    0    0    0    0  0.00000000000E+00  0.00000000000E+00  0.10000000000E+04  0.10000000000E+04  0.00000000000E+00 0. -1.
          2   -1    0    0  501    0 -0.00000000000E+00 -0.00000000000E+00 -0.10687647485E+03  0.10687647485E+03  0.00000000000E+00 0. -1.
    9000006    2    1    2  501    0  0.00000000000E+00  0.00000000000E+00  0.89312352515E+03  0.11068764748E+04  0.65383935289E+03 0.  0.
         13    1    3    3    0    0 -0.13868818143E+03  0.28576672474E+03  0.57746742645E+03  0.65906423151E+03  0.00000000000E+00 0. -1.
          4    1    3    3  501    0  0.13868818143E+03 -0.28576672474E+03  0.31565609870E+03  0.44781224334E+03  0.00000000000E+00 0. -1.
<mgrwt>
<rscale>  0 0.65383935E+03</rscale>
<asrwt>0</asrwt>
<pdfrwt beam="1">0</pdfrwt>
<pdfrwt beam="2">  1        2 0.38864255E+00 0.65383935E+03</pdfrwt>
<totfact> 0.43899608E+00</totfact>
</mgrwt>
</event>
<event>
 5    1  0.2381755E-004  0.6548199E+03  0.7818608E-02  0.9797777E-01
         13   -1    0    0    0    0  0.00000000000E+00  0.00000000000E+00  0.10000000000E+04  0.10000000000E+04  0.00000000000E+00 0. -1.
          2   -1    0    0  501    0 -0.00000000000E+00 -0.00000000000E+00 -0.10719728685E+03  0.10719728685E+03  0.00000000000E+00 0. -1.
    9000006    2    1    2  501    0  0.00000000000E+00  0.00000000000E+00  0.89280271315E+03  0.11071972868E+04  0.65481993509E+03 0.  0.
         13    1    3    3    0    0 -0.23272376070E+03  0.22146324551E+03  0.33958388482E+03  0.46746500697E+03  0.00000000000E+00 0. -1.
          4    1    3    3  501    0  0.23272376070E+03 -0.22146324551E+03  0.55321882833E+03  0.63973227988E+03  0.00000000000E+00 0. -1.
<mgrwt>
<rscale>  0 0.65481994E+03</rscale>
<asrwt>0</asrwt>
<pdfrwt beam="1">0</pdfrwt>
<pdfrwt beam="2">  1        2 0.38980914E+00 0.65481994E+03</pdfrwt>
<totfact> 0.43460116E+00</totfact>
</mgrwt>
</event>
<event>
 5    1  0.2381755E-004  0.6509128E+03  0.7818608E-02  0.9805068E-01
         13   -1    0    0    0    0  0.00000000000E+00  0.00000000000E+00  0.10000000000E+04  0.10000000000E+04  0.00000000000E+00 0. -1.
          2   -1    0    0  501    0 -0.00000000000E+00 -0.00000000000E+00 -0.10592187245E+03  0.10592187245E+03  0.00000000000E+00 0. -1.
    9000006    2    1    2  501    0  0.00000000000E+00  0.00000000000E+00  0.89407812755E+03  0.11059218725E+04  0.65091281275E+03 0.  0.
         13    1    3    3    0    0  0.22962124415E+03  0.18316431062E+03  0.68518734460E+03  0.74549096416E+03  0.00000000000E+00 0. -1.
          2    1    3    3  501    0 -0.22962124415E+03 -0.18316431062E+03  0.20889078295E+03  0.36043090829E+03  0.00000000000E+00 0. -1.
<mgrwt>
<rscale>  0 0.65091281E+03</rscale>
<asrwt>0</asrwt>
<pdfrwt beam="1">0</pdfrwt>
<pdfrwt beam="2">  1        2 0.38517126E+00 0.65091281E+03</pdfrwt>
<totfact> 0.45231246E+00</totfact>
</mgrwt>
</event>
<event>
 5    1  0.2381755E-004  0.6854396E+03  0.7818608E-02  0.9742461E-01
         13   -1    0    0    0    0  0.00000000000E+00  0.00000000000E+00  0.10000000000E+04  0.10000000000E+04  0.00000000000E+00 0. -1.
          2   -1    0    0  501    0 -0.00000000000E+00 -0.00000000000E+00 -0.11745687526E+03  0.11745687526E+03  0.00000000000E+00 0. -1.
    9000006    2    1    2  501    0  0.00000000000E+00  0.00000000000E+00  0.88254312474E+03  0.11174568753E+04  0.68543964069E+03 0.  0.
         13    1    3    3    0    0 -0.18571898822E+03 -0.63549340187E+02 -0.16737257120E+02  0.19700303805E+03  0.00000000000E+00 0. -1.
          4    1    3    3  501    0  0.18571898822E+03  0.63549340187E+02  0.89928038186E+03  0.92045383721E+03  0.00000000000E+00 0. -1.
<mgrwt>
<rscale>  0 0.68543964E+03</rscale>
<asrwt>0</asrwt>
<pdfrwt beam="1">0</pdfrwt>
<pdfrwt beam="2">  1        2 0.42711681E+00 0.68543964E+03</pdfrwt>
<totfact> 0.31326959E+00</totfact>
</mgrwt>
</event>
<event>
 5    1  0.2381755E-004  0.6412011E+03  0.7818608E-02  0.9823431E-01
         13   -1    0    0    0    0  0.00000000000E+00  0.00000000000E+00  0.10000000000E+04  0.10000000000E+04  0.00000000000E+00 0. -1.
          2   -1    0    0  501    0 -0.00000000000E+00 -0.00000000000E+00 -0.10278471812E+03  0.10278471812E+03  0.00000000000E+00 0. -1.
    9000006    2    1    2  501    0  0.00000000000E+00  0.00000000000E+00  0.89721528188E+03  0.11027847181E+04  0.64120111703E+03 0.  0.
         13    1    3    3    0    0 -0.73850412471E+02  0.27285815859E+03  0.70875382251E+03  0.76304484734E+03  0.00000000000E+00 0. -1.
          2    1    3    3  501    0  0.73850412471E+02 -0.27285815859E+03  0.18846145937E+03  0.33973987078E+03  0.00000000000E+00 0. -1.
<mgrwt>
<rscale>  0 0.64120112E+03</rscale>
<asrwt>0</asrwt>
<pdfrwt beam="1">0</pdfrwt>
<pdfrwt beam="2">  1        2 0.37376340E+00 0.64120112E+03</pdfrwt>
<totfact> 0.49870134E+00</totfact>
</mgrwt>
</event>
<event>
 5    1  0.2381755E-004  0.6408917E+03  0.7818608E-02  0.9824022E-01
         13   -1    0    0    0    0  0.00000000000E+00  0.00000000000E+00  0.10000000000E+04  0.10000000000E+04  0.00000000000E+00 0. -1.
          2   -1    0    0  501    0 -0.00000000000E+00 -0.00000000000E+00 -0.10268555805E+03  0.10268555805E+03  0.00000000000E+00 0. -1.
    9000006    2    1    2  501    0  0.00000000000E+00  0.00000000000E+00  0.89731444195E+03  0.11026855580E+04  0.64089174763E+03 0.  0.
         13    1    3    3    0    0 -0.15201155270E+03 -0.20398109453E+03  0.11339398908E+03  0.27852108689E+03  0.00000000000E+00 0. -1.
          2    1    3    3  501    0  0.15201155270E+03  0.20398109453E+03  0.78392045288E+03  0.82416447116E+03  0.00000000000E+00 0. -1.
<mgrwt>
<rscale>  0 0.64089175E+03</rscale>
<asrwt>0</asrwt>
<pdfrwt beam="1">0</pdfrwt>
<pdfrwt beam="2">  1        2 0.37340282E+00 0.64089175E+03</pdfrwt>
<totfact> 0.50023602E+00</totfact>
</mgrwt>
</event>
<event>
 5    1  0.2381755E-004  0.6549037E+03  0.7818608E-02  0.9797621E-01
         13   -1    0    0    0    0  0.00000000000E+00  0.00000000000E+00  0.10000000000E+04  0.10000000000E+04  0.00000000000E+00 0. -1.
          4   -1    0    0  501    0 -0.00000000000E+00 -0.00000000000E+00 -0.10722471630E+03  0.10722471630E+03  0.00000000000E+00 0. -1.
    9000006    2    1    2  501    0  0.00000000000E+00  0.00000000000E+00  0.89277528370E+03  0.11072247163E+04  0.65490370681E+03 0.  0.
         13    1    3    3    0    0 -0.94227857417E+02 -0.10606121370E+02 -0.83504858333E+02  0.12635046612E+03  0.00000000000E+00 0. -1.
          2    1    3    3  501    0  0.94227857417E+02  0.10606121370E+02  0.97628014204E+03  0.98087425018E+03  0.00000000000E+00 0. -1.
<mgrwt>
<rscale>  0 0.65490371E+03</rscale>
<asrwt>0</asrwt>
<pdfrwt beam="1">0</pdfrwt>
<pdfrwt beam="2">  1        4 0.38990888E+00 0.65490371E+03</pdfrwt>
<totfact> 0.37593535E-02</totfact>
</mgrwt>
</event>
<event>
 5    1  0.2381755E-004  0.6457644E+03  0.7818608E-02  0.9814760E-01
         13   -1    0    0    0    0  0.00000000000E+00  0.00000000000E+00  0.10000000000E+04  0.10000000000E+04  0.00000000000E+00 0. -1.
          2   -1    0    0  501    0 -0.00000000000E+00 -0.00000000000E+00 -0.10425292857E+03  0.10425292857E+03  0.00000000000E+00 0. -1.
    9000006    2    1    2  501    0  0.00000000000E+00  0.00000000000E+00  0.89574707143E+03  0.11042529286E+04  0.64576444180E+03 0.  0.
         13    1    3    3    0    0  0.11231466586E+03 -0.24361109083E+03  0.14058824249E+03  0.30286300809E+03  0.00000000000E+00 0. -1.
          4    1    3    3  501    0 -0.11231466586E+03  0.24361109083E+03  0.75515882893E+03  0.80138992049E+03  0.00000000000E+00 0. -1.
<mgrwt>
<rscale>  0 0.64576444E+03</rscale>
<asrwt>0</asrwt>
<pdfrwt beam="1">0</pdfrwt>
<pdfrwt beam="2">  1        2 0.37910236E+00 0.64576444E+03</pdfrwt>
<totfact> 0.47647697E+00</totfact>
</mgrwt>
</event>
<event>
 5    1  0.2381755E-004  0.6529113E+03  0.7818608E-02  0.9801332E-01
         13   -1    0    0    0    0  0.00000000000E+00  0.00000000000E+00  0.10000000000E+04  0.10000000000E+04  0.00000000000E+00 0. -1.
          2   -1    0    0  501    0 -0.00000000000E+00 -0.00000000000E+00 -0.10657329416E+03  0.10657329416E+03  0.00000000000E+00 0. -1.
    9000006    2    1    2  501    0  0.00000000000E+00  0.00000000000E+00  0.89342670584E+03  0.11065732942E+04  0.65291130840E+03 0.  0.
         13    1    3    3    0    0  0.15114714194E+03 -0.98495228213E+02  0.90783942464E+03  0.92559126477E+03  0.00000000000E+00 0. -1.
          4    1    3    3  501    0 -0.15114714194E+03  0.98495228213E+02 -0.14412718794E+02  0.18098202939E+03  0.00000000000E+00 0. -1.
<mgrwt>
<rscale>  0 0.65291131E+03</rscale>
<asrwt>0</asrwt>
<pdfrwt beam="1">0</pdfrwt>
<pdfrwt beam="2">  1        2 0.38754007E+00 0.65291131E+03</pdfrwt>
<totfact> 0.44318636E+00</totfact>
</mgrwt>
</event>
<event>
 5    1  0.2381755E-004  0.6459413E+03  0.7818608E-02  0.9814425E-01
         13   -1    0    0    0    0  0.00000000000E+00  0.00000000000E+00  0.10000000000E+04  0.10000000000E+04  0.00000000000E+00 0. -1.
          2   -1    0    0  501    0 -0.00000000000E+00 -0.00000000000E+00 -0.10431002675E+03  0.10431002675E+03  0.00000000000E+00 0. -1.
    9000006    2    1    2  501    0  0.00000000000E+00  0.00000000000E+00  0.89568997325E+03  0.11043100268E+04  0.64594125662E+03 0.  0.
         13    1    3    3    0    0 -0.30953595247E+03  0.85907282566E+02  0.39069529088E+03  0.50580171746E+03  0.00000000000E+00 0. -1.
          4    1    3    3  501    0  0.30953595247E+03 -0.85907282566E+02  0.50499468237E+03  0.59850830929E+03  0.00000000000E+00 0. -1.
<mgrwt>
<rscale>  0 0.64594126E+03</rscale>
<asrwt>0</asrwt>
<pdfrwt beam="1">0</pdfrwt>
<pdfrwt beam="2">  1        2 0.37930999E+00 0.64594126E+03</pdfrwt>
<totfact> 0.47563123E+00</totfact>
</mgrwt>
</event>
<event>
 5    1  0.2381755E-004  0.6459988E+03  0.7818608E-02  0.9814316E-01
         13   -1    0    0    0    0  0.00000000000E+00  0.00000000000E+00  0.10000000000E+04  0.10000000000E+04  0.00000000000E+00 0. -1.
          2   -1    0    0  501    0 -0.00000000000E+00 -0.00000000000E+00 -0.10432860599E+03  0.10432860599E+03  0.00000000000E+00 0. -1.
    9000006    2    1    2  501    0  0.00000000000E+00  0.00000000000E+00  0.89567139401E+03  0.11043286060E+04  0.64599878015E+03 0.  0.
         13    1    3    3    0    0  0.26474093698E+03  0.17449881353E+03  0.55309097443E+03  0.63753213694E+03  0.00000000000E+00 0. -1.
          4    1    3    3  501    0 -0.26474093698E+03 -0.17449881353E+03  0.34258041958E+03  0.46679646905E+03  0.00000000000E+00 0. -1.
<mgrwt>
<rscale>  0 0.64599878E+03</rscale>
<asrwt>0</asrwt>
<pdfrwt beam="1">0</pdfrwt>
<pdfrwt beam="2">  1        2 0.37937755E+00 0.64599878E+03</pdfrwt>
<totfact> 0.47535633E+00</totfact>
</mgrwt>
</event>
<event>
 5    1  0.2381755E-004  0.6581603E+03  0.7818608E-02  0.9791586E-01
         13   -1    0    0    0    0  0.00000000000E+00  0.00000000000E+00  0.10000000000E+04  0.10000000000E+04  0.00000000000E+00 0. -1.
          2   -1    0    0  501    0 -0.00000000000E+00 -0.00000000000E+00 -0.10829375216E+03  0.10829375216E+03  0.00000000000E+00 0. -1.
    9000006    2    1    2  501    0  0.00000000000E+00  0.00000000000E+00  0.89170624784E+03  0.11082937522E+04  0.65816032139E+03 0.  0.
         13    1    3    3    0    0 -0.25549800408E+03  0.69302798205E+02  0.77502373325E+03  0.81898955734E+03  0.00000000000E+00 0. -1.
          4    1    3    3  501    0  0.25549800408E+03 -0.69302798205E+02  0.11668251458E+03  0.28930419482E+03  0.00000000000E+00 0. -1.
<mgrwt>
<rscale>  0 0.65816032E+03</rscale>
<asrwt>0</asrwt>
<pdfrwt beam="1">0</pdfrwt>
<pdfrwt beam="2">  1        2 0.39379629E+00 0.65816032E+03</pdfrwt>
<totfact> 0.41987871E+00</totfact>
</mgrwt>
</event>
<event>
 5    1  0.2381755E-004  0.6451993E+03  0.7818608E-02  0.9815829E-01
         13   -1    0    0    0    0  0.00000000000E+00  0.00000000000E+00  0.10000000000E+04  0.10000000000E+04  0.00000000000E+00 0. -1.
          2   -1    0    0  501    0 -0.00000000000E+00 -0.00000000000E+00 -0.10407052741E+03  0.10407052741E+03  0.00000000000E+00 0. -1.
    9000006    2    1    2  501    0  0.00000000000E+00  0.00000000000E+00  0.89592947259E+03  0.11040705274E+04  0.64519927900E+03 0.  0.
         13    1    3    3    0    0 -0.29811428285E+03 -0.11707910656E+03  0.51403787750E+03  0.60565219585E+03  0.00000000000E+00 0. -1.
          2    1    3    3  501    0  0.29811428285E+03  0.11707910656E+03  0.38189159509E+03  0.49841833155E+03  0.00000000000E+00 0. -1.
<mgrwt>
<rscale>  0 0.64519928E+03</rscale>
<asrwt>0</asrwt>
<pdfrwt beam="1">0</pdfrwt>
<pdfrwt beam="2">  1        2 0.37843908E+00 0.64519928E+03</pdfrwt>
<totfact> 0.47918787E+00</totfact>
</mgrwt>
</event>
<event>
 5    1  0.2381755E-004  0.6530605E+03  0.7818608E-02  0.9801053E-01
         13   -1    0    0    0    0  0.00000000000E+00  0.00000000000E+00  0.10000000000E+04  0.10000000000E+04  0.00000000000E+00 0. -1.
          2   -1    0    0  501    0 -0.00000000000E+00 -0.00000000000E+00 -0.10662200051E+03  0.10662200051E+03  0.00000000000E+00 0. -1.
    9000006    2    1    2  501    0  0.00000000000E+00  0.00000000000E+00  0.89337799949E+03  0.11066220005E+04  0.65306048879E+03 0.  0.
         13    1    3    3    0    0 -0.14756834838E+03  0.14863027403E+01 -0.46887934840E+02  0.15484542283E+03  0.00000000000E+00 0. -1.
          2    1    3    3  501    0  0.14756834838E+03 -0.14863027403E+01  0.94026593433E+03  0.95177657767E+03  0.00000000000E+00 0. -1.
<mgrwt>
<rscale>  0 0.65306049E+03</rscale>
<asrwt>0</asrwt>
<pdfrwt beam="1">0</pdfrwt>
<pdfrwt beam="2">  1        2 0.38771718E+00 0.65306049E+03</pdfrwt>
<totfact> 0.44251076E+00</totfact>
</mgrwt>
</event>
<event>
 5    1  0.2381755E-004  0.6492448E+03  0.7818608E-02  0.9808197E-01
         13   -1    0    0    0    0  0.00000000000E+00  0.00000000000E+00  0.10000000000E+04  0.10000000000E+04  0.00000000000E+00 0. -1.
          2   -1    0    0  501    0 -0.00000000000E+00 -0.00000000000E+00 -0.10537970195E+03  0.10537970195E+03  0.00000000000E+00 0. -1.
    9000006    2    1    2  501    0  0.00000000000E+00  0.00000000000E+00  0.89462029805E+03  0.11053797020E+04  0.64924479807E+03 0.  0.
         13    1    3    3    0    0  0.11014248803E+02  0.16670046987E+03 -0.26569370360E+02  0.16916350603E+03  0.00000000000E+00 0. -1.
          2    1    3    3  501    0 -0.11014248803E+02 -0.16670046987E+03  0.92118966841E+03  0.93621619592E+03  0.00000000000E+00 0. -1.
<mgrwt>
<rscale>  0 0.64924480E+03</rscale>
<asrwt>0</asrwt>
<pdfrwt beam="1">0</pdfrwt>
<pdfrwt beam="2">  1        2 0.38319972E+00 0.64924480E+03</pdfrwt>
<totfact> 0.46003754E+00</totfact>
</mgrwt>
</event>
<event>
 5    1  0.2381755E-004  0.6668321E+03  0.7818608E-02  0.9775698E-01
         13   -1    0    0    0    0  0.00000000000E+00  0.00000000000E+00  0.10000000000E+04  0.10000000000E+04  0.00000000000E+00 0. -1.
          2   -1    0    0  501    0 -0.00000000000E+00 -0.00000000000E+00 -0.11116626209E+03  0.11116626209E+03  0.00000000000E+00 0. -1.
    9000006    2    1    2  501    0  0.00000000000E+00  0.00000000000E+00  0.88883373791E+03  0.11111662621E+04  0.66683209908E+03 0.  0.
         13    1    3    3    0    0 -0.64521265493E+02  0.15493524396E+03  0.92447877920E+03  0.93958977043E+03  0.00000000000E+00 0. -1.
          2    1    3    3  501    0  0.64521265493E+02 -0.15493524396E+03 -0.35645041287E+02  0.17157649166E+03  0.00000000000E+00 0. -1.
<mgrwt>
<rscale>  0 0.66683210E+03</rscale>
<asrwt>0</asrwt>
<pdfrwt beam="1">0</pdfrwt>
<pdfrwt beam="2">  1        2 0.40424181E+00 0.66683210E+03</pdfrwt>
<totfact> 0.38341689E+00</totfact>
</mgrwt>
</event>
<event>
 5    1  0.2381755E-004  0.6336652E+03  0.7818608E-02  0.9837922E-01
         13   -1    0    0    0    0  0.00000000000E+00  0.00000000000E+00  0.10000000000E+04  0.10000000000E+04  0.00000000000E+00 0. -1.
          2   -1    0    0  501    0 -0.00000000000E+00 -0.00000000000E+00 -0.10038291207E+03  0.10038291207E+03  0.00000000000E+00 0. -1.
    9000006    2    1    2  501    0  0.00000000000E+00  0.00000000000E+00  0.89961708793E+03  0.11003829121E+04  0.63366524938E+03 0.  0.
         13    1    3    3    0    0  0.28532271057E+03 -0.87262230474E+02  0.63488755517E+03  0.70150263987E+03  0.00000000000E+00 0. -1.
          4    1    3    3  501    0 -0.28532271057E+03  0.87262230474E+02  0.26472953276E+03  0.39888027220E+03  0.00000000000E+00 0. -1.
<mgrwt>
<rscale>  0 0.63366525E+03</rscale>
<asrwt>0</asrwt>
<pdfrwt beam="1">0</pdfrwt>
<pdfrwt beam="2">  1        2 0.36502954E+00 0.63366525E+03</pdfrwt>
<totfact> 0.53711325E+00</totfact>
</mgrwt>
</event>
<event>
 5    1  0.2381755E-004  0.6396491E+03  0.7818608E-02  0.9826398E-01
         13   -1    0    0    0    0  0.00000000000E+00  0.00000000000E+00  0.10000000000E+04  0.10000000000E+04  0.00000000000E+00 0. -1.
          2   -1    0    0  501    0 -0.00000000000E+00 -0.00000000000E+00 -0.10228773643E+03  0.10228773643E+03  0.00000000000E+00 0. -1.
    9000006    2    1    2  501    0  0.00000000000E+00  0.00000000000E+00  0.89771226357E+03  0.11022877364E+04  0.63964908012E+03 0.  0.
         13    1    3    3    0    0  0.19788068278E+02 -0.26792990398E+03  0.74788055753E+03  0.79467183757E+03  0.00000000000E+00 0. -1.
          2    1    3    3  501    0 -0.19788068278E+02  0.26792990398E+03  0.14983170604E+03  0.30761589885E+03  0.00000000000E+00 0. -1.
<mgrwt>
<rscale>  0 0.63964908E+03</rscale>
<asrwt>0</asrwt>
<pdfrwt beam="1">0</pdfrwt>
<pdfrwt beam="2">  1        2 0.37195619E+00 0.63964908E+03</pdfrwt>
<totfact> 0.50643652E+00</totfact>
</mgrwt>
</event>
<event>
 5    1  0.2381755E-004  0.6651346E+03  0.7818608E-02  0.9778787E-01
         13   -1    0    0    0    0  0.00000000000E+00  0.00000000000E+00  0.10000000000E+04  0.10000000000E+04  0.00000000000E+00 0. -1.
          2   -1    0    0  501    0 -0.00000000000E+00 -0.00000000000E+00 -0.11060100729E+03  0.11060100729E+03  0.00000000000E+00 0. -1.
    9000006    2    1    2  501    0  0.00000000000E+00  0.00000000000E+00  0.88939899271E+03  0.11106010073E+04  0.66513459478E+03 0.  0.
         13    1    3    3    0    0 -0.38794322945E+02 -0.11734790893E+03 -0.70829405161E+02  0.14245117008E+03  0.00000000000E+00 0. -1.
          2    1    3    3  501    0  0.38794322945E+02  0.11734790893E+03  0.96022839787E+03  0.96814983721E+03  0.00000000000E+00 0. -1.
<mgrwt>
<rscale>  0 0.66513459E+03</rscale>
<asrwt>0</asrwt>
<pdfrwt beam="1">0</pdfrwt>
<pdfrwt beam="2">  1        2 0.40218633E+00 0.66513459E+03</pdfrwt>
<totfact> 0.39035859E+00</totfact>
</mgrwt>
</event>
<event>
 5    1  0.2381755E-004  0.6646124E+03  0.7818608E-02  0.9779740E-01
         13   -1    0    0    0    0  0.00000000000E+00  0.00000000000E+00  0.10000000000E+04  0.10000000000E+04  0.00000000000E+00 0. -1.
          2   -1    0    0  501    0 -0.00000000000E+00 -0.00000000000E+00 -0.11042739598E+03  0.11042739598E+03  0.00000000000E+00 0. -1.
    9000006    2    1    2  501    0  0.00000000000E+00  0.00000000000E+00  0.88957260402E+03  0.11104273960E+04  0.66461235613E+03 0.  0.
         13    1    3    3    0    0  0.18367833007E+03 -0.26398588950E+03  0.58458574155E+03  0.66720818941E+03  0.00000000000E+00 0. -1.
          4    1    3    3  501    0 -0.18367833007E+03  0.26398588950E+03  0.30498686247E+03  0.44321920657E+03  0.00000000000E+00 0. -1.
<mgrwt>
<rscale>  0 0.66461236E+03</rscale>
<asrwt>0</asrwt>
<pdfrwt beam="1">0</pdfrwt>
<pdfrwt beam="2">  1        2 0.40155501E+00 0.66461236E+03</pdfrwt>
<totfact> 0.39251314E+00</totfact>
</mgrwt>
</event>
<event>
 5    1  0.2381755E-004  0.6411645E+03  0.7818608E-02  0.9823501E-01
         13   -1    0    0    0    0  0.00000000000E+00  0.00000000000E+00  0.10000000000E+04  0.10000000000E+04  0.00000000000E+00 0. -1.
          2   -1    0    0  501    0 -0.00000000000E+00 -0.00000000000E+00 -0.10277299274E+03  0.10277299274E+03  0.00000000000E+00 0. -1.
    9000006    2    1    2  501    0  0.00000000000E+00  0.00000000000E+00  0.89722700726E+03  0.11027729927E+04  0.64116454283E+03 0.  0.
         13    1    3    3    0    0 -0.22751277133E+03  0.76781283611E+01  0.60376301731E+02  0.23551287138E+03  0.00000000000E+00 0. -1.
          4    1    3    3  501    0  0.22751277133E+03 -0.76781283611E+01  0.83685070552E+03  0.86726012137E+03  0.00000000000E+00 0. -1.
<mgrwt>
<rscale>  0 0.64116454E+03</rscale>
<asrwt>0</asrwt>
<pdfrwt beam="1">0</pdfrwt>
<pdfrwt beam="2">  1        2 0.37372076E+00 0.64116454E+03</pdfrwt>
<totfact> 0.49888259E+00</totfact>
</mgrwt>
</event>
<event>
 5    1  0.2381755E-004  0.6511043E+03  0.7818608E-02  0.9804709E-01
         13   -1    0    0    0    0  0.00000000000E+00  0.00000000000E+00  0.10000000000E+04  0.10000000000E+04  0.00000000000E+00 0. -1.
          2   -1    0    0  501    0 -0.00000000000E+00 -0.00000000000E+00 -0.10598419711E+03  0.10598419711E+03  0.00000000000E+00 0. -1.
    9000006    2    1    2  501    0  0.00000000000E+00  0.00000000000E+00  0.89401580289E+03  0.11059841971E+04  0.65110428383E+03 0.  0.
         13    1    3    3    0    0 -0.31024234225E+02 -0.24042115431E+01 -0.10345230244E+03  0.10803083922E+03  0.00000000000E+00 0. -1.
          2    1    3    3  501    0  0.31024234225E+02  0.24042115431E+01  0.99746810534E+03  0.99795335788E+03  0.00000000000E+00 0. -1.
<mgrwt>
<rscale>  0 0.65110428E+03</rscale>
<asrwt>0</asrwt>
<pdfrwt beam="1">0</pdfrwt>
<pdfrwt beam="2">  1        2 0.38539789E+00 0.65110428E+03</pdfrwt>
<totfact> 0.45143202E+00</totfact>
</mgrwt>
</event>
<event>
 5    1  0.2381755E-004  0.6171104E+03  0.7818608E-02  0.9870530E-01
         13   -1    0    0    0    0  0.00000000000E+00  0.00000000000E+00  0.10000000000E+04  0.10000000000E+04  0.00000000000E+00 0. -1.
          2   -1    0    0  501    0 -0.00000000000E+00 -0.00000000000E+00 -0.95206298988E+02  0.95206298988E+02  0.00000000000E+00 0. -1.
    9000006    2    1    2  501    0  0.00000000000E+00  0.00000000000E+00  0.90479370101E+03  0.10952062990E+04  0.61711035962E+03 0.  0.
         13    1    3    3    0    0  0.13213512286E+02 -0.27064478066E+03  0.19046218044E+03  0.33120844854E+03  0.00000000000E+00 0. -1.
          2    1    3    3  501    0 -0.13213512286E+02  0.27064478066E+03  0.71433152058E+03  0.76399785045E+03  0.00000000000E+00 0. -1.
<mgrwt>
<rscale>  0 0.61711036E+03</rscale>
<asrwt>0</asrwt>
<pdfrwt beam="1">0</pdfrwt>
<pdfrwt beam="2">  1        2 0.34620545E+00 0.61711036E+03</pdfrwt>
<totfact> 0.62936386E+00</totfact>
</mgrwt>
</event>
<event>
 5    1  0.2381755E-004  0.6433619E+03  0.7818608E-02  0.9819315E-01
         13   -1    0    0    0    0  0.00000000000E+00  0.00000000000E+00  0.10000000000E+04  0.10000000000E+04  0.00000000000E+00 0. -1.
          2   -1    0    0  501    0 -0.00000000000E+00 -0.00000000000E+00 -0.10347863966E+03  0.10347863966E+03  0.00000000000E+00 0. -1.
    9000006    2    1    2  501    0  0.00000000000E+00  0.00000000000E+00  0.89652136034E+03  0.11034786397E+04  0.64336191887E+03 0.  0.
         13    1    3    3    0    0 -0.94060555576E+02 -0.29205125834E+03  0.28252364607E+03  0.41708624552E+03  0.00000000000E+00 0. -1.
          2    1    3    3  501    0  0.94060555576E+02  0.29205125834E+03  0.61399771427E+03  0.68639239414E+03  0.00000000000E+00 0. -1.
<mgrwt>
<rscale>  0 0.64336192E+03</rscale>
<asrwt>0</asrwt>
<pdfrwt beam="1">0</pdfrwt>
<pdfrwt beam="2">  1        2 0.37628676E+00 0.64336192E+03</pdfrwt>
<totfact> 0.48808181E+00</totfact>
</mgrwt>
</event>
<event>
 5    1  0.2381755E-004  0.5654914E+03  0.7818608E-02  0.9979705E-01
         13   -1    0    0    0    0  0.00000000000E+00  0.00000000000E+00  0.10000000000E+04  0.10000000000E+04  0.00000000000E+00 0. -1.
          2   -1    0    0  501    0 -0.00000000000E+00 -0.00000000000E+00 -0.79945127316E+02  0.79945127316E+02  0.00000000000E+00 0. -1.
    9000006    2    1    2  501    0  0.00000000000E+00  0.00000000000E+00  0.92005487268E+03  0.10799451273E+04  0.56549138744E+03 0.  0.
         13    1    3    3    0    0 -0.12886721960E+03 -0.13830830219E+03  0.86157031396E+03  0.88206539023E+03  0.00000000000E+00 0. -1.
          2    1    3    3  501    0  0.12886721960E+03  0.13830830219E+03  0.58484558723E+02  0.19787973709E+03  0.00000000000E+00 0. -1.
<mgrwt>
<rscale>  0 0.56549139E+03</rscale>
<asrwt>0</asrwt>
<pdfrwt beam="1">0</pdfrwt>
<pdfrwt beam="2">  1        2 0.29071017E+00 0.56549139E+03</pdfrwt>
<totfact> 0.99666209E+00</totfact>
</mgrwt>
</event>
<event>
 5    1  0.2381755E-004  0.6458133E+03  0.7818608E-02  0.9814667E-01
         13   -1    0    0    0    0  0.00000000000E+00  0.00000000000E+00  0.10000000000E+04  0.10000000000E+04  0.00000000000E+00 0. -1.
          2   -1    0    0  501    0 -0.00000000000E+00 -0.00000000000E+00 -0.10426870140E+03  0.10426870140E+03  0.00000000000E+00 0. -1.
    9000006    2    1    2  501    0  0.00000000000E+00  0.00000000000E+00  0.89573129860E+03  0.11042687014E+04  0.64581329003E+03 0.  0.
         13    1    3    3    0    0  0.85683950015E+02 -0.31085925063E+03  0.47715860931E+03  0.57589543445E+03  0.00000000000E+00 0. -1.
          4    1    3    3  501    0 -0.85683950015E+02  0.31085925063E+03  0.41857268930E+03  0.52837326694E+03  0.00000000000E+00 0. -1.
<mgrwt>
<rscale>  0 0.64581329E+03</rscale>
<asrwt>0</asrwt>
<pdfrwt beam="1">0</pdfrwt>
<pdfrwt beam="2">  1        2 0.37915971E+00 0.64581329E+03</pdfrwt>
<totfact> 0.47624320E+00</totfact>
</mgrwt>
</event>
<event>
 5    1  0.2381755E-004  0.6405980E+03  0.7818608E-02  0.9824583E-01
         13   -1    0    0    0    0  0.00000000000E+00  0.00000000000E+00  0.10000000000E+04  0.10000000000E+04  0.00000000000E+00 0. -1.
          2   -1    0    0  501    0 -0.00000000000E+00 -0.00000000000E+00 -0.10259146396E+03  0.10259146396E+03  0.00000000000E+00 0. -1.
    9000006    2    1    2  501    0  0.00000000000E+00  0.00000000000E+00  0.89740853604E+03  0.11025914640E+04  0.64059804545E+03 0.  0.
         13    1    3    3    0    0  0.31817160860E+03 -0.24101980547E+02  0.49669389413E+03  0.59035489534E+03  0.00000000000E+00 0. -1.
          4    1    3    3  501    0 -0.31817160860E+03  0.24101980547E+02  0.40071464191E+03  0.51223656862E+03  0.00000000000E+00 0. -1.
<mgrwt>
<rscale>  0 0.64059805E+03</rscale>
<asrwt>0</asrwt>
<pdfrwt beam="1">0</pdfrwt>
<pdfrwt beam="2">  1        2 0.37306066E+00 0.64059805E+03</pdfrwt>
<totfact> 0.50169628E+00</totfact>
</mgrwt>
</event>
<event>
 5    1  0.2381755E-004  0.6570257E+03  0.7818608E-02  0.9793684E-01
         13   -1    0    0    0    0  0.00000000000E+00  0.00000000000E+00  0.10000000000E+04  0.10000000000E+04  0.00000000000E+00 0. -1.
          2   -1    0    0  501    0 -0.00000000000E+00 -0.00000000000E+00 -0.10792070374E+03  0.10792070374E+03  0.00000000000E+00 0. -1.
    9000006    2    1    2  501    0  0.00000000000E+00  0.00000000000E+00  0.89207929626E+03  0.11079207037E+04  0.65702573388E+03 0.  0.
         13    1    3    3    0    0  0.16969320859E+02 -0.18112539237E+03  0.90730787890E+03  0.92536584804E+03  0.00000000000E+00 0. -1.
          4    1    3    3  501    0 -0.16969320859E+02  0.18112539237E+03 -0.15228582644E+02  0.18255485570E+03  0.00000000000E+00 0. -1.
<mgrwt>
<rscale>  0 0.65702573E+03</rscale>
<asrwt>0</asrwt>
<pdfrwt beam="1">0</pdfrwt>
<pdfrwt beam="2">  1        2 0.39243975E+00 0.65702573E+03</pdfrwt>
<totfact> 0.42483637E+00</totfact>
</mgrwt>
</event>
<event>
 5    1  0.2381755E-004  0.6376345E+03  0.7818608E-02  0.9830263E-01
         13   -1    0    0    0    0  0.00000000000E+00  0.00000000000E+00  0.10000000000E+04  0.10000000000E+04  0.00000000000E+00 0. -1.
          2   -1    0    0  501    0 -0.00000000000E+00 -0.00000000000E+00 -0.10164445455E+03  0.10164445455E+03  0.00000000000E+00 0. -1.
    9000006    2    1    2  501    0  0.00000000000E+00  0.00000000000E+00  0.89835554545E+03  0.11016444546E+04  0.63763454911E+03 0.  0.
         13    1    3    3    0    0  0.26741380826E+03 -0.16931460980E+03  0.38300706000E+03  0.49686214381E+03  0.00000000000E+00 0. -1.
          2    1    3    3  501    0 -0.26741380826E+03  0.16931460980E+03  0.51534848544E+03  0.60478231074E+03  0.00000000000E+00 0. -1.
<mgrwt>
<rscale>  0 0.63763455E+03</rscale>
<asrwt>0</asrwt>
<pdfrwt beam="1">0</pdfrwt>
<pdfrwt beam="2">  1        2 0.36961698E+00 0.63763455E+03</pdfrwt>
<totfact> 0.51661184E+00</totfact>
</mgrwt>
</event>
<event>
 5    1  0.2381755E-004  0.6493795E+03  0.7818608E-02  0.9807944E-01
         13   -1    0    0    0    0  0.00000000000E+00  0.00000000000E+00  0.10000000000E+04  0.10000000000E+04  0.00000000000E+00 0. -1.
          2   -1    0    0  501    0 -0.00000000000E+00 -0.00000000000E+00 -0.10542344620E+03  0.10542344620E+03  0.00000000000E+00 0. -1.
    9000006    2    1    2  501    0  0.00000000000E+00  0.00000000000E+00  0.89457655380E+03  0.11054234462E+04  0.64937953832E+03 0.  0.
         13    1    3    3    0    0 -0.21875651932E+02 -0.19760203607E+03  0.10302501225E+02  0.19907599137E+03  0.00000000000E+00 0. -1.
          4    1    3    3  501    0  0.21875651932E+02  0.19760203607E+03  0.88427405258E+03  0.90634745483E+03  0.00000000000E+00 0. -1.
<mgrwt>
<rscale>  0 0.64937954E+03</rscale>
<asrwt>0</asrwt>
<pdfrwt beam="1">0</pdfrwt>
<pdfrwt beam="2">  1        2 0.38335879E+00 0.64937954E+03</pdfrwt>
<totfact> 0.45940984E+00</totfact>
</mgrwt>
</event>
<event>
 5    1  0.2381755E-004  0.6481070E+03  0.7818608E-02  0.9810338E-01
         13   -1    0    0    0    0  0.00000000000E+00  0.00000000000E+00  0.10000000000E+04  0.10000000000E+04  0.00000000000E+00 0. -1.
          2   -1    0    0  501    0 -0.00000000000E+00 -0.00000000000E+00 -0.10501067772E+03  0.10501067772E+03  0.00000000000E+00 0. -1.
    9000006    2    1    2  501    0  0.00000000000E+00  0.00000000000E+00  0.89498932228E+03  0.11050106777E+04  0.64810702115E+03 0.  0.
         13    1    3    3    0    0  0.22086160071E+03 -0.23696535963E+03  0.43241261701E+03  0.54028982933E+03  0.00000000000E+00 0. -1.
          2    1    3    3  501    0 -0.22086160071E+03  0.23696535963E+03  0.46257670528E+03  0.56472084838E+03  0.00000000000E+00 0. -1.
<mgrwt>
<rscale>  0 0.64810702E+03</rscale>
<asrwt>0</asrwt>
<pdfrwt beam="1">0</pdfrwt>
<pdfrwt beam="2">  1        2 0.38185782E+00 0.64810702E+03</pdfrwt>
<totfact> 0.46536385E+00</totfact>
</mgrwt>
</event>
<event>
 5    1  0.2381755E-004  0.6553059E+03  0.7818608E-02  0.9796874E-01
         13   -1    0    0    0    0  0.00000000000E+00  0.00000000000E+00  0.10000000000E+04  0.10000000000E+04  0.00000000000E+00 0. -1.
          2   -1    0    0  501    0 -0.00000000000E+00 -0.00000000000E+00 -0.10735645130E+03  0.10735645130E+03  0.00000000000E+00 0. -1.
    9000006    2    1    2  501    0  0.00000000000E+00  0.00000000000E+00  0.89264354870E+03  0.11073564513E+04  0.65530588675E+03 0.  0.
         13    1    3    3    0    0  0.30608990619E+03 -0.11664421233E+03  0.43328175356E+03  0.54316662352E+03  0.00000000000E+00 0. -1.
          2    1    3    3  501    0 -0.30608990619E+03  0.11664421233E+03  0.45936179514E+03  0.56418982778E+03  0.00000000000E+00 0. -1.
<mgrwt>
<rscale>  0 0.65530589E+03</rscale>
<asrwt>0</asrwt>
<pdfrwt beam="1">0</pdfrwt>
<pdfrwt beam="2">  1        2 0.39038792E+00 0.65530589E+03</pdfrwt>
<totfact> 0.43243551E+00</totfact>
</mgrwt>
</event>
<event>
 5    1  0.2381755E-004  0.6483721E+03  0.7818608E-02  0.9809839E-01
         13   -1    0    0    0    0  0.00000000000E+00  0.00000000000E+00  0.10000000000E+04  0.10000000000E+04  0.00000000000E+00 0. -1.
          2   -1    0    0  501    0 -0.00000000000E+00 -0.00000000000E+00 -0.10509660078E+03  0.10509660078E+03  0.00000000000E+00 0. -1.
    9000006    2    1    2  501    0  0.00000000000E+00  0.00000000000E+00  0.89490339922E+03  0.11050966008E+04  0.64837211779E+03 0.  0.
         13    1    3    3    0    0 -0.27265604704E+03 -0.73390329176E+02  0.71892604113E+03  0.77238728176E+03  0.00000000000E+00 0. -1.
          2    1    3    3  501    0  0.27265604704E+03  0.73390329176E+02  0.17597735809E+03  0.33270931902E+03  0.00000000000E+00 0. -1.
<mgrwt>
<rscale>  0 0.64837212E+03</rscale>
<asrwt>0</asrwt>
<pdfrwt beam="1">0</pdfrwt>
<pdfrwt beam="2">  1        2 0.38217026E+00 0.64837212E+03</pdfrwt>
<totfact> 0.46411870E+00</totfact>
</mgrwt>
</event>
<event>
 5    1  0.2381755E-004  0.6375116E+03  0.7818608E-02  0.9830499E-01
         13   -1    0    0    0    0  0.00000000000E+00  0.00000000000E+00  0.10000000000E+04  0.10000000000E+04  0.00000000000E+00 0. -1.
          2   -1    0    0  501    0 -0.00000000000E+00 -0.00000000000E+00 -0.10160525947E+03  0.10160525947E+03  0.00000000000E+00 0. -1.
    9000006    2    1    2  501    0  0.00000000000E+00  0.00000000000E+00  0.89839474053E+03  0.11016052595E+04  0.63751159822E+03 0.  0.
         13    1    3    3    0    0  0.69161602438E+02  0.31020139573E+03  0.49141896601E+03  0.58523570749E+03  0.00000000000E+00 0. -1.
          2    1    3    3  501    0 -0.69161602438E+02 -0.31020139573E+03  0.40697577452E+03  0.51636955198E+03  0.00000000000E+00 0. -1.
<mgrwt>
<rscale>  0 0.63751160E+03</rscale>
<asrwt>0</asrwt>
<pdfrwt beam="1">0</pdfrwt>
<pdfrwt beam="2">  1        2 0.36947445E+00 0.63751160E+03</pdfrwt>
<totfact> 0.51723784E+00</totfact>
</mgrwt>
</event>
<event>
 5    1  0.2381755E-004  0.6181830E+03  0.7818608E-02  0.9868384E-01
         13   -1    0    0    0    0  0.00000000000E+00  0.00000000000E+00  0.10000000000E+04  0.10000000000E+04  0.00000000000E+00 0. -1.
          2   -1    0    0  501    0 -0.00000000000E+00 -0.00000000000E+00 -0.95537541329E+02  0.95537541329E+02  0.00000000000E+00 0. -1.
    9000006    2    1    2  501    0  0.00000000000E+00  0.00000000000E+00  0.90446245867E+03  0.10955375413E+04  0.61818295457E+03 0.  0.
         13    1    3    3    0    0 -0.24319501479E+03  0.77413103423E+02  0.76122784793E+03  0.80287261771E+03  0.00000000000E+00 0. -1.
          4    1    3    3  501    0  0.24319501479E+03 -0.77413103423E+02  0.14323461074E+03  0.29266492362E+03  0.00000000000E+00 0. -1.
<mgrwt>
<rscale>  0 0.61818295E+03</rscale>
<asrwt>0</asrwt>
<pdfrwt beam="1">0</pdfrwt>
<pdfrwt beam="2">  1        2 0.34740997E+00 0.61818295E+03</pdfrwt>
<totfact> 0.62304586E+00</totfact>
</mgrwt>
</event>
<event>
 5    1  0.2381755E-004  0.6540246E+03  0.7818608E-02  0.9799256E-01
         13   -1    0    0    0    0  0.00000000000E+00  0.00000000000E+00  0.10000000000E+04  0.10000000000E+04  0.00000000000E+00 0. -1.
          2   -1    0    0  501    0 -0.00000000000E+00 -0.00000000000E+00 -0.10693705521E+03  0.10693705521E+03  0.00000000000E+00 0. -1.
    9000006    2    1    2  501    0  0.00000000000E+00  0.00000000000E+00  0.89306294479E+03  0.11069370552E+04  0.65402463321E+03 0.  0.
         13    1    3    3    0    0 -0.14212380234E+02  0.23505606906E+03  0.62502731319E+02  0.24363895168E+03  0.00000000000E+00 0. -1.
          2    1    3    3  501    0  0.14212380234E+02 -0.23505606906E+03  0.83056021347E+03  0.86329810353E+03  0.00000000000E+00 0. -1.
<mgrwt>
<rscale>  0 0.65402463E+03</rscale>
<asrwt>0</asrwt>
<pdfrwt beam="1">0</pdfrwt>
<pdfrwt beam="2">  1        2 0.38886284E+00 0.65402463E+03</pdfrwt>
<totfact> 0.43816310E+00</totfact>
</mgrwt>
</event>
<event>
 5    1  0.2381755E-004  0.6521439E+03  0.7818608E-02  0.9802765E-01
         13   -1    0    0    0    0  0.00000000000E+00  0.00000000000E+00  0.10000000000E+04  0.10000000000E+04  0.00000000000E+00 0. -1.
          2   -1    0    0  501    0 -0.00000000000E+00 -0.00000000000E+00 -0.10632290839E+03  0.10632290839E+03  0.00000000000E+00 0. -1.
    9000006    2    1    2  501    0  0.00000000000E+00  0.00000000000E+00  0.89367709161E+03  0.11063229084E+04  0.65214387488E+03 0.  0.
         13    1    3    3    0    0 -0.10204861793E+03 -0.21368067748E+03  0.82711952213E+03  0.86034879917E+03  0.00000000000E+00 0. -1.
          4    1    3    3  501    0  0.10204861793E+03  0.21368067748E+03  0.66557569488E+02  0.24597410922E+03  0.00000000000E+00 0. -1.
<mgrwt>
<rscale>  0 0.65214387E+03</rscale>
<asrwt>0</asrwt>
<pdfrwt beam="1">0</pdfrwt>
<pdfrwt beam="2">  1        2 0.38662957E+00 0.65214387E+03</pdfrwt>
<totfact> 0.44667422E+00</totfact>
</mgrwt>
</event>
<event>
 5    1  0.2381755E-004  0.6891395E+03  0.7818608E-02  0.9735987E-01
         13   -1    0    0    0    0  0.00000000000E+00  0.00000000000E+00  0.10000000000E+04  0.10000000000E+04  0.00000000000E+00 0. -1.
          2   -1    0    0  501    0 -0.00000000000E+00 -0.00000000000E+00 -0.11872831686E+03  0.11872831686E+03  0.00000000000E+00 0. -1.
    9000006    2    1    2  501    0  0.00000000000E+00  0.00000000000E+00  0.88127168314E+03  0.11187283169E+04  0.68913951232E+03 0.  0.
         13    1    3    3    0    0  0.48826888457E+02 -0.33862242186E+03  0.50715652410E+03  0.61176543671E+03  0.00000000000E+00 0. -1.
          2    1    3    3  501    0 -0.48826888457E+02  0.33862242186E+03  0.37411515904E+03  0.50696288015E+03  0.00000000000E+00 0. -1.
<mgrwt>
<rscale>  0 0.68913951E+03</rscale>
<asrwt>0</asrwt>
<pdfrwt beam="1">0</pdfrwt>
<pdfrwt beam="2">  1        2 0.43174024E+00 0.68913951E+03</pdfrwt>
<totfact> 0.30056334E+00</totfact>
</mgrwt>
</event>
<event>
 5    1  0.2381755E-004  0.6420686E+03  0.7818608E-02  0.9821777E-01
         13   -1    0    0    0    0  0.00000000000E+00  0.00000000000E+00  0.10000000000E+04  0.10000000000E+04  0.00000000000E+00 0. -1.
          2   -1    0    0  501    0 -0.00000000000E+00 -0.00000000000E+00 -0.10306303150E+03  0.10306303150E+03  0.00000000000E+00 0. -1.
    9000006    2    1    2  501    0  0.00000000000E+00  0.00000000000E+00  0.89693696850E+03  0.11030630315E+04  0.64206863030E+03 0.  0.
         13    1    3    3    0    0  0.19648069722E+02 -0.31326400457E+03  0.33267784942E+03  0.45737832775E+03  0.00000000000E+00 0. -1.
          4    1    3    3  501    0 -0.19648069722E+02  0.31326400457E+03  0.56425911907E+03  0.64568470375E+03  0.00000000000E+00 0. -1.
<mgrwt>
<rscale>  0 0.64206863E+03</rscale>
<asrwt>0</asrwt>
<pdfrwt beam="1">0</pdfrwt>
<pdfrwt beam="2">  1        2 0.37477545E+00 0.64206863E+03</pdfrwt>
<totfact> 0.49441692E+00</totfact>
</mgrwt>
</event>
<event>
 5    1  0.2381755E-004  0.6362049E+03  0.7818608E-02  0.9833015E-01
         13   -1    0    0    0    0  0.00000000000E+00  0.00000000000E+00  0.10000000000E+04  0.10000000000E+04  0.00000000000E+00 0. -1.
          2   -1    0    0  501    0 -0.00000000000E+00 -0.00000000000E+00 -0.10118915941E+03  0.10118915941E+03  0.00000000000E+00 0. -1.
    9000006    2    1    2  501    0  0.00000000000E+00  0.00000000000E+00  0.89881084059E+03  0.11011891594E+04  0.63620487080E+03 0.  0.
         13    1    3    3    0    0  0.11464741616E+03 -0.23824869401E+03  0.14326760584E+03  0.30071926628E+03  0.00000000000E+00 0. -1.
          4    1    3    3  501    0 -0.11464741616E+03  0.23824869401E+03  0.75554323475E+03  0.80046989313E+03  0.00000000000E+00 0. -1.
<mgrwt>
<rscale>  0 0.63620487E+03</rscale>
<asrwt>0</asrwt>
<pdfrwt beam="1">0</pdfrwt>
<pdfrwt beam="2">  1        2 0.36796136E+00 0.63620487E+03</pdfrwt>
<totfact> 0.52392651E+00</totfact>
</mgrwt>
</event>
<event>
 5    1  0.2381755E-004  0.5341834E+03  0.7818608E-02  0.1005223E+00
         13   -1    0    0    0    0  0.00000000000E+00  0.00000000000E+00  0.10000000000E+04  0.10000000000E+04  0.00000000000E+00 0. -1.
          2   -1    0    0  501    0 -0.00000000000E+00 -0.00000000000E+00 -0.71337967603E+02  0.71337967603E+02  0.00000000000E+00 0. -1.
    9000006    2    1    2  501    0  0.00000000000E+00  0.00000000000E+00  0.92866203240E+03  0.10713379676E+04  0.53418336778E+03 0.  0.
         13    1    3    3    0    0  0.44086858124E+01 -0.25379379997E+03  0.29764915131E+03  0.39118505427E+03  0.00000000000E+00 0. -1.
          2    1    3    3  501    0 -0.44086858124E+01  0.25379379997E+03  0.63101288109E+03  0.68015291333E+03  0.00000000000E+00 0. -1.
<mgrwt>
<rscale>  0 0.53418337E+03</rscale>
<asrwt>0</asrwt>
<pdfrwt beam="1">0</pdfrwt>
<pdfrwt beam="2">  1        2 0.25941134E+00 0.53418337E+03</pdfrwt>
<totfact> 0.12896205E+01</totfact>
</mgrwt>
</event>
<event>
 5    1  0.2381755E-004  0.6074318E+03  0.7818608E-02  0.9890106E-01
         13   -1    0    0    0    0  0.00000000000E+00  0.00000000000E+00  0.10000000000E+04  0.10000000000E+04  0.00000000000E+00 0. -1.
          2   -1    0    0  501    0 -0.00000000000E+00 -0.00000000000E+00 -0.92243333495E+02  0.92243333495E+02  0.00000000000E+00 0. -1.
    9000006    2    1    2  501    0  0.00000000000E+00  0.00000000000E+00  0.90775666651E+03  0.10922433335E+04  0.60743175253E+03 0.  0.
         13    1    3    3    0    0  0.14153536162E+03 -0.25276779414E+03  0.28986808981E+03  0.40981376969E+03  0.00000000000E+00 0. -1.
          4    1    3    3  501    0 -0.14153536162E+03  0.25276779414E+03  0.61788857669E+03  0.68242956380E+03  0.00000000000E+00 0. -1.
<mgrwt>
<rscale>  0 0.60743175E+03</rscale>
<asrwt>0</asrwt>
<pdfrwt beam="1">0</pdfrwt>
<pdfrwt beam="2">  1        2 0.33543101E+00 0.60743175E+03</pdfrwt>
<totfact> 0.68861225E+00</totfact>
</mgrwt>
</event>
<event>
 5    1  0.2381755E-004  0.6344822E+03  0.7818608E-02  0.9836341E-01
         13   -1    0    0    0    0  0.00000000000E+00  0.00000000000E+00  0.10000000000E+04  0.10000000000E+04  0.00000000000E+00 0. -1.
          2   -1    0    0  501    0 -0.00000000000E+00 -0.00000000000E+00 -0.10064191027E+03  0.10064191027E+03  0.00000000000E+00 0. -1.
    9000006    2    1    2  501    0  0.00000000000E+00  0.00000000000E+00  0.89935808973E+03  0.11006419103E+04  0.63448218341E+03 0.  0.
         13    1    3    3    0    0  0.11967160438E+02 -0.21278030546E+03  0.42028945905E+02  0.21722132403E+03  0.00000000000E+00 0. -1.
          2    1    3    3  501    0 -0.11967160438E+02  0.21278030546E+03  0.85732914383E+03  0.88342058623E+03  0.00000000000E+00 0. -1.
<mgrwt>
<rscale>  0 0.63448218E+03</rscale>
<asrwt>0</asrwt>
<pdfrwt beam="1">0</pdfrwt>
<pdfrwt beam="2">  1        2 0.36597135E+00 0.63448218E+03</pdfrwt>
<totfact> 0.53284427E+00</totfact>
</mgrwt>
</event>
<event>
 5    1  0.2381755E-004  0.6382966E+03  0.7818608E-02  0.9828991E-01
         13   -1    0    0    0    0  0.00000000000E+00  0.00000000000E+00  0.10000000000E+04  0.10000000000E+04  0.00000000000E+00 0. -1.
          2   -1    0    0  501    0 -0.00000000000E+00 -0.00000000000E+00 -0.10185563570E+03  0.10185563570E+03  0.00000000000E+00 0. -1.
    9000006    2    1    2  501    0  0.00000000000E+00  0.00000000000E+00  0.89814436430E+03  0.11018556357E+04  0.63829659470E+03 0.  0.
         13    1    3    3    0    0  0.14351027135E+03  0.18594097523E+03  0.82206229811E+03  0.85495945297E+03  0.00000000000E+00 0. -1.
          2    1    3    3  501    0 -0.14351027135E+03 -0.18594097523E+03  0.76082066191E+02  0.24689618273E+03  0.00000000000E+00 0. -1.
<mgrwt>
<rscale>  0 0.63829659E+03</rscale>
<asrwt>0</asrwt>
<pdfrwt beam="1">0</pdfrwt>
<pdfrwt beam="2">  1        2 0.37038491E+00 0.63829659E+03</pdfrwt>
<totfact> 0.51325095E+00</totfact>
</mgrwt>
</event>
<event>
 5    1  0.2381755E-004  0.6461476E+03  0.7818608E-02  0.9814035E-01
         13   -1    0    0    0    0  0.00000000000E+00  0.00000000000E+00  0.10000000000E+04  0.10000000000E+04  0.00000000000E+00 0. -1.
          2   -1    0    0  501    0 -0.00000000000E+00 -0.00000000000E+00 -0.10437667012E+03  0.10437667012E+03  0.00000000000E+00 0. -1.
    9000006    2    1    2  501    0  0.00000000000E+00  0.00000000000E+00  0.89562332988E+03  0.11043766701E+04  0.64614756866E+03 0.  0.
         13    1    3    3    0    0 -0.47173117689E+02  0.12934409011E+03 -0.51726918890E+02  0.14707437172E+03  0.00000000000E+00 0. -1.
          2    1    3    3  501    0  0.47173117689E+02 -0.12934409011E+03  0.94735024877E+03  0.95730229840E+03  0.00000000000E+00 0. -1.
<mgrwt>
<rscale>  0 0.64614757E+03</rscale>
<asrwt>0</asrwt>
<pdfrwt beam="1">0</pdfrwt>
<pdfrwt beam="2">  1        2 0.37955233E+00 0.64614757E+03</pdfrwt>
<totfact> 0.47464584E+00</totfact>
</mgrwt>
</event>
<event>
 5    1  0.2381755E-004  0.6509469E+03  0.7818608E-02  0.9805004E-01
         13   -1    0    0    0    0  0.00000000000E+00  0.00000000000E+00  0.10000000000E+04  0.10000000000E+04  0.00000000000E+00 0. -1.
          2   -1    0    0  501    0 -0.00000000000E+00 -0.00000000000E+00 -0.10593297131E+03  0.10593297131E+03  0.00000000000E+00 0. -1.
    9000006    2    1    2  501    0  0.00000000000E+00  0.00000000000E+00  0.89406702869E+03  0.11059329713E+04  0.65094691431E+03 0.  0.
         13    1    3    3    0    0  0.44613030505E+02 -0.18041940993E+03  0.90098186467E+03  0.91995098045E+03  0.00000000000E+00 0. -1.
          4    1    3    3  501    0 -0.44613030505E+02  0.18041940993E+03 -0.69148359814E+01  0.18598199086E+03  0.00000000000E+00 0. -1.
<mgrwt>
<rscale>  0 0.65094691E+03</rscale>
<asrwt>0</asrwt>
<pdfrwt beam="1">0</pdfrwt>
<pdfrwt beam="2">  1        2 0.38521162E+00 0.65094691E+03</pdfrwt>
<totfact> 0.45215556E+00</totfact>
</mgrwt>
</event>
<event>
 5    1  0.2381755E-004  0.6356658E+03  0.7818608E-02  0.9834054E-01
         13   -1    0    0    0    0  0.00000000000E+00  0.00000000000E+00  0.10000000000E+04  0.10000000000E+04  0.00000000000E+00 0. -1.
          2   -1    0    0  501    0 -0.00000000000E+00 -0.00000000000E+00 -0.10101775686E+03  0.10101775686E+03  0.00000000000E+00 0. -1.
    9000006    2    1    2  501    0  0.00000000000E+00  0.00000000000E+00  0.89898224314E+03  0.11010177569E+04  0.63566581429E+03 0.  0.
         13    1    3    3    0    0 -0.35951320374E+02  0.18803381135E+03  0.10048361115E+02  0.19170336775E+03  0.00000000000E+00 0. -1.
          4    1    3    3  501    0  0.35951320374E+02 -0.18803381135E+03  0.88893388202E+03  0.90931438911E+03  0.00000000000E+00 0. -1.
<mgrwt>
<rscale>  0 0.63566581E+03</rscale>
<asrwt>0</asrwt>
<pdfrwt beam="1">0</pdfrwt>
<pdfrwt beam="2">  1        2 0.36733807E+00 0.63566581E+03</pdfrwt>
<totfact> 0.52670476E+00</totfact>
</mgrwt>
</event>
<event>
 5    1  0.2381755E-004  0.6507017E+03  0.7818608E-02  0.9805463E-01
         13   -1    0    0    0    0  0.00000000000E+00  0.00000000000E+00  0.10000000000E+04  0.10000000000E+04  0.00000000000E+00 0. -1.
          2   -1    0    0  501    0 -0.00000000000E+00 -0.00000000000E+00 -0.10585319180E+03  0.10585319180E+03  0.00000000000E+00 0. -1.
    9000006    2    1    2  501    0  0.00000000000E+00  0.00000000000E+00  0.89414680820E+03  0.11058531918E+04  0.65070174980E+03 0.  0.
         13    1    3    3    0    0  0.32192533399E+03  0.39141837242E+02  0.40258771891E+03  0.51695732465E+03  0.00000000000E+00 0. -1.
          4    1    3    3  501    0 -0.32192533399E+03 -0.39141837242E+02  0.49155908929E+03  0.58889586715E+03  0.00000000000E+00 0. -1.
<mgrwt>
<rscale>  0 0.65070175E+03</rscale>
<asrwt>0</asrwt>
<pdfrwt beam="1">0</pdfrwt>
<pdfrwt beam="2">  1        2 0.38492151E+00 0.65070175E+03</pdfrwt>
<totfact> 0.45328450E+00</totfact>
</mgrwt>
</event>
<event>
 5    1  0.2381755E-004  0.6507316E+03  0.7818608E-02  0.9805407E-01
         13   -1    0    0    0    0  0.00000000000E+00  0.00000000000E+00  0.10000000000E+04  0.10000000000E+04  0.00000000000E+00 0. -1.
          2   -1    0    0  501    0 -0.00000000000E+00 -0.00000000000E+00 -0.10586289007E+03  0.10586289007E+03  0.00000000000E+00 0. -1.
    9000006    2    1    2  501    0  0.00000000000E+00  0.00000000000E+00  0.89413710993E+03  0.11058628901E+04  0.65073155779E+03 0.  0.
         13    1    3    3    0    0 -0.43425045824E+02 -0.31358054456E+03  0.31939286516E+03  0.44970022776E+03  0.00000000000E+00 0. -1.
          2    1    3    3  501    0  0.43425045824E+02  0.31358054456E+03  0.57474424477E+03  0.65616266232E+03  0.00000000000E+00 0. -1.
<mgrwt>
<rscale>  0 0.65073156E+03</rscale>
<asrwt>0</asrwt>
<pdfrwt beam="1">0</pdfrwt>
<pdfrwt beam="2">  1        2 0.38495678E+00 0.65073156E+03</pdfrwt>
<totfact> 0.45314713E+00</totfact>
</mgrwt>
</event>
<event>
 5    1  0.2381755E-004  0.5378330E+03  0.7818608E-02  0.1004350E+00
         13   -1    0    0    0    0  0.00000000000E+00  0.00000000000E+00  0.10000000000E+04  0.10000000000E+04  0.00000000000E+00 0. -1.
          2   -1    0    0  501    0 -0.00000000000E+00 -0.00000000000E+00 -0.72316080906E+02  0.72316080906E+02  0.00000000000E+00 0. -1.
    9000006    2    1    2  501    0  0.00000000000E+00  0.00000000000E+00  0.92768391909E+03  0.10723160809E+04  0.53783298860E+03 0.  0.
         13    1    3    3    0    0 -0.15099983293E+03  0.20915288634E+03  0.31239140359E+03  0.40513487686E+03  0.00000000000E+00 0. -1.
          2    1    3    3  501    0  0.15099983293E+03 -0.20915288634E+03  0.61529251550E+03  0.66718120405E+03  0.00000000000E+00 0. -1.
<mgrwt>
<rscale>  0 0.53783299E+03</rscale>
<asrwt>0</asrwt>
<pdfrwt beam="1">0</pdfrwt>
<pdfrwt beam="2">  1        2 0.26296812E+00 0.53783299E+03</pdfrwt>
<totfact> 0.12523293E+01</totfact>
</mgrwt>
</event>
<event>
 5    1  0.2381755E-004  0.6487465E+03  0.7818608E-02  0.9809134E-01
         13   -1    0    0    0    0  0.00000000000E+00  0.00000000000E+00  0.10000000000E+04  0.10000000000E+04  0.00000000000E+00 0. -1.
          2   -1    0    0  501    0 -0.00000000000E+00 -0.00000000000E+00 -0.10521799806E+03  0.10521799806E+03  0.00000000000E+00 0. -1.
    9000006    2    1    2  501    0  0.00000000000E+00  0.00000000000E+00  0.89478200194E+03  0.11052179981E+04  0.64874647764E+03 0.  0.
         13    1    3    3    0    0  0.17283860720E+03 -0.14574601501E+02 -0.19576387705E+02  0.17455325292E+03  0.00000000000E+00 0. -1.
          4    1    3    3  501    0 -0.17283860720E+03  0.14574601501E+02  0.91435838964E+03  0.93066474515E+03  0.00000000000E+00 0. -1.
<mgrwt>
<rscale>  0 0.64874648E+03</rscale>
<asrwt>0</asrwt>
<pdfrwt beam="1">0</pdfrwt>
<pdfrwt beam="2">  1        2 0.38261171E+00 0.64874648E+03</pdfrwt>
<totfact> 0.46236464E+00</totfact>
</mgrwt>
</event>
<event>
 5    1  0.2381755E-004  0.6480817E+03  0.7818608E-02  0.9810385E-01
         13   -1    0    0    0    0  0.00000000000E+00  0.00000000000E+00  0.10000000000E+04  0.10000000000E+04  0.00000000000E+00 0. -1.
          2   -1    0    0  501    0 -0.00000000000E+00 -0.00000000000E+00 -0.10500248102E+03  0.10500248102E+03  0.00000000000E+00 0. -1.
    9000006    2    1    2  501    0  0.00000000000E+00  0.00000000000E+00  0.89499751898E+03  0.11050024810E+04  0.64808172638E+03 0.  0.
         13    1    3    3    0    0  0.26395906881E+02 -0.19861252776E+03  0.88172686997E+03  0.90420459704E+03  0.00000000000E+00 0. -1.
          4    1    3    3  501    0 -0.26395906881E+02  0.19861252776E+03  0.13270649012E+02  0.20079788398E+03  0.00000000000E+00 0. -1.
<mgrwt>
<rscale>  0 0.64808173E+03</rscale>
<asrwt>0</asrwt>
<pdfrwt beam="1">0</pdfrwt>
<pdfrwt beam="2">  1        2 0.38182801E+00 0.64808173E+03</pdfrwt>
<totfact> 0.46548279E+00</totfact>
</mgrwt>
</event>
<event>
 5    1  0.2381755E-004  0.6522307E+03  0.7818608E-02  0.9802602E-01
         13   -1    0    0    0    0  0.00000000000E+00  0.00000000000E+00  0.10000000000E+04  0.10000000000E+04  0.00000000000E+00 0. -1.
          2   -1    0    0  501    0 -0.00000000000E+00 -0.00000000000E+00 -0.10635122003E+03  0.10635122003E+03  0.00000000000E+00 0. -1.
    9000006    2    1    2  501    0  0.00000000000E+00  0.00000000000E+00  0.89364877997E+03  0.11063512200E+04  0.65223069548E+03 0.  0.
         13    1    3    3    0    0  0.17528763603E+03 -0.20288761071E+03  0.76171705298E+03  0.80752833184E+03  0.00000000000E+00 0. -1.
          4    1    3    3  501    0 -0.17528763603E+03  0.20288761071E+03  0.13193172699E+03  0.29882288819E+03  0.00000000000E+00 0. -1.
<mgrwt>
<rscale>  0 0.65223070E+03</rscale>
<asrwt>0</asrwt>
<pdfrwt beam="1">0</pdfrwt>
<pdfrwt beam="2">  1        2 0.38673252E+00 0.65223070E+03</pdfrwt>
<totfact> 0.44627860E+00</totfact>
</mgrwt>
</event>
<event>
 5    1  0.2381755E-004  0.6480083E+03  0.7818608E-02  0.9810524E-01
         13   -1    0    0    0    0  0.00000000000E+00  0.00000000000E+00  0.10000000000E+04  0.10000000000E+04  0.00000000000E+00 0. -1.
          2   -1    0    0  501    0 -0.00000000000E+00 -0.00000000000E+00 -0.10497868890E+03  0.10497868890E+03  0.00000000000E+00 0. -1.
    9000006    2    1    2  501    0  0.00000000000E+00  0.00000000000E+00  0.89502131110E+03  0.11049786889E+04  0.64800829902E+03 0.  0.
         13    1    3    3    0    0 -0.32083498385E+03  0.11029865539E+02  0.52226625203E+03  0.61304060453E+03  0.00000000000E+00 0. -1.
          4    1    3    3  501    0  0.32083498385E+03 -0.11029865539E+02  0.37275505907E+03  0.49193808437E+03  0.00000000000E+00 0. -1.
<mgrwt>
<rscale>  0 0.64800830E+03</rscale>
<asrwt>0</asrwt>
<pdfrwt beam="1">0</pdfrwt>
<pdfrwt beam="2">  1        2 0.38174149E+00 0.64800830E+03</pdfrwt>
<totfact> 0.46582819E+00</totfact>
</mgrwt>
</event>
<event>
 5    1  0.2381755E-004  0.6542812E+03  0.7818608E-02  0.9798779E-01
         13   -1    0    0    0    0  0.00000000000E+00  0.00000000000E+00  0.10000000000E+04  0.10000000000E+04  0.00000000000E+00 0. -1.
          2   -1    0    0  501    0 -0.00000000000E+00 -0.00000000000E+00 -0.10702095760E+03  0.10702095760E+03  0.00000000000E+00 0. -1.
    9000006    2    1    2  501    0  0.00000000000E+00  0.00000000000E+00  0.89297904240E+03  0.11070209576E+04  0.65428115547E+03 0.  0.
         13    1    3    3    0    0  0.34630508253E+01 -0.15993877081E+03  0.92930345309E+03  0.94297259295E+03  0.00000000000E+00 0. -1.
          4    1    3    3  501    0 -0.34630508253E+01  0.15993877081E+03 -0.36324410694E+02  0.16404836464E+03  0.00000000000E+00 0. -1.
<mgrwt>
<rscale>  0 0.65428116E+03</rscale>
<asrwt>0</asrwt>
<pdfrwt beam="1">0</pdfrwt>
<pdfrwt beam="2">  1        2 0.38916794E+00 0.65428116E+03</pdfrwt>
<totfact> 0.43701181E+00</totfact>
</mgrwt>
</event>
<event>
 5    1  0.2381755E-004  0.6536367E+03  0.7818608E-02  0.9799979E-01
         13   -1    0    0    0    0  0.00000000000E+00  0.00000000000E+00  0.10000000000E+04  0.10000000000E+04  0.00000000000E+00 0. -1.
          2   -1    0    0  501    0 -0.00000000000E+00 -0.00000000000E+00 -0.10681024783E+03  0.10681024783E+03  0.00000000000E+00 0. -1.
    9000006    2    1    2  501    0  0.00000000000E+00  0.00000000000E+00  0.89318975217E+03  0.11068102478E+04  0.65363674262E+03 0.  0.
         13    1    3    3    0    0  0.26858230705E+03 -0.16886947382E+03  0.31372775753E+03  0.44618209365E+03  0.00000000000E+00 0. -1.
          4    1    3    3  501    0 -0.26858230705E+03  0.16886947382E+03  0.57946199465E+03  0.66062815418E+03  0.00000000000E+00 0. -1.
<mgrwt>
<rscale>  0 0.65363674E+03</rscale>
<asrwt>0</asrwt>
<pdfrwt beam="1">0</pdfrwt>
<pdfrwt beam="2">  1        2 0.38840172E+00 0.65363674E+03</pdfrwt>
<totfact> 0.43990833E+00</totfact>
</mgrwt>
</event>
<event>
 5    1  0.2381755E-004  0.6241716E+03  0.7818608E-02  0.9856489E-01
         13   -1    0    0    0    0  0.00000000000E+00  0.00000000000E+00  0.10000000000E+04  0.10000000000E+04  0.00000000000E+00 0. -1.
          2   -1    0    0  501    0 -0.00000000000E+00 -0.00000000000E+00 -0.97397538438E+02  0.97397538438E+02  0.00000000000E+00 0. -1.
    9000006    2    1    2  501    0  0.00000000000E+00  0.00000000000E+00  0.90260246156E+03  0.10973975384E+04  0.62417157397E+03 0.  0.
         13    1    3    3    0    0 -0.19165364271E+03 -0.24529310882E+03  0.49052491387E+03  0.58095999787E+03  0.00000000000E+00 0. -1.
          2    1    3    3  501    0  0.19165364271E+03  0.24529310882E+03  0.41207754769E+03  0.51643754057E+03  0.00000000000E+00 0. -1.
<mgrwt>
<rscale>  0 0.62417157E+03</rscale>
<asrwt>0</asrwt>
<pdfrwt beam="1">0</pdfrwt>
<pdfrwt beam="2">  1        2 0.35417361E+00 0.62417157E+03</pdfrwt>
<totfact> 0.58865286E+00</totfact>
</mgrwt>
</event>
<event>
 5    1  0.2381755E-004  0.6608902E+03  0.7818608E-02  0.9786556E-01
         13   -1    0    0    0    0  0.00000000000E+00  0.00000000000E+00  0.10000000000E+04  0.10000000000E+04  0.00000000000E+00 0. -1.
          2   -1    0    0  501    0 -0.00000000000E+00 -0.00000000000E+00 -0.10919396708E+03  0.10919396708E+03  0.00000000000E+00 0. -1.
    9000006    2    1    2  501    0  0.00000000000E+00  0.00000000000E+00  0.89080603292E+03  0.11091939671E+04  0.66089020897E+03 0.  0.
         13    1    3    3    0    0 -0.12323838001E+03 -0.28491279920E+03  0.25529175149E+03  0.40191650854E+03  0.00000000000E+00 0. -1.
          4    1    3    3  501    0  0.12323838001E+03  0.28491279920E+03  0.63551428143E+03  0.70727745854E+03  0.00000000000E+00 0. -1.
<mgrwt>
<rscale>  0 0.66089021E+03</rscale>
<asrwt>0</asrwt>
<pdfrwt beam="1">0</pdfrwt>
<pdfrwt beam="2">  1        2 0.39706981E+00 0.66089021E+03</pdfrwt>
<totfact> 0.40813020E+00</totfact>
</mgrwt>
</event>
<event>
 5    1  0.2381755E-004  0.6418878E+03  0.7818608E-02  0.9822121E-01
         13   -1    0    0    0    0  0.00000000000E+00  0.00000000000E+00  0.10000000000E+04  0.10000000000E+04  0.00000000000E+00 0. -1.
          2   -1    0    0  501    0 -0.00000000000E+00 -0.00000000000E+00 -0.10300497885E+03  0.10300497885E+03  0.00000000000E+00 0. -1.
    9000006    2    1    2  501    0  0.00000000000E+00  0.00000000000E+00  0.89699502115E+03  0.11030049788E+04  0.64188777477E+03 0.  0.
         13    1    3    3    0    0 -0.16870216179E+03  0.24684626564E+03  0.24801751102E+03  0.38846645161E+03  0.00000000000E+00 0. -1.
          4    1    3    3  501    0  0.16870216179E+03 -0.24684626564E+03  0.64897751013E+03  0.71453852724E+03  0.00000000000E+00 0. -1.
<mgrwt>
<rscale>  0 0.64188777E+03</rscale>
<asrwt>0</asrwt>
<pdfrwt beam="1">0</pdfrwt>
<pdfrwt beam="2">  1        2 0.37456435E+00 0.64188777E+03</pdfrwt>
<totfact> 0.49530781E+00</totfact>
</mgrwt>
</event>
<event>
 5    1  0.2381755E-004  0.5601929E+03  0.7818608E-02  0.9991618E-01
         13   -1    0    0    0    0  0.00000000000E+00  0.00000000000E+00  0.10000000000E+04  0.10000000000E+04  0.00000000000E+00 0. -1.
          2   -1    0    0  501    0 -0.00000000000E+00 -0.00000000000E+00 -0.78454007301E+02  0.78454007301E+02  0.00000000000E+00 0. -1.
    9000006    2    1    2  501    0  0.00000000000E+00  0.00000000000E+00  0.92154599270E+03  0.10784540073E+04  0.56019285001E+03 0.  0.
         13    1    3    3    0    0  0.47380786431E+02 -0.19619535880E+03  0.86895376769E+02  0.21974613590E+03  0.00000000000E+00 0. -1.
          2    1    3    3  501    0 -0.47380786431E+02  0.19619535880E+03  0.83465061593E+03  0.85870787140E+03  0.00000000000E+00 0. -1.
<mgrwt>
<rscale>  0 0.56019285E+03</rscale>
<asrwt>0</asrwt>
<pdfrwt beam="1">0</pdfrwt>
<pdfrwt beam="2">  1        2 0.28528790E+00 0.56019285E+03</pdfrwt>
<totfact> 0.10421294E+01</totfact>
</mgrwt>
</event>
<event>
 5    1  0.2381755E-004  0.6463566E+03  0.7818608E-02  0.9813640E-01
         13   -1    0    0    0    0  0.00000000000E+00  0.00000000000E+00  0.10000000000E+04  0.10000000000E+04  0.00000000000E+00 0. -1.
          2   -1    0    0  501    0 -0.00000000000E+00 -0.00000000000E+00 -0.10444420299E+03  0.10444420299E+03  0.00000000000E+00 0. -1.
    9000006    2    1    2  501    0  0.00000000000E+00  0.00000000000E+00  0.89555579701E+03  0.11044442030E+04  0.64635656719E+03 0.  0.
         13    1    3    3    0    0 -0.24757982156E+03  0.16449186354E+03  0.66452897664E+03  0.72797809170E+03  0.00000000000E+00 0. -1.
          4    1    3    3  501    0  0.24757982156E+03 -0.16449186354E+03  0.23102682038E+03  0.37646611128E+03  0.00000000000E+00 0. -1.
<mgrwt>
<rscale>  0 0.64635657E+03</rscale>
<asrwt>0</asrwt>
<pdfrwt beam="1">0</pdfrwt>
<pdfrwt beam="2">  1        2 0.37979790E+00 0.64635657E+03</pdfrwt>
<totfact> 0.47364919E+00</totfact>
</mgrwt>
</event>
<event>
 5    1  0.2381755E-004  0.6514241E+03  0.7818608E-02  0.9804111E-01
         13   -1    0    0    0    0  0.00000000000E+00  0.00000000000E+00  0.10000000000E+04  0.10000000000E+04  0.00000000000E+00 0. -1.
          2   -1    0    0  501    0 -0.00000000000E+00 -0.00000000000E+00 -0.10608834914E+03  0.10608834914E+03  0.00000000000E+00 0. -1.
    9000006    2    1    2  501    0  0.00000000000E+00  0.00000000000E+00  0.89391165086E+03  0.11060883491E+04  0.65142412956E+03 0.  0.
         13    1    3    3    0    0 -0.26493984579E+03 -0.18666792980E+03  0.39192766646E+03  0.50857185691E+03  0.00000000000E+00 0. -1.
          4    1    3    3  501    0  0.26493984579E+03  0.18666792980E+03  0.50198398440E+03  0.59751649224E+03  0.00000000000E+00 0. -1.
<mgrwt>
<rscale>  0 0.65142413E+03</rscale>
<asrwt>0</asrwt>
<pdfrwt beam="1">0</pdfrwt>
<pdfrwt beam="2">  1        2 0.38577663E+00 0.65142413E+03</pdfrwt>
<totfact> 0.44996415E+00</totfact>
</mgrwt>
</event>
<event>
 5    1  0.2381755E-004  0.6435428E+03  0.7818608E-02  0.9818972E-01
         13   -1    0    0    0    0  0.00000000000E+00  0.00000000000E+00  0.10000000000E+04  0.10000000000E+04  0.00000000000E+00 0. -1.
          2   -1    0    0  501    0 -0.00000000000E+00 -0.00000000000E+00 -0.10353682551E+03  0.10353682551E+03  0.00000000000E+00 0. -1.
    9000006    2    1    2  501    0  0.00000000000E+00  0.00000000000E+00  0.89646317449E+03  0.11035368255E+04  0.64354277406E+03 0.  0.
         13    1    3    3    0    0  0.42398742799E+01 -0.30823708913E+03  0.60640816983E+03  0.68026388122E+03  0.00000000000E+00 0. -1.
          4    1    3    3  501    0 -0.42398742799E+01  0.30823708913E+03  0.29005500466E+03  0.42327294430E+03  0.00000000000E+00 0. -1.
<mgrwt>
<rscale>  0 0.64354277E+03</rscale>
<asrwt>0</asrwt>
<pdfrwt beam="1">0</pdfrwt>
<pdfrwt beam="2">  1        2 0.37649834E+00 0.64354277E+03</pdfrwt>
<totfact> 0.48720086E+00</totfact>
</mgrwt>
</event>
<event>
 5    1  0.2381755E-004  0.6500401E+03  0.7818608E-02  0.9806704E-01
         13   -1    0    0    0    0  0.00000000000E+00  0.00000000000E+00  0.10000000000E+04  0.10000000000E+04  0.00000000000E+00 0. -1.
          2   -1    0    0  501    0 -0.00000000000E+00 -0.00000000000E+00 -0.10563804244E+03  0.10563804244E+03  0.00000000000E+00 0. -1.
    9000006    2    1    2  501    0  0.00000000000E+00  0.00000000000E+00  0.89436195756E+03  0.11056380424E+04  0.65004012934E+03 0.  0.
         13    1    3    3    0    0 -0.10895929341E+03 -0.20706265722E+03  0.83088219264E+03  0.86319887030E+03  0.00000000000E+00 0. -1.
          2    1    3    3  501    0  0.10895929341E+03  0.20706265722E+03  0.63479764921E+02  0.24243917214E+03  0.00000000000E+00 0. -1.
<mgrwt>
<rscale>  0 0.65004013E+03</rscale>
<asrwt>0</asrwt>
<pdfrwt beam="1">0</pdfrwt>
<pdfrwt beam="2">  1        2 0.38413915E+00 0.65004013E+03</pdfrwt>
<totfact> 0.45634179E+00</totfact>
</mgrwt>
</event>
<event>
 5    1  0.2381755E-004  0.6620030E+03  0.7818608E-02  0.9784513E-01
         13   -1    0    0    0    0  0.00000000000E+00  0.00000000000E+00  0.10000000000E+04  0.10000000000E+04  0.00000000000E+00 0. -1.
          2   -1    0    0  501    0 -0.00000000000E+00 -0.00000000000E+00 -0.10956199733E+03  0.10956199733E+03  0.00000000000E+00 0. -1.
    9000006    2    1    2  501    0  0.00000000000E+00  0.00000000000E+00  0.89043800267E+03  0.11095619973E+04  0.66200301309E+03 0.  0.
         13    1    3    3    0    0  0.15846870040E+03  0.15908170893E+02 -0.41119755861E+02  0.16448779052E+03  0.00000000000E+00 0. -1.
          2    1    3    3  501    0 -0.15846870040E+03 -0.15908170893E+02  0.93155775853E+03  0.94507420681E+03  0.00000000000E+00 0. -1.
<mgrwt>
<rscale>  0 0.66200301E+03</rscale>
<asrwt>0</asrwt>
<pdfrwt beam="1">0</pdfrwt>
<pdfrwt beam="2">  1        2 0.39840810E+00 0.66200301E+03</pdfrwt>
<totfact> 0.40341296E+00</totfact>
</mgrwt>
</event>
<event>
 5    1  0.2381755E-004  0.6494405E+03  0.7818608E-02  0.9807830E-01
         13   -1    0    0    0    0  0.00000000000E+00  0.00000000000E+00  0.10000000000E+04  0.10000000000E+04  0.00000000000E+00 0. -1.
          2   -1    0    0  501    0 -0.00000000000E+00 -0.00000000000E+00 -0.10544323721E+03  0.10544323721E+03  0.00000000000E+00 0. -1.
    9000006    2    1    2  501    0  0.00000000000E+00  0.00000000000E+00  0.89455676279E+03  0.11054432372E+04  0.64944048907E+03 0.  0.
         13    1    3    3    0    0  0.20889957892E+03 -0.23506407477E+03  0.58502703506E+03  0.66419182852E+03  0.00000000000E+00 0. -1.
          2    1    3    3  501    0 -0.20889957892E+03  0.23506407477E+03  0.30952972773E+03  0.44125140869E+03  0.00000000000E+00 0. -1.
<mgrwt>
<rscale>  0 0.64944049E+03</rscale>
<asrwt>0</asrwt>
<pdfrwt beam="1">0</pdfrwt>
<pdfrwt beam="2">  1        2 0.38343076E+00 0.64944049E+03</pdfrwt>
<totfact> 0.45912611E+00</totfact>
</mgrwt>
</event>
<event>
 5    1  0.2381755E-004  0.6356644E+03  0.7818608E-02  0.9834057E-01
         13   -1    0    0    0    0  0.00000000000E+00  0.00000000000E+00  0.10000000000E+04  0.10000000000E+04  0.00000000000E+00 0. -1.
          2   -1    0    0  501    0 -0.00000000000E+00 -0.00000000000E+00 -0.10101730303E+03  0.10101730303E+03  0.00000000000E+00 0. -1.
    9000006    2    1    2  501    0  0.00000000000E+00  0.00000000000E+00  0.89898269697E+03  0.11010173030E+04  0.63566438638E+03 0.  0.
         13    1    3    3    0    0  0.17420372813E+03 -0.25739477206E+03  0.56462270997E+03  0.64451362452E+03  0.00000000000E+00 0. -1.
          4    1    3    3  501    0 -0.17420372813E+03  0.25739477206E+03  0.33435998701E+03  0.45650367851E+03  0.00000000000E+00 0. -1.
<mgrwt>
<rscale>  0 0.63566439E+03</rscale>
<asrwt>0</asrwt>
<pdfrwt beam="1">0</pdfrwt>
<pdfrwt beam="2">  1        2 0.36733642E+00 0.63566439E+03</pdfrwt>
<totfact> 0.52671214E+00</totfact>
</mgrwt>
</event>
<event>
 5    1  0.2381755E-004  0.6238692E+03  0.7818608E-02  0.9857086E-01
         13   -1    0    0    0    0  0.00000000000E+00  0.00000000000E+00  0.10000000000E+04  0.10000000000E+04  0.00000000000E+00 0. -1.
          2   -1    0    0  501    0 -0.00000000000E+00 -0.00000000000E+00 -0.97303184363E+02  0.97303184363E+02  0.00000000000E+00 0. -1.
    9000006    2    1    2  501    0  0.00000000000E+00  0.00000000000E+00  0.90269681564E+03  0.10973031844E+04  0.62386916693E+03 0.  0.
         13    1    3    3    0    0 -0.10960229233E+03  0.12497795635E+03  0.91560624082E+03  0.93057344702E+03  0.00000000000E+00 0. -1.
          4    1    3    3  501    0  0.10960229233E+03 -0.12497795635E+03 -0.12909425187E+02  0.16672973735E+03  0.00000000000E+00 0. -1.
<mgrwt>
<rscale>  0 0.62386917E+03</rscale>
<asrwt>0</asrwt>
<pdfrwt beam="1">0</pdfrwt>
<pdfrwt beam="2">  1        2 0.35383051E+00 0.62386917E+03</pdfrwt>
<totfact> 0.59035414E+00</totfact>
</mgrwt>
</event>
<event>
 5    1  0.2381755E-004  0.6379671E+03  0.7818608E-02  0.9829624E-01
         13   -1    0    0    0    0  0.00000000000E+00  0.00000000000E+00  0.10000000000E+04  0.10000000000E+04  0.00000000000E+00 0. -1.
          2   -1    0    0  501    0 -0.00000000000E+00 -0.00000000000E+00 -0.10175049044E+03  0.10175049044E+03  0.00000000000E+00 0. -1.
    9000006    2    1    2  501    0  0.00000000000E+00  0.00000000000E+00  0.89824950956E+03  0.11017504904E+04  0.63796705382E+03 0.  0.
         13    1    3    3    0    0 -0.20069967105E+03 -0.22772479454E+03  0.61843441017E+03  0.68891222931E+03  0.00000000000E+00 0. -1.
          2    1    3    3  501    0  0.20069967105E+03  0.22772479454E+03  0.27981509939E+03  0.41283826113E+03  0.00000000000E+00 0. -1.
<mgrwt>
<rscale>  0 0.63796705E+03</rscale>
<asrwt>0</asrwt>
<pdfrwt beam="1">0</pdfrwt>
<pdfrwt beam="2">  1        2 0.37000256E+00 0.63796705E+03</pdfrwt>
<totfact> 0.51492179E+00</totfact>
</mgrwt>
</event>
<event>
 5    1  0.2381755E-004  0.6332914E+03  0.7818608E-02  0.9838647E-01
         13   -1    0    0    0    0  0.00000000000E+00  0.00000000000E+00  0.10000000000E+04  0.10000000000E+04  0.00000000000E+00 0. -1.
          2   -1    0    0  501    0 -0.00000000000E+00 -0.00000000000E+00 -0.10026449314E+03  0.10026449314E+03  0.00000000000E+00 0. -1.
    9000006    2    1    2  501    0  0.00000000000E+00  0.00000000000E+00  0.89973550686E+03  0.11002644931E+04  0.63329138044E+03 0.  0.
         13    1    3    3    0    0 -0.16186999530E+03  0.38439342336E+02 -0.18208927496E+02  0.16736500070E+03  0.00000000000E+00 0. -1.
          2    1    3    3  501    0  0.16186999530E+03 -0.38439342336E+02  0.91794443436E+03  0.93289949244E+03  0.00000000000E+00 0. -1.
<mgrwt>
<rscale>  0 0.63329138E+03</rscale>
<asrwt>0</asrwt>
<pdfrwt beam="1">0</pdfrwt>
<pdfrwt beam="2">  1        2 0.36459893E+00 0.63329138E+03</pdfrwt>
<totfact> 0.53907557E+00</totfact>
</mgrwt>
</event>
<event>
 5    1  0.2381755E-004  0.6562419E+03  0.7818608E-02  0.9795137E-01
         13   -1    0    0    0    0  0.00000000000E+00  0.00000000000E+00  0.10000000000E+04  0.10000000000E+04  0.00000000000E+00 0. -1.
          2   -1    0    0  501    0 -0.00000000000E+00 -0.00000000000E+00 -0.10766336530E+03  0.10766336530E+03  0.00000000000E+00 0. -1.
    9000006    2    1    2  501    0  0.00000000000E+00  0.00000000000E+00  0.89233663470E+03  0.11076633653E+04  0.65624192278E+03 0.  0.
         13    1    3    3    0    0 -0.96865155019E+02  0.30490837110E+03  0.56918046763E+03  0.65293060715E+03  0.00000000000E+00 0. -1.
          2    1    3    3  501    0  0.96865155019E+02 -0.30490837110E+03  0.32315616706E+03  0.45473275815E+03  0.00000000000E+00 0. -1.
<mgrwt>
<rscale>  0 0.65624192E+03</rscale>
<asrwt>0</asrwt>
<pdfrwt beam="1">0</pdfrwt>
<pdfrwt beam="2">  1        2 0.39150397E+00 0.65624192E+03</pdfrwt>
<totfact> 0.42828702E+00</totfact>
</mgrwt>
</event>
<event>
 5    1  0.2381755E-004  0.6498537E+03  0.7818608E-02  0.9807054E-01
         13   -1    0    0    0    0  0.00000000000E+00  0.00000000000E+00  0.10000000000E+04  0.10000000000E+04  0.00000000000E+00 0. -1.
          2   -1    0    0  501    0 -0.00000000000E+00 -0.00000000000E+00 -0.10557744650E+03  0.10557744650E+03  0.00000000000E+00 0. -1.
    9000006    2    1    2  501    0  0.00000000000E+00  0.00000000000E+00  0.89442255350E+03  0.11055774465E+04  0.64985366506E+03 0.  0.
         13    1    3    3    0    0 -0.14901263220E+03  0.64009141480E+02 -0.31797118550E+02  0.16526642580E+03  0.00000000000E+00 0. -1.
          2    1    3    3  501    0  0.14901263220E+03 -0.64009141480E+02  0.92621967205E+03  0.94031102070E+03  0.00000000000E+00 0. -1.
<mgrwt>
<rscale>  0 0.64985367E+03</rscale>
<asrwt>0</asrwt>
<pdfrwt beam="1">0</pdfrwt>
<pdfrwt beam="2">  1        2 0.38391880E+00 0.64985367E+03</pdfrwt>
<totfact> 0.45720623E+00</totfact>
</mgrwt>
</event>
<event>
 5    1  0.2381755E-004  0.6531686E+03  0.7818608E-02  0.9800852E-01
         13   -1    0    0    0    0  0.00000000000E+00  0.00000000000E+00  0.10000000000E+04  0.10000000000E+04  0.00000000000E+00 0. -1.
          2   -1    0    0  501    0 -0.00000000000E+00 -0.00000000000E+00 -0.10665731176E+03  0.10665731176E+03  0.00000000000E+00 0. -1.
    9000006    2    1    2  501    0  0.00000000000E+00  0.00000000000E+00  0.89334268824E+03  0.11066573118E+04  0.65316862068E+03 0.  0.
         13    1    3    3    0    0 -0.19830213992E+03  0.89074858030E+02  0.85960311587E+03  0.88666543061E+03  0.00000000000E+00 0. -1.
          2    1    3    3  501    0  0.19830213992E+03 -0.89074858030E+02  0.33739572372E+02  0.21999188115E+03  0.00000000000E+00 0. -1.
<mgrwt>
<rscale>  0 0.65316862E+03</rscale>
<asrwt>0</asrwt>
<pdfrwt beam="1">0</pdfrwt>
<pdfrwt beam="2">  1        2 0.38784559E+00 0.65316862E+03</pdfrwt>
<totfact> 0.44202154E+00</totfact>
</mgrwt>
</event>
<event>
 5    1  0.2381755E-004  0.5983135E+03  0.7818608E-02  0.9908911E-01
         13   -1    0    0    0    0  0.00000000000E+00  0.00000000000E+00  0.10000000000E+04  0.10000000000E+04  0.00000000000E+00 0. -1.
          2   -1    0    0  501    0 -0.00000000000E+00 -0.00000000000E+00 -0.89494746823E+02  0.89494746823E+02  0.00000000000E+00 0. -1.
    9000006    2    1    2  501    0  0.00000000000E+00  0.00000000000E+00  0.91050525318E+03  0.10894947468E+04  0.59831345238E+03 0.  0.
         13    1    3    3    0    0  0.46405777627E+02  0.28549997654E+03  0.59430180141E+03  0.66095261855E+03  0.00000000000E+00 0. -1.
          2    1    3    3  501    0 -0.46405777627E+02 -0.28549997654E+03  0.31620345176E+03  0.42854212828E+03  0.00000000000E+00 0. -1.
<mgrwt>
<rscale>  0 0.59831345E+03</rscale>
<asrwt>0</asrwt>
<pdfrwt beam="1">0</pdfrwt>
<pdfrwt beam="2">  1        2 0.32543613E+00 0.59831345E+03</pdfrwt>
<totfact> 0.74824829E+00</totfact>
</mgrwt>
</event>
<event>
 5    1  0.2381755E-004  0.6583379E+03  0.7818608E-02  0.9791258E-01
         13   -1    0    0    0    0  0.00000000000E+00  0.00000000000E+00  0.10000000000E+04  0.10000000000E+04  0.00000000000E+00 0. -1.
          2   -1    0    0  501    0 -0.00000000000E+00 -0.00000000000E+00 -0.10835218567E+03  0.10835218567E+03  0.00000000000E+00 0. -1.
    9000006    2    1    2  501    0  0.00000000000E+00  0.00000000000E+00  0.89164781433E+03  0.11083521857E+04  0.65833786361E+03 0.  0.
         13    1    3    3    0    0  0.29287854554E+03  0.13553078444E+03  0.33664200417E+03  0.46634137167E+03  0.00000000000E+00 0. -1.
          2    1    3    3  501    0 -0.29287854554E+03 -0.13553078444E+03  0.55500581017E+03  0.64201081399E+03  0.00000000000E+00 0. -1.
<mgrwt>
<rscale>  0 0.65833786E+03</rscale>
<asrwt>0</asrwt>
<pdfrwt beam="1">0</pdfrwt>
<pdfrwt beam="2">  1        2 0.39400878E+00 0.65833786E+03</pdfrwt>
<totfact> 0.41910693E+00</totfact>
</mgrwt>
</event>
<event>
 5    1  0.2381755E-004  0.6547325E+03  0.7818608E-02  0.9797939E-01
         13   -1    0    0    0    0  0.00000000000E+00  0.00000000000E+00  0.10000000000E+04  0.10000000000E+04  0.00000000000E+00 0. -1.
          2   -1    0    0  501    0 -0.00000000000E+00 -0.00000000000E+00 -0.10716866392E+03  0.10716866392E+03  0.00000000000E+00 0. -1.
    9000006    2    1    2  501    0  0.00000000000E+00  0.00000000000E+00  0.89283133608E+03  0.11071686639E+04  0.65473250697E+03 0.  0.
         13    1    3    3    0    0  0.26142198152E+03 -0.12513428094E+03  0.70381060219E+03  0.76115005383E+03  0.00000000000E+00 0. -1.
          4    1    3    3  501    0 -0.26142198152E+03  0.12513428094E+03  0.18902073389E+03  0.34601861009E+03  0.00000000000E+00 0. -1.
<mgrwt>
<rscale>  0 0.65473251E+03</rscale>
<asrwt>0</asrwt>
<pdfrwt beam="1">0</pdfrwt>
<pdfrwt beam="2">  1        2 0.38970505E+00 0.65473251E+03</pdfrwt>
<totfact> 0.43499166E+00</totfact>
</mgrwt>
</event>
<event>
 5    1  0.2381755E-004  0.5992036E+03  0.7818608E-02  0.9907060E-01
         13   -1    0    0    0    0  0.00000000000E+00  0.00000000000E+00  0.10000000000E+04  0.10000000000E+04  0.00000000000E+00 0. -1.
          2   -1    0    0  501    0 -0.00000000000E+00 -0.00000000000E+00 -0.89761229177E+02  0.89761229177E+02  0.00000000000E+00 0. -1.
    9000006    2    1    2  501    0  0.00000000000E+00  0.00000000000E+00  0.91023877082E+03  0.10897612292E+04  0.59920356867E+03 0.  0.
         13    1    3    3    0    0  0.20726313743E+03  0.34920743388E+02  0.84341460798E+03  0.86920979482E+03  0.00000000000E+00 0. -1.
          2    1    3    3  501    0 -0.20726313743E+03 -0.34920743388E+02  0.66824162847E+02  0.22055143436E+03  0.00000000000E+00 0. -1.
<mgrwt>
<rscale>  0 0.59920357E+03</rscale>
<asrwt>0</asrwt>
<pdfrwt beam="1">0</pdfrwt>
<pdfrwt beam="2">  1        2 0.32640516E+00 0.59920357E+03</pdfrwt>
<totfact> 0.74225857E+00</totfact>
</mgrwt>
</event>
<event>
 5    1  0.2381755E-004  0.6183971E+03  0.7818608E-02  0.9867956E-01
         13   -1    0    0    0    0  0.00000000000E+00  0.00000000000E+00  0.10000000000E+04  0.10000000000E+04  0.00000000000E+00 0. -1.
          2   -1    0    0  501    0 -0.00000000000E+00 -0.00000000000E+00 -0.95603731754E+02  0.95603731754E+02  0.00000000000E+00 0. -1.
    9000006    2    1    2  501    0  0.00000000000E+00  0.00000000000E+00  0.90439626825E+03  0.10956037318E+04  0.61839706259E+03 0.  0.
         13    1    3    3    0    0  0.27290070464E+03  0.11797085551E+03  0.30174253451E+03  0.42360414832E+03  0.00000000000E+00 0. -1.
          4    1    3    3  501    0 -0.27290070464E+03 -0.11797085551E+03  0.60265373374E+03  0.67199958343E+03  0.00000000000E+00 0. -1.
<mgrwt>
<rscale>  0 0.61839706E+03</rscale>
<asrwt>0</asrwt>
<pdfrwt beam="1">0</pdfrwt>
<pdfrwt beam="2">  1        2 0.34765067E+00 0.61839706E+03</pdfrwt>
<totfact> 0.62179049E+00</totfact>
</mgrwt>
</event>
<event>
 5    1  0.2381755E-004  0.6398005E+03  0.7818608E-02  0.9826108E-01
         13   -1    0    0    0    0  0.00000000000E+00  0.00000000000E+00  0.10000000000E+04  0.10000000000E+04  0.00000000000E+00 0. -1.
          2   -1    0    0  501    0 -0.00000000000E+00 -0.00000000000E+00 -0.10233617691E+03  0.10233617691E+03  0.00000000000E+00 0. -1.
    9000006    2    1    2  501    0  0.00000000000E+00  0.00000000000E+00  0.89766382309E+03  0.11023361769E+04  0.63980052176E+03 0.  0.
         13    1    3    3    0    0  0.26084137404E+03 -0.18475898194E+03  0.42689755357E+03  0.53330631448E+03  0.00000000000E+00 0. -1.
          4    1    3    3  501    0 -0.26084137404E+03  0.18475898194E+03  0.47076626952E+03  0.56902986243E+03  0.00000000000E+00 0. -1.
<mgrwt>
<rscale>  0 0.63980052E+03</rscale>
<asrwt>0</asrwt>
<pdfrwt beam="1">0</pdfrwt>
<pdfrwt beam="2">  1        2 0.37213234E+00 0.63980052E+03</pdfrwt>
<totfact> 0.50567778E+00</totfact>
</mgrwt>
</event>
<event>
 5    1  0.2381755E-004  0.6506692E+03  0.7818608E-02  0.9805524E-01
         13   -1    0    0    0    0  0.00000000000E+00  0.00000000000E+00  0.10000000000E+04  0.10000000000E+04  0.00000000000E+00 0. -1.
          2   -1    0    0  501    0 -0.00000000000E+00 -0.00000000000E+00 -0.10584261023E+03  0.10584261023E+03  0.00000000000E+00 0. -1.
    9000006    2    1    2  501    0  0.00000000000E+00  0.00000000000E+00  0.89415738977E+03  0.11058426102E+04  0.65066922542E+03 0.  0.
         13    1    3    3    0    0  0.60933521928E+02  0.25963327147E+03  0.76376163336E+03  0.80898341290E+03  0.00000000000E+00 0. -1.
          4    1    3    3  501    0 -0.60933521928E+02 -0.25963327147E+03  0.13039575641E+03  0.29685919733E+03  0.00000000000E+00 0. -1.
<mgrwt>
<rscale>  0 0.65066923E+03</rscale>
<asrwt>0</asrwt>
<pdfrwt beam="1">0</pdfrwt>
<pdfrwt beam="2">  1        2 0.38488303E+00 0.65066923E+03</pdfrwt>
<totfact> 0.45343443E+00</totfact>
</mgrwt>
</event>
<event>
 5    1  0.2381755E-004  0.6577469E+03  0.7818608E-02  0.9792350E-01
         13   -1    0    0    0    0  0.00000000000E+00  0.00000000000E+00  0.10000000000E+04  0.10000000000E+04  0.00000000000E+00 0. -1.
          2   -1    0    0  501    0 -0.00000000000E+00 -0.00000000000E+00 -0.10815775147E+03  0.10815775147E+03  0.00000000000E+00 0. -1.
    9000006    2    1    2  501    0  0.00000000000E+00  0.00000000000E+00  0.89184224853E+03  0.11081577515E+04  0.65774691628E+03 0.  0.
         13    1    3    3    0    0  0.75462053817E+02  0.14233426165E+03  0.92896851390E+03  0.94283405932E+03  0.00000000000E+00 0. -1.
          2    1    3    3  501    0 -0.75462053817E+02 -0.14233426165E+03 -0.37126265365E+02  0.16532369215E+03  0.00000000000E+00 0. -1.
<mgrwt>
<rscale>  0 0.65774692E+03</rscale>
<asrwt>0</asrwt>
<pdfrwt beam="1">0</pdfrwt>
<pdfrwt beam="2">  1        2 0.39330174E+00 0.65774692E+03</pdfrwt>
<totfact> 0.42168002E+00</totfact>
</mgrwt>
</event>
<event>
 5    1  0.2381755E-004  0.6548356E+03  0.7818608E-02  0.9797748E-01
         13   -1    0    0    0    0  0.00000000000E+00  0.00000000000E+00  0.10000000000E+04  0.10000000000E+04  0.00000000000E+00 0. -1.
          2   -1    0    0  501    0 -0.00000000000E+00 -0.00000000000E+00 -0.10720240635E+03  0.10720240635E+03  0.00000000000E+00 0. -1.
    9000006    2    1    2  501    0  0.00000000000E+00  0.00000000000E+00  0.89279759365E+03  0.11072024064E+04  0.65483557128E+03 0.  0.
         13    1    3    3    0    0  0.30310498241E+02  0.95190911280E+02 -0.80804188982E+02  0.12848872655E+03  0.00000000000E+00 0. -1.
          4    1    3    3  501    0 -0.30310498241E+02 -0.95190911280E+02  0.97360178263E+03  0.97871367980E+03  0.00000000000E+00 0. -1.
<mgrwt>
<rscale>  0 0.65483557E+03</rscale>
<asrwt>0</asrwt>
<pdfrwt beam="1">0</pdfrwt>
<pdfrwt beam="2">  1        2 0.38982775E+00 0.65483557E+03</pdfrwt>
<totfact> 0.43453135E+00</totfact>
</mgrwt>
</event>
<event>
 5    1  0.2381755E-004  0.6279827E+03  0.7818608E-02  0.9848993E-01
         13   -1    0    0    0    0  0.00000000000E+00  0.00000000000E+00  0.10000000000E+04  0.10000000000E+04  0.00000000000E+00 0. -1.
          2   -1    0    0  501    0 -0.00000000000E+00 -0.00000000000E+00 -0.98590557267E+02  0.98590557267E+02  0.00000000000E+00 0. -1.
    9000006    2    1    2  501    0  0.00000000000E+00  0.00000000000E+00  0.90140944273E+03  0.10985905573E+04  0.62798266622E+03 0.  0.
         13    1    3    3    0    0  0.72554245650E+02  0.30549311664E+03  0.45180334833E+03  0.55019671795E+03  0.00000000000E+00 0. -1.
          2    1    3    3  501    0 -0.72554245650E+02 -0.30549311664E+03  0.44960609440E+03  0.54839383932E+03  0.00000000000E+00 0. -1.
<mgrwt>
<rscale>  0 0.62798267E+03</rscale>
<asrwt>0</asrwt>
<pdfrwt beam="1">0</pdfrwt>
<pdfrwt beam="2">  1        2 0.35851187E+00 0.62798267E+03</pdfrwt>
<totfact> 0.56753076E+00</totfact>
</mgrwt>
</event>
<event>
 5    1  0.2381755E-004  0.6122907E+03  0.7818608E-02  0.9880230E-01
         13   -1    0    0    0    0  0.00000000000E+00  0.00000000000E+00  0.10000000000E+04  0.10000000000E+04  0.00000000000E+00 0. -1.
          2   -1    0    0  501    0 -0.00000000000E+00 -0.00000000000E+00 -0.93724987794E+02  0.93724987794E+02  0.00000000000E+00 0. -1.
    9000006    2    1    2  501    0  0.00000000000E+00  0.00000000000E+00  0.90627501221E+03  0.10937249878E+04  0.61229074072E+03 0.  0.
         13    1    3    3    0    0  0.21798309918E+03  0.21490549051E+03  0.46188599588E+03  0.55411160841E+03  0.00000000000E+00 0. -1.
          4    1    3    3  501    0 -0.21798309918E+03 -0.21490549051E+03  0.44438901633E+03  0.53961337939E+03  0.00000000000E+00 0. -1.
<mgrwt>
<rscale>  0 0.61229074E+03</rscale>
<asrwt>0</asrwt>
<pdfrwt beam="1">0</pdfrwt>
<pdfrwt beam="2">  1        2 0.34081886E+00 0.61229074E+03</pdfrwt>
<totfact> 0.65835822E+00</totfact>
</mgrwt>
</event>
<event>
 5    1  0.2381755E-004  0.6536020E+03  0.7818608E-02  0.9800044E-01
         13   -1    0    0    0    0  0.00000000000E+00  0.00000000000E+00  0.10000000000E+04  0.10000000000E+04  0.00000000000E+00 0. -1.
          2   -1    0    0  501    0 -0.00000000000E+00 -0.00000000000E+00 -0.10679888528E+03  0.10679888528E+03  0.00000000000E+00 0. -1.
    9000006    2    1    2  501    0  0.00000000000E+00  0.00000000000E+00  0.89320111472E+03  0.11067988853E+04  0.65360197455E+03 0.  0.
         13    1    3    3    0    0  0.30519776499E+03  0.33822193581E+02  0.25720433212E+03  0.40055422229E+03  0.00000000000E+00 0. -1.
          2    1    3    3  501    0 -0.30519776499E+03 -0.33822193581E+02  0.63599678260E+03  0.70624466300E+03  0.00000000000E+00 0. -1.
<mgrwt>
<rscale>  0 0.65360197E+03</rscale>
<asrwt>0</asrwt>
<pdfrwt beam="1">0</pdfrwt>
<pdfrwt beam="2">  1        2 0.38836040E+00 0.65360197E+03</pdfrwt>
<totfact> 0.44006502E+00</totfact>
</mgrwt>
</event>
<event>
 5    1  0.2381755E-004  0.6508651E+03  0.7818608E-02  0.9805157E-01
         13   -1    0    0    0    0  0.00000000000E+00  0.00000000000E+00  0.10000000000E+04  0.10000000000E+04  0.00000000000E+00 0. -1.
          2   -1    0    0  501    0 -0.00000000000E+00 -0.00000000000E+00 -0.10590635929E+03  0.10590635929E+03  0.00000000000E+00 0. -1.
    9000006    2    1    2  501    0  0.00000000000E+00  0.00000000000E+00  0.89409364071E+03  0.11059063593E+04  0.65086514513E+03 0.  0.
         13    1    3    3    0    0  0.32052253126E+03 -0.52042406865E+01  0.35176527094E+03  0.47592077387E+03  0.00000000000E+00 0. -1.
          4    1    3    3  501    0 -0.32052253126E+03  0.52042406865E+01  0.54232836977E+03  0.62998558541E+03  0.00000000000E+00 0. -1.
<mgrwt>
<rscale>  0 0.65086515E+03</rscale>
<asrwt>0</asrwt>
<pdfrwt beam="1">0</pdfrwt>
<pdfrwt beam="2">  1        2 0.38511485E+00 0.65086515E+03</pdfrwt>
<totfact> 0.45253186E+00</totfact>
</mgrwt>
</event>
<event>
 5    1  0.2381755E-004  0.6564337E+03  0.7818608E-02  0.9794781E-01
         13   -1    0    0    0    0  0.00000000000E+00  0.00000000000E+00  0.10000000000E+04  0.10000000000E+04  0.00000000000E+00 0. -1.
          2   -1    0    0  501    0 -0.00000000000E+00 -0.00000000000E+00 -0.10772629892E+03  0.10772629892E+03  0.00000000000E+00 0. -1.
    9000006    2    1    2  501    0  0.00000000000E+00  0.00000000000E+00  0.89227370108E+03  0.11077262989E+04  0.65643369482E+03 0.  0.
         13    1    3    3    0    0  0.69434716751E+01  0.25287172337E+03  0.79903639316E+03  0.83812378434E+03  0.00000000000E+00 0. -1.
          4    1    3    3  501    0 -0.69434716751E+01 -0.25287172337E+03  0.93237307917E+02  0.26960251458E+03  0.00000000000E+00 0. -1.
<mgrwt>
<rscale>  0 0.65643369E+03</rscale>
<asrwt>0</asrwt>
<pdfrwt beam="1">0</pdfrwt>
<pdfrwt beam="2">  1        2 0.39173282E+00 0.65643369E+03</pdfrwt>
<totfact> 0.42744082E+00</totfact>
</mgrwt>
</event>
<event>
 5    1  0.2381755E-004  0.6549939E+03  0.7818608E-02  0.9797453E-01
         13   -1    0    0    0    0  0.00000000000E+00  0.00000000000E+00  0.10000000000E+04  0.10000000000E+04  0.00000000000E+00 0. -1.
          2   -1    0    0  501    0 -0.00000000000E+00 -0.00000000000E+00 -0.10725425843E+03  0.10725425843E+03  0.00000000000E+00 0. -1.
    9000006    2    1    2  501    0  0.00000000000E+00  0.00000000000E+00  0.89274574157E+03  0.11072542584E+04  0.65499391883E+03 0.  0.
         13    1    3    3    0    0  0.17946672303E+03  0.25879907097E+03  0.59822462180E+03  0.67606062002E+03  0.00000000000E+00 0. -1.
          4    1    3    3  501    0 -0.17946672303E+03 -0.25879907097E+03  0.29452111977E+03  0.43119363841E+03  0.00000000000E+00 0. -1.
<mgrwt>
<rscale>  0 0.65499392E+03</rscale>
<asrwt>0</asrwt>
<pdfrwt beam="1">0</pdfrwt>
<pdfrwt beam="2">  1        2 0.39001631E+00 0.65499392E+03</pdfrwt>
<totfact> 0.43382486E+00</totfact>
</mgrwt>
</event>
<event>
 5    1  0.2381755E-004  0.6784506E+03  0.7818608E-02  0.9754811E-01
         13   -1    0    0    0    0  0.00000000000E+00  0.00000000000E+00  0.10000000000E+04  0.10000000000E+04  0.00000000000E+00 0. -1.
          2   -1    0    0  501    0 -0.00000000000E+00 -0.00000000000E+00 -0.11507381537E+03  0.11507381537E+03  0.00000000000E+00 0. -1.
    9000006    2    1    2  501    0  0.00000000000E+00  0.00000000000E+00  0.88492618463E+03  0.11150738154E+04  0.67845063306E+03 0.  0.
         13    1    3    3    0    0 -0.18639958150E+03 -0.28088264835E+03  0.38022557562E+03  0.50814501324E+03  0.00000000000E+00 0. -1.
          4    1    3    3  501    0  0.18639958150E+03  0.28088264835E+03  0.50470060901E+03  0.60692880213E+03  0.00000000000E+00 0. -1.
<mgrwt>
<rscale>  0 0.67845063E+03</rscale>
<asrwt>0</asrwt>
<pdfrwt beam="1">0</pdfrwt>
<pdfrwt beam="2">  1        2 0.41845112E+00 0.67845063E+03</pdfrwt>
<totfact> 0.33837060E+00</totfact>
</mgrwt>
</event>
<event>
 5    1  0.2381755E-004  0.6492704E+03  0.7818608E-02  0.9808149E-01
         13   -1    0    0    0    0  0.00000000000E+00  0.00000000000E+00  0.10000000000E+04  0.10000000000E+04  0.00000000000E+00 0. -1.
          2   -1    0    0  501    0 -0.00000000000E+00 -0.00000000000E+00 -0.10538801423E+03  0.10538801423E+03  0.00000000000E+00 0. -1.
    9000006    2    1    2  501    0  0.00000000000E+00  0.00000000000E+00  0.89461198577E+03  0.11053880142E+04  0.64927040355E+03 0.  0.
         13    1    3    3    0    0  0.13945392622E+03  0.22864393503E+03  0.13494070618E+03  0.29989071467E+03  0.00000000000E+00 0. -1.
          4    1    3    3  501    0 -0.13945392622E+03 -0.22864393503E+03  0.75967127959E+03  0.80549729956E+03  0.00000000000E+00 0. -1.
<mgrwt>
<rscale>  0 0.64927040E+03</rscale>
<asrwt>0</asrwt>
<pdfrwt beam="1">0</pdfrwt>
<pdfrwt beam="2">  1        2 0.38322995E+00 0.64927040E+03</pdfrwt>
<totfact> 0.45991821E+00</totfact>
</mgrwt>
</event>
<event>
 5    1  0.2381755E-004  0.6372014E+03  0.7818608E-02  0.9831096E-01
         13   -1    0    0    0    0  0.00000000000E+00  0.00000000000E+00  0.10000000000E+04  0.10000000000E+04  0.00000000000E+00 0. -1.
          2   -1    0    0  501    0 -0.00000000000E+00 -0.00000000000E+00 -0.10150639402E+03  0.10150639402E+03  0.00000000000E+00 0. -1.
    9000006    2    1    2  501    0  0.00000000000E+00  0.00000000000E+00  0.89849360598E+03  0.11015063940E+04  0.63720136228E+03 0.  0.
         13    1    3    3    0    0 -0.10950671803E+03  0.10894817752E+03  0.93093608465E+03  0.94366488775E+03  0.00000000000E+00 0. -1.
          4    1    3    3  501    0  0.10950671803E+03 -0.10894817752E+03 -0.32442478670E+02  0.15784150627E+03  0.00000000000E+00 0. -1.
<mgrwt>
<rscale>  0 0.63720136E+03</rscale>
<asrwt>0</asrwt>
<pdfrwt beam="1">0</pdfrwt>
<pdfrwt beam="2">  1        2 0.36911494E+00 0.63720136E+03</pdfrwt>
<totfact> 0.51881993E+00</totfact>
</mgrwt>
</event>
<event>
 5    1  0.2381755E-004  0.6367670E+03  0.7818608E-02  0.9831932E-01
         13   -1    0    0    0    0  0.00000000000E+00  0.00000000000E+00  0.10000000000E+04  0.10000000000E+04  0.00000000000E+00 0. -1.
          2   -1    0    0  501    0 -0.00000000000E+00 -0.00000000000E+00 -0.10136804065E+03  0.10136804065E+03  0.00000000000E+00 0. -1.
    9000006    2    1    2  501    0  0.00000000000E+00  0.00000000000E+00  0.89863195935E+03  0.11013680406E+04  0.63676696098E+03 0.  0.
         13    1    3    3    0    0  0.19169055939E+03 -0.25276012600E+03  0.49621047316E+03  0.58894633501E+03  0.00000000000E+00 0. -1.
          4    1    3    3  501    0 -0.19169055939E+03  0.25276012600E+03  0.40242148620E+03  0.51242170564E+03  0.00000000000E+00 0. -1.
<mgrwt>
<rscale>  0 0.63676696E+03</rscale>
<asrwt>0</asrwt>
<pdfrwt beam="1">0</pdfrwt>
<pdfrwt beam="2">  1        2 0.36861183E+00 0.63676696E+03</pdfrwt>
<totfact> 0.52104139E+00</totfact>
</mgrwt>
</event>
<event>
 5    1  0.2381755E-004  0.6496630E+03  0.7818608E-02  0.9807412E-01
         13   -1    0    0    0    0  0.00000000000E+00  0.00000000000E+00  0.10000000000E+04  0.10000000000E+04  0.00000000000E+00 0. -1.
          2   -1    0    0  501    0 -0.00000000000E+00 -0.00000000000E+00 -0.10551551712E+03  0.10551551712E+03  0.00000000000E+00 0. -1.
    9000006    2    1    2  501    0  0.00000000000E+00  0.00000000000E+00  0.89448448288E+03  0.11055155171E+04  0.64966304225E+03 0.  0.
         13    1    3    3    0    0  0.60473197549E+02 -0.23973777946E+03  0.80574409128E+03  0.84282545711E+03  0.00000000000E+00 0. -1.
          2    1    3    3  501    0 -0.60473197549E+02  0.23973777946E+03  0.88740391606E+02  0.26269006001E+03  0.00000000000E+00 0. -1.
<mgrwt>
<rscale>  0 0.64966304E+03</rscale>
<asrwt>0</asrwt>
<pdfrwt beam="1">0</pdfrwt>
<pdfrwt beam="2">  1        2 0.38369360E+00 0.64966304E+03</pdfrwt>
<totfact> 0.45809123E+00</totfact>
</mgrwt>
</event>
<event>
 5    1  0.2381755E-004  0.6583740E+03  0.7818608E-02  0.9791192E-01
         13   -1    0    0    0    0  0.00000000000E+00  0.00000000000E+00  0.10000000000E+04  0.10000000000E+04  0.00000000000E+00 0. -1.
          2   -1    0    0  501    0 -0.00000000000E+00 -0.00000000000E+00 -0.10836408725E+03  0.10836408725E+03  0.00000000000E+00 0. -1.
    9000006    2    1    2  501    0  0.00000000000E+00  0.00000000000E+00  0.89163591275E+03  0.11083640872E+04  0.65837401907E+03 0.  0.
         13    1    3    3    0    0 -0.17550235943E+03  0.17606037447E+02  0.91373357376E+03  0.93060200652E+03  0.00000000000E+00 0. -1.
          4    1    3    3  501    0  0.17550235943E+03 -0.17606037447E+02 -0.22097661010E+02  0.17776208073E+03  0.00000000000E+00 0. -1.
<mgrwt>
<rscale>  0 0.65837402E+03</rscale>
<asrwt>0</asrwt>
<pdfrwt beam="1">0</pdfrwt>
<pdfrwt beam="2">  1        2 0.39405206E+00 0.65837402E+03</pdfrwt>
<totfact> 0.41894990E+00</totfact>
</mgrwt>
</event>
<event>
 5    1  0.2381755E-004  0.6464833E+03  0.7818608E-02  0.9813400E-01
         13   -1    0    0    0    0  0.00000000000E+00  0.00000000000E+00  0.10000000000E+04  0.10000000000E+04  0.00000000000E+00 0. -1.
          2   -1    0    0  501    0 -0.00000000000E+00 -0.00000000000E+00 -0.10448517617E+03  0.10448517617E+03  0.00000000000E+00 0. -1.
    9000006    2    1    2  501    0  0.00000000000E+00  0.00000000000E+00  0.89551482383E+03  0.11044851762E+04  0.64648333674E+03 0.  0.
         13    1    3    3    0    0 -0.14420820412E+03  0.17084436630E+03  0.48910461488E+02  0.22885811516E+03  0.00000000000E+00 0. -1.
          4    1    3    3  501    0  0.14420820412E+03 -0.17084436630E+03  0.84660436234E+03  0.87562706101E+03  0.00000000000E+00 0. -1.
<mgrwt>
<rscale>  0 0.64648334E+03</rscale>
<asrwt>0</asrwt>
<pdfrwt beam="1">0</pdfrwt>
<pdfrwt beam="2">  1        2 0.37994690E+00 0.64648334E+03</pdfrwt>
<totfact> 0.47304544E+00</totfact>
</mgrwt>
</event>
<event>
 5    1  0.2381755E-004  0.6444243E+03  0.7818608E-02  0.9817298E-01
         13   -1    0    0    0    0  0.00000000000E+00  0.00000000000E+00  0.10000000000E+04  0.10000000000E+04  0.00000000000E+00 0. -1.
          2   -1    0    0  501    0 -0.00000000000E+00 -0.00000000000E+00 -0.10382065423E+03  0.10382065423E+03  0.00000000000E+00 0. -1.
    9000006    2    1    2  501    0  0.00000000000E+00  0.00000000000E+00  0.89617934577E+03  0.11038206542E+04  0.64442425227E+03 0.  0.
         13    1    3    3    0    0 -0.18882868490E+03 -0.15665229218E+03  0.90329839970E+02  0.26144921663E+03  0.00000000000E+00 0. -1.
          4    1    3    3  501    0  0.18882868490E+03  0.15665229218E+03  0.80584950580E+03  0.84237143760E+03  0.00000000000E+00 0. -1.
<mgrwt>
<rscale>  0 0.64442425E+03</rscale>
<asrwt>0</asrwt>
<pdfrwt beam="1">0</pdfrwt>
<pdfrwt beam="2">  1        2 0.37753045E+00 0.64442425E+03</pdfrwt>
<totfact> 0.48292438E+00</totfact>
</mgrwt>
</event>
<event>
 5    1  0.2381755E-004  0.6342855E+03  0.7818608E-02  0.9836721E-01
         13   -1    0    0    0    0  0.00000000000E+00  0.00000000000E+00  0.10000000000E+04  0.10000000000E+04  0.00000000000E+00 0. -1.
          2   -1    0    0  501    0 -0.00000000000E+00 -0.00000000000E+00 -0.10057951908E+03  0.10057951908E+03  0.00000000000E+00 0. -1.
    9000006    2    1    2  501    0  0.00000000000E+00  0.00000000000E+00  0.89942048092E+03  0.11005795191E+04  0.63428548488E+03 0.  0.
         13    1    3    3    0    0  0.30213681638E+03 -0.70087866925E+02  0.33486812556E+03  0.45643797653E+03  0.00000000000E+00 0. -1.
          2    1    3    3  501    0 -0.30213681638E+03  0.70087866925E+02  0.56455235536E+03  0.64414154255E+03  0.00000000000E+00 0. -1.
<mgrwt>
<rscale>  0 0.63428548E+03</rscale>
<asrwt>0</asrwt>
<pdfrwt beam="1">0</pdfrwt>
<pdfrwt beam="2">  1        2 0.36574448E+00 0.63428548E+03</pdfrwt>
<totfact> 0.53386978E+00</totfact>
</mgrwt>
</event>
<event>
 5    1  0.2381755E-004  0.6463578E+03  0.7818608E-02  0.9813638E-01
         13   -1    0    0    0    0  0.00000000000E+00  0.00000000000E+00  0.10000000000E+04  0.10000000000E+04  0.00000000000E+00 0. -1.
          2   -1    0    0  501    0 -0.00000000000E+00 -0.00000000000E+00 -0.10444458855E+03  0.10444458855E+03  0.00000000000E+00 0. -1.
    9000006    2    1    2  501    0  0.00000000000E+00  0.00000000000E+00  0.89555541145E+03  0.11044445885E+04  0.64635776021E+03 0.  0.
         13    1    3    3    0    0  0.20897141634E+03  0.21189549396E+03  0.23248007172E+03  0.37764498799E+03  0.00000000000E+00 0. -1.
          4    1    3    3  501    0 -0.20897141634E+03 -0.21189549396E+03  0.66307533973E+03  0.72679960055E+03  0.00000000000E+00 0. -1.
<mgrwt>
<rscale>  0 0.64635776E+03</rscale>
<asrwt>0</asrwt>
<pdfrwt beam="1">0</pdfrwt>
<pdfrwt beam="2">  1        2 0.37979930E+00 0.64635776E+03</pdfrwt>
<totfact> 0.47364351E+00</totfact>
</mgrwt>
</event>
<event>
 5    1  0.2381755E-004  0.6330889E+03  0.7818608E-02  0.9839040E-01
         13   -1    0    0    0    0  0.00000000000E+00  0.00000000000E+00  0.10000000000E+04  0.10000000000E+04  0.00000000000E+00 0. -1.
          2   -1    0    0  501    0 -0.00000000000E+00 -0.00000000000E+00 -0.10020038772E+03  0.10020038772E+03  0.00000000000E+00 0. -1.
    9000006    2    1    2  501    0  0.00000000000E+00  0.00000000000E+00  0.89979961228E+03  0.11002003877E+04  0.63308889652E+03 0.  0.
         13    1    3    3    0    0 -0.27392750467E+02 -0.19385297541E+03  0.17634046117E+02  0.19657135711E+03  0.00000000000E+00 0. -1.
          4    1    3    3  501    0  0.27392750467E+02  0.19385297541E+03  0.88216556616E+03  0.90362903062E+03  0.00000000000E+00 0. -1.
<mgrwt>
<rscale>  0 0.63308890E+03</rscale>
<asrwt>0</asrwt>
<pdfrwt beam="1">0</pdfrwt>
<pdfrwt beam="2">  1        2 0.36436581E+00 0.63308890E+03</pdfrwt>
<totfact> 0.54014062E+00</totfact>
</mgrwt>
</event>
<event>
 5    1  0.2381755E-004  0.6596956E+03  0.7818608E-02  0.9788754E-01
         13   -1    0    0    0    0  0.00000000000E+00  0.00000000000E+00  0.10000000000E+04  0.10000000000E+04  0.00000000000E+00 0. -1.
          2   -1    0    0  501    0 -0.00000000000E+00 -0.00000000000E+00 -0.10879956235E+03  0.10879956235E+03  0.00000000000E+00 0. -1.
    9000006    2    1    2  501    0  0.00000000000E+00  0.00000000000E+00  0.89120043765E+03  0.11087995624E+04  0.65969557328E+03 0.  0.
         13    1    3    3    0    0  0.18141743866E+03 -0.18004268601E+03  0.79604033815E+03  0.83606690869E+03  0.00000000000E+00 0. -1.
          2    1    3    3  501    0 -0.18141743866E+03  0.18004268601E+03  0.95160099495E+02  0.27273265366E+03  0.00000000000E+00 0. -1.
<mgrwt>
<rscale>  0 0.65969557E+03</rscale>
<asrwt>0</asrwt>
<pdfrwt beam="1">0</pdfrwt>
<pdfrwt beam="2">  1        2 0.39563561E+00 0.65969557E+03</pdfrwt>
<totfact> 0.41324053E+00</totfact>
</mgrwt>
</event>
<event>
 5    1  0.2381755E-004  0.6517877E+03  0.7818608E-02  0.9803431E-01
         13   -1    0    0    0    0  0.00000000000E+00  0.00000000000E+00  0.10000000000E+04  0.10000000000E+04  0.00000000000E+00 0. -1.
          2   -1    0    0  501    0 -0.00000000000E+00 -0.00000000000E+00 -0.10620679227E+03  0.10620679227E+03  0.00000000000E+00 0. -1.
    9000006    2    1    2  501    0  0.00000000000E+00  0.00000000000E+00  0.89379320773E+03  0.11062067923E+04  0.65178767176E+03 0.  0.
         13    1    3    3    0    0  0.26994408097E+03  0.89291645749E+02  0.71719218361E+03  0.77149687820E+03  0.00000000000E+00 0. -1.
          4    1    3    3  501    0 -0.26994408097E+03 -0.89291645749E+02  0.17660102413E+03  0.33470991406E+03  0.00000000000E+00 0. -1.
<mgrwt>
<rscale>  0 0.65178767E+03</rscale>
<asrwt>0</asrwt>
<pdfrwt beam="1">0</pdfrwt>
<pdfrwt beam="2">  1        2 0.38620733E+00 0.65178767E+03</pdfrwt>
<totfact> 0.44830013E+00</totfact>
</mgrwt>
</event>
<event>
 5    1  0.2381755E-004  0.6541168E+03  0.7818608E-02  0.9799085E-01
         13   -1    0    0    0    0  0.00000000000E+00  0.00000000000E+00  0.10000000000E+04  0.10000000000E+04  0.00000000000E+00 0. -1.
          2   -1    0    0  501    0 -0.00000000000E+00 -0.00000000000E+00 -0.10696718502E+03  0.10696718502E+03  0.00000000000E+00 0. -1.
    9000006    2    1    2  501    0  0.00000000000E+00  0.00000000000E+00  0.89303281498E+03  0.11069671850E+04  0.65411676335E+03 0.  0.
         13    1    3    3    0    0  0.32015873559E+03 -0.96064485742E+00  0.33343974209E+03  0.46226031673E+03  0.00000000000E+00 0. -1.
          4    1    3    3  501    0 -0.32015873559E+03  0.96064485742E+00  0.55959307288E+03  0.64470686830E+03  0.00000000000E+00 0. -1.
<mgrwt>
<rscale>  0 0.65411676E+03</rscale>
<asrwt>0</asrwt>
<pdfrwt beam="1">0</pdfrwt>
<pdfrwt beam="2">  1        2 0.38897240E+00 0.65411676E+03</pdfrwt>
<totfact> 0.43774935E+00</totfact>
</mgrwt>
</event>
<event>
 5    1  0.2381755E-004  0.6614246E+03  0.7818608E-02  0.9785575E-01
         13   -1    0    0    0    0  0.00000000000E+00  0.00000000000E+00  0.10000000000E+04  0.10000000000E+04  0.00000000000E+00 0. -1.
          2   -1    0    0  501    0 -0.00000000000E+00 -0.00000000000E+00 -0.10937062055E+03  0.10937062055E+03  0.00000000000E+00 0. -1.
    9000006    2    1    2  501    0  0.00000000000E+00  0.00000000000E+00  0.89062937945E+03  0.11093706205E+04  0.66142458541E+03 0.  0.
         13    1    3    3    0    0  0.16882633268E+03  0.26057224775E+03  0.25429730049E+03  0.40133196227E+03  0.00000000000E+00 0. -1.
          4    1    3    3  501    0 -0.16882633268E+03 -0.26057224775E+03  0.63633207896E+03  0.70803865828E+03  0.00000000000E+00 0. -1.
<mgrwt>
<rscale>  0 0.66142459E+03</rscale>
<asrwt>0</asrwt>
<pdfrwt beam="1">0</pdfrwt>
<pdfrwt beam="2">  1        2 0.39771219E+00 0.66142459E+03</pdfrwt>
<totfact> 0.40585978E+00</totfact>
</mgrwt>
</event>
<event>
 5    1  0.2381755E-004  0.6578178E+03  0.7818608E-02  0.9792219E-01
         13   -1    0    0    0    0  0.00000000000E+00  0.00000000000E+00  0.10000000000E+04  0.10000000000E+04  0.00000000000E+00 0. -1.
          2   -1    0    0  501    0 -0.00000000000E+00 -0.00000000000E+00 -0.10818105315E+03  0.10818105315E+03  0.00000000000E+00 0. -1.
    9000006    2    1    2  501    0  0.00000000000E+00  0.00000000000E+00  0.89181894685E+03  0.11081810532E+04  0.65781776551E+03 0.  0.
         13    1    3    3    0    0 -0.19736925946E+03 -0.26304141987E+03  0.43585234467E+03  0.54599695924E+03  0.00000000000E+00 0. -1.
          4    1    3    3  501    0  0.19736925946E+03  0.26304141987E+03  0.45596660218E+03  0.56218409391E+03  0.00000000000E+00 0. -1.
<mgrwt>
<rscale>  0 0.65781777E+03</rscale>
<asrwt>0</asrwt>
<pdfrwt beam="1">0</pdfrwt>
<pdfrwt beam="2">  1        2 0.39338648E+00 0.65781777E+03</pdfrwt>
<totfact> 0.42137090E+00</totfact>
</mgrwt>
</event>
<event>
 5    1  0.2381755E-004  0.6485177E+03  0.7818608E-02  0.9809565E-01
         13   -1    0    0    0    0  0.00000000000E+00  0.00000000000E+00  0.10000000000E+04  0.10000000000E+04  0.00000000000E+00 0. -1.
          2   -1    0    0  501    0 -0.00000000000E+00 -0.00000000000E+00 -0.10514380527E+03  0.10514380527E+03  0.00000000000E+00 0. -1.
    9000006    2    1    2  501    0  0.00000000000E+00  0.00000000000E+00  0.89485619473E+03  0.11051438053E+04  0.64851771069E+03 0.  0.
         13    1    3    3    0    0 -0.57115745988E+02 -0.65079864843E+02 -0.85078072426E+02  0.12139141508E+03  0.00000000000E+00 0. -1.
          2    1    3    3  501    0  0.57115745988E+02  0.65079864843E+02  0.97993426716E+03  0.98375239019E+03  0.00000000000E+00 0. -1.
<mgrwt>
<rscale>  0 0.64851771E+03</rscale>
<asrwt>0</asrwt>
<pdfrwt beam="1">0</pdfrwt>
<pdfrwt beam="2">  1        2 0.38234192E+00 0.64851771E+03</pdfrwt>
<totfact> 0.46343593E+00</totfact>
</mgrwt>
</event>
<event>
 5    1  0.2381755E-004  0.6557004E+03  0.7818608E-02  0.9796141E-01
         13   -1    0    0    0    0  0.00000000000E+00  0.00000000000E+00  0.10000000000E+04  0.10000000000E+04  0.00000000000E+00 0. -1.
          2   -1    0    0  501    0 -0.00000000000E+00 -0.00000000000E+00 -0.10748576311E+03  0.10748576311E+03  0.00000000000E+00 0. -1.
    9000006    2    1    2  501    0  0.00000000000E+00  0.00000000000E+00  0.89251423689E+03  0.11074857631E+04  0.65570042890E+03 0.  0.
         13    1    3    3    0    0  0.12740274251E+03  0.29992617083E+03  0.50712241967E+03  0.60279375849E+03  0.00000000000E+00 0. -1.
          2    1    3    3  501    0 -0.12740274251E+03 -0.29992617083E+03  0.38539181722E+03  0.50469200462E+03  0.00000000000E+00 0. -1.
<mgrwt>
<rscale>  0 0.65570043E+03</rscale>
<asrwt>0</asrwt>
<pdfrwt beam="1">0</pdfrwt>
<pdfrwt beam="2">  1        2 0.39085814E+00 0.65570043E+03</pdfrwt>
<totfact> 0.43068323E+00</totfact>
</mgrwt>
</event>
<event>
 5    1  0.2381755E-004  0.6435422E+03  0.7818608E-02  0.9818973E-01
         13   -1    0    0    0    0  0.00000000000E+00  0.00000000000E+00  0.10000000000E+04  0.10000000000E+04  0.00000000000E+00 0. -1.
          2   -1    0    0  501    0 -0.00000000000E+00 -0.00000000000E+00 -0.10353665510E+03  0.10353665510E+03  0.00000000000E+00 0. -1.
    9000006    2    1    2  501    0  0.00000000000E+00  0.00000000000E+00  0.89646334490E+03  0.11035366551E+04  0.64354224445E+03 0.  0.
         13    1    3    3    0    0  0.18892272329E+03 -0.11490040840E+03  0.84907623772E+03  0.87739635096E+03  0.00000000000E+00 0. -1.
          2    1    3    3  501    0 -0.18892272329E+03  0.11490040840E+03  0.47387107186E+02  0.22614030414E+03  0.00000000000E+00 0. -1.
<mgrwt>
<rscale>  0 0.64354224E+03</rscale>
<asrwt>0</asrwt>
<pdfrwt beam="1">0</pdfrwt>
<pdfrwt beam="2">  1        2 0.37649772E+00 0.64354224E+03</pdfrwt>
<totfact> 0.48720344E+00</totfact>
</mgrwt>
</event>
<event>
 5    1  0.2381755E-004  0.6488383E+03  0.7818608E-02  0.9808961E-01
         13   -1    0    0    0    0  0.00000000000E+00  0.00000000000E+00  0.10000000000E+04  0.10000000000E+04  0.00000000000E+00 0. -1.
          2   -1    0    0  501    0 -0.00000000000E+00 -0.00000000000E+00 -0.10524778522E+03  0.10524778522E+03  0.00000000000E+00 0. -1.
    9000006    2    1    2  501    0  0.00000000000E+00  0.00000000000E+00  0.89475221478E+03  0.11052477852E+04  0.64883830104E+03 0.  0.
         13    1    3    3    0    0 -0.29569858764E+03 -0.40769552113E+02  0.66383837171E+03  0.72786069743E+03  0.00000000000E+00 0. -1.
          4    1    3    3  501    0  0.29569858764E+03  0.40769552113E+02  0.23091384306E+03  0.37738708779E+03  0.00000000000E+00 0. -1.
<mgrwt>
<rscale>  0 0.64883830E+03</rscale>
<asrwt>0</asrwt>
<pdfrwt beam="1">0</pdfrwt>
<pdfrwt beam="2">  1        2 0.38272003E+00 0.64883830E+03</pdfrwt>
<totfact> 0.46193517E+00</totfact>
</mgrwt>
</event>
<event>
 5    1  0.2381755E-004  0.6557680E+03  0.7818608E-02  0.9796016E-01
         13   -1    0    0    0    0  0.00000000000E+00  0.00000000000E+00  0.10000000000E+04  0.10000000000E+04  0.00000000000E+00 0. -1.
          2   -1    0    0  501    0 -0.00000000000E+00 -0.00000000000E+00 -0.10750791384E+03  0.10750791384E+03  0.00000000000E+00 0. -1.
    9000006    2    1    2  501    0  0.00000000000E+00  0.00000000000E+00  0.89249208616E+03  0.11075079138E+04  0.65576798896E+03 0.  0.
         13    1    3    3    0    0 -0.25536219345E+03  0.20549318463E+03  0.46043809840E+03  0.56519071227E+03  0.00000000000E+00 0. -1.
          4    1    3    3  501    0  0.25536219345E+03 -0.20549318463E+03  0.43205398776E+03  0.54231720157E+03  0.00000000000E+00 0. -1.
<mgrwt>
<rscale>  0 0.65576799E+03</rscale>
<asrwt>0</asrwt>
<pdfrwt beam="1">0</pdfrwt>
<pdfrwt beam="2">  1        2 0.39093869E+00 0.65576799E+03</pdfrwt>
<totfact> 0.43038371E+00</totfact>
</mgrwt>
</event>
<event>
 5    1  0.2381755E-004  0.6553940E+03  0.7818608E-02  0.9796710E-01
         13   -1    0    0    0    0  0.00000000000E+00  0.00000000000E+00  0.10000000000E+04  0.10000000000E+04  0.00000000000E+00 0. -1.
          2   -1    0    0  501    0 -0.00000000000E+00 -0.00000000000E+00 -0.10738531146E+03  0.10738531146E+03  0.00000000000E+00 0. -1.
    9000006    2    1    2  501    0  0.00000000000E+00  0.00000000000E+00  0.89261468854E+03  0.11073853115E+04  0.65539396231E+03 0.  0.
         13    1    3    3    0    0 -0.10117327509E+03  0.24775385236E+03  0.76585780849E+03  0.81126825759E+03  0.00000000000E+00 0. -1.
          4    1    3    3  501    0  0.10117327509E+03 -0.24775385236E+03  0.12675688005E+03  0.29611705387E+03  0.00000000000E+00 0. -1.
<mgrwt>
<rscale>  0 0.65539396E+03</rscale>
<asrwt>0</asrwt>
<pdfrwt beam="1">0</pdfrwt>
<pdfrwt beam="2">  1        2 0.39049287E+00 0.65539396E+03</pdfrwt>
<totfact> 0.43204387E+00</totfact>
</mgrwt>
</event>
<event>
 5    1  0.2381755E-004  0.6210106E+03  0.7818608E-02  0.9862750E-01
         13   -1    0    0    0    0  0.00000000000E+00  0.00000000000E+00  0.10000000000E+04  0.10000000000E+04  0.00000000000E+00 0. -1.
          2   -1    0    0  501    0 -0.00000000000E+00 -0.00000000000E+00 -0.96413530506E+02  0.96413530506E+02  0.00000000000E+00 0. -1.
    9000006    2    1    2  501    0  0.00000000000E+00  0.00000000000E+00  0.90358646949E+03  0.10964135305E+04  0.62101056515E+03 0.  0.
         13    1    3    3    0    0 -0.13131149477E+03 -0.26862469130E+03  0.59963048394E+03  0.67004376775E+03  0.00000000000E+00 0. -1.
          4    1    3    3  501    0  0.13131149477E+03  0.26862469130E+03  0.30395598555E+03  0.42636976275E+03  0.00000000000E+00 0. -1.
<mgrwt>
<rscale>  0 0.62101057E+03</rscale>
<asrwt>0</asrwt>
<pdfrwt beam="1">0</pdfrwt>
<pdfrwt beam="2">  1        2 0.35059540E+00 0.62101057E+03</pdfrwt>
<totfact> 0.60662151E+00</totfact>
</mgrwt>
</event>
<event>
 5    1  0.2381755E-004  0.6482294E+03  0.7818608E-02  0.9810107E-01
         13   -1    0    0    0    0  0.00000000000E+00  0.00000000000E+00  0.10000000000E+04  0.10000000000E+04  0.00000000000E+00 0. -1.
          2   -1    0    0  501    0 -0.00000000000E+00 -0.00000000000E+00 -0.10505032989E+03  0.10505032989E+03  0.00000000000E+00 0. -1.
    9000006    2    1    2  501    0  0.00000000000E+00  0.00000000000E+00  0.89494967011E+03  0.11050503299E+04  0.64822937265E+03 0.  0.
         13    1    3    3    0    0 -0.23721251524E+03  0.91280625112E+02  0.79032473421E+03  0.83018980686E+03  0.00000000000E+00 0. -1.
          4    1    3    3  501    0  0.23721251524E+03 -0.91280625112E+02  0.10462493590E+03  0.27486052303E+03  0.00000000000E+00 0. -1.
<mgrwt>
<rscale>  0 0.64822937E+03</rscale>
<asrwt>0</asrwt>
<pdfrwt beam="1">0</pdfrwt>
<pdfrwt beam="2">  1        2 0.38200201E+00 0.64822937E+03</pdfrwt>
<totfact> 0.46478886E+00</totfact>
</mgrwt>
</event>
<event>
 5    1  0.2381755E-004  0.6552279E+03  0.7818608E-02  0.9797019E-01
         13   -1    0    0    0    0  0.00000000000E+00  0.00000000000E+00  0.10000000000E+04  0.10000000000E+04  0.00000000000E+00 0. -1.
          2   -1    0    0  501    0 -0.00000000000E+00 -0.00000000000E+00 -0.10733089267E+03  0.10733089267E+03  0.00000000000E+00 0. -1.
    9000006    2    1    2  501    0  0.00000000000E+00  0.00000000000E+00  0.89266910733E+03  0.11073308927E+04  0.65522787690E+03 0.  0.
         13    1    3    3    0    0  0.93957940529E+02 -0.30816305371E+03  0.54686190543E+03  0.63470505424E+03  0.00000000000E+00 0. -1.
          4    1    3    3  501    0 -0.93957940529E+02  0.30816305371E+03  0.34580720190E+03  0.47262583843E+03  0.00000000000E+00 0. -1.
<mgrwt>
<rscale>  0 0.65522788E+03</rscale>
<asrwt>0</asrwt>
<pdfrwt beam="1">0</pdfrwt>
<pdfrwt beam="2">  1        2 0.39029498E+00 0.65522788E+03</pdfrwt>
<totfact> 0.43278261E+00</totfact>
</mgrwt>
</event>
<event>
 5    1  0.2381755E-004  0.6492556E+03  0.7818608E-02  0.9808177E-01
         13   -1    0    0    0    0  0.00000000000E+00  0.00000000000E+00  0.10000000000E+04  0.10000000000E+04  0.00000000000E+00 0. -1.
          2   -1    0    0  501    0 -0.00000000000E+00 -0.00000000000E+00 -0.10538321530E+03  0.10538321530E+03  0.00000000000E+00 0. -1.
    9000006    2    1    2  501    0  0.00000000000E+00  0.00000000000E+00  0.89461678470E+03  0.11053832153E+04  0.64925562085E+03 0.  0.
         13    1    3    3    0    0 -0.27885538508E+03 -0.83634881835E+02  0.69183533627E+03  0.75059393267E+03  0.00000000000E+00 0. -1.
          4    1    3    3  501    0  0.27885538508E+03  0.83634881835E+02  0.20278144842E+03  0.35478928263E+03  0.00000000000E+00 0. -1.
<mgrwt>
<rscale>  0 0.64925562E+03</rscale>
<asrwt>0</asrwt>
<pdfrwt beam="1">0</pdfrwt>
<pdfrwt beam="2">  1        2 0.38321250E+00 0.64925562E+03</pdfrwt>
<totfact> 0.45998710E+00</totfact>
</mgrwt>
</event>
<event>
 5    1  0.2381755E-004  0.6493400E+03  0.7818608E-02  0.9808018E-01
         13   -1    0    0    0    0  0.00000000000E+00  0.00000000000E+00  0.10000000000E+04  0.10000000000E+04  0.00000000000E+00 0. -1.
          2   -1    0    0  501    0 -0.00000000000E+00 -0.00000000000E+00 -0.10541060200E+03  0.10541060200E+03  0.00000000000E+00 0. -1.
    9000006    2    1    2  501    0  0.00000000000E+00  0.00000000000E+00  0.89458939800E+03  0.11054106020E+04  0.64933997874E+03 0.  0.
         13    1    3    3    0    0 -0.25347799207E+03 -0.12301095708E+03  0.17265056336E+03  0.33044062259E+03  0.00000000000E+00 0. -1.
          2    1    3    3  501    0  0.25347799207E+03  0.12301095708E+03  0.72193883464E+03  0.77496997941E+03  0.00000000000E+00 0. -1.
<mgrwt>
<rscale>  0 0.64933998E+03</rscale>
<asrwt>0</asrwt>
<pdfrwt beam="1">0</pdfrwt>
<pdfrwt beam="2">  1        2 0.38331209E+00 0.64933998E+03</pdfrwt>
<totfact> 0.45959407E+00</totfact>
</mgrwt>
</event>
<event>
 5    1  0.2381755E-004  0.6438208E+03  0.7818608E-02  0.9818444E-01
         13   -1    0    0    0    0  0.00000000000E+00  0.00000000000E+00  0.10000000000E+04  0.10000000000E+04  0.00000000000E+00 0. -1.
          2   -1    0    0  501    0 -0.00000000000E+00 -0.00000000000E+00 -0.10362629637E+03  0.10362629637E+03  0.00000000000E+00 0. -1.
    9000006    2    1    2  501    0  0.00000000000E+00  0.00000000000E+00  0.89637370363E+03  0.11036262964E+04  0.64382077124E+03 0.  0.
         13    1    3    3    0    0  0.29594064470E+03 -0.95223295170E+02  0.30499406357E+03  0.43551087236E+03  0.00000000000E+00 0. -1.
          2    1    3    3  501    0 -0.29594064470E+03  0.95223295170E+02  0.59137964006E+03  0.66811542401E+03  0.00000000000E+00 0. -1.
<mgrwt>
<rscale>  0 0.64382077E+03</rscale>
<asrwt>0</asrwt>
<pdfrwt beam="1">0</pdfrwt>
<pdfrwt beam="2">  1        2 0.37682369E+00 0.64382077E+03</pdfrwt>
<totfact> 0.48584908E+00</totfact>
</mgrwt>
</event>
<event>
 5    1  0.2381755E-004  0.6126918E+03  0.7818608E-02  0.9879419E-01
         13   -1    0    0    0    0  0.00000000000E+00  0.00000000000E+00  0.10000000000E+04  0.10000000000E+04  0.00000000000E+00 0. -1.
          2   -1    0    0  501    0 -0.00000000000E+00 -0.00000000000E+00 -0.93847823869E+02  0.93847823869E+02  0.00000000000E+00 0. -1.
    9000006    2    1    2  501    0  0.00000000000E+00  0.00000000000E+00  0.90615217613E+03  0.10938478239E+04  0.61269184381E+03 0.  0.
         13    1    3    3    0    0  0.11110300311E+03 -0.25716856252E+03  0.67439952119E+03  0.73026999188E+03  0.00000000000E+00 0. -1.
          2    1    3    3  501    0 -0.11110300311E+03  0.25716856252E+03  0.23175265494E+03  0.36357783199E+03  0.00000000000E+00 0. -1.
<mgrwt>
<rscale>  0 0.61269184E+03</rscale>
<asrwt>0</asrwt>
<pdfrwt beam="1">0</pdfrwt>
<pdfrwt beam="2">  1        2 0.34126553E+00 0.61269184E+03</pdfrwt>
<totfact> 0.65590710E+00</totfact>
</mgrwt>
</event>
<event>
 5    1  0.2381755E-004  0.6377996E+03  0.7818608E-02  0.9829946E-01
         13   -1    0    0    0    0  0.00000000000E+00  0.00000000000E+00  0.10000000000E+04  0.10000000000E+04  0.00000000000E+00 0. -1.
          2   -1    0    0  501    0 -0.00000000000E+00 -0.00000000000E+00 -0.10169708638E+03  0.10169708638E+03  0.00000000000E+00 0. -1.
    9000006    2    1    2  501    0  0.00000000000E+00  0.00000000000E+00  0.89830291362E+03  0.11016970864E+04  0.63779961234E+03 0.  0.
         13    1    3    3    0    0  0.18755869367E+00  0.14057323991E+03 -0.45291164365E+02  0.14768940560E+03  0.00000000000E+00 0. -1.
          4    1    3    3  501    0 -0.18755869367E+00 -0.14057323991E+03  0.94359407799E+03  0.95400768077E+03  0.00000000000E+00 0. -1.
<mgrwt>
<rscale>  0 0.63779961E+03</rscale>
<asrwt>0</asrwt>
<pdfrwt beam="1">0</pdfrwt>
<pdfrwt beam="2">  1        2 0.36980837E+00 0.63779961E+03</pdfrwt>
<totfact> 0.51577234E+00</totfact>
</mgrwt>
</event>
<event>
 5    1  0.2381755E-004  0.6087306E+03  0.7818608E-02  0.9887457E-01
         13   -1    0    0    0    0  0.00000000000E+00  0.00000000000E+00  0.10000000000E+04  0.10000000000E+04  0.00000000000E+00 0. -1.
          2   -1    0    0  501    0 -0.00000000000E+00 -0.00000000000E+00 -0.92638227583E+02  0.92638227583E+02  0.00000000000E+00 0. -1.
    9000006    2    1    2  501    0  0.00000000000E+00  0.00000000000E+00  0.90736177242E+03  0.10926382276E+04  0.60873057286E+03 0.  0.
         13    1    3    3    0    0  0.25989362140E+03  0.14058276245E+03  0.32263732175E+03  0.43749634162E+03  0.00000000000E+00 0. -1.
          2    1    3    3  501    0 -0.25989362140E+03 -0.14058276245E+03  0.58472445066E+03  0.65514188597E+03  0.00000000000E+00 0. -1.
<mgrwt>
<rscale>  0 0.60873057E+03</rscale>
<asrwt>0</asrwt>
<pdfrwt beam="1">0</pdfrwt>
<pdfrwt beam="2">  1        2 0.33686699E+00 0.60873057E+03</pdfrwt>
<totfact> 0.68042310E+00</totfact>
</mgrwt>
</event>
<event>
 5    1  0.2381755E-004  0.5582112E+03  0.7818608E-02  0.9996110E-01
         13   -1    0    0    0    0  0.00000000000E+00  0.00000000000E+00  0.10000000000E+04  0.10000000000E+04  0.00000000000E+00 0. -1.
          2   -1    0    0  501    0 -0.00000000000E+00 -0.00000000000E+00 -0.77899932045E+02  0.77899932045E+02  0.00000000000E+00 0. -1.
    9000006    2    1    2  501    0  0.00000000000E+00  0.00000000000E+00  0.92210006796E+03  0.10778999320E+04  0.55821118600E+03 0.  0.
         13    1    3    3    0    0 -0.48845736525E+02 -0.26380511321E+03  0.60963447816E+03  0.66605798598E+03  0.00000000000E+00 0. -1.
          4    1    3    3  501    0  0.48845736525E+02  0.26380511321E+03  0.31246558979E+03  0.41184194606E+03  0.00000000000E+00 0. -1.
<mgrwt>
<rscale>  0 0.55821119E+03</rscale>
<asrwt>0</asrwt>
<pdfrwt beam="1">0</pdfrwt>
<pdfrwt beam="2">  1        2 0.28327308E+00 0.55821119E+03</pdfrwt>
<totfact> 0.10595457E+01</totfact>
</mgrwt>
</event>
<event>
 5    1  0.2381755E-004  0.6533647E+03  0.7818608E-02  0.9800486E-01
         13   -1    0    0    0    0  0.00000000000E+00  0.00000000000E+00  0.10000000000E+04  0.10000000000E+04  0.00000000000E+00 0. -1.
          2   -1    0    0  501    0 -0.00000000000E+00 -0.00000000000E+00 -0.10672136545E+03  0.10672136545E+03  0.00000000000E+00 0. -1.
    9000006    2    1    2  501    0  0.00000000000E+00  0.00000000000E+00  0.89327863455E+03  0.11067213654E+04  0.65336472341E+03 0.  0.
         13    1    3    3    0    0  0.28639805867E+03  0.11750220109E+03  0.26986811737E+03  0.41068164805E+03  0.00000000000E+00 0. -1.
          4    1    3    3  501    0 -0.28639805867E+03 -0.11750220109E+03  0.62341051718E+03  0.69603971740E+03  0.00000000000E+00 0. -1.
<mgrwt>
<rscale>  0 0.65336472E+03</rscale>
<asrwt>0</asrwt>
<pdfrwt beam="1">0</pdfrwt>
<pdfrwt beam="2">  1        2 0.38807851E+00 0.65336472E+03</pdfrwt>
<totfact> 0.44113536E+00</totfact>
</mgrwt>
</event>
<event>
 5    1  0.2381755E-004  0.4855215E+03  0.7818608E-02  0.1017629E+00
         13   -1    0    0    0    0  0.00000000000E+00  0.00000000000E+00  0.10000000000E+04  0.10000000000E+04  0.00000000000E+00 0. -1.
          2   -1    0    0  501    0 -0.00000000000E+00 -0.00000000000E+00 -0.58932775011E+02  0.58932775011E+02  0.00000000000E+00 0. -1.
    9000006    2    1    2  501    0  0.00000000000E+00  0.00000000000E+00  0.94106722499E+03  0.10589327750E+04  0.48552147228E+03 0.  0.
         13    1    3    3    0    0 -0.79621359038E+02 -0.20168370415E+03  0.70862383126E+03  0.74105574120E+03  0.00000000000E+00 0. -1.
          4    1    3    3  501    0  0.79621359038E+02  0.20168370415E+03  0.23244339373E+03  0.31787703381E+03  0.00000000000E+00 0. -1.
<mgrwt>
<rscale>  0 0.48552147E+03</rscale>
<asrwt>0</asrwt>
<pdfrwt beam="1">0</pdfrwt>
<pdfrwt beam="2">  1        2 0.21430145E+00 0.48552147E+03</pdfrwt>
<totfact> 0.18795018E+01</totfact>
</mgrwt>
</event>
<event>
 5    1  0.2381755E-004  0.6398025E+03  0.7818608E-02  0.9826105E-01
         13   -1    0    0    0    0  0.00000000000E+00  0.00000000000E+00  0.10000000000E+04  0.10000000000E+04  0.00000000000E+00 0. -1.
          2   -1    0    0  501    0 -0.00000000000E+00 -0.00000000000E+00 -0.10233680364E+03  0.10233680364E+03  0.00000000000E+00 0. -1.
    9000006    2    1    2  501    0  0.00000000000E+00  0.00000000000E+00  0.89766319636E+03  0.11023368036E+04  0.63980248091E+03 0.  0.
         13    1    3    3    0    0 -0.83020824301E+02 -0.12746445706E+03  0.93369922414E+03  0.94600945357E+03  0.00000000000E+00 0. -1.
          2    1    3    3  501    0  0.83020824301E+02  0.12746445706E+03 -0.36036027787E+02  0.15632735007E+03  0.00000000000E+00 0. -1.
<mgrwt>
<rscale>  0 0.63980248E+03</rscale>
<asrwt>0</asrwt>
<pdfrwt beam="1">0</pdfrwt>
<pdfrwt beam="2">  1        2 0.37213462E+00 0.63980248E+03</pdfrwt>
<totfact> 0.50566797E+00</totfact>
</mgrwt>
</event>
<event>
 5    1  0.2381755E-004  0.6472671E+03  0.7818608E-02  0.9811921E-01
         13   -1    0    0    0    0  0.00000000000E+00  0.00000000000E+00  0.10000000000E+04  0.10000000000E+04  0.00000000000E+00 0. -1.
          2   -1    0    0  501    0 -0.00000000000E+00 -0.00000000000E+00 -0.10473867127E+03  0.10473867127E+03  0.00000000000E+00 0. -1.
    9000006    2    1    2  501    0  0.00000000000E+00  0.00000000000E+00  0.89526132873E+03  0.11047386713E+04  0.64726708944E+03 0.  0.
         13    1    3    3    0    0 -0.63984376695E+02  0.31332595610E+03  0.36277951144E+03  0.48360741221E+03  0.00000000000E+00 0. -1.
          4    1    3    3  501    0  0.63984376695E+02 -0.31332595610E+03  0.53248181729E+03  0.62113125906E+03  0.00000000000E+00 0. -1.
<mgrwt>
<rscale>  0 0.64726709E+03</rscale>
<asrwt>0</asrwt>
<pdfrwt beam="1">0</pdfrwt>
<pdfrwt beam="2">  1        2 0.38086870E+00 0.64726709E+03</pdfrwt>
<totfact> 0.46932566E+00</totfact>
</mgrwt>
</event>
<event>
 5    1  0.2381755E-004  0.6575387E+03  0.7818608E-02  0.9792735E-01
         13   -1    0    0    0    0  0.00000000000E+00  0.00000000000E+00  0.10000000000E+04  0.10000000000E+04  0.00000000000E+00 0. -1.
          2   -1    0    0  501    0 -0.00000000000E+00 -0.00000000000E+00 -0.10808927668E+03  0.10808927668E+03  0.00000000000E+00 0. -1.
    9000006    2    1    2  501    0  0.00000000000E+00  0.00000000000E+00  0.89191072332E+03  0.11080892767E+04  0.65753867317E+03 0.  0.
         13    1    3    3    0    0 -0.27356953883E+03 -0.27876055862E+01  0.75320535705E+03  0.80135283940E+03  0.00000000000E+00 0. -1.
          4    1    3    3  501    0  0.27356953883E+03  0.27876055862E+01  0.13870536627E+03  0.30673643728E+03  0.00000000000E+00 0. -1.
<mgrwt>
<rscale>  0 0.65753867E+03</rscale>
<asrwt>0</asrwt>
<pdfrwt beam="1">0</pdfrwt>
<pdfrwt beam="2">  1        2 0.39305274E+00 0.65753867E+03</pdfrwt>
<totfact> 0.42258960E+00</totfact>
</mgrwt>
</event>
<event>
 5    1  0.2381755E-004  0.6508311E+03  0.7818608E-02  0.9805221E-01
         13   -1    0    0    0    0  0.00000000000E+00  0.00000000000E+00  0.10000000000E+04  0.10000000000E+04  0.00000000000E+00 0. -1.
          2   -1    0    0  501    0 -0.00000000000E+00 -0.00000000000E+00 -0.10589527228E+03  0.10589527228E+03  0.00000000000E+00 0. -1.
    9000006    2    1    2  501    0  0.00000000000E+00  0.00000000000E+00  0.89410472772E+03  0.11058952723E+04  0.65083107571E+03 0.  0.
         13    1    3    3    0    0  0.28817953489E+03  0.13913502262E+03  0.34668021507E+03  0.47179780666E+03  0.00000000000E+00 0. -1.
          4    1    3    3  501    0 -0.28817953489E+03 -0.13913502262E+03  0.54742451265E+03  0.63409746562E+03  0.00000000000E+00 0. -1.
<mgrwt>
<rscale>  0 0.65083108E+03</rscale>
<asrwt>0</asrwt>
<pdfrwt beam="1">0</pdfrwt>
<pdfrwt beam="2">  1        2 0.38507453E+00 0.65083108E+03</pdfrwt>
<totfact> 0.45268871E+00</totfact>
</mgrwt>
</event>
<event>
 5    1  0.2381755E-004  0.5986237E+03  0.7818608E-02  0.9908266E-01
         13   -1    0    0    0    0  0.00000000000E+00  0.00000000000E+00  0.10000000000E+04  0.10000000000E+04  0.00000000000E+00 0. -1.
          2   -1    0    0  501    0 -0.00000000000E+00 -0.00000000000E+00 -0.89587588314E+02  0.89587588314E+02  0.00000000000E+00 0. -1.
    9000006    2    1    2  501    0  0.00000000000E+00  0.00000000000E+00  0.91041241169E+03  0.10895875883E+04  0.59862371592E+03 0.  0.
         13    1    3    3    0    0 -0.12508935892E+03 -0.12256000192E+03  0.89701765761E+03  0.91395239474E+03  0.00000000000E+00 0. -1.
          2    1    3    3  501    0  0.12508935892E+03  0.12256000192E+03  0.13394754076E+02  0.17563519358E+03  0.00000000000E+00 0. -1.
<mgrwt>
<rscale>  0 0.59862372E+03</rscale>
<asrwt>0</asrwt>
<pdfrwt beam="1">0</pdfrwt>
<pdfrwt beam="2">  1        2 0.32577374E+00 0.59862372E+03</pdfrwt>
<totfact> 0.74615629E+00</totfact>
</mgrwt>
</event>
<event>
 5    1  0.2381755E-004  0.6554746E+03  0.7818608E-02  0.9796560E-01
         13   -1    0    0    0    0  0.00000000000E+00  0.00000000000E+00  0.10000000000E+04  0.10000000000E+04  0.00000000000E+00 0. -1.
          2   -1    0    0  501    0 -0.00000000000E+00 -0.00000000000E+00 -0.10741173781E+03  0.10741173781E+03  0.00000000000E+00 0. -1.
    9000006    2    1    2  501    0  0.00000000000E+00  0.00000000000E+00  0.89258826219E+03  0.11074117378E+04  0.65547459999E+03 0.  0.
         13    1    3    3    0    0 -0.95031938973E+02 -0.94383145703E+02 -0.59062556884E+02  0.14638180639E+03  0.00000000000E+00 0. -1.
          4    1    3    3  501    0  0.95031938973E+02  0.94383145703E+02  0.95165081908E+03  0.96102993141E+03  0.00000000000E+00 0. -1.
<mgrwt>
<rscale>  0 0.65547460E+03</rscale>
<asrwt>0</asrwt>
<pdfrwt beam="1">0</pdfrwt>
<pdfrwt beam="2">  1        2 0.39058896E+00 0.65547460E+03</pdfrwt>
<totfact> 0.43168554E+00</totfact>
</mgrwt>
</event>
<event>
 5    1  0.2381755E-004  0.5328954E+03  0.7818608E-02  0.1005532E+00
         13   -1    0    0    0    0  0.00000000000E+00  0.00000000000E+00  0.10000000000E+04  0.10000000000E+04  0.00000000000E+00 0. -1.
          2   -1    0    0  501    0 -0.00000000000E+00 -0.00000000000E+00 -0.70994379205E+02  0.70994379205E+02  0.00000000000E+00 0. -1.
    9000006    2    1    2  501    0  0.00000000000E+00  0.00000000000E+00  0.92900562079E+03  0.10709943792E+04  0.53289540889E+03 0.  0.
         13    1    3    3    0    0  0.17022132641E+03  0.14542718413E+03  0.75484261247E+03  0.78734473737E+03  0.00000000000E+00 0. -1.
          2    1    3    3  501    0 -0.17022132641E+03 -0.14542718413E+03  0.17416300832E+03  0.28364964184E+03  0.00000000000E+00 0. -1.
<mgrwt>
<rscale>  0 0.53289541E+03</rscale>
<asrwt>0</asrwt>
<pdfrwt beam="1">0</pdfrwt>
<pdfrwt beam="2">  1        2 0.25816192E+00 0.53289541E+03</pdfrwt>
<totfact> 0.13029906E+01</totfact>
</mgrwt>
</event>
<event>
 5    1  0.2381755E-004  0.6413682E+03  0.7818608E-02  0.9823112E-01
         13   -1    0    0    0    0  0.00000000000E+00  0.00000000000E+00  0.10000000000E+04  0.10000000000E+04  0.00000000000E+00 0. -1.
          2   -1    0    0  501    0 -0.00000000000E+00 -0.00000000000E+00 -0.10283827892E+03  0.10283827892E+03  0.00000000000E+00 0. -1.
    9000006    2    1    2  501    0  0.00000000000E+00  0.00000000000E+00  0.89716172108E+03  0.11028382789E+04  0.64136815923E+03 0.  0.
         13    1    3    3    0    0 -0.30994998431E+03 -0.15813132498E+02  0.58741702936E+03  0.66436271292E+03  0.00000000000E+00 0. -1.
          4    1    3    3  501    0  0.30994998431E+03  0.15813132498E+02  0.30974469172E+03  0.43847556600E+03  0.00000000000E+00 0. -1.
<mgrwt>
<rscale>  0 0.64136816E+03</rscale>
<asrwt>0</asrwt>
<pdfrwt beam="1">0</pdfrwt>
<pdfrwt beam="2">  1        2 0.37395817E+00 0.64136816E+03</pdfrwt>
<totfact> 0.49787419E+00</totfact>
</mgrwt>
</event>
<event>
 5    1  0.2381755E-004  0.6524930E+03  0.7818608E-02  0.9802112E-01
         13   -1    0    0    0    0  0.00000000000E+00  0.00000000000E+00  0.10000000000E+04  0.10000000000E+04  0.00000000000E+00 0. -1.
          2   -1    0    0  501    0 -0.00000000000E+00 -0.00000000000E+00 -0.10643677633E+03  0.10643677633E+03  0.00000000000E+00 0. -1.
    9000006    2    1    2  501    0  0.00000000000E+00  0.00000000000E+00  0.89356322367E+03  0.11064367763E+04  0.65249299253E+03 0.  0.
         13    1    3    3    0    0  0.10082206707E+03 -0.21579754731E+03  0.82482575482E+03  0.85852850648E+03  0.00000000000E+00 0. -1.
          4    1    3    3  501    0 -0.10082206707E+03  0.21579754731E+03  0.68737468856E+02  0.24790826984E+03  0.00000000000E+00 0. -1.
<mgrwt>
<rscale>  0 0.65249299E+03</rscale>
<asrwt>0</asrwt>
<pdfrwt beam="1">0</pdfrwt>
<pdfrwt beam="2">  1        2 0.38704364E+00 0.65249299E+03</pdfrwt>
<totfact> 0.44508498E+00</totfact>
</mgrwt>
</event>
<event>
 5    1  0.2381755E-004  0.6591054E+03  0.7818608E-02  0.9789842E-01
         13   -1    0    0    0    0  0.00000000000E+00  0.00000000000E+00  0.10000000000E+04  0.10000000000E+04  0.00000000000E+00 0. -1.
          2   -1    0    0  501    0 -0.00000000000E+00 -0.00000000000E+00 -0.10860497236E+03  0.10860497236E+03  0.00000000000E+00 0. -1.
    9000006    2    1    2  501    0  0.00000000000E+00  0.00000000000E+00  0.89139502764E+03  0.11086049724E+04  0.65910537051E+03 0.  0.
         13    1    3    3    0    0 -0.52655349717E+02  0.20760646411E+03  0.24421880755E+02  0.21556775745E+03  0.00000000000E+00 0. -1.
          4    1    3    3  501    0  0.52655349717E+02 -0.20760646411E+03  0.86697314688E+03  0.89303721491E+03  0.00000000000E+00 0. -1.
<mgrwt>
<rscale>  0 0.65910537E+03</rscale>
<asrwt>0</asrwt>
<pdfrwt beam="1">0</pdfrwt>
<pdfrwt beam="2">  1        2 0.39492801E+00 0.65910537E+03</pdfrwt>
<totfact> 0.41578301E+00</totfact>
</mgrwt>
</event>
<event>
 5    1  0.2381755E-004  0.6411333E+03  0.7818608E-02  0.9823561E-01
         13   -1    0    0    0    0  0.00000000000E+00  0.00000000000E+00  0.10000000000E+04  0.10000000000E+04  0.00000000000E+00 0. -1.
          2   -1    0    0  501    0 -0.00000000000E+00 -0.00000000000E+00 -0.10276298005E+03  0.10276298005E+03  0.00000000000E+00 0. -1.
    9000006    2    1    2  501    0  0.00000000000E+00  0.00000000000E+00  0.89723701995E+03  0.11027629801E+04  0.64113330923E+03 0.  0.
         13    1    3    3    0    0 -0.30479961714E+03 -0.31360215004E+02  0.28656447004E+03  0.41953005278E+03  0.00000000000E+00 0. -1.
          2    1    3    3  501    0  0.30479961714E+03  0.31360215004E+02  0.61067254991E+03  0.68323292727E+03  0.00000000000E+00 0. -1.
<mgrwt>
<rscale>  0 0.64113331E+03</rscale>
<asrwt>0</asrwt>
<pdfrwt beam="1">0</pdfrwt>
<pdfrwt beam="2">  1        2 0.37368435E+00 0.64113331E+03</pdfrwt>
<totfact> 0.49903741E+00</totfact>
</mgrwt>
</event>
<event>
 5    1  0.2381755E-004  0.6138562E+03  0.7818608E-02  0.9877069E-01
         13   -1    0    0    0    0  0.00000000000E+00  0.00000000000E+00  0.10000000000E+04  0.10000000000E+04  0.00000000000E+00 0. -1.
          2   -1    0    0  501    0 -0.00000000000E+00 -0.00000000000E+00 -0.94204856278E+02  0.94204856278E+02  0.00000000000E+00 0. -1.
    9000006    2    1    2  501    0  0.00000000000E+00  0.00000000000E+00  0.90579514372E+03  0.10942048563E+04  0.61385619253E+03 0.  0.
         13    1    3    3    0    0 -0.29301914266E+03  0.79989339981E+01  0.29069252916E+03  0.41282726100E+03  0.00000000000E+00 0. -1.
          4    1    3    3  501    0  0.29301914266E+03 -0.79989339981E+01  0.61510261456E+03  0.68137759528E+03  0.00000000000E+00 0. -1.
<mgrwt>
<rscale>  0 0.61385619E+03</rscale>
<asrwt>0</asrwt>
<pdfrwt beam="1">0</pdfrwt>
<pdfrwt beam="2">  1        2 0.34256384E+00 0.61385619E+03</pdfrwt>
<totfact> 0.64883126E+00</totfact>
</mgrwt>
</event>
<event>
 5    1  0.2381755E-004  0.6636737E+03  0.7818608E-02  0.9781454E-01
         13   -1    0    0    0    0  0.00000000000E+00  0.00000000000E+00  0.10000000000E+04  0.10000000000E+04  0.00000000000E+00 0. -1.
          2   -1    0    0  501    0 -0.00000000000E+00 -0.00000000000E+00 -0.11011568678E+03  0.11011568678E+03  0.00000000000E+00 0. -1.
    9000006    2    1    2  501    0  0.00000000000E+00  0.00000000000E+00  0.88988431322E+03  0.11101156868E+04  0.66367367519E+03 0.  0.
         13    1    3    3    0    0 -0.36984479731E+02 -0.31197885352E+03  0.62366917862E+03  0.69832793239E+03  0.00000000000E+00 0. -1.
          2    1    3    3  501    0  0.36984479731E+02  0.31197885352E+03  0.26621513459E+03  0.41178775440E+03  0.00000000000E+00 0. -1.
<mgrwt>
<rscale>  0 0.66367368E+03</rscale>
<asrwt>0</asrwt>
<pdfrwt beam="1">0</pdfrwt>
<pdfrwt beam="2">  1        2 0.40042152E+00 0.66367368E+03</pdfrwt>
<totfact> 0.39640831E+00</totfact>
</mgrwt>
</event>
<event>
 5    1  0.2381755E-004  0.6580006E+03  0.7818608E-02  0.9791881E-01
         13   -1    0    0    0    0  0.00000000000E+00  0.00000000000E+00  0.10000000000E+04  0.10000000000E+04  0.00000000000E+00 0. -1.
          2   -1    0    0  501    0 -0.00000000000E+00 -0.00000000000E+00 -0.10824120270E+03  0.10824120270E+03  0.00000000000E+00 0. -1.
    9000006    2    1    2  501    0  0.00000000000E+00  0.00000000000E+00  0.89175879730E+03  0.11082412027E+04  0.65800061612E+03 0.  0.
         13    1    3    3    0    0 -0.32704464875E+03  0.34046154714E+02  0.42713492984E+03  0.53903765288E+03  0.00000000000E+00 0. -1.
          2    1    3    3  501    0  0.32704464875E+03 -0.34046154714E+02  0.46462386745E+03  0.56920354983E+03  0.00000000000E+00 0. -1.
<mgrwt>
<rscale>  0 0.65800062E+03</rscale>
<asrwt>0</asrwt>
<pdfrwt beam="1">0</pdfrwt>
<pdfrwt beam="2">  1        2 0.39360520E+00 0.65800062E+03</pdfrwt>
<totfact> 0.42057390E+00</totfact>
</mgrwt>
</event>
<event>
 5    1  0.2381755E-004  0.6310195E+03  0.7818608E-02  0.9843061E-01
         13   -1    0    0    0    0  0.00000000000E+00  0.00000000000E+00  0.10000000000E+04  0.10000000000E+04  0.00000000000E+00 0. -1.
          2   -1    0    0  501    0 -0.00000000000E+00 -0.00000000000E+00 -0.99546392684E+02  0.99546392684E+02  0.00000000000E+00 0. -1.
    9000006    2    1    2  501    0  0.00000000000E+00  0.00000000000E+00  0.90045360732E+03  0.10995463927E+04  0.63101946938E+03 0.  0.
         13    1    3    3    0    0  0.27576727996E+03  0.11274444631E+03  0.26924663095E+03  0.40156276115E+03  0.00000000000E+00 0. -1.
          4    1    3    3  501    0 -0.27576727996E+03 -0.11274444631E+03  0.63120697637E+03  0.69798363153E+03  0.00000000000E+00 0. -1.
<mgrwt>
<rscale>  0 0.63101947E+03</rscale>
<asrwt>0</asrwt>
<pdfrwt beam="1">0</pdfrwt>
<pdfrwt beam="2">  1        2 0.36198765E+00 0.63101947E+03</pdfrwt>
<totfact> 0.55111733E+00</totfact>
</mgrwt>
</event>
<event>
 5    1  0.2381755E-004  0.6254020E+03  0.7818608E-02  0.9854063E-01
         13   -1    0    0    0    0  0.00000000000E+00  0.00000000000E+00  0.10000000000E+04  0.10000000000E+04  0.00000000000E+00 0. -1.
          2   -1    0    0  501    0 -0.00000000000E+00 -0.00000000000E+00 -0.97781919483E+02  0.97781919483E+02  0.00000000000E+00 0. -1.
    9000006    2    1    2  501    0  0.00000000000E+00  0.00000000000E+00  0.90221808052E+03  0.10977819195E+04  0.62540201306E+03 0.  0.
         13    1    3    3    0    0  0.10631737024E+03 -0.16249056315E+03  0.88134327484E+03  0.90248132082E+03  0.00000000000E+00 0. -1.
          2    1    3    3  501    0 -0.10631737024E+03  0.16249056315E+03  0.20874805681E+02  0.19530059867E+03  0.00000000000E+00 0. -1.
<mgrwt>
<rscale>  0 0.62540201E+03</rscale>
<asrwt>0</asrwt>
<pdfrwt beam="1">0</pdfrwt>
<pdfrwt beam="2">  1        2 0.35557137E+00 0.62540201E+03</pdfrwt>
<totfact> 0.58176904E+00</totfact>
</mgrwt>
</event>
<event>
 5    1  0.2381755E-004  0.6536407E+03  0.7818608E-02  0.9799972E-01
         13   -1    0    0    0    0  0.00000000000E+00  0.00000000000E+00  0.10000000000E+04  0.10000000000E+04  0.00000000000E+00 0. -1.
          2   -1    0    0  501    0 -0.00000000000E+00 -0.00000000000E+00 -0.10681154092E+03  0.10681154092E+03  0.00000000000E+00 0. -1.
    9000006    2    1    2  501    0  0.00000000000E+00  0.00000000000E+00  0.89318845908E+03  0.11068115409E+04  0.65364069922E+03 0.  0.
         13    1    3    3    0    0 -0.27029428052E+03  0.18351612566E+03  0.46119737780E+03  0.56519039956E+03  0.00000000000E+00 0. -1.
          4    1    3    3  501    0  0.27029428052E+03 -0.18351612566E+03  0.43199108128E+03  0.54162114136E+03  0.00000000000E+00 0. -1.
<mgrwt>
<rscale>  0 0.65364070E+03</rscale>
<asrwt>0</asrwt>
<pdfrwt beam="1">0</pdfrwt>
<pdfrwt beam="2">  1        2 0.38840642E+00 0.65364070E+03</pdfrwt>
<totfact> 0.43989051E+00</totfact>
</mgrwt>
</event>
<event>
 5    1  0.2381755E-004  0.6603854E+03  0.7818608E-02  0.9787485E-01
         13   -1    0    0    0    0  0.00000000000E+00  0.00000000000E+00  0.10000000000E+04  0.10000000000E+04  0.00000000000E+00 0. -1.
          2   -1    0    0  501    0 -0.00000000000E+00 -0.00000000000E+00 -0.10902721448E+03  0.10902721448E+03  0.00000000000E+00 0. -1.
    9000006    2    1    2  501    0  0.00000000000E+00  0.00000000000E+00  0.89097278552E+03  0.11090272145E+04  0.66038538592E+03 0.  0.
         13    1    3    3    0    0 -0.17673712663E+03 -0.26735268716E+03  0.31204572480E+03  0.44730974238E+03  0.00000000000E+00 0. -1.
          4    1    3    3  501    0  0.17673712663E+03  0.26735268716E+03  0.57892706072E+03  0.66171747211E+03  0.00000000000E+00 0. -1.
<mgrwt>
<rscale>  0 0.66038539E+03</rscale>
<asrwt>0</asrwt>
<pdfrwt beam="1">0</pdfrwt>
<pdfrwt beam="2">  1        2 0.39646343E+00 0.66038539E+03</pdfrwt>
<totfact> 0.41028384E+00</totfact>
</mgrwt>
</event>
<event>
 5    1  0.2381755E-004  0.6398685E+03  0.7818608E-02  0.9825978E-01
         13   -1    0    0    0    0  0.00000000000E+00  0.00000000000E+00  0.10000000000E+04  0.10000000000E+04  0.00000000000E+00 0. -1.
          2   -1    0    0  501    0 -0.00000000000E+00 -0.00000000000E+00 -0.10235792864E+03  0.10235792864E+03  0.00000000000E+00 0. -1.
    9000006    2    1    2  501    0  0.00000000000E+00  0.00000000000E+00  0.89764207136E+03  0.11023579286E+04  0.63986851350E+03 0.  0.
         13    1    3    3    0    0 -0.14149585453E+02  0.74584364148E+02  0.98425876136E+03  0.98718202347E+03  0.00000000000E+00 0. -1.
          2    1    3    3  501    0  0.14149585453E+02 -0.74584364148E+02 -0.86616690007E+02  0.11517590517E+03  0.00000000000E+00 0. -1.
<mgrwt>
<rscale>  0 0.63986851E+03</rscale>
<asrwt>0</asrwt>
<pdfrwt beam="1">0</pdfrwt>
<pdfrwt beam="2">  1        2 0.37221143E+00 0.63986851E+03</pdfrwt>
<totfact> 0.50533741E+00</totfact>
</mgrwt>
</event>
<event>
 5    1  0.2381755E-004  0.6511124E+03  0.7818608E-02  0.9804694E-01
         13   -1    0    0    0    0  0.00000000000E+00  0.00000000000E+00  0.10000000000E+04  0.10000000000E+04  0.00000000000E+00 0. -1.
          2   -1    0    0  501    0 -0.00000000000E+00 -0.00000000000E+00 -0.10598685172E+03  0.10598685172E+03  0.00000000000E+00 0. -1.
    9000006    2    1    2  501    0  0.00000000000E+00  0.00000000000E+00  0.89401314828E+03  0.11059868517E+04  0.65111243799E+03 0.  0.
         13    1    3    3    0    0  0.15969209144E+03 -0.17981760838E+03  0.81973820215E+03  0.85428722126E+03  0.00000000000E+00 0. -1.
          2    1    3    3  501    0 -0.15969209144E+03  0.17981760838E+03  0.74274946127E+02  0.25169963046E+03  0.00000000000E+00 0. -1.
<mgrwt>
<rscale>  0 0.65111244E+03</rscale>
<asrwt>0</asrwt>
<pdfrwt beam="1">0</pdfrwt>
<pdfrwt beam="2">  1        2 0.38540755E+00 0.65111244E+03</pdfrwt>
<totfact> 0.45139455E+00</totfact>
</mgrwt>
</event>
<event>
 5    1  0.2381755E-004  0.6344000E+03  0.7818608E-02  0.9836500E-01
         13   -1    0    0    0    0  0.00000000000E+00  0.00000000000E+00  0.10000000000E+04  0.10000000000E+04  0.00000000000E+00 0. -1.
          2   -1    0    0  501    0 -0.00000000000E+00 -0.00000000000E+00 -0.10061582984E+03  0.10061582984E+03  0.00000000000E+00 0. -1.
    9000006    2    1    2  501    0  0.00000000000E+00  0.00000000000E+00  0.89938417016E+03  0.11006158298E+04  0.63439996797E+03 0.  0.
         13    1    3    3    0    0 -0.11664477353E+03 -0.12186628870E+03 -0.16340359953E+02  0.16948275097E+03  0.00000000000E+00 0. -1.
          4    1    3    3  501    0  0.11664477353E+03  0.12186628870E+03  0.91572453011E+03  0.93113307887E+03  0.00000000000E+00 0. -1.
<mgrwt>
<rscale>  0 0.63439997E+03</rscale>
<asrwt>0</asrwt>
<pdfrwt beam="1">0</pdfrwt>
<pdfrwt beam="2">  1        2 0.36587652E+00 0.63439997E+03</pdfrwt>
<totfact> 0.53327273E+00</totfact>
</mgrwt>
</event>
<event>
 5    1  0.2381755E-004  0.6480123E+03  0.7818608E-02  0.9810516E-01
         13   -1    0    0    0    0  0.00000000000E+00  0.00000000000E+00  0.10000000000E+04  0.10000000000E+04  0.00000000000E+00 0. -1.
          2   -1    0    0  501    0 -0.00000000000E+00 -0.00000000000E+00 -0.10498000055E+03  0.10498000055E+03  0.00000000000E+00 0. -1.
    9000006    2    1    2  501    0  0.00000000000E+00  0.00000000000E+00  0.89501999945E+03  0.11049800005E+04  0.64801234726E+03 0.  0.
         13    1    3    3    0    0  0.28726100941E+03  0.13705016146E+03  0.34409140739E+03  0.46872223216E+03  0.00000000000E+00 0. -1.
          4    1    3    3  501    0 -0.28726100941E+03 -0.13705016146E+03  0.55092859206E+03  0.63625776839E+03  0.00000000000E+00 0. -1.
<mgrwt>
<rscale>  0 0.64801235E+03</rscale>
<asrwt>0</asrwt>
<pdfrwt beam="1">0</pdfrwt>
<pdfrwt beam="2">  1        2 0.38174626E+00 0.64801235E+03</pdfrwt>
<totfact> 0.46580914E+00</totfact>
</mgrwt>
</event>
<event>
 5    1  0.2381755E-004  0.6544949E+03  0.7818608E-02  0.9798381E-01
         13   -1    0    0    0    0  0.00000000000E+00  0.00000000000E+00  0.10000000000E+04  0.10000000000E+04  0.00000000000E+00 0. -1.
          2   -1    0    0  501    0 -0.00000000000E+00 -0.00000000000E+00 -0.10709090368E+03  0.10709090368E+03  0.00000000000E+00 0. -1.
    9000006    2    1    2  501    0  0.00000000000E+00  0.00000000000E+00  0.89290909632E+03  0.11070909037E+04  0.65449493100E+03 0.  0.
         13    1    3    3    0    0  0.18505885395E+03  0.26749134623E+03  0.50726705887E+03  0.60259295445E+03  0.00000000000E+00 0. -1.
          2    1    3    3  501    0 -0.18505885395E+03 -0.26749134623E+03  0.38564203745E+03  0.50449794923E+03  0.00000000000E+00 0. -1.
<mgrwt>
<rscale>  0 0.65449493E+03</rscale>
<asrwt>0</asrwt>
<pdfrwt beam="1">0</pdfrwt>
<pdfrwt beam="2">  1        2 0.38942229E+00 0.65449493E+03</pdfrwt>
<totfact> 0.43605411E+00</totfact>
</mgrwt>
</event>
<event>
 5    1  0.2381755E-004  0.6460461E+03  0.7818608E-02  0.9814227E-01
         13   -1    0    0    0    0  0.00000000000E+00  0.00000000000E+00  0.10000000000E+04  0.10000000000E+04  0.00000000000E+00 0. -1.
          2   -1    0    0  501    0 -0.00000000000E+00 -0.00000000000E+00 -0.10434388584E+03  0.10434388584E+03  0.00000000000E+00 0. -1.
    9000006    2    1    2  501    0  0.00000000000E+00  0.00000000000E+00  0.89565611416E+03  0.11043438858E+04  0.64604608454E+03 0.  0.
         13    1    3    3    0    0  0.15623688187E+03  0.19776826628E+03  0.79319918766E+03  0.83227831986E+03  0.00000000000E+00 0. -1.
          2    1    3    3  501    0 -0.15623688187E+03 -0.19776826628E+03  0.10245692650E+03  0.27206556598E+03  0.00000000000E+00 0. -1.
<mgrwt>
<rscale>  0 0.64604608E+03</rscale>
<asrwt>0</asrwt>
<pdfrwt beam="1">0</pdfrwt>
<pdfrwt beam="2">  1        2 0.37943311E+00 0.64604608E+03</pdfrwt>
<totfact> 0.47513036E+00</totfact>
</mgrwt>
</event>
<event>
 5    1  0.2381755E-004  0.6435573E+03  0.7818608E-02  0.9818944E-01
         13   -1    0    0    0    0  0.00000000000E+00  0.00000000000E+00  0.10000000000E+04  0.10000000000E+04  0.00000000000E+00 0. -1.
          2   -1    0    0  501    0 -0.00000000000E+00 -0.00000000000E+00 -0.10354150046E+03  0.10354150046E+03  0.00000000000E+00 0. -1.
    9000006    2    1    2  501    0  0.00000000000E+00  0.00000000000E+00  0.89645849954E+03  0.11035415005E+04  0.64355730269E+03 0.  0.
         13    1    3    3    0    0 -0.38369703848E+02 -0.23186082760E+03  0.82512320328E+03  0.85793937905E+03  0.00000000000E+00 0. -1.
          4    1    3    3  501    0  0.38369703848E+02  0.23186082760E+03  0.71335296261E+02  0.24560212141E+03  0.00000000000E+00 0. -1.
<mgrwt>
<rscale>  0 0.64355730E+03</rscale>
<asrwt>0</asrwt>
<pdfrwt beam="1">0</pdfrwt>
<pdfrwt beam="2">  1        2 0.37651534E+00 0.64355730E+03</pdfrwt>
<totfact> 0.48713015E+00</totfact>
</mgrwt>
</event>
<event>
 5    1  0.2381755E-004  0.6496225E+03  0.7818608E-02  0.9807488E-01
         13   -1    0    0    0    0  0.00000000000E+00  0.00000000000E+00  0.10000000000E+04  0.10000000000E+04  0.00000000000E+00 0. -1.
          2   -1    0    0  501    0 -0.00000000000E+00 -0.00000000000E+00 -0.10550235816E+03  0.10550235816E+03  0.00000000000E+00 0. -1.
    9000006    2    1    2  501    0  0.00000000000E+00  0.00000000000E+00  0.89449764184E+03  0.11055023582E+04  0.64962253090E+03 0.  0.
         13    1    3    3    0    0 -0.20617587456E+01 -0.22819789363E+03  0.53910645784E+02  0.23448856526E+03  0.00000000000E+00 0. -1.
          2    1    3    3  501    0  0.20617587456E+01  0.22819789363E+03  0.84058699605E+03  0.87101379291E+03  0.00000000000E+00 0. -1.
<mgrwt>
<rscale>  0 0.64962253E+03</rscale>
<asrwt>0</asrwt>
<pdfrwt beam="1">0</pdfrwt>
<pdfrwt beam="2">  1        2 0.38364575E+00 0.64962253E+03</pdfrwt>
<totfact> 0.45827948E+00</totfact>
</mgrwt>
</event>
<event>
 5    1  0.2381755E-004  0.6521728E+03  0.7818608E-02  0.9802711E-01
         13   -1    0    0    0    0  0.00000000000E+00  0.00000000000E+00  0.10000000000E+04  0.10000000000E+04  0.00000000000E+00 0. -1.
          2   -1    0    0  501    0 -0.00000000000E+00 -0.00000000000E+00 -0.10633235539E+03  0.10633235539E+03  0.00000000000E+00 0. -1.
    9000006    2    1    2  501    0  0.00000000000E+00  0.00000000000E+00  0.89366764461E+03  0.11063323554E+04  0.65217284638E+03 0.  0.
         13    1    3    3    0    0  0.26960066871E+03  0.43657651236E+02  0.74906480249E+03  0.79730081488E+03  0.00000000000E+00 0. -1.
          4    1    3    3  501    0 -0.26960066871E+03 -0.43657651236E+02  0.14460284212E+03  0.30903154051E+03  0.00000000000E+00 0. -1.
<mgrwt>
<rscale>  0 0.65217285E+03</rscale>
<asrwt>0</asrwt>
<pdfrwt beam="1">0</pdfrwt>
<pdfrwt beam="2">  1        2 0.38666393E+00 0.65217285E+03</pdfrwt>
<totfact> 0.44654218E+00</totfact>
</mgrwt>
</event>
<event>
 5    1  0.2381755E-004  0.6452422E+03  0.7818608E-02  0.9815748E-01
         13   -1    0    0    0    0  0.00000000000E+00  0.00000000000E+00  0.10000000000E+04  0.10000000000E+04  0.00000000000E+00 0. -1.
          2   -1    0    0  501    0 -0.00000000000E+00 -0.00000000000E+00 -0.10408437197E+03  0.10408437197E+03  0.00000000000E+00 0. -1.
    9000006    2    1    2  501    0  0.00000000000E+00  0.00000000000E+00  0.89591562803E+03  0.11040843720E+04  0.64524219319E+03 0.  0.
         13    1    3    3    0    0 -0.21735901155E+03  0.61236200852E+02  0.53696589937E+02  0.23211664302E+03  0.00000000000E+00 0. -1.
          4    1    3    3  501    0  0.21735901155E+03 -0.61236200852E+02  0.84221903809E+03  0.87196772895E+03  0.00000000000E+00 0. -1.
<mgrwt>
<rscale>  0 0.64524219E+03</rscale>
<asrwt>0</asrwt>
<pdfrwt beam="1">0</pdfrwt>
<pdfrwt beam="2">  1        2 0.37848942E+00 0.64524219E+03</pdfrwt>
<totfact> 0.47898162E+00</totfact>
</mgrwt>
</event>
<event>
 5    1  0.2381755E-004  0.6198556E+03  0.7818608E-02  0.9865047E-01
         13   -1    0    0    0    0  0.00000000000E+00  0.00000000000E+00  0.10000000000E+04  0.10000000000E+04  0.00000000000E+00 0. -1.
          2   -1    0    0  501    0 -0.00000000000E+00 -0.00000000000E+00 -0.96055254771E+02  0.96055254771E+02  0.00000000000E+00 0. -1.
    9000006    2    1    2  501    0  0.00000000000E+00  0.00000000000E+00  0.90394474523E+03  0.10960552548E+04  0.61985564375E+03 0.  0.
         13    1    3    3    0    0  0.28028218174E+03  0.13223140629E+03  0.45809993058E+03  0.55308118084E+03  0.00000000000E+00 0. -1.
          2    1    3    3  501    0 -0.28028218174E+03 -0.13223140629E+03  0.44584481465E+03  0.54297407393E+03  0.00000000000E+00 0. -1.
<mgrwt>
<rscale>  0 0.61985564E+03</rscale>
<asrwt>0</asrwt>
<pdfrwt beam="1">0</pdfrwt>
<pdfrwt beam="2">  1        2 0.34929257E+00 0.61985564E+03</pdfrwt>
<totfact> 0.61328961E+00</totfact>
</mgrwt>
</event>
<event>
 5    1  0.2381755E-004  0.6284217E+03  0.7818608E-02  0.9848134E-01
         13   -1    0    0    0    0  0.00000000000E+00  0.00000000000E+00  0.10000000000E+04  0.10000000000E+04  0.00000000000E+00 0. -1.
          2   -1    0    0  501    0 -0.00000000000E+00 -0.00000000000E+00 -0.98728449356E+02  0.98728449356E+02  0.00000000000E+00 0. -1.
    9000006    2    1    2  501    0  0.00000000000E+00  0.00000000000E+00  0.90127155064E+03  0.10987284494E+04  0.62842167167E+03 0.  0.
         13    1    3    3    0    0  0.20864399856E+03  0.50587312752E+02  0.49505900805E+02  0.22032300960E+03  0.00000000000E+00 0. -1.
          2    1    3    3  501    0 -0.20864399856E+03 -0.50587312752E+02  0.85176564984E+03  0.87840543975E+03  0.00000000000E+00 0. -1.
<mgrwt>
<rscale>  0 0.62842167E+03</rscale>
<asrwt>0</asrwt>
<pdfrwt beam="1">0</pdfrwt>
<pdfrwt beam="2">  1        2 0.35901330E+00 0.62842167E+03</pdfrwt>
<totfact> 0.56513535E+00</totfact>
</mgrwt>
</event>
<event>
 5    1  0.2381755E-004  0.6622671E+03  0.7818608E-02  0.9784029E-01
         13   -1    0    0    0    0  0.00000000000E+00  0.00000000000E+00  0.10000000000E+04  0.10000000000E+04  0.00000000000E+00 0. -1.
          2   -1    0    0  501    0 -0.00000000000E+00 -0.00000000000E+00 -0.10964943803E+03  0.10964943803E+03  0.00000000000E+00 0. -1.
    9000006    2    1    2  501    0  0.00000000000E+00  0.00000000000E+00  0.89035056197E+03  0.11096494380E+04  0.66226713048E+03 0.  0.
         13    1    3    3    0    0 -0.30225281567E+03  0.13451359690E+03  0.46879764264E+03  0.57377861766E+03  0.00000000000E+00 0. -1.
          2    1    3    3  501    0  0.30225281567E+03 -0.13451359690E+03  0.42155291933E+03  0.53587082037E+03  0.00000000000E+00 0. -1.
<mgrwt>
<rscale>  0 0.66226713E+03</rscale>
<asrwt>0</asrwt>
<pdfrwt beam="1">0</pdfrwt>
<pdfrwt beam="2">  1        2 0.39872607E+00 0.66226713E+03</pdfrwt>
<totfact> 0.40229942E+00</totfact>
</mgrwt>
</event>
<event>
 5    1  0.2381755E-004  0.6506545E+03  0.7818608E-02  0.9805552E-01
         13   -1    0    0    0    0  0.00000000000E+00  0.00000000000E+00  0.10000000000E+04  0.10000000000E+04  0.00000000000E+00 0. -1.
          2   -1    0    0  501    0 -0.00000000000E+00 -0.00000000000E+00 -0.10583782798E+03  0.10583782798E+03  0.00000000000E+00 0. -1.
    9000006    2    1    2  501    0  0.00000000000E+00  0.00000000000E+00  0.89416217202E+03  0.11058378280E+04  0.65065452578E+03 0.  0.
         13    1    3    3    0    0  0.81074446360E+02 -0.12113208497E+03  0.94139754267E+03  0.95261502256E+03  0.00000000000E+00 0. -1.
          4    1    3    3  501    0 -0.81074446360E+02  0.12113208497E+03 -0.47235370645E+02  0.15322280542E+03  0.00000000000E+00 0. -1.
<mgrwt>
<rscale>  0 0.65065453E+03</rscale>
<asrwt>0</asrwt>
<pdfrwt beam="1">0</pdfrwt>
<pdfrwt beam="2">  1        2 0.38486564E+00 0.65065453E+03</pdfrwt>
<totfact> 0.45350221E+00</totfact>
</mgrwt>
</event>
<event>
 5    1  0.2381755E-004  0.6568026E+03  0.7818608E-02  0.9794098E-01
         13   -1    0    0    0    0  0.00000000000E+00  0.00000000000E+00  0.10000000000E+04  0.10000000000E+04  0.00000000000E+00 0. -1.
          2   -1    0    0  501    0 -0.00000000000E+00 -0.00000000000E+00 -0.10784741828E+03  0.10784741828E+03  0.00000000000E+00 0. -1.
    9000006    2    1    2  501    0  0.00000000000E+00  0.00000000000E+00  0.89215258172E+03  0.11078474183E+04  0.65680261350E+03 0.  0.
         13    1    3    3    0    0  0.30623450060E+03  0.72049655725E+02  0.28715914672E+03  0.42594729462E+03  0.00000000000E+00 0. -1.
          4    1    3    3  501    0 -0.30623450060E+03 -0.72049655725E+02  0.60499343500E+03  0.68190012366E+03  0.00000000000E+00 0. -1.
<mgrwt>
<rscale>  0 0.65680261E+03</rscale>
<asrwt>0</asrwt>
<pdfrwt beam="1">0</pdfrwt>
<pdfrwt beam="2">  1        2 0.39217326E+00 0.65680261E+03</pdfrwt>
<totfact> 0.42581649E+00</totfact>
</mgrwt>
</event>
<event>
 5    1  0.2381755E-004  0.6659865E+03  0.7818608E-02  0.9777236E-01
         13   -1    0    0    0    0  0.00000000000E+00  0.00000000000E+00  0.10000000000E+04  0.10000000000E+04  0.00000000000E+00 0. -1.
          2   -1    0    0  501    0 -0.00000000000E+00 -0.00000000000E+00 -0.11088449344E+03  0.11088449344E+03  0.00000000000E+00 0. -1.
    9000006    2    1    2  501    0  0.00000000000E+00  0.00000000000E+00  0.88911550656E+03  0.11108844934E+04  0.66598646665E+03 0.  0.
         13    1    3    3    0    0 -0.29055799730E+03 -0.49141028053E+02  0.70321356436E+03  0.76246187284E+03  0.00000000000E+00 0. -1.
          2    1    3    3  501    0  0.29055799730E+03  0.49141028053E+02  0.18590194220E+03  0.34842262060E+03  0.00000000000E+00 0. -1.
<mgrwt>
<rscale>  0 0.66598647E+03</rscale>
<asrwt>0</asrwt>
<pdfrwt beam="1">0</pdfrwt>
<pdfrwt beam="2">  1        2 0.40321719E+00 0.66598647E+03</pdfrwt>
<totfact> 0.38686325E+00</totfact>
</mgrwt>
</event>
<event>
 5    1  0.2381755E-004  0.6585218E+03  0.7818608E-02  0.9790919E-01
         13   -1    0    0    0    0  0.00000000000E+00  0.00000000000E+00  0.10000000000E+04  0.10000000000E+04  0.00000000000E+00 0. -1.
          2   -1    0    0  501    0 -0.00000000000E+00 -0.00000000000E+00 -0.10841274009E+03  0.10841274009E+03  0.00000000000E+00 0. -1.
    9000006    2    1    2  501    0  0.00000000000E+00  0.00000000000E+00  0.89158725991E+03  0.11084127401E+04  0.65852179947E+03 0.  0.
         13    1    3    3    0    0  0.20637394010E+03 -0.20898065985E+03  0.69629753475E+03  0.75570720272E+03  0.00000000000E+00 0. -1.
          4    1    3    3  501    0 -0.20637394010E+03  0.20898065985E+03  0.19528972515E+03  0.35270553737E+03  0.00000000000E+00 0. -1.
<mgrwt>
<rscale>  0 0.65852180E+03</rscale>
<asrwt>0</asrwt>
<pdfrwt beam="1">0</pdfrwt>
<pdfrwt beam="2">  1        2 0.39422898E+00 0.65852180E+03</pdfrwt>
<totfact> 0.41830852E+00</totfact>
</mgrwt>
</event>
<event>
 5    1  0.2381755E-004  0.6447723E+03  0.7818608E-02  0.9816638E-01
         13   -1    0    0    0    0  0.00000000000E+00  0.00000000000E+00  0.10000000000E+04  0.10000000000E+04  0.00000000000E+00 0. -1.
          2   -1    0    0  501    0 -0.00000000000E+00 -0.00000000000E+00 -0.10393283514E+03  0.10393283514E+03  0.00000000000E+00 0. -1.
    9000006    2    1    2  501    0  0.00000000000E+00  0.00000000000E+00  0.89606716486E+03  0.11039328351E+04  0.64477231683E+03 0.  0.
         13    1    3    3    0    0 -0.21155445141E+03 -0.27640601666E+01  0.31560708672E+02  0.21391354392E+03  0.00000000000E+00 0. -1.
          2    1    3    3  501    0  0.21155445141E+03  0.27640601666E+01  0.86450645619E+03  0.89001929122E+03  0.00000000000E+00 0. -1.
<mgrwt>
<rscale>  0 0.64477232E+03</rscale>
<asrwt>0</asrwt>
<pdfrwt beam="1">0</pdfrwt>
<pdfrwt beam="2">  1        2 0.37793838E+00 0.64477232E+03</pdfrwt>
<totfact> 0.48124360E+00</totfact>
</mgrwt>
</event>
<event>
 5    1  0.2381755E-004  0.6358180E+03  0.7818608E-02  0.9833761E-01
         13   -1    0    0    0    0  0.00000000000E+00  0.00000000000E+00  0.10000000000E+04  0.10000000000E+04  0.00000000000E+00 0. -1.
          2   -1    0    0  501    0 -0.00000000000E+00 -0.00000000000E+00 -0.10106612494E+03  0.10106612494E+03  0.00000000000E+00 0. -1.
    9000006    2    1    2  501    0  0.00000000000E+00  0.00000000000E+00  0.89893387506E+03  0.11010661249E+04  0.63581797690E+03 0.  0.
         13    1    3    3    0    0 -0.59678469423E+02 -0.14509685931E+03 -0.29354540501E+02  0.15961299240E+03  0.00000000000E+00 0. -1.
          4    1    3    3  501    0  0.59678469423E+02  0.14509685931E+03  0.92828841556E+03  0.94145313254E+03  0.00000000000E+00 0. -1.
<mgrwt>
<rscale>  0 0.63581798E+03</rscale>
<asrwt>0</asrwt>
<pdfrwt beam="1">0</pdfrwt>
<pdfrwt beam="2">  1        2 0.36751396E+00 0.63581798E+03</pdfrwt>
<totfact> 0.52591940E+00</totfact>
</mgrwt>
</event>
<event>
 5    1  0.2381755E-004  0.6507601E+03  0.7818608E-02  0.9805354E-01
         13   -1    0    0    0    0  0.00000000000E+00  0.00000000000E+00  0.10000000000E+04  0.10000000000E+04  0.00000000000E+00 0. -1.
          2   -1    0    0  501    0 -0.00000000000E+00 -0.00000000000E+00 -0.10587216694E+03  0.10587216694E+03  0.00000000000E+00 0. -1.
    9000006    2    1    2  501    0  0.00000000000E+00  0.00000000000E+00  0.89412783306E+03  0.11058721669E+04  0.65076006928E+03 0.  0.
         13    1    3    3    0    0  0.29912495229E+03  0.27558800015E+02  0.65956441308E+03  0.72474853539E+03  0.00000000000E+00 0. -1.
          2    1    3    3  501    0 -0.29912495229E+03 -0.27558800015E+02  0.23456341997E+03  0.38112363156E+03  0.00000000000E+00 0. -1.
<mgrwt>
<rscale>  0 0.65076007E+03</rscale>
<asrwt>0</asrwt>
<pdfrwt beam="1">0</pdfrwt>
<pdfrwt beam="2">  1        2 0.38499051E+00 0.65076007E+03</pdfrwt>
<totfact> 0.45301576E+00</totfact>
</mgrwt>
</event>
<event>
 5    1  0.2381755E-004  0.6495122E+03  0.7818608E-02  0.9807695E-01
         13   -1    0    0    0    0  0.00000000000E+00  0.00000000000E+00  0.10000000000E+04  0.10000000000E+04  0.00000000000E+00 0. -1.
          2   -1    0    0  501    0 -0.00000000000E+00 -0.00000000000E+00 -0.10546651057E+03  0.10546651057E+03  0.00000000000E+00 0. -1.
    9000006    2    1    2  501    0  0.00000000000E+00  0.00000000000E+00  0.89453348943E+03  0.11054665106E+04  0.64951215715E+03 0.  0.
         13    1    3    3    0    0  0.31895530046E+02 -0.22526037425E+03  0.84170002283E+03  0.87190509201E+03  0.00000000000E+00 0. -1.
          2    1    3    3  501    0 -0.31895530046E+02  0.22526037425E+03  0.52833466602E+02  0.23356141856E+03  0.00000000000E+00 0. -1.
<mgrwt>
<rscale>  0 0.64951216E+03</rscale>
<asrwt>0</asrwt>
<pdfrwt beam="1">0</pdfrwt>
<pdfrwt beam="2">  1        2 0.38351539E+00 0.64951216E+03</pdfrwt>
<totfact> 0.45879266E+00</totfact>
</mgrwt>
</event>
<event>
 5    1  0.2381755E-004  0.6494017E+03  0.7818608E-02  0.9807902E-01
         13   -1    0    0    0    0  0.00000000000E+00  0.00000000000E+00  0.10000000000E+04  0.10000000000E+04  0.00000000000E+00 0. -1.
          2   -1    0    0  501    0 -0.00000000000E+00 -0.00000000000E+00 -0.10543064516E+03  0.10543064516E+03  0.00000000000E+00 0. -1.
    9000006    2    1    2  501    0  0.00000000000E+00  0.00000000000E+00  0.89456935484E+03  0.11054306452E+04  0.64940170977E+03 0.  0.
         13    1    3    3    0    0  0.29956084108E+02  0.80800692586E+02  0.98017905633E+03  0.98395990841E+03  0.00000000000E+00 0. -1.
          2    1    3    3  501    0 -0.29956084108E+02 -0.80800692586E+02 -0.85609701490E+02  0.12147073675E+03  0.00000000000E+00 0. -1.
<mgrwt>
<rscale>  0 0.64940171E+03</rscale>
<asrwt>0</asrwt>
<pdfrwt beam="1">0</pdfrwt>
<pdfrwt beam="2">  1        2 0.38338497E+00 0.64940171E+03</pdfrwt>
<totfact> 0.45930662E+00</totfact>
</mgrwt>
</event>
<event>
 5    1  0.2381755E-004  0.6506058E+03  0.7818608E-02  0.9805643E-01
         13   -1    0    0    0    0  0.00000000000E+00  0.00000000000E+00  0.10000000000E+04  0.10000000000E+04  0.00000000000E+00 0. -1.
          2   -1    0    0  501    0 -0.00000000000E+00 -0.00000000000E+00 -0.10582197582E+03  0.10582197582E+03  0.00000000000E+00 0. -1.
    9000006    2    1    2  501    0  0.00000000000E+00  0.00000000000E+00  0.89417802418E+03  0.11058219758E+04  0.65060579714E+03 0.  0.
         13    1    3    3    0    0  0.78626214855E+01 -0.23897788565E+03  0.82198214323E+03  0.85605309090E+03  0.00000000000E+00 0. -1.
          4    1    3    3  501    0 -0.78626214855E+01  0.23897788565E+03  0.72195880946E+02  0.24976888492E+03  0.00000000000E+00 0. -1.
<mgrwt>
<rscale>  0 0.65060580E+03</rscale>
<asrwt>0</asrwt>
<pdfrwt beam="1">0</pdfrwt>
<pdfrwt beam="2">  1        2 0.38480800E+00 0.65060580E+03</pdfrwt>
<totfact> 0.45372693E+00</totfact>
</mgrwt>
</event>
<event>
 5    1  0.2381755E-004  0.6530472E+03  0.7818608E-02  0.9801078E-01
         13   -1    0    0    0    0  0.00000000000E+00  0.00000000000E+00  0.10000000000E+04  0.10000000000E+04  0.00000000000E+00 0. -1.
          2   -1    0    0  501    0 -0.00000000000E+00 -0.00000000000E+00 -0.10661766203E+03  0.10661766203E+03  0.00000000000E+00 0. -1.
    9000006    2    1    2  501    0  0.00000000000E+00  0.00000000000E+00  0.89338233797E+03  0.11066176620E+04  0.65304720207E+03 0.  0.
         13    1    3    3    0    0 -0.66498967306E+02 -0.30421377862E+03  0.28023265210E+03  0.41892538125E+03  0.00000000000E+00 0. -1.
          2    1    3    3  501    0  0.66498967306E+02  0.30421377862E+03  0.61314968587E+03  0.68769228078E+03  0.00000000000E+00 0. -1.
<mgrwt>
<rscale>  0 0.65304720E+03</rscale>
<asrwt>0</asrwt>
<pdfrwt beam="1">0</pdfrwt>
<pdfrwt beam="2">  1        2 0.38770141E+00 0.65304720E+03</pdfrwt>
<totfact> 0.44257090E+00</totfact>
</mgrwt>
</event>
<event>
 5    1  0.2381755E-004  0.6334038E+03  0.7818608E-02  0.9838429E-01
         13   -1    0    0    0    0  0.00000000000E+00  0.00000000000E+00  0.10000000000E+04  0.10000000000E+04  0.00000000000E+00 0. -1.
          2   -1    0    0  501    0 -0.00000000000E+00 -0.00000000000E+00 -0.10030007973E+03  0.10030007973E+03  0.00000000000E+00 0. -1.
    9000006    2    1    2  501    0  0.00000000000E+00  0.00000000000E+00  0.89969992027E+03  0.11003000797E+04  0.63340375664E+03 0.  0.
         13    1    3    3    0    0  0.94265618289E+02  0.22025195451E+03  0.80966150741E+03  0.84436288812E+03  0.00000000000E+00 0. -1.
          2    1    3    3  501    0 -0.94265618289E+02 -0.22025195451E+03  0.90038412859E+02  0.25593719161E+03  0.00000000000E+00 0. -1.
<mgrwt>
<rscale>  0 0.63340376E+03</rscale>
<asrwt>0</asrwt>
<pdfrwt beam="1">0</pdfrwt>
<pdfrwt beam="2">  1        2 0.36472833E+00 0.63340376E+03</pdfrwt>
<totfact> 0.53848518E+00</totfact>
</mgrwt>
</event>
<event>
 5    1  0.2381755E-004  0.6466788E+03  0.7818608E-02  0.9813031E-01
         13   -1    0    0    0    0  0.00000000000E+00  0.00000000000E+00  0.10000000000E+04  0.10000000000E+04  0.00000000000E+00 0. -1.
          2   -1    0    0  501    0 -0.00000000000E+00 -0.00000000000E+00 -0.10454836573E+03  0.10454836573E+03  0.00000000000E+00 0. -1.
    9000006    2    1    2  501    0  0.00000000000E+00  0.00000000000E+00  0.89545163427E+03  0.11045483657E+04  0.64667879423E+03 0.  0.
         13    1    3    3    0    0  0.23567901409E+03  0.27871789880E+02  0.82282052093E+03  0.85636151479E+03  0.00000000000E+00 0. -1.
          4    1    3    3  501    0 -0.23567901409E+03 -0.27871789880E+02  0.72631113348E+02  0.24818685094E+03  0.00000000000E+00 0. -1.
<mgrwt>
<rscale>  0 0.64667879E+03</rscale>
<asrwt>0</asrwt>
<pdfrwt beam="1">0</pdfrwt>
<pdfrwt beam="2">  1        2 0.38017668E+00 0.64667879E+03</pdfrwt>
<totfact> 0.47211570E+00</totfact>
</mgrwt>
</event>
<event>
 5    1  0.2381755E-004  0.6597581E+03  0.7818608E-02  0.9788639E-01
         13   -1    0    0    0    0  0.00000000000E+00  0.00000000000E+00  0.10000000000E+04  0.10000000000E+04  0.00000000000E+00 0. -1.
          2   -1    0    0  501    0 -0.00000000000E+00 -0.00000000000E+00 -0.10882017209E+03  0.10882017209E+03  0.00000000000E+00 0. -1.
    9000006    2    1    2  501    0  0.00000000000E+00  0.00000000000E+00  0.89117982791E+03  0.11088201721E+04  0.65975805290E+03 0.  0.
         13    1    3    3    0    0  0.88438091277E+02 -0.15170190338E+03  0.91492507826E+03  0.93162366989E+03  0.00000000000E+00 0. -1.
          4    1    3    3  501    0 -0.88438091277E+02  0.15170190338E+03 -0.23745250350E+02  0.17719650220E+03  0.00000000000E+00 0. -1.
<mgrwt>
<rscale>  0 0.65975805E+03</rscale>
<asrwt>0</asrwt>
<pdfrwt beam="1">0</pdfrwt>
<pdfrwt beam="2">  1        2 0.39571055E+00 0.65975805E+03</pdfrwt>
<totfact> 0.41297207E+00</totfact>
</mgrwt>
</event>
<event>
 5    1  0.2381755E-004  0.6171877E+03  0.7818608E-02  0.9870375E-01
         13   -1    0    0    0    0  0.00000000000E+00  0.00000000000E+00  0.10000000000E+04  0.10000000000E+04  0.00000000000E+00 0. -1.
          2   -1    0    0  501    0 -0.00000000000E+00 -0.00000000000E+00 -0.95230154980E+02  0.95230154980E+02  0.00000000000E+00 0. -1.
    9000006    2    1    2  501    0  0.00000000000E+00  0.00000000000E+00  0.90476984502E+03  0.10952301550E+04  0.61718766994E+03 0.  0.
         13    1    3    3    0    0  0.14297195512E+03  0.13215619323E+03  0.27514913878E+02  0.19662988035E+03  0.00000000000E+00 0. -1.
          4    1    3    3  501    0 -0.14297195512E+03 -0.13215619323E+03  0.87725493114E+03  0.89860027463E+03  0.00000000000E+00 0. -1.
<mgrwt>
<rscale>  0 0.61718767E+03</rscale>
<asrwt>0</asrwt>
<pdfrwt beam="1">0</pdfrwt>
<pdfrwt beam="2">  1        2 0.34629220E+00 0.61718767E+03</pdfrwt>
<totfact> 0.62890685E+00</totfact>
</mgrwt>
</event>
<event>
 5    1  0.2381755E-004  0.6482140E+03  0.7818608E-02  0.9810136E-01
         13   -1    0    0    0    0  0.00000000000E+00  0.00000000000E+00  0.10000000000E+04  0.10000000000E+04  0.00000000000E+00 0. -1.
          2   -1    0    0  501    0 -0.00000000000E+00 -0.00000000000E+00 -0.10504535822E+03  0.10504535822E+03  0.00000000000E+00 0. -1.
    9000006    2    1    2  501    0  0.00000000000E+00  0.00000000000E+00  0.89495464178E+03  0.11050453582E+04  0.64821403325E+03 0.  0.
         13    1    3    3    0    0 -0.42350335262E+02  0.11337932368E+02 -0.99967044020E+02  0.10915818566E+03  0.00000000000E+00 0. -1.
          2    1    3    3  501    0  0.42350335262E+02 -0.11337932368E+02  0.99492168580E+03  0.99588717256E+03  0.00000000000E+00 0. -1.
<mgrwt>
<rscale>  0 0.64821403E+03</rscale>
<asrwt>0</asrwt>
<pdfrwt beam="1">0</pdfrwt>
<pdfrwt beam="2">  1        2 0.38198393E+00 0.64821403E+03</pdfrwt>
<totfact> 0.46486092E+00</totfact>
</mgrwt>
</event>
<event>
 5    1  0.2381755E-004  0.6501096E+03  0.7818608E-02  0.9806574E-01
         13   -1    0    0    0    0  0.00000000000E+00  0.00000000000E+00  0.10000000000E+04  0.10000000000E+04  0.00000000000E+00 0. -1.
          2   -1    0    0  501    0 -0.00000000000E+00 -0.00000000000E+00 -0.10566061508E+03  0.10566061508E+03  0.00000000000E+00 0. -1.
    9000006    2    1    2  501    0  0.00000000000E+00  0.00000000000E+00  0.89433938492E+03  0.11056606151E+04  0.65010957564E+03 0.  0.
         13    1    3    3    0    0  0.99433281836E+02 -0.21846982610E+02 -0.77847352452E+02  0.12815802148E+03  0.00000000000E+00 0. -1.
          4    1    3    3  501    0 -0.99433281836E+02  0.21846982610E+02  0.97218673737E+03  0.97750259360E+03  0.00000000000E+00 0. -1.
<mgrwt>
<rscale>  0 0.65010958E+03</rscale>
<asrwt>0</asrwt>
<pdfrwt beam="1">0</pdfrwt>
<pdfrwt beam="2">  1        2 0.38422123E+00 0.65010958E+03</pdfrwt>
<totfact> 0.45602016E+00</totfact>
</mgrwt>
</event>
<event>
 5    1  0.2381755E-004  0.6011467E+03  0.7818608E-02  0.9903030E-01
         13   -1    0    0    0    0  0.00000000000E+00  0.00000000000E+00  0.10000000000E+04  0.10000000000E+04  0.00000000000E+00 0. -1.
          2   -1    0    0  501    0 -0.00000000000E+00 -0.00000000000E+00 -0.90344330112E+02  0.90344330112E+02  0.00000000000E+00 0. -1.
    9000006    2    1    2  501    0  0.00000000000E+00  0.00000000000E+00  0.90965566989E+03  0.10903443301E+04  0.60114667133E+03 0.  0.
         13    1    3    3    0    0 -0.41408998793E+02  0.11725872716E+03 -0.41497205519E+02  0.13109665267E+03  0.00000000000E+00 0. -1.
          2    1    3    3  501    0  0.41408998793E+02 -0.11725872716E+03  0.95115287541E+03  0.95924767744E+03  0.00000000000E+00 0. -1.
<mgrwt>
<rscale>  0 0.60114667E+03</rscale>
<asrwt>0</asrwt>
<pdfrwt beam="1">0</pdfrwt>
<pdfrwt beam="2">  1        2 0.32852553E+00 0.60114667E+03</pdfrwt>
<totfact> 0.72931093E+00</totfact>
</mgrwt>
</event>
<event>
 5    1  0.2381755E-004  0.6586073E+03  0.7818608E-02  0.9790761E-01
         13   -1    0    0    0    0  0.00000000000E+00  0.00000000000E+00  0.10000000000E+04  0.10000000000E+04  0.00000000000E+00 0. -1.
          2   -1    0    0  501    0 -0.00000000000E+00 -0.00000000000E+00 -0.10844089195E+03  0.10844089195E+03  0.00000000000E+00 0. -1.
    9000006    2    1    2  501    0  0.00000000000E+00  0.00000000000E+00  0.89155910805E+03  0.11084408920E+04  0.65860729408E+03 0.  0.
         13    1    3    3    0    0  0.22058929682E+03 -0.83306979163E+02  0.83265604861E+03  0.86539920611E+03  0.00000000000E+00 0. -1.
          4    1    3    3  501    0 -0.22058929682E+03  0.83306979163E+02  0.58903059438E+02  0.24304168584E+03  0.00000000000E+00 0. -1.
<mgrwt>
<rscale>  0 0.65860729E+03</rscale>
<asrwt>0</asrwt>
<pdfrwt beam="1">0</pdfrwt>
<pdfrwt beam="2">  1        2 0.39433135E+00 0.65860729E+03</pdfrwt>
<totfact> 0.41793781E+00</totfact>
</mgrwt>
</event>
<event>
 5    1  0.2381755E-004  0.6311219E+03  0.7818608E-02  0.9842862E-01
         13   -1    0    0    0    0  0.00000000000E+00  0.00000000000E+00  0.10000000000E+04  0.10000000000E+04  0.00000000000E+00 0. -1.
          2   -1    0    0  501    0 -0.00000000000E+00 -0.00000000000E+00 -0.99578721315E+02  0.99578721315E+02  0.00000000000E+00 0. -1.
    9000006    2    1    2  501    0  0.00000000000E+00  0.00000000000E+00  0.90042127868E+03  0.10995787213E+04  0.63112192583E+03 0.  0.
         13    1    3    3    0    0  0.16777543683E+03  0.18247460956E+03  0.10998710788E+03  0.27118765502E+03  0.00000000000E+00 0. -1.
          4    1    3    3  501    0 -0.16777543683E+03 -0.18247460956E+03  0.79043417080E+03  0.82839106629E+03  0.00000000000E+00 0. -1.
<mgrwt>
<rscale>  0 0.63112193E+03</rscale>
<asrwt>0</asrwt>
<pdfrwt beam="1">0</pdfrwt>
<pdfrwt beam="2">  1        2 0.36210520E+00 0.63112193E+03</pdfrwt>
<totfact> 0.55056993E+00</totfact>
</mgrwt>
</event>
<event>
 5    1  0.2381755E-004  0.6496914E+03  0.7818608E-02  0.9807358E-01
         13   -1    0    0    0    0  0.00000000000E+00  0.00000000000E+00  0.10000000000E+04  0.10000000000E+04  0.00000000000E+00 0. -1.
          2   -1    0    0  501    0 -0.00000000000E+00 -0.00000000000E+00 -0.10552471727E+03  0.10552471727E+03  0.00000000000E+00 0. -1.
    9000006    2    1    2  501    0  0.00000000000E+00  0.00000000000E+00  0.89447528273E+03  0.11055247173E+04  0.64969136447E+03 0.  0.
         13    1    3    3    0    0  0.15524092057E+03  0.15782408120E+01  0.93278716657E+03  0.94561838623E+03  0.00000000000E+00 0. -1.
          4    1    3    3  501    0 -0.15524092057E+03 -0.15782408120E+01 -0.38311883833E+02  0.15990633104E+03  0.00000000000E+00 0. -1.
<mgrwt>
<rscale>  0 0.64969136E+03</rscale>
<asrwt>0</asrwt>
<pdfrwt beam="1">0</pdfrwt>
<pdfrwt beam="2">  1        2 0.38372705E+00 0.64969136E+03</pdfrwt>
<totfact> 0.45795966E+00</totfact>
</mgrwt>
</event>
<event>
 5    1  0.2381755E-004  0.6356297E+03  0.7818608E-02  0.9834124E-01
         13   -1    0    0    0    0  0.00000000000E+00  0.00000000000E+00  0.10000000000E+04  0.10000000000E+04  0.00000000000E+00 0. -1.
          2   -1    0    0  501    0 -0.00000000000E+00 -0.00000000000E+00 -0.10100629407E+03  0.10100629407E+03  0.00000000000E+00 0. -1.
    9000006    2    1    2  501    0  0.00000000000E+00  0.00000000000E+00  0.89899370593E+03  0.11010062941E+04  0.63562974778E+03 0.  0.
         13    1    3    3    0    0  0.20358842512E+03  0.20780680586E+03  0.22784671696E+03  0.36952136858E+03  0.00000000000E+00 0. -1.
          2    1    3    3  501    0 -0.20358842512E+03 -0.20780680586E+03  0.67114698897E+03  0.73148492549E+03  0.00000000000E+00 0. -1.
<mgrwt>
<rscale>  0 0.63562975E+03</rscale>
<asrwt>0</asrwt>
<pdfrwt beam="1">0</pdfrwt>
<pdfrwt beam="2">  1        2 0.36729639E+00 0.63562975E+03</pdfrwt>
<totfact> 0.52689104E+00</totfact>
</mgrwt>
</event>
<event>
 5    1  0.2381755E-004  0.6533488E+03  0.7818608E-02  0.9800516E-01
         13   -1    0    0    0    0  0.00000000000E+00  0.00000000000E+00  0.10000000000E+04  0.10000000000E+04  0.00000000000E+00 0. -1.
          2   -1    0    0  501    0 -0.00000000000E+00 -0.00000000000E+00 -0.10671617618E+03  0.10671617618E+03  0.00000000000E+00 0. -1.
    9000006    2    1    2  501    0  0.00000000000E+00  0.00000000000E+00  0.89328382382E+03  0.11067161762E+04  0.65334883846E+03 0.  0.
         13    1    3    3    0    0 -0.21360865227E+03  0.23070915679E+03  0.29645757507E+03  0.43213709071E+03  0.00000000000E+00 0. -1.
          2    1    3    3  501    0  0.21360865227E+03 -0.23070915679E+03  0.59682624875E+03  0.67457908546E+03  0.00000000000E+00 0. -1.
<mgrwt>
<rscale>  0 0.65334884E+03</rscale>
<asrwt>0</asrwt>
<pdfrwt beam="1">0</pdfrwt>
<pdfrwt beam="2">  1        2 0.38805964E+00 0.65334884E+03</pdfrwt>
<totfact> 0.44120709E+00</totfact>
</mgrwt>
</event>
<event>
 5    1  0.2381755E-004  0.6522622E+03  0.7818608E-02  0.9802544E-01
         13   -1    0    0    0    0  0.00000000000E+00  0.00000000000E+00  0.10000000000E+04  0.10000000000E+04  0.00000000000E+00 0. -1.
          2   -1    0    0  501    0 -0.00000000000E+00 -0.00000000000E+00 -0.10636148479E+03  0.10636148479E+03  0.00000000000E+00 0. -1.
    9000006    2    1    2  501    0  0.00000000000E+00  0.00000000000E+00  0.89363851521E+03  0.11063614848E+04  0.65226217058E+03 0.  0.
         13    1    3    3    0    0  0.19057292242E+02  0.16053117657E+03 -0.33619421068E+02  0.16511724474E+03  0.00000000000E+00 0. -1.
          2    1    3    3  501    0 -0.19057292242E+02 -0.16053117657E+03  0.92725793628E+03  0.94124424005E+03  0.00000000000E+00 0. -1.
<mgrwt>
<rscale>  0 0.65226217E+03</rscale>
<asrwt>0</asrwt>
<pdfrwt beam="1">0</pdfrwt>
<pdfrwt beam="2">  1        2 0.38676985E+00 0.65226217E+03</pdfrwt>
<totfact> 0.44613524E+00</totfact>
</mgrwt>
</event>
<event>
 5    1  0.2381755E-004  0.6337491E+03  0.7818608E-02  0.9837760E-01
         13   -1    0    0    0    0  0.00000000000E+00  0.00000000000E+00  0.10000000000E+04  0.10000000000E+04  0.00000000000E+00 0. -1.
          2   -1    0    0  501    0 -0.00000000000E+00 -0.00000000000E+00 -0.10040948592E+03  0.10040948592E+03  0.00000000000E+00 0. -1.
    9000006    2    1    2  501    0  0.00000000000E+00  0.00000000000E+00  0.89959051408E+03  0.11004094859E+04  0.63374911730E+03 0.  0.
         13    1    3    3    0    0 -0.25838372426E+03  0.13352072218E+03  0.66818592249E+03  0.72874025498E+03  0.00000000000E+00 0. -1.
          4    1    3    3  501    0  0.25838372426E+03 -0.13352072218E+03  0.23140459159E+03  0.37166923094E+03  0.00000000000E+00 0. -1.
<mgrwt>
<rscale>  0 0.63374912E+03</rscale>
<asrwt>0</asrwt>
<pdfrwt beam="1">0</pdfrwt>
<pdfrwt beam="2">  1        2 0.36512617E+00 0.63374912E+03</pdfrwt>
<totfact> 0.53667380E+00</totfact>
</mgrwt>
</event>
<event>
 5    1  0.2381755E-004  0.6369910E+03  0.7818608E-02  0.9831500E-01
         13   -1    0    0    0    0  0.00000000000E+00  0.00000000000E+00  0.10000000000E+04  0.10000000000E+04  0.00000000000E+00 0. -1.
          2   -1    0    0  501    0 -0.00000000000E+00 -0.00000000000E+00 -0.10143939539E+03  0.10143939539E+03  0.00000000000E+00 0. -1.
    9000006    2    1    2  501    0  0.00000000000E+00  0.00000000000E+00  0.89856060461E+03  0.11014393954E+04  0.63699103726E+03 0.  0.
         13    1    3    3    0    0 -0.13905740990E+03 -0.10796529575E+03 -0.96589762513E+01  0.17631439011E+03  0.00000000000E+00 0. -1.
          4    1    3    3  501    0  0.13905740990E+03  0.10796529575E+03  0.90821958086E+03  0.92512500528E+03  0.00000000000E+00 0. -1.
<mgrwt>
<rscale>  0 0.63699104E+03</rscale>
<asrwt>0</asrwt>
<pdfrwt beam="1">0</pdfrwt>
<pdfrwt beam="2">  1        2 0.36887131E+00 0.63699104E+03</pdfrwt>
<totfact> 0.51989460E+00</totfact>
</mgrwt>
</event>
<event>
 5    1  0.2381755E-004  0.6548369E+03  0.7818608E-02  0.9797745E-01
         13   -1    0    0    0    0  0.00000000000E+00  0.00000000000E+00  0.10000000000E+04  0.10000000000E+04  0.00000000000E+00 0. -1.
          2   -1    0    0  501    0 -0.00000000000E+00 -0.00000000000E+00 -0.10720285269E+03  0.10720285269E+03  0.00000000000E+00 0. -1.
    9000006    2    1    2  501    0  0.00000000000E+00  0.00000000000E+00  0.89279714731E+03  0.11072028527E+04  0.65483693448E+03 0.  0.
         13    1    3    3    0    0 -0.88960641562E+02  0.30108246573E+03  0.60354546775E+03  0.68031741016E+03  0.00000000000E+00 0. -1.
          2    1    3    3  501    0  0.88960641562E+02 -0.30108246573E+03  0.28925167956E+03  0.42688544253E+03  0.00000000000E+00 0. -1.
<mgrwt>
<rscale>  0 0.65483693E+03</rscale>
<asrwt>0</asrwt>
<pdfrwt beam="1">0</pdfrwt>
<pdfrwt beam="2">  1        2 0.38982938E+00 0.65483693E+03</pdfrwt>
<totfact> 0.43452527E+00</totfact>
</mgrwt>
</event>
<event>
 5    1  0.2381755E-004  0.6092474E+03  0.7818608E-02  0.9886404E-01
         13   -1    0    0    0    0  0.00000000000E+00  0.00000000000E+00  0.10000000000E+04  0.10000000000E+04  0.00000000000E+00 0. -1.
          2   -1    0    0  501    0 -0.00000000000E+00 -0.00000000000E+00 -0.92795585299E+02  0.92795585299E+02  0.00000000000E+00 0. -1.
    9000006    2    1    2  501    0  0.00000000000E+00  0.00000000000E+00  0.90720441470E+03  0.10927955853E+04  0.60924735633E+03 0.  0.
         13    1    3    3    0    0  0.23405558001E+03 -0.15167933649E+03  0.67333328778E+03  0.72881160260E+03  0.00000000000E+00 0. -1.
          2    1    3    3  501    0 -0.23405558001E+03  0.15167933649E+03  0.23387112692E+03  0.36398398269E+03  0.00000000000E+00 0. -1.
<mgrwt>
<rscale>  0 0.60924736E+03</rscale>
<asrwt>0</asrwt>
<pdfrwt beam="1">0</pdfrwt>
<pdfrwt beam="2">  1        2 0.33743920E+00 0.60924736E+03</pdfrwt>
<totfact> 0.67718553E+00</totfact>
</mgrwt>
</event>
<event>
 5    1  0.2381755E-004  0.6618910E+03  0.7818608E-02  0.9784719E-01
         13   -1    0    0    0    0  0.00000000000E+00  0.00000000000E+00  0.10000000000E+04  0.10000000000E+04  0.00000000000E+00 0. -1.
          2   -1    0    0  501    0 -0.00000000000E+00 -0.00000000000E+00 -0.10952491697E+03  0.10952491697E+03  0.00000000000E+00 0. -1.
    9000006    2    1    2  501    0  0.00000000000E+00  0.00000000000E+00  0.89047508303E+03  0.11095249170E+04  0.66189097885E+03 0.  0.
         13    1    3    3    0    0  0.16539108410E+03 -0.24053295740E+03  0.70662466314E+03  0.76454478538E+03  0.00000000000E+00 0. -1.
          4    1    3    3  501    0 -0.16539108410E+03  0.24053295740E+03  0.18385041989E+03  0.34498013159E+03  0.00000000000E+00 0. -1.
<mgrwt>
<rscale>  0 0.66189098E+03</rscale>
<asrwt>0</asrwt>
<pdfrwt beam="1">0</pdfrwt>
<pdfrwt beam="2">  1        2 0.39827327E+00 0.66189098E+03</pdfrwt>
<totfact> 0.40388601E+00</totfact>
</mgrwt>
</event>
<event>
 5    1  0.2381755E-004  0.6505834E+03  0.7818608E-02  0.9805685E-01
         13   -1    0    0    0    0  0.00000000000E+00  0.00000000000E+00  0.10000000000E+04  0.10000000000E+04  0.00000000000E+00 0. -1.
          2   -1    0    0  501    0 -0.00000000000E+00 -0.00000000000E+00 -0.10581468716E+03  0.10581468716E+03  0.00000000000E+00 0. -1.
    9000006    2    1    2  501    0  0.00000000000E+00  0.00000000000E+00  0.89418531284E+03  0.11058146872E+04  0.65058339100E+03 0.  0.
         13    1    3    3    0    0 -0.34695947917E+02  0.25367858767E+03  0.10605230821E+03  0.27713485295E+03  0.00000000000E+00 0. -1.
          2    1    3    3  501    0  0.34695947917E+02 -0.25367858767E+03  0.78813300463E+03  0.82867983421E+03  0.00000000000E+00 0. -1.
<mgrwt>
<rscale>  0 0.65058339E+03</rscale>
<asrwt>0</asrwt>
<pdfrwt beam="1">0</pdfrwt>
<pdfrwt beam="2">  1        2 0.38478149E+00 0.65058339E+03</pdfrwt>
<totfact> 0.45383029E+00</totfact>
</mgrwt>
</event>
<event>
 5    1  0.2381755E-004  0.6518754E+03  0.7818608E-02  0.9803266E-01
         13   -1    0    0    0    0  0.00000000000E+00  0.00000000000E+00  0.10000000000E+04  0.10000000000E+04  0.00000000000E+00 0. -1.
          2   -1    0    0  501    0 -0.00000000000E+00 -0.00000000000E+00 -0.10623540026E+03  0.10623540026E+03  0.00000000000E+00 0. -1.
    9000006    2    1    2  501    0  0.00000000000E+00  0.00000000000E+00  0.89376459974E+03  0.11062354003E+04  0.65187544902E+03 0.  0.
         13    1    3    3    0    0 -0.17668632887E+03 -0.11910796033E+03  0.28335425550E+02  0.21495967380E+03  0.00000000000E+00 0. -1.
          4    1    3    3  501    0  0.17668632887E+03  0.11910796033E+03  0.86542917419E+03  0.89127572645E+03  0.00000000000E+00 0. -1.
<mgrwt>
<rscale>  0 0.65187545E+03</rscale>
<asrwt>0</asrwt>
<pdfrwt beam="1">0</pdfrwt>
<pdfrwt beam="2">  1        2 0.38631136E+00 0.65187545E+03</pdfrwt>
<totfact> 0.44789905E+00</totfact>
</mgrwt>
</event>
<event>
 5    1  0.2381755E-004  0.6489096E+03  0.7818608E-02  0.9808827E-01
         13   -1    0    0    0    0  0.00000000000E+00  0.00000000000E+00  0.10000000000E+04  0.10000000000E+04  0.00000000000E+00 0. -1.
          2   -1    0    0  501    0 -0.00000000000E+00 -0.00000000000E+00 -0.10527093188E+03  0.10527093188E+03  0.00000000000E+00 0. -1.
    9000006    2    1    2  501    0  0.00000000000E+00  0.00000000000E+00  0.89472906812E+03  0.11052709319E+04  0.64890964512E+03 0.  0.
         13    1    3    3    0    0 -0.21666611742E+03  0.24017671165E+03  0.40421173745E+03  0.51770279886E+03  0.00000000000E+00 0. -1.
          2    1    3    3  501    0  0.21666611742E+03 -0.24017671165E+03  0.49051733067E+03  0.58756813302E+03  0.00000000000E+00 0. -1.
<mgrwt>
<rscale>  0 0.64890965E+03</rscale>
<asrwt>0</asrwt>
<pdfrwt beam="1">0</pdfrwt>
<pdfrwt beam="2">  1        2 0.38280420E+00 0.64890965E+03</pdfrwt>
<totfact> 0.46160169E+00</totfact>
</mgrwt>
</event>
<event>
 5    1  0.2381755E-004  0.6471358E+03  0.7818608E-02  0.9812168E-01
         13   -1    0    0    0    0  0.00000000000E+00  0.00000000000E+00  0.10000000000E+04  0.10000000000E+04  0.00000000000E+00 0. -1.
          2   -1    0    0  501    0 -0.00000000000E+00 -0.00000000000E+00 -0.10469619276E+03  0.10469619276E+03  0.00000000000E+00 0. -1.
    9000006    2    1    2  501    0  0.00000000000E+00  0.00000000000E+00  0.89530380724E+03  0.11046961928E+04  0.64713582116E+03 0.  0.
         13    1    3    3    0    0 -0.13411143631E+03 -0.38531588268E+02 -0.50695881751E+02  0.14846088060E+03  0.00000000000E+00 0. -1.
          2    1    3    3  501    0  0.13411143631E+03  0.38531588268E+02  0.94599968899E+03  0.95623531216E+03  0.00000000000E+00 0. -1.
<mgrwt>
<rscale>  0 0.64713582E+03</rscale>
<asrwt>0</asrwt>
<pdfrwt beam="1">0</pdfrwt>
<pdfrwt beam="2">  1        2 0.38071423E+00 0.64713582E+03</pdfrwt>
<totfact> 0.46994713E+00</totfact>
</mgrwt>
</event>
<event>
 5    1  0.2381755E-004  0.6657104E+03  0.7818608E-02  0.9777738E-01
         13   -1    0    0    0    0  0.00000000000E+00  0.00000000000E+00  0.10000000000E+04  0.10000000000E+04  0.00000000000E+00 0. -1.
          2   -1    0    0  501    0 -0.00000000000E+00 -0.00000000000E+00 -0.11079257126E+03  0.11079257126E+03  0.00000000000E+00 0. -1.
    9000006    2    1    2  501    0  0.00000000000E+00  0.00000000000E+00  0.88920742874E+03  0.11107925713E+04  0.66571036124E+03 0.  0.
         13    1    3    3    0    0  0.90998907282E+02  0.20567293363E+03  0.35170134428E+02  0.22763807922E+03  0.00000000000E+00 0. -1.
          2    1    3    3  501    0 -0.90998907282E+02 -0.20567293363E+03  0.85403729431E+03  0.88315449205E+03  0.00000000000E+00 0. -1.
<mgrwt>
<rscale>  0 0.66571036E+03</rscale>
<asrwt>0</asrwt>
<pdfrwt beam="1">0</pdfrwt>
<pdfrwt beam="2">  1        2 0.40288293E+00 0.66571036E+03</pdfrwt>
<totfact> 0.38799355E+00</totfact>
</mgrwt>
</event>
<event>
 5    1  0.2381755E-004  0.6395035E+03  0.7818608E-02  0.9826677E-01
         13   -1    0    0    0    0  0.00000000000E+00  0.00000000000E+00  0.10000000000E+04  0.10000000000E+04  0.00000000000E+00 0. -1.
          2   -1    0    0  501    0 -0.00000000000E+00 -0.00000000000E+00 -0.10224118956E+03  0.10224118956E+03  0.00000000000E+00 0. -1.
    9000006    2    1    2  501    0  0.00000000000E+00  0.00000000000E+00  0.89775881044E+03  0.11022411896E+04  0.63950352482E+03 0.  0.
         13    1    3    3    0    0 -0.10108886196E+03  0.29975207306E+03  0.36857188269E+03  0.48571132994E+03  0.00000000000E+00 0. -1.
          4    1    3    3  501    0  0.10108886196E+03 -0.29975207306E+03  0.52918692774E+03  0.61652985963E+03  0.00000000000E+00 0. -1.
<mgrwt>
<rscale>  0 0.63950352E+03</rscale>
<asrwt>0</asrwt>
<pdfrwt beam="1">0</pdfrwt>
<pdfrwt beam="2">  1        2 0.37178693E+00 0.63950352E+03</pdfrwt>
<totfact> 0.50716658E+00</totfact>
</mgrwt>
</event>
<event>
 5    1  0.2381755E-004  0.6370674E+03  0.7818608E-02  0.9831353E-01
         13   -1    0    0    0    0  0.00000000000E+00  0.00000000000E+00  0.10000000000E+04  0.10000000000E+04  0.00000000000E+00 0. -1.
          2   -1    0    0  501    0 -0.00000000000E+00 -0.00000000000E+00 -0.10146372776E+03  0.10146372776E+03  0.00000000000E+00 0. -1.
    9000006    2    1    2  501    0  0.00000000000E+00  0.00000000000E+00  0.89853627224E+03  0.11014637278E+04  0.63706743054E+03 0.  0.
         13    1    3    3    0    0  0.13844350988E+03 -0.28383113551E+03  0.37720953735E+03  0.49194893432E+03  0.00000000000E+00 0. -1.
          2    1    3    3  501    0 -0.13844350988E+03  0.28383113551E+03  0.52132673489E+03  0.60951479344E+03  0.00000000000E+00 0. -1.
<mgrwt>
<rscale>  0 0.63706743E+03</rscale>
<asrwt>0</asrwt>
<pdfrwt beam="1">0</pdfrwt>
<pdfrwt beam="2">  1        2 0.36895979E+00 0.63706743E+03</pdfrwt>
<totfact> 0.51950407E+00</totfact>
</mgrwt>
</event>
<event>
 5    1  0.2381755E-004  0.6541488E+03  0.7818608E-02  0.9799025E-01
         13   -1    0    0    0    0  0.00000000000E+00  0.00000000000E+00  0.10000000000E+04  0.10000000000E+04  0.00000000000E+00 0. -1.
          2   -1    0    0  501    0 -0.00000000000E+00 -0.00000000000E+00 -0.10697765278E+03  0.10697765278E+03  0.00000000000E+00 0. -1.
    9000006    2    1    2  501    0  0.00000000000E+00  0.00000000000E+00  0.89302234722E+03  0.11069776528E+04  0.65414876835E+03 0.  0.
         13    1    3    3    0    0  0.30795701025E+03  0.60539960488E+02  0.29072340648E+03  0.42781153099E+03  0.00000000000E+00 0. -1.
          4    1    3    3  501    0 -0.30795701025E+03 -0.60539960488E+02  0.60229894074E+03  0.67916612179E+03  0.00000000000E+00 0. -1.
<mgrwt>
<rscale>  0 0.65414877E+03</rscale>
<asrwt>0</asrwt>
<pdfrwt beam="1">0</pdfrwt>
<pdfrwt beam="2">  1        2 0.38901047E+00 0.65414877E+03</pdfrwt>
<totfact> 0.43760569E+00</totfact>
</mgrwt>
</event>
<event>
 5    1  0.2381755E-004  0.6404684E+03  0.7818608E-02  0.9824831E-01
         13   -1    0    0    0    0  0.00000000000E+00  0.00000000000E+00  0.10000000000E+04  0.10000000000E+04  0.00000000000E+00 0. -1.
          2   -1    0    0  501    0 -0.00000000000E+00 -0.00000000000E+00 -0.10254993809E+03  0.10254993809E+03  0.00000000000E+00 0. -1.
    9000006    2    1    2  501    0  0.00000000000E+00  0.00000000000E+00  0.89745006191E+03  0.11025499381E+04  0.64046838515E+03 0.  0.
         13    1    3    3    0    0 -0.20943645739E+03  0.11482707584E+03  0.81517747514E+02  0.25237676238E+03  0.00000000000E+00 0. -1.
          4    1    3    3  501    0  0.20943645739E+03 -0.11482707584E+03  0.81593231439E+03  0.85017317571E+03  0.00000000000E+00 0. -1.
<mgrwt>
<rscale>  0 0.64046839E+03</rscale>
<asrwt>0</asrwt>
<pdfrwt beam="1">0</pdfrwt>
<pdfrwt beam="2">  1        2 0.37290965E+00 0.64046839E+03</pdfrwt>
<totfact> 0.50234196E+00</totfact>
</mgrwt>
</event>
<event>
 5    1  0.2381755E-004  0.6415476E+03  0.7818608E-02  0.9822770E-01
         13   -1    0    0    0    0  0.00000000000E+00  0.00000000000E+00  0.10000000000E+04  0.10000000000E+04  0.00000000000E+00 0. -1.
          2   -1    0    0  501    0 -0.00000000000E+00 -0.00000000000E+00 -0.10289584227E+03  0.10289584227E+03  0.00000000000E+00 0. -1.
    9000006    2    1    2  501    0  0.00000000000E+00  0.00000000000E+00  0.89710415773E+03  0.11028958423E+04  0.64154763587E+03 0.  0.
         13    1    3    3    0    0 -0.29661971509E+03  0.12174984741E+03  0.43228287185E+03  0.53821442011E+03  0.00000000000E+00 0. -1.
          2    1    3    3  501    0  0.29661971509E+03 -0.12174984741E+03  0.46482128588E+03  0.56468142216E+03  0.00000000000E+00 0. -1.
<mgrwt>
<rscale>  0 0.64154764E+03</rscale>
<asrwt>0</asrwt>
<pdfrwt beam="1">0</pdfrwt>
<pdfrwt beam="2">  1        2 0.37416749E+00 0.64154764E+03</pdfrwt>
<totfact> 0.49698662E+00</totfact>
</mgrwt>
</event>
<event>
 5    1  0.2381755E-004  0.6520534E+03  0.7818608E-02  0.9802934E-01
         13   -1    0    0    0    0  0.00000000000E+00  0.00000000000E+00  0.10000000000E+04  0.10000000000E+04  0.00000000000E+00 0. -1.
          2   -1    0    0  501    0 -0.00000000000E+00 -0.00000000000E+00 -0.10629341797E+03  0.10629341797E+03  0.00000000000E+00 0. -1.
    9000006    2    1    2  501    0  0.00000000000E+00  0.00000000000E+00  0.89370658203E+03  0.11062934180E+04  0.65205342718E+03 0.  0.
         13    1    3    3    0    0 -0.12797361295E+03 -0.29091489488E+03  0.32351521659E+03  0.45350944537E+03  0.00000000000E+00 0. -1.
          4    1    3    3  501    0  0.12797361295E+03  0.29091489488E+03  0.57019136543E+03  0.65278397260E+03  0.00000000000E+00 0. -1.
<mgrwt>
<rscale>  0 0.65205343E+03</rscale>
<asrwt>0</asrwt>
<pdfrwt beam="1">0</pdfrwt>
<pdfrwt beam="2">  1        2 0.38652233E+00 0.65205343E+03</pdfrwt>
<totfact> 0.44708665E+00</totfact>
</mgrwt>
</event>
<event>
 5    1  0.2381755E-004  0.6448497E+03  0.7818608E-02  0.9816492E-01
         13   -1    0    0    0    0  0.00000000000E+00  0.00000000000E+00  0.10000000000E+04  0.10000000000E+04  0.00000000000E+00 0. -1.
          2   -1    0    0  501    0 -0.00000000000E+00 -0.00000000000E+00 -0.10395779999E+03  0.10395779999E+03  0.00000000000E+00 0. -1.
    9000006    2    1    2  501    0  0.00000000000E+00  0.00000000000E+00  0.89604220001E+03  0.11039578000E+04  0.64484974992E+03 0.  0.
         13    1    3    3    0    0 -0.20976814250E+03 -0.19222313205E+03  0.70768332448E+03  0.76273723775E+03  0.00000000000E+00 0. -1.
          2    1    3    3  501    0  0.20976814250E+03  0.19222313205E+03  0.18835887553E+03  0.34122056224E+03  0.00000000000E+00 0. -1.
<mgrwt>
<rscale>  0 0.64484975E+03</rscale>
<asrwt>0</asrwt>
<pdfrwt beam="1">0</pdfrwt>
<pdfrwt beam="2">  1        2 0.37802916E+00 0.64484975E+03</pdfrwt>
<totfact> 0.48087028E+00</totfact>
</mgrwt>
</event>
<event>
 5    1  0.2381755E-004  0.6497783E+03  0.7818608E-02  0.9807195E-01
         13   -1    0    0    0    0  0.00000000000E+00  0.00000000000E+00  0.10000000000E+04  0.10000000000E+04  0.00000000000E+00 0. -1.
          2   -1    0    0  501    0 -0.00000000000E+00 -0.00000000000E+00 -0.10555295934E+03  0.10555295934E+03  0.00000000000E+00 0. -1.
    9000006    2    1    2  501    0  0.00000000000E+00  0.00000000000E+00  0.89444704066E+03  0.11055529593E+04  0.64977829861E+03 0.  0.
         13    1    3    3    0    0  0.13277961332E+03 -0.21355173662E+03  0.79723145334E+03  0.83595021390E+03  0.00000000000E+00 0. -1.
          2    1    3    3  501    0 -0.13277961332E+03  0.21355173662E+03  0.97215587327E+02  0.26960274544E+03  0.00000000000E+00 0. -1.
<mgrwt>
<rscale>  0 0.64977830E+03</rscale>
<asrwt>0</asrwt>
<pdfrwt beam="1">0</pdfrwt>
<pdfrwt beam="2">  1        2 0.38382975E+00 0.64977830E+03</pdfrwt>
<totfact> 0.45755598E+00</totfact>
</mgrwt>
</event>
<event>
 5    1  0.2381755E-004  0.6504083E+03  0.7818608E-02  0.9806013E-01
         13   -1    0    0    0    0  0.00000000000E+00  0.00000000000E+00  0.10000000000E+04  0.10000000000E+04  0.00000000000E+00 0. -1.
          2   -1    0    0  501    0 -0.00000000000E+00 -0.00000000000E+00 -0.10575774737E+03  0.10575774737E+03  0.00000000000E+00 0. -1.
    9000006    2    1    2  501    0  0.00000000000E+00  0.00000000000E+00  0.89424225263E+03  0.11057577474E+04  0.65040832518E+03 0.  0.
         13    1    3    3    0    0  0.25628987517E+03  0.19150342384E+03  0.34799382180E+03  0.47271319155E+03  0.00000000000E+00 0. -1.
          4    1    3    3  501    0 -0.25628987517E+03 -0.19150342384E+03  0.54624843084E+03  0.63304455582E+03  0.00000000000E+00 0. -1.
<mgrwt>
<rscale>  0 0.65040833E+03</rscale>
<asrwt>0</asrwt>
<pdfrwt beam="1">0</pdfrwt>
<pdfrwt beam="2">  1        2 0.38457444E+00 0.65040833E+03</pdfrwt>
<totfact> 0.45463847E+00</totfact>
</mgrwt>
</event>
<event>
 5    1  0.2381755E-004  0.6521593E+03  0.7818608E-02  0.9802736E-01
         13   -1    0    0    0    0  0.00000000000E+00  0.00000000000E+00  0.10000000000E+04  0.10000000000E+04  0.00000000000E+00 0. -1.
          2   -1    0    0  501    0 -0.00000000000E+00 -0.00000000000E+00 -0.10632793752E+03  0.10632793752E+03  0.00000000000E+00 0. -1.
    9000006    2    1    2  501    0  0.00000000000E+00  0.00000000000E+00  0.89367206248E+03  0.11063279375E+04  0.65215929808E+03 0.  0.
         13    1    3    3    0    0  0.74676526269E+02 -0.88902386224E+02 -0.70075011366E+02  0.13561240751E+03  0.00000000000E+00 0. -1.
          2    1    3    3  501    0 -0.74676526269E+02  0.88902386224E+02  0.96374707385E+03  0.97071553001E+03  0.00000000000E+00 0. -1.
<mgrwt>
<rscale>  0 0.65215930E+03</rscale>
<asrwt>0</asrwt>
<pdfrwt beam="1">0</pdfrwt>
<pdfrwt beam="2">  1        2 0.38664786E+00 0.65215930E+03</pdfrwt>
<totfact> 0.44660392E+00</totfact>
</mgrwt>
</event>
<event>
 5    1  0.2381755E-004  0.6413326E+03  0.7818608E-02  0.9823180E-01
         13   -1    0    0    0    0  0.00000000000E+00  0.00000000000E+00  0.10000000000E+04  0.10000000000E+04  0.00000000000E+00 0. -1.
          2   -1    0    0  501    0 -0.00000000000E+00 -0.00000000000E+00 -0.10282688469E+03  0.10282688469E+03  0.00000000000E+00 0. -1.
    9000006    2    1    2  501    0  0.00000000000E+00  0.00000000000E+00  0.89717311531E+03  0.11028268847E+04  0.64133262724E+03 0.  0.
         13    1    3    3    0    0  0.17308137591E+03  0.92139076849E+02  0.12271827039E+02  0.19646213352E+03  0.00000000000E+00 0. -1.
          2    1    3    3  501    0 -0.17308137591E+03 -0.92139076849E+02  0.88490128827E+03  0.90636475117E+03  0.00000000000E+00 0. -1.
<mgrwt>
<rscale>  0 0.64133263E+03</rscale>
<asrwt>0</asrwt>
<pdfrwt beam="1">0</pdfrwt>
<pdfrwt beam="2">  1        2 0.37391673E+00 0.64133263E+03</pdfrwt>
<totfact> 0.49805005E+00</totfact>
</mgrwt>
</event>
<event>
 5    1  0.2381755E-004  0.6660846E+03  0.7818608E-02  0.9777057E-01
         13   -1    0    0    0    0  0.00000000000E+00  0.00000000000E+00  0.10000000000E+04  0.10000000000E+04  0.00000000000E+00 0. -1.
          2   -1    0    0  501    0 -0.00000000000E+00 -0.00000000000E+00 -0.11091718310E+03  0.11091718310E+03  0.00000000000E+00 0. -1.
    9000006    2    1    2  501    0  0.00000000000E+00  0.00000000000E+00  0.88908281690E+03  0.11109171831E+04  0.66608462854E+03 0.  0.
         13    1    3    3    0    0 -0.16859370466E+03  0.73966660987E+02  0.90741292317E+03  0.92590124599E+03  0.00000000000E+00 0. -1.
          4    1    3    3  501    0  0.16859370466E+03 -0.73966660987E+02 -0.18330106266E+02  0.18501593711E+03  0.00000000000E+00 0. -1.
<mgrwt>
<rscale>  0 0.66608463E+03</rscale>
<asrwt>0</asrwt>
<pdfrwt beam="1">0</pdfrwt>
<pdfrwt beam="2">  1        2 0.40333606E+00 0.66608463E+03</pdfrwt>
<totfact> 0.38646200E+00</totfact>
</mgrwt>
</event>
<event>
 5    1  0.2381755E-004  0.6448523E+03  0.7818608E-02  0.9816487E-01
         13   -1    0    0    0    0  0.00000000000E+00  0.00000000000E+00  0.10000000000E+04  0.10000000000E+04  0.00000000000E+00 0. -1.
          2   -1    0    0  501    0 -0.00000000000E+00 -0.00000000000E+00 -0.10395863232E+03  0.10395863232E+03  0.00000000000E+00 0. -1.
    9000006    2    1    2  501    0  0.00000000000E+00  0.00000000000E+00  0.89604136768E+03  0.11039586323E+04  0.64485233138E+03 0.  0.
         13    1    3    3    0    0 -0.30198900717E+03  0.11282192266E+03  0.43826319137E+03  0.54405952946E+03  0.00000000000E+00 0. -1.
          2    1    3    3  501    0  0.30198900717E+03 -0.11282192266E+03  0.45777817631E+03  0.55989910286E+03  0.00000000000E+00 0. -1.
<mgrwt>
<rscale>  0 0.64485233E+03</rscale>
<asrwt>0</asrwt>
<pdfrwt beam="1">0</pdfrwt>
<pdfrwt beam="2">  1        2 0.37803219E+00 0.64485233E+03</pdfrwt>
<totfact> 0.48085784E+00</totfact>
</mgrwt>
</event>
<event>
 5    1  0.2381755E-004  0.6458630E+03  0.7818608E-02  0.9814573E-01
         13   -1    0    0    0    0  0.00000000000E+00  0.00000000000E+00  0.10000000000E+04  0.10000000000E+04  0.00000000000E+00 0. -1.
          2   -1    0    0  501    0 -0.00000000000E+00 -0.00000000000E+00 -0.10428476573E+03  0.10428476573E+03  0.00000000000E+00 0. -1.
    9000006    2    1    2  501    0  0.00000000000E+00  0.00000000000E+00  0.89571523427E+03  0.11042847657E+04  0.64586303729E+03 0.  0.
         13    1    3    3    0    0 -0.16759409182E+03 -0.41731100693E+01  0.91976841253E+03  0.93492198988E+03  0.00000000000E+00 0. -1.
          4    1    3    3  501    0  0.16759409182E+03  0.41731100693E+01 -0.24053178269E+02  0.16936277586E+03  0.00000000000E+00 0. -1.
<mgrwt>
<rscale>  0 0.64586304E+03</rscale>
<asrwt>0</asrwt>
<pdfrwt beam="1">0</pdfrwt>
<pdfrwt beam="2">  1        2 0.37921813E+00 0.64586304E+03</pdfrwt>
<totfact> 0.47600523E+00</totfact>
</mgrwt>
</event>
<event>
 5    1  0.2381755E-004  0.6660879E+03  0.7818608E-02  0.9777051E-01
         13   -1    0    0    0    0  0.00000000000E+00  0.00000000000E+00  0.10000000000E+04  0.10000000000E+04  0.00000000000E+00 0. -1.
          2   -1    0    0  501    0 -0.00000000000E+00 -0.00000000000E+00 -0.11091825882E+03  0.11091825882E+03  0.00000000000E+00 0. -1.
    9000006    2    1    2  501    0  0.00000000000E+00  0.00000000000E+00  0.88908174118E+03  0.11109182588E+04  0.66608785854E+03 0.  0.
         13    1    3    3    0    0  0.11695089365E+03 -0.58233457461E+02 -0.66395510389E+02  0.14655036982E+03  0.00000000000E+00 0. -1.
          4    1    3    3  501    0 -0.11695089365E+03  0.58233457461E+02  0.95547725156E+03  0.96436788901E+03  0.00000000000E+00 0. -1.
<mgrwt>
<rscale>  0 0.66608786E+03</rscale>
<asrwt>0</asrwt>
<pdfrwt beam="1">0</pdfrwt>
<pdfrwt beam="2">  1        2 0.40333997E+00 0.66608786E+03</pdfrwt>
<totfact> 0.38644880E+00</totfact>
</mgrwt>
</event>
<event>
 5    1  0.2381755E-004  0.6562946E+03  0.7818608E-02  0.9795039E-01
         13   -1    0    0    0    0  0.00000000000E+00  0.00000000000E+00  0.10000000000E+04  0.10000000000E+04  0.00000000000E+00 0. -1.
          2   -1    0    0  501    0 -0.00000000000E+00 -0.00000000000E+00 -0.10768065487E+03  0.10768065487E+03  0.00000000000E+00 0. -1.
    9000006    2    1    2  501    0  0.00000000000E+00  0.00000000000E+00  0.89231934513E+03  0.11076806549E+04  0.65629461331E+03 0.  0.
         13    1    3    3    0    0  0.17488206006E+03 -0.15287991721E+03  0.54956352252E+02  0.23869688870E+03  0.00000000000E+00 0. -1.
          4    1    3    3  501    0 -0.17488206006E+03  0.15287991721E+03  0.83736299288E+03  0.86898376617E+03  0.00000000000E+00 0. -1.
<mgrwt>
<rscale>  0 0.65629461E+03</rscale>
<asrwt>0</asrwt>
<pdfrwt beam="1">0</pdfrwt>
<pdfrwt beam="2">  1        2 0.39156684E+00 0.65629461E+03</pdfrwt>
<totfact> 0.42805440E+00</totfact>
</mgrwt>
</event>
<event>
 5    1  0.2381755E-004  0.6514604E+03  0.7818608E-02  0.9804043E-01
         13   -1    0    0    0    0  0.00000000000E+00  0.00000000000E+00  0.10000000000E+04  0.10000000000E+04  0.00000000000E+00 0. -1.
          2   -1    0    0  501    0 -0.00000000000E+00 -0.00000000000E+00 -0.10610015093E+03  0.10610015093E+03  0.00000000000E+00 0. -1.
    9000006    2    1    2  501    0  0.00000000000E+00  0.00000000000E+00  0.89389984907E+03  0.11061001509E+04  0.65146036237E+03 0.  0.
         13    1    3    3    0    0  0.26279664831E+03 -0.16151875338E+03  0.62461777663E+03  0.69663315520E+03  0.00000000000E+00 0. -1.
          2    1    3    3  501    0 -0.26279664831E+03  0.16151875338E+03  0.26928207244E+03  0.40946699573E+03  0.00000000000E+00 0. -1.
<mgrwt>
<rscale>  0 0.65146036E+03</rscale>
<asrwt>0</asrwt>
<pdfrwt beam="1">0</pdfrwt>
<pdfrwt beam="2">  1        2 0.38581954E+00 0.65146036E+03</pdfrwt>
<totfact> 0.44979810E+00</totfact>
</mgrwt>
</event>
<event>
 5    1  0.2381755E-004  0.6401257E+03  0.7818608E-02  0.9825486E-01
         13   -1    0    0    0    0  0.00000000000E+00  0.00000000000E+00  0.10000000000E+04  0.10000000000E+04  0.00000000000E+00 0. -1.
          2   -1    0    0  501    0 -0.00000000000E+00 -0.00000000000E+00 -0.10244022464E+03  0.10244022464E+03  0.00000000000E+00 0. -1.
    9000006    2    1    2  501    0  0.00000000000E+00  0.00000000000E+00  0.89755977536E+03  0.11024402246E+04  0.64012568965E+03 0.  0.
         13    1    3    3    0    0  0.64849971644E+02 -0.68579712454E+02  0.97548654885E+03  0.98004219439E+03  0.00000000000E+00 0. -1.
          2    1    3    3  501    0 -0.64849971644E+02  0.68579712454E+02 -0.77926773493E+02  0.12239803025E+03  0.00000000000E+00 0. -1.
<mgrwt>
<rscale>  0 0.64012569E+03</rscale>
<asrwt>0</asrwt>
<pdfrwt beam="1">0</pdfrwt>
<pdfrwt beam="2">  1        2 0.37251069E+00 0.64012569E+03</pdfrwt>
<totfact> 0.50405155E+00</totfact>
</mgrwt>
</event>
<event>
 5    1  0.2381755E-004  0.6614271E+03  0.7818608E-02  0.9785570E-01
         13   -1    0    0    0    0  0.00000000000E+00  0.00000000000E+00  0.10000000000E+04  0.10000000000E+04  0.00000000000E+00 0. -1.
          2   -1    0    0  501    0 -0.00000000000E+00 -0.00000000000E+00 -0.10937144419E+03  0.10937144419E+03  0.00000000000E+00 0. -1.
    9000006    2    1    2  501    0  0.00000000000E+00  0.00000000000E+00  0.89062855581E+03  0.11093714442E+04  0.66142707592E+03 0.  0.
         13    1    3    3    0    0 -0.83733190653E+02  0.29220031513E+03  0.22676303637E+03  0.37922782867E+03  0.00000000000E+00 0. -1.
          4    1    3    3  501    0  0.83733190653E+02 -0.29220031513E+03  0.66386551944E+03  0.73014361551E+03  0.00000000000E+00 0. -1.
<mgrwt>
<rscale>  0 0.66142708E+03</rscale>
<asrwt>0</asrwt>
<pdfrwt beam="1">0</pdfrwt>
<pdfrwt beam="2">  1        2 0.39771518E+00 0.66142708E+03</pdfrwt>
<totfact> 0.40584922E+00</totfact>
</mgrwt>
</event>
<event>
 5    1  0.2381755E-004  0.6499175E+03  0.7818608E-02  0.9806934E-01
         13   -1    0    0    0    0  0.00000000000E+00  0.00000000000E+00  0.10000000000E+04  0.10000000000E+04  0.00000000000E+00 0. -1.
          2   -1    0    0  501    0 -0.00000000000E+00 -0.00000000000E+00 -0.10559818314E+03  0.10559818314E+03  0.00000000000E+00 0. -1.
    9000006    2    1    2  501    0  0.00000000000E+00  0.00000000000E+00  0.89440181686E+03  0.11055981831E+04  0.64991748134E+03 0.  0.
         13    1    3    3    0    0 -0.25153494201E+03 -0.19416635713E+03  0.56292546800E+03  0.64641742227E+03  0.00000000000E+00 0. -1.
          4    1    3    3  501    0  0.25153494201E+03  0.19416635713E+03  0.33147634886E+03  0.45918076087E+03  0.00000000000E+00 0. -1.
<mgrwt>
<rscale>  0 0.64991748E+03</rscale>
<asrwt>0</asrwt>
<pdfrwt beam="1">0</pdfrwt>
<pdfrwt beam="2">  1        2 0.38399420E+00 0.64991748E+03</pdfrwt>
<totfact> 0.45691024E+00</totfact>
</mgrwt>
</event>
<event>
 5    1  0.2381755E-004  0.6543847E+03  0.7818608E-02  0.9798586E-01
         13   -1    0    0    0    0  0.00000000000E+00  0.00000000000E+00  0.10000000000E+04  0.10000000000E+04  0.00000000000E+00 0. -1.
          2   -1    0    0  501    0 -0.00000000000E+00 -0.00000000000E+00 -0.10705484088E+03  0.10705484088E+03  0.00000000000E+00 0. -1.
    9000006    2    1    2  501    0  0.00000000000E+00  0.00000000000E+00  0.89294515912E+03  0.11070548409E+04  0.65438472132E+03 0.  0.
         13    1    3    3    0    0  0.46524918193E+02 -0.15223220197E+03  0.93007509369E+03  0.94359890378E+03  0.00000000000E+00 0. -1.
          4    1    3    3  501    0 -0.46524918193E+02  0.15223220197E+03 -0.37129934560E+02  0.16345593709E+03  0.00000000000E+00 0. -1.
<mgrwt>
<rscale>  0 0.65438472E+03</rscale>
<asrwt>0</asrwt>
<pdfrwt beam="1">0</pdfrwt>
<pdfrwt beam="2">  1        2 0.38929115E+00 0.65438472E+03</pdfrwt>
<totfact> 0.43654765E+00</totfact>
</mgrwt>
</event>
<event>
 5    1  0.2381755E-004  0.6659860E+03  0.7818608E-02  0.9777236E-01
         13   -1    0    0    0    0  0.00000000000E+00  0.00000000000E+00  0.10000000000E+04  0.10000000000E+04  0.00000000000E+00 0. -1.
          2   -1    0    0  501    0 -0.00000000000E+00 -0.00000000000E+00 -0.11088434834E+03  0.11088434834E+03  0.00000000000E+00 0. -1.
    9000006    2    1    2  501    0  0.00000000000E+00  0.00000000000E+00  0.88911565166E+03  0.11108843483E+04  0.66598603091E+03 0.  0.
         13    1    3    3    0    0 -0.14052027159E+02  0.29840284051E+03  0.19916674017E+03  0.35903914143E+03  0.00000000000E+00 0. -1.
          2    1    3    3  501    0  0.14052027159E+02 -0.29840284051E+03  0.68994891148E+03  0.75184520691E+03  0.00000000000E+00 0. -1.
<mgrwt>
<rscale>  0 0.66598603E+03</rscale>
<asrwt>0</asrwt>
<pdfrwt beam="1">0</pdfrwt>
<pdfrwt beam="2">  1        2 0.40321666E+00 0.66598603E+03</pdfrwt>
<totfact> 0.38686503E+00</totfact>
</mgrwt>
</event>
<event>
 5    1  0.2381755E-004  0.6517133E+03  0.7818608E-02  0.9803570E-01
         13   -1    0    0    0    0  0.00000000000E+00  0.00000000000E+00  0.10000000000E+04  0.10000000000E+04  0.00000000000E+00 0. -1.
          2   -1    0    0  501    0 -0.00000000000E+00 -0.00000000000E+00 -0.10618254395E+03  0.10618254395E+03  0.00000000000E+00 0. -1.
    9000006    2    1    2  501    0  0.00000000000E+00  0.00000000000E+00  0.89381745605E+03  0.11061825439E+04  0.65171326193E+03 0.  0.
         13    1    3    3    0    0 -0.24514928879E+03  0.19076856952E+03  0.27981092520E+03  0.41807292997E+03  0.00000000000E+00 0. -1.
          2    1    3    3  501    0  0.24514928879E+03 -0.19076856952E+03  0.61400653085E+03  0.68810961397E+03  0.00000000000E+00 0. -1.
<mgrwt>
<rscale>  0 0.65171326E+03</rscale>
<asrwt>0</asrwt>
<pdfrwt beam="1">0</pdfrwt>
<pdfrwt beam="2">  1        2 0.38611916E+00 0.65171326E+03</pdfrwt>
<totfact> 0.44864035E+00</totfact>
</mgrwt>
</event>
<event>
 5    1  0.2381755E-004  0.6317448E+03  0.7818608E-02  0.9841650E-01
         13   -1    0    0    0    0  0.00000000000E+00  0.00000000000E+00  0.10000000000E+04  0.10000000000E+04  0.00000000000E+00 0. -1.
          2   -1    0    0  501    0 -0.00000000000E+00 -0.00000000000E+00 -0.99775365581E+02  0.99775365581E+02  0.00000000000E+00 0. -1.
    9000006    2    1    2  501    0  0.00000000000E+00  0.00000000000E+00  0.90022463442E+03  0.10997753656E+04  0.63174477625E+03 0.  0.
         13    1    3    3    0    0  0.94778870771E+01 -0.84529673816E+02  0.97968760131E+03  0.98337322124E+03  0.00000000000E+00 0. -1.
          2    1    3    3  501    0 -0.94778870771E+01  0.84529673816E+02 -0.79462966892E+02  0.11640214434E+03  0.00000000000E+00 0. -1.
<mgrwt>
<rscale>  0 0.63174478E+03</rscale>
<asrwt>0</asrwt>
<pdfrwt beam="1">0</pdfrwt>
<pdfrwt beam="2">  1        2 0.36282028E+00 0.63174478E+03</pdfrwt>
<totfact> 0.54725106E+00</totfact>
</mgrwt>
</event>
<event>
 5    1  0.2381755E-004  0.6479083E+03  0.7818608E-02  0.9810712E-01
         13   -1    0    0    0    0  0.00000000000E+00  0.00000000000E+00  0.10000000000E+04  0.10000000000E+04  0.00000000000E+00 0. -1.
          2   -1    0    0  501    0 -0.00000000000E+00 -0.00000000000E+00 -0.10494628373E+03  0.10494628373E+03  0.00000000000E+00 0. -1.
    9000006    2    1    2  501    0  0.00000000000E+00  0.00000000000E+00  0.89505371627E+03  0.11049462837E+04  0.64790827664E+03 0.  0.
         13    1    3    3    0    0 -0.15955580080E+03  0.28142757835E+03  0.41864812952E+03  0.52908013738E+03  0.00000000000E+00 0. -1.
          4    1    3    3  501    0  0.15955580080E+03 -0.28142757835E+03  0.47640558675E+03  0.57586614635E+03  0.00000000000E+00 0. -1.
<mgrwt>
<rscale>  0 0.64790828E+03</rscale>
<asrwt>0</asrwt>
<pdfrwt beam="1">0</pdfrwt>
<pdfrwt beam="2">  1        2 0.38162365E+00 0.64790828E+03</pdfrwt>
<totfact> 0.46629900E+00</totfact>
</mgrwt>
</event>
<event>
 5    1  0.2381755E-004  0.6058378E+03  0.7818608E-02  0.9893368E-01
         13   -1    0    0    0    0  0.00000000000E+00  0.00000000000E+00  0.10000000000E+04  0.10000000000E+04  0.00000000000E+00 0. -1.
          2   -1    0    0  501    0 -0.00000000000E+00 -0.00000000000E+00 -0.91759856200E+02  0.91759856200E+02  0.00000000000E+00 0. -1.
    9000006    2    1    2  501    0  0.00000000000E+00  0.00000000000E+00  0.90824014380E+03  0.10917598562E+04  0.60583778753E+03 0.  0.
         13    1    3    3    0    0 -0.16704600081E+03 -0.19035326132E+03  0.75361636455E+03  0.79503229834E+03  0.00000000000E+00 0. -1.
          4    1    3    3  501    0  0.16704600081E+03  0.19035326132E+03  0.15462377925E+03  0.29672755786E+03  0.00000000000E+00 0. -1.
<mgrwt>
<rscale>  0 0.60583779E+03</rscale>
<asrwt>0</asrwt>
<pdfrwt beam="1">0</pdfrwt>
<pdfrwt beam="2">  1        2 0.33367291E+00 0.60583779E+03</pdfrwt>
<totfact> 0.69876506E+00</totfact>
</mgrwt>
</event>
<event>
 5    1  0.2381755E-004  0.6503451E+03  0.7818608E-02  0.9806132E-01
         13   -1    0    0    0    0  0.00000000000E+00  0.00000000000E+00  0.10000000000E+04  0.10000000000E+04  0.00000000000E+00 0. -1.
          2   -1    0    0  501    0 -0.00000000000E+00 -0.00000000000E+00 -0.10573720262E+03  0.10573720262E+03  0.00000000000E+00 0. -1.
    9000006    2    1    2  501    0  0.00000000000E+00  0.00000000000E+00  0.89426279738E+03  0.11057372026E+04  0.65034514718E+03 0.  0.
         13    1    3    3    0    0  0.13127668495E+03  0.18826414589E+02  0.95192891235E+03  0.96112260200E+03  0.00000000000E+00 0. -1.
          2    1    3    3  501    0 -0.13127668495E+03 -0.18826414589E+02 -0.57666114968E+02  0.14461460062E+03  0.00000000000E+00 0. -1.
<mgrwt>
<rscale>  0 0.65034515E+03</rscale>
<asrwt>0</asrwt>
<pdfrwt beam="1">0</pdfrwt>
<pdfrwt beam="2">  1        2 0.38449973E+00 0.65034515E+03</pdfrwt>
<totfact> 0.45493040E+00</totfact>
</mgrwt>
</event>
<event>
 5    1  0.2381755E-004  0.6451849E+03  0.7818608E-02  0.9815857E-01
         13   -1    0    0    0    0  0.00000000000E+00  0.00000000000E+00  0.10000000000E+04  0.10000000000E+04  0.00000000000E+00 0. -1.
          2   -1    0    0  501    0 -0.00000000000E+00 -0.00000000000E+00 -0.10406589621E+03  0.10406589621E+03  0.00000000000E+00 0. -1.
    9000006    2    1    2  501    0  0.00000000000E+00  0.00000000000E+00  0.89593410379E+03  0.11040658962E+04  0.64518492299E+03 0.  0.
         13    1    3    3    0    0  0.54263829523E+02 -0.19775422482E+02 -0.95146669084E+02  0.11130372486E+03  0.00000000000E+00 0. -1.
          2    1    3    3  501    0 -0.54263829523E+02  0.19775422482E+02  0.99108077287E+03  0.99276217136E+03  0.00000000000E+00 0. -1.
<mgrwt>
<rscale>  0 0.64518492E+03</rscale>
<asrwt>0</asrwt>
<pdfrwt beam="1">0</pdfrwt>
<pdfrwt beam="2">  1        2 0.37842224E+00 0.64518492E+03</pdfrwt>
<totfact> 0.47925688E+00</totfact>
</mgrwt>
</event>
<event>
 5    1  0.2381755E-004  0.6542471E+03  0.7818608E-02  0.9798842E-01
         13   -1    0    0    0    0  0.00000000000E+00  0.00000000000E+00  0.10000000000E+04  0.10000000000E+04  0.00000000000E+00 0. -1.
          2   -1    0    0  501    0 -0.00000000000E+00 -0.00000000000E+00 -0.10700981424E+03  0.10700981424E+03  0.00000000000E+00 0. -1.
    9000006    2    1    2  501    0  0.00000000000E+00  0.00000000000E+00  0.89299018576E+03  0.11070098142E+04  0.65424709167E+03 0.  0.
         13    1    3    3    0    0  0.21101883688E+03  0.14088573419E+03  0.97131291766E+02  0.27168405816E+03  0.00000000000E+00 0. -1.
          4    1    3    3  501    0 -0.21101883688E+03 -0.14088573419E+03  0.79585889399E+03  0.83532575608E+03  0.00000000000E+00 0. -1.
<mgrwt>
<rscale>  0 0.65424709E+03</rscale>
<asrwt>0</asrwt>
<pdfrwt beam="1">0</pdfrwt>
<pdfrwt beam="2">  1        2 0.38912742E+00 0.65424709E+03</pdfrwt>
<totfact> 0.43716456E+00</totfact>
</mgrwt>
</event>
<event>
 5    1  0.2381755E-004  0.6491718E+03  0.7818608E-02  0.9808335E-01
         13   -1    0    0    0    0  0.00000000000E+00  0.00000000000E+00  0.10000000000E+04  0.10000000000E+04  0.00000000000E+00 0. -1.
          2   -1    0    0  501    0 -0.00000000000E+00 -0.00000000000E+00 -0.10535599896E+03  0.10535599896E+03  0.00000000000E+00 0. -1.
    9000006    2    1    2  501    0  0.00000000000E+00  0.00000000000E+00  0.89464400104E+03  0.11053559990E+04  0.64917177683E+03 0.  0.
         13    1    3    3    0    0 -0.23541048073E+03  0.48000749071E+02  0.75700951156E+02  0.25189839292E+03  0.00000000000E+00 0. -1.
          2    1    3    3  501    0  0.23541048073E+03 -0.48000749071E+02  0.81894304989E+03  0.85345760604E+03  0.00000000000E+00 0. -1.
<mgrwt>
<rscale>  0 0.64917178E+03</rscale>
<asrwt>0</asrwt>
<pdfrwt beam="1">0</pdfrwt>
<pdfrwt beam="2">  1        2 0.38311353E+00 0.64917178E+03</pdfrwt>
<totfact> 0.46037799E+00</totfact>
</mgrwt>
</event>
<event>
 5    1  0.2381755E-004  0.6462999E+03  0.7818608E-02  0.9813747E-01
         13   -1    0    0    0    0  0.00000000000E+00  0.00000000000E+00  0.10000000000E+04  0.10000000000E+04  0.00000000000E+00 0. -1.
          2   -1    0    0  501    0 -0.00000000000E+00 -0.00000000000E+00 -0.10442589120E+03  0.10442589120E+03  0.00000000000E+00 0. -1.
    9000006    2    1    2  501    0  0.00000000000E+00  0.00000000000E+00  0.89557410880E+03  0.11044258912E+04  0.64629990313E+03 0.  0.
         13    1    3    3    0    0  0.19138695996E+02  0.18644787404E+03  0.89762807185E+03  0.91698705268E+03  0.00000000000E+00 0. -1.
          2    1    3    3  501    0 -0.19138695996E+02 -0.18644787404E+03 -0.20539630474E+01  0.18743883851E+03  0.00000000000E+00 0. -1.
<mgrwt>
<rscale>  0 0.64629990E+03</rscale>
<asrwt>0</asrwt>
<pdfrwt beam="1">0</pdfrwt>
<pdfrwt beam="2">  1        2 0.37973131E+00 0.64629990E+03</pdfrwt>
<totfact> 0.47391925E+00</totfact>
</mgrwt>
</event>
<event>
 5    1  0.2381755E-004  0.6456889E+03  0.7818608E-02  0.9814902E-01
         13   -1    0    0    0    0  0.00000000000E+00  0.00000000000E+00  0.10000000000E+04  0.10000000000E+04  0.00000000000E+00 0. -1.
          2   -1    0    0  501    0 -0.00000000000E+00 -0.00000000000E+00 -0.10422854772E+03  0.10422854772E+03  0.00000000000E+00 0. -1.
    9000006    2    1    2  501    0  0.00000000000E+00  0.00000000000E+00  0.89577145228E+03  0.11042285477E+04  0.64568892732E+03 0.  0.
         13    1    3    3    0    0 -0.27388918907E+03  0.33855319532E+02  0.16137939309E+03  0.31969482177E+03  0.00000000000E+00 0. -1.
          4    1    3    3  501    0  0.27388918907E+03 -0.33855319532E+02  0.73439205919E+03  0.78453372595E+03  0.00000000000E+00 0. -1.
<mgrwt>
<rscale>  0 0.64568893E+03</rscale>
<asrwt>0</asrwt>
<pdfrwt beam="1">0</pdfrwt>
<pdfrwt beam="2">  1        2 0.37901370E+00 0.64568893E+03</pdfrwt>
<totfact> 0.47683851E+00</totfact>
</mgrwt>
</event>
<event>
 5    1  0.2381755E-004  0.6627387E+03  0.7818608E-02  0.9783165E-01
         13   -1    0    0    0    0  0.00000000000E+00  0.00000000000E+00  0.10000000000E+04  0.10000000000E+04  0.00000000000E+00 0. -1.
          2   -1    0    0  501    0 -0.00000000000E+00 -0.00000000000E+00 -0.10980564076E+03  0.10980564076E+03  0.00000000000E+00 0. -1.
    9000006    2    1    2  501    0  0.00000000000E+00  0.00000000000E+00  0.89019435924E+03  0.11098056408E+04  0.66273868383E+03 0.  0.
         13    1    3    3    0    0 -0.30915006289E+03 -0.95866789313E+02  0.56399717172E+03  0.65027456692E+03  0.00000000000E+00 0. -1.
          2    1    3    3  501    0  0.30915006289E+03  0.95866789313E+02  0.32619718752E+03  0.45953107384E+03  0.00000000000E+00 0. -1.
<mgrwt>
<rscale>  0 0.66273868E+03</rscale>
<asrwt>0</asrwt>
<pdfrwt beam="1">0</pdfrwt>
<pdfrwt beam="2">  1        2 0.39929408E+00 0.66273868E+03</pdfrwt>
<totfact> 0.40031708E+00</totfact>
</mgrwt>
</event>
<event>
 5    1  0.2381755E-004  0.6465960E+03  0.7818608E-02  0.9813188E-01
         13   -1    0    0    0    0  0.00000000000E+00  0.00000000000E+00  0.10000000000E+04  0.10000000000E+04  0.00000000000E+00 0. -1.
          2   -1    0    0  501    0 -0.00000000000E+00 -0.00000000000E+00 -0.10452160475E+03  0.10452160475E+03  0.00000000000E+00 0. -1.
    9000006    2    1    2  501    0  0.00000000000E+00  0.00000000000E+00  0.89547839525E+03  0.11045216048E+04  0.64659602459E+03 0.  0.
         13    1    3    3    0    0  0.29678362895E+03  0.73707839220E+02  0.26851358801E+03  0.40695566702E+03  0.00000000000E+00 0. -1.
          4    1    3    3  501    0 -0.29678362895E+03 -0.73707839220E+02  0.62696480724E+03  0.69756593773E+03  0.00000000000E+00 0. -1.
<mgrwt>
<rscale>  0 0.64659602E+03</rscale>
<asrwt>0</asrwt>
<pdfrwt beam="1">0</pdfrwt>
<pdfrwt beam="2">  1        2 0.38007936E+00 0.64659602E+03</pdfrwt>
<totfact> 0.47250924E+00</totfact>
</mgrwt>
</event>
<event>
 5    1  0.2381755E-004  0.5984777E+03  0.7818608E-02  0.9908569E-01
         13   -1    0    0    0    0  0.00000000000E+00  0.00000000000E+00  0.10000000000E+04  0.10000000000E+04  0.00000000000E+00 0. -1.
          2   -1    0    0  501    0 -0.00000000000E+00 -0.00000000000E+00 -0.89543898738E+02  0.89543898738E+02  0.00000000000E+00 0. -1.
    9000006    2    1    2  501    0  0.00000000000E+00  0.00000000000E+00  0.91045610126E+03  0.10895438987E+04  0.59847773138E+03 0.  0.
         13    1    3    3    0    0  0.17192519255E+03  0.20425119609E+03  0.20917358409E+03  0.33916133509E+03  0.00000000000E+00 0. -1.
          4    1    3    3  501    0 -0.17192519255E+03 -0.20425119609E+03  0.70128251717E+03  0.75038256365E+03  0.00000000000E+00 0. -1.
<mgrwt>
<rscale>  0 0.59847773E+03</rscale>
<asrwt>0</asrwt>
<pdfrwt beam="1">0</pdfrwt>
<pdfrwt beam="2">  1        2 0.32561486E+00 0.59847773E+03</pdfrwt>
<totfact> 0.74714005E+00</totfact>
</mgrwt>
</event>
<event>
 5    1  0.2381755E-004  0.6623108E+03  0.7818608E-02  0.9783949E-01
         13   -1    0    0    0    0  0.00000000000E+00  0.00000000000E+00  0.10000000000E+04  0.10000000000E+04  0.00000000000E+00 0. -1.
          2   -1    0    0  501    0 -0.00000000000E+00 -0.00000000000E+00 -0.10966390865E+03  0.10966390865E+03  0.00000000000E+00 0. -1.
    9000006    2    1    2  501    0  0.00000000000E+00  0.00000000000E+00  0.89033609135E+03  0.11096639087E+04  0.66231082930E+03 0.  0.
         13    1    3    3    0    0  0.99748838551E+02  0.29716116057E+03  0.62412951351E+03  0.69842124522E+03  0.00000000000E+00 0. -1.
          4    1    3    3  501    0 -0.99748838551E+02 -0.29716116057E+03  0.26620657784E+03  0.41124266343E+03  0.00000000000E+00 0. -1.
<mgrwt>
<rscale>  0 0.66231083E+03</rscale>
<asrwt>0</asrwt>
<pdfrwt beam="1">0</pdfrwt>
<pdfrwt beam="2">  1        2 0.39877869E+00 0.66231083E+03</pdfrwt>
<totfact> 0.40211540E+00</totfact>
</mgrwt>
</event>
<event>
 5    1  0.2381755E-004  0.6497502E+03  0.7818608E-02  0.9807248E-01
         13   -1    0    0    0    0  0.00000000000E+00  0.00000000000E+00  0.10000000000E+04  0.10000000000E+04  0.00000000000E+00 0. -1.
          2   -1    0    0  501    0 -0.00000000000E+00 -0.00000000000E+00 -0.10554383583E+03  0.10554383583E+03  0.00000000000E+00 0. -1.
    9000006    2    1    2  501    0  0.00000000000E+00  0.00000000000E+00  0.89445616417E+03  0.11055438358E+04  0.64975021609E+03 0.  0.
         13    1    3    3    0    0  0.19775080322E+03 -0.18265349975E+03  0.75667562735E+03  0.80313491157E+03  0.00000000000E+00 0. -1.
          4    1    3    3  501    0 -0.19775080322E+03  0.18265349975E+03  0.13778053682E+03  0.30240892426E+03  0.00000000000E+00 0. -1.
<mgrwt>
<rscale>  0 0.64975022E+03</rscale>
<asrwt>0</asrwt>
<pdfrwt beam="1">0</pdfrwt>
<pdfrwt beam="2">  1        2 0.38379658E+00 0.64975022E+03</pdfrwt>
<totfact> 0.45768635E+00</totfact>
</mgrwt>
</event>
<event>
 5    1  0.2381755E-004  0.6464131E+03  0.7818608E-02  0.9813533E-01
         13   -1    0    0    0    0  0.00000000000E+00  0.00000000000E+00  0.10000000000E+04  0.10000000000E+04  0.00000000000E+00 0. -1.
          4   -1    0    0  501    0 -0.00000000000E+00 -0.00000000000E+00 -0.10446246728E+03  0.10446246728E+03  0.00000000000E+00 0. -1.
    9000006    2    1    2  501    0  0.00000000000E+00  0.00000000000E+00  0.89553753272E+03  0.11044624673E+04  0.64641307932E+03 0.  0.
         13    1    3    3    0    0 -0.10317465099E+02  0.12847881565E+03  0.95418749621E+03  0.96285358912E+03  0.00000000000E+00 0. -1.
          4    1    3    3  501    0  0.10317465099E+02 -0.12847881565E+03 -0.58649963488E+02  0.14160887816E+03  0.00000000000E+00 0. -1.
<mgrwt>
<rscale>  0 0.64641308E+03</rscale>
<asrwt>0</asrwt>
<pdfrwt beam="1">0</pdfrwt>
<pdfrwt beam="2">  1        4 0.37986432E+00 0.64641308E+03</pdfrwt>
<totfact> 0.43965933E-02</totfact>
</mgrwt>
</event>
<event>
 5    1  0.2381755E-004  0.6311276E+03  0.7818608E-02  0.9842851E-01
         13   -1    0    0    0    0  0.00000000000E+00  0.00000000000E+00  0.10000000000E+04  0.10000000000E+04  0.00000000000E+00 0. -1.
          2   -1    0    0  501    0 -0.00000000000E+00 -0.00000000000E+00 -0.99580524036E+02  0.99580524036E+02  0.00000000000E+00 0. -1.
    9000006    2    1    2  501    0  0.00000000000E+00  0.00000000000E+00  0.90041947596E+03  0.10995805240E+04  0.63112763855E+03 0.  0.
         13    1    3    3    0    0  0.19713525673E+03  0.23244789297E+03  0.30774766817E+03  0.43313157314E+03  0.00000000000E+00 0. -1.
          4    1    3    3  501    0 -0.19713525673E+03 -0.23244789297E+03  0.59267180780E+03  0.66644895089E+03  0.00000000000E+00 0. -1.
<mgrwt>
<rscale>  0 0.63112764E+03</rscale>
<asrwt>0</asrwt>
<pdfrwt beam="1">0</pdfrwt>
<pdfrwt beam="2">  1        2 0.36211176E+00 0.63112764E+03</pdfrwt>
<totfact> 0.55053942E+00</totfact>
</mgrwt>
</event>
<event>
 5    1  0.2381755E-004  0.6468865E+03  0.7818608E-02  0.9812639E-01
         13   -1    0    0    0    0  0.00000000000E+00  0.00000000000E+00  0.10000000000E+04  0.10000000000E+04  0.00000000000E+00 0. -1.
          2   -1    0    0  501    0 -0.00000000000E+00 -0.00000000000E+00 -0.10461553660E+03  0.10461553660E+03  0.00000000000E+00 0. -1.
    9000006    2    1    2  501    0  0.00000000000E+00  0.00000000000E+00  0.89538446340E+03  0.11046155366E+04  0.64688650194E+03 0.  0.
         13    1    3    3    0    0  0.17213298043E+03  0.72967394038E+02  0.89838394414E+03  0.91763157892E+03  0.00000000000E+00 0. -1.
          2    1    3    3  501    0 -0.17213298043E+03 -0.72967394038E+02 -0.29994807354E+01  0.18698395768E+03  0.00000000000E+00 0. -1.
<mgrwt>
<rscale>  0 0.64688650E+03</rscale>
<asrwt>0</asrwt>
<pdfrwt beam="1">0</pdfrwt>
<pdfrwt beam="2">  1        2 0.38042094E+00 0.64688650E+03</pdfrwt>
<totfact> 0.47112920E+00</totfact>
</mgrwt>
</event>
<event>
 5    1  0.2381755E-004  0.6543914E+03  0.7818608E-02  0.9798574E-01
         13   -1    0    0    0    0  0.00000000000E+00  0.00000000000E+00  0.10000000000E+04  0.10000000000E+04  0.00000000000E+00 0. -1.
          2   -1    0    0  501    0 -0.00000000000E+00 -0.00000000000E+00 -0.10705702990E+03  0.10705702990E+03  0.00000000000E+00 0. -1.
    9000006    2    1    2  501    0  0.00000000000E+00  0.00000000000E+00  0.89294297010E+03  0.11070570299E+04  0.65439141161E+03 0.  0.
         13    1    3    3    0    0 -0.31233160829E+03 -0.20123708806E+02  0.28508106919E+03  0.42335235113E+03  0.00000000000E+00 0. -1.
          2    1    3    3  501    0  0.31233160829E+03  0.20123708806E+02  0.60786190091E+03  0.68370467877E+03  0.00000000000E+00 0. -1.
<mgrwt>
<rscale>  0 0.65439141E+03</rscale>
<asrwt>0</asrwt>
<pdfrwt beam="1">0</pdfrwt>
<pdfrwt beam="2">  1        2 0.38929911E+00 0.65439141E+03</pdfrwt>
<totfact> 0.43651767E+00</totfact>
</mgrwt>
</event>
<event>
 5    1  0.2381755E-004  0.6485028E+03  0.7818608E-02  0.9809593E-01
         13   -1    0    0    0    0  0.00000000000E+00  0.00000000000E+00  0.10000000000E+04  0.10000000000E+04  0.00000000000E+00 0. -1.
          2   -1    0    0  501    0 -0.00000000000E+00 -0.00000000000E+00 -0.10513896202E+03  0.10513896202E+03  0.00000000000E+00 0. -1.
    9000006    2    1    2  501    0  0.00000000000E+00  0.00000000000E+00  0.89486103798E+03  0.11051389620E+04  0.64850277416E+03 0.  0.
         13    1    3    3    0    0 -0.90302590160E+02 -0.10238456184E+03 -0.53777070768E+02  0.14672808059E+03  0.00000000000E+00 0. -1.
          2    1    3    3  501    0  0.90302590160E+02  0.10238456184E+03  0.94863810875E+03  0.95841088144E+03  0.00000000000E+00 0. -1.
<mgrwt>
<rscale>  0 0.64850277E+03</rscale>
<asrwt>0</asrwt>
<pdfrwt beam="1">0</pdfrwt>
<pdfrwt beam="2">  1        2 0.38232430E+00 0.64850277E+03</pdfrwt>
<totfact> 0.46350594E+00</totfact>
</mgrwt>
</event>
<event>
 5    1  0.2381755E-004  0.6555332E+03  0.7818608E-02  0.9796452E-01
         13   -1    0    0    0    0  0.00000000000E+00  0.00000000000E+00  0.10000000000E+04  0.10000000000E+04  0.00000000000E+00 0. -1.
          2   -1    0    0  501    0 -0.00000000000E+00 -0.00000000000E+00 -0.10743092939E+03  0.10743092939E+03  0.00000000000E+00 0. -1.
    9000006    2    1    2  501    0  0.00000000000E+00  0.00000000000E+00  0.89256907061E+03  0.11074309294E+04  0.65553315521E+03 0.  0.
         13    1    3    3    0    0  0.49469919654E+02  0.29621877318E+03  0.22448194189E+03  0.37494663189E+03  0.00000000000E+00 0. -1.
          4    1    3    3  501    0 -0.49469919654E+02 -0.29621877318E+03  0.66808712871E+03  0.73248429750E+03  0.00000000000E+00 0. -1.
<mgrwt>
<rscale>  0 0.65553316E+03</rscale>
<asrwt>0</asrwt>
<pdfrwt beam="1">0</pdfrwt>
<pdfrwt beam="2">  1        2 0.39065875E+00 0.65553316E+03</pdfrwt>
<totfact> 0.43142548E+00</totfact>
</mgrwt>
</event>
<event>
 5    1  0.2381755E-004  0.6496248E+03  0.7818608E-02  0.9807483E-01
         13   -1    0    0    0    0  0.00000000000E+00  0.00000000000E+00  0.10000000000E+04  0.10000000000E+04  0.00000000000E+00 0. -1.
          2   -1    0    0  501    0 -0.00000000000E+00 -0.00000000000E+00 -0.10550309911E+03  0.10550309911E+03  0.00000000000E+00 0. -1.
    9000006    2    1    2  501    0  0.00000000000E+00  0.00000000000E+00  0.89449690089E+03  0.11055030991E+04  0.64962481205E+03 0.  0.
         13    1    3    3    0    0 -0.99272052593E+02  0.20275674618E+03  0.84466542132E+03  0.87431396679E+03  0.00000000000E+00 0. -1.
          4    1    3    3  501    0  0.99272052593E+02 -0.20275674618E+03  0.49831479573E+02  0.23118913232E+03  0.00000000000E+00 0. -1.
<mgrwt>
<rscale>  0 0.64962481E+03</rscale>
<asrwt>0</asrwt>
<pdfrwt beam="1">0</pdfrwt>
<pdfrwt beam="2">  1        2 0.38364844E+00 0.64962481E+03</pdfrwt>
<totfact> 0.45826888E+00</totfact>
</mgrwt>
</event>
<event>
 5    1  0.2381755E-004  0.6581617E+03  0.7818608E-02  0.9791584E-01
         13   -1    0    0    0    0  0.00000000000E+00  0.00000000000E+00  0.10000000000E+04  0.10000000000E+04  0.00000000000E+00 0. -1.
          2   -1    0    0  501    0 -0.00000000000E+00 -0.00000000000E+00 -0.10829420774E+03  0.10829420774E+03  0.00000000000E+00 0. -1.
    9000006    2    1    2  501    0  0.00000000000E+00  0.00000000000E+00  0.89170579226E+03  0.11082942077E+04  0.65816170578E+03 0.  0.
         13    1    3    3    0    0 -0.12669920561E+03  0.10633013864E+03  0.92491494521E+03  0.93958844339E+03  0.00000000000E+00 0. -1.
          4    1    3    3  501    0  0.12669920561E+03 -0.10633013864E+03 -0.33209152948E+02  0.16870576435E+03  0.00000000000E+00 0. -1.
<mgrwt>
<rscale>  0 0.65816171E+03</rscale>
<asrwt>0</asrwt>
<pdfrwt beam="1">0</pdfrwt>
<pdfrwt beam="2">  1        2 0.39379795E+00 0.65816171E+03</pdfrwt>
<totfact> 0.41987268E+00</totfact>
</mgrwt>
</event>
<event>
 5    1  0.2381755E-004  0.6024186E+03  0.7818608E-02  0.9900401E-01
         13   -1    0    0    0    0  0.00000000000E+00  0.00000000000E+00  0.10000000000E+04  0.10000000000E+04  0.00000000000E+00 0. -1.
          2   -1    0    0  501    0 -0.00000000000E+00 -0.00000000000E+00 -0.90727054282E+02  0.90727054282E+02  0.00000000000E+00 0. -1.
    9000006    2    1    2  501    0  0.00000000000E+00  0.00000000000E+00  0.90927294572E+03  0.10907270543E+04  0.60241863943E+03 0.  0.
         13    1    3    3    0    0 -0.15405455824E+03 -0.25882784228E+03  0.45183420584E+03  0.54302744721E+03  0.00000000000E+00 0. -1.
          2    1    3    3  501    0  0.15405455824E+03  0.25882784228E+03  0.45743873987E+03  0.54769960707E+03  0.00000000000E+00 0. -1.
<mgrwt>
<rscale>  0 0.60241864E+03</rscale>
<asrwt>0</asrwt>
<pdfrwt beam="1">0</pdfrwt>
<pdfrwt beam="2">  1        2 0.32991726E+00 0.60241864E+03</pdfrwt>
<totfact> 0.72092955E+00</totfact>
</mgrwt>
</event>
<event>
 5    1  0.2381755E-004  0.6500826E+03  0.7818608E-02  0.9806624E-01
         13   -1    0    0    0    0  0.00000000000E+00  0.00000000000E+00  0.10000000000E+04  0.10000000000E+04  0.00000000000E+00 0. -1.
          2   -1    0    0  501    0 -0.00000000000E+00 -0.00000000000E+00 -0.10565183111E+03  0.10565183111E+03  0.00000000000E+00 0. -1.
    9000006    2    1    2  501    0  0.00000000000E+00  0.00000000000E+00  0.89434816889E+03  0.11056518311E+04  0.65008255201E+03 0.  0.
         13    1    3    3    0    0 -0.26685179047E+03  0.39054295747E+02  0.13860094195E+03  0.30322489542E+03  0.00000000000E+00 0. -1.
          2    1    3    3  501    0  0.26685179047E+03 -0.39054295747E+02  0.75574722694E+03  0.80242693569E+03  0.00000000000E+00 0. -1.
<mgrwt>
<rscale>  0 0.65008255E+03</rscale>
<asrwt>0</asrwt>
<pdfrwt beam="1">0</pdfrwt>
<pdfrwt beam="2">  1        2 0.38418929E+00 0.65008255E+03</pdfrwt>
<totfact> 0.45614529E+00</totfact>
</mgrwt>
</event>
<event>
 5    1  0.2381755E-004  0.6670004E+03  0.7818608E-02  0.9775392E-01
         13   -1    0    0    0    0  0.00000000000E+00  0.00000000000E+00  0.10000000000E+04  0.10000000000E+04  0.00000000000E+00 0. -1.
          2   -1    0    0  501    0 -0.00000000000E+00 -0.00000000000E+00 -0.11122238507E+03  0.11122238507E+03  0.00000000000E+00 0. -1.
    9000006    2    1    2  501    0  0.00000000000E+00  0.00000000000E+00  0.88877761493E+03  0.11112223851E+04  0.66700040501E+03 0.  0.
         13    1    3    3    0    0 -0.19872570414E+03  0.13932918592E+02  0.88998172851E+03  0.91200521313E+03  0.00000000000E+00 0. -1.
          2    1    3    3  501    0  0.19872570414E+03 -0.13932918592E+02 -0.12041135782E+01  0.19921717194E+03  0.00000000000E+00 0. -1.
<mgrwt>
<rscale>  0 0.66700041E+03</rscale>
<asrwt>0</asrwt>
<pdfrwt beam="1">0</pdfrwt>
<pdfrwt beam="2">  1        2 0.40444589E+00 0.66700041E+03</pdfrwt>
<totfact> 0.38273374E+00</totfact>
</mgrwt>
</event>
<event>
 5    1  0.2381755E-004  0.6503999E+03  0.7818608E-02  0.9806029E-01
         13   -1    0    0    0    0  0.00000000000E+00  0.00000000000E+00  0.10000000000E+04  0.10000000000E+04  0.00000000000E+00 0. -1.
          2   -1    0    0  501    0 -0.00000000000E+00 -0.00000000000E+00 -0.10575501502E+03  0.10575501502E+03  0.00000000000E+00 0. -1.
    9000006    2    1    2  501    0  0.00000000000E+00  0.00000000000E+00  0.89424498498E+03  0.11057550150E+04  0.65039992318E+03 0.  0.
         13    1    3    3    0    0 -0.22487647643E+03  0.23315714918E+03  0.39833986569E+03  0.51342607498E+03  0.00000000000E+00 0. -1.
          2    1    3    3  501    0  0.22487647643E+03 -0.23315714918E+03  0.49590511929E+03  0.59232894004E+03  0.00000000000E+00 0. -1.
<mgrwt>
<rscale>  0 0.65039992E+03</rscale>
<asrwt>0</asrwt>
<pdfrwt beam="1">0</pdfrwt>
<pdfrwt beam="2">  1        2 0.38456450E+00 0.65039992E+03</pdfrwt>
<totfact> 0.45467729E+00</totfact>
</mgrwt>
</event>
<event>
 5    1  0.2381755E-004  0.6217541E+03  0.7818608E-02  0.9861273E-01
         13   -1    0    0    0    0  0.00000000000E+00  0.00000000000E+00  0.10000000000E+04  0.10000000000E+04  0.00000000000E+00 0. -1.
          2   -1    0    0  501    0 -0.00000000000E+00 -0.00000000000E+00 -0.96644539167E+02  0.96644539167E+02  0.00000000000E+00 0. -1.
    9000006    2    1    2  501    0  0.00000000000E+00  0.00000000000E+00  0.90335546083E+03  0.10966445392E+04  0.62175409662E+03 0.  0.
         13    1    3    3    0    0 -0.16597598488E+03 -0.82127887784E+02  0.89210150360E+03  0.91111915260E+03  0.00000000000E+00 0. -1.
          2    1    3    3  501    0  0.16597598488E+03  0.82127887784E+02  0.11253957238E+02  0.18552538657E+03  0.00000000000E+00 0. -1.
<mgrwt>
<rscale>  0 0.62175410E+03</rscale>
<asrwt>0</asrwt>
<pdfrwt beam="1">0</pdfrwt>
<pdfrwt beam="2">  1        2 0.35143543E+00 0.62175410E+03</pdfrwt>
<totfact> 0.60235791E+00</totfact>
</mgrwt>
</event>
<event>
 5    1  0.2381755E-004  0.5068117E+03  0.7818608E-02  0.1012016E+00
         13   -1    0    0    0    0  0.00000000000E+00  0.00000000000E+00  0.10000000000E+04  0.10000000000E+04  0.00000000000E+00 0. -1.
          2   -1    0    0  501    0 -0.00000000000E+00 -0.00000000000E+00 -0.64214512712E+02  0.64214512712E+02  0.00000000000E+00 0. -1.
    9000006    2    1    2  501    0  0.00000000000E+00  0.00000000000E+00  0.93578548729E+03  0.10642145127E+04  0.50681165224E+03 0.  0.
         13    1    3    3    0    0  0.20556949168E+03 -0.11894648492E+03  0.65343235817E+03  0.69525601680E+03  0.00000000000E+00 0. -1.
          2    1    3    3  501    0 -0.20556949168E+03  0.11894648492E+03  0.28235312911E+03  0.36895849591E+03  0.00000000000E+00 0. -1.
<mgrwt>
<rscale>  0 0.50681165E+03</rscale>
<asrwt>0</asrwt>
<pdfrwt beam="1">0</pdfrwt>
<pdfrwt beam="2">  1        2 0.23350781E+00 0.50681165E+03</pdfrwt>
<totfact> 0.15988379E+01</totfact>
</mgrwt>
</event>
<event>
 5    1  0.2381755E-004  0.6520867E+03  0.7818608E-02  0.9802871E-01
         13   -1    0    0    0    0  0.00000000000E+00  0.00000000000E+00  0.10000000000E+04  0.10000000000E+04  0.00000000000E+00 0. -1.
          2   -1    0    0  501    0 -0.00000000000E+00 -0.00000000000E+00 -0.10630428186E+03  0.10630428186E+03  0.00000000000E+00 0. -1.
    9000006    2    1    2  501    0  0.00000000000E+00  0.00000000000E+00  0.89369571814E+03  0.11063042819E+04  0.65208674841E+03 0.  0.
         13    1    3    3    0    0  0.12478766498E+03  0.26109778982E+03  0.70167243722E+03  0.75900476042E+03  0.00000000000E+00 0. -1.
          4    1    3    3  501    0 -0.12478766498E+03 -0.26109778982E+03  0.19202328092E+03  0.34729952145E+03  0.00000000000E+00 0. -1.
<mgrwt>
<rscale>  0 0.65208675E+03</rscale>
<asrwt>0</asrwt>
<pdfrwt beam="1">0</pdfrwt>
<pdfrwt beam="2">  1        2 0.38656184E+00 0.65208675E+03</pdfrwt>
<totfact> 0.44693468E+00</totfact>
</mgrwt>
</event>
<event>
 5    1  0.2381755E-004  0.6753348E+03  0.7818608E-02  0.9760368E-01
         13   -1    0    0    0    0  0.00000000000E+00  0.00000000000E+00  0.10000000000E+04  0.10000000000E+04  0.00000000000E+00 0. -1.
          2   -1    0    0  501    0 -0.00000000000E+00 -0.00000000000E+00 -0.11401927905E+03  0.11401927905E+03  0.00000000000E+00 0. -1.
    9000006    2    1    2  501    0  0.00000000000E+00  0.00000000000E+00  0.88598072095E+03  0.11140192791E+04  0.67533481785E+03 0.  0.
         13    1    3    3    0    0  0.18820309946E+03  0.15111943829E+03  0.53459464002E+02  0.24721530205E+03  0.00000000000E+00 0. -1.
          2    1    3    3  501    0 -0.18820309946E+03 -0.15111943829E+03  0.83252125695E+03  0.86680397700E+03  0.00000000000E+00 0. -1.
<mgrwt>
<rscale>  0 0.67533482E+03</rscale>
<asrwt>0</asrwt>
<pdfrwt beam="1">0</pdfrwt>
<pdfrwt beam="2">  1        2 0.41461643E+00 0.67533482E+03</pdfrwt>
<totfact> 0.35003627E+00</totfact>
</mgrwt>
</event>
<event>
 5    1  0.2381755E-004  0.6425841E+03  0.7818608E-02  0.9820795E-01
         13   -1    0    0    0    0  0.00000000000E+00  0.00000000000E+00  0.10000000000E+04  0.10000000000E+04  0.00000000000E+00 0. -1.
          2   -1    0    0  501    0 -0.00000000000E+00 -0.00000000000E+00 -0.10322858040E+03  0.10322858040E+03  0.00000000000E+00 0. -1.
    9000006    2    1    2  501    0  0.00000000000E+00  0.00000000000E+00  0.89677141960E+03  0.11032285804E+04  0.64258409689E+03 0.  0.
         13    1    3    3    0    0  0.28599051903E+03 -0.36106168104E+02  0.69200087331E+03  0.74963954072E+03  0.00000000000E+00 0. -1.
          4    1    3    3  501    0 -0.28599051903E+03  0.36106168104E+02  0.20477054629E+03  0.35358903967E+03  0.00000000000E+00 0. -1.
<mgrwt>
<rscale>  0 0.64258410E+03</rscale>
<asrwt>0</asrwt>
<pdfrwt beam="1">0</pdfrwt>
<pdfrwt beam="2">  1        2 0.37537745E+00 0.64258410E+03</pdfrwt>
<totfact> 0.49188441E+00</totfact>
</mgrwt>
</event>
<event>
 5    1  0.2381755E-004  0.6498011E+03  0.7818608E-02  0.9807152E-01
         13   -1    0    0    0    0  0.00000000000E+00  0.00000000000E+00  0.10000000000E+04  0.10000000000E+04  0.00000000000E+00 0. -1.
          2   -1    0    0  501    0 -0.00000000000E+00 -0.00000000000E+00 -0.10556036366E+03  0.10556036366E+03  0.00000000000E+00 0. -1.
    9000006    2    1    2  501    0  0.00000000000E+00  0.00000000000E+00  0.89443963634E+03  0.11055603637E+04  0.64980108853E+03 0.  0.
         13    1    3    3    0    0 -0.35378065910E+02 -0.32296310244E+03  0.44399589895E+03  0.55017191074E+03  0.00000000000E+00 0. -1.
          2    1    3    3  501    0  0.35378065910E+02  0.32296310244E+03  0.45044373739E+03  0.55538845292E+03  0.00000000000E+00 0. -1.
<mgrwt>
<rscale>  0 0.64980109E+03</rscale>
<asrwt>0</asrwt>
<pdfrwt beam="1">0</pdfrwt>
<pdfrwt beam="2">  1        2 0.38385668E+00 0.64980109E+03</pdfrwt>
<totfact> 0.45745020E+00</totfact>
</mgrwt>
</event>
<event>
 5    1  0.2381755E-004  0.6517070E+03  0.7818608E-02  0.9803581E-01
         13   -1    0    0    0    0  0.00000000000E+00  0.00000000000E+00  0.10000000000E+04  0.10000000000E+04  0.00000000000E+00 0. -1.
          2   -1    0    0  501    0 -0.00000000000E+00 -0.00000000000E+00 -0.10618051161E+03  0.10618051161E+03  0.00000000000E+00 0. -1.
    9000006    2    1    2  501    0  0.00000000000E+00  0.00000000000E+00  0.89381948839E+03  0.11061805116E+04  0.65170702501E+03 0.  0.
         13    1    3    3    0    0 -0.23750667511E+03  0.11522949250E+03  0.77115968171E+03  0.81509171960E+03  0.00000000000E+00 0. -1.
          4    1    3    3  501    0  0.23750667511E+03 -0.11522949250E+03  0.12265980668E+03  0.29108879202E+03  0.00000000000E+00 0. -1.
<mgrwt>
<rscale>  0 0.65170703E+03</rscale>
<asrwt>0</asrwt>
<pdfrwt beam="1">0</pdfrwt>
<pdfrwt beam="2">  1        2 0.38611177E+00 0.65170703E+03</pdfrwt>
<totfact> 0.44866887E+00</totfact>
</mgrwt>
</event>
<event>
 5    1  0.2381755E-004  0.6526990E+03  0.7818608E-02  0.9801728E-01
         13   -1    0    0    0    0  0.00000000000E+00  0.00000000000E+00  0.10000000000E+04  0.10000000000E+04  0.00000000000E+00 0. -1.
          2   -1    0    0  501    0 -0.00000000000E+00 -0.00000000000E+00 -0.10650399220E+03  0.10650399220E+03  0.00000000000E+00 0. -1.
    9000006    2    1    2  501    0  0.00000000000E+00  0.00000000000E+00  0.89349600780E+03  0.11065039922E+04  0.65269898788E+03 0.  0.
         13    1    3    3    0    0  0.20015570565E+03  0.58254238785E+02  0.87242104751E+03  0.89698068373E+03  0.00000000000E+00 0. -1.
          4    1    3    3  501    0 -0.20015570565E+03 -0.58254238785E+02  0.21074960295E+02  0.20952330847E+03  0.00000000000E+00 0. -1.
<mgrwt>
<rscale>  0 0.65269899E+03</rscale>
<asrwt>0</asrwt>
<pdfrwt beam="1">0</pdfrwt>
<pdfrwt beam="2">  1        2 0.38728806E+00 0.65269899E+03</pdfrwt>
<totfact> 0.44414926E+00</totfact>
</mgrwt>
</event>
<event>
 5    1  0.2381755E-004  0.6521369E+03  0.7818608E-02  0.9802778E-01
         13   -1    0    0    0    0  0.00000000000E+00  0.00000000000E+00  0.10000000000E+04  0.10000000000E+04  0.00000000000E+00 0. -1.
          2   -1    0    0  501    0 -0.00000000000E+00 -0.00000000000E+00 -0.10632063956E+03  0.10632063956E+03  0.00000000000E+00 0. -1.
    9000006    2    1    2  501    0  0.00000000000E+00  0.00000000000E+00  0.89367936044E+03  0.11063206396E+04  0.65213691680E+03 0.  0.
         13    1    3    3    0    0 -0.80872436812E+02  0.31020662890E+03  0.54794802864E+03  0.63483505396E+03  0.00000000000E+00 0. -1.
          4    1    3    3  501    0  0.80872436812E+02 -0.31020662890E+03  0.34573133180E+03  0.47148558561E+03  0.00000000000E+00 0. -1.
<mgrwt>
<rscale>  0 0.65213692E+03</rscale>
<asrwt>0</asrwt>
<pdfrwt beam="1">0</pdfrwt>
<pdfrwt beam="2">  1        2 0.38662132E+00 0.65213692E+03</pdfrwt>
<totfact> 0.44670594E+00</totfact>
</mgrwt>
</event>
<event>
 5    1  0.2381755E-004  0.6550120E+03  0.7818608E-02  0.9797420E-01
         13   -1    0    0    0    0  0.00000000000E+00  0.00000000000E+00  0.10000000000E+04  0.10000000000E+04  0.00000000000E+00 0. -1.
          2   -1    0    0  501    0 -0.00000000000E+00 -0.00000000000E+00 -0.10726016979E+03  0.10726016979E+03  0.00000000000E+00 0. -1.
    9000006    2    1    2  501    0  0.00000000000E+00  0.00000000000E+00  0.89273983021E+03  0.11072601698E+04  0.65501196872E+03 0.  0.
         13    1    3    3    0    0 -0.75858874265E+02 -0.12304116048E+03  0.94316013371E+03  0.95417227679E+03  0.00000000000E+00 0. -1.
          4    1    3    3  501    0  0.75858874265E+02  0.12304116048E+03 -0.50420303502E+02  0.15308789300E+03  0.00000000000E+00 0. -1.
<mgrwt>
<rscale>  0 0.65501197E+03</rscale>
<asrwt>0</asrwt>
<pdfrwt beam="1">0</pdfrwt>
<pdfrwt beam="2">  1        2 0.39003780E+00 0.65501197E+03</pdfrwt>
<totfact> 0.43374438E+00</totfact>
</mgrwt>
</event>
<event>
 5    1  0.2381755E-004  0.6472699E+03  0.7818608E-02  0.9811915E-01
         13   -1    0    0    0    0  0.00000000000E+00  0.00000000000E+00  0.10000000000E+04  0.10000000000E+04  0.00000000000E+00 0. -1.
          2   -1    0    0  501    0 -0.00000000000E+00 -0.00000000000E+00 -0.10473959518E+03  0.10473959518E+03  0.00000000000E+00 0. -1.
    9000006    2    1    2  501    0  0.00000000000E+00  0.00000000000E+00  0.89526040482E+03  0.11047395952E+04  0.64726994425E+03 0.  0.
         13    1    3    3    0    0 -0.30274951774E+02  0.79303137689E+02 -0.85400928464E+02  0.12041129073E+03  0.00000000000E+00 0. -1.
          4    1    3    3  501    0  0.30274951774E+02 -0.79303137689E+02  0.98066133328E+03  0.98432830445E+03  0.00000000000E+00 0. -1.
<mgrwt>
<rscale>  0 0.64726994E+03</rscale>
<asrwt>0</asrwt>
<pdfrwt beam="1">0</pdfrwt>
<pdfrwt beam="2">  1        2 0.38087206E+00 0.64726994E+03</pdfrwt>
<totfact> 0.46931215E+00</totfact>
</mgrwt>
</event>
<event>
 5    1  0.2381755E-004  0.6502000E+03  0.7818608E-02  0.9806404E-01
         13   -1    0    0    0    0  0.00000000000E+00  0.00000000000E+00  0.10000000000E+04  0.10000000000E+04  0.00000000000E+00 0. -1.
          2   -1    0    0  501    0 -0.00000000000E+00 -0.00000000000E+00 -0.10569000328E+03  0.10569000328E+03  0.00000000000E+00 0. -1.
    9000006    2    1    2  501    0  0.00000000000E+00  0.00000000000E+00  0.89430999672E+03  0.11056900033E+04  0.65019997932E+03 0.  0.
         13    1    3    3    0    0  0.24752826924E+03 -0.14423045015E+03  0.70849259331E+03  0.76422144801E+03  0.00000000000E+00 0. -1.
          4    1    3    3  501    0 -0.24752826924E+03  0.14423045015E+03  0.18581740342E+03  0.34146855527E+03  0.00000000000E+00 0. -1.
<mgrwt>
<rscale>  0 0.65019998E+03</rscale>
<asrwt>0</asrwt>
<pdfrwt beam="1">0</pdfrwt>
<pdfrwt beam="2">  1        2 0.38432810E+00 0.65019998E+03</pdfrwt>
<totfact> 0.45560172E+00</totfact>
</mgrwt>
</event>
<event>
 5    1  0.2381755E-004  0.6397738E+03  0.7818608E-02  0.9826159E-01
         13   -1    0    0    0    0  0.00000000000E+00  0.00000000000E+00  0.10000000000E+04  0.10000000000E+04  0.00000000000E+00 0. -1.
          2   -1    0    0  501    0 -0.00000000000E+00 -0.00000000000E+00 -0.10232761927E+03  0.10232761927E+03  0.00000000000E+00 0. -1.
    9000006    2    1    2  501    0  0.00000000000E+00  0.00000000000E+00  0.89767238073E+03  0.11023276193E+04  0.63977377022E+03 0.  0.
         13    1    3    3    0    0  0.72818909107E+02 -0.11295719128E+03  0.94899701378E+03  0.95846609369E+03  0.00000000000E+00 0. -1.
          2    1    3    3  501    0 -0.72818909107E+02  0.11295719128E+03 -0.51324633044E+02  0.14386152558E+03  0.00000000000E+00 0. -1.
<mgrwt>
<rscale>  0 0.63977377E+03</rscale>
<asrwt>0</asrwt>
<pdfrwt beam="1">0</pdfrwt>
<pdfrwt beam="2">  1        2 0.37210122E+00 0.63977377E+03</pdfrwt>
<totfact> 0.50581174E+00</totfact>
</mgrwt>
</event>
<event>
 5    1  0.2381755E-004  0.6652965E+03  0.7818608E-02  0.9778492E-01
         13   -1    0    0    0    0  0.00000000000E+00  0.00000000000E+00  0.10000000000E+04  0.10000000000E+04  0.00000000000E+00 0. -1.
          2   -1    0    0  501    0 -0.00000000000E+00 -0.00000000000E+00 -0.11065485188E+03  0.11065485188E+03  0.00000000000E+00 0. -1.
    9000006    2    1    2  501    0  0.00000000000E+00  0.00000000000E+00  0.88934514812E+03  0.11106548519E+04  0.66529648092E+03 0.  0.
         13    1    3    3    0    0  0.28182855718E+03  0.89025443867E+02  0.69950833125E+03  0.75938446836E+03  0.00000000000E+00 0. -1.
          2    1    3    3  501    0 -0.28182855718E+03 -0.89025443867E+02  0.18983681687E+03  0.35127038352E+03  0.00000000000E+00 0. -1.
<mgrwt>
<rscale>  0 0.66529648E+03</rscale>
<asrwt>0</asrwt>
<pdfrwt beam="1">0</pdfrwt>
<pdfrwt beam="2">  1        2 0.40238213E+00 0.66529648E+03</pdfrwt>
<totfact> 0.38969252E+00</totfact>
</mgrwt>
</event>
<event>
 5    1  0.2381755E-004  0.6576384E+03  0.7818608E-02  0.9792551E-01
         13   -1    0    0    0    0  0.00000000000E+00  0.00000000000E+00  0.10000000000E+04  0.10000000000E+04  0.00000000000E+00 0. -1.
          2   -1    0    0  501    0 -0.00000000000E+00 -0.00000000000E+00 -0.10812205840E+03  0.10812205840E+03  0.00000000000E+00 0. -1.
    9000006    2    1    2  501    0  0.00000000000E+00  0.00000000000E+00  0.89187794160E+03  0.11081220584E+04  0.65763837601E+03 0.  0.
         13    1    3    3    0    0  0.19857116859E+03  0.23866214052E+03  0.62844836435E+03  0.70095468681E+03  0.00000000000E+00 0. -1.
          4    1    3    3  501    0 -0.19857116859E+03 -0.23866214052E+03  0.26342957725E+03  0.40716737159E+03  0.00000000000E+00 0. -1.
<mgrwt>
<rscale>  0 0.65763838E+03</rscale>
<asrwt>0</asrwt>
<pdfrwt beam="1">0</pdfrwt>
<pdfrwt beam="2">  1        2 0.39317195E+00 0.65763838E+03</pdfrwt>
<totfact> 0.42215393E+00</totfact>
</mgrwt>
</event>
<event>
 5    1  0.2381755E-004  0.6685037E+03  0.7818608E-02  0.9772665E-01
         13   -1    0    0    0    0  0.00000000000E+00  0.00000000000E+00  0.10000000000E+04  0.10000000000E+04  0.00000000000E+00 0. -1.
          2   -1    0    0  501    0 -0.00000000000E+00 -0.00000000000E+00 -0.11172430626E+03  0.11172430626E+03  0.00000000000E+00 0. -1.
    9000006    2    1    2  501    0  0.00000000000E+00  0.00000000000E+00  0.88827569374E+03  0.11117243063E+04  0.66850372102E+03 0.  0.
         13    1    3    3    0    0 -0.12074742333E+03 -0.23647929693E+03  0.78178051039E+03  0.82564106278E+03  0.00000000000E+00 0. -1.
          2    1    3    3  501    0  0.12074742333E+03  0.23647929693E+03  0.10649518335E+03  0.28608324347E+03  0.00000000000E+00 0. -1.
<mgrwt>
<rscale>  0 0.66850372E+03</rscale>
<asrwt>0</asrwt>
<pdfrwt beam="1">0</pdfrwt>
<pdfrwt beam="2">  1        2 0.40627106E+00 0.66850372E+03</pdfrwt>
<totfact> 0.37667239E+00</totfact>
</mgrwt>
</event>
<event>
 5    1  0.2381755E-004  0.6474822E+03  0.7818608E-02  0.9811515E-01
         13   -1    0    0    0    0  0.00000000000E+00  0.00000000000E+00  0.10000000000E+04  0.10000000000E+04  0.00000000000E+00 0. -1.
          2   -1    0    0  501    0 -0.00000000000E+00 -0.00000000000E+00 -0.10480831230E+03  0.10480831230E+03  0.00000000000E+00 0. -1.
    9000006    2    1    2  501    0  0.00000000000E+00  0.00000000000E+00  0.89519168770E+03  0.11048083123E+04  0.64748223853E+03 0.  0.
         13    1    3    3    0    0  0.30410931856E+03 -0.46822530294E+02  0.61936235519E+03  0.69158119842E+03  0.00000000000E+00 0. -1.
          2    1    3    3  501    0 -0.30410931856E+03  0.46822530294E+02  0.27582933251E+03  0.41322711389E+03  0.00000000000E+00 0. -1.
<mgrwt>
<rscale>  0 0.64748224E+03</rscale>
<asrwt>0</asrwt>
<pdfrwt beam="1">0</pdfrwt>
<pdfrwt beam="2">  1        2 0.38112194E+00 0.64748224E+03</pdfrwt>
<totfact> 0.46830842E+00</totfact>
</mgrwt>
</event>
<event>
 5    1  0.2381755E-004  0.6534972E+03  0.7818608E-02  0.9800239E-01
         13   -1    0    0    0    0  0.00000000000E+00  0.00000000000E+00  0.10000000000E+04  0.10000000000E+04  0.00000000000E+00 0. -1.
          2   -1    0    0  501    0 -0.00000000000E+00 -0.00000000000E+00 -0.10676464809E+03  0.10676464809E+03  0.00000000000E+00 0. -1.
    9000006    2    1    2  501    0  0.00000000000E+00  0.00000000000E+00  0.89323535191E+03  0.11067646481E+04  0.65349720151E+03 0.  0.
         13    1    3    3    0    0 -0.72449456928E+02  0.29806200173E+03  0.63728731558E+03  0.70726586464E+03  0.00000000000E+00 0. -1.
          2    1    3    3  501    0  0.72449456928E+02 -0.29806200173E+03  0.25594803633E+03  0.39949878346E+03  0.00000000000E+00 0. -1.
<mgrwt>
<rscale>  0 0.65349720E+03</rscale>
<asrwt>0</asrwt>
<pdfrwt beam="1">0</pdfrwt>
<pdfrwt beam="2">  1        2 0.38823590E+00 0.65349720E+03</pdfrwt>
<totfact> 0.44053745E+00</totfact>
</mgrwt>
</event>
<event>
 5    1  0.2381755E-004  0.6485059E+03  0.7818608E-02  0.9809587E-01
         13   -1    0    0    0    0  0.00000000000E+00  0.00000000000E+00  0.10000000000E+04  0.10000000000E+04  0.00000000000E+00 0. -1.
          2   -1    0    0  501    0 -0.00000000000E+00 -0.00000000000E+00 -0.10513997460E+03  0.10513997460E+03  0.00000000000E+00 0. -1.
    9000006    2    1    2  501    0  0.00000000000E+00  0.00000000000E+00  0.89486002540E+03  0.11051399746E+04  0.64850589695E+03 0.  0.
         13    1    3    3    0    0  0.88036697673E+02 -0.27440754997E+03  0.19414976362E+03  0.34748250938E+03  0.00000000000E+00 0. -1.
          4    1    3    3  501    0 -0.88036697673E+02  0.27440754997E+03  0.70071026179E+03  0.75765746521E+03  0.00000000000E+00 0. -1.
<mgrwt>
<rscale>  0 0.64850590E+03</rscale>
<asrwt>0</asrwt>
<pdfrwt beam="1">0</pdfrwt>
<pdfrwt beam="2">  1        2 0.38232799E+00 0.64850590E+03</pdfrwt>
<totfact> 0.46349130E+00</totfact>
</mgrwt>
</event>
<event>
 5    1  0.2381755E-004  0.6485096E+03  0.7818608E-02  0.9809580E-01
         13   -1    0    0    0    0  0.00000000000E+00  0.00000000000E+00  0.10000000000E+04  0.10000000000E+04  0.00000000000E+00 0. -1.
          2   -1    0    0  501    0 -0.00000000000E+00 -0.00000000000E+00 -0.10514117563E+03  0.10514117563E+03  0.00000000000E+00 0. -1.
    9000006    2    1    2  501    0  0.00000000000E+00  0.00000000000E+00  0.89485882437E+03  0.11051411756E+04  0.64850960094E+03 0.  0.
         13    1    3    3    0    0 -0.75693401019E+02 -0.16944409773E+03 -0.56895444641E+01  0.18566950242E+03  0.00000000000E+00 0. -1.
          4    1    3    3  501    0  0.75693401019E+02  0.16944409773E+03  0.90054836884E+03  0.91947167321E+03  0.00000000000E+00 0. -1.
<mgrwt>
<rscale>  0 0.64850960E+03</rscale>
<asrwt>0</asrwt>
<pdfrwt beam="1">0</pdfrwt>
<pdfrwt beam="2">  1        2 0.38233235E+00 0.64850960E+03</pdfrwt>
<totfact> 0.46347394E+00</totfact>
</mgrwt>
</event>
<event>
 5    1  0.2381755E-004  0.6417757E+03  0.7818608E-02  0.9822335E-01
         13   -1    0    0    0    0  0.00000000000E+00  0.00000000000E+00  0.10000000000E+04  0.10000000000E+04  0.00000000000E+00 0. -1.
          2   -1    0    0  501    0 -0.00000000000E+00 -0.00000000000E+00 -0.10296902299E+03  0.10296902299E+03  0.00000000000E+00 0. -1.
    9000006    2    1    2  501    0  0.00000000000E+00  0.00000000000E+00  0.89703097701E+03  0.11029690230E+04  0.64177573339E+03 0.  0.
         13    1    3    3    0    0  0.27478713129E+03 -0.15677600561E+03  0.54078380419E+03  0.62652518412E+03  0.00000000000E+00 0. -1.
          4    1    3    3  501    0 -0.27478713129E+03  0.15677600561E+03  0.35624717282E+03  0.47644383887E+03  0.00000000000E+00 0. -1.
<mgrwt>
<rscale>  0 0.64177573E+03</rscale>
<asrwt>0</asrwt>
<pdfrwt beam="1">0</pdfrwt>
<pdfrwt beam="2">  1        2 0.37443360E+00 0.64177573E+03</pdfrwt>
<totfact> 0.49586034E+00</totfact>
</mgrwt>
</event>
<event>
 5    1  0.2381755E-004  0.6521111E+03  0.7818608E-02  0.9802826E-01
         13   -1    0    0    0    0  0.00000000000E+00  0.00000000000E+00  0.10000000000E+04  0.10000000000E+04  0.00000000000E+00 0. -1.
          2   -1    0    0  501    0 -0.00000000000E+00 -0.00000000000E+00 -0.10631221010E+03  0.10631221010E+03  0.00000000000E+00 0. -1.
    9000006    2    1    2  501    0  0.00000000000E+00  0.00000000000E+00  0.89368778990E+03  0.11063122101E+04  0.65211106445E+03 0.  0.
         13    1    3    3    0    0  0.66814036601E+01  0.31908538617E+03  0.56004166555E+03  0.64459816318E+03  0.00000000000E+00 0. -1.
          2    1    3    3  501    0 -0.66814036601E+01 -0.31908538617E+03  0.33364612435E+03  0.46171404691E+03  0.00000000000E+00 0. -1.
<mgrwt>
<rscale>  0 0.65211106E+03</rscale>
<asrwt>0</asrwt>
<pdfrwt beam="1">0</pdfrwt>
<pdfrwt beam="2">  1        2 0.38659067E+00 0.65211106E+03</pdfrwt>
<totfact> 0.44682380E+00</totfact>
</mgrwt>
</event>
<event>
 5    1  0.2381755E-004  0.6266126E+03  0.7818608E-02  0.9851681E-01
         13   -1    0    0    0    0  0.00000000000E+00  0.00000000000E+00  0.10000000000E+04  0.10000000000E+04  0.00000000000E+00 0. -1.
          2   -1    0    0  501    0 -0.00000000000E+00 -0.00000000000E+00 -0.98160841044E+02  0.98160841044E+02  0.00000000000E+00 0. -1.
    9000006    2    1    2  501    0  0.00000000000E+00  0.00000000000E+00  0.90183915896E+03  0.10981608410E+04  0.62661261093E+03 0.  0.
         13    1    3    3    0    0 -0.54996984875E+02  0.16208136997E+03 -0.89859463080E+01  0.17139365819E+03  0.00000000000E+00 0. -1.
          2    1    3    3  501    0  0.54996984875E+02 -0.16208136997E+03  0.91082510526E+03  0.92676718285E+03  0.00000000000E+00 0. -1.
<mgrwt>
<rscale>  0 0.62661261E+03</rscale>
<asrwt>0</asrwt>
<pdfrwt beam="1">0</pdfrwt>
<pdfrwt beam="2">  1        2 0.35694927E+00 0.62661261E+03</pdfrwt>
<totfact> 0.57505612E+00</totfact>
</mgrwt>
</event>
<event>
 5    1  0.2381755E-004  0.6225797E+03  0.7818608E-02  0.9859637E-01
         13   -1    0    0    0    0  0.00000000000E+00  0.00000000000E+00  0.10000000000E+04  0.10000000000E+04  0.00000000000E+00 0. -1.
          2   -1    0    0  501    0 -0.00000000000E+00 -0.00000000000E+00 -0.96901358240E+02  0.96901358240E+02  0.00000000000E+00 0. -1.
    9000006    2    1    2  501    0  0.00000000000E+00  0.00000000000E+00  0.90309864176E+03  0.10969013582E+04  0.62257965993E+03 0.  0.
         13    1    3    3    0    0  0.19266994442E+03 -0.24130040395E+03  0.52099822977E+03  0.60562921648E+03  0.00000000000E+00 0. -1.
          2    1    3    3  501    0 -0.19266994442E+03  0.24130040395E+03  0.38210041199E+03  0.49127214176E+03  0.00000000000E+00 0. -1.
<mgrwt>
<rscale>  0 0.62257966E+03</rscale>
<asrwt>0</asrwt>
<pdfrwt beam="1">0</pdfrwt>
<pdfrwt beam="2">  1        2 0.35236932E+00 0.62257966E+03</pdfrwt>
<totfact> 0.59765068E+00</totfact>
</mgrwt>
</event>
<event>
 5    1  0.2381755E-004  0.6690487E+03  0.7818608E-02  0.9771678E-01
         13   -1    0    0    0    0  0.00000000000E+00  0.00000000000E+00  0.10000000000E+04  0.10000000000E+04  0.00000000000E+00 0. -1.
          2   -1    0    0  501    0 -0.00000000000E+00 -0.00000000000E+00 -0.11190653421E+03  0.11190653421E+03  0.00000000000E+00 0. -1.
    9000006    2    1    2  501    0  0.00000000000E+00  0.00000000000E+00  0.88809346579E+03  0.11119065342E+04  0.66904868047E+03 0.  0.
         13    1    3    3    0    0 -0.98781483879E+01  0.55223353954E+02  0.99212658936E+03  0.99371140979E+03  0.00000000000E+00 0. -1.
          4    1    3    3  501    0  0.98781483879E+01 -0.55223353954E+02 -0.10403312357E+03  0.11819512442E+03  0.00000000000E+00 0. -1.
<mgrwt>
<rscale>  0 0.66904868E+03</rscale>
<asrwt>0</asrwt>
<pdfrwt beam="1">0</pdfrwt>
<pdfrwt beam="2">  1        2 0.40693371E+00 0.66904868E+03</pdfrwt>
<totfact> 0.37449309E+00</totfact>
</mgrwt>
</event>
<event>
 5    1  0.2381755E-004  0.6506646E+03  0.7818608E-02  0.9805533E-01
         13   -1    0    0    0    0  0.00000000000E+00  0.00000000000E+00  0.10000000000E+04  0.10000000000E+04  0.00000000000E+00 0. -1.
          2   -1    0    0  501    0 -0.00000000000E+00 -0.00000000000E+00 -0.10584109976E+03  0.10584109976E+03  0.00000000000E+00 0. -1.
    9000006    2    1    2  501    0  0.00000000000E+00  0.00000000000E+00  0.89415890024E+03  0.11058410998E+04  0.65066458260E+03 0.  0.
         13    1    3    3    0    0  0.95546593232E+02  0.10385865772E+03  0.94527077110E+03  0.95574714384E+03  0.00000000000E+00 0. -1.
          4    1    3    3  501    0 -0.95546593232E+02 -0.10385865772E+03 -0.51111870858E+02  0.15009395592E+03  0.00000000000E+00 0. -1.
<mgrwt>
<rscale>  0 0.65066458E+03</rscale>
<asrwt>0</asrwt>
<pdfrwt beam="1">0</pdfrwt>
<pdfrwt beam="2">  1        2 0.38487754E+00 0.65066458E+03</pdfrwt>
<totfact> 0.45345584E+00</totfact>
</mgrwt>
</event>
<event>
 5    1  0.2381755E-004  0.6533848E+03  0.7818608E-02  0.9800449E-01
         13   -1    0    0    0    0  0.00000000000E+00  0.00000000000E+00  0.10000000000E+04  0.10000000000E+04  0.00000000000E+00 0. -1.
          2   -1    0    0  501    0 -0.00000000000E+00 -0.00000000000E+00 -0.10672790948E+03  0.10672790948E+03  0.00000000000E+00 0. -1.
    9000006    2    1    2  501    0  0.00000000000E+00  0.00000000000E+00  0.89327209052E+03  0.11067279095E+04  0.65338475489E+03 0.  0.
         13    1    3    3    0    0 -0.29752654919E+03 -0.25634952819E+02  0.22225070569E+03  0.37225606034E+03  0.00000000000E+00 0. -1.
          2    1    3    3  501    0  0.29752654919E+03  0.25634952819E+02  0.67102138483E+03  0.73447184914E+03  0.00000000000E+00 0. -1.
<mgrwt>
<rscale>  0 0.65338475E+03</rscale>
<asrwt>0</asrwt>
<pdfrwt beam="1">0</pdfrwt>
<pdfrwt beam="2">  1        2 0.38810231E+00 0.65338475E+03</pdfrwt>
<totfact> 0.44104491E+00</totfact>
</mgrwt>
</event>
<event>
 5    1  0.2381755E-004  0.6347819E+03  0.7818608E-02  0.9835761E-01
         13   -1    0    0    0    0  0.00000000000E+00  0.00000000000E+00  0.10000000000E+04  0.10000000000E+04  0.00000000000E+00 0. -1.
          2   -1    0    0  501    0 -0.00000000000E+00 -0.00000000000E+00 -0.10073702925E+03  0.10073702925E+03  0.00000000000E+00 0. -1.
    9000006    2    1    2  501    0  0.00000000000E+00  0.00000000000E+00  0.89926297075E+03  0.11007370293E+04  0.63478194446E+03 0.  0.
         13    1    3    3    0    0  0.36741089560E+02 -0.13057711528E+03  0.94720338010E+03  0.95686704091E+03  0.00000000000E+00 0. -1.
          4    1    3    3  501    0 -0.36741089560E+02  0.13057711528E+03 -0.47940409358E+02  0.14386998834E+03  0.00000000000E+00 0. -1.
<mgrwt>
<rscale>  0 0.63478194E+03</rscale>
<asrwt>0</asrwt>
<pdfrwt beam="1">0</pdfrwt>
<pdfrwt beam="2">  1        2 0.36631724E+00 0.63478194E+03</pdfrwt>
<totfact> 0.53128430E+00</totfact>
</mgrwt>
</event>
<event>
 5    1  0.2381755E-004  0.6470699E+03  0.7818608E-02  0.9812293E-01
         13   -1    0    0    0    0  0.00000000000E+00  0.00000000000E+00  0.10000000000E+04  0.10000000000E+04  0.00000000000E+00 0. -1.
          2   -1    0    0  501    0 -0.00000000000E+00 -0.00000000000E+00 -0.10467486703E+03  0.10467486703E+03  0.00000000000E+00 0. -1.
    9000006    2    1    2  501    0  0.00000000000E+00  0.00000000000E+00  0.89532513297E+03  0.11046748670E+04  0.64706990977E+03 0.  0.
         13    1    3    3    0    0 -0.27567977518E+03  0.90919756665E+02  0.20377173361E+03  0.35466697057E+03  0.00000000000E+00 0. -1.
          2    1    3    3  501    0  0.27567977518E+03 -0.90919756665E+02  0.69155339936E+03  0.75000789646E+03  0.00000000000E+00 0. -1.
<mgrwt>
<rscale>  0 0.64706991E+03</rscale>
<asrwt>0</asrwt>
<pdfrwt beam="1">0</pdfrwt>
<pdfrwt beam="2">  1        2 0.38063668E+00 0.64706991E+03</pdfrwt>
<totfact> 0.47025941E+00</totfact>
</mgrwt>
</event>
<event>
 5    1  0.2381755E-004  0.6479911E+03  0.7818608E-02  0.9810556E-01
         13   -1    0    0    0    0  0.00000000000E+00  0.00000000000E+00  0.10000000000E+04  0.10000000000E+04  0.00000000000E+00 0. -1.
          2   -1    0    0  501    0 -0.00000000000E+00 -0.00000000000E+00 -0.10497311007E+03  0.10497311007E+03  0.00000000000E+00 0. -1.
    9000006    2    1    2  501    0  0.00000000000E+00  0.00000000000E+00  0.89502688993E+03  0.11049731101E+04  0.64799108040E+03 0.  0.
         13    1    3    3    0    0  0.19713846270E+03  0.21836315071E+03  0.67899203919E+03  0.73998393790E+03  0.00000000000E+00 0. -1.
          4    1    3    3  501    0 -0.19713846270E+03 -0.21836315071E+03  0.21603485074E+03  0.36498917217E+03  0.00000000000E+00 0. -1.
<mgrwt>
<rscale>  0 0.64799108E+03</rscale>
<asrwt>0</asrwt>
<pdfrwt beam="1">0</pdfrwt>
<pdfrwt beam="2">  1        2 0.38172121E+00 0.64799108E+03</pdfrwt>
<totfact> 0.46590921E+00</totfact>
</mgrwt>
</event>
<event>
 5    1  0.2381755E-004  0.6569145E+03  0.7818608E-02  0.9793890E-01
         13   -1    0    0    0    0  0.00000000000E+00  0.00000000000E+00  0.10000000000E+04  0.10000000000E+04  0.00000000000E+00 0. -1.
          2   -1    0    0  501    0 -0.00000000000E+00 -0.00000000000E+00 -0.10788417392E+03  0.10788417392E+03  0.00000000000E+00 0. -1.
    9000006    2    1    2  501    0  0.00000000000E+00  0.00000000000E+00  0.89211582608E+03  0.11078841739E+04  0.65691452691E+03 0.  0.
         13    1    3    3    0    0 -0.14790166844E+03 -0.29177164602E+03  0.39606880360E+03  0.51368871327E+03  0.00000000000E+00 0. -1.
          4    1    3    3  501    0  0.14790166844E+03  0.29177164602E+03  0.49604702248E+03  0.59419546065E+03  0.00000000000E+00 0. -1.
<mgrwt>
<rscale>  0 0.65691453E+03</rscale>
<asrwt>0</asrwt>
<pdfrwt beam="1">0</pdfrwt>
<pdfrwt beam="2">  1        2 0.39230691E+00 0.65691453E+03</pdfrwt>
<totfact> 0.42532467E+00</totfact>
</mgrwt>
</event>
<event>
 5    1  0.2381755E-004  0.6193890E+03  0.7818608E-02  0.9865977E-01
         13   -1    0    0    0    0  0.00000000000E+00  0.00000000000E+00  0.10000000000E+04  0.10000000000E+04  0.00000000000E+00 0. -1.
          2   -1    0    0  501    0 -0.00000000000E+00 -0.00000000000E+00 -0.95910676317E+02  0.95910676317E+02  0.00000000000E+00 0. -1.
    9000006    2    1    2  501    0  0.00000000000E+00  0.00000000000E+00  0.90408932368E+03  0.10959106763E+04  0.61938897736E+03 0.  0.
         13    1    3    3    0    0 -0.21718548228E+03  0.21465761283E+03  0.54335454875E+03  0.62328291338E+03  0.00000000000E+00 0. -1.
          2    1    3    3  501    0  0.21718548228E+03 -0.21465761283E+03  0.36073477493E+03  0.47262776294E+03  0.00000000000E+00 0. -1.
<mgrwt>
<rscale>  0 0.61938898E+03</rscale>
<asrwt>0</asrwt>
<pdfrwt beam="1">0</pdfrwt>
<pdfrwt beam="2">  1        2 0.34876683E+00 0.61938898E+03</pdfrwt>
<totfact> 0.61599974E+00</totfact>
</mgrwt>
</event>
<event>
 5    1  0.2381755E-004  0.6233790E+03  0.7818608E-02  0.9858055E-01
         13   -1    0    0    0    0  0.00000000000E+00  0.00000000000E+00  0.10000000000E+04  0.10000000000E+04  0.00000000000E+00 0. -1.
          2   -1    0    0  501    0 -0.00000000000E+00 -0.00000000000E+00 -0.97150331066E+02  0.97150331066E+02  0.00000000000E+00 0. -1.
    9000006    2    1    2  501    0  0.00000000000E+00  0.00000000000E+00  0.90284966893E+03  0.10971503311E+04  0.62337895719E+03 0.  0.
         13    1    3    3    0    0 -0.17420932722E+02  0.15681000517E+03 -0.21677792263E+02  0.15925700391E+03  0.00000000000E+00 0. -1.
          4    1    3    3  501    0  0.17420932722E+02 -0.15681000517E+03  0.92452746120E+03  0.93789332716E+03  0.00000000000E+00 0. -1.
<mgrwt>
<rscale>  0 0.62337896E+03</rscale>
<asrwt>0</asrwt>
<pdfrwt beam="1">0</pdfrwt>
<pdfrwt beam="2">  1        2 0.35327468E+00 0.62337896E+03</pdfrwt>
<totfact> 0.59311991E+00</totfact>
</mgrwt>
</event>
<event>
 5    1  0.2381755E-004  0.6316363E+03  0.7818608E-02  0.9841861E-01
         13   -1    0    0    0    0  0.00000000000E+00  0.00000000000E+00  0.10000000000E+04  0.10000000000E+04  0.00000000000E+00 0. -1.
          2   -1    0    0  501    0 -0.00000000000E+00 -0.00000000000E+00 -0.99741095769E+02  0.99741095769E+02  0.00000000000E+00 0. -1.
    9000006    2    1    2  501    0  0.00000000000E+00  0.00000000000E+00  0.90025890423E+03  0.10997410958E+04  0.63163627435E+03 0.  0.
         13    1    3    3    0    0  0.20788801317E+03 -0.23243835921E+03  0.36314281388E+03  0.47866242815E+03  0.00000000000E+00 0. -1.
          4    1    3    3  501    0 -0.20788801317E+03  0.23243835921E+03  0.53711609035E+03  0.62107866762E+03  0.00000000000E+00 0. -1.
<mgrwt>
<rscale>  0 0.63163627E+03</rscale>
<asrwt>0</asrwt>
<pdfrwt beam="1">0</pdfrwt>
<pdfrwt beam="2">  1        2 0.36269566E+00 0.63163627E+03</pdfrwt>
<totfact> 0.54782812E+00</totfact>
</mgrwt>
</event>
<event>
 5    1  0.2381755E-004  0.6145174E+03  0.7818608E-02  0.9875737E-01
         13   -1    0    0    0    0  0.00000000000E+00  0.00000000000E+00  0.10000000000E+04  0.10000000000E+04  0.00000000000E+00 0. -1.
          2   -1    0    0  501    0 -0.00000000000E+00 -0.00000000000E+00 -0.94407899767E+02  0.94407899767E+02  0.00000000000E+00 0. -1.
    9000006    2    1    2  501    0  0.00000000000E+00  0.00000000000E+00  0.90559210023E+03  0.10944078998E+04  0.61451737084E+03 0.  0.
         13    1    3    3    0    0  0.25113071887E+03 -0.17681065000E+03  0.43694125130E+03  0.53408454481E+03  0.00000000000E+00 0. -1.
          4    1    3    3  501    0 -0.25113071887E+03  0.17681065000E+03  0.46865084893E+03  0.56032335496E+03  0.00000000000E+00 0. -1.
<mgrwt>
<rscale>  0 0.61451737E+03</rscale>
<asrwt>0</asrwt>
<pdfrwt beam="1">0</pdfrwt>
<pdfrwt beam="2">  1        2 0.34330218E+00 0.61451737E+03</pdfrwt>
<totfact> 0.64483923E+00</totfact>
</mgrwt>
</event>
<event>
 5    1  0.2381755E-004  0.6407781E+03  0.7818608E-02  0.9824239E-01
         13   -1    0    0    0    0  0.00000000000E+00  0.00000000000E+00  0.10000000000E+04  0.10000000000E+04  0.00000000000E+00 0. -1.
          2   -1    0    0  501    0 -0.00000000000E+00 -0.00000000000E+00 -0.10264913955E+03  0.10264913955E+03  0.00000000000E+00 0. -1.
    9000006    2    1    2  501    0  0.00000000000E+00  0.00000000000E+00  0.89735086045E+03  0.11026491396E+04  0.64077808811E+03 0.  0.
         13    1    3    3    0    0  0.25676498442E+03  0.18877789527E+03  0.50532569930E+03  0.59742732892E+03  0.00000000000E+00 0. -1.
          4    1    3    3  501    0 -0.25676498442E+03 -0.18877789527E+03  0.39202516115E+03  0.50522181063E+03  0.00000000000E+00 0. -1.
<mgrwt>
<rscale>  0 0.64077809E+03</rscale>
<asrwt>0</asrwt>
<pdfrwt beam="1">0</pdfrwt>
<pdfrwt beam="2">  1        2 0.37327039E+00 0.64077809E+03</pdfrwt>
<totfact> 0.50080074E+00</totfact>
</mgrwt>
</event>
<event>
 5    1  0.2381755E-004  0.6471358E+03  0.7818608E-02  0.9812169E-01
         13   -1    0    0    0    0  0.00000000000E+00  0.00000000000E+00  0.10000000000E+04  0.10000000000E+04  0.00000000000E+00 0. -1.
          2   -1    0    0  501    0 -0.00000000000E+00 -0.00000000000E+00 -0.10469618079E+03  0.10469618079E+03  0.00000000000E+00 0. -1.
    9000006    2    1    2  501    0  0.00000000000E+00  0.00000000000E+00  0.89530381921E+03  0.11046961808E+04  0.64713578417E+03 0.  0.
         13    1    3    3    0    0  0.83738983993E+02 -0.29803966729E+03  0.28700436610E+03  0.42215088165E+03  0.00000000000E+00 0. -1.
          4    1    3    3  501    0 -0.83738983993E+02  0.29803966729E+03  0.60829945311E+03  0.68254529914E+03  0.00000000000E+00 0. -1.
<mgrwt>
<rscale>  0 0.64713578E+03</rscale>
<asrwt>0</asrwt>
<pdfrwt beam="1">0</pdfrwt>
<pdfrwt beam="2">  1        2 0.38071419E+00 0.64713578E+03</pdfrwt>
<totfact> 0.46994730E+00</totfact>
</mgrwt>
</event>
<event>
 5    1  0.2381755E-004  0.6590202E+03  0.7818608E-02  0.9789999E-01
         13   -1    0    0    0    0  0.00000000000E+00  0.00000000000E+00  0.10000000000E+04  0.10000000000E+04  0.00000000000E+00 0. -1.
          2   -1    0    0  501    0 -0.00000000000E+00 -0.00000000000E+00 -0.10857691419E+03  0.10857691419E+03  0.00000000000E+00 0. -1.
    9000006    2    1    2  501    0  0.00000000000E+00  0.00000000000E+00  0.89142308581E+03  0.11085769142E+04  0.65902022484E+03 0.  0.
         13    1    3    3    0    0 -0.32296204635E+03  0.13352491853E+02  0.33807777953E+03  0.46773855671E+03  0.00000000000E+00 0. -1.
          4    1    3    3  501    0  0.32296204635E+03 -0.13352491853E+02  0.55334530628E+03  0.64083835747E+03  0.00000000000E+00 0. -1.
<mgrwt>
<rscale>  0 0.65902022E+03</rscale>
<asrwt>0</asrwt>
<pdfrwt beam="1">0</pdfrwt>
<pdfrwt beam="2">  1        2 0.39482598E+00 0.65902022E+03</pdfrwt>
<totfact> 0.41615078E+00</totfact>
</mgrwt>
</event>
<event>
 5    1  0.2381755E-004  0.6528112E+03  0.7818608E-02  0.9801518E-01
         13   -1    0    0    0    0  0.00000000000E+00  0.00000000000E+00  0.10000000000E+04  0.10000000000E+04  0.00000000000E+00 0. -1.
          2   -1    0    0  501    0 -0.00000000000E+00 -0.00000000000E+00 -0.10654060216E+03  0.10654060216E+03  0.00000000000E+00 0. -1.
    9000006    2    1    2  501    0  0.00000000000E+00  0.00000000000E+00  0.89345939784E+03  0.11065406022E+04  0.65281115847E+03 0.  0.
         13    1    3    3    0    0  0.28354357155E+03 -0.14748193465E+03  0.33438650922E+03  0.46256049935E+03  0.00000000000E+00 0. -1.
          4    1    3    3  501    0 -0.28354357155E+03  0.14748193465E+03  0.55907288863E+03  0.64398010281E+03  0.00000000000E+00 0. -1.
<mgrwt>
<rscale>  0 0.65281116E+03</rscale>
<asrwt>0</asrwt>
<pdfrwt beam="1">0</pdfrwt>
<pdfrwt beam="2">  1        2 0.38742119E+00 0.65281116E+03</pdfrwt>
<totfact> 0.44364036E+00</totfact>
</mgrwt>
</event>
<event>
 5    1  0.2381755E-004  0.6405656E+03  0.7818608E-02  0.9824645E-01
         13   -1    0    0    0    0  0.00000000000E+00  0.00000000000E+00  0.10000000000E+04  0.10000000000E+04  0.00000000000E+00 0. -1.
          2   -1    0    0  501    0 -0.00000000000E+00 -0.00000000000E+00 -0.10258107865E+03  0.10258107865E+03  0.00000000000E+00 0. -1.
    9000006    2    1    2  501    0  0.00000000000E+00  0.00000000000E+00  0.89741892135E+03  0.11025810787E+04  0.64056562084E+03 0.  0.
         13    1    3    3    0    0  0.16502919230E+03 -0.21572597997E+03  0.15655731150E+03  0.31350043784E+03  0.00000000000E+00 0. -1.
          4    1    3    3  501    0 -0.16502919230E+03  0.21572597997E+03  0.74086160985E+03  0.78908064081E+03  0.00000000000E+00 0. -1.
<mgrwt>
<rscale>  0 0.64056562E+03</rscale>
<asrwt>0</asrwt>
<pdfrwt beam="1">0</pdfrwt>
<pdfrwt beam="2">  1        2 0.37302289E+00 0.64056562E+03</pdfrwt>
<totfact> 0.50185769E+00</totfact>
</mgrwt>
</event>
<event>
 5    1  0.2381755E-004  0.6249833E+03  0.7818608E-02  0.9854888E-01
         13   -1    0    0    0    0  0.00000000000E+00  0.00000000000E+00  0.10000000000E+04  0.10000000000E+04  0.00000000000E+00 0. -1.
          2   -1    0    0  501    0 -0.00000000000E+00 -0.00000000000E+00 -0.97651040407E+02  0.97651040407E+02  0.00000000000E+00 0. -1.
    9000006    2    1    2  501    0  0.00000000000E+00  0.00000000000E+00  0.90234895959E+03  0.10976510404E+04  0.62498332908E+03 0.  0.
         13    1    3    3    0    0 -0.17006986329E+02 -0.31087959994E+03  0.40418999817E+03  0.51020086031E+03  0.00000000000E+00 0. -1.
          2    1    3    3  501    0  0.17006986329E+02  0.31087959994E+03  0.49815896142E+03  0.58745018009E+03  0.00000000000E+00 0. -1.
<mgrwt>
<rscale>  0 0.62498333E+03</rscale>
<asrwt>0</asrwt>
<pdfrwt beam="1">0</pdfrwt>
<pdfrwt beam="2">  1        2 0.35509544E+00 0.62498333E+03</pdfrwt>
<totfact> 0.58410450E+00</totfact>
</mgrwt>
</event>
<event>
 5    1  0.2381755E-004  0.6257396E+03  0.7818608E-02  0.9853398E-01
         13   -1    0    0    0    0  0.00000000000E+00  0.00000000000E+00  0.10000000000E+04  0.10000000000E+04  0.00000000000E+00 0. -1.
          2   -1    0    0  501    0 -0.00000000000E+00 -0.00000000000E+00 -0.97887497699E+02  0.97887497699E+02  0.00000000000E+00 0. -1.
    9000006    2    1    2  501    0  0.00000000000E+00  0.00000000000E+00  0.90211250230E+03  0.10978874977E+04  0.62573955508E+03 0.  0.
         13    1    3    3    0    0  0.29102253029E+03 -0.11456009844E+03  0.43644305901E+03  0.53693637710E+03  0.00000000000E+00 0. -1.
          2    1    3    3  501    0 -0.29102253029E+03  0.11456009844E+03  0.46566944329E+03  0.56095112060E+03  0.00000000000E+00 0. -1.
<mgrwt>
<rscale>  0 0.62573956E+03</rscale>
<asrwt>0</asrwt>
<pdfrwt beam="1">0</pdfrwt>
<pdfrwt beam="2">  1        2 0.35595529E+00 0.62573956E+03</pdfrwt>
<totfact> 0.57989137E+00</totfact>
</mgrwt>
</event>
<event>
 5    1  0.2381755E-004  0.6488846E+03  0.7818608E-02  0.9808874E-01
         13   -1    0    0    0    0  0.00000000000E+00  0.00000000000E+00  0.10000000000E+04  0.10000000000E+04  0.00000000000E+00 0. -1.
          2   -1    0    0  501    0 -0.00000000000E+00 -0.00000000000E+00 -0.10526279292E+03  0.10526279292E+03  0.00000000000E+00 0. -1.
    9000006    2    1    2  501    0  0.00000000000E+00  0.00000000000E+00  0.89473720708E+03  0.11052627929E+04  0.64888455958E+03 0.  0.
         13    1    3    3    0    0  0.25463269673E+03 -0.59495807855E+02  0.77450161164E+03  0.81745355087E+03  0.00000000000E+00 0. -1.
          2    1    3    3  501    0 -0.25463269673E+03  0.59495807855E+02  0.12023559545E+03  0.28780924205E+03  0.00000000000E+00 0. -1.
<mgrwt>
<rscale>  0 0.64888456E+03</rscale>
<asrwt>0</asrwt>
<pdfrwt beam="1">0</pdfrwt>
<pdfrwt beam="2">  1        2 0.38277460E+00 0.64888456E+03</pdfrwt>
<totfact> 0.46171892E+00</totfact>
</mgrwt>
</event>
<event>
 5    1  0.2381755E-004  0.6422177E+03  0.7818608E-02  0.9821493E-01
         13   -1    0    0    0    0  0.00000000000E+00  0.00000000000E+00  0.10000000000E+04  0.10000000000E+04  0.00000000000E+00 0. -1.
          2   -1    0    0  501    0 -0.00000000000E+00 -0.00000000000E+00 -0.10311089893E+03  0.10311089893E+03  0.00000000000E+00 0. -1.
    9000006    2    1    2  501    0  0.00000000000E+00  0.00000000000E+00  0.89688910107E+03  0.11031108989E+04  0.64221771676E+03 0.  0.
         13    1    3    3    0    0  0.23671547580E+03 -0.41467006281E+02  0.82630933775E+02  0.25412910166E+03  0.00000000000E+00 0. -1.
          4    1    3    3  501    0 -0.23671547580E+03  0.41467006281E+02  0.81425816730E+03  0.84898179727E+03  0.00000000000E+00 0. -1.
<mgrwt>
<rscale>  0 0.64221772E+03</rscale>
<asrwt>0</asrwt>
<pdfrwt beam="1">0</pdfrwt>
<pdfrwt beam="2">  1        2 0.37494951E+00 0.64221772E+03</pdfrwt>
<totfact> 0.49368344E+00</totfact>
</mgrwt>
</event>
<event>
 5    1  0.2381755E-004  0.6600118E+03  0.7818608E-02  0.9788172E-01
         13   -1    0    0    0    0  0.00000000000E+00  0.00000000000E+00  0.10000000000E+04  0.10000000000E+04  0.00000000000E+00 0. -1.
          2   -1    0    0  501    0 -0.00000000000E+00 -0.00000000000E+00 -0.10890389711E+03  0.10890389711E+03  0.00000000000E+00 0. -1.
    9000006    2    1    2  501    0  0.00000000000E+00  0.00000000000E+00  0.89109610289E+03  0.11089038971E+04  0.66001180931E+03 0.  0.
         13    1    3    3    0    0  0.32904795458E+03  0.24133451188E+02  0.43379709740E+03  0.54500908395E+03  0.00000000000E+00 0. -1.
          4    1    3    3  501    0 -0.32904795458E+03 -0.24133451188E+02  0.45729900549E+03  0.56389481316E+03  0.00000000000E+00 0. -1.
<mgrwt>
<rscale>  0 0.66001181E+03</rscale>
<asrwt>0</asrwt>
<pdfrwt beam="1">0</pdfrwt>
<pdfrwt beam="2">  1        2 0.39601501E+00 0.66001181E+03</pdfrwt>
<totfact> 0.41188308E+00</totfact>
</mgrwt>
</event>
<event>
 5    1  0.2381755E-004  0.6919603E+03  0.7818608E-02  0.9731081E-01
         13   -1    0    0    0    0  0.00000000000E+00  0.00000000000E+00  0.10000000000E+04  0.10000000000E+04  0.00000000000E+00 0. -1.
          2   -1    0    0  501    0 -0.00000000000E+00 -0.00000000000E+00 -0.11970225658E+03  0.11970225658E+03  0.00000000000E+00 0. -1.
    9000006    2    1    2  501    0  0.00000000000E+00  0.00000000000E+00  0.88029774342E+03  0.11197022566E+04  0.69196027799E+03 0.  0.
         13    1    3    3    0    0  0.33318298621E+03  0.44952608620E+02  0.57231020166E+03  0.66375492936E+03  0.00000000000E+00 0. -1.
          4    1    3    3  501    0 -0.33318298621E+03 -0.44952608620E+02  0.30798754176E+03  0.45594732722E+03  0.00000000000E+00 0. -1.
<mgrwt>
<rscale>  0 0.69196028E+03</rscale>
<asrwt>0</asrwt>
<pdfrwt beam="1">0</pdfrwt>
<pdfrwt beam="2">  1        2 0.43528185E+00 0.69196028E+03</pdfrwt>
<totfact> 0.29114035E+00</totfact>
</mgrwt>
</event>
<event>
 5    1  0.2381755E-004  0.6533792E+03  0.7818608E-02  0.9800459E-01
         13   -1    0    0    0    0  0.00000000000E+00  0.00000000000E+00  0.10000000000E+04  0.10000000000E+04  0.00000000000E+00 0. -1.
          2   -1    0    0  501    0 -0.00000000000E+00 -0.00000000000E+00 -0.10672608702E+03  0.10672608702E+03  0.00000000000E+00 0. -1.
    9000006    2    1    2  501    0  0.00000000000E+00  0.00000000000E+00  0.89327391298E+03  0.11067260870E+04  0.65337917633E+03 0.  0.
         13    1    3    3    0    0  0.26088156412E+02 -0.32486677190E+03  0.40849427454E+03  0.52257686872E+03  0.00000000000E+00 0. -1.
          2    1    3    3  501    0 -0.26088156412E+02  0.32486677190E+03  0.48477963844E+03  0.58414921830E+03  0.00000000000E+00 0. -1.
<mgrwt>
<rscale>  0 0.65337918E+03</rscale>
<asrwt>0</asrwt>
<pdfrwt beam="1">0</pdfrwt>
<pdfrwt beam="2">  1        2 0.38809568E+00 0.65337918E+03</pdfrwt>
<totfact> 0.44107010E+00</totfact>
</mgrwt>
</event>
<event>
 5    1  0.2381755E-004  0.5218198E+03  0.7818608E-02  0.1008235E+00
         13   -1    0    0    0    0  0.00000000000E+00  0.00000000000E+00  0.10000000000E+04  0.10000000000E+04  0.00000000000E+00 0. -1.
          2   -1    0    0  501    0 -0.00000000000E+00 -0.00000000000E+00 -0.68073969428E+02  0.68073969428E+02  0.00000000000E+00 0. -1.
    9000006    2    1    2  501    0  0.00000000000E+00  0.00000000000E+00  0.93192603057E+03  0.10680739694E+04  0.52181977513E+03 0.  0.
         13    1    3    3    0    0  0.23980703463E+03 -0.80429495182E+02  0.59698625296E+03  0.64835862282E+03  0.00000000000E+00 0. -1.
          2    1    3    3  501    0 -0.23980703463E+03  0.80429495182E+02  0.33493977761E+03  0.41971534661E+03  0.00000000000E+00 0. -1.
<mgrwt>
<rscale>  0 0.52181978E+03</rscale>
<asrwt>0</asrwt>
<pdfrwt beam="1">0</pdfrwt>
<pdfrwt beam="2">  1        2 0.24754223E+00 0.52181978E+03</pdfrwt>
<totfact> 0.14226287E+01</totfact>
</mgrwt>
</event>
<event>
 5    1  0.2381755E-004  0.6263291E+03  0.7818608E-02  0.9852239E-01
         13   -1    0    0    0    0  0.00000000000E+00  0.00000000000E+00  0.10000000000E+04  0.10000000000E+04  0.00000000000E+00 0. -1.
          2   -1    0    0  501    0 -0.00000000000E+00 -0.00000000000E+00 -0.98072032217E+02  0.98072032217E+02  0.00000000000E+00 0. -1.
    9000006    2    1    2  501    0  0.00000000000E+00  0.00000000000E+00  0.90192796778E+03  0.10980720322E+04  0.62632908991E+03 0.  0.
         13    1    3    3    0    0  0.10286063620E+03  0.74200262855E+02  0.95295761767E+03  0.96136060381E+03  0.00000000000E+00 0. -1.
          2    1    3    3  501    0 -0.10286063620E+03 -0.74200262855E+02 -0.51029649889E+02  0.13671142840E+03  0.00000000000E+00 0. -1.
<mgrwt>
<rscale>  0 0.62632909E+03</rscale>
<asrwt>0</asrwt>
<pdfrwt beam="1">0</pdfrwt>
<pdfrwt beam="2">  1        2 0.35662632E+00 0.62632909E+03</pdfrwt>
<totfact> 0.57662297E+00</totfact>
</mgrwt>
</event>
<event>
 5    1  0.2381755E-004  0.6455671E+03  0.7818608E-02  0.9815133E-01
         13   -1    0    0    0    0  0.00000000000E+00  0.00000000000E+00  0.10000000000E+04  0.10000000000E+04  0.00000000000E+00 0. -1.
          2   -1    0    0  501    0 -0.00000000000E+00 -0.00000000000E+00 -0.10418923611E+03  0.10418923611E+03  0.00000000000E+00 0. -1.
    9000006    2    1    2  501    0  0.00000000000E+00  0.00000000000E+00  0.89581076389E+03  0.11041892361E+04  0.64556714944E+03 0.  0.
         13    1    3    3    0    0  0.28877087496E+03 -0.14380473557E+02  0.20245114034E+03  0.35296158498E+03  0.00000000000E+00 0. -1.
          2    1    3    3  501    0 -0.28877087496E+03  0.14380473557E+02  0.69335962356E+03  0.75122765113E+03  0.00000000000E+00 0. -1.
<mgrwt>
<rscale>  0 0.64556715E+03</rscale>
<asrwt>0</asrwt>
<pdfrwt beam="1">0</pdfrwt>
<pdfrwt beam="2">  1        2 0.37887075E+00 0.64556715E+03</pdfrwt>
<totfact> 0.47742199E+00</totfact>
</mgrwt>
</event>
<event>
 5    1  0.2381755E-004  0.6456756E+03  0.7818608E-02  0.9814928E-01
         13   -1    0    0    0    0  0.00000000000E+00  0.00000000000E+00  0.10000000000E+04  0.10000000000E+04  0.00000000000E+00 0. -1.
          2   -1    0    0  501    0 -0.00000000000E+00 -0.00000000000E+00 -0.10422422929E+03  0.10422422929E+03  0.00000000000E+00 0. -1.
    9000006    2    1    2  501    0  0.00000000000E+00  0.00000000000E+00  0.89577577071E+03  0.11042242293E+04  0.64567555099E+03 0.  0.
         13    1    3    3    0    0  0.31385835457E+03 -0.71565161775E+02  0.48962444928E+03  0.58596991428E+03  0.00000000000E+00 0. -1.
          4    1    3    3  501    0 -0.31385835457E+03  0.71565161775E+02  0.40615132144E+03  0.51825431500E+03  0.00000000000E+00 0. -1.
<mgrwt>
<rscale>  0 0.64567555E+03</rscale>
<asrwt>0</asrwt>
<pdfrwt beam="1">0</pdfrwt>
<pdfrwt beam="2">  1        2 0.37899800E+00 0.64567555E+03</pdfrwt>
<totfact> 0.47690258E+00</totfact>
</mgrwt>
</event>
<event>
 5    1  0.2381755E-004  0.6486350E+03  0.7818608E-02  0.9809344E-01
         13   -1    0    0    0    0  0.00000000000E+00  0.00000000000E+00  0.10000000000E+04  0.10000000000E+04  0.00000000000E+00 0. -1.
          2   -1    0    0  501    0 -0.00000000000E+00 -0.00000000000E+00 -0.10518183704E+03  0.10518183704E+03  0.00000000000E+00 0. -1.
    9000006    2    1    2  501    0  0.00000000000E+00  0.00000000000E+00  0.89481816296E+03  0.11051818370E+04  0.64863498838E+03 0.  0.
         13    1    3    3    0    0 -0.31752196350E+03  0.18382186089E+02  0.55548975715E+03  0.64009918948E+03  0.00000000000E+00 0. -1.
          2    1    3    3  501    0  0.31752196350E+03 -0.18382186089E+02  0.33932840581E+03  0.46508264756E+03  0.00000000000E+00 0. -1.
<mgrwt>
<rscale>  0 0.64863499E+03</rscale>
<asrwt>0</asrwt>
<pdfrwt beam="1">0</pdfrwt>
<pdfrwt beam="2">  1        2 0.38248021E+00 0.64863499E+03</pdfrwt>
<totfact> 0.46288650E+00</totfact>
</mgrwt>
</event>
<event>
 5    1  0.2381755E-004  0.6525063E+03  0.7818608E-02  0.9802088E-01
         13   -1    0    0    0    0  0.00000000000E+00  0.00000000000E+00  0.10000000000E+04  0.10000000000E+04  0.00000000000E+00 0. -1.
          2   -1    0    0  501    0 -0.00000000000E+00 -0.00000000000E+00 -0.10644111779E+03  0.10644111779E+03  0.00000000000E+00 0. -1.
    9000006    2    1    2  501    0  0.00000000000E+00  0.00000000000E+00  0.89355888221E+03  0.11064411178E+04  0.65250629972E+03 0.  0.
         13    1    3    3    0    0  0.23694166476E+03 -0.22236519781E+03  0.49631776570E+03  0.59322757711E+03  0.00000000000E+00 0. -1.
          4    1    3    3  501    0 -0.23694166476E+03  0.22236519781E+03  0.39724111650E+03  0.51321354068E+03  0.00000000000E+00 0. -1.
<mgrwt>
<rscale>  0 0.65250630E+03</rscale>
<asrwt>0</asrwt>
<pdfrwt beam="1">0</pdfrwt>
<pdfrwt beam="2">  1        2 0.38705943E+00 0.65250630E+03</pdfrwt>
<totfact> 0.44502449E+00</totfact>
</mgrwt>
</event>
<event>
 5    1  0.2381755E-004  0.6822547E+03  0.7818608E-02  0.9748070E-01
         13   -1    0    0    0    0  0.00000000000E+00  0.00000000000E+00  0.10000000000E+04  0.10000000000E+04  0.00000000000E+00 0. -1.
          2   -1    0    0  501    0 -0.00000000000E+00 -0.00000000000E+00 -0.11636787187E+03  0.11636787187E+03  0.00000000000E+00 0. -1.
    9000006    2    1    2  501    0  0.00000000000E+00  0.00000000000E+00  0.88363212813E+03  0.11163678719E+04  0.68225470866E+03 0.  0.
         13    1    3    3    0    0  0.65400877314E+02 -0.50092615704E+02 -0.99846804398E+02  0.12944469572E+03  0.00000000000E+00 0. -1.
          2    1    3    3  501    0 -0.65400877314E+02  0.50092615704E+02  0.98347893253E+03  0.98692317615E+03  0.00000000000E+00 0. -1.
<mgrwt>
<rscale>  0 0.68225471E+03</rscale>
<asrwt>0</asrwt>
<pdfrwt beam="1">0</pdfrwt>
<pdfrwt beam="2">  1        2 0.42315679E+00 0.68225471E+03</pdfrwt>
<totfact> 0.32452778E+00</totfact>
</mgrwt>
</event>
<event>
 5    1  0.2381755E-004  0.6587053E+03  0.7818608E-02  0.9790580E-01
         13   -1    0    0    0    0  0.00000000000E+00  0.00000000000E+00  0.10000000000E+04  0.10000000000E+04  0.00000000000E+00 0. -1.
          2   -1    0    0  501    0 -0.00000000000E+00 -0.00000000000E+00 -0.10847317611E+03  0.10847317611E+03  0.00000000000E+00 0. -1.
    9000006    2    1    2  501    0  0.00000000000E+00  0.00000000000E+00  0.89152682389E+03  0.11084731761E+04  0.65870532445E+03 0.  0.
         13    1    3    3    0    0 -0.20642395499E+03  0.25643086337E+03  0.46305126171E+03  0.56814092253E+03  0.00000000000E+00 0. -1.
          4    1    3    3  501    0  0.20642395499E+03 -0.25643086337E+03  0.42847556217E+03  0.54033225358E+03  0.00000000000E+00 0. -1.
<mgrwt>
<rscale>  0 0.65870532E+03</rscale>
<asrwt>0</asrwt>
<pdfrwt beam="1">0</pdfrwt>
<pdfrwt beam="2">  1        2 0.39444874E+00 0.65870532E+03</pdfrwt>
<totfact> 0.41751304E+00</totfact>
</mgrwt>
</event>
<event>
 5    1  0.2381755E-004  0.6485500E+03  0.7818608E-02  0.9809504E-01
         13   -1    0    0    0    0  0.00000000000E+00  0.00000000000E+00  0.10000000000E+04  0.10000000000E+04  0.00000000000E+00 0. -1.
          2   -1    0    0  501    0 -0.00000000000E+00 -0.00000000000E+00 -0.10515426768E+03  0.10515426768E+03  0.00000000000E+00 0. -1.
    9000006    2    1    2  501    0  0.00000000000E+00  0.00000000000E+00  0.89484573232E+03  0.11051542677E+04  0.64854997551E+03 0.  0.
         13    1    3    3    0    0 -0.81156071857E+02  0.16978027031E+03 -0.25937870250E+01  0.18819770434E+03  0.00000000000E+00 0. -1.
          4    1    3    3  501    0  0.81156071857E+02 -0.16978027031E+03  0.89743951934E+03  0.91695656335E+03  0.00000000000E+00 0. -1.
<mgrwt>
<rscale>  0 0.64854998E+03</rscale>
<asrwt>0</asrwt>
<pdfrwt beam="1">0</pdfrwt>
<pdfrwt beam="2">  1        2 0.38237996E+00 0.64854998E+03</pdfrwt>
<totfact> 0.46328472E+00</totfact>
</mgrwt>
</event>
<event>
 5    1  0.2381755E-004  0.6662448E+03  0.7818608E-02  0.9776766E-01
         13   -1    0    0    0    0  0.00000000000E+00  0.00000000000E+00  0.10000000000E+04  0.10000000000E+04  0.00000000000E+00 0. -1.
          2   -1    0    0  501    0 -0.00000000000E+00 -0.00000000000E+00 -0.11097053199E+03  0.11097053199E+03  0.00000000000E+00 0. -1.
    9000006    2    1    2  501    0  0.00000000000E+00  0.00000000000E+00  0.88902946801E+03  0.11109705320E+04  0.66624479583E+03 0.  0.
         13    1    3    3    0    0  0.20501086728E+03  0.46519965839E+02  0.13609210120E+02  0.21066270083E+03  0.00000000000E+00 0. -1.
          4    1    3    3  501    0 -0.20501086728E+03 -0.46519965839E+02  0.87542025789E+03  0.90030783116E+03  0.00000000000E+00 0. -1.
<mgrwt>
<rscale>  0 0.66624480E+03</rscale>
<asrwt>0</asrwt>
<pdfrwt beam="1">0</pdfrwt>
<pdfrwt beam="2">  1        2 0.40353006E+00 0.66624480E+03</pdfrwt>
<totfact> 0.38580797E+00</totfact>
</mgrwt>
</event>
<event>
 5    1  0.2381755E-004  0.5479166E+03  0.7818608E-02  0.1001977E+00
         13   -1    0    0    0    0  0.00000000000E+00  0.00000000000E+00  0.10000000000E+04  0.10000000000E+04  0.00000000000E+00 0. -1.
          2   -1    0    0  501    0 -0.00000000000E+00 -0.00000000000E+00 -0.75053160733E+02  0.75053160733E+02  0.00000000000E+00 0. -1.
    9000006    2    1    2  501    0  0.00000000000E+00  0.00000000000E+00  0.92494683927E+03  0.10750531607E+04  0.54791663867E+03 0.  0.
         13    1    3    3    0    0  0.12856043783E+03  0.21066292912E+03  0.69584073377E+03  0.73830954393E+03  0.00000000000E+00 0. -1.
          2    1    3    3  501    0 -0.12856043783E+03 -0.21066292912E+03  0.22910610550E+03  0.33674361681E+03  0.00000000000E+00 0. -1.
<mgrwt>
<rscale>  0 0.54791664E+03</rscale>
<asrwt>0</asrwt>
<pdfrwt beam="1">0</pdfrwt>
<pdfrwt beam="2">  1        2 0.27292116E+00 0.54791664E+03</pdfrwt>
<totfact> 0.11537490E+01</totfact>
</mgrwt>
</event>
<event>
 5    1  0.2381755E-004  0.6508034E+03  0.7818608E-02  0.9805273E-01
         13   -1    0    0    0    0  0.00000000000E+00  0.00000000000E+00  0.10000000000E+04  0.10000000000E+04  0.00000000000E+00 0. -1.
          2   -1    0    0  501    0 -0.00000000000E+00 -0.00000000000E+00 -0.10588625237E+03  0.10588625237E+03  0.00000000000E+00 0. -1.
    9000006    2    1    2  501    0  0.00000000000E+00  0.00000000000E+00  0.89411374763E+03  0.11058862524E+04  0.65080335699E+03 0.  0.
         13    1    3    3    0    0 -0.28295240360E+03  0.36825292831E+02  0.18125337891E+03  0.33803986786E+03  0.00000000000E+00 0. -1.
          4    1    3    3  501    0  0.28295240360E+03 -0.36825292831E+02  0.71286036873E+03  0.76784638451E+03  0.00000000000E+00 0. -1.
<mgrwt>
<rscale>  0 0.65080336E+03</rscale>
<asrwt>0</asrwt>
<pdfrwt beam="1">0</pdfrwt>
<pdfrwt beam="2">  1        2 0.38504173E+00 0.65080336E+03</pdfrwt>
<totfact> 0.45281636E+00</totfact>
</mgrwt>
</event>
<event>
 5    1  0.2381755E-004  0.5510775E+03  0.7818608E-02  0.1001245E+00
         13   -1    0    0    0    0  0.00000000000E+00  0.00000000000E+00  0.10000000000E+04  0.10000000000E+04  0.00000000000E+00 0. -1.
          2   -1    0    0  501    0 -0.00000000000E+00 -0.00000000000E+00 -0.75921593540E+02  0.75921593540E+02  0.00000000000E+00 0. -1.
    9000006    2    1    2  501    0  0.00000000000E+00  0.00000000000E+00  0.92407840646E+03  0.10759215935E+04  0.55107746657E+03 0.  0.
         13    1    3    3    0    0 -0.18342773275E+03 -0.82538166264E+02  0.82970871133E+03  0.85374166332E+03  0.00000000000E+00 0. -1.
          4    1    3    3  501    0  0.18342773275E+03  0.82538166264E+02  0.94369695131E+02  0.22217993022E+03  0.00000000000E+00 0. -1.
<mgrwt>
<rscale>  0 0.55107747E+03</rscale>
<asrwt>0</asrwt>
<pdfrwt beam="1">0</pdfrwt>
<pdfrwt beam="2">  1        2 0.27607910E+00 0.55107747E+03</pdfrwt>
<totfact> 0.11241501E+01</totfact>
</mgrwt>
</event>
<event>
 5    1  0.2381755E-004  0.6474897E+03  0.7818608E-02  0.9811501E-01
         13   -1    0    0    0    0  0.00000000000E+00  0.00000000000E+00  0.10000000000E+04  0.10000000000E+04  0.00000000000E+00 0. -1.
          2   -1    0    0  501    0 -0.00000000000E+00 -0.00000000000E+00 -0.10481071319E+03  0.10481071319E+03  0.00000000000E+00 0. -1.
    9000006    2    1    2  501    0  0.00000000000E+00  0.00000000000E+00  0.89518928681E+03  0.11048107132E+04  0.64748965455E+03 0.  0.
         13    1    3    3    0    0  0.82717582213E+02  0.27009328715E+03  0.17770732735E+03  0.33372515093E+03  0.00000000000E+00 0. -1.
          4    1    3    3  501    0 -0.82717582213E+02 -0.27009328715E+03  0.71748195946E+03  0.77108556226E+03  0.00000000000E+00 0. -1.
<mgrwt>
<rscale>  0 0.64748965E+03</rscale>
<asrwt>0</asrwt>
<pdfrwt beam="1">0</pdfrwt>
<pdfrwt beam="2">  1        2 0.38113067E+00 0.64748965E+03</pdfrwt>
<totfact> 0.46827339E+00</totfact>
</mgrwt>
</event>
<event>
 5    1  0.2381755E-004  0.6639484E+03  0.7818608E-02  0.9780952E-01
         13   -1    0    0    0    0  0.00000000000E+00  0.00000000000E+00  0.10000000000E+04  0.10000000000E+04  0.00000000000E+00 0. -1.
          2   -1    0    0  501    0 -0.00000000000E+00 -0.00000000000E+00 -0.11020685882E+03  0.11020685882E+03  0.00000000000E+00 0. -1.
    9000006    2    1    2  501    0  0.00000000000E+00  0.00000000000E+00  0.88979314118E+03  0.11102068588E+04  0.66394836793E+03 0.  0.
         13    1    3    3    0    0 -0.18065378031E+03  0.72404476607E+02 -0.48054249224E+01  0.19468253306E+03  0.00000000000E+00 0. -1.
          2    1    3    3  501    0  0.18065378031E+03 -0.72404476607E+02  0.89459856610E+03  0.91552432575E+03  0.00000000000E+00 0. -1.
<mgrwt>
<rscale>  0 0.66394837E+03</rscale>
<asrwt>0</asrwt>
<pdfrwt beam="1">0</pdfrwt>
<pdfrwt beam="2">  1        2 0.40075306E+00 0.66394837E+03</pdfrwt>
<totfact> 0.39526544E+00</totfact>
</mgrwt>
</event>
<event>
 5    1  0.2381755E-004  0.6537428E+03  0.7818608E-02  0.9799781E-01
         13   -1    0    0    0    0  0.00000000000E+00  0.00000000000E+00  0.10000000000E+04  0.10000000000E+04  0.00000000000E+00 0. -1.
          2   -1    0    0  501    0 -0.00000000000E+00 -0.00000000000E+00 -0.10684489813E+03  0.10684489813E+03  0.00000000000E+00 0. -1.
    9000006    2    1    2  501    0  0.00000000000E+00  0.00000000000E+00  0.89315510187E+03  0.11068448981E+04  0.65374275715E+03 0.  0.
         13    1    3    3    0    0  0.26075004607E+03  0.80786438098E+02  0.14216091949E+03  0.30777713062E+03  0.00000000000E+00 0. -1.
          2    1    3    3  501    0 -0.26075004607E+03 -0.80786438098E+02  0.75099418238E+03  0.79906776751E+03  0.00000000000E+00 0. -1.
<mgrwt>
<rscale>  0 0.65374276E+03</rscale>
<asrwt>0</asrwt>
<pdfrwt beam="1">0</pdfrwt>
<pdfrwt beam="2">  1        2 0.38852772E+00 0.65374276E+03</pdfrwt>
<totfact> 0.43943082E+00</totfact>
</mgrwt>
</event>
<event>
 5    1  0.2381755E-004  0.6543471E+03  0.7818608E-02  0.9798656E-01
         13   -1    0    0    0    0  0.00000000000E+00  0.00000000000E+00  0.10000000000E+04  0.10000000000E+04  0.00000000000E+00 0. -1.
          2   -1    0    0  501    0 -0.00000000000E+00 -0.00000000000E+00 -0.10704253895E+03  0.10704253895E+03  0.00000000000E+00 0. -1.
    9000006    2    1    2  501    0  0.00000000000E+00  0.00000000000E+00  0.89295746105E+03  0.11070425390E+04  0.65434712180E+03 0.  0.
         13    1    3    3    0    0 -0.73408063865E+02 -0.31787037536E+03  0.40461771881E+03  0.51975553653E+03  0.00000000000E+00 0. -1.
          2    1    3    3  501    0  0.73408063865E+02  0.31787037536E+03  0.48833974224E+03  0.58728700243E+03  0.00000000000E+00 0. -1.
<mgrwt>
<rscale>  0 0.65434712E+03</rscale>
<asrwt>0</asrwt>
<pdfrwt beam="1">0</pdfrwt>
<pdfrwt beam="2">  1        2 0.38924642E+00 0.65434712E+03</pdfrwt>
<totfact> 0.43671612E+00</totfact>
</mgrwt>
</event>
<event>
 5    1  0.2381755E-004  0.6411244E+03  0.7818608E-02  0.9823578E-01
         13   -1    0    0    0    0  0.00000000000E+00  0.00000000000E+00  0.10000000000E+04  0.10000000000E+04  0.00000000000E+00 0. -1.
          2   -1    0    0  501    0 -0.00000000000E+00 -0.00000000000E+00 -0.10276011427E+03  0.10276011427E+03  0.00000000000E+00 0. -1.
    9000006    2    1    2  501    0  0.00000000000E+00  0.00000000000E+00  0.89723988573E+03  0.11027601143E+04  0.64112436942E+03 0.  0.
         13    1    3    3    0    0  0.14520729862E+03 -0.71425640349E+02 -0.27347820050E+02  0.16411789949E+03  0.00000000000E+00 0. -1.
          4    1    3    3  501    0 -0.14520729862E+03  0.71425640349E+02  0.92458770578E+03  0.93864221477E+03  0.00000000000E+00 0. -1.
<mgrwt>
<rscale>  0 0.64112437E+03</rscale>
<asrwt>0</asrwt>
<pdfrwt beam="1">0</pdfrwt>
<pdfrwt beam="2">  1        2 0.37367393E+00 0.64112437E+03</pdfrwt>
<totfact> 0.49908173E+00</totfact>
</mgrwt>
</event>
<event>
 5    1  0.2381755E-004  0.6411859E+03  0.7818608E-02  0.9823460E-01
         13   -1    0    0    0    0  0.00000000000E+00  0.00000000000E+00  0.10000000000E+04  0.10000000000E+04  0.00000000000E+00 0. -1.
          2   -1    0    0  501    0 -0.00000000000E+00 -0.00000000000E+00 -0.10277982789E+03  0.10277982789E+03  0.00000000000E+00 0. -1.
    9000006    2    1    2  501    0  0.00000000000E+00  0.00000000000E+00  0.89722017211E+03  0.11027798279E+04  0.64118586350E+03 0.  0.
         13    1    3    3    0    0  0.10812485430E+03 -0.27889002141E+03  0.25019218742E+03  0.38995738076E+03  0.00000000000E+00 0. -1.
          2    1    3    3  501    0 -0.10812485430E+03  0.27889002141E+03  0.64702798469E+03  0.71282244713E+03  0.00000000000E+00 0. -1.
<mgrwt>
<rscale>  0 0.64118586E+03</rscale>
<asrwt>0</asrwt>
<pdfrwt beam="1">0</pdfrwt>
<pdfrwt beam="2">  1        2 0.37374562E+00 0.64118586E+03</pdfrwt>
<totfact> 0.49877693E+00</totfact>
</mgrwt>
</event>
<event>
 5    1  0.2381755E-004  0.6067783E+03  0.7818608E-02  0.9891442E-01
         13   -1    0    0    0    0  0.00000000000E+00  0.00000000000E+00  0.10000000000E+04  0.10000000000E+04  0.00000000000E+00 0. -1.
          2   -1    0    0  501    0 -0.00000000000E+00 -0.00000000000E+00 -0.92044984474E+02  0.92044984474E+02  0.00000000000E+00 0. -1.
    9000006    2    1    2  501    0  0.00000000000E+00  0.00000000000E+00  0.90795501553E+03  0.10920449845E+04  0.60677832682E+03 0.  0.
         13    1    3    3    0    0  0.12355151902E+03  0.21955366400E+03  0.75821495666E+03  0.79897353507E+03  0.00000000000E+00 0. -1.
          2    1    3    3  501    0 -0.12355151902E+03 -0.21955366400E+03  0.14974005886E+03  0.29307144941E+03  0.00000000000E+00 0. -1.
<mgrwt>
<rscale>  0 0.60677833E+03</rscale>
<asrwt>0</asrwt>
<pdfrwt beam="1">0</pdfrwt>
<pdfrwt beam="2">  1        2 0.33470974E+00 0.60677833E+03</pdfrwt>
<totfact> 0.69276053E+00</totfact>
</mgrwt>
</event>
<event>
 5    1  0.2381755E-004  0.6549839E+03  0.7818608E-02  0.9797472E-01
         13   -1    0    0    0    0  0.00000000000E+00  0.00000000000E+00  0.10000000000E+04  0.10000000000E+04  0.00000000000E+00 0. -1.
          2   -1    0    0  501    0 -0.00000000000E+00 -0.00000000000E+00 -0.10725096464E+03  0.10725096464E+03  0.00000000000E+00 0. -1.
    9000006    2    1    2  501    0  0.00000000000E+00  0.00000000000E+00  0.89274903536E+03  0.11072509646E+04  0.65498386129E+03 0.  0.
         13    1    3    3    0    0  0.22973454868E+03 -0.75490498387E+01  0.84072177968E+03  0.87157791496E+03  0.00000000000E+00 0. -1.
          4    1    3    3  501    0 -0.22973454868E+03  0.75490498387E+01  0.52027255680E+02  0.23567304968E+03  0.00000000000E+00 0. -1.
<mgrwt>
<rscale>  0 0.65498386E+03</rscale>
<asrwt>0</asrwt>
<pdfrwt beam="1">0</pdfrwt>
<pdfrwt beam="2">  1        2 0.39000433E+00 0.65498386E+03</pdfrwt>
<totfact> 0.43386971E+00</totfact>
</mgrwt>
</event>
<event>
 5    1  0.2381755E-004  0.5991495E+03  0.7818608E-02  0.9907172E-01
         13   -1    0    0    0    0  0.00000000000E+00  0.00000000000E+00  0.10000000000E+04  0.10000000000E+04  0.00000000000E+00 0. -1.
          2   -1    0    0  501    0 -0.00000000000E+00 -0.00000000000E+00 -0.89745021983E+02  0.89745021983E+02  0.00000000000E+00 0. -1.
    9000006    2    1    2  501    0  0.00000000000E+00  0.00000000000E+00  0.91025497802E+03  0.10897450220E+04  0.59914947044E+03 0.  0.
         13    1    3    3    0    0  0.13529684128E+01  0.29106510116E+03  0.32620537327E+03  0.43718493706E+03  0.00000000000E+00 0. -1.
          4    1    3    3  501    0 -0.13529684128E+01 -0.29106510116E+03  0.58404960475E+03  0.65256008493E+03  0.00000000000E+00 0. -1.
<mgrwt>
<rscale>  0 0.59914947E+03</rscale>
<asrwt>0</asrwt>
<pdfrwt beam="1">0</pdfrwt>
<pdfrwt beam="2">  1        2 0.32634622E+00 0.59914947E+03</pdfrwt>
<totfact> 0.74262155E+00</totfact>
</mgrwt>
</event>
<event>
 5    1  0.2381755E-004  0.6203043E+03  0.7818608E-02  0.9864154E-01
         13   -1    0    0    0    0  0.00000000000E+00  0.00000000000E+00  0.10000000000E+04  0.10000000000E+04  0.00000000000E+00 0. -1.
          2   -1    0    0  501    0 -0.00000000000E+00 -0.00000000000E+00 -0.96194356339E+02  0.96194356339E+02  0.00000000000E+00 0. -1.
    9000006    2    1    2  501    0  0.00000000000E+00  0.00000000000E+00  0.90380564366E+03  0.10961943563E+04  0.62030430061E+03 0.  0.
         13    1    3    3    0    0 -0.15388139567E+03  0.26248329784E+03  0.55818990336E+03  0.63573023665E+03  0.00000000000E+00 0. -1.
          4    1    3    3  501    0  0.15388139567E+03 -0.26248329784E+03  0.34561574030E+03  0.46046411969E+03  0.00000000000E+00 0. -1.
<mgrwt>
<rscale>  0 0.62030430E+03</rscale>
<asrwt>0</asrwt>
<pdfrwt beam="1">0</pdfrwt>
<pdfrwt beam="2">  1        2 0.34979840E+00 0.62030430E+03</pdfrwt>
<totfact> 0.61069264E+00</totfact>
</mgrwt>
</event>
<event>
 5    1  0.2381755E-004  0.6422285E+03  0.7818608E-02  0.9821472E-01
         13   -1    0    0    0    0  0.00000000000E+00  0.00000000000E+00  0.10000000000E+04  0.10000000000E+04  0.00000000000E+00 0. -1.
          2   -1    0    0  501    0 -0.00000000000E+00 -0.00000000000E+00 -0.10311437520E+03  0.10311437520E+03  0.00000000000E+00 0. -1.
    9000006    2    1    2  501    0  0.00000000000E+00  0.00000000000E+00  0.89688562480E+03  0.11031143752E+04  0.64222854249E+03 0.  0.
         13    1    3    3    0    0  0.86571164093E+02 -0.15107688193E+03  0.91187208207E+03  0.92834771760E+03  0.00000000000E+00 0. -1.
          4    1    3    3  501    0 -0.86571164093E+02  0.15107688193E+03 -0.14986457272E+02  0.17476665760E+03  0.00000000000E+00 0. -1.
<mgrwt>
<rscale>  0 0.64222854E+03</rscale>
<asrwt>0</asrwt>
<pdfrwt beam="1">0</pdfrwt>
<pdfrwt beam="2">  1        2 0.37496216E+00 0.64222854E+03</pdfrwt>
<totfact> 0.49363021E+00</totfact>
</mgrwt>
</event>
<event>
 5    1  0.2381755E-004  0.6573583E+03  0.7818608E-02  0.9793069E-01
         13   -1    0    0    0    0  0.00000000000E+00  0.00000000000E+00  0.10000000000E+04  0.10000000000E+04  0.00000000000E+00 0. -1.
          2   -1    0    0  501    0 -0.00000000000E+00 -0.00000000000E+00 -0.10802999339E+03  0.10802999339E+03  0.00000000000E+00 0. -1.
    9000006    2    1    2  501    0  0.00000000000E+00  0.00000000000E+00  0.89197000661E+03  0.11080299934E+04  0.65735832965E+03 0.  0.
         13    1    3    3    0    0  0.21116269620E+03  0.83366510301E+02  0.84660850043E+03  0.87651903134E+03  0.00000000000E+00 0. -1.
          4    1    3    3  501    0 -0.21116269620E+03 -0.83366510301E+02  0.45361506185E+02  0.23151096205E+03  0.00000000000E+00 0. -1.
<mgrwt>
<rscale>  0 0.65735833E+03</rscale>
<asrwt>0</asrwt>
<pdfrwt beam="1">0</pdfrwt>
<pdfrwt beam="2">  1        2 0.39283717E+00 0.65735833E+03</pdfrwt>
<totfact> 0.42337852E+00</totfact>
</mgrwt>
</event>
<event>
 5    1  0.2381755E-004  0.6527751E+03  0.7818608E-02  0.9801586E-01
         13   -1    0    0    0    0  0.00000000000E+00  0.00000000000E+00  0.10000000000E+04  0.10000000000E+04  0.00000000000E+00 0. -1.
          2   -1    0    0  501    0 -0.00000000000E+00 -0.00000000000E+00 -0.10652883450E+03  0.10652883450E+03  0.00000000000E+00 0. -1.
    9000006    2    1    2  501    0  0.00000000000E+00  0.00000000000E+00  0.89347116550E+03  0.11065288345E+04  0.65277510523E+03 0.  0.
         13    1    3    3    0    0  0.24143695760E+03  0.59399846384E+02  0.88313205480E+02  0.26385482468E+03  0.00000000000E+00 0. -1.
          4    1    3    3  501    0 -0.24143695760E+03 -0.59399846384E+02  0.80515796002E+03  0.84267400982E+03  0.00000000000E+00 0. -1.
<mgrwt>
<rscale>  0 0.65277511E+03</rscale>
<asrwt>0</asrwt>
<pdfrwt beam="1">0</pdfrwt>
<pdfrwt beam="2">  1        2 0.38737840E+00 0.65277511E+03</pdfrwt>
<totfact> 0.44380388E+00</totfact>
</mgrwt>
</event>
<event>
 5    1  0.2381755E-004  0.6415167E+03  0.7818608E-02  0.9822829E-01
         13   -1    0    0    0    0  0.00000000000E+00  0.00000000000E+00  0.10000000000E+04  0.10000000000E+04  0.00000000000E+00 0. -1.
          2   -1    0    0  501    0 -0.00000000000E+00 -0.00000000000E+00 -0.10288592326E+03  0.10288592326E+03  0.00000000000E+00 0. -1.
    9000006    2    1    2  501    0  0.00000000000E+00  0.00000000000E+00  0.89711407674E+03  0.11028859233E+04  0.64151671299E+03 0.  0.
         13    1    3    3    0    0 -0.18471635014E+03 -0.65554255321E+02  0.12045050674E+02  0.19637355638E+03  0.00000000000E+00 0. -1.
          4    1    3    3  501    0  0.18471635014E+03  0.65554255321E+02  0.88506902606E+03  0.90651236688E+03  0.00000000000E+00 0. -1.
<mgrwt>
<rscale>  0 0.64151671E+03</rscale>
<asrwt>0</asrwt>
<pdfrwt beam="1">0</pdfrwt>
<pdfrwt beam="2">  1        2 0.37413142E+00 0.64151671E+03</pdfrwt>
<totfact> 0.49713946E+00</totfact>
</mgrwt>
</event>
<event>
 5    1  0.2381755E-004  0.6335547E+03  0.7818608E-02  0.9838136E-01
         13   -1    0    0    0    0  0.00000000000E+00  0.00000000000E+00  0.10000000000E+04  0.10000000000E+04  0.00000000000E+00 0. -1.
          2   -1    0    0  501    0 -0.00000000000E+00 -0.00000000000E+00 -0.10034790127E+03  0.10034790127E+03  0.00000000000E+00 0. -1.
    9000006    2    1    2  501    0  0.00000000000E+00  0.00000000000E+00  0.89965209873E+03  0.11003479013E+04  0.63355473726E+03 0.  0.
         13    1    3    3    0    0 -0.16647566623E+03  0.96545077377E+02  0.12815779115E+02  0.19287131359E+03  0.00000000000E+00 0. -1.
          2    1    3    3  501    0  0.16647566623E+03 -0.96545077377E+02  0.88683631961E+03  0.90747658768E+03  0.00000000000E+00 0. -1.
<mgrwt>
<rscale>  0 0.63355474E+03</rscale>
<asrwt>0</asrwt>
<pdfrwt beam="1">0</pdfrwt>
<pdfrwt beam="2">  1        2 0.36490223E+00 0.63355474E+03</pdfrwt>
<totfact> 0.53769273E+00</totfact>
</mgrwt>
</event>
<event>
 5    1  0.2381755E-004  0.6493048E+03  0.7818608E-02  0.9808085E-01
         13   -1    0    0    0    0  0.00000000000E+00  0.00000000000E+00  0.10000000000E+04  0.10000000000E+04  0.00000000000E+00 0. -1.
          2   -1    0    0  501    0 -0.00000000000E+00 -0.00000000000E+00 -0.10539916979E+03  0.10539916979E+03  0.00000000000E+00 0. -1.
    9000006    2    1    2  501    0  0.00000000000E+00  0.00000000000E+00  0.89460083021E+03  0.11053991698E+04  0.64930476601E+03 0.  0.
         13    1    3    3    0    0  0.29952910859E+03 -0.28837042478E+02  0.23984134680E+03  0.38480272029E+03  0.00000000000E+00 0. -1.
          4    1    3    3  501    0 -0.29952910859E+03  0.28837042478E+02  0.65475948341E+03  0.72059644950E+03  0.00000000000E+00 0. -1.
<mgrwt>
<rscale>  0 0.64930477E+03</rscale>
<asrwt>0</asrwt>
<pdfrwt beam="1">0</pdfrwt>
<pdfrwt beam="2">  1        2 0.38327052E+00 0.64930477E+03</pdfrwt>
<totfact> 0.45975810E+00</totfact>
</mgrwt>
</event>
<event>
 5    1  0.2381755E-004  0.6395344E+03  0.7818608E-02  0.9826618E-01
         13   -1    0    0    0    0  0.00000000000E+00  0.00000000000E+00  0.10000000000E+04  0.10000000000E+04  0.00000000000E+00 0. -1.
          2   -1    0    0  501    0 -0.00000000000E+00 -0.00000000000E+00 -0.10225106658E+03  0.10225106658E+03  0.00000000000E+00 0. -1.
    9000006    2    1    2  501    0  0.00000000000E+00  0.00000000000E+00  0.89774893342E+03  0.11022510666E+04  0.63953441370E+03 0.  0.
         13    1    3    3    0    0 -0.12899437928E+03 -0.29136572875E+03  0.49504195818E+03  0.58872750754E+03  0.00000000000E+00 0. -1.
          4    1    3    3  501    0  0.12899437928E+03  0.29136572875E+03  0.40270697524E+03  0.51352355904E+03  0.00000000000E+00 0. -1.
<mgrwt>
<rscale>  0 0.63953441E+03</rscale>
<asrwt>0</asrwt>
<pdfrwt beam="1">0</pdfrwt>
<pdfrwt beam="2">  1        2 0.37182284E+00 0.63953441E+03</pdfrwt>
<totfact> 0.50701159E+00</totfact>
</mgrwt>
</event>
<event>
 5    1  0.2381755E-004  0.6451025E+03  0.7818608E-02  0.9816013E-01
         13   -1    0    0    0    0  0.00000000000E+00  0.00000000000E+00  0.10000000000E+04  0.10000000000E+04  0.00000000000E+00 0. -1.
          2   -1    0    0  501    0 -0.00000000000E+00 -0.00000000000E+00 -0.10403932232E+03  0.10403932232E+03  0.00000000000E+00 0. -1.
    9000006    2    1    2  501    0  0.00000000000E+00  0.00000000000E+00  0.89596067768E+03  0.11040393223E+04  0.64510254167E+03 0.  0.
         13    1    3    3    0    0  0.70363444865E+02  0.24677355687E+02  0.98504718646E+03  0.98786534802E+03  0.00000000000E+00 0. -1.
          4    1    3    3  501    0 -0.70363444865E+02 -0.24677355687E+02 -0.89086508783E+02  0.11617397430E+03  0.00000000000E+00 0. -1.
<mgrwt>
<rscale>  0 0.64510254E+03</rscale>
<asrwt>0</asrwt>
<pdfrwt beam="1">0</pdfrwt>
<pdfrwt beam="2">  1        2 0.37832561E+00 0.64510254E+03</pdfrwt>
<totfact> 0.47965306E+00</totfact>
</mgrwt>
</event>
<event>
 5    1  0.2381755E-004  0.6387226E+03  0.7818608E-02  0.9828174E-01
         13   -1    0    0    0    0  0.00000000000E+00  0.00000000000E+00  0.10000000000E+04  0.10000000000E+04  0.00000000000E+00 0. -1.
          2   -1    0    0  501    0 -0.00000000000E+00 -0.00000000000E+00 -0.10199164310E+03  0.10199164310E+03  0.00000000000E+00 0. -1.
    9000006    2    1    2  501    0  0.00000000000E+00  0.00000000000E+00  0.89800835690E+03  0.11019916431E+04  0.63872260990E+03 0.  0.
         13    1    3    3    0    0 -0.42012143276E+02 -0.29233674866E+03  0.23935401161E+03  0.38015278202E+03  0.00000000000E+00 0. -1.
          4    1    3    3  501    0  0.42012143276E+02  0.29233674866E+03  0.65865434529E+03  0.72183886108E+03  0.00000000000E+00 0. -1.
<mgrwt>
<rscale>  0 0.63872261E+03</rscale>
<asrwt>0</asrwt>
<pdfrwt beam="1">0</pdfrwt>
<pdfrwt beam="2">  1        2 0.37087948E+00 0.63872261E+03</pdfrwt>
<totfact> 0.51109705E+00</totfact>
</mgrwt>
</event>
<event>
 5    1  0.2381755E-004  0.6712070E+03  0.7818608E-02  0.9767780E-01
         13   -1    0    0    0    0  0.00000000000E+00  0.00000000000E+00  0.10000000000E+04  0.10000000000E+04  0.00000000000E+00 0. -1.
          2   -1    0    0  501    0 -0.00000000000E+00 -0.00000000000E+00 -0.11262972240E+03  0.11262972240E+03  0.00000000000E+00 0. -1.
    9000006    2    1    2  501    0  0.00000000000E+00  0.00000000000E+00  0.88737027760E+03  0.11126297224E+04  0.67120703928E+03 0.  0.
         13    1    3    3    0    0  0.31901958995E+02 -0.65076004933E+01 -0.11000548328E+03  0.11472266648E+03  0.00000000000E+00 0. -1.
          2    1    3    3  501    0 -0.31901958995E+02  0.65076004933E+01  0.99737576088E+03  0.99790705592E+03  0.00000000000E+00 0. -1.
<mgrwt>
<rscale>  0 0.67120704E+03</rscale>
<asrwt>0</asrwt>
<pdfrwt beam="1">0</pdfrwt>
<pdfrwt beam="2">  1        2 0.40956349E+00 0.67120704E+03</pdfrwt>
<totfact> 0.36595501E+00</totfact>
</mgrwt>
</event>
<event>
 5    1  0.2381755E-004  0.6500520E+03  0.7818608E-02  0.9806682E-01
         13   -1    0    0    0    0  0.00000000000E+00  0.00000000000E+00  0.10000000000E+04  0.10000000000E+04  0.00000000000E+00 0. -1.
          2   -1    0    0  501    0 -0.00000000000E+00 -0.00000000000E+00 -0.10564190403E+03  0.10564190403E+03  0.00000000000E+00 0. -1.
    9000006    2    1    2  501    0  0.00000000000E+00  0.00000000000E+00  0.89435809597E+03  0.11056419040E+04  0.65005201033E+03 0.  0.
         13    1    3    3    0    0  0.47369199316E+02  0.28710935608E+03  0.20090021794E+03  0.35360503526E+03  0.00000000000E+00 0. -1.
          2    1    3    3  501    0 -0.47369199316E+02 -0.28710935608E+03  0.69345787803E+03  0.75203686877E+03  0.00000000000E+00 0. -1.
<mgrwt>
<rscale>  0 0.65005201E+03</rscale>
<asrwt>0</asrwt>
<pdfrwt beam="1">0</pdfrwt>
<pdfrwt beam="2">  1        2 0.38415319E+00 0.65005201E+03</pdfrwt>
<totfact> 0.45628675E+00</totfact>
</mgrwt>
</event>
<event>
 5    1  0.2381755E-004  0.6460038E+03  0.7818608E-02  0.9814307E-01
         13   -1    0    0    0    0  0.00000000000E+00  0.00000000000E+00  0.10000000000E+04  0.10000000000E+04  0.00000000000E+00 0. -1.
          2   -1    0    0  501    0 -0.00000000000E+00 -0.00000000000E+00 -0.10433022212E+03  0.10433022212E+03  0.00000000000E+00 0. -1.
    9000006    2    1    2  501    0  0.00000000000E+00  0.00000000000E+00  0.89566977788E+03  0.11043302221E+04  0.64600378363E+03 0.  0.
         13    1    3    3    0    0  0.36578755230E+02  0.16887999299E+03 -0.18673780210E+02  0.17380209272E+03  0.00000000000E+00 0. -1.
          2    1    3    3  501    0 -0.36578755230E+02 -0.16887999299E+03  0.91434355809E+03  0.93052812939E+03  0.00000000000E+00 0. -1.
<mgrwt>
<rscale>  0 0.64600378E+03</rscale>
<asrwt>0</asrwt>
<pdfrwt beam="1">0</pdfrwt>
<pdfrwt beam="2">  1        2 0.37938343E+00 0.64600378E+03</pdfrwt>
<totfact> 0.47533242E+00</totfact>
</mgrwt>
</event>
<event>
 5    1  0.2381755E-004  0.6381049E+03  0.7818608E-02  0.9829359E-01
         13   -1    0    0    0    0  0.00000000000E+00  0.00000000000E+00  0.10000000000E+04  0.10000000000E+04  0.00000000000E+00 0. -1.
          2   -1    0    0  501    0 -0.00000000000E+00 -0.00000000000E+00 -0.10179446222E+03  0.10179446222E+03  0.00000000000E+00 0. -1.
    9000006    2    1    2  501    0  0.00000000000E+00  0.00000000000E+00  0.89820553778E+03  0.11017944622E+04  0.63810488862E+03 0.  0.
         13    1    3    3    0    0 -0.13571601380E+03  0.26569798228E+03  0.64430171789E+03  0.71002743458E+03  0.00000000000E+00 0. -1.
          4    1    3    3  501    0  0.13571601380E+03 -0.26569798228E+03  0.25390381989E+03  0.39176702764E+03  0.00000000000E+00 0. -1.
<mgrwt>
<rscale>  0 0.63810489E+03</rscale>
<asrwt>0</asrwt>
<pdfrwt beam="1">0</pdfrwt>
<pdfrwt beam="2">  1        2 0.37016246E+00 0.63810489E+03</pdfrwt>
<totfact> 0.51422244E+00</totfact>
</mgrwt>
</event>
<event>
 5    1  0.2381755E-004  0.6588709E+03  0.7818608E-02  0.9790275E-01
         13   -1    0    0    0    0  0.00000000000E+00  0.00000000000E+00  0.10000000000E+04  0.10000000000E+04  0.00000000000E+00 0. -1.
          2   -1    0    0  501    0 -0.00000000000E+00 -0.00000000000E+00 -0.10852771409E+03  0.10852771409E+03  0.00000000000E+00 0. -1.
    9000006    2    1    2  501    0  0.00000000000E+00  0.00000000000E+00  0.89147228591E+03  0.11085277141E+04  0.65887089507E+03 0.  0.
         13    1    3    3    0    0  0.65433651602E+01 -0.38952296194E+02  0.99600177942E+03  0.99678465158E+03  0.00000000000E+00 0. -1.
          2    1    3    3  501    0 -0.65433651602E+01  0.38952296194E+02 -0.10452949352E+03  0.11174306252E+03  0.00000000000E+00 0. -1.
<mgrwt>
<rscale>  0 0.65887090E+03</rscale>
<asrwt>0</asrwt>
<pdfrwt beam="1">0</pdfrwt>
<pdfrwt beam="2">  1        2 0.39464707E+00 0.65887090E+03</pdfrwt>
<totfact> 0.41679636E+00</totfact>
</mgrwt>
</event>
<event>
 5    1  0.2381755E-004  0.6613064E+03  0.7818608E-02  0.9785792E-01
         13   -1    0    0    0    0  0.00000000000E+00  0.00000000000E+00  0.10000000000E+04  0.10000000000E+04  0.00000000000E+00 0. -1.
          2   -1    0    0  501    0 -0.00000000000E+00 -0.00000000000E+00 -0.10933153111E+03  0.10933153111E+03  0.00000000000E+00 0. -1.
    9000006    2    1    2  501    0  0.00000000000E+00  0.00000000000E+00  0.89066846889E+03  0.11093315311E+04  0.66130637714E+03 0.  0.
         13    1    3    3    0    0  0.20242301919E+03 -0.26122444286E+03  0.46357512857E+03  0.56931115225E+03  0.00000000000E+00 0. -1.
          4    1    3    3  501    0 -0.20242301919E+03  0.26122444286E+03  0.42709334032E+03  0.54002037887E+03  0.00000000000E+00 0. -1.
<mgrwt>
<rscale>  0 0.66130638E+03</rscale>
<asrwt>0</asrwt>
<pdfrwt beam="1">0</pdfrwt>
<pdfrwt beam="2">  1        2 0.39757004E+00 0.66130638E+03</pdfrwt>
<totfact> 0.40636119E+00</totfact>
</mgrwt>
</event>
<event>
 5    1  0.2381755E-004  0.6492704E+03  0.7818608E-02  0.9808149E-01
         13   -1    0    0    0    0  0.00000000000E+00  0.00000000000E+00  0.10000000000E+04  0.10000000000E+04  0.00000000000E+00 0. -1.
          2   -1    0    0  501    0 -0.00000000000E+00 -0.00000000000E+00 -0.10538802285E+03  0.10538802285E+03  0.00000000000E+00 0. -1.
    9000006    2    1    2  501    0  0.00000000000E+00  0.00000000000E+00  0.89461197715E+03  0.11053880229E+04  0.64927043011E+03 0.  0.
         13    1    3    3    0    0  0.25904929038E+03  0.17433424526E+03  0.59852337607E+03  0.67507717753E+03  0.00000000000E+00 0. -1.
          4    1    3    3  501    0 -0.25904929038E+03 -0.17433424526E+03  0.29608860107E+03  0.43031084532E+03  0.00000000000E+00 0. -1.
<mgrwt>
<rscale>  0 0.64927043E+03</rscale>
<asrwt>0</asrwt>
<pdfrwt beam="1">0</pdfrwt>
<pdfrwt beam="2">  1        2 0.38322998E+00 0.64927043E+03</pdfrwt>
<totfact> 0.45991808E+00</totfact>
</mgrwt>
</event>
<event>
 5    1  0.2381755E-004  0.6498230E+03  0.7818608E-02  0.9807111E-01
         13   -1    0    0    0    0  0.00000000000E+00  0.00000000000E+00  0.10000000000E+04  0.10000000000E+04  0.00000000000E+00 0. -1.
          2   -1    0    0  501    0 -0.00000000000E+00 -0.00000000000E+00 -0.10556749501E+03  0.10556749501E+03  0.00000000000E+00 0. -1.
    9000006    2    1    2  501    0  0.00000000000E+00  0.00000000000E+00  0.89443250499E+03  0.11055674950E+04  0.64982303748E+03 0.  0.
         13    1    3    3    0    0 -0.27649296700E+03  0.58858766898E+02  0.17471136057E+03  0.33232028941E+03  0.00000000000E+00 0. -1.
          2    1    3    3  501    0  0.27649296700E+03 -0.58858766898E+02  0.71972114442E+03  0.77324720560E+03  0.00000000000E+00 0. -1.
<mgrwt>
<rscale>  0 0.64982304E+03</rscale>
<asrwt>0</asrwt>
<pdfrwt beam="1">0</pdfrwt>
<pdfrwt beam="2">  1        2 0.38388261E+00 0.64982304E+03</pdfrwt>
<totfact> 0.45734834E+00</totfact>
</mgrwt>
</event>
<event>
 5    1  0.2381755E-004  0.6394497E+03  0.7818608E-02  0.9826780E-01
         13   -1    0    0    0    0  0.00000000000E+00  0.00000000000E+00  0.10000000000E+04  0.10000000000E+04  0.00000000000E+00 0. -1.
          2   -1    0    0  501    0 -0.00000000000E+00 -0.00000000000E+00 -0.10222397074E+03  0.10222397074E+03  0.00000000000E+00 0. -1.
    9000006    2    1    2  501    0  0.00000000000E+00  0.00000000000E+00  0.89777602926E+03  0.11022239707E+04  0.63944967195E+03 0.  0.
         13    1    3    3    0    0  0.32722082573E+02  0.11222867873E+03 -0.64064642600E+02  0.13330524914E+03  0.00000000000E+00 0. -1.
          4    1    3    3  501    0 -0.32722082573E+02 -0.11222867873E+03  0.96184067186E+03  0.96891872160E+03  0.00000000000E+00 0. -1.
<mgrwt>
<rscale>  0 0.63944967E+03</rscale>
<asrwt>0</asrwt>
<pdfrwt beam="1">0</pdfrwt>
<pdfrwt beam="2">  1        2 0.37172431E+00 0.63944967E+03</pdfrwt>
<totfact> 0.50743690E+00</totfact>
</mgrwt>
</event>
<event>
 5    1  0.2381755E-004  0.6450486E+03  0.7818608E-02  0.9816115E-01
         13   -1    0    0    0    0  0.00000000000E+00  0.00000000000E+00  0.10000000000E+04  0.10000000000E+04  0.00000000000E+00 0. -1.
          2   -1    0    0  501    0 -0.00000000000E+00 -0.00000000000E+00 -0.10402193299E+03  0.10402193299E+03  0.00000000000E+00 0. -1.
    9000006    2    1    2  501    0  0.00000000000E+00  0.00000000000E+00  0.89597806701E+03  0.11040219330E+04  0.64504862758E+03 0.  0.
         13    1    3    3    0    0  0.33083895423E+01  0.36945888640E+01 -0.10395666911E+03  0.10407489842E+03  0.00000000000E+00 0. -1.
          4    1    3    3  501    0 -0.33083895423E+01 -0.36945888640E+01  0.99993473613E+03  0.99994703457E+03  0.00000000000E+00 0. -1.
<mgrwt>
<rscale>  0 0.64504863E+03</rscale>
<asrwt>0</asrwt>
<pdfrwt beam="1">0</pdfrwt>
<pdfrwt beam="2">  1        2 0.37826237E+00 0.64504863E+03</pdfrwt>
<totfact> 0.47991246E+00</totfact>
</mgrwt>
</event>
<event>
 5    1  0.2381755E-004  0.6511294E+03  0.7818608E-02  0.9804662E-01
         13   -1    0    0    0    0  0.00000000000E+00  0.00000000000E+00  0.10000000000E+04  0.10000000000E+04  0.00000000000E+00 0. -1.
          2   -1    0    0  501    0 -0.00000000000E+00 -0.00000000000E+00 -0.10599237073E+03  0.10599237073E+03  0.00000000000E+00 0. -1.
    9000006    2    1    2  501    0  0.00000000000E+00  0.00000000000E+00  0.89400762927E+03  0.11059923707E+04  0.65112939031E+03 0.  0.
         13    1    3    3    0    0 -0.28883911304E+03  0.81074500448E+02  0.23220780260E+03  0.37936996643E+03  0.00000000000E+00 0. -1.
          2    1    3    3  501    0  0.28883911304E+03 -0.81074500448E+02  0.66179982667E+03  0.72662240430E+03  0.00000000000E+00 0. -1.
<mgrwt>
<rscale>  0 0.65112939E+03</rscale>
<asrwt>0</asrwt>
<pdfrwt beam="1">0</pdfrwt>
<pdfrwt beam="2">  1        2 0.38542762E+00 0.65112939E+03</pdfrwt>
<totfact> 0.45131667E+00</totfact>
</mgrwt>
</event>
<event>
 5    1  0.2381755E-004  0.5743491E+03  0.7818608E-02  0.9960101E-01
         13   -1    0    0    0    0  0.00000000000E+00  0.00000000000E+00  0.10000000000E+04  0.10000000000E+04  0.00000000000E+00 0. -1.
          2   -1    0    0  501    0 -0.00000000000E+00 -0.00000000000E+00 -0.82469228165E+02  0.82469228165E+02  0.00000000000E+00 0. -1.
    9000006    2    1    2  501    0  0.00000000000E+00  0.00000000000E+00  0.91753077184E+03  0.10824692282E+04  0.57434912088E+03 0.  0.
         13    1    3    3    0    0  0.43593637324E+02  0.25112329717E+03  0.20940240771E+03  0.32986767642E+03  0.00000000000E+00 0. -1.
          4    1    3    3  501    0 -0.43593637324E+02 -0.25112329717E+03  0.70812836413E+03  0.75260155174E+03  0.00000000000E+00 0. -1.
<mgrwt>
<rscale>  0 0.57434912E+03</rscale>
<asrwt>0</asrwt>
<pdfrwt beam="1">0</pdfrwt>
<pdfrwt beam="2">  1        2 0.29988873E+00 0.57434912E+03</pdfrwt>
<totfact> 0.92412349E+00</totfact>
</mgrwt>
</event>
<event>
 5    1  0.2381755E-004  0.6435902E+03  0.7818608E-02  0.9818882E-01
         13   -1    0    0    0    0  0.00000000000E+00  0.00000000000E+00  0.10000000000E+04  0.10000000000E+04  0.00000000000E+00 0. -1.
          2   -1    0    0  501    0 -0.00000000000E+00 -0.00000000000E+00 -0.10355209199E+03  0.10355209199E+03  0.00000000000E+00 0. -1.
    9000006    2    1    2  501    0  0.00000000000E+00  0.00000000000E+00  0.89644790801E+03  0.11035520920E+04  0.64359021743E+03 0.  0.
         13    1    3    3    0    0  0.33911987305E+02  0.10829929185E+03 -0.68101092656E+02  0.13234998420E+03  0.00000000000E+00 0. -1.
          2    1    3    3  501    0 -0.33911987305E+02 -0.10829929185E+03  0.96454900066E+03  0.97120210779E+03  0.00000000000E+00 0. -1.
<mgrwt>
<rscale>  0 0.64359022E+03</rscale>
<asrwt>0</asrwt>
<pdfrwt beam="1">0</pdfrwt>
<pdfrwt beam="2">  1        2 0.37655386E+00 0.64359022E+03</pdfrwt>
<totfact> 0.48696997E+00</totfact>
</mgrwt>
</event>
<event>
 5    1  0.2381755E-004  0.7189359E+03  0.7818608E-02  0.9685386E-01
         13   -1    0    0    0    0  0.00000000000E+00  0.00000000000E+00  0.10000000000E+04  0.10000000000E+04  0.00000000000E+00 0. -1.
          2   -1    0    0  501    0 -0.00000000000E+00 -0.00000000000E+00 -0.12921719064E+03  0.12921719064E+03  0.00000000000E+00 0. -1.
    9000006    2    1    2  501    0  0.00000000000E+00  0.00000000000E+00  0.87078280936E+03  0.11292171906E+04  0.71893585426E+03 0.  0.
         13    1    3    3    0    0 -0.55695332929E+02  0.27595134907E+03  0.78648665084E+03  0.83535164399E+03  0.00000000000E+00 0. -1.
          4    1    3    3  501    0  0.55695332929E+02 -0.27595134907E+03  0.84296158518E+02  0.29386554664E+03  0.00000000000E+00 0. -1.
<mgrwt>
<rscale>  0 0.71893585E+03</rscale>
<asrwt>0</asrwt>
<pdfrwt beam="1">0</pdfrwt>
<pdfrwt beam="2">  1        2 0.46988168E+00 0.71893585E+03</pdfrwt>
<totfact> 0.21182864E+00</totfact>
</mgrwt>
</event>
<event>
 5    1  0.2381755E-004  0.6435021E+03  0.7818608E-02  0.9819049E-01
         13   -1    0    0    0    0  0.00000000000E+00  0.00000000000E+00  0.10000000000E+04  0.10000000000E+04  0.00000000000E+00 0. -1.
          2   -1    0    0  501    0 -0.00000000000E+00 -0.00000000000E+00 -0.10352373500E+03  0.10352373500E+03  0.00000000000E+00 0. -1.
    9000006    2    1    2  501    0  0.00000000000E+00  0.00000000000E+00  0.89647626500E+03  0.11035237350E+04  0.64350209012E+03 0.  0.
         13    1    3    3    0    0 -0.16865190197E+03  0.25763968963E+03  0.60820969458E+03  0.68171893496E+03  0.00000000000E+00 0. -1.
          2    1    3    3  501    0  0.16865190197E+03 -0.25763968963E+03  0.28826657042E+03  0.42180480004E+03  0.00000000000E+00 0. -1.
<mgrwt>
<rscale>  0 0.64350209E+03</rscale>
<asrwt>0</asrwt>
<pdfrwt beam="1">0</pdfrwt>
<pdfrwt beam="2">  1        2 0.37645074E+00 0.64350209E+03</pdfrwt>
<totfact> 0.48739893E+00</totfact>
</mgrwt>
</event>
<event>
 5    1  0.2381755E-004  0.6549982E+03  0.7818608E-02  0.9797445E-01
         13   -1    0    0    0    0  0.00000000000E+00  0.00000000000E+00  0.10000000000E+04  0.10000000000E+04  0.00000000000E+00 0. -1.
          2   -1    0    0  501    0 -0.00000000000E+00 -0.00000000000E+00 -0.10725564638E+03  0.10725564638E+03  0.00000000000E+00 0. -1.
    9000006    2    1    2  501    0  0.00000000000E+00  0.00000000000E+00  0.89274435362E+03  0.11072556464E+04  0.65499815690E+03 0.  0.
         13    1    3    3    0    0  0.18290902990E+03  0.22051421896E+03  0.17815976524E+03  0.33737684558E+03  0.00000000000E+00 0. -1.
          4    1    3    3  501    0 -0.18290902990E+03 -0.22051421896E+03  0.71458458838E+03  0.76987880081E+03  0.00000000000E+00 0. -1.
<mgrwt>
<rscale>  0 0.65499816E+03</rscale>
<asrwt>0</asrwt>
<pdfrwt beam="1">0</pdfrwt>
<pdfrwt beam="2">  1        2 0.39002135E+00 0.65499816E+03</pdfrwt>
<totfact> 0.43380596E+00</totfact>
</mgrwt>
</event>
<event>
 5    1  0.2381755E-004  0.6351329E+03  0.7818608E-02  0.9835083E-01
         13   -1    0    0    0    0  0.00000000000E+00  0.00000000000E+00  0.10000000000E+04  0.10000000000E+04  0.00000000000E+00 0. -1.
          2   -1    0    0  501    0 -0.00000000000E+00 -0.00000000000E+00 -0.10084846067E+03  0.10084846067E+03  0.00000000000E+00 0. -1.
    9000006    2    1    2  501    0  0.00000000000E+00  0.00000000000E+00  0.89915153933E+03  0.11008484607E+04  0.63513293309E+03 0.  0.
         13    1    3    3    0    0  0.58516157497E+02 -0.21292097633E+03  0.84515713450E+03  0.87352736926E+03  0.00000000000E+00 0. -1.
          2    1    3    3  501    0 -0.58516157497E+02  0.21292097633E+03  0.53994404830E+02  0.22732109142E+03  0.00000000000E+00 0. -1.
<mgrwt>
<rscale>  0 0.63513293E+03</rscale>
<asrwt>0</asrwt>
<pdfrwt beam="1">0</pdfrwt>
<pdfrwt beam="2">  1        2 0.36672245E+00 0.63513293E+03</pdfrwt>
<totfact> 0.52946215E+00</totfact>
</mgrwt>
</event>
<event>
 5    1  0.2381755E-004  0.6570322E+03  0.7818608E-02  0.9793673E-01
         13   -1    0    0    0    0  0.00000000000E+00  0.00000000000E+00  0.10000000000E+04  0.10000000000E+04  0.00000000000E+00 0. -1.
          2   -1    0    0  501    0 -0.00000000000E+00 -0.00000000000E+00 -0.10792282838E+03  0.10792282838E+03  0.00000000000E+00 0. -1.
    9000006    2    1    2  501    0  0.00000000000E+00  0.00000000000E+00  0.89207717162E+03  0.11079228284E+04  0.65703220127E+03 0.  0.
         13    1    3    3    0    0 -0.13721031108E+03 -0.14039334136E+03  0.89021794245E+03  0.91160569591E+03  0.00000000000E+00 0. -1.
          2    1    3    3  501    0  0.13721031108E+03  0.14039334136E+03  0.18592291734E+01  0.19631713246E+03  0.00000000000E+00 0. -1.
<mgrwt>
<rscale>  0 0.65703220E+03</rscale>
<asrwt>0</asrwt>
<pdfrwt beam="1">0</pdfrwt>
<pdfrwt beam="2">  1        2 0.39244748E+00 0.65703220E+03</pdfrwt>
<totfact> 0.42480799E+00</totfact>
</mgrwt>
</event>
<event>
 5    1  0.2381755E-004  0.6414319E+03  0.7818608E-02  0.9822991E-01
         13   -1    0    0    0    0  0.00000000000E+00  0.00000000000E+00  0.10000000000E+04  0.10000000000E+04  0.00000000000E+00 0. -1.
          2   -1    0    0  501    0 -0.00000000000E+00 -0.00000000000E+00 -0.10285872945E+03  0.10285872945E+03  0.00000000000E+00 0. -1.
    9000006    2    1    2  501    0  0.00000000000E+00  0.00000000000E+00  0.89714127055E+03  0.11028587295E+04  0.64143192765E+03 0.  0.
         13    1    3    3    0    0 -0.26733424526E+03  0.11142244463E+03  0.21172052662E+03  0.35875916887E+03  0.00000000000E+00 0. -1.
          4    1    3    3  501    0  0.26733424526E+03 -0.11142244463E+03  0.68542074393E+03  0.74409956058E+03  0.00000000000E+00 0. -1.
<mgrwt>
<rscale>  0 0.64143193E+03</rscale>
<asrwt>0</asrwt>
<pdfrwt beam="1">0</pdfrwt>
<pdfrwt beam="2">  1        2 0.37403253E+00 0.64143193E+03</pdfrwt>
<totfact> 0.49755870E+00</totfact>
</mgrwt>
</event>
<event>
 5    1  0.2381755E-004  0.6421024E+03  0.7818608E-02  0.9821712E-01
         13   -1    0    0    0    0  0.00000000000E+00  0.00000000000E+00  0.10000000000E+04  0.10000000000E+04  0.00000000000E+00 0. -1.
          2   -1    0    0  501    0 -0.00000000000E+00 -0.00000000000E+00 -0.10307388383E+03  0.10307388383E+03  0.00000000000E+00 0. -1.
    9000006    2    1    2  501    0  0.00000000000E+00  0.00000000000E+00  0.89692611617E+03  0.11030738838E+04  0.64210243366E+03 0.  0.
         13    1    3    3    0    0  0.67124881327E+02 -0.31254136673E+03  0.39732737476E+03  0.50995774172E+03  0.00000000000E+00 0. -1.
          4    1    3    3  501    0 -0.67124881327E+02  0.31254136673E+03  0.49959874141E+03  0.59311614211E+03  0.00000000000E+00 0. -1.
<mgrwt>
<rscale>  0 0.64210243E+03</rscale>
<asrwt>0</asrwt>
<pdfrwt beam="1">0</pdfrwt>
<pdfrwt beam="2">  1        2 0.37481491E+00 0.64210243E+03</pdfrwt>
<totfact> 0.49425054E+00</totfact>
</mgrwt>
</event>
<event>
 5    1  0.2381755E-004  0.6569811E+03  0.7818608E-02  0.9793767E-01
         13   -1    0    0    0    0  0.00000000000E+00  0.00000000000E+00  0.10000000000E+04  0.10000000000E+04  0.00000000000E+00 0. -1.
          2   -1    0    0  501    0 -0.00000000000E+00 -0.00000000000E+00 -0.10790604831E+03  0.10790604831E+03  0.00000000000E+00 0. -1.
    9000006    2    1    2  501    0  0.00000000000E+00  0.00000000000E+00  0.89209395169E+03  0.11079060483E+04  0.65698112092E+03 0.  0.
         13    1    3    3    0    0 -0.31870222221E+03 -0.53244406900E+01  0.57996758563E+03  0.66178686637E+03  0.00000000000E+00 0. -1.
          4    1    3    3  501    0  0.31870222221E+03  0.53244406900E+01  0.31212636605E+03  0.44611918194E+03  0.00000000000E+00 0. -1.
<mgrwt>
<rscale>  0 0.65698112E+03</rscale>
<asrwt>0</asrwt>
<pdfrwt beam="1">0</pdfrwt>
<pdfrwt beam="2">  1        2 0.39238646E+00 0.65698112E+03</pdfrwt>
<totfact> 0.42503221E+00</totfact>
</mgrwt>
</event>
<event>
 5    1  0.2381755E-004  0.6329574E+03  0.7818608E-02  0.9839295E-01
         13   -1    0    0    0    0  0.00000000000E+00  0.00000000000E+00  0.10000000000E+04  0.10000000000E+04  0.00000000000E+00 0. -1.
          4   -1    0    0  501    0 -0.00000000000E+00 -0.00000000000E+00 -0.10015876975E+03  0.10015876975E+03  0.00000000000E+00 0. -1.
    9000006    2    1    2  501    0  0.00000000000E+00  0.00000000000E+00  0.89984123025E+03  0.11001587698E+04  0.63295740695E+03 0.  0.
         13    1    3    3    0    0  0.18767589909E+03  0.24180624830E+03  0.31015265528E+03  0.43576045529E+03  0.00000000000E+00 0. -1.
          4    1    3    3  501    0 -0.18767589909E+03 -0.24180624830E+03  0.58968857496E+03  0.66439831446E+03  0.00000000000E+00 0. -1.
<mgrwt>
<rscale>  0 0.63295741E+03</rscale>
<asrwt>0</asrwt>
<pdfrwt beam="1">0</pdfrwt>
<pdfrwt beam="2">  1        4 0.36421448E+00 0.63295741E+03</pdfrwt>
<totfact> 0.55865776E-02</totfact>
</mgrwt>
</event>
<event>
 5    1  0.2381755E-004  0.6558329E+03  0.7818608E-02  0.9795895E-01
         13   -1    0    0    0    0  0.00000000000E+00  0.00000000000E+00  0.10000000000E+04  0.10000000000E+04  0.00000000000E+00 0. -1.
          2   -1    0    0  501    0 -0.00000000000E+00 -0.00000000000E+00 -0.10752918217E+03  0.10752918217E+03  0.00000000000E+00 0. -1.
    9000006    2    1    2  501    0  0.00000000000E+00  0.00000000000E+00  0.89247081783E+03  0.11075291822E+04  0.65583285117E+03 0.  0.
         13    1    3    3    0    0  0.12182710170E+02  0.25528056053E+03  0.99272493723E+02  0.27417441715E+03  0.00000000000E+00 0. -1.
          2    1    3    3  501    0 -0.12182710170E+02 -0.25528056053E+03  0.79319832411E+03  0.83335476502E+03  0.00000000000E+00 0. -1.
<mgrwt>
<rscale>  0 0.65583285E+03</rscale>
<asrwt>0</asrwt>
<pdfrwt beam="1">0</pdfrwt>
<pdfrwt beam="2">  1        2 0.39101603E+00 0.65583285E+03</pdfrwt>
<totfact> 0.43009630E+00</totfact>
</mgrwt>
</event>
<event>
 5    1  0.2381755E-004  0.6459191E+03  0.7818608E-02  0.9814467E-01
         13   -1    0    0    0    0  0.00000000000E+00  0.00000000000E+00  0.10000000000E+04  0.10000000000E+04  0.00000000000E+00 0. -1.
          2   -1    0    0  501    0 -0.00000000000E+00 -0.00000000000E+00 -0.10430287054E+03  0.10430287054E+03  0.00000000000E+00 0. -1.
    9000006    2    1    2  501    0  0.00000000000E+00  0.00000000000E+00  0.89569712946E+03  0.11043028705E+04  0.64591909877E+03 0.  0.
         13    1    3    3    0    0  0.23631681412E+03 -0.79890048441E+02  0.79853678471E+03  0.83659372040E+03  0.00000000000E+00 0. -1.
          4    1    3    3  501    0 -0.23631681412E+03  0.79890048441E+02  0.97160344748E+02  0.26770915014E+03  0.00000000000E+00 0. -1.
<mgrwt>
<rscale>  0 0.64591910E+03</rscale>
<asrwt>0</asrwt>
<pdfrwt beam="1">0</pdfrwt>
<pdfrwt beam="2">  1        2 0.37928397E+00 0.64591910E+03</pdfrwt>
<totfact> 0.47573715E+00</totfact>
</mgrwt>
</event>
<event>
 5    1  0.2381755E-004  0.6424831E+03  0.7818608E-02  0.9820987E-01
         13   -1    0    0    0    0  0.00000000000E+00  0.00000000000E+00  0.10000000000E+04  0.10000000000E+04  0.00000000000E+00 0. -1.
          2   -1    0    0  501    0 -0.00000000000E+00 -0.00000000000E+00 -0.10319612035E+03  0.10319612035E+03  0.00000000000E+00 0. -1.
    9000006    2    1    2  501    0  0.00000000000E+00  0.00000000000E+00  0.89680387965E+03  0.11031961204E+04  0.64248305923E+03 0.  0.
         13    1    3    3    0    0 -0.71228611500E+02 -0.18641888779E+02 -0.88512577367E+02  0.11513258212E+03  0.00000000000E+00 0. -1.
          2    1    3    3  501    0  0.71228611500E+02  0.18641888779E+02  0.98531645702E+03  0.98806353823E+03  0.00000000000E+00 0. -1.
<mgrwt>
<rscale>  0 0.64248306E+03</rscale>
<asrwt>0</asrwt>
<pdfrwt beam="1">0</pdfrwt>
<pdfrwt beam="2">  1        2 0.37525941E+00 0.64248306E+03</pdfrwt>
<totfact> 0.49238004E+00</totfact>
</mgrwt>
</event>
<event>
 5    1  0.2381755E-004  0.6308616E+03  0.7818608E-02  0.9843369E-01
         13   -1    0    0    0    0  0.00000000000E+00  0.00000000000E+00  0.10000000000E+04  0.10000000000E+04  0.00000000000E+00 0. -1.
          2   -1    0    0  501    0 -0.00000000000E+00 -0.00000000000E+00 -0.99496579079E+02  0.99496579079E+02  0.00000000000E+00 0. -1.
    9000006    2    1    2  501    0  0.00000000000E+00  0.00000000000E+00  0.90050342092E+03  0.10994965791E+04  0.63086156668E+03 0.  0.
         13    1    3    3    0    0 -0.29888867190E+03  0.80021120322E+02  0.34339982757E+03  0.46223506949E+03  0.00000000000E+00 0. -1.
          4    1    3    3  501    0  0.29888867190E+03 -0.80021120322E+02  0.55710359335E+03  0.63726150959E+03  0.00000000000E+00 0. -1.
<mgrwt>
<rscale>  0 0.63086157E+03</rscale>
<asrwt>0</asrwt>
<pdfrwt beam="1">0</pdfrwt>
<pdfrwt beam="2">  1        2 0.36180651E+00 0.63086157E+03</pdfrwt>
<totfact> 0.55196178E+00</totfact>
</mgrwt>
</event>
<event>
 5    1  0.2381755E-004  0.6517206E+03  0.7818608E-02  0.9803556E-01
         13   -1    0    0    0    0  0.00000000000E+00  0.00000000000E+00  0.10000000000E+04  0.10000000000E+04  0.00000000000E+00 0. -1.
          2   -1    0    0  501    0 -0.00000000000E+00 -0.00000000000E+00 -0.10618493152E+03  0.10618493152E+03  0.00000000000E+00 0. -1.
    9000006    2    1    2  501    0  0.00000000000E+00  0.00000000000E+00  0.89381506848E+03  0.11061849315E+04  0.65172058898E+03 0.  0.
         13    1    3    3    0    0  0.16577427786E+03  0.22351976378E+03  0.73466748218E+03  0.78560709351E+03  0.00000000000E+00 0. -1.
          2    1    3    3  501    0 -0.16577427786E+03 -0.22351976378E+03  0.15914758630E+03  0.32057783802E+03  0.00000000000E+00 0. -1.
<mgrwt>
<rscale>  0 0.65172059E+03</rscale>
<asrwt>0</asrwt>
<pdfrwt beam="1">0</pdfrwt>
<pdfrwt beam="2">  1        2 0.38612784E+00 0.65172059E+03</pdfrwt>
<totfact> 0.44860684E+00</totfact>
</mgrwt>
</event>
<event>
 5    1  0.2381755E-004  0.6420678E+03  0.7818608E-02  0.9821778E-01
         13   -1    0    0    0    0  0.00000000000E+00  0.00000000000E+00  0.10000000000E+04  0.10000000000E+04  0.00000000000E+00 0. -1.
          2   -1    0    0  501    0 -0.00000000000E+00 -0.00000000000E+00 -0.10306276686E+03  0.10306276686E+03  0.00000000000E+00 0. -1.
    9000006    2    1    2  501    0  0.00000000000E+00  0.00000000000E+00  0.89693723314E+03  0.11030627669E+04  0.64206780594E+03 0.  0.
         13    1    3    3    0    0  0.20333361302E+03  0.89353805609E+01  0.21943219890E+02  0.20470931613E+03  0.00000000000E+00 0. -1.
          2    1    3    3  501    0 -0.20333361302E+03 -0.89353805609E+01  0.87499401325E+03  0.89835345073E+03  0.00000000000E+00 0. -1.
<mgrwt>
<rscale>  0 0.64206781E+03</rscale>
<asrwt>0</asrwt>
<pdfrwt beam="1">0</pdfrwt>
<pdfrwt beam="2">  1        2 0.37477449E+00 0.64206781E+03</pdfrwt>
<totfact> 0.49442098E+00</totfact>
</mgrwt>
</event>
<event>
 5    1  0.2381755E-004  0.6525892E+03  0.7818608E-02  0.9801933E-01
         13   -1    0    0    0    0  0.00000000000E+00  0.00000000000E+00  0.10000000000E+04  0.10000000000E+04  0.00000000000E+00 0. -1.
          2   -1    0    0  501    0 -0.00000000000E+00 -0.00000000000E+00 -0.10646817220E+03  0.10646817220E+03  0.00000000000E+00 0. -1.
    9000006    2    1    2  501    0  0.00000000000E+00  0.00000000000E+00  0.89353182780E+03  0.11064681722E+04  0.65258921903E+03 0.  0.
         13    1    3    3    0    0  0.25488409233E+03 -0.20064177224E+03  0.50659467720E+03  0.60154899074E+03  0.00000000000E+00 0. -1.
          4    1    3    3  501    0 -0.25488409233E+03  0.20064177224E+03  0.38693715060E+03  0.50491918146E+03  0.00000000000E+00 0. -1.
<mgrwt>
<rscale>  0 0.65258922E+03</rscale>
<asrwt>0</asrwt>
<pdfrwt beam="1">0</pdfrwt>
<pdfrwt beam="2">  1        2 0.38715781E+00 0.65258922E+03</pdfrwt>
<totfact> 0.44464769E+00</totfact>
</mgrwt>
</event>
<event>
 5    1  0.2381755E-004  0.6464082E+03  0.7818608E-02  0.9813542E-01
         13   -1    0    0    0    0  0.00000000000E+00  0.00000000000E+00  0.10000000000E+04  0.10000000000E+04  0.00000000000E+00 0. -1.
          2   -1    0    0  501    0 -0.00000000000E+00 -0.00000000000E+00 -0.10446089068E+03  0.10446089068E+03  0.00000000000E+00 0. -1.
    9000006    2    1    2  501    0  0.00000000000E+00  0.00000000000E+00  0.89553910932E+03  0.11044608907E+04  0.64640820132E+03 0.  0.
         13    1    3    3    0    0  0.66334909877E+02  0.24347700949E+02 -0.91101247480E+02  0.11529340008E+03  0.00000000000E+00 0. -1.
          4    1    3    3  501    0 -0.66334909877E+02 -0.24347700949E+02  0.98664035680E+03  0.98916749060E+03  0.00000000000E+00 0. -1.
<mgrwt>
<rscale>  0 0.64640820E+03</rscale>
<asrwt>0</asrwt>
<pdfrwt beam="1">0</pdfrwt>
<pdfrwt beam="2">  1        2 0.37985859E+00 0.64640820E+03</pdfrwt>
<totfact> 0.47340321E+00</totfact>
</mgrwt>
</event>
<event>
 5    1  0.2381755E-004  0.6516061E+03  0.7818608E-02  0.9803770E-01
         13   -1    0    0    0    0  0.00000000000E+00  0.00000000000E+00  0.10000000000E+04  0.10000000000E+04  0.00000000000E+00 0. -1.
          2   -1    0    0  501    0 -0.00000000000E+00 -0.00000000000E+00 -0.10614761513E+03  0.10614761513E+03  0.00000000000E+00 0. -1.
    9000006    2    1    2  501    0  0.00000000000E+00  0.00000000000E+00  0.89385238487E+03  0.11061476151E+04  0.65160606238E+03 0.  0.
         13    1    3    3    0    0 -0.15100716847E+01  0.12490205883E+03  0.95773661876E+03  0.96584793603E+03  0.00000000000E+00 0. -1.
          2    1    3    3  501    0  0.15100716847E+01 -0.12490205883E+03 -0.63884233896E+02  0.14029967910E+03  0.00000000000E+00 0. -1.
<mgrwt>
<rscale>  0 0.65160606E+03</rscale>
<asrwt>0</asrwt>
<pdfrwt beam="1">0</pdfrwt>
<pdfrwt beam="2">  1        2 0.38599214E+00 0.65160606E+03</pdfrwt>
<totfact> 0.44913082E+00</totfact>
</mgrwt>
</event>
<event>
 5    1  0.2381755E-004  0.6617930E+03  0.7818608E-02  0.9784899E-01
         13   -1    0    0    0    0  0.00000000000E+00  0.00000000000E+00  0.10000000000E+04  0.10000000000E+04  0.00000000000E+00 0. -1.
          2   -1    0    0  501    0 -0.00000000000E+00 -0.00000000000E+00 -0.10949249951E+03  0.10949249951E+03  0.00000000000E+00 0. -1.
    9000006    2    1    2  501    0  0.00000000000E+00  0.00000000000E+00  0.89050750049E+03  0.11094924995E+04  0.66179301753E+03 0.  0.
         13    1    3    3    0    0 -0.38725411668E+02  0.29560058322E+03  0.68595272308E+03  0.74793749779E+03  0.00000000000E+00 0. -1.
          2    1    3    3  501    0  0.38725411668E+02 -0.29560058322E+03  0.20455477741E+03  0.36155500172E+03  0.00000000000E+00 0. -1.
<mgrwt>
<rscale>  0 0.66179302E+03</rscale>
<asrwt>0</asrwt>
<pdfrwt beam="1">0</pdfrwt>
<pdfrwt beam="2">  1        2 0.39815538E+00 0.66179302E+03</pdfrwt>
<totfact> 0.40429998E+00</totfact>
</mgrwt>
</event>
<event>
 5    1  0.2381755E-004  0.6569165E+03  0.7818608E-02  0.9793887E-01
         13   -1    0    0    0    0  0.00000000000E+00  0.00000000000E+00  0.10000000000E+04  0.10000000000E+04  0.00000000000E+00 0. -1.
          2   -1    0    0  501    0 -0.00000000000E+00 -0.00000000000E+00 -0.10788483254E+03  0.10788483254E+03  0.00000000000E+00 0. -1.
    9000006    2    1    2  501    0  0.00000000000E+00  0.00000000000E+00  0.89211516746E+03  0.11078848325E+04  0.65691653211E+03 0.  0.
         13    1    3    3    0    0 -0.10786926611E+02 -0.32592332192E+03  0.51229323341E+03  0.60727812948E+03  0.00000000000E+00 0. -1.
          2    1    3    3  501    0  0.10786926611E+02  0.32592332192E+03  0.37982193405E+03  0.50060670305E+03  0.00000000000E+00 0. -1.
<mgrwt>
<rscale>  0 0.65691653E+03</rscale>
<asrwt>0</asrwt>
<pdfrwt beam="1">0</pdfrwt>
<pdfrwt beam="2">  1        2 0.39230931E+00 0.65691653E+03</pdfrwt>
<totfact> 0.42531586E+00</totfact>
</mgrwt>
</event>
<event>
 5    1  0.2381755E-004  0.6301400E+03  0.7818608E-02  0.9844776E-01
         13   -1    0    0    0    0  0.00000000000E+00  0.00000000000E+00  0.10000000000E+04  0.10000000000E+04  0.00000000000E+00 0. -1.
          2   -1    0    0  501    0 -0.00000000000E+00 -0.00000000000E+00 -0.99269092810E+02  0.99269092810E+02  0.00000000000E+00 0. -1.
    9000006    2    1    2  501    0  0.00000000000E+00  0.00000000000E+00  0.90073090719E+03  0.10992690928E+04  0.63013996163E+03 0.  0.
         13    1    3    3    0    0 -0.18684277101E+03 -0.17450657326E+03  0.77158899985E+03  0.81284214327E+03  0.00000000000E+00 0. -1.
          4    1    3    3  501    0  0.18684277101E+03  0.17450657326E+03  0.12914190734E+03  0.28642694954E+03  0.00000000000E+00 0. -1.
<mgrwt>
<rscale>  0 0.63013996E+03</rscale>
<asrwt>0</asrwt>
<pdfrwt beam="1">0</pdfrwt>
<pdfrwt beam="2">  1        2 0.36097928E+00 0.63013996E+03</pdfrwt>
<totfact> 0.55583335E+00</totfact>
</mgrwt>
</event>
<event>
 5    1  0.2381755E-004  0.6431113E+03  0.7818608E-02  0.9819792E-01
         13   -1    0    0    0    0  0.00000000000E+00  0.00000000000E+00  0.10000000000E+04  0.10000000000E+04  0.00000000000E+00 0. -1.
          2   -1    0    0  501    0 -0.00000000000E+00 -0.00000000000E+00 -0.10339805012E+03  0.10339805012E+03  0.00000000000E+00 0. -1.
    9000006    2    1    2  501    0  0.00000000000E+00  0.00000000000E+00  0.89660194988E+03  0.11033980501E+04  0.64311134377E+03 0.  0.
         13    1    3    3    0    0 -0.29851558551E+03 -0.11809722994E+03  0.41668611475E+03  0.52600934282E+03  0.00000000000E+00 0. -1.
          2    1    3    3  501    0  0.29851558551E+03  0.11809722994E+03  0.47991583513E+03  0.57738870730E+03  0.00000000000E+00 0. -1.
<mgrwt>
<rscale>  0 0.64311134E+03</rscale>
<asrwt>0</asrwt>
<pdfrwt beam="1">0</pdfrwt>
<pdfrwt beam="2">  1        2 0.37599370E+00 0.64311134E+03</pdfrwt>
<totfact> 0.48930436E+00</totfact>
</mgrwt>
</event>
<event>
 5    1  0.2381755E-004  0.5069562E+03  0.7818608E-02  0.1011979E+00
         13   -1    0    0    0    0  0.00000000000E+00  0.00000000000E+00  0.10000000000E+04  0.10000000000E+04  0.00000000000E+00 0. -1.
          2   -1    0    0  501    0 -0.00000000000E+00 -0.00000000000E+00 -0.64251140411E+02  0.64251140411E+02  0.00000000000E+00 0. -1.
    9000006    2    1    2  501    0  0.00000000000E+00  0.00000000000E+00  0.93574885959E+03  0.10642511404E+04  0.50695617330E+03 0.  0.
         13    1    3    3    0    0 -0.15924605907E+03  0.89261604240E+02  0.98707373431E+02  0.20753333922E+03  0.00000000000E+00 0. -1.
          2    1    3    3  501    0  0.15924605907E+03 -0.89261604240E+02  0.83704148616E+03  0.85671780119E+03  0.00000000000E+00 0. -1.
<mgrwt>
<rscale>  0 0.50695617E+03</rscale>
<asrwt>0</asrwt>
<pdfrwt beam="1">0</pdfrwt>
<pdfrwt beam="2">  1        2 0.23364100E+00 0.50695617E+03</pdfrwt>
<totfact> 0.15970598E+01</totfact>
</mgrwt>
</event>
<event>
 5    1  0.2381755E-004  0.6540135E+03  0.7818608E-02  0.9799277E-01
         13   -1    0    0    0    0  0.00000000000E+00  0.00000000000E+00  0.10000000000E+04  0.10000000000E+04  0.00000000000E+00 0. -1.
          2   -1    0    0  501    0 -0.00000000000E+00 -0.00000000000E+00 -0.10693341185E+03  0.10693341185E+03  0.00000000000E+00 0. -1.
    9000006    2    1    2  501    0  0.00000000000E+00  0.00000000000E+00  0.89306658815E+03  0.11069334119E+04  0.65401349176E+03 0.  0.
         13    1    3    3    0    0 -0.19095170997E+03 -0.15255272151E+03  0.81423783674E+03  0.85012830982E+03  0.00000000000E+00 0. -1.
          2    1    3    3  501    0  0.19095170997E+03  0.15255272151E+03  0.78828751408E+02  0.25680510203E+03  0.00000000000E+00 0. -1.
<mgrwt>
<rscale>  0 0.65401349E+03</rscale>
<asrwt>0</asrwt>
<pdfrwt beam="1">0</pdfrwt>
<pdfrwt beam="2">  1        2 0.38884959E+00 0.65401349E+03</pdfrwt>
<totfact> 0.43821316E+00</totfact>
</mgrwt>
</event>
<event>
 5    1  0.2381755E-004  0.6568438E+03  0.7818608E-02  0.9794021E-01
         13   -1    0    0    0    0  0.00000000000E+00  0.00000000000E+00  0.10000000000E+04  0.10000000000E+04  0.00000000000E+00 0. -1.
          2   -1    0    0  501    0 -0.00000000000E+00 -0.00000000000E+00 -0.10786094308E+03  0.10786094308E+03  0.00000000000E+00 0. -1.
    9000006    2    1    2  501    0  0.00000000000E+00  0.00000000000E+00  0.89213905692E+03  0.11078609431E+04  0.65684379598E+03 0.  0.
         13    1    3    3    0    0 -0.26988537947E+03 -0.17113037451E+03  0.31831570717E+03  0.45105278246E+03  0.00000000000E+00 0. -1.
          2    1    3    3  501    0  0.26988537947E+03  0.17113037451E+03  0.57382334975E+03  0.65680816062E+03  0.00000000000E+00 0. -1.
<mgrwt>
<rscale>  0 0.65684380E+03</rscale>
<asrwt>0</asrwt>
<pdfrwt beam="1">0</pdfrwt>
<pdfrwt beam="2">  1        2 0.39222244E+00 0.65684380E+03</pdfrwt>
<totfact> 0.42563546E+00</totfact>
</mgrwt>
</event>
<event>
 5    1  0.2381755E-004  0.6488136E+03  0.7818608E-02  0.9809008E-01
         13   -1    0    0    0    0  0.00000000000E+00  0.00000000000E+00  0.10000000000E+04  0.10000000000E+04  0.00000000000E+00 0. -1.
          2   -1    0    0  501    0 -0.00000000000E+00 -0.00000000000E+00 -0.10523975667E+03  0.10523975667E+03  0.00000000000E+00 0. -1.
    9000006    2    1    2  501    0  0.00000000000E+00  0.00000000000E+00  0.89476024333E+03  0.11052397567E+04  0.64881355309E+03 0.  0.
         13    1    3    3    0    0  0.18872215377E+03  0.14968702776E+03  0.77221324310E+02  0.25295333667E+03  0.00000000000E+00 0. -1.
          2    1    3    3  501    0 -0.18872215377E+03 -0.14968702776E+03  0.81753891902E+03  0.85228642000E+03  0.00000000000E+00 0. -1.
<mgrwt>
<rscale>  0 0.64881355E+03</rscale>
<asrwt>0</asrwt>
<pdfrwt beam="1">0</pdfrwt>
<pdfrwt beam="2">  1        2 0.38269083E+00 0.64881355E+03</pdfrwt>
<totfact> 0.46205089E+00</totfact>
</mgrwt>
</event>
<event>
 5    1  0.2381755E-004  0.6533250E+03  0.7818608E-02  0.9800560E-01
         13   -1    0    0    0    0  0.00000000000E+00  0.00000000000E+00  0.10000000000E+04  0.10000000000E+04  0.00000000000E+00 0. -1.
          2   -1    0    0  501    0 -0.00000000000E+00 -0.00000000000E+00 -0.10670840494E+03  0.10670840494E+03  0.00000000000E+00 0. -1.
    9000006    2    1    2  501    0  0.00000000000E+00  0.00000000000E+00  0.89329159506E+03  0.11067084049E+04  0.65332504909E+03 0.  0.
         13    1    3    3    0    0 -0.55790398157E+02 -0.32108424233E+03  0.40873939843E+03  0.52275764464E+03  0.00000000000E+00 0. -1.
          4    1    3    3  501    0  0.55790398157E+02  0.32108424233E+03  0.48455219663E+03  0.58395076030E+03  0.00000000000E+00 0. -1.
<mgrwt>
<rscale>  0 0.65332505E+03</rscale>
<asrwt>0</asrwt>
<pdfrwt beam="1">0</pdfrwt>
<pdfrwt beam="2">  1        2 0.38803138E+00 0.65332505E+03</pdfrwt>
<totfact> 0.44131454E+00</totfact>
</mgrwt>
</event>
<event>
 5    1  0.2381755E-004  0.6489121E+03  0.7818608E-02  0.9808823E-01
         13   -1    0    0    0    0  0.00000000000E+00  0.00000000000E+00  0.10000000000E+04  0.10000000000E+04  0.00000000000E+00 0. -1.
          2   -1    0    0  501    0 -0.00000000000E+00 -0.00000000000E+00 -0.10527172701E+03  0.10527172701E+03  0.00000000000E+00 0. -1.
    9000006    2    1    2  501    0  0.00000000000E+00  0.00000000000E+00  0.89472827299E+03  0.11052717270E+04  0.64891209578E+03 0.  0.
         13    1    3    3    0    0 -0.29268623990E+03 -0.13469030209E+03  0.51255761497E+03  0.60541062195E+03  0.00000000000E+00 0. -1.
          2    1    3    3  501    0  0.29268623990E+03  0.13469030209E+03  0.38217065802E+03  0.49986110506E+03  0.00000000000E+00 0. -1.
<mgrwt>
<rscale>  0 0.64891210E+03</rscale>
<asrwt>0</asrwt>
<pdfrwt beam="1">0</pdfrwt>
<pdfrwt beam="2">  1        2 0.38280709E+00 0.64891210E+03</pdfrwt>
<totfact> 0.46159024E+00</totfact>
</mgrwt>
</event>
<event>
 5    1  0.2381755E-004  0.6489988E+03  0.7818608E-02  0.9808660E-01
         13   -1    0    0    0    0  0.00000000000E+00  0.00000000000E+00  0.10000000000E+04  0.10000000000E+04  0.00000000000E+00 0. -1.
          2   -1    0    0  501    0 -0.00000000000E+00 -0.00000000000E+00 -0.10529984449E+03  0.10529984449E+03  0.00000000000E+00 0. -1.
    9000006    2    1    2  501    0  0.00000000000E+00  0.00000000000E+00  0.89470015551E+03  0.11052998445E+04  0.64899875034E+03 0.  0.
         13    1    3    3    0    0 -0.31580003077E+03  0.22639336650E+02  0.56846856573E+03  0.65069094755E+03  0.00000000000E+00 0. -1.
          2    1    3    3  501    0  0.31580003077E+03 -0.22639336650E+02  0.32623158978E+03  0.45460889693E+03  0.00000000000E+00 0. -1.
<mgrwt>
<rscale>  0 0.64899875E+03</rscale>
<asrwt>0</asrwt>
<pdfrwt beam="1">0</pdfrwt>
<pdfrwt beam="2">  1        2 0.38290933E+00 0.64899875E+03</pdfrwt>
<totfact> 0.46118545E+00</totfact>
</mgrwt>
</event>
<event>
 5    1  0.2381755E-004  0.6461908E+03  0.7818608E-02  0.9813953E-01
         13   -1    0    0    0    0  0.00000000000E+00  0.00000000000E+00  0.10000000000E+04  0.10000000000E+04  0.00000000000E+00 0. -1.
          2   -1    0    0  501    0 -0.00000000000E+00 -0.00000000000E+00 -0.10439064181E+03  0.10439064181E+03  0.00000000000E+00 0. -1.
    9000006    2    1    2  501    0  0.00000000000E+00  0.00000000000E+00  0.89560935819E+03  0.11043906418E+04  0.64619081334E+03 0.  0.
         13    1    3    3    0    0  0.27163459922E+03  0.10680180131E+03  0.68461324881E+03  0.74423603830E+03  0.00000000000E+00 0. -1.
          4    1    3    3  501    0 -0.27163459922E+03 -0.10680180131E+03  0.21099610938E+03  0.36015460351E+03  0.00000000000E+00 0. -1.
<mgrwt>
<rscale>  0 0.64619081E+03</rscale>
<asrwt>0</asrwt>
<pdfrwt beam="1">0</pdfrwt>
<pdfrwt beam="2">  1        2 0.37960313E+00 0.64619081E+03</pdfrwt>
<totfact> 0.47443949E+00</totfact>
</mgrwt>
</event>
<event>
 5    1  0.2381755E-004  0.6509523E+03  0.7818608E-02  0.9804994E-01
         13   -1    0    0    0    0  0.00000000000E+00  0.00000000000E+00  0.10000000000E+04  0.10000000000E+04  0.00000000000E+00 0. -1.
          2   -1    0    0  501    0 -0.00000000000E+00 -0.00000000000E+00 -0.10593472754E+03  0.10593472754E+03  0.00000000000E+00 0. -1.
    9000006    2    1    2  501    0  0.00000000000E+00  0.00000000000E+00  0.89406527246E+03  0.11059347275E+04  0.65095231021E+03 0.  0.
         13    1    3    3    0    0 -0.62415155168E+01 -0.51994238910E+02  0.99279567064E+03  0.99417584010E+03  0.00000000000E+00 0. -1.
          2    1    3    3  501    0  0.62415155168E+01  0.51994238910E+02 -0.98730398186E+02  0.11175888744E+03  0.00000000000E+00 0. -1.
<mgrwt>
<rscale>  0 0.65095231E+03</rscale>
<asrwt>0</asrwt>
<pdfrwt beam="1">0</pdfrwt>
<pdfrwt beam="2">  1        2 0.38521800E+00 0.65095231E+03</pdfrwt>
<totfact> 0.45213074E+00</totfact>
</mgrwt>
</event>
<event>
 5    1  0.2381755E-004  0.6540314E+03  0.7818608E-02  0.9799244E-01
         13   -1    0    0    0    0  0.00000000000E+00  0.00000000000E+00  0.10000000000E+04  0.10000000000E+04  0.00000000000E+00 0. -1.
          2   -1    0    0  501    0 -0.00000000000E+00 -0.00000000000E+00 -0.10693928332E+03  0.10693928332E+03  0.00000000000E+00 0. -1.
    9000006    2    1    2  501    0  0.00000000000E+00  0.00000000000E+00  0.89306071668E+03  0.11069392833E+04  0.65403144672E+03 0.  0.
         13    1    3    3    0    0 -0.15263970009E+03 -0.27674759943E+03  0.58865055779E+03  0.66812992077E+03  0.00000000000E+00 0. -1.
          2    1    3    3  501    0  0.15263970009E+03  0.27674759943E+03  0.30441015889E+03  0.43880936256E+03  0.00000000000E+00 0. -1.
<mgrwt>
<rscale>  0 0.65403145E+03</rscale>
<asrwt>0</asrwt>
<pdfrwt beam="1">0</pdfrwt>
<pdfrwt beam="2">  1        2 0.38887094E+00 0.65403145E+03</pdfrwt>
<totfact> 0.43813249E+00</totfact>
</mgrwt>
</event>
<event>
 5    1  0.2381755E-004  0.8151049E+03  0.7818608E-02  0.9538407E-01
         13   -1    0    0    0    0  0.00000000000E+00  0.00000000000E+00  0.10000000000E+04  0.10000000000E+04  0.00000000000E+00 0. -1.
          2   -1    0    0  501    0 -0.00000000000E+00 -0.00000000000E+00 -0.16609901684E+03  0.16609901684E+03  0.00000000000E+00 0. -1.
    9000006    2    1    2  501    0  0.00000000000E+00  0.00000000000E+00  0.83390098316E+03  0.11660990168E+04  0.81510494254E+03 0.  0.
         13    1    3    3    0    0  0.20434618673E+03  0.33870811834E+03  0.55725600926E+03  0.68338482081E+03  0.00000000000E+00 0. -1.
          2    1    3    3  501    0 -0.20434618673E+03 -0.33870811834E+03  0.27664497390E+03  0.48271419602E+03  0.00000000000E+00 0. -1.
<mgrwt>
<rscale>  0 0.81510494E+03</rscale>
<asrwt>0</asrwt>
<pdfrwt beam="1">0</pdfrwt>
<pdfrwt beam="2">  1        2 0.60399770E+00 0.81510494E+03</pdfrwt>
<totfact> 0.52526614E-01</totfact>
</mgrwt>
</event>
<event>
 5    1  0.2381755E-004  0.6580007E+03  0.7818608E-02  0.9791881E-01
         13   -1    0    0    0    0  0.00000000000E+00  0.00000000000E+00  0.10000000000E+04  0.10000000000E+04  0.00000000000E+00 0. -1.
          2   -1    0    0  501    0 -0.00000000000E+00 -0.00000000000E+00 -0.10824124592E+03  0.10824124592E+03  0.00000000000E+00 0. -1.
    9000006    2    1    2  501    0  0.00000000000E+00  0.00000000000E+00  0.89175875408E+03  0.11082412459E+04  0.65800074749E+03 0.  0.
         13    1    3    3    0    0 -0.39394476880E+02  0.28477574701E+03  0.17644013856E+03  0.33731331635E+03  0.00000000000E+00 0. -1.
          4    1    3    3  501    0  0.39394476880E+02 -0.28477574701E+03  0.71531861552E+03  0.77092792958E+03  0.00000000000E+00 0. -1.
<mgrwt>
<rscale>  0 0.65800075E+03</rscale>
<asrwt>0</asrwt>
<pdfrwt beam="1">0</pdfrwt>
<pdfrwt beam="2">  1        2 0.39360536E+00 0.65800075E+03</pdfrwt>
<totfact> 0.42057332E+00</totfact>
</mgrwt>
</event>
<event>
 5    1  0.2381755E-004  0.6500013E+03  0.7818608E-02  0.9806777E-01
         13   -1    0    0    0    0  0.00000000000E+00  0.00000000000E+00  0.10000000000E+04  0.10000000000E+04  0.00000000000E+00 0. -1.
          2   -1    0    0  501    0 -0.00000000000E+00 -0.00000000000E+00 -0.10562542490E+03  0.10562542490E+03  0.00000000000E+00 0. -1.
    9000006    2    1    2  501    0  0.00000000000E+00  0.00000000000E+00  0.89437457510E+03  0.11056254249E+04  0.65000130739E+03 0.  0.
         13    1    3    3    0    0 -0.96593761872E+02 -0.29659620813E+03  0.29198228511E+03  0.42726258943E+03  0.00000000000E+00 0. -1.
          4    1    3    3  501    0  0.96593761872E+02  0.29659620813E+03  0.60239228999E+03  0.67836283547E+03  0.00000000000E+00 0. -1.
<mgrwt>
<rscale>  0 0.65000131E+03</rscale>
<asrwt>0</asrwt>
<pdfrwt beam="1">0</pdfrwt>
<pdfrwt beam="2">  1        2 0.38409326E+00 0.65000131E+03</pdfrwt>
<totfact> 0.45652167E+00</totfact>
</mgrwt>
</event>
<event>
 5    1  0.2381755E-004  0.6565203E+03  0.7818608E-02  0.9794621E-01
         13   -1    0    0    0    0  0.00000000000E+00  0.00000000000E+00  0.10000000000E+04  0.10000000000E+04  0.00000000000E+00 0. -1.
          2   -1    0    0  501    0 -0.00000000000E+00 -0.00000000000E+00 -0.10775472138E+03  0.10775472138E+03  0.00000000000E+00 0. -1.
    9000006    2    1    2  501    0  0.00000000000E+00  0.00000000000E+00  0.89224527862E+03  0.11077547214E+04  0.65652028568E+03 0.  0.
         13    1    3    3    0    0 -0.22770308056E+03  0.33715272239E+02  0.51243591906E+02  0.23582052114E+03  0.00000000000E+00 0. -1.
          2    1    3    3  501    0  0.22770308056E+03 -0.33715272239E+02  0.84100168672E+03  0.87193420024E+03  0.00000000000E+00 0. -1.
<mgrwt>
<rscale>  0 0.65652029E+03</rscale>
<asrwt>0</asrwt>
<pdfrwt beam="1">0</pdfrwt>
<pdfrwt beam="2">  1        2 0.39183618E+00 0.65652029E+03</pdfrwt>
<totfact> 0.42705914E+00</totfact>
</mgrwt>
</event>
<event>
 5    1  0.2381755E-004  0.6616597E+03  0.7818608E-02  0.9785143E-01
         13   -1    0    0    0    0  0.00000000000E+00  0.00000000000E+00  0.10000000000E+04  0.10000000000E+04  0.00000000000E+00 0. -1.
          2   -1    0    0  501    0 -0.00000000000E+00 -0.00000000000E+00 -0.10944837326E+03  0.10944837326E+03  0.00000000000E+00 0. -1.
    9000006    2    1    2  501    0  0.00000000000E+00  0.00000000000E+00  0.89055162674E+03  0.11094483733E+04  0.66165965045E+03 0.  0.
         13    1    3    3    0    0 -0.31642268626E+02  0.55481980717E+01  0.99737849016E+03  0.99789572016E+03  0.00000000000E+00 0. -1.
          4    1    3    3  501    0  0.31642268626E+02 -0.55481980717E+01 -0.10682686342E+03  0.11155265310E+03  0.00000000000E+00 0. -1.
<mgrwt>
<rscale>  0 0.66165965E+03</rscale>
<asrwt>0</asrwt>
<pdfrwt beam="1">0</pdfrwt>
<pdfrwt beam="2">  1        2 0.39799492E+00 0.66165965E+03</pdfrwt>
<totfact> 0.40486408E+00</totfact>
</mgrwt>
</event>
<event>
 5    1  0.2381755E-004  0.6467903E+03  0.7818608E-02  0.9812821E-01
         13   -1    0    0    0    0  0.00000000000E+00  0.00000000000E+00  0.10000000000E+04  0.10000000000E+04  0.00000000000E+00 0. -1.
          2   -1    0    0  501    0 -0.00000000000E+00 -0.00000000000E+00 -0.10458441505E+03  0.10458441505E+03  0.00000000000E+00 0. -1.
    9000006    2    1    2  501    0  0.00000000000E+00  0.00000000000E+00  0.89541558495E+03  0.11045844151E+04  0.64679027528E+03 0.  0.
         13    1    3    3    0    0 -0.24719406438E+03 -0.75791191576E+02  0.77945615345E+03  0.82121927969E+03  0.00000000000E+00 0. -1.
          4    1    3    3  501    0  0.24719406438E+03  0.75791191576E+02  0.11595943150E+03  0.28336513536E+03  0.00000000000E+00 0. -1.
<mgrwt>
<rscale>  0 0.64679028E+03</rscale>
<asrwt>0</asrwt>
<pdfrwt beam="1">0</pdfrwt>
<pdfrwt beam="2">  1        2 0.38030777E+00 0.64679028E+03</pdfrwt>
<totfact> 0.47158603E+00</totfact>
</mgrwt>
</event>
<event>
 5    1  0.2381755E-004  0.6552356E+03  0.7818608E-02  0.9797004E-01
         13   -1    0    0    0    0  0.00000000000E+00  0.00000000000E+00  0.10000000000E+04  0.10000000000E+04  0.00000000000E+00 0. -1.
          2   -1    0    0  501    0 -0.00000000000E+00 -0.00000000000E+00 -0.10733342817E+03  0.10733342817E+03  0.00000000000E+00 0. -1.
    9000006    2    1    2  501    0  0.00000000000E+00  0.00000000000E+00  0.89266657183E+03  0.11073334282E+04  0.65523561615E+03 0.  0.
         13    1    3    3    0    0  0.24460831791E+03 -0.15902145338E+03  0.69820443648E+03  0.75671030583E+03  0.00000000000E+00 0. -1.
          2    1    3    3  501    0 -0.24460831791E+03  0.15902145338E+03  0.19446213535E+03  0.35062312233E+03  0.00000000000E+00 0. -1.
<mgrwt>
<rscale>  0 0.65523562E+03</rscale>
<asrwt>0</asrwt>
<pdfrwt beam="1">0</pdfrwt>
<pdfrwt beam="2">  1        2 0.39030420E+00 0.65523562E+03</pdfrwt>
<totfact> 0.43274817E+00</totfact>
</mgrwt>
</event>
<event>
 5    1  0.2381755E-004  0.6329844E+03  0.7818608E-02  0.9839242E-01
         13   -1    0    0    0    0  0.00000000000E+00  0.00000000000E+00  0.10000000000E+04  0.10000000000E+04  0.00000000000E+00 0. -1.
          2   -1    0    0  501    0 -0.00000000000E+00 -0.00000000000E+00 -0.10016730813E+03  0.10016730813E+03  0.00000000000E+00 0. -1.
    9000006    2    1    2  501    0  0.00000000000E+00  0.00000000000E+00  0.89983269187E+03  0.11001673081E+04  0.63298438569E+03 0.  0.
         13    1    3    3    0    0 -0.10197170640E+03 -0.10335671685E+03 -0.38867483457E+02  0.15030476072E+03  0.00000000000E+00 0. -1.
          4    1    3    3  501    0  0.10197170640E+03  0.10335671685E+03  0.93870017532E+03  0.94986254741E+03  0.00000000000E+00 0. -1.
<mgrwt>
<rscale>  0 0.63298439E+03</rscale>
<asrwt>0</asrwt>
<pdfrwt beam="1">0</pdfrwt>
<pdfrwt beam="2">  1        2 0.36424552E+00 0.63298439E+03</pdfrwt>
<totfact> 0.54069096E+00</totfact>
</mgrwt>
</event>
<event>
 5    1  0.2381755E-004  0.6519919E+03  0.7818608E-02  0.9803049E-01
         13   -1    0    0    0    0  0.00000000000E+00  0.00000000000E+00  0.10000000000E+04  0.10000000000E+04  0.00000000000E+00 0. -1.
          2   -1    0    0  501    0 -0.00000000000E+00 -0.00000000000E+00 -0.10627337204E+03  0.10627337204E+03  0.00000000000E+00 0. -1.
    9000006    2    1    2  501    0  0.00000000000E+00  0.00000000000E+00  0.89372662796E+03  0.11062733720E+04  0.65199193872E+03 0.  0.
         13    1    3    3    0    0 -0.10277815461E+03  0.25229547247E+03  0.14306749651E+03  0.30770873087E+03  0.00000000000E+00 0. -1.
          4    1    3    3  501    0  0.10277815461E+03 -0.25229547247E+03  0.75065913145E+03  0.79856464117E+03  0.00000000000E+00 0. -1.
<mgrwt>
<rscale>  0 0.65199194E+03</rscale>
<asrwt>0</asrwt>
<pdfrwt beam="1">0</pdfrwt>
<pdfrwt beam="2">  1        2 0.38644944E+00 0.65199194E+03</pdfrwt>
<totfact> 0.44736720E+00</totfact>
</mgrwt>
</event>
<event>
 5    1  0.2381755E-004  0.6503706E+03  0.7818608E-02  0.9806084E-01
         13   -1    0    0    0    0  0.00000000000E+00  0.00000000000E+00  0.10000000000E+04  0.10000000000E+04  0.00000000000E+00 0. -1.
          2   -1    0    0  501    0 -0.00000000000E+00 -0.00000000000E+00 -0.10574548251E+03  0.10574548251E+03  0.00000000000E+00 0. -1.
    9000006    2    1    2  501    0  0.00000000000E+00  0.00000000000E+00  0.89425451749E+03  0.11057454825E+04  0.65037060977E+03 0.  0.
         13    1    3    3    0    0 -0.27357518551E+03 -0.11411980228E+03  0.21979393651E+03  0.36902044107E+03  0.00000000000E+00 0. -1.
          4    1    3    3  501    0  0.27357518551E+03  0.11411980228E+03  0.67446058098E+03  0.73672504144E+03  0.00000000000E+00 0. -1.
<mgrwt>
<rscale>  0 0.65037061E+03</rscale>
<asrwt>0</asrwt>
<pdfrwt beam="1">0</pdfrwt>
<pdfrwt beam="2">  1        2 0.38452984E+00 0.65037061E+03</pdfrwt>
<totfact> 0.45481273E+00</totfact>
</mgrwt>
</event>
<event>
 5    1  0.2381755E-004  0.6443639E+03  0.7818608E-02  0.9817413E-01
         13   -1    0    0    0    0  0.00000000000E+00  0.00000000000E+00  0.10000000000E+04  0.10000000000E+04  0.00000000000E+00 0. -1.
          2   -1    0    0  501    0 -0.00000000000E+00 -0.00000000000E+00 -0.10380120954E+03  0.10380120954E+03  0.00000000000E+00 0. -1.
    9000006    2    1    2  501    0  0.00000000000E+00  0.00000000000E+00  0.89619879046E+03  0.11038012095E+04  0.64436390198E+03 0.  0.
         13    1    3    3    0    0 -0.91147617718E+02 -0.20888317624E+03  0.57995135604E+02  0.23516697320E+03  0.00000000000E+00 0. -1.
          2    1    3    3  501    0  0.91147617718E+02  0.20888317624E+03  0.83820365485E+03  0.86863423634E+03  0.00000000000E+00 0. -1.
<mgrwt>
<rscale>  0 0.64436390E+03</rscale>
<asrwt>0</asrwt>
<pdfrwt beam="1">0</pdfrwt>
<pdfrwt beam="2">  1        2 0.37745974E+00 0.64436390E+03</pdfrwt>
<totfact> 0.48321626E+00</totfact>
</mgrwt>
</event>
<event>
 5    1  0.2381755E-004  0.6032476E+03  0.7818608E-02  0.9898691E-01
         13   -1    0    0    0    0  0.00000000000E+00  0.00000000000E+00  0.10000000000E+04  0.10000000000E+04  0.00000000000E+00 0. -1.
          2   -1    0    0  501    0 -0.00000000000E+00 -0.00000000000E+00 -0.90976931213E+02  0.90976931213E+02  0.00000000000E+00 0. -1.
    9000006    2    1    2  501    0  0.00000000000E+00  0.00000000000E+00  0.90902306879E+03  0.10909769312E+04  0.60324764803E+03 0.  0.
         13    1    3    3    0    0  0.26685940143E+03 -0.13477065876E+03  0.38217444934E+03  0.48521580799E+03  0.00000000000E+00 0. -1.
          2    1    3    3  501    0 -0.26685940143E+03  0.13477065876E+03  0.52684861945E+03  0.60576112322E+03  0.00000000000E+00 0. -1.
<mgrwt>
<rscale>  0 0.60324765E+03</rscale>
<asrwt>0</asrwt>
<pdfrwt beam="1">0</pdfrwt>
<pdfrwt beam="2">  1        2 0.33082590E+00 0.60324765E+03</pdfrwt>
<totfact> 0.71550681E+00</totfact>
</mgrwt>
</event>
<event>
 5    1  0.2381755E-004  0.6668634E+03  0.7818608E-02  0.9775641E-01
         13   -1    0    0    0    0  0.00000000000E+00  0.00000000000E+00  0.10000000000E+04  0.10000000000E+04  0.00000000000E+00 0. -1.
          2   -1    0    0  501    0 -0.00000000000E+00 -0.00000000000E+00 -0.11117670948E+03  0.11117670948E+03  0.00000000000E+00 0. -1.
    9000006    2    1    2  501    0  0.00000000000E+00  0.00000000000E+00  0.88882329052E+03  0.11111767095E+04  0.66686343274E+03 0.  0.
         13    1    3    3    0    0 -0.19371644062E+03  0.12752959826E+03  0.84357661947E+03  0.87487791761E+03  0.00000000000E+00 0. -1.
          4    1    3    3  501    0  0.19371644062E+03 -0.12752959826E+03  0.45246671047E+02  0.23629879187E+03  0.00000000000E+00 0. -1.
<mgrwt>
<rscale>  0 0.66686343E+03</rscale>
<asrwt>0</asrwt>
<pdfrwt beam="1">0</pdfrwt>
<pdfrwt beam="2">  1        2 0.40427980E+00 0.66686343E+03</pdfrwt>
<totfact> 0.38328964E+00</totfact>
</mgrwt>
</event>
<event>
 5    1  0.2381755E-004  0.6317903E+03  0.7818608E-02  0.9841561E-01
         13   -1    0    0    0    0  0.00000000000E+00  0.00000000000E+00  0.10000000000E+04  0.10000000000E+04  0.00000000000E+00 0. -1.
          2   -1    0    0  501    0 -0.00000000000E+00 -0.00000000000E+00 -0.99789747796E+02  0.99789747796E+02  0.00000000000E+00 0. -1.
    9000006    2    1    2  501    0  0.00000000000E+00  0.00000000000E+00  0.90021025220E+03  0.10997897478E+04  0.63179030634E+03 0.  0.
         13    1    3    3    0    0 -0.28465885530E+03  0.23352648124E+02  0.68503391937E+03  0.74219100019E+03  0.00000000000E+00 0. -1.
          2    1    3    3  501    0  0.28465885530E+03 -0.23352648124E+02  0.21517633283E+03  0.35759874760E+03  0.00000000000E+00 0. -1.
<mgrwt>
<rscale>  0 0.63179031E+03</rscale>
<asrwt>0</asrwt>
<pdfrwt beam="1">0</pdfrwt>
<pdfrwt beam="2">  1        2 0.36287258E+00 0.63179031E+03</pdfrwt>
<totfact> 0.54700905E+00</totfact>
</mgrwt>
</event>
<event>
 5    1  0.2381755E-004  0.6471854E+03  0.7818608E-02  0.9812075E-01
         13   -1    0    0    0    0  0.00000000000E+00  0.00000000000E+00  0.10000000000E+04  0.10000000000E+04  0.00000000000E+00 0. -1.
          2   -1    0    0  501    0 -0.00000000000E+00 -0.00000000000E+00 -0.10471223251E+03  0.10471223251E+03  0.00000000000E+00 0. -1.
    9000006    2    1    2  501    0  0.00000000000E+00  0.00000000000E+00  0.89528776749E+03  0.11047122325E+04  0.64718539078E+03 0.  0.
         13    1    3    3    0    0  0.14556390975E+03 -0.28744832877E+03  0.39652543166E+03  0.51092838195E+03  0.00000000000E+00 0. -1.
          2    1    3    3  501    0 -0.14556390975E+03  0.28744832877E+03  0.49876233583E+03  0.59378385055E+03  0.00000000000E+00 0. -1.
<mgrwt>
<rscale>  0 0.64718539E+03</rscale>
<asrwt>0</asrwt>
<pdfrwt beam="1">0</pdfrwt>
<pdfrwt beam="2">  1        2 0.38077256E+00 0.64718539E+03</pdfrwt>
<totfact> 0.46971238E+00</totfact>
</mgrwt>
</event>
<event>
 5    1  0.2381755E-004  0.6509197E+03  0.7818608E-02  0.9805055E-01
         13   -1    0    0    0    0  0.00000000000E+00  0.00000000000E+00  0.10000000000E+04  0.10000000000E+04  0.00000000000E+00 0. -1.
          2   -1    0    0  501    0 -0.00000000000E+00 -0.00000000000E+00 -0.10592411838E+03  0.10592411838E+03  0.00000000000E+00 0. -1.
    9000006    2    1    2  501    0  0.00000000000E+00  0.00000000000E+00  0.89407588162E+03  0.11059241184E+04  0.65091971359E+03 0.  0.
         13    1    3    3    0    0 -0.17912884883E+03 -0.26641304243E+03  0.53791656556E+03  0.62643218720E+03  0.00000000000E+00 0. -1.
          4    1    3    3  501    0  0.17912884883E+03  0.26641304243E+03  0.35615931606E+03  0.47949193119E+03  0.00000000000E+00 0. -1.
<mgrwt>
<rscale>  0 0.65091971E+03</rscale>
<asrwt>0</asrwt>
<pdfrwt beam="1">0</pdfrwt>
<pdfrwt beam="2">  1        2 0.38517942E+00 0.65091971E+03</pdfrwt>
<totfact> 0.45228071E+00</totfact>
</mgrwt>
</event>
<event>
 5    1  0.2381755E-004  0.6410760E+03  0.7818608E-02  0.9823670E-01
         13   -1    0    0    0    0  0.00000000000E+00  0.00000000000E+00  0.10000000000E+04  0.10000000000E+04  0.00000000000E+00 0. -1.
          2   -1    0    0  501    0 -0.00000000000E+00 -0.00000000000E+00 -0.10274460141E+03  0.10274460141E+03  0.00000000000E+00 0. -1.
    9000006    2    1    2  501    0  0.00000000000E+00  0.00000000000E+00  0.89725539859E+03  0.11027446014E+04  0.64107597493E+03 0.  0.
         13    1    3    3    0    0  0.34939307844E+02  0.16342669599E+03 -0.21874229204E+02  0.16854531170E+03  0.00000000000E+00 0. -1.
          2    1    3    3  501    0 -0.34939307844E+02 -0.16342669599E+03  0.91912962780E+03  0.93419928970E+03  0.00000000000E+00 0. -1.
<mgrwt>
<rscale>  0 0.64107597E+03</rscale>
<asrwt>0</asrwt>
<pdfrwt beam="1">0</pdfrwt>
<pdfrwt beam="2">  1        2 0.37361752E+00 0.64107597E+03</pdfrwt>
<totfact> 0.49932170E+00</totfact>
</mgrwt>
</event>
<event>
 5    1  0.2381755E-004  0.5555756E+03  0.7818608E-02  0.1000212E+00
         13   -1    0    0    0    0  0.00000000000E+00  0.00000000000E+00  0.10000000000E+04  0.10000000000E+04  0.00000000000E+00 0. -1.
          2   -1    0    0  501    0 -0.00000000000E+00 -0.00000000000E+00 -0.77166062398E+02  0.77166062398E+02  0.00000000000E+00 0. -1.
    9000006    2    1    2  501    0  0.00000000000E+00  0.00000000000E+00  0.92283393760E+03  0.10771660624E+04  0.55557560205E+03 0.  0.
         13    1    3    3    0    0 -0.29124284183E+02 -0.27616076675E+03  0.47554109182E+03  0.55068350532E+03  0.00000000000E+00 0. -1.
          4    1    3    3  501    0  0.29124284183E+02  0.27616076675E+03  0.44729284578E+03  0.52648255708E+03  0.00000000000E+00 0. -1.
<mgrwt>
<rscale>  0 0.55557560E+03</rscale>
<asrwt>0</asrwt>
<pdfrwt beam="1">0</pdfrwt>
<pdfrwt beam="2">  1        2 0.28060445E+00 0.55557560E+03</pdfrwt>
<totfact> 0.10830642E+01</totfact>
</mgrwt>
</event>
<event>
 5    1  0.2381755E-004  0.6636928E+03  0.7818608E-02  0.9781419E-01
         13   -1    0    0    0    0  0.00000000000E+00  0.00000000000E+00  0.10000000000E+04  0.10000000000E+04  0.00000000000E+00 0. -1.
          2   -1    0    0  501    0 -0.00000000000E+00 -0.00000000000E+00 -0.11012204172E+03  0.11012204172E+03  0.00000000000E+00 0. -1.
    9000006    2    1    2  501    0  0.00000000000E+00  0.00000000000E+00  0.88987795828E+03  0.11101220417E+04  0.66369282569E+03 0.  0.
         13    1    3    3    0    0 -0.32307291801E+03  0.75571630189E+02  0.43506328140E+03  0.54714462482E+03  0.00000000000E+00 0. -1.
          4    1    3    3  501    0  0.32307291801E+03 -0.75571630189E+02  0.45481467688E+03  0.56297741690E+03  0.00000000000E+00 0. -1.
<mgrwt>
<rscale>  0 0.66369283E+03</rscale>
<asrwt>0</asrwt>
<pdfrwt beam="1">0</pdfrwt>
<pdfrwt beam="2">  1        2 0.40044463E+00 0.66369283E+03</pdfrwt>
<totfact> 0.39632855E+00</totfact>
</mgrwt>
</event>
<event>
 5    1  0.2381755E-004  0.6548743E+03  0.7818608E-02  0.9797676E-01
         13   -1    0    0    0    0  0.00000000000E+00  0.00000000000E+00  0.10000000000E+04  0.10000000000E+04  0.00000000000E+00 0. -1.
          2   -1    0    0  501    0 -0.00000000000E+00 -0.00000000000E+00 -0.10721510177E+03  0.10721510177E+03  0.00000000000E+00 0. -1.
    9000006    2    1    2  501    0  0.00000000000E+00  0.00000000000E+00  0.89278489823E+03  0.11072151018E+04  0.65487434449E+03 0.  0.
         13    1    3    3    0    0  0.31347754612E+03 -0.39159618851E+02  0.59196662002E+03  0.67098891711E+03  0.00000000000E+00 0. -1.
          2    1    3    3  501    0 -0.31347754612E+03  0.39159618851E+02  0.30081827821E+03  0.43622618466E+03  0.00000000000E+00 0. -1.
<mgrwt>
<rscale>  0 0.65487434E+03</rscale>
<asrwt>0</asrwt>
<pdfrwt beam="1">0</pdfrwt>
<pdfrwt beam="2">  1        2 0.38987392E+00 0.65487434E+03</pdfrwt>
<totfact> 0.43435828E+00</totfact>
</mgrwt>
</event>
<event>
 5    1  0.2381755E-004  0.6466707E+03  0.7818608E-02  0.9813047E-01
         13   -1    0    0    0    0  0.00000000000E+00  0.00000000000E+00  0.10000000000E+04  0.10000000000E+04  0.00000000000E+00 0. -1.
          2   -1    0    0  501    0 -0.00000000000E+00 -0.00000000000E+00 -0.10454574215E+03  0.10454574215E+03  0.00000000000E+00 0. -1.
    9000006    2    1    2  501    0  0.00000000000E+00  0.00000000000E+00  0.89545425785E+03  0.11045457421E+04  0.64667068017E+03 0.  0.
         13    1    3    3    0    0  0.31105774239E+03 -0.87504045415E+02  0.46734109589E+03  0.56817389677E+03  0.00000000000E+00 0. -1.
          4    1    3    3  501    0 -0.31105774239E+03  0.87504045415E+02  0.42811316197E+03  0.53637184538E+03  0.00000000000E+00 0. -1.
<mgrwt>
<rscale>  0 0.64667068E+03</rscale>
<asrwt>0</asrwt>
<pdfrwt beam="1">0</pdfrwt>
<pdfrwt beam="2">  1        2 0.38016714E+00 0.64667068E+03</pdfrwt>
<totfact> 0.47215427E+00</totfact>
</mgrwt>
</event>
<event>
 5    1  0.2381755E-004  0.6558056E+03  0.7818608E-02  0.9795946E-01
         13   -1    0    0    0    0  0.00000000000E+00  0.00000000000E+00  0.10000000000E+04  0.10000000000E+04  0.00000000000E+00 0. -1.
          2   -1    0    0  501    0 -0.00000000000E+00 -0.00000000000E+00 -0.10752025702E+03  0.10752025702E+03  0.00000000000E+00 0. -1.
    9000006    2    1    2  501    0  0.00000000000E+00  0.00000000000E+00  0.89247974298E+03  0.11075202570E+04  0.65580563284E+03 0.  0.
         13    1    3    3    0    0  0.28399717550E+03  0.58366609147E+02  0.18757757018E+03  0.34532072279E+03  0.00000000000E+00 0. -1.
          4    1    3    3  501    0 -0.28399717550E+03 -0.58366609147E+02  0.70490217280E+03  0.76219953423E+03  0.00000000000E+00 0. -1.
<mgrwt>
<rscale>  0 0.65580563E+03</rscale>
<asrwt>0</asrwt>
<pdfrwt beam="1">0</pdfrwt>
<pdfrwt beam="2">  1        2 0.39098358E+00 0.65580563E+03</pdfrwt>
<totfact> 0.43021689E+00</totfact>
</mgrwt>
</event>
<event>
 5    1  0.2381755E-004  0.6691387E+03  0.7818608E-02  0.9771515E-01
         13   -1    0    0    0    0  0.00000000000E+00  0.00000000000E+00  0.10000000000E+04  0.10000000000E+04  0.00000000000E+00 0. -1.
          2   -1    0    0  501    0 -0.00000000000E+00 -0.00000000000E+00 -0.11193666244E+03  0.11193666244E+03  0.00000000000E+00 0. -1.
    9000006    2    1    2  501    0  0.00000000000E+00  0.00000000000E+00  0.88806333756E+03  0.11119366624E+04  0.66913873730E+03 0.  0.
         13    1    3    3    0    0 -0.10084870964E+03 -0.18958214858E+03  0.87037422199E+03  0.89647260951E+03  0.00000000000E+00 0. -1.
          4    1    3    3  501    0  0.10084870964E+03  0.18958214858E+03  0.17689115572E+02  0.21546405293E+03  0.00000000000E+00 0. -1.
<mgrwt>
<rscale>  0 0.66913874E+03</rscale>
<asrwt>0</asrwt>
<pdfrwt beam="1">0</pdfrwt>
<pdfrwt beam="2">  1        2 0.40704327E+00 0.66913874E+03</pdfrwt>
<totfact> 0.37413387E+00</totfact>
</mgrwt>
</event>
<event>
 5    1  0.2381755E-004  0.5942686E+03  0.7818608E-02  0.9917369E-01
         13   -1    0    0    0    0  0.00000000000E+00  0.00000000000E+00  0.10000000000E+04  0.10000000000E+04  0.00000000000E+00 0. -1.
          2   -1    0    0  501    0 -0.00000000000E+00 -0.00000000000E+00 -0.88288786294E+02  0.88288786294E+02  0.00000000000E+00 0. -1.
    9000006    2    1    2  501    0  0.00000000000E+00  0.00000000000E+00  0.91171121371E+03  0.10882887863E+04  0.59426858000E+03 0.  0.
         13    1    3    3    0    0 -0.22535443226E+03  0.19224301644E+03  0.49867802464E+03  0.58001876674E+03  0.00000000000E+00 0. -1.
          2    1    3    3  501    0  0.22535443226E+03 -0.19224301644E+03  0.41303318906E+03  0.50827001955E+03  0.00000000000E+00 0. -1.
<mgrwt>
<rscale>  0 0.59426858E+03</rscale>
<asrwt>0</asrwt>
<pdfrwt beam="1">0</pdfrwt>
<pdfrwt beam="2">  1        2 0.32105081E+00 0.59426858E+03</pdfrwt>
<totfact> 0.77594459E+00</totfact>
</mgrwt>
</event>
<event>
 5    1  0.2381755E-004  0.6562406E+03  0.7818608E-02  0.9795139E-01
         13   -1    0    0    0    0  0.00000000000E+00  0.00000000000E+00  0.10000000000E+04  0.10000000000E+04  0.00000000000E+00 0. -1.
          2   -1    0    0  501    0 -0.00000000000E+00 -0.00000000000E+00 -0.10766293161E+03  0.10766293161E+03  0.00000000000E+00 0. -1.
    9000006    2    1    2  501    0  0.00000000000E+00  0.00000000000E+00  0.89233706839E+03  0.11076629316E+04  0.65624060102E+03 0.  0.
         13    1    3    3    0    0  0.25566090998E+03  0.15242085092E+03  0.67924621267E+03  0.74159964544E+03  0.00000000000E+00 0. -1.
          4    1    3    3  501    0 -0.25566090998E+03 -0.15242085092E+03  0.21309085573E+03  0.36606328617E+03  0.00000000000E+00 0. -1.
<mgrwt>
<rscale>  0 0.65624060E+03</rscale>
<asrwt>0</asrwt>
<pdfrwt beam="1">0</pdfrwt>
<pdfrwt beam="2">  1        2 0.39150240E+00 0.65624060E+03</pdfrwt>
<totfact> 0.42829286E+00</totfact>
</mgrwt>
</event>
<event>
 5    1  0.2381755E-004  0.6578699E+03  0.7818608E-02  0.9792123E-01
         13   -1    0    0    0    0  0.00000000000E+00  0.00000000000E+00  0.10000000000E+04  0.10000000000E+04  0.00000000000E+00 0. -1.
          2   -1    0    0  501    0 -0.00000000000E+00 -0.00000000000E+00 -0.10819820106E+03  0.10819820106E+03  0.00000000000E+00 0. -1.
    9000006    2    1    2  501    0  0.00000000000E+00  0.00000000000E+00  0.89180179894E+03  0.11081982011E+04  0.65786989918E+03 0.  0.
         13    1    3    3    0    0  0.15968668086E+03  0.18686987578E+03  0.77694379647E+02  0.25779178254E+03  0.00000000000E+00 0. -1.
          4    1    3    3  501    0 -0.15968668086E+03 -0.18686987578E+03  0.81410741929E+03  0.85040641852E+03  0.00000000000E+00 0. -1.
<mgrwt>
<rscale>  0 0.65786990E+03</rscale>
<asrwt>0</asrwt>
<pdfrwt beam="1">0</pdfrwt>
<pdfrwt beam="2">  1        2 0.39344883E+00 0.65786990E+03</pdfrwt>
<totfact> 0.42114355E+00</totfact>
</mgrwt>
</event>
<event>
 5    1  0.2381755E-004  0.6493273E+03  0.7818608E-02  0.9808042E-01
         13   -1    0    0    0    0  0.00000000000E+00  0.00000000000E+00  0.10000000000E+04  0.10000000000E+04  0.00000000000E+00 0. -1.
          2   -1    0    0  501    0 -0.00000000000E+00 -0.00000000000E+00 -0.10540647315E+03  0.10540647315E+03  0.00000000000E+00 0. -1.
    9000006    2    1    2  501    0  0.00000000000E+00  0.00000000000E+00  0.89459352685E+03  0.11054064731E+04  0.64932726155E+03 0.  0.
         13    1    3    3    0    0 -0.29161268105E+03 -0.14000411450E+03  0.40013832116E+03  0.51453841828E+03  0.00000000000E+00 0. -1.
          2    1    3    3  501    0  0.29161268105E+03  0.14000411450E+03  0.49445520569E+03  0.59086805487E+03  0.00000000000E+00 0. -1.
<mgrwt>
<rscale>  0 0.64932726E+03</rscale>
<asrwt>0</asrwt>
<pdfrwt beam="1">0</pdfrwt>
<pdfrwt beam="2">  1        2 0.38329707E+00 0.64932726E+03</pdfrwt>
<totfact> 0.45965330E+00</totfact>
</mgrwt>
</event>
<event>
 5    1  0.2381755E-004  0.6511203E+03  0.7818608E-02  0.9804679E-01
         13   -1    0    0    0    0  0.00000000000E+00  0.00000000000E+00  0.10000000000E+04  0.10000000000E+04  0.00000000000E+00 0. -1.
          2   -1    0    0  501    0 -0.00000000000E+00 -0.00000000000E+00 -0.10598939990E+03  0.10598939990E+03  0.00000000000E+00 0. -1.
    9000006    2    1    2  501    0  0.00000000000E+00  0.00000000000E+00  0.89401060010E+03  0.11059893999E+04  0.65112026508E+03 0.  0.
         13    1    3    3    0    0  0.16590534744E+03  0.22875396952E+03  0.17239745257E+03  0.33101940205E+03  0.00000000000E+00 0. -1.
          4    1    3    3  501    0 -0.16590534744E+03 -0.22875396952E+03  0.72161314753E+03  0.77496999785E+03  0.00000000000E+00 0. -1.
<mgrwt>
<rscale>  0 0.65112027E+03</rscale>
<asrwt>0</asrwt>
<pdfrwt beam="1">0</pdfrwt>
<pdfrwt beam="2">  1        2 0.38541681E+00 0.65112027E+03</pdfrwt>
<totfact> 0.45135859E+00</totfact>
</mgrwt>
</event>
<event>
 5    1  0.2381755E-004  0.6523378E+03  0.7818608E-02  0.9802402E-01
         13   -1    0    0    0    0  0.00000000000E+00  0.00000000000E+00  0.10000000000E+04  0.10000000000E+04  0.00000000000E+00 0. -1.
          2   -1    0    0  501    0 -0.00000000000E+00 -0.00000000000E+00 -0.10638614579E+03  0.10638614579E+03  0.00000000000E+00 0. -1.
    9000006    2    1    2  501    0  0.00000000000E+00  0.00000000000E+00  0.89361385421E+03  0.11063861458E+04  0.65233778302E+03 0.  0.
         13    1    3    3    0    0  0.19320385193E+02  0.10906080536E+03 -0.73514781999E+02  0.13293592337E+03  0.00000000000E+00 0. -1.
          4    1    3    3  501    0 -0.19320385193E+02 -0.10906080536E+03  0.96712863621E+03  0.97345022242E+03  0.00000000000E+00 0. -1.
<mgrwt>
<rscale>  0 0.65233778E+03</rscale>
<asrwt>0</asrwt>
<pdfrwt beam="1">0</pdfrwt>
<pdfrwt beam="2">  1        2 0.38685953E+00 0.65233778E+03</pdfrwt>
<totfact> 0.44579099E+00</totfact>
</mgrwt>
</event>
<event>
 5    1  0.2381755E-004  0.6446137E+03  0.7818608E-02  0.9816939E-01
         13   -1    0    0    0    0  0.00000000000E+00  0.00000000000E+00  0.10000000000E+04  0.10000000000E+04  0.00000000000E+00 0. -1.
          2   -1    0    0  501    0 -0.00000000000E+00 -0.00000000000E+00 -0.10388172094E+03  0.10388172094E+03  0.00000000000E+00 0. -1.
    9000006    2    1    2  501    0  0.00000000000E+00  0.00000000000E+00  0.89611827906E+03  0.11038817209E+04  0.64461374772E+03 0.  0.
         13    1    3    3    0    0  0.30121476798E+03  0.85909162763E+02  0.31796775834E+03  0.44633419770E+03  0.00000000000E+00 0. -1.
          2    1    3    3  501    0 -0.30121476798E+03 -0.85909162763E+02  0.57815052072E+03  0.65754752323E+03  0.00000000000E+00 0. -1.
<mgrwt>
<rscale>  0 0.64461375E+03</rscale>
<asrwt>0</asrwt>
<pdfrwt beam="1">0</pdfrwt>
<pdfrwt beam="2">  1        2 0.37775251E+00 0.64461375E+03</pdfrwt>
<totfact> 0.48200877E+00</totfact>
</mgrwt>
</event>
<event>
 5    1  0.2381755E-004  0.6605779E+03  0.7818608E-02  0.9787131E-01
         13   -1    0    0    0    0  0.00000000000E+00  0.00000000000E+00  0.10000000000E+04  0.10000000000E+04  0.00000000000E+00 0. -1.
          2   -1    0    0  501    0 -0.00000000000E+00 -0.00000000000E+00 -0.10909077998E+03  0.10909077998E+03  0.00000000000E+00 0. -1.
    9000006    2    1    2  501    0  0.00000000000E+00  0.00000000000E+00  0.89090922002E+03  0.11090907800E+04  0.66057786816E+03 0.  0.
         13    1    3    3    0    0  0.86309079905E+02 -0.19348281500E+03  0.20022150334E+02  0.21280447241E+03  0.00000000000E+00 0. -1.
          2    1    3    3  501    0 -0.86309079905E+02  0.19348281500E+03  0.87088706969E+03  0.89628630756E+03  0.00000000000E+00 0. -1.
<mgrwt>
<rscale>  0 0.66057787E+03</rscale>
<asrwt>0</asrwt>
<pdfrwt beam="1">0</pdfrwt>
<pdfrwt beam="2">  1        2 0.39669458E+00 0.66057787E+03</pdfrwt>
<totfact> 0.40946168E+00</totfact>
</mgrwt>
</event>
<event>
 5    1  0.2381755E-004  0.6489637E+03  0.7818608E-02  0.9808726E-01
         13   -1    0    0    0    0  0.00000000000E+00  0.00000000000E+00  0.10000000000E+04  0.10000000000E+04  0.00000000000E+00 0. -1.
          2   -1    0    0  501    0 -0.00000000000E+00 -0.00000000000E+00 -0.10528845590E+03  0.10528845590E+03  0.00000000000E+00 0. -1.
    9000006    2    1    2  501    0  0.00000000000E+00  0.00000000000E+00  0.89471154410E+03  0.11052884559E+04  0.64896365353E+03 0.  0.
         13    1    3    3    0    0 -0.31779002610E+03 -0.36971543026E+02  0.35514797835E+03  0.47800364246E+03  0.00000000000E+00 0. -1.
          2    1    3    3  501    0  0.31779002610E+03  0.36971543026E+02  0.53956356575E+03  0.62728481344E+03  0.00000000000E+00 0. -1.
<mgrwt>
<rscale>  0 0.64896365E+03</rscale>
<asrwt>0</asrwt>
<pdfrwt beam="1">0</pdfrwt>
<pdfrwt beam="2">  1        2 0.38286792E+00 0.64896365E+03</pdfrwt>
<totfact> 0.46134936E+00</totfact>
</mgrwt>
</event>
<event>
 5    1  0.2381755E-004  0.6563874E+03  0.7818608E-02  0.9794867E-01
         13   -1    0    0    0    0  0.00000000000E+00  0.00000000000E+00  0.10000000000E+04  0.10000000000E+04  0.00000000000E+00 0. -1.
          2   -1    0    0  501    0 -0.00000000000E+00 -0.00000000000E+00 -0.10771111351E+03  0.10771111351E+03  0.00000000000E+00 0. -1.
    9000006    2    1    2  501    0  0.00000000000E+00  0.00000000000E+00  0.89228888649E+03  0.11077111135E+04  0.65638742680E+03 0.  0.
         13    1    3    3    0    0 -0.19402077520E+03  0.19674853490E+03  0.14730771586E+03  0.31313513113E+03  0.00000000000E+00 0. -1.
          4    1    3    3  501    0  0.19402077520E+03 -0.19674853490E+03  0.74498117062E+03  0.79457598238E+03  0.00000000000E+00 0. -1.
<mgrwt>
<rscale>  0 0.65638743E+03</rscale>
<asrwt>0</asrwt>
<pdfrwt beam="1">0</pdfrwt>
<pdfrwt beam="2">  1        2 0.39167760E+00 0.65638743E+03</pdfrwt>
<totfact> 0.42764486E+00</totfact>
</mgrwt>
</event>
<event>
 5    1  0.2381755E-004  0.6468219E+03  0.7818608E-02  0.9812761E-01
         13   -1    0    0    0    0  0.00000000000E+00  0.00000000000E+00  0.10000000000E+04  0.10000000000E+04  0.00000000000E+00 0. -1.
          2   -1    0    0  501    0 -0.00000000000E+00 -0.00000000000E+00 -0.10459465859E+03  0.10459465859E+03  0.00000000000E+00 0. -1.
    9000006    2    1    2  501    0  0.00000000000E+00  0.00000000000E+00  0.89540534141E+03  0.11045946586E+04  0.64682194951E+03 0.  0.
         13    1    3    3    0    0  0.26045673217E+03  0.13854916972E+03  0.22139787295E+03  0.36885037605E+03  0.00000000000E+00 0. -1.
          4    1    3    3  501    0 -0.26045673217E+03 -0.13854916972E+03  0.67400746846E+03  0.73574428254E+03  0.00000000000E+00 0. -1.
<mgrwt>
<rscale>  0 0.64682195E+03</rscale>
<asrwt>0</asrwt>
<pdfrwt beam="1">0</pdfrwt>
<pdfrwt beam="2">  1        2 0.38034502E+00 0.64682195E+03</pdfrwt>
<totfact> 0.47143562E+00</totfact>
</mgrwt>
</event>
<event>
 5    1  0.2381755E-004  0.6392606E+03  0.7818608E-02  0.9827142E-01
         13   -1    0    0    0    0  0.00000000000E+00  0.00000000000E+00  0.10000000000E+04  0.10000000000E+04  0.00000000000E+00 0. -1.
          2   -1    0    0  501    0 -0.00000000000E+00 -0.00000000000E+00 -0.10216352765E+03  0.10216352765E+03  0.00000000000E+00 0. -1.
    9000006    2    1    2  501    0  0.00000000000E+00  0.00000000000E+00  0.89783647235E+03  0.11021635276E+04  0.63926059678E+03 0.  0.
         13    1    3    3    0    0 -0.20403263627E+03 -0.24251742744E+03  0.52041234344E+03  0.60932177581E+03  0.00000000000E+00 0. -1.
          4    1    3    3  501    0  0.20403263627E+03  0.24251742744E+03  0.37742412891E+03  0.49284175184E+03  0.00000000000E+00 0. -1.
<mgrwt>
<rscale>  0 0.63926060E+03</rscale>
<asrwt>0</asrwt>
<pdfrwt beam="1">0</pdfrwt>
<pdfrwt beam="2">  1        2 0.37150452E+00 0.63926060E+03</pdfrwt>
<totfact> 0.50838681E+00</totfact>
</mgrwt>
</event>
<event>
 5    1  0.2381755E-004  0.6025514E+03  0.7818608E-02  0.9900127E-01
         13   -1    0    0    0    0  0.00000000000E+00  0.00000000000E+00  0.10000000000E+04  0.10000000000E+04  0.00000000000E+00 0. -1.
          2   -1    0    0  501    0 -0.00000000000E+00 -0.00000000000E+00 -0.90767049004E+02  0.90767049004E+02  0.00000000000E+00 0. -1.
    9000006    2    1    2  501    0  0.00000000000E+00  0.00000000000E+00  0.90923295100E+03  0.10907670490E+04  0.60255140529E+03 0.  0.
         13    1    3    3    0    0  0.72628708264E+02  0.10654973066E+03 -0.38287218049E+02  0.13451277052E+03  0.00000000000E+00 0. -1.
          2    1    3    3  501    0 -0.72628708264E+02 -0.10654973066E+03  0.94752016905E+03  0.95625427848E+03  0.00000000000E+00 0. -1.
<mgrwt>
<rscale>  0 0.60255141E+03</rscale>
<asrwt>0</asrwt>
<pdfrwt beam="1">0</pdfrwt>
<pdfrwt beam="2">  1        2 0.33006269E+00 0.60255141E+03</pdfrwt>
<totfact> 0.72005899E+00</totfact>
</mgrwt>
</event>
<event>
 5    1  0.2381755E-004  0.6505624E+03  0.7818608E-02  0.9805724E-01
         13   -1    0    0    0    0  0.00000000000E+00  0.00000000000E+00  0.10000000000E+04  0.10000000000E+04  0.00000000000E+00 0. -1.
          2   -1    0    0  501    0 -0.00000000000E+00 -0.00000000000E+00 -0.10580786905E+03  0.10580786905E+03  0.00000000000E+00 0. -1.
    9000006    2    1    2  501    0  0.00000000000E+00  0.00000000000E+00  0.89419213095E+03  0.11058078691E+04  0.65056243068E+03 0.  0.
         13    1    3    3    0    0  0.31909206466E+02 -0.19859168929E+03  0.12568975665E+02  0.20153122751E+03  0.00000000000E+00 0. -1.
          2    1    3    3  501    0 -0.31909206466E+02  0.19859168929E+03  0.88162315528E+03  0.90427664154E+03  0.00000000000E+00 0. -1.
<mgrwt>
<rscale>  0 0.65056243E+03</rscale>
<asrwt>0</asrwt>
<pdfrwt beam="1">0</pdfrwt>
<pdfrwt beam="2">  1        2 0.38475670E+00 0.65056243E+03</pdfrwt>
<totfact> 0.45392699E+00</totfact>
</mgrwt>
</event>
<event>
 5    1  0.2381755E-004  0.6564952E+03  0.7818608E-02  0.9794667E-01
         13   -1    0    0    0    0  0.00000000000E+00  0.00000000000E+00  0.10000000000E+04  0.10000000000E+04  0.00000000000E+00 0. -1.
          2   -1    0    0  501    0 -0.00000000000E+00 -0.00000000000E+00 -0.10774647797E+03  0.10774647797E+03  0.00000000000E+00 0. -1.
    9000006    2    1    2  501    0  0.00000000000E+00  0.00000000000E+00  0.89225352203E+03  0.11077464780E+04  0.65649517279E+03 0.  0.
         13    1    3    3    0    0  0.23409023569E+03  0.33976745782E+02  0.83014142931E+03  0.86318448223E+03  0.00000000000E+00 0. -1.
          2    1    3    3  501    0 -0.23409023569E+03 -0.33976745782E+02  0.62112092713E+02  0.24456199574E+03  0.00000000000E+00 0. -1.
<mgrwt>
<rscale>  0 0.65649517E+03</rscale>
<asrwt>0</asrwt>
<pdfrwt beam="1">0</pdfrwt>
<pdfrwt beam="2">  1        2 0.39180620E+00 0.65649517E+03</pdfrwt>
<totfact> 0.42716981E+00</totfact>
</mgrwt>
</event>
<event>
 5    1  0.2381755E-004  0.6443619E+03  0.7818608E-02  0.9817416E-01
         13   -1    0    0    0    0  0.00000000000E+00  0.00000000000E+00  0.10000000000E+04  0.10000000000E+04  0.00000000000E+00 0. -1.
          2   -1    0    0  501    0 -0.00000000000E+00 -0.00000000000E+00 -0.10380057920E+03  0.10380057920E+03  0.00000000000E+00 0. -1.
    9000006    2    1    2  501    0  0.00000000000E+00  0.00000000000E+00  0.89619942080E+03  0.11038005792E+04  0.64436194551E+03 0.  0.
         13    1    3    3    0    0  0.66892079486E+02  0.22720298608E+03  0.73953010466E+02  0.24812254017E+03  0.00000000000E+00 0. -1.
          2    1    3    3  501    0 -0.66892079486E+02 -0.22720298608E+03  0.82224641033E+03  0.85567803903E+03  0.00000000000E+00 0. -1.
<mgrwt>
<rscale>  0 0.64436195E+03</rscale>
<asrwt>0</asrwt>
<pdfrwt beam="1">0</pdfrwt>
<pdfrwt beam="2">  1        2 0.37745745E+00 0.64436195E+03</pdfrwt>
<totfact> 0.48322572E+00</totfact>
</mgrwt>
</event>
<event>
 5    1  0.2381755E-004  0.6097939E+03  0.7818608E-02  0.9885293E-01
         13   -1    0    0    0    0  0.00000000000E+00  0.00000000000E+00  0.10000000000E+04  0.10000000000E+04  0.00000000000E+00 0. -1.
          2   -1    0    0  501    0 -0.00000000000E+00 -0.00000000000E+00 -0.92962151232E+02  0.92962151232E+02  0.00000000000E+00 0. -1.
    9000006    2    1    2  501    0  0.00000000000E+00  0.00000000000E+00  0.90703784877E+03  0.10929621512E+04  0.60979390365E+03 0.  0.
         13    1    3    3    0    0 -0.32653505348E+01 -0.30433999036E+03  0.42102555118E+03  0.51951516532E+03  0.00000000000E+00 0. -1.
          4    1    3    3  501    0  0.32653505348E+01  0.30433999036E+03  0.48601229759E+03  0.57344698591E+03  0.00000000000E+00 0. -1.
<mgrwt>
<rscale>  0 0.60979390E+03</rscale>
<asrwt>0</asrwt>
<pdfrwt beam="1">0</pdfrwt>
<pdfrwt beam="2">  1        2 0.33804490E+00 0.60979390E+03</pdfrwt>
<totfact> 0.67377432E+00</totfact>
</mgrwt>
</event>
<event>
 5    1  0.2381755E-004  0.6426201E+03  0.7818608E-02  0.9820726E-01
         13   -1    0    0    0    0  0.00000000000E+00  0.00000000000E+00  0.10000000000E+04  0.10000000000E+04  0.00000000000E+00 0. -1.
          2   -1    0    0  501    0 -0.00000000000E+00 -0.00000000000E+00 -0.10324015410E+03  0.10324015410E+03  0.00000000000E+00 0. -1.
    9000006    2    1    2  501    0  0.00000000000E+00  0.00000000000E+00  0.89675984590E+03  0.11032401541E+04  0.64262011827E+03 0.  0.
         13    1    3    3    0    0  0.18601007557E+03  0.27416173742E+02  0.10636698042E+01  0.18802267467E+03  0.00000000000E+00 0. -1.
          2    1    3    3  501    0 -0.18601007557E+03 -0.27416173742E+02  0.89569617609E+03  0.91521747944E+03  0.00000000000E+00 0. -1.
<mgrwt>
<rscale>  0 0.64262012E+03</rscale>
<asrwt>0</asrwt>
<pdfrwt beam="1">0</pdfrwt>
<pdfrwt beam="2">  1        2 0.37541953E+00 0.64262012E+03</pdfrwt>
<totfact> 0.49170780E+00</totfact>
</mgrwt>
</event>
<event>
 5    1  0.2381755E-004  0.6492536E+03  0.7818608E-02  0.9808181E-01
         13   -1    0    0    0    0  0.00000000000E+00  0.00000000000E+00  0.10000000000E+04  0.10000000000E+04  0.00000000000E+00 0. -1.
          2   -1    0    0  501    0 -0.00000000000E+00 -0.00000000000E+00 -0.10538256506E+03  0.10538256506E+03  0.00000000000E+00 0. -1.
    9000006    2    1    2  501    0  0.00000000000E+00  0.00000000000E+00  0.89461743494E+03  0.11053825651E+04  0.64925361781E+03 0.  0.
         13    1    3    3    0    0 -0.20800385790E+03  0.21170850555E+03  0.67122050464E+03  0.73390943724E+03  0.00000000000E+00 0. -1.
          2    1    3    3  501    0  0.20800385790E+03 -0.21170850555E+03  0.22339693030E+03  0.37147312782E+03  0.00000000000E+00 0. -1.
<mgrwt>
<rscale>  0 0.64925362E+03</rscale>
<asrwt>0</asrwt>
<pdfrwt beam="1">0</pdfrwt>
<pdfrwt beam="2">  1        2 0.38321014E+00 0.64925362E+03</pdfrwt>
<totfact> 0.45999643E+00</totfact>
</mgrwt>
</event>
<event>
 5    1  0.2381755E-004  0.6503537E+03  0.7818608E-02  0.9806116E-01
         13   -1    0    0    0    0  0.00000000000E+00  0.00000000000E+00  0.10000000000E+04  0.10000000000E+04  0.00000000000E+00 0. -1.
          2   -1    0    0  501    0 -0.00000000000E+00 -0.00000000000E+00 -0.10573998856E+03  0.10573998856E+03  0.00000000000E+00 0. -1.
    9000006    2    1    2  501    0  0.00000000000E+00  0.00000000000E+00  0.89426001144E+03  0.11057399886E+04  0.65035371472E+03 0.  0.
         13    1    3    3    0    0  0.14751291653E+03  0.25276639563E+03  0.20614868224E+03  0.35797791901E+03  0.00000000000E+00 0. -1.
          4    1    3    3  501    0 -0.14751291653E+03 -0.25276639563E+03  0.68811132919E+03  0.74776206956E+03  0.00000000000E+00 0. -1.
<mgrwt>
<rscale>  0 0.65035371E+03</rscale>
<asrwt>0</asrwt>
<pdfrwt beam="1">0</pdfrwt>
<pdfrwt beam="2">  1        2 0.38450986E+00 0.65035371E+03</pdfrwt>
<totfact> 0.45489080E+00</totfact>
</mgrwt>
</event>
<event>
 5    1  0.2381755E-004  0.6447481E+03  0.7818608E-02  0.9816684E-01
         13   -1    0    0    0    0  0.00000000000E+00  0.00000000000E+00  0.10000000000E+04  0.10000000000E+04  0.00000000000E+00 0. -1.
          4   -1    0    0  501    0 -0.00000000000E+00 -0.00000000000E+00 -0.10392503892E+03  0.10392503892E+03  0.00000000000E+00 0. -1.
    9000006    2    1    2  501    0  0.00000000000E+00  0.00000000000E+00  0.89607496108E+03  0.11039250389E+04  0.64474813351E+03 0.  0.
         13    1    3    3    0    0 -0.30310567786E+03 -0.16527820935E+02  0.63386085736E+03  0.70279855386E+03  0.00000000000E+00 0. -1.
          2    1    3    3  501    0  0.30310567786E+03  0.16527820935E+02  0.26221410372E+03  0.40112648505E+03  0.00000000000E+00 0. -1.
<mgrwt>
<rscale>  0 0.64474813E+03</rscale>
<asrwt>0</asrwt>
<pdfrwt beam="1">0</pdfrwt>
<pdfrwt beam="2">  1        4 0.37791003E+00 0.64474813E+03</pdfrwt>
<totfact> 0.45314205E-02</totfact>
</mgrwt>
</event>
<event>
 5    1  0.2381755E-004  0.6633245E+03  0.7818608E-02  0.9782093E-01
         13   -1    0    0    0    0  0.00000000000E+00  0.00000000000E+00  0.10000000000E+04  0.10000000000E+04  0.00000000000E+00 0. -1.
          2   -1    0    0  501    0 -0.00000000000E+00 -0.00000000000E+00 -0.10999984260E+03  0.10999984260E+03  0.00000000000E+00 0. -1.
    9000006    2    1    2  501    0  0.00000000000E+00  0.00000000000E+00  0.89000015740E+03  0.11099998426E+04  0.66332448348E+03 0.  0.
         13    1    3    3    0    0 -0.25982843508E+03  0.20577800555E+03  0.42488880111E+03  0.53887465755E+03  0.00000000000E+00 0. -1.
          2    1    3    3  501    0  0.25982843508E+03 -0.20577800555E+03  0.46511135630E+03  0.57112518505E+03  0.00000000000E+00 0. -1.
<mgrwt>
<rscale>  0 0.66332448E+03</rscale>
<asrwt>0</asrwt>
<pdfrwt beam="1">0</pdfrwt>
<pdfrwt beam="2">  1        2 0.40000027E+00 0.66332448E+03</pdfrwt>
<totfact> 0.39786474E+00</totfact>
</mgrwt>
</event>
<event>
 5    1  0.2381755E-004  0.6576903E+03  0.7818608E-02  0.9792455E-01
         13   -1    0    0    0    0  0.00000000000E+00  0.00000000000E+00  0.10000000000E+04  0.10000000000E+04  0.00000000000E+00 0. -1.
          2   -1    0    0  501    0 -0.00000000000E+00 -0.00000000000E+00 -0.10813911648E+03  0.10813911648E+03  0.00000000000E+00 0. -1.
    9000006    2    1    2  501    0  0.00000000000E+00  0.00000000000E+00  0.89186088352E+03  0.11081391165E+04  0.65769025075E+03 0.  0.
         13    1    3    3    0    0 -0.10857437888E+03 -0.30998244855E+03  0.47318214669E+03  0.57600248099E+03  0.00000000000E+00 0. -1.
          2    1    3    3  501    0  0.10857437888E+03  0.30998244855E+03  0.41867873683E+03  0.53213663549E+03  0.00000000000E+00 0. -1.
<mgrwt>
<rscale>  0 0.65769025E+03</rscale>
<asrwt>0</asrwt>
<pdfrwt beam="1">0</pdfrwt>
<pdfrwt beam="2">  1        2 0.39323398E+00 0.65769025E+03</pdfrwt>
<totfact> 0.42192739E+00</totfact>
</mgrwt>
</event>
<event>
 5    1  0.2381755E-004  0.6628411E+03  0.7818608E-02  0.9782978E-01
         13   -1    0    0    0    0  0.00000000000E+00  0.00000000000E+00  0.10000000000E+04  0.10000000000E+04  0.00000000000E+00 0. -1.
          2   -1    0    0  501    0 -0.00000000000E+00 -0.00000000000E+00 -0.10983959605E+03  0.10983959605E+03  0.00000000000E+00 0. -1.
    9000006    2    1    2  501    0  0.00000000000E+00  0.00000000000E+00  0.89016040395E+03  0.11098395960E+04  0.66284114552E+03 0.  0.
         13    1    3    3    0    0  0.18037654320E+03 -0.27270914183E+03  0.53576884068E+03  0.62765772840E+03  0.00000000000E+00 0. -1.
          4    1    3    3  501    0 -0.18037654320E+03  0.27270914183E+03  0.35439156327E+03  0.48218186765E+03  0.00000000000E+00 0. -1.
<mgrwt>
<rscale>  0 0.66284115E+03</rscale>
<asrwt>0</asrwt>
<pdfrwt beam="1">0</pdfrwt>
<pdfrwt beam="2">  1        2 0.39941756E+00 0.66284115E+03</pdfrwt>
<totfact> 0.39988732E+00</totfact>
</mgrwt>
</event>
<event>
 5    1  0.2381755E-004  0.6521437E+03  0.7818608E-02  0.9802765E-01
         13   -1    0    0    0    0  0.00000000000E+00  0.00000000000E+00  0.10000000000E+04  0.10000000000E+04  0.00000000000E+00 0. -1.
          2   -1    0    0  501    0 -0.00000000000E+00 -0.00000000000E+00 -0.10632286583E+03  0.10632286583E+03  0.00000000000E+00 0. -1.
    9000006    2    1    2  501    0  0.00000000000E+00  0.00000000000E+00  0.89367713417E+03  0.11063228658E+04  0.65214374436E+03 0.  0.
         13    1    3    3    0    0  0.12835238151E+03  0.20054939369E+03  0.68914968858E+02  0.24787832919E+03  0.00000000000E+00 0. -1.
          2    1    3    3  501    0 -0.12835238151E+03 -0.20054939369E+03  0.82476216532E+03  0.85844453664E+03  0.00000000000E+00 0. -1.
<mgrwt>
<rscale>  0 0.65214374E+03</rscale>
<asrwt>0</asrwt>
<pdfrwt beam="1">0</pdfrwt>
<pdfrwt beam="2">  1        2 0.38662942E+00 0.65214374E+03</pdfrwt>
<totfact> 0.44667482E+00</totfact>
</mgrwt>
</event>
<event>
 5    1  0.2381755E-004  0.6499682E+03  0.7818608E-02  0.9806839E-01
         13   -1    0    0    0    0  0.00000000000E+00  0.00000000000E+00  0.10000000000E+04  0.10000000000E+04  0.00000000000E+00 0. -1.
          2   -1    0    0  501    0 -0.00000000000E+00 -0.00000000000E+00 -0.10561466614E+03  0.10561466614E+03  0.00000000000E+00 0. -1.
    9000006    2    1    2  501    0  0.00000000000E+00  0.00000000000E+00  0.89438533386E+03  0.11056146661E+04  0.64996820273E+03 0.  0.
         13    1    3    3    0    0 -0.45976504848E+02 -0.21056632701E+03  0.86094026541E+03  0.88750783527E+03  0.00000000000E+00 0. -1.
          4    1    3    3  501    0  0.45976504848E+02  0.21056632701E+03  0.33445068450E+02  0.21810683087E+03  0.00000000000E+00 0. -1.
<mgrwt>
<rscale>  0 0.64996820E+03</rscale>
<asrwt>0</asrwt>
<pdfrwt beam="1">0</pdfrwt>
<pdfrwt beam="2">  1        2 0.38405414E+00 0.64996820E+03</pdfrwt>
<totfact> 0.45667509E+00</totfact>
</mgrwt>
</event>
<event>
 5    1  0.2381755E-004  0.6116708E+03  0.7818608E-02  0.9881484E-01
         13   -1    0    0    0    0  0.00000000000E+00  0.00000000000E+00  0.10000000000E+04  0.10000000000E+04  0.00000000000E+00 0. -1.
          2   -1    0    0  501    0 -0.00000000000E+00 -0.00000000000E+00 -0.93535281722E+02  0.93535281722E+02  0.00000000000E+00 0. -1.
    9000006    2    1    2  501    0  0.00000000000E+00  0.00000000000E+00  0.90646471828E+03  0.10935352817E+04  0.61167076674E+03 0.  0.
         13    1    3    3    0    0  0.14000401464E+03  0.85846645079E+02 -0.80177140198E+01  0.16442339956E+03  0.00000000000E+00 0. -1.
          2    1    3    3  501    0 -0.14000401464E+03 -0.85846645079E+02  0.91448243230E+03  0.92911188216E+03  0.00000000000E+00 0. -1.
<mgrwt>
<rscale>  0 0.61167077E+03</rscale>
<asrwt>0</asrwt>
<pdfrwt beam="1">0</pdfrwt>
<pdfrwt beam="2">  1        2 0.34012901E+00 0.61167077E+03</pdfrwt>
<totfact> 0.66216060E+00</totfact>
</mgrwt>
</event>
<event>
 5    1  0.2381755E-004  0.6445613E+03  0.7818608E-02  0.9817038E-01
         13   -1    0    0    0    0  0.00000000000E+00  0.00000000000E+00  0.10000000000E+04  0.10000000000E+04  0.00000000000E+00 0. -1.
          2   -1    0    0  501    0 -0.00000000000E+00 -0.00000000000E+00 -0.10386480967E+03  0.10386480967E+03  0.00000000000E+00 0. -1.
    9000006    2    1    2  501    0  0.00000000000E+00  0.00000000000E+00  0.89613519033E+03  0.11038648097E+04  0.64456127612E+03 0.  0.
         13    1    3    3    0    0  0.25922338036E+03  0.19064960397E+03  0.47874039774E+03  0.57683307884E+03  0.00000000000E+00 0. -1.
          4    1    3    3  501    0 -0.25922338036E+03 -0.19064960397E+03  0.41739479259E+03  0.52703173083E+03  0.00000000000E+00 0. -1.
<mgrwt>
<rscale>  0 0.64456128E+03</rscale>
<asrwt>0</asrwt>
<pdfrwt beam="1">0</pdfrwt>
<pdfrwt beam="2">  1        2 0.37769101E+00 0.64456128E+03</pdfrwt>
<totfact> 0.48226217E+00</totfact>
</mgrwt>
</event>
<event>
 5    1  0.2381755E-004  0.6407258E+03  0.7818608E-02  0.9824339E-01
         13   -1    0    0    0    0  0.00000000000E+00  0.00000000000E+00  0.10000000000E+04  0.10000000000E+04  0.00000000000E+00 0. -1.
          2   -1    0    0  501    0 -0.00000000000E+00 -0.00000000000E+00 -0.10263238300E+03  0.10263238300E+03  0.00000000000E+00 0. -1.
    9000006    2    1    2  501    0  0.00000000000E+00  0.00000000000E+00  0.89736761700E+03  0.11026323830E+04  0.64072578535E+03 0.  0.
         13    1    3    3    0    0  0.26250941433E+03 -0.18287678548E+03  0.42002808806E+03  0.52799498675E+03  0.00000000000E+00 0. -1.
          2    1    3    3  501    0 -0.26250941433E+03  0.18287678548E+03  0.47733952894E+03  0.57463739625E+03  0.00000000000E+00 0. -1.
<mgrwt>
<rscale>  0 0.64072579E+03</rscale>
<asrwt>0</asrwt>
<pdfrwt beam="1">0</pdfrwt>
<pdfrwt beam="2">  1        2 0.37320945E+00 0.64072579E+03</pdfrwt>
<totfact> 0.50106077E+00</totfact>
</mgrwt>
</event>
<event>
 5    1  0.2381755E-004  0.6455687E+03  0.7818608E-02  0.9815130E-01
         13   -1    0    0    0    0  0.00000000000E+00  0.00000000000E+00  0.10000000000E+04  0.10000000000E+04  0.00000000000E+00 0. -1.
          2   -1    0    0  501    0 -0.00000000000E+00 -0.00000000000E+00 -0.10418974148E+03  0.10418974148E+03  0.00000000000E+00 0. -1.
    9000006    2    1    2  501    0  0.00000000000E+00  0.00000000000E+00  0.89581025852E+03  0.11041897415E+04  0.64556871510E+03 0.  0.
         13    1    3    3    0    0  0.13868005986E+03 -0.24748901053E+03  0.71125762889E+03  0.76574825106E+03  0.00000000000E+00 0. -1.
          4    1    3    3  501    0 -0.13868005986E+03  0.24748901053E+03  0.18455262963E+03  0.33844149042E+03  0.00000000000E+00 0. -1.
<mgrwt>
<rscale>  0 0.64556872E+03</rscale>
<asrwt>0</asrwt>
<pdfrwt beam="1">0</pdfrwt>
<pdfrwt beam="2">  1        2 0.37887259E+00 0.64556872E+03</pdfrwt>
<totfact> 0.47741449E+00</totfact>
</mgrwt>
</event>
<event>
 5    1  0.2381755E-004  0.6563015E+03  0.7818608E-02  0.9795026E-01
         13   -1    0    0    0    0  0.00000000000E+00  0.00000000000E+00  0.10000000000E+04  0.10000000000E+04  0.00000000000E+00 0. -1.
          2   -1    0    0  501    0 -0.00000000000E+00 -0.00000000000E+00 -0.10768291315E+03  0.10768291315E+03  0.00000000000E+00 0. -1.
    9000006    2    1    2  501    0  0.00000000000E+00  0.00000000000E+00  0.89231708685E+03  0.11076829132E+04  0.65630149520E+03 0.  0.
         13    1    3    3    0    0 -0.72951388687E+01  0.21728133044E+03  0.31302811221E+02  0.21964576390E+03  0.00000000000E+00 0. -1.
          4    1    3    3  501    0  0.72951388687E+01 -0.21728133044E+03  0.86101427563E+03  0.88803714925E+03  0.00000000000E+00 0. -1.
<mgrwt>
<rscale>  0 0.65630150E+03</rscale>
<asrwt>0</asrwt>
<pdfrwt beam="1">0</pdfrwt>
<pdfrwt beam="2">  1        2 0.39157506E+00 0.65630150E+03</pdfrwt>
<totfact> 0.42802402E+00</totfact>
</mgrwt>
</event>
<event>
 5    1  0.2381755E-004  0.6409291E+03  0.7818608E-02  0.9823950E-01
         13   -1    0    0    0    0  0.00000000000E+00  0.00000000000E+00  0.10000000000E+04  0.10000000000E+04  0.00000000000E+00 0. -1.
          2   -1    0    0  501    0 -0.00000000000E+00 -0.00000000000E+00 -0.10269754086E+03  0.10269754086E+03  0.00000000000E+00 0. -1.
    9000006    2    1    2  501    0  0.00000000000E+00  0.00000000000E+00  0.89730245914E+03  0.11026975409E+04  0.64092914072E+03 0.  0.
         13    1    3    3    0    0  0.24122669272E+03 -0.10496450638E+03  0.13380256107E+03  0.29514571017E+03  0.00000000000E+00 0. -1.
          2    1    3    3  501    0 -0.24122669272E+03  0.10496450638E+03  0.76349989808E+03  0.80755183069E+03  0.00000000000E+00 0. -1.
<mgrwt>
<rscale>  0 0.64092914E+03</rscale>
<asrwt>0</asrwt>
<pdfrwt beam="1">0</pdfrwt>
<pdfrwt beam="2">  1        2 0.37344639E+00 0.64092914E+03</pdfrwt>
<totfact> 0.50005033E+00</totfact>
</mgrwt>
</event>
<event>
 5    1  0.2381755E-004  0.6715045E+03  0.7818608E-02  0.9767244E-01
         13   -1    0    0    0    0  0.00000000000E+00  0.00000000000E+00  0.10000000000E+04  0.10000000000E+04  0.00000000000E+00 0. -1.
          2   -1    0    0  501    0 -0.00000000000E+00 -0.00000000000E+00 -0.11272958423E+03  0.11272958423E+03  0.00000000000E+00 0. -1.
    9000006    2    1    2  501    0  0.00000000000E+00  0.00000000000E+00  0.88727041577E+03  0.11127295842E+04  0.67150453232E+03 0.  0.
         13    1    3    3    0    0 -0.14806033619E+03 -0.17923202176E+03  0.42215146126E+02  0.23627970573E+03  0.00000000000E+00 0. -1.
          4    1    3    3  501    0  0.14806033619E+03  0.17923202176E+03  0.84505526964E+03  0.87644987850E+03  0.00000000000E+00 0. -1.
<mgrwt>
<rscale>  0 0.67150453E+03</rscale>
<asrwt>0</asrwt>
<pdfrwt beam="1">0</pdfrwt>
<pdfrwt beam="2">  1        2 0.40992663E+00 0.67150453E+03</pdfrwt>
<totfact> 0.36478979E+00</totfact>
</mgrwt>
</event>
<event>
 5    1  0.2381755E-004  0.6403413E+03  0.7818608E-02  0.9825074E-01
         13   -1    0    0    0    0  0.00000000000E+00  0.00000000000E+00  0.10000000000E+04  0.10000000000E+04  0.00000000000E+00 0. -1.
          2   -1    0    0  501    0 -0.00000000000E+00 -0.00000000000E+00 -0.10250925711E+03  0.10250925711E+03  0.00000000000E+00 0. -1.
    9000006    2    1    2  501    0  0.00000000000E+00  0.00000000000E+00  0.89749074289E+03  0.11025092571E+04  0.64034133745E+03 0.  0.
         13    1    3    3    0    0  0.23880580324E+03 -0.18710505004E+03  0.27254736723E+03  0.40782174880E+03  0.00000000000E+00 0. -1.
          4    1    3    3  501    0 -0.23880580324E+03  0.18710505004E+03  0.62494337566E+03  0.69468750831E+03  0.00000000000E+00 0. -1.
<mgrwt>
<rscale>  0 0.64034134E+03</rscale>
<asrwt>0</asrwt>
<pdfrwt beam="1">0</pdfrwt>
<pdfrwt beam="2">  1        2 0.37276172E+00 0.64034134E+03</pdfrwt>
<totfact> 0.50297525E+00</totfact>
</mgrwt>
</event>
<event>
 5    1  0.2381755E-004  0.6544735E+03  0.7818608E-02  0.9798421E-01
         13   -1    0    0    0    0  0.00000000000E+00  0.00000000000E+00  0.10000000000E+04  0.10000000000E+04  0.00000000000E+00 0. -1.
          2   -1    0    0  501    0 -0.00000000000E+00 -0.00000000000E+00 -0.10708387453E+03  0.10708387453E+03  0.00000000000E+00 0. -1.
    9000006    2    1    2  501    0  0.00000000000E+00  0.00000000000E+00  0.89291612547E+03  0.11070838745E+04  0.65447345103E+03 0.  0.
         13    1    3    3    0    0  0.30087836519E+03 -0.99990666999E+02  0.30947320756E+03  0.44305709601E+03  0.00000000000E+00 0. -1.
          4    1    3    3  501    0 -0.30087836519E+03  0.99990666999E+02  0.58344291791E+03  0.66402677852E+03  0.00000000000E+00 0. -1.
<mgrwt>
<rscale>  0 0.65447345E+03</rscale>
<asrwt>0</asrwt>
<pdfrwt beam="1">0</pdfrwt>
<pdfrwt beam="2">  1        2 0.38939673E+00 0.65447345E+03</pdfrwt>
<totfact> 0.43615027E+00</totfact>
</mgrwt>
</event>
<event>
 5    1  0.2381755E-004  0.6397210E+03  0.7818608E-02  0.9826260E-01
         13   -1    0    0    0    0  0.00000000000E+00  0.00000000000E+00  0.10000000000E+04  0.10000000000E+04  0.00000000000E+00 0. -1.
          2   -1    0    0  501    0 -0.00000000000E+00 -0.00000000000E+00 -0.10231075254E+03  0.10231075254E+03  0.00000000000E+00 0. -1.
    9000006    2    1    2  501    0  0.00000000000E+00  0.00000000000E+00  0.89768924746E+03  0.11023107525E+04  0.63972104089E+03 0.  0.
         13    1    3    3    0    0  0.12764751923E+03 -0.24170118016E+03  0.73509595520E+03  0.78426998732E+03  0.00000000000E+00 0. -1.
          4    1    3    3  501    0 -0.12764751923E+03  0.24170118016E+03  0.16259329226E+03  0.31804076522E+03  0.00000000000E+00 0. -1.
<mgrwt>
<rscale>  0 0.63972104E+03</rscale>
<asrwt>0</asrwt>
<pdfrwt beam="1">0</pdfrwt>
<pdfrwt beam="2">  1        2 0.37203988E+00 0.63972104E+03</pdfrwt>
<totfact> 0.50607588E+00</totfact>
</mgrwt>
</event>
<event>
 5    1  0.2381755E-004  0.6415851E+03  0.7818608E-02  0.9822698E-01
         13   -1    0    0    0    0  0.00000000000E+00  0.00000000000E+00  0.10000000000E+04  0.10000000000E+04  0.00000000000E+00 0. -1.
          2   -1    0    0  501    0 -0.00000000000E+00 -0.00000000000E+00 -0.10290787306E+03  0.10290787306E+03  0.00000000000E+00 0. -1.
    9000006    2    1    2  501    0  0.00000000000E+00  0.00000000000E+00  0.89709212694E+03  0.11029078731E+04  0.64158514028E+03 0.  0.
         13    1    3    3    0    0  0.14599774775E+03  0.24838551617E+03  0.20606347884E+03  0.35422149046E+03  0.00000000000E+00 0. -1.
          2    1    3    3  501    0 -0.14599774775E+03 -0.24838551617E+03  0.69102864810E+03  0.74868638260E+03  0.00000000000E+00 0. -1.
<mgrwt>
<rscale>  0 0.64158514E+03</rscale>
<asrwt>0</asrwt>
<pdfrwt beam="1">0</pdfrwt>
<pdfrwt beam="2">  1        2 0.37421124E+00 0.64158514E+03</pdfrwt>
<totfact> 0.49680130E+00</totfact>
</mgrwt>
</event>
<event>
 5    1  0.2381755E-004  0.6464125E+03  0.7818608E-02  0.9813534E-01
         13   -1    0    0    0    0  0.00000000000E+00  0.00000000000E+00  0.10000000000E+04  0.10000000000E+04  0.00000000000E+00 0. -1.
          2   -1    0    0  501    0 -0.00000000000E+00 -0.00000000000E+00 -0.10446227666E+03  0.10446227666E+03  0.00000000000E+00 0. -1.
    9000006    2    1    2  501    0  0.00000000000E+00  0.00000000000E+00  0.89553772334E+03  0.11044622767E+04  0.64641248953E+03 0.  0.
         13    1    3    3    0    0 -0.16225405199E+03  0.24456287348E+03  0.21647614519E+03  0.36469068799E+03  0.00000000000E+00 0. -1.
          4    1    3    3  501    0  0.16225405199E+03 -0.24456287348E+03  0.67906157815E+03  0.73977158866E+03  0.00000000000E+00 0. -1.
<mgrwt>
<rscale>  0 0.64641249E+03</rscale>
<asrwt>0</asrwt>
<pdfrwt beam="1">0</pdfrwt>
<pdfrwt beam="2">  1        2 0.37986363E+00 0.64641249E+03</pdfrwt>
<totfact> 0.47338279E+00</totfact>
</mgrwt>
</event>
<event>
 5    1  0.2381755E-004  0.6617795E+03  0.7818608E-02  0.9784923E-01
         13   -1    0    0    0    0  0.00000000000E+00  0.00000000000E+00  0.10000000000E+04  0.10000000000E+04  0.00000000000E+00 0. -1.
          2   -1    0    0  501    0 -0.00000000000E+00 -0.00000000000E+00 -0.10948801760E+03  0.10948801760E+03  0.00000000000E+00 0. -1.
    9000006    2    1    2  501    0  0.00000000000E+00  0.00000000000E+00  0.89051198240E+03  0.11094880176E+04  0.66177947263E+03 0.  0.
         13    1    3    3    0    0  0.17362998610E+03  0.24083115850E+03  0.69017172917E+03  0.75132152553E+03  0.00000000000E+00 0. -1.
          4    1    3    3  501    0 -0.17362998610E+03 -0.24083115850E+03  0.20034025323E+03  0.35816649207E+03  0.00000000000E+00 0. -1.
<mgrwt>
<rscale>  0 0.66177947E+03</rscale>
<asrwt>0</asrwt>
<pdfrwt beam="1">0</pdfrwt>
<pdfrwt beam="2">  1        2 0.39813909E+00 0.66177947E+03</pdfrwt>
<totfact> 0.40435724E+00</totfact>
</mgrwt>
</event>
<event>
 5    1  0.2381755E-004  0.6606250E+03  0.7818608E-02  0.9787044E-01
         13   -1    0    0    0    0  0.00000000000E+00  0.00000000000E+00  0.10000000000E+04  0.10000000000E+04  0.00000000000E+00 0. -1.
          2   -1    0    0  501    0 -0.00000000000E+00 -0.00000000000E+00 -0.10910634350E+03  0.10910634350E+03  0.00000000000E+00 0. -1.
    9000006    2    1    2  501    0  0.00000000000E+00  0.00000000000E+00  0.89089365650E+03  0.11091063435E+04  0.66062498742E+03 0.  0.
         13    1    3    3    0    0 -0.64042436211E+01 -0.32204988400E+03  0.32265692222E+03  0.45592173843E+03  0.00000000000E+00 0. -1.
          2    1    3    3  501    0  0.64042436211E+01  0.32204988400E+03  0.56823673428E+03  0.65318460507E+03  0.00000000000E+00 0. -1.
<mgrwt>
<rscale>  0 0.66062499E+03</rscale>
<asrwt>0</asrwt>
<pdfrwt beam="1">0</pdfrwt>
<pdfrwt beam="2">  1        2 0.39675118E+00 0.66062499E+03</pdfrwt>
<totfact> 0.40926060E+00</totfact>
</mgrwt>
</event>
<event>
 5    1  0.2381755E-004  0.6574971E+03  0.7818608E-02  0.9792812E-01
         13   -1    0    0    0    0  0.00000000000E+00  0.00000000000E+00  0.10000000000E+04  0.10000000000E+04  0.00000000000E+00 0. -1.
          2   -1    0    0  501    0 -0.00000000000E+00 -0.00000000000E+00 -0.10807562460E+03  0.10807562460E+03  0.00000000000E+00 0. -1.
    9000006    2    1    2  501    0  0.00000000000E+00  0.00000000000E+00  0.89192437540E+03  0.11080756246E+04  0.65749714706E+03 0.  0.
         13    1    3    3    0    0  0.19095947227E+03 -0.16510192698E+03  0.80088137677E+03  0.83972325561E+03  0.00000000000E+00 0. -1.
          4    1    3    3  501    0 -0.19095947227E+03  0.16510192698E+03  0.91042998631E+02  0.26835236899E+03  0.00000000000E+00 0. -1.
<mgrwt>
<rscale>  0 0.65749715E+03</rscale>
<asrwt>0</asrwt>
<pdfrwt beam="1">0</pdfrwt>
<pdfrwt beam="2">  1        2 0.39300310E+00 0.65749715E+03</pdfrwt>
<totfact> 0.42277116E+00</totfact>
</mgrwt>
</event>
<event>
 5    1  0.2381755E-004  0.6459010E+03  0.7818608E-02  0.9814501E-01
         13   -1    0    0    0    0  0.00000000000E+00  0.00000000000E+00  0.10000000000E+04  0.10000000000E+04  0.00000000000E+00 0. -1.
          2   -1    0    0  501    0 -0.00000000000E+00 -0.00000000000E+00 -0.10429703111E+03  0.10429703111E+03  0.00000000000E+00 0. -1.
    9000006    2    1    2  501    0  0.00000000000E+00  0.00000000000E+00  0.89570296889E+03  0.11042970311E+04  0.64590101751E+03 0.  0.
         13    1    3    3    0    0  0.26046683697E+03 -0.38065260538E+00  0.77428294828E+03  0.81691933632E+03  0.00000000000E+00 0. -1.
          2    1    3    3  501    0 -0.26046683697E+03  0.38065260538E+00  0.12142002062E+03  0.28737769479E+03  0.00000000000E+00 0. -1.
<mgrwt>
<rscale>  0 0.64590102E+03</rscale>
<asrwt>0</asrwt>
<pdfrwt beam="1">0</pdfrwt>
<pdfrwt beam="2">  1        2 0.37926273E+00 0.64590102E+03</pdfrwt>
<totfact> 0.47582360E+00</totfact>
</mgrwt>
</event>
<event>
 5    1  0.2381755E-004  0.6468909E+03  0.7818608E-02  0.9812631E-01
         13   -1    0    0    0    0  0.00000000000E+00  0.00000000000E+00  0.10000000000E+04  0.10000000000E+04  0.00000000000E+00 0. -1.
          2   -1    0    0  501    0 -0.00000000000E+00 -0.00000000000E+00 -0.10461696114E+03  0.10461696114E+03  0.00000000000E+00 0. -1.
    9000006    2    1    2  501    0  0.00000000000E+00  0.00000000000E+00  0.89538303886E+03  0.11046169611E+04  0.64689090621E+03 0.  0.
         13    1    3    3    0    0  0.61839684516E+02 -0.27627956935E+03  0.18061831432E+03  0.33582364790E+03  0.00000000000E+00 0. -1.
          2    1    3    3  501    0 -0.61839684516E+02  0.27627956935E+03  0.71476472454E+03  0.76879331323E+03  0.00000000000E+00 0. -1.
<mgrwt>
<rscale>  0 0.64689091E+03</rscale>
<asrwt>0</asrwt>
<pdfrwt beam="1">0</pdfrwt>
<pdfrwt beam="2">  1        2 0.38042612E+00 0.64689091E+03</pdfrwt>
<totfact> 0.47110830E+00</totfact>
</mgrwt>
</event>
<event>
 5    1  0.2381755E-004  0.4823350E+03  0.7818608E-02  0.1018495E+00
         13   -1    0    0    0    0  0.00000000000E+00  0.00000000000E+00  0.10000000000E+04  0.10000000000E+04  0.00000000000E+00 0. -1.
          2   -1    0    0  501    0 -0.00000000000E+00 -0.00000000000E+00 -0.58161758423E+02  0.58161758423E+02  0.00000000000E+00 0. -1.
    9000006    2    1    2  501    0  0.00000000000E+00  0.00000000000E+00  0.94183824158E+03  0.10581617584E+04  0.48233498079E+03 0.  0.
         13    1    3    3    0    0  0.20701567643E+03  0.50360747552E+02  0.71883242086E+03  0.74974111830E+03  0.00000000000E+00 0. -1.
          2    1    3    3  501    0 -0.20701567643E+03 -0.50360747552E+02  0.22300582071E+03  0.30842064013E+03  0.00000000000E+00 0. -1.
<mgrwt>
<rscale>  0 0.48233498E+03</rscale>
<asrwt>0</asrwt>
<pdfrwt beam="1">0</pdfrwt>
<pdfrwt beam="2">  1        2 0.21149775E+00 0.48233498E+03</pdfrwt>
<totfact> 0.19248802E+01</totfact>
</mgrwt>
</event>
<event>
 5    1  0.2381755E-004  0.6453291E+03  0.7818608E-02  0.9815584E-01
         13   -1    0    0    0    0  0.00000000000E+00  0.00000000000E+00  0.10000000000E+04  0.10000000000E+04  0.00000000000E+00 0. -1.
          2   -1    0    0  501    0 -0.00000000000E+00 -0.00000000000E+00 -0.10411240231E+03  0.10411240231E+03  0.00000000000E+00 0. -1.
    9000006    2    1    2  501    0  0.00000000000E+00  0.00000000000E+00  0.89588759769E+03  0.11041124023E+04  0.64532907052E+03 0.  0.
         13    1    3    3    0    0  0.36921035405E+02 -0.31795539483E+03  0.51751798352E+03  0.60850937480E+03  0.00000000000E+00 0. -1.
          4    1    3    3  501    0 -0.36921035405E+02  0.31795539483E+03  0.37836961417E+03  0.49560302751E+03  0.00000000000E+00 0. -1.
<mgrwt>
<rscale>  0 0.64532907E+03</rscale>
<asrwt>0</asrwt>
<pdfrwt beam="1">0</pdfrwt>
<pdfrwt beam="2">  1        2 0.37859135E+00 0.64532907E+03</pdfrwt>
<totfact> 0.47856427E+00</totfact>
</mgrwt>
</event>
<event>
 5    1  0.2381755E-004  0.6557528E+03  0.7818608E-02  0.9796044E-01
         13   -1    0    0    0    0  0.00000000000E+00  0.00000000000E+00  0.10000000000E+04  0.10000000000E+04  0.00000000000E+00 0. -1.
          2   -1    0    0  501    0 -0.00000000000E+00 -0.00000000000E+00 -0.10750293811E+03  0.10750293811E+03  0.00000000000E+00 0. -1.
    9000006    2    1    2  501    0  0.00000000000E+00  0.00000000000E+00  0.89249706189E+03  0.11075029381E+04  0.65575281351E+03 0.  0.
         13    1    3    3    0    0  0.47166343602E+02 -0.25669202333E+03  0.78143294692E+03  0.82386461833E+03  0.00000000000E+00 0. -1.
          4    1    3    3  501    0 -0.47166343602E+02  0.25669202333E+03  0.11106411497E+03  0.28363831978E+03  0.00000000000E+00 0. -1.
<mgrwt>
<rscale>  0 0.65575281E+03</rscale>
<asrwt>0</asrwt>
<pdfrwt beam="1">0</pdfrwt>
<pdfrwt beam="2">  1        2 0.39092060E+00 0.65575281E+03</pdfrwt>
<totfact> 0.43045098E+00</totfact>
</mgrwt>
</event>
<event>
 5    1  0.2381755E-004  0.6476276E+03  0.7818608E-02  0.9811241E-01
         13   -1    0    0    0    0  0.00000000000E+00  0.00000000000E+00  0.10000000000E+04  0.10000000000E+04  0.00000000000E+00 0. -1.
          2   -1    0    0  501    0 -0.00000000000E+00 -0.00000000000E+00 -0.10485536262E+03  0.10485536262E+03  0.00000000000E+00 0. -1.
    9000006    2    1    2  501    0  0.00000000000E+00  0.00000000000E+00  0.89514463738E+03  0.11048553626E+04  0.64762755536E+03 0.  0.
         13    1    3    3    0    0  0.72157444785E+02  0.31566951913E+03  0.44553904252E+03  0.55078033785E+03  0.00000000000E+00 0. -1.
          2    1    3    3  501    0 -0.72157444785E+02 -0.31566951913E+03  0.44960559486E+03  0.55407502477E+03  0.00000000000E+00 0. -1.
<mgrwt>
<rscale>  0 0.64762756E+03</rscale>
<asrwt>0</asrwt>
<pdfrwt beam="1">0</pdfrwt>
<pdfrwt beam="2">  1        2 0.38129303E+00 0.64762756E+03</pdfrwt>
<totfact> 0.46762230E+00</totfact>
</mgrwt>
</event>
<event>
 5    1  0.2381755E-004  0.6499115E+03  0.7818608E-02  0.9806945E-01
         13   -1    0    0    0    0  0.00000000000E+00  0.00000000000E+00  0.10000000000E+04  0.10000000000E+04  0.00000000000E+00 0. -1.
          2   -1    0    0  501    0 -0.00000000000E+00 -0.00000000000E+00 -0.10559624077E+03  0.10559624077E+03  0.00000000000E+00 0. -1.
    9000006    2    1    2  501    0  0.00000000000E+00  0.00000000000E+00  0.89440375923E+03  0.11055962408E+04  0.64991150404E+03 0.  0.
         13    1    3    3    0    0 -0.61873539305E+02 -0.89547469824E+01 -0.95269188191E+02  0.11395060587E+03  0.00000000000E+00 0. -1.
          2    1    3    3  501    0  0.61873539305E+02  0.89547469824E+01  0.98967294742E+03  0.99164563490E+03  0.00000000000E+00 0. -1.
<mgrwt>
<rscale>  0 0.64991150E+03</rscale>
<asrwt>0</asrwt>
<pdfrwt beam="1">0</pdfrwt>
<pdfrwt beam="2">  1        2 0.38398714E+00 0.64991150E+03</pdfrwt>
<totfact> 0.45693796E+00</totfact>
</mgrwt>
</event>
<event>
 5    1  0.2381755E-004  0.4909516E+03  0.7818608E-02  0.1016168E+00
         13   -1    0    0    0    0  0.00000000000E+00  0.00000000000E+00  0.10000000000E+04  0.10000000000E+04  0.00000000000E+00 0. -1.
          2   -1    0    0  501    0 -0.00000000000E+00 -0.00000000000E+00 -0.60258370253E+02  0.60258370253E+02  0.00000000000E+00 0. -1.
    9000006    2    1    2  501    0  0.00000000000E+00  0.00000000000E+00  0.93974162975E+03  0.10602583703E+04  0.49095160761E+03 0.  0.
         13    1    3    3    0    0  0.71890366604E+02 -0.17746490358E+03  0.80160900396E+03  0.82415957923E+03  0.00000000000E+00 0. -1.
          4    1    3    3  501    0 -0.71890366604E+02  0.17746490358E+03  0.13813262579E+03  0.23609879102E+03  0.00000000000E+00 0. -1.
<mgrwt>
<rscale>  0 0.49095161E+03</rscale>
<asrwt>0</asrwt>
<pdfrwt beam="1">0</pdfrwt>
<pdfrwt beam="2">  1        2 0.21912181E+00 0.49095161E+03</pdfrwt>
<totfact> 0.18042561E+01</totfact>
</mgrwt>
</event>
<event>
 5    1  0.2381755E-004  0.6446758E+03  0.7818608E-02  0.9816821E-01
         13   -1    0    0    0    0  0.00000000000E+00  0.00000000000E+00  0.10000000000E+04  0.10000000000E+04  0.00000000000E+00 0. -1.
          2   -1    0    0  501    0 -0.00000000000E+00 -0.00000000000E+00 -0.10390172527E+03  0.10390172527E+03  0.00000000000E+00 0. -1.
    9000006    2    1    2  501    0  0.00000000000E+00  0.00000000000E+00  0.89609827473E+03  0.11039017253E+04  0.64467581083E+03 0.  0.
         13    1    3    3    0    0  0.88129990736E+02 -0.50551580371E+02  0.97186553580E+03  0.97716169451E+03  0.00000000000E+00 0. -1.
          2    1    3    3  501    0 -0.88129990736E+02  0.50551580371E+02 -0.75767261072E+02  0.12674003075E+03  0.00000000000E+00 0. -1.
<mgrwt>
<rscale>  0 0.64467581E+03</rscale>
<asrwt>0</asrwt>
<pdfrwt beam="1">0</pdfrwt>
<pdfrwt beam="2">  1        2 0.37782525E+00 0.64467581E+03</pdfrwt>
<totfact> 0.48170917E+00</totfact>
</mgrwt>
</event>
<event>
 5    1  0.2381755E-004  0.6426638E+03  0.7818608E-02  0.9820643E-01
         13   -1    0    0    0    0  0.00000000000E+00  0.00000000000E+00  0.10000000000E+04  0.10000000000E+04  0.00000000000E+00 0. -1.
          2   -1    0    0  501    0 -0.00000000000E+00 -0.00000000000E+00 -0.10325419416E+03  0.10325419416E+03  0.00000000000E+00 0. -1.
    9000006    2    1    2  501    0  0.00000000000E+00  0.00000000000E+00  0.89674580584E+03  0.11032541942E+04  0.64266381306E+03 0.  0.
         13    1    3    3    0    0 -0.30025008224E+03 -0.16293979225E+02  0.25385911984E+03  0.39352262752E+03  0.00000000000E+00 0. -1.
          4    1    3    3  501    0  0.30025008224E+03  0.16293979225E+02  0.64288668600E+03  0.70973156664E+03  0.00000000000E+00 0. -1.
<mgrwt>
<rscale>  0 0.64266381E+03</rscale>
<asrwt>0</asrwt>
<pdfrwt beam="1">0</pdfrwt>
<pdfrwt beam="2">  1        2 0.37547059E+00 0.64266381E+03</pdfrwt>
<totfact> 0.49149364E+00</totfact>
</mgrwt>
</event>
<event>
 5    1  0.2381755E-004  0.6469121E+03  0.7818608E-02  0.9812591E-01
         13   -1    0    0    0    0  0.00000000000E+00  0.00000000000E+00  0.10000000000E+04  0.10000000000E+04  0.00000000000E+00 0. -1.
          2   -1    0    0  501    0 -0.00000000000E+00 -0.00000000000E+00 -0.10462381979E+03  0.10462381979E+03  0.00000000000E+00 0. -1.
    9000006    2    1    2  501    0  0.00000000000E+00  0.00000000000E+00  0.89537618021E+03  0.11046238198E+04  0.64691211086E+03 0.  0.
         13    1    3    3    0    0  0.16931632299E+03  0.27399753102E+03  0.49837495331E+03  0.59339721799E+03  0.00000000000E+00 0. -1.
          2    1    3    3  501    0 -0.16931632299E+03 -0.27399753102E+03  0.39700122689E+03  0.51122660180E+03  0.00000000000E+00 0. -1.
<mgrwt>
<rscale>  0 0.64691211E+03</rscale>
<asrwt>0</asrwt>
<pdfrwt beam="1">0</pdfrwt>
<pdfrwt beam="2">  1        2 0.38045106E+00 0.64691211E+03</pdfrwt>
<totfact> 0.47100768E+00</totfact>
</mgrwt>
</event>
<event>
 5    1  0.2381755E-004  0.6343535E+03  0.7818608E-02  0.9836590E-01
         13   -1    0    0    0    0  0.00000000000E+00  0.00000000000E+00  0.10000000000E+04  0.10000000000E+04  0.00000000000E+00 0. -1.
          2   -1    0    0  501    0 -0.00000000000E+00 -0.00000000000E+00 -0.10060109148E+03  0.10060109148E+03  0.00000000000E+00 0. -1.
    9000006    2    1    2  501    0  0.00000000000E+00  0.00000000000E+00  0.89939890852E+03  0.11006010915E+04  0.63435350232E+03 0.  0.
         13    1    3    3    0    0  0.25654531842E+03 -0.17315620148E+03  0.32946381081E+03  0.45204532200E+03  0.00000000000E+00 0. -1.
          2    1    3    3  501    0 -0.25654531842E+03  0.17315620148E+03  0.56993509772E+03  0.64855576948E+03  0.00000000000E+00 0. -1.
<mgrwt>
<rscale>  0 0.63435350E+03</rscale>
<asrwt>0</asrwt>
<pdfrwt beam="1">0</pdfrwt>
<pdfrwt beam="2">  1        2 0.36582292E+00 0.63435350E+03</pdfrwt>
<totfact> 0.53351499E+00</totfact>
</mgrwt>
</event>
<event>
 5    1  0.2381755E-004  0.6533916E+03  0.7818608E-02  0.9800436E-01
         13   -1    0    0    0    0  0.00000000000E+00  0.00000000000E+00  0.10000000000E+04  0.10000000000E+04  0.00000000000E+00 0. -1.
          2   -1    0    0  501    0 -0.00000000000E+00 -0.00000000000E+00 -0.10673013154E+03  0.10673013154E+03  0.00000000000E+00 0. -1.
    9000006    2    1    2  501    0  0.00000000000E+00  0.00000000000E+00  0.89326986846E+03  0.11067301315E+04  0.65339155656E+03 0.  0.
         13    1    3    3    0    0  0.66797242613E+02  0.20413823461E+03  0.86359035567E+03  0.88990032748E+03  0.00000000000E+00 0. -1.
          4    1    3    3  501    0 -0.66797242613E+02 -0.20413823461E+03  0.29679512787E+02  0.21682980406E+03  0.00000000000E+00 0. -1.
<mgrwt>
<rscale>  0 0.65339156E+03</rscale>
<asrwt>0</asrwt>
<pdfrwt beam="1">0</pdfrwt>
<pdfrwt beam="2">  1        2 0.38811039E+00 0.65339156E+03</pdfrwt>
<totfact> 0.44101420E+00</totfact>
</mgrwt>
</event>
<event>
 5    1  0.2381755E-004  0.6503528E+03  0.7818608E-02  0.9806117E-01
         13   -1    0    0    0    0  0.00000000000E+00  0.00000000000E+00  0.10000000000E+04  0.10000000000E+04  0.00000000000E+00 0. -1.
          2   -1    0    0  501    0 -0.00000000000E+00 -0.00000000000E+00 -0.10573967899E+03  0.10573967899E+03  0.00000000000E+00 0. -1.
    9000006    2    1    2  501    0  0.00000000000E+00  0.00000000000E+00  0.89426032101E+03  0.11057396790E+04  0.65035276272E+03 0.  0.
         13    1    3    3    0    0 -0.36981389266E+02  0.11368507008E+03 -0.67020552572E+02  0.13705353982E+03  0.00000000000E+00 0. -1.
          2    1    3    3  501    0  0.36981389266E+02 -0.11368507008E+03  0.96128087358E+03  0.96868613917E+03  0.00000000000E+00 0. -1.
<mgrwt>
<rscale>  0 0.65035276E+03</rscale>
<asrwt>0</asrwt>
<pdfrwt beam="1">0</pdfrwt>
<pdfrwt beam="2">  1        2 0.38450873E+00 0.65035276E+03</pdfrwt>
<totfact> 0.45489520E+00</totfact>
</mgrwt>
</event>
<event>
 5    1  0.2381755E-004  0.5984264E+03  0.7818608E-02  0.9908676E-01
         13   -1    0    0    0    0  0.00000000000E+00  0.00000000000E+00  0.10000000000E+04  0.10000000000E+04  0.00000000000E+00 0. -1.
          2   -1    0    0  501    0 -0.00000000000E+00 -0.00000000000E+00 -0.89528535058E+02  0.89528535058E+02  0.00000000000E+00 0. -1.
    9000006    2    1    2  501    0  0.00000000000E+00  0.00000000000E+00  0.91047146494E+03  0.10895285351E+04  0.59842638665E+03 0.  0.
         13    1    3    3    0    0  0.20624454832E+03  0.14190382358E+03  0.75359577777E+03  0.79409074112E+03  0.00000000000E+00 0. -1.
          4    1    3    3  501    0 -0.20624454832E+03 -0.14190382358E+03  0.15687568717E+03  0.29543779394E+03  0.00000000000E+00 0. -1.
<mgrwt>
<rscale>  0 0.59842639E+03</rscale>
<asrwt>0</asrwt>
<pdfrwt beam="1">0</pdfrwt>
<pdfrwt beam="2">  1        2 0.32555900E+00 0.59842639E+03</pdfrwt>
<totfact> 0.74748629E+00</totfact>
</mgrwt>
</event>
<event>
 5    1  0.2381755E-004  0.6634721E+03  0.7818608E-02  0.9781823E-01
         13   -1    0    0    0    0  0.00000000000E+00  0.00000000000E+00  0.10000000000E+04  0.10000000000E+04  0.00000000000E+00 0. -1.
          2   -1    0    0  501    0 -0.00000000000E+00 -0.00000000000E+00 -0.11004880666E+03  0.11004880666E+03  0.00000000000E+00 0. -1.
    9000006    2    1    2  501    0  0.00000000000E+00  0.00000000000E+00  0.88995119334E+03  0.11100488067E+04  0.66347209938E+03 0.  0.
         13    1    3    3    0    0 -0.15192227385E+03 -0.51870789192E+02  0.93068457928E+03  0.94442826206E+03  0.00000000000E+00 0. -1.
          2    1    3    3  501    0  0.15192227385E+03  0.51870789192E+02 -0.40733385948E+02  0.16562054460E+03  0.00000000000E+00 0. -1.
<mgrwt>
<rscale>  0 0.66347210E+03</rscale>
<asrwt>0</asrwt>
<pdfrwt beam="1">0</pdfrwt>
<pdfrwt beam="2">  1        2 0.40017832E+00 0.66347210E+03</pdfrwt>
<totfact> 0.39724856E+00</totfact>
</mgrwt>
</event>
<event>
 5    1  0.2381755E-004  0.6652067E+03  0.7818608E-02  0.9778656E-01
         13   -1    0    0    0    0  0.00000000000E+00  0.00000000000E+00  0.10000000000E+04  0.10000000000E+04  0.00000000000E+00 0. -1.
          2   -1    0    0  501    0 -0.00000000000E+00 -0.00000000000E+00 -0.11062499150E+03  0.11062499150E+03  0.00000000000E+00 0. -1.
    9000006    2    1    2  501    0  0.00000000000E+00  0.00000000000E+00  0.88937500850E+03  0.11106249915E+04  0.66520670923E+03 0.  0.
         13    1    3    3    0    0 -0.84368120415E+01 -0.27778776511E+03  0.74976103102E+03  0.79961167193E+03  0.00000000000E+00 0. -1.
          2    1    3    3  501    0  0.84368120415E+01  0.27778776511E+03  0.13961397748E+03  0.31101331957E+03  0.00000000000E+00 0. -1.
<mgrwt>
<rscale>  0 0.66520671E+03</rscale>
<asrwt>0</asrwt>
<pdfrwt beam="1">0</pdfrwt>
<pdfrwt beam="2">  1        2 0.40227354E+00 0.66520671E+03</pdfrwt>
<totfact> 0.39006177E+00</totfact>
</mgrwt>
</event>
<event>
 5    1  0.2381755E-004  0.6478850E+03  0.7818608E-02  0.9810756E-01
         13   -1    0    0    0    0  0.00000000000E+00  0.00000000000E+00  0.10000000000E+04  0.10000000000E+04  0.00000000000E+00 0. -1.
          2   -1    0    0  501    0 -0.00000000000E+00 -0.00000000000E+00 -0.10493874991E+03  0.10493874991E+03  0.00000000000E+00 0. -1.
    9000006    2    1    2  501    0  0.00000000000E+00  0.00000000000E+00  0.89506125009E+03  0.11049387499E+04  0.64788502039E+03 0.  0.
         13    1    3    3    0    0 -0.15784246348E+03  0.57442656790E+02  0.91992887867E+03  0.93513798122E+03  0.00000000000E+00 0. -1.
          4    1    3    3  501    0  0.15784246348E+03 -0.57442656790E+02 -0.24867628585E+02  0.16980076869E+03  0.00000000000E+00 0. -1.
<mgrwt>
<rscale>  0 0.64788502E+03</rscale>
<asrwt>0</asrwt>
<pdfrwt beam="1">0</pdfrwt>
<pdfrwt beam="2">  1        2 0.38159626E+00 0.64788502E+03</pdfrwt>
<totfact> 0.46640852E+00</totfact>
</mgrwt>
</event>
<event>
 5    1  0.2381755E-004  0.6353575E+03  0.7818608E-02  0.9834649E-01
         13   -1    0    0    0    0  0.00000000000E+00  0.00000000000E+00  0.10000000000E+04  0.10000000000E+04  0.00000000000E+00 0. -1.
          2   -1    0    0  501    0 -0.00000000000E+00 -0.00000000000E+00 -0.10091979099E+03  0.10091979099E+03  0.00000000000E+00 0. -1.
    9000006    2    1    2  501    0  0.00000000000E+00  0.00000000000E+00  0.89908020901E+03  0.11009197910E+04  0.63535750877E+03 0.  0.
         13    1    3    3    0    0  0.27184490207E+03  0.77295738934E+02  0.70091229437E+03  0.75574620505E+03  0.00000000000E+00 0. -1.
          4    1    3    3  501    0 -0.27184490207E+03 -0.77295738934E+02  0.19816791464E+03  0.34517358594E+03  0.00000000000E+00 0. -1.
<mgrwt>
<rscale>  0 0.63535751E+03</rscale>
<asrwt>0</asrwt>
<pdfrwt beam="1">0</pdfrwt>
<pdfrwt beam="2">  1        2 0.36698183E+00 0.63535751E+03</pdfrwt>
<totfact> 0.52829875E+00</totfact>
</mgrwt>
</event>
<event>
 5    1  0.2381755E-004  0.6159365E+03  0.7818608E-02  0.9872884E-01
         13   -1    0    0    0    0  0.00000000000E+00  0.00000000000E+00  0.10000000000E+04  0.10000000000E+04  0.00000000000E+00 0. -1.
          2   -1    0    0  501    0 -0.00000000000E+00 -0.00000000000E+00 -0.94844453738E+02  0.94844453738E+02  0.00000000000E+00 0. -1.
    9000006    2    1    2  501    0  0.00000000000E+00  0.00000000000E+00  0.90515554626E+03  0.10948444537E+04  0.61593653484E+03 0.  0.
         13    1    3    3    0    0 -0.27100678633E+03 -0.64121791421E+02  0.21886040527E+03  0.35419790988E+03  0.00000000000E+00 0. -1.
          2    1    3    3  501    0  0.27100678633E+03  0.64121791421E+02  0.68629514099E+03  0.74064654385E+03  0.00000000000E+00 0. -1.
<mgrwt>
<rscale>  0 0.61593653E+03</rscale>
<asrwt>0</asrwt>
<pdfrwt beam="1">0</pdfrwt>
<pdfrwt beam="2">  1        2 0.34488965E+00 0.61593653E+03</pdfrwt>
<totfact> 0.63633395E+00</totfact>
</mgrwt>
</event>
<event>
 5    1  0.2381755E-004  0.6243535E+03  0.7818608E-02  0.9856130E-01
         13   -1    0    0    0    0  0.00000000000E+00  0.00000000000E+00  0.10000000000E+04  0.10000000000E+04  0.00000000000E+00 0. -1.
          2   -1    0    0  501    0 -0.00000000000E+00 -0.00000000000E+00 -0.97454315875E+02  0.97454315875E+02  0.00000000000E+00 0. -1.
    9000006    2    1    2  501    0  0.00000000000E+00  0.00000000000E+00  0.90254568413E+03  0.10974543159E+04  0.62435347641E+03 0.  0.
         13    1    3    3    0    0 -0.62734835293E+02 -0.13380664888E+03 -0.32073323991E+02  0.15122359920E+03  0.00000000000E+00 0. -1.
          2    1    3    3  501    0  0.62734835293E+02  0.13380664888E+03  0.93461900812E+03  0.94623071667E+03  0.00000000000E+00 0. -1.
<mgrwt>
<rscale>  0 0.62435348E+03</rscale>
<asrwt>0</asrwt>
<pdfrwt beam="1">0</pdfrwt>
<pdfrwt beam="2">  1        2 0.35438008E+00 0.62435348E+03</pdfrwt>
<totfact> 0.58763130E+00</totfact>
</mgrwt>
</event>
<event>
 5    1  0.2381755E-004  0.6165074E+03  0.7818608E-02  0.9871738E-01
         13   -1    0    0    0    0  0.00000000000E+00  0.00000000000E+00  0.10000000000E+04  0.10000000000E+04  0.00000000000E+00 0. -1.
          2   -1    0    0  501    0 -0.00000000000E+00 -0.00000000000E+00 -0.95020353016E+02  0.95020353016E+02  0.00000000000E+00 0. -1.
    9000006    2    1    2  501    0  0.00000000000E+00  0.00000000000E+00  0.90497964698E+03  0.10950203530E+04  0.61650743067E+03 0.  0.
         13    1    3    3    0    0  0.20249269374E+03  0.22954171250E+03  0.38777138927E+03  0.49402362204E+03  0.00000000000E+00 0. -1.
          4    1    3    3  501    0 -0.20249269374E+03 -0.22954171250E+03  0.51720825771E+03  0.60099673098E+03  0.00000000000E+00 0. -1.
<mgrwt>
<rscale>  0 0.61650743E+03</rscale>
<asrwt>0</asrwt>
<pdfrwt beam="1">0</pdfrwt>
<pdfrwt beam="2">  1        2 0.34552929E+00 0.61650743E+03</pdfrwt>
<totfact> 0.63293670E+00</totfact>
</mgrwt>
</event>
<event>
 5    1  0.2381755E-004  0.6489897E+03  0.7818608E-02  0.9808677E-01
         13   -1    0    0    0    0  0.00000000000E+00  0.00000000000E+00  0.10000000000E+04  0.10000000000E+04  0.00000000000E+00 0. -1.
          2   -1    0    0  501    0 -0.00000000000E+00 -0.00000000000E+00 -0.10529690611E+03  0.10529690611E+03  0.00000000000E+00 0. -1.
    9000006    2    1    2  501    0  0.00000000000E+00  0.00000000000E+00  0.89470309389E+03  0.11052969061E+04  0.64898969518E+03 0.  0.
         13    1    3    3    0    0  0.19580529992E+03 -0.18915653777E+03  0.74806875388E+03  0.79606957723E+03  0.00000000000E+00 0. -1.
          4    1    3    3  501    0 -0.19580529992E+03  0.18915653777E+03  0.14663434000E+03  0.30922732888E+03  0.00000000000E+00 0. -1.
<mgrwt>
<rscale>  0 0.64898970E+03</rscale>
<asrwt>0</asrwt>
<pdfrwt beam="1">0</pdfrwt>
<pdfrwt beam="2">  1        2 0.38289865E+00 0.64898970E+03</pdfrwt>
<totfact> 0.46122773E+00</totfact>
</mgrwt>
</event>
<event>
 5    1  0.2381755E-004  0.6501651E+03  0.7818608E-02  0.9806469E-01
         13   -1    0    0    0    0  0.00000000000E+00  0.00000000000E+00  0.10000000000E+04  0.10000000000E+04  0.00000000000E+00 0. -1.
          2   -1    0    0  501    0 -0.00000000000E+00 -0.00000000000E+00 -0.10567867524E+03  0.10567867524E+03  0.00000000000E+00 0. -1.
    9000006    2    1    2  501    0  0.00000000000E+00  0.00000000000E+00  0.89432132476E+03  0.11056786752E+04  0.65016513360E+03 0.  0.
         13    1    3    3    0    0  0.28123047330E+03  0.13487897634E+02  0.72350971988E+03  0.77636255529E+03  0.00000000000E+00 0. -1.
          4    1    3    3  501    0 -0.28123047330E+03 -0.13487897634E+02  0.17081160488E+03  0.32931611995E+03  0.00000000000E+00 0. -1.
<mgrwt>
<rscale>  0 0.65016513E+03</rscale>
<asrwt>0</asrwt>
<pdfrwt beam="1">0</pdfrwt>
<pdfrwt beam="2">  1        2 0.38428690E+00 0.65016513E+03</pdfrwt>
<totfact> 0.45576297E+00</totfact>
</mgrwt>
</event>
<event>
 5    1  0.2381755E-004  0.6559382E+03  0.7818608E-02  0.9795700E-01
         13   -1    0    0    0    0  0.00000000000E+00  0.00000000000E+00  0.10000000000E+04  0.10000000000E+04  0.00000000000E+00 0. -1.
          2   -1    0    0  501    0 -0.00000000000E+00 -0.00000000000E+00 -0.10756374153E+03  0.10756374153E+03  0.00000000000E+00 0. -1.
    9000006    2    1    2  501    0  0.00000000000E+00  0.00000000000E+00  0.89243625847E+03  0.11075637415E+04  0.65593823348E+03 0.  0.
         13    1    3    3    0    0 -0.15873747038E+03 -0.28698094762E+03  0.44141467765E+03  0.54991141691E+03  0.00000000000E+00 0. -1.
          2    1    3    3  501    0  0.15873747038E+03  0.28698094762E+03  0.45102158082E+03  0.55765232463E+03  0.00000000000E+00 0. -1.
<mgrwt>
<rscale>  0 0.65593823E+03</rscale>
<asrwt>0</asrwt>
<pdfrwt beam="1">0</pdfrwt>
<pdfrwt beam="2">  1        2 0.39114170E+00 0.65593823E+03</pdfrwt>
<totfact> 0.42962966E+00</totfact>
</mgrwt>
</event>
<event>
 5    1  0.2381755E-004  0.6496345E+03  0.7818608E-02  0.9807465E-01
         13   -1    0    0    0    0  0.00000000000E+00  0.00000000000E+00  0.10000000000E+04  0.10000000000E+04  0.00000000000E+00 0. -1.
          2   -1    0    0  501    0 -0.00000000000E+00 -0.00000000000E+00 -0.10550624672E+03  0.10550624672E+03  0.00000000000E+00 0. -1.
    9000006    2    1    2  501    0  0.00000000000E+00  0.00000000000E+00  0.89449375328E+03  0.11055062467E+04  0.64963450253E+03 0.  0.
         13    1    3    3    0    0 -0.58279957827E+02  0.17995809569E+03 -0.21040953725E+01  0.18917160703E+03  0.00000000000E+00 0. -1.
          2    1    3    3  501    0  0.58279957827E+02 -0.17995809569E+03  0.89659784865E+03  0.91633463969E+03  0.00000000000E+00 0. -1.
<mgrwt>
<rscale>  0 0.64963450E+03</rscale>
<asrwt>0</asrwt>
<pdfrwt beam="1">0</pdfrwt>
<pdfrwt beam="2">  1        2 0.38365989E+00 0.64963450E+03</pdfrwt>
<totfact> 0.45822384E+00</totfact>
</mgrwt>
</event>
<event>
 5    1  0.2381755E-004  0.6500717E+03  0.7818608E-02  0.9806645E-01
         13   -1    0    0    0    0  0.00000000000E+00  0.00000000000E+00  0.10000000000E+04  0.10000000000E+04  0.00000000000E+00 0. -1.
          2   -1    0    0  501    0 -0.00000000000E+00 -0.00000000000E+00 -0.10564831671E+03  0.10564831671E+03  0.00000000000E+00 0. -1.
    9000006    2    1    2  501    0  0.00000000000E+00  0.00000000000E+00  0.89435168329E+03  0.11056483167E+04  0.65007173976E+03 0.  0.
         13    1    3    3    0    0 -0.31355368212E+03 -0.85544708195E+02  0.45365412637E+03  0.55806440045E+03  0.00000000000E+00 0. -1.
          4    1    3    3  501    0  0.31355368212E+03  0.85544708195E+02  0.44069755692E+03  0.54758391626E+03  0.00000000000E+00 0. -1.
<mgrwt>
<rscale>  0 0.65007174E+03</rscale>
<asrwt>0</asrwt>
<pdfrwt beam="1">0</pdfrwt>
<pdfrwt beam="2">  1        2 0.38417651E+00 0.65007174E+03</pdfrwt>
<totfact> 0.45619537E+00</totfact>
</mgrwt>
</event>
<event>
 5    1  0.2381755E-004  0.6511617E+03  0.7818608E-02  0.9804602E-01
         13   -1    0    0    0    0  0.00000000000E+00  0.00000000000E+00  0.10000000000E+04  0.10000000000E+04  0.00000000000E+00 0. -1.
          2   -1    0    0  501    0 -0.00000000000E+00 -0.00000000000E+00 -0.10600289872E+03  0.10600289872E+03  0.00000000000E+00 0. -1.
    9000006    2    1    2  501    0  0.00000000000E+00  0.00000000000E+00  0.89399710128E+03  0.11060028987E+04  0.65116172713E+03 0.  0.
         13    1    3    3    0    0  0.28230575071E+03  0.34070654093E+02  0.71633677264E+03  0.77071117689E+03  0.00000000000E+00 0. -1.
          2    1    3    3  501    0 -0.28230575071E+03 -0.34070654093E+02  0.17766032864E+03  0.33529172183E+03  0.00000000000E+00 0. -1.
<mgrwt>
<rscale>  0 0.65116173E+03</rscale>
<asrwt>0</asrwt>
<pdfrwt beam="1">0</pdfrwt>
<pdfrwt beam="2">  1        2 0.38546590E+00 0.65116173E+03</pdfrwt>
<totfact> 0.45116813E+00</totfact>
</mgrwt>
</event>
<event>
 5    1  0.2381755E-004  0.6538062E+03  0.7818608E-02  0.9799663E-01
         13   -1    0    0    0    0  0.00000000000E+00  0.00000000000E+00  0.10000000000E+04  0.10000000000E+04  0.00000000000E+00 0. -1.
          2   -1    0    0  501    0 -0.00000000000E+00 -0.00000000000E+00 -0.10686563011E+03  0.10686563011E+03  0.00000000000E+00 0. -1.
    9000006    2    1    2  501    0  0.00000000000E+00  0.00000000000E+00  0.89313436989E+03  0.11068656301E+04  0.65380617957E+03 0.  0.
         13    1    3    3    0    0 -0.30914075520E+03  0.10619099500E+03  0.43879133860E+03  0.54715845308E+03  0.00000000000E+00 0. -1.
          4    1    3    3  501    0  0.30914075520E+03 -0.10619099500E+03  0.45434303129E+03  0.55970717703E+03  0.00000000000E+00 0. -1.
<mgrwt>
<rscale>  0 0.65380618E+03</rscale>
<asrwt>0</asrwt>
<pdfrwt beam="1">0</pdfrwt>
<pdfrwt beam="2">  1        2 0.38860311E+00 0.65380618E+03</pdfrwt>
<totfact> 0.43914534E+00</totfact>
</mgrwt>
</event>
<event>
 5    1  0.2381755E-004  0.6480241E+03  0.7818608E-02  0.9810494E-01
         13   -1    0    0    0    0  0.00000000000E+00  0.00000000000E+00  0.10000000000E+04  0.10000000000E+04  0.00000000000E+00 0. -1.
          2   -1    0    0  501    0 -0.00000000000E+00 -0.00000000000E+00 -0.10498379696E+03  0.10498379696E+03  0.00000000000E+00 0. -1.
    9000006    2    1    2  501    0  0.00000000000E+00  0.00000000000E+00  0.89501620304E+03  0.11049837970E+04  0.64802406424E+03 0.  0.
         13    1    3    3    0    0  0.30652377822E+03  0.83116112404E+02  0.55693999597E+03  0.64112968569E+03  0.00000000000E+00 0. -1.
          4    1    3    3  501    0 -0.30652377822E+03 -0.83116112404E+02  0.33807620707E+03  0.46385411127E+03  0.00000000000E+00 0. -1.
<mgrwt>
<rscale>  0 0.64802406E+03</rscale>
<asrwt>0</asrwt>
<pdfrwt beam="1">0</pdfrwt>
<pdfrwt beam="2">  1        2 0.38176007E+00 0.64802406E+03</pdfrwt>
<totfact> 0.46575401E+00</totfact>
</mgrwt>
</event>
<event>
 5    1  0.2381755E-004  0.6499177E+03  0.7818608E-02  0.9806934E-01
         13   -1    0    0    0    0  0.00000000000E+00  0.00000000000E+00  0.10000000000E+04  0.10000000000E+04  0.00000000000E+00 0. -1.
          2   -1    0    0  501    0 -0.00000000000E+00 -0.00000000000E+00 -0.10559826928E+03  0.10559826928E+03  0.00000000000E+00 0. -1.
    9000006    2    1    2  501    0  0.00000000000E+00  0.00000000000E+00  0.89440173072E+03  0.11055982693E+04  0.64991774641E+03 0.  0.
         13    1    3    3    0    0 -0.51839657401E+02 -0.19708384273E+03  0.16612278700E+02  0.20446358832E+03  0.00000000000E+00 0. -1.
          2    1    3    3  501    0  0.51839657401E+02  0.19708384273E+03  0.87778945202E+03  0.90113468096E+03  0.00000000000E+00 0. -1.
<mgrwt>
<rscale>  0 0.64991775E+03</rscale>
<asrwt>0</asrwt>
<pdfrwt beam="1">0</pdfrwt>
<pdfrwt beam="2">  1        2 0.38399452E+00 0.64991775E+03</pdfrwt>
<totfact> 0.45690901E+00</totfact>
</mgrwt>
</event>
<event>
 5    1  0.2381755E-004  0.6484451E+03  0.7818608E-02  0.9809701E-01
         13   -1    0    0    0    0  0.00000000000E+00  0.00000000000E+00  0.10000000000E+04  0.10000000000E+04  0.00000000000E+00 0. -1.
          2   -1    0    0  501    0 -0.00000000000E+00 -0.00000000000E+00 -0.10512025584E+03  0.10512025584E+03  0.00000000000E+00 0. -1.
    9000006    2    1    2  501    0  0.00000000000E+00  0.00000000000E+00  0.89487974416E+03  0.11051202558E+04  0.64844508121E+03 0.  0.
         13    1    3    3    0    0  0.23120019611E+03  0.15808281275E+03  0.16908350098E+03  0.32715888598E+03  0.00000000000E+00 0. -1.
          2    1    3    3  501    0 -0.23120019611E+03 -0.15808281275E+03  0.72579624318E+03  0.77796136986E+03  0.00000000000E+00 0. -1.
<mgrwt>
<rscale>  0 0.64844508E+03</rscale>
<asrwt>0</asrwt>
<pdfrwt beam="1">0</pdfrwt>
<pdfrwt beam="2">  1        2 0.38225628E+00 0.64844508E+03</pdfrwt>
<totfact> 0.46377644E+00</totfact>
</mgrwt>
</event>
<event>
 5    1  0.2381755E-004  0.6459530E+03  0.7818608E-02  0.9814403E-01
         13   -1    0    0    0    0  0.00000000000E+00  0.00000000000E+00  0.10000000000E+04  0.10000000000E+04  0.00000000000E+00 0. -1.
          2   -1    0    0  501    0 -0.00000000000E+00 -0.00000000000E+00 -0.10431380588E+03  0.10431380588E+03  0.00000000000E+00 0. -1.
    9000006    2    1    2  501    0  0.00000000000E+00  0.00000000000E+00  0.89568619412E+03  0.11043138059E+04  0.64595295767E+03 0.  0.
         13    1    3    3    0    0  0.17616981982E+03 -0.11701074183E+03  0.86515954347E+03  0.89063368159E+03  0.00000000000E+00 0. -1.
          4    1    3    3  501    0 -0.17616981982E+03  0.11701074183E+03  0.30526650649E+02  0.21368012429E+03  0.00000000000E+00 0. -1.
<mgrwt>
<rscale>  0 0.64595296E+03</rscale>
<asrwt>0</asrwt>
<pdfrwt beam="1">0</pdfrwt>
<pdfrwt beam="2">  1        2 0.37932373E+00 0.64595296E+03</pdfrwt>
<totfact> 0.47557530E+00</totfact>
</mgrwt>
</event>
<event>
 5    1  0.2381755E-004  0.6478029E+03  0.7818608E-02  0.9810911E-01
         13   -1    0    0    0    0  0.00000000000E+00  0.00000000000E+00  0.10000000000E+04  0.10000000000E+04  0.00000000000E+00 0. -1.
          2   -1    0    0  501    0 -0.00000000000E+00 -0.00000000000E+00 -0.10491214971E+03  0.10491214971E+03  0.00000000000E+00 0. -1.
    9000006    2    1    2  501    0  0.00000000000E+00  0.00000000000E+00  0.89508785029E+03  0.11049121497E+04  0.64780290123E+03 0.  0.
         13    1    3    3    0    0 -0.68767935644E+02 -0.31651453799E+03  0.44974675198E+03  0.55424058192E+03  0.00000000000E+00 0. -1.
          4    1    3    3  501    0  0.68767935644E+02  0.31651453799E+03  0.44534109831E+03  0.55067156779E+03  0.00000000000E+00 0. -1.
<mgrwt>
<rscale>  0 0.64780290E+03</rscale>
<asrwt>0</asrwt>
<pdfrwt beam="1">0</pdfrwt>
<pdfrwt beam="2">  1        2 0.38149953E+00 0.64780290E+03</pdfrwt>
<totfact> 0.46679540E+00</totfact>
</mgrwt>
</event>
<event>
 5    1  0.2381755E-004  0.6735879E+03  0.7818608E-02  0.9763498E-01
         13   -1    0    0    0    0  0.00000000000E+00  0.00000000000E+00  0.10000000000E+04  0.10000000000E+04  0.00000000000E+00 0. -1.
          2   -1    0    0  501    0 -0.00000000000E+00 -0.00000000000E+00 -0.11343016227E+03  0.11343016227E+03  0.00000000000E+00 0. -1.
    9000006    2    1    2  501    0  0.00000000000E+00  0.00000000000E+00  0.88656983773E+03  0.11134301623E+04  0.67358789260E+03 0.  0.
         13    1    3    3    0    0  0.16235971797E+02 -0.32562411212E+03  0.30365428660E+03  0.44553405587E+03  0.00000000000E+00 0. -1.
          4    1    3    3  501    0 -0.16235971797E+02  0.32562411212E+03  0.58291555114E+03  0.66789610639E+03  0.00000000000E+00 0. -1.
<mgrwt>
<rscale>  0 0.67358789E+03</rscale>
<asrwt>0</asrwt>
<pdfrwt beam="1">0</pdfrwt>
<pdfrwt beam="2">  1        2 0.41247419E+00 0.67358789E+03</pdfrwt>
<totfact> 0.35670790E+00</totfact>
</mgrwt>
</event>
<event>
 5    1  0.2381755E-004  0.6535754E+03  0.7818608E-02  0.9800093E-01
         13   -1    0    0    0    0  0.00000000000E+00  0.00000000000E+00  0.10000000000E+04  0.10000000000E+04  0.00000000000E+00 0. -1.
          2   -1    0    0  501    0 -0.00000000000E+00 -0.00000000000E+00 -0.10679021147E+03  0.10679021147E+03  0.00000000000E+00 0. -1.
    9000006    2    1    2  501    0  0.00000000000E+00  0.00000000000E+00  0.89320978853E+03  0.11067902115E+04  0.65357543244E+03 0.  0.
         13    1    3    3    0    0 -0.11030329963E+03 -0.88704542537E+02 -0.52183789197E+02  0.15085907871E+03  0.00000000000E+00 0. -1.
          2    1    3    3  501    0  0.11030329963E+03  0.88704542537E+02  0.94539357772E+03  0.95593113276E+03  0.00000000000E+00 0. -1.
<mgrwt>
<rscale>  0 0.65357543E+03</rscale>
<asrwt>0</asrwt>
<pdfrwt beam="1">0</pdfrwt>
<pdfrwt beam="2">  1        2 0.38832886E+00 0.65357543E+03</pdfrwt>
<totfact> 0.44018467E+00</totfact>
</mgrwt>
</event>
<event>
 5    1  0.2381755E-004  0.6747298E+03  0.7818608E-02  0.9761451E-01
         13   -1    0    0    0    0  0.00000000000E+00  0.00000000000E+00  0.10000000000E+04  0.10000000000E+04  0.00000000000E+00 0. -1.
          2   -1    0    0  501    0 -0.00000000000E+00 -0.00000000000E+00 -0.11381508924E+03  0.11381508924E+03  0.00000000000E+00 0. -1.
    9000006    2    1    2  501    0  0.00000000000E+00  0.00000000000E+00  0.88618491076E+03  0.11138150892E+04  0.67472983999E+03 0.  0.
         13    1    3    3    0    0  0.26950376311E+02  0.81274036103E+02  0.98176386501E+03  0.98549078046E+03  0.00000000000E+00 0. -1.
          4    1    3    3  501    0 -0.26950376311E+02 -0.81274036103E+02 -0.95578954254E+02  0.12832430878E+03  0.00000000000E+00 0. -1.
<mgrwt>
<rscale>  0 0.67472984E+03</rscale>
<asrwt>0</asrwt>
<pdfrwt beam="1">0</pdfrwt>
<pdfrwt beam="2">  1        2 0.41387392E+00 0.67472984E+03</pdfrwt>
<totfact> 0.35233599E+00</totfact>
</mgrwt>
</event>
<event>
 5    1  0.2381755E-004  0.6439484E+03  0.7818608E-02  0.9818201E-01
         13   -1    0    0    0    0  0.00000000000E+00  0.00000000000E+00  0.10000000000E+04  0.10000000000E+04  0.00000000000E+00 0. -1.
          2   -1    0    0  501    0 -0.00000000000E+00 -0.00000000000E+00 -0.10366739757E+03  0.10366739757E+03  0.00000000000E+00 0. -1.
    9000006    2    1    2  501    0  0.00000000000E+00  0.00000000000E+00  0.89633260243E+03  0.11036673976E+04  0.64394843761E+03 0.  0.
         13    1    3    3    0    0 -0.16650521645E+03  0.11907138698E+03  0.22215143798E+02  0.20590166322E+03  0.00000000000E+00 0. -1.
          4    1    3    3  501    0  0.16650521645E+03 -0.11907138698E+03  0.87411745863E+03  0.89776573435E+03  0.00000000000E+00 0. -1.
<mgrwt>
<rscale>  0 0.64394844E+03</rscale>
<asrwt>0</asrwt>
<pdfrwt beam="1">0</pdfrwt>
<pdfrwt beam="2">  1        2 0.37697315E+00 0.64394844E+03</pdfrwt>
<totfact> 0.48522925E+00</totfact>
</mgrwt>
</event>
<event>
 5    1  0.2381755E-004  0.6499273E+03  0.7818608E-02  0.9806916E-01
         13   -1    0    0    0    0  0.00000000000E+00  0.00000000000E+00  0.10000000000E+04  0.10000000000E+04  0.00000000000E+00 0. -1.
          2   -1    0    0  501    0 -0.00000000000E+00 -0.00000000000E+00 -0.10560138527E+03  0.10560138527E+03  0.00000000000E+00 0. -1.
    9000006    2    1    2  501    0  0.00000000000E+00  0.00000000000E+00  0.89439861473E+03  0.11056013853E+04  0.64992733523E+03 0.  0.
         13    1    3    3    0    0  0.10222242621E+03  0.80821779284E+02 -0.59207057701E+02  0.14313301544E+03  0.00000000000E+00 0. -1.
          4    1    3    3  501    0 -0.10222242621E+03 -0.80821779284E+02  0.95360567243E+03  0.96246836983E+03  0.00000000000E+00 0. -1.
<mgrwt>
<rscale>  0 0.64992734E+03</rscale>
<asrwt>0</asrwt>
<pdfrwt beam="1">0</pdfrwt>
<pdfrwt beam="2">  1        2 0.38400585E+00 0.64992734E+03</pdfrwt>
<totfact> 0.45686455E+00</totfact>
</mgrwt>
</event>
<event>
 5    1  0.2381755E-004  0.6532652E+03  0.7818608E-02  0.9800671E-01
         13   -1    0    0    0    0  0.00000000000E+00  0.00000000000E+00  0.10000000000E+04  0.10000000000E+04  0.00000000000E+00 0. -1.
          2   -1    0    0  501    0 -0.00000000000E+00 -0.00000000000E+00 -0.10668886870E+03  0.10668886870E+03  0.00000000000E+00 0. -1.
    9000006    2    1    2  501    0  0.00000000000E+00  0.00000000000E+00  0.89331113130E+03  0.11066888687E+04  0.65326524078E+03 0.  0.
         13    1    3    3    0    0 -0.16269898267E+03 -0.16919225473E+03  0.83144816693E+03  0.86394619758E+03  0.00000000000E+00 0. -1.
          4    1    3    3  501    0  0.16269898267E+03  0.16919225473E+03  0.61862964365E+02  0.24274267112E+03  0.00000000000E+00 0. -1.
<mgrwt>
<rscale>  0 0.65326524E+03</rscale>
<asrwt>0</asrwt>
<pdfrwt beam="1">0</pdfrwt>
<pdfrwt beam="2">  1        2 0.38796034E+00 0.65326524E+03</pdfrwt>
<totfact> 0.44158475E+00</totfact>
</mgrwt>
</event>
<event>
 5    1  0.2381755E-004  0.6680305E+03  0.7818608E-02  0.9773522E-01
         13   -1    0    0    0    0  0.00000000000E+00  0.00000000000E+00  0.10000000000E+04  0.10000000000E+04  0.00000000000E+00 0. -1.
          2   -1    0    0  501    0 -0.00000000000E+00 -0.00000000000E+00 -0.11156618609E+03  0.11156618609E+03  0.00000000000E+00 0. -1.
    9000006    2    1    2  501    0  0.00000000000E+00  0.00000000000E+00  0.88843381391E+03  0.11115661861E+04  0.66803049658E+03 0.  0.
         13    1    3    3    0    0  0.13463779954E+03 -0.24046692809E+03  0.75823342772E+03  0.80676490471E+03  0.00000000000E+00 0. -1.
          2    1    3    3  501    0 -0.13463779954E+03  0.24046692809E+03  0.13020038619E+03  0.30480128138E+03  0.00000000000E+00 0. -1.
<mgrwt>
<rscale>  0 0.66803050E+03</rscale>
<asrwt>0</asrwt>
<pdfrwt beam="1">0</pdfrwt>
<pdfrwt beam="2">  1        2 0.40569608E+00 0.66803050E+03</pdfrwt>
<totfact> 0.37857256E+00</totfact>
</mgrwt>
</event>
<event>
 5    1  0.2381755E-004  0.5961460E+03  0.7818608E-02  0.9913434E-01
         13   -1    0    0    0    0  0.00000000000E+00  0.00000000000E+00  0.10000000000E+04  0.10000000000E+04  0.00000000000E+00 0. -1.
          2   -1    0    0  501    0 -0.00000000000E+00 -0.00000000000E+00 -0.88847502776E+02  0.88847502776E+02  0.00000000000E+00 0. -1.
    9000006    2    1    2  501    0  0.00000000000E+00  0.00000000000E+00  0.91115249722E+03  0.10888475028E+04  0.59614596460E+03 0.  0.
         13    1    3    3    0    0  0.17512955483E+03  0.59929565489E+02  0.88230651938E+03  0.90151356503E+03  0.00000000000E+00 0. -1.
          2    1    3    3  501    0 -0.17512955483E+03 -0.59929565489E+02  0.28845977846E+02  0.18733393775E+03  0.00000000000E+00 0. -1.
<mgrwt>
<rscale>  0 0.59614596E+03</rscale>
<asrwt>0</asrwt>
<pdfrwt beam="1">0</pdfrwt>
<pdfrwt beam="2">  1        2 0.32308251E+00 0.59614596E+03</pdfrwt>
<totfact> 0.76298970E+00</totfact>
</mgrwt>
</event>
<event>
 5    1  0.2381755E-004  0.5716683E+03  0.7818608E-02  0.9965994E-01
         13   -1    0    0    0    0  0.00000000000E+00  0.00000000000E+00  0.10000000000E+04  0.10000000000E+04  0.00000000000E+00 0. -1.
          2   -1    0    0  501    0 -0.00000000000E+00 -0.00000000000E+00 -0.81701162950E+02  0.81701162950E+02  0.00000000000E+00 0. -1.
    9000006    2    1    2  501    0  0.00000000000E+00  0.00000000000E+00  0.91829883705E+03  0.10817011629E+04  0.57166830575E+03 0.  0.
         13    1    3    3    0    0  0.19751353068E+03 -0.18970176010E+03  0.30423506889E+03  0.40933767201E+03  0.00000000000E+00 0. -1.
          4    1    3    3  501    0 -0.19751353068E+03  0.18970176010E+03  0.61406376816E+03  0.67236349094E+03  0.00000000000E+00 0. -1.
<mgrwt>
<rscale>  0 0.57166831E+03</rscale>
<asrwt>0</asrwt>
<pdfrwt beam="1">0</pdfrwt>
<pdfrwt beam="2">  1        2 0.29709576E+00 0.57166831E+03</pdfrwt>
<totfact> 0.94562858E+00</totfact>
</mgrwt>
</event>
<event>
 5    1  0.2381755E-004  0.6509129E+03  0.7818608E-02  0.9805068E-01
         13   -1    0    0    0    0  0.00000000000E+00  0.00000000000E+00  0.10000000000E+04  0.10000000000E+04  0.00000000000E+00 0. -1.
          2   -1    0    0  501    0 -0.00000000000E+00 -0.00000000000E+00 -0.10592190152E+03  0.10592190152E+03  0.00000000000E+00 0. -1.
    9000006    2    1    2  501    0  0.00000000000E+00  0.00000000000E+00  0.89407809848E+03  0.11059219015E+04  0.65091290207E+03 0.  0.
         13    1    3    3    0    0 -0.32197514747E+03 -0.47279744082E+02  0.45435312667E+03  0.55887398714E+03  0.00000000000E+00 0. -1.
          2    1    3    3  501    0  0.32197514747E+03  0.47279744082E+02  0.43972497181E+03  0.54704791438E+03  0.00000000000E+00 0. -1.
<mgrwt>
<rscale>  0 0.65091290E+03</rscale>
<asrwt>0</asrwt>
<pdfrwt beam="1">0</pdfrwt>
<pdfrwt beam="2">  1        2 0.38517136E+00 0.65091290E+03</pdfrwt>
<totfact> 0.45231205E+00</totfact>
</mgrwt>
</event>
<event>
 5    1  0.2381755E-004  0.6199980E+03  0.7818608E-02  0.9864764E-01
         13   -1    0    0    0    0  0.00000000000E+00  0.00000000000E+00  0.10000000000E+04  0.10000000000E+04  0.00000000000E+00 0. -1.
          2   -1    0    0  501    0 -0.00000000000E+00 -0.00000000000E+00 -0.96099378017E+02  0.96099378017E+02  0.00000000000E+00 0. -1.
    9000006    2    1    2  501    0  0.00000000000E+00  0.00000000000E+00  0.90390062198E+03  0.10960993780E+04  0.61999799360E+03 0.  0.
         13    1    3    3    0    0 -0.92267099432E+02  0.20713272013E+03  0.82565358693E+03  0.85622486941E+03  0.00000000000E+00 0. -1.
          2    1    3    3  501    0  0.92267099432E+02 -0.20713272013E+03  0.78247035051E+02  0.23987450861E+03  0.00000000000E+00 0. -1.
<mgrwt>
<rscale>  0 0.61999799E+03</rscale>
<asrwt>0</asrwt>
<pdfrwt beam="1">0</pdfrwt>
<pdfrwt beam="2">  1        2 0.34945302E+00 0.61999799E+03</pdfrwt>
<totfact> 0.61246473E+00</totfact>
</mgrwt>
</event>
<event>
 5    1  0.2381755E-004  0.6456556E+03  0.7818608E-02  0.9814966E-01
         13   -1    0    0    0    0  0.00000000000E+00  0.00000000000E+00  0.10000000000E+04  0.10000000000E+04  0.00000000000E+00 0. -1.
          2   -1    0    0  501    0 -0.00000000000E+00 -0.00000000000E+00 -0.10421777430E+03  0.10421777430E+03  0.00000000000E+00 0. -1.
    9000006    2    1    2  501    0  0.00000000000E+00  0.00000000000E+00  0.89578222570E+03  0.11042177743E+04  0.64565555615E+03 0.  0.
         13    1    3    3    0    0 -0.32305959202E+01  0.18627811624E+03 -0.29988994324E+01  0.18633026254E+03  0.00000000000E+00 0. -1.
          4    1    3    3  501    0  0.32305959202E+01 -0.18627811624E+03  0.89878112514E+03  0.91788751176E+03  0.00000000000E+00 0. -1.
<mgrwt>
<rscale>  0 0.64565556E+03</rscale>
<asrwt>0</asrwt>
<pdfrwt beam="1">0</pdfrwt>
<pdfrwt beam="2">  1        2 0.37897452E+00 0.64565556E+03</pdfrwt>
<totfact> 0.47699835E+00</totfact>
</mgrwt>
</event>
<event>
 5    1  0.2381755E-004  0.6496141E+03  0.7818608E-02  0.9807504E-01
         13   -1    0    0    0    0  0.00000000000E+00  0.00000000000E+00  0.10000000000E+04  0.10000000000E+04  0.00000000000E+00 0. -1.
          2   -1    0    0  501    0 -0.00000000000E+00 -0.00000000000E+00 -0.10549961675E+03  0.10549961675E+03  0.00000000000E+00 0. -1.
    9000006    2    1    2  501    0  0.00000000000E+00  0.00000000000E+00  0.89450038325E+03  0.11054996168E+04  0.64961409083E+03 0.  0.
         13    1    3    3    0    0 -0.28780864510E+03  0.67027339543E+02  0.21783715061E+03  0.36712328260E+03  0.00000000000E+00 0. -1.
          2    1    3    3  501    0  0.28780864510E+03 -0.67027339543E+02  0.67666323263E+03  0.73837633415E+03  0.00000000000E+00 0. -1.
<mgrwt>
<rscale>  0 0.64961409E+03</rscale>
<asrwt>0</asrwt>
<pdfrwt beam="1">0</pdfrwt>
<pdfrwt beam="2">  1        2 0.38363578E+00 0.64961409E+03</pdfrwt>
<totfact> 0.45831871E+00</totfact>
</mgrwt>
</event>
<event>
 5    1  0.2381755E-004  0.5870797E+03  0.7818608E-02  0.9932580E-01
         13   -1    0    0    0    0  0.00000000000E+00  0.00000000000E+00  0.10000000000E+04  0.10000000000E+04  0.00000000000E+00 0. -1.
          2   -1    0    0  501    0 -0.00000000000E+00 -0.00000000000E+00 -0.86165651704E+02  0.86165651704E+02  0.00000000000E+00 0. -1.
    9000006    2    1    2  501    0  0.00000000000E+00  0.00000000000E+00  0.91383434830E+03  0.10861656517E+04  0.58707972782E+03 0.  0.
         13    1    3    3    0    0 -0.20483956634E+03  0.92190577807E+02  0.80652206016E+03  0.83721931660E+03  0.00000000000E+00 0. -1.
          4    1    3    3  501    0  0.20483956634E+03 -0.92190577807E+02  0.10731228814E+03  0.24894633510E+03  0.00000000000E+00 0. -1.
<mgrwt>
<rscale>  0 0.58707973E+03</rscale>
<asrwt>0</asrwt>
<pdfrwt beam="1">0</pdfrwt>
<pdfrwt beam="2">  1        2 0.31333030E+00 0.58707973E+03</pdfrwt>
<totfact> 0.82712731E+00</totfact>
</mgrwt>
</event>
<event>
 5    1  0.2381755E-004  0.6045990E+03  0.7818608E-02  0.9895910E-01
         13   -1    0    0    0    0  0.00000000000E+00  0.00000000000E+00  0.10000000000E+04  0.10000000000E+04  0.00000000000E+00 0. -1.
          2   -1    0    0  501    0 -0.00000000000E+00 -0.00000000000E+00 -0.91384984860E+02  0.91384984860E+02  0.00000000000E+00 0. -1.
    9000006    2    1    2  501    0  0.00000000000E+00  0.00000000000E+00  0.90861501514E+03  0.10913849849E+04  0.60459899060E+03 0.  0.
         13    1    3    3    0    0 -0.22516577566E+02  0.28989465021E+03  0.30502483192E+03  0.42140960190E+03  0.00000000000E+00 0. -1.
          4    1    3    3  501    0  0.22516577566E+02 -0.28989465021E+03  0.60359018322E+03  0.66997538296E+03  0.00000000000E+00 0. -1.
<mgrwt>
<rscale>  0 0.60459899E+03</rscale>
<asrwt>0</asrwt>
<pdfrwt beam="1">0</pdfrwt>
<pdfrwt beam="2">  1        2 0.33230974E+00 0.60459899E+03</pdfrwt>
<totfact> 0.70673436E+00</totfact>
</mgrwt>
</event>
<event>
 5    1  0.2381755E-004  0.6484481E+03  0.7818608E-02  0.9809696E-01
         13   -1    0    0    0    0  0.00000000000E+00  0.00000000000E+00  0.10000000000E+04  0.10000000000E+04  0.00000000000E+00 0. -1.
          2   -1    0    0  501    0 -0.00000000000E+00 -0.00000000000E+00 -0.10512121949E+03  0.10512121949E+03  0.00000000000E+00 0. -1.
    9000006    2    1    2  501    0  0.00000000000E+00  0.00000000000E+00  0.89487878051E+03  0.11051212195E+04  0.64844805339E+03 0.  0.
         13    1    3    3    0    0 -0.20384913806E+03 -0.74987374403E+02  0.85767902971E+03  0.88475470918E+03  0.00000000000E+00 0. -1.
          4    1    3    3  501    0  0.20384913806E+03  0.74987374403E+02  0.37199750804E+02  0.22036651031E+03  0.00000000000E+00 0. -1.
<mgrwt>
<rscale>  0 0.64844805E+03</rscale>
<asrwt>0</asrwt>
<pdfrwt beam="1">0</pdfrwt>
<pdfrwt beam="2">  1        2 0.38225979E+00 0.64844805E+03</pdfrwt>
<totfact> 0.46376250E+00</totfact>
</mgrwt>
</event>
<event>
 5    1  0.2381755E-004  0.6460381E+03  0.7818608E-02  0.9814242E-01
         13   -1    0    0    0    0  0.00000000000E+00  0.00000000000E+00  0.10000000000E+04  0.10000000000E+04  0.00000000000E+00 0. -1.
          2   -1    0    0  501    0 -0.00000000000E+00 -0.00000000000E+00 -0.10434131777E+03  0.10434131777E+03  0.00000000000E+00 0. -1.
    9000006    2    1    2  501    0  0.00000000000E+00  0.00000000000E+00  0.89565868223E+03  0.11043413178E+04  0.64603813438E+03 0.  0.
         13    1    3    3    0    0 -0.27158218376E+03 -0.15650864164E+03  0.58122302995E+03  0.66035751528E+03  0.00000000000E+00 0. -1.
          2    1    3    3  501    0  0.27158218376E+03  0.15650864164E+03  0.31443565229E+03  0.44398380249E+03  0.00000000000E+00 0. -1.
<mgrwt>
<rscale>  0 0.64603813E+03</rscale>
<asrwt>0</asrwt>
<pdfrwt beam="1">0</pdfrwt>
<pdfrwt beam="2">  1        2 0.37942377E+00 0.64603813E+03</pdfrwt>
<totfact> 0.47516833E+00</totfact>
</mgrwt>
</event>
<event>
 5    1  0.2381755E-004  0.6497583E+03  0.7818608E-02  0.9807233E-01
         13   -1    0    0    0    0  0.00000000000E+00  0.00000000000E+00  0.10000000000E+04  0.10000000000E+04  0.00000000000E+00 0. -1.
          2   -1    0    0  501    0 -0.00000000000E+00 -0.00000000000E+00 -0.10554646500E+03  0.10554646500E+03  0.00000000000E+00 0. -1.
    9000006    2    1    2  501    0  0.00000000000E+00  0.00000000000E+00  0.89445353500E+03  0.11055464650E+04  0.64975830892E+03 0.  0.
         13    1    3    3    0    0  0.24284706921E+03  0.21509917332E+03  0.47689841500E+03  0.57677937863E+03  0.00000000000E+00 0. -1.
          2    1    3    3  501    0 -0.24284706921E+03 -0.21509917332E+03  0.41755512000E+03  0.52876708637E+03  0.00000000000E+00 0. -1.
<mgrwt>
<rscale>  0 0.64975831E+03</rscale>
<asrwt>0</asrwt>
<pdfrwt beam="1">0</pdfrwt>
<pdfrwt beam="2">  1        2 0.38380614E+00 0.64975831E+03</pdfrwt>
<totfact> 0.45764878E+00</totfact>
</mgrwt>
</event>
<event>
 5    1  0.2381755E-004  0.6453083E+03  0.7818608E-02  0.9815623E-01
         13   -1    0    0    0    0  0.00000000000E+00  0.00000000000E+00  0.10000000000E+04  0.10000000000E+04  0.00000000000E+00 0. -1.
          2   -1    0    0  501    0 -0.00000000000E+00 -0.00000000000E+00 -0.10410571517E+03  0.10410571517E+03  0.00000000000E+00 0. -1.
    9000006    2    1    2  501    0  0.00000000000E+00  0.00000000000E+00  0.89589428483E+03  0.11041057152E+04  0.64530834542E+03 0.  0.
         13    1    3    3    0    0  0.19580957376E+03 -0.21759444543E+03  0.68014201406E+03  0.74046059393E+03  0.00000000000E+00 0. -1.
          4    1    3    3  501    0 -0.19580957376E+03  0.21759444543E+03  0.21575227077E+03  0.36364512124E+03  0.00000000000E+00 0. -1.
<mgrwt>
<rscale>  0 0.64530835E+03</rscale>
<asrwt>0</asrwt>
<pdfrwt beam="1">0</pdfrwt>
<pdfrwt beam="2">  1        2 0.37856704E+00 0.64530835E+03</pdfrwt>
<totfact> 0.47866381E+00</totfact>
</mgrwt>
</event>
