<event>
 6    1  0.6152586E-003  0.6510999E+03  0.7818608E-02  0.9804717E-01
          1   -1    0    0  502    0  0.00000000000E+00  0.00000000000E+00  0.10676619730E+03  0.10676619730E+03  0.00000000000E+00 0.  1.
         13   -1    0    0    0    0 -0.00000000000E+00 -0.00000000000E+00 -0.10000000000E+04  0.10000000000E+04  0.00000000000E+00 0.  1.
    9000005    2    1    2  501    0  0.16098333072E+00  0.47692694340E+00 -0.89392679391E+03  0.11059096859E+04  0.65109973670E+03 0.  0.
         13    1    3    3    0    0 -0.16046566919E+03 -0.71271194934E+02 -0.91228876896E+03  0.92903154531E+03  0.00000000000E+00 0.  1.
          3    1    3    3  501    0  0.16062665252E+03  0.71748121878E+02  0.18361975047E+02  0.17687814059E+03  0.00000000000E+00 0.  1.
         21    1    1    2  502  501 -0.16098333072E+00 -0.47692694340E+00  0.69299121744E+00  0.85651139488E+00  0.00000000000E+00 0.  1.
<mgrwt>
<rscale>  1 0.65109993E+03</rscale>
<asrwt>0</asrwt>
<pdfrwt beam="1">  1        1 0.38824154E+00 0.65109993E+03</pdfrwt>
<pdfrwt beam="2">0</pdfrwt>
<totfact> 0.15086010E+00</totfact>
</mgrwt>
</event>
<event>
 6    1  0.6152586E-003  0.6436909E+03  0.7818608E-02  0.9818690E-01
          1   -1    0    0  502    0  0.00000000000E+00  0.00000000000E+00  0.10360310224E+03  0.10360310224E+03  0.00000000000E+00 0.  1.
         13   -1    0    0    0    0 -0.00000000000E+00 -0.00000000000E+00 -0.10000000000E+04  0.10000000000E+04  0.00000000000E+00 0.  1.
    9000005    2    1    2  501    0 -0.40435492781E-03  0.60710317501E-03 -0.89641549531E+03  0.11035844904E+04  0.64369090968E+03 0.  0.
         13    1    3    3    0    0 -0.17313187823E+03 -0.13486481263E+03 -0.44593328875E+02  0.22394581917E+03  0.00000000000E+00 0.  1.
          1    1    3    3  501    0  0.17313147387E+03  0.13486541973E+03 -0.85182216643E+03  0.87963867122E+03  0.00000000000E+00 0.  1.
         21    1    1    2  502  501  0.40435492781E-03 -0.60710317501E-03  0.18597546268E-01  0.18611845808E-01  0.00000000000E+00 0. -1.
<mgrwt>
<rscale>  1 0.64369091E+03</rscale>
<asrwt>0</asrwt>
<pdfrwt beam="1">  1        1 0.37673935E+00 0.64369091E+03</pdfrwt>
<pdfrwt beam="2">0</pdfrwt>
<totfact> 0.16981655E+00</totfact>
</mgrwt>
</event>
<event>
 6    1  0.6152586E-003  0.6544278E+03  0.7818608E-02  0.9798506E-01
          1   -1    0    0  502    0  0.00000000000E+00  0.00000000000E+00  0.10711245659E+03  0.10711245659E+03  0.00000000000E+00 0.  1.
         13   -1    0    0    0    0 -0.00000000000E+00 -0.00000000000E+00 -0.10000000000E+04  0.10000000000E+04  0.00000000000E+00 0.  1.
    9000005    2    1    2  501    0  0.22434668574E-02 -0.81879013324E-03 -0.89293103131E+03  0.11070689032E+04  0.65442778797E+03 0.  0.
         13    1    3    3    0    0 -0.79312908611E+02  0.76692375057E+02  0.74655136094E+02  0.13321278921E+03  0.00000000000E+00 0.  1.
          1    1    3    3  501    0  0.79315152078E+02 -0.76693193848E+02 -0.96758616740E+03  0.97385611395E+03  0.00000000000E+00 0.  1.
         21    1    1    2  502  501 -0.22434668574E-02  0.81879013323E-03  0.43487899639E-01  0.43553426683E-01  0.00000000000E+00 0.  1.
<mgrwt>
<rscale>  1 0.65442779E+03</rscale>
<asrwt>0</asrwt>
<pdfrwt beam="1">  1        1 0.38950066E+00 0.65442779E+03</pdfrwt>
<pdfrwt beam="2">0</pdfrwt>
<totfact> 0.14884214E+00</totfact>
</mgrwt>
</event>
<event>
 6    1  0.6152586E-003  0.6536696E+03  0.7818608E-02  0.9799918E-01
          1   -1    0    0  502    0  0.00000000000E+00  0.00000000000E+00  0.10682111189E+03  0.10682111189E+03  0.00000000000E+00 0.  1.
         13   -1    0    0    0    0 -0.00000000000E+00 -0.00000000000E+00 -0.10000000000E+04  0.10000000000E+04  0.00000000000E+00 0.  1.
    9000005    2    1    2  501    0  0.16618724601E-05  0.22629135088E-04 -0.89317901387E+03  0.11068209841E+04  0.65366959547E+03 0.  0.
         13    1    3    3    0    0  0.22277086421E+03 -0.23482723224E+03 -0.36991921176E+03  0.49153932719E+03  0.00000000000E+00 0.  1.
          1    1    3    3  501    0 -0.22277086255E+03  0.23482725487E+03 -0.52325980211E+03  0.61528165691E+03  0.00000000000E+00 0.  1.
         21    1    1    2  502  501 -0.16618724757E-05 -0.22629135087E-04  0.12575583428E-03  0.12778642115E-03  0.00000000000E+00 0.  1.
<mgrwt>
<rscale>  1 0.65366960E+03</rscale>
<asrwt>0</asrwt>
<pdfrwt beam="1">  1        1 0.38844123E+00 0.65366960E+03</pdfrwt>
<pdfrwt beam="2">0</pdfrwt>
<totfact> 0.15048137E+00</totfact>
</mgrwt>
</event>
<event>
 6    1  0.6152586E-003  0.6465437E+03  0.7818608E-02  0.9813286E-01
          1   -1    0    0  502    0  0.00000000000E+00  0.00000000000E+00  0.10450471987E+03  0.10450471987E+03  0.00000000000E+00 0.  1.
         13   -1    0    0    0    0 -0.00000000000E+00 -0.00000000000E+00 -0.10000000000E+04  0.10000000000E+04  0.00000000000E+00 0.  1.
    9000005    2    1    2  501    0  0.40342049061E-04 -0.22952195643E-04 -0.89549527220E+03  0.11045046728E+04  0.64654372603E+03 0.  0.
         13    1    3    3    0    0 -0.22602578562E+03  0.27525167251E+02 -0.55728181500E+02  0.23441612745E+03  0.00000000000E+00 0.  1.
          1    1    3    3  501    0  0.22602582596E+03 -0.27525190203E+02 -0.83976709070E+03  0.87008854533E+03  0.00000000000E+00 0.  1.
         21    1    1    2  502  501 -0.40342049060E-04  0.22952195640E-04 -0.79318825415E-05  0.47087142276E-04  0.00000000000E+00 0. -1.
<mgrwt>
<rscale>  1 0.64654373E+03</rscale>
<asrwt>0</asrwt>
<pdfrwt beam="1">  1        1 0.38001796E+00 0.64654373E+03</pdfrwt>
<pdfrwt beam="2">0</pdfrwt>
<totfact> 0.16417155E+00</totfact>
</mgrwt>
</event>
<event>
 6    1  0.6152586E-003  0.6304808E+03  0.7818608E-02  0.9844111E-01
          1   -1    0    0  502    0  0.00000000000E+00  0.00000000000E+00  0.99376748912E+02  0.99376748912E+02  0.00000000000E+00 0.  1.
         13   -1    0    0    0    0 -0.00000000000E+00 -0.00000000000E+00 -0.10000000000E+04  0.10000000000E+04  0.00000000000E+00 0.  1.
    9000005    2    1    2  501    0 -0.13104187735E-03 -0.26856781452E-03 -0.90062336270E+03  0.10993764299E+04  0.63048084285E+03 0.  0.
         13    1    3    3    0    0  0.14811540876E+03  0.24369152976E+03 -0.21602586617E+03  0.35775817369E+03  0.00000000000E+00 0.  1.
          1    1    3    3  501    0 -0.14811553980E+03 -0.24369179833E+03 -0.68459749653E+03  0.74161825622E+03  0.00000000000E+00 0.  1.
         21    1    1    2  502  501  0.13104187736E-03  0.26856781452E-03  0.11161695911E-03  0.31899684979E-03  0.00000000000E+00 0. -1.
<mgrwt>
<rscale>  1 0.63048084E+03</rscale>
<asrwt>0</asrwt>
<pdfrwt beam="1">  1        1 0.36137076E+00 0.63048084E+03</pdfrwt>
<pdfrwt beam="2">0</pdfrwt>
<totfact> 0.19883617E+00</totfact>
</mgrwt>
</event>
<event>
 6    1  0.6152586E-003  0.6557912E+03  0.7818608E-02  0.9795973E-01
          1   -1    0    0  502    0  0.00000000000E+00  0.00000000000E+00  0.10802348660E+03  0.10802348660E+03  0.00000000000E+00 0.  1.
         13   -1    0    0    0    0 -0.00000000000E+00 -0.00000000000E+00 -0.10000000000E+04  0.10000000000E+04  0.00000000000E+00 0.  1.
    9000005    2    1    2  501    0  0.67384931179E-02 -0.34301154116E-02 -0.89248442795E+03  0.11075155158E+04  0.65579124994E+03 0.  0.
         13    1    3    3    0    0 -0.26381769594E+03 -0.15580042392E+03 -0.64348340903E+03  0.71270221445E+03  0.00000000000E+00 0.  1.
          3    1    3    3  501    0  0.26382443443E+03  0.15579699381E+03 -0.24900101892E+03  0.39481330132E+03  0.00000000000E+00 0.  1.
         21    1    1    2  502  501 -0.67384931178E-02  0.34301154116E-02  0.50791454457E+00  0.50797082354E+00  0.00000000000E+00 0. -1.
<mgrwt>
<rscale>  1 0.65579125E+03</rscale>
<asrwt>0</asrwt>
<pdfrwt beam="1">  1        1 0.39281351E+00 0.65579125E+03</pdfrwt>
<pdfrwt beam="2">0</pdfrwt>
<totfact> 0.14385183E+00</totfact>
</mgrwt>
</event>
<event>
 6    1  0.6152586E-003  0.6336844E+03  0.7818608E-02  0.9837885E-01
          1   -1    0    0  502    0  0.00000000000E+00  0.00000000000E+00  0.10038897635E+03  0.10038897635E+03  0.00000000000E+00 0.  1.
         13   -1    0    0    0    0 -0.00000000000E+00 -0.00000000000E+00 -0.10000000000E+04  0.10000000000E+04  0.00000000000E+00 0.  1.
    9000005    2    1    2  501    0 -0.79997407880E-05  0.20150125096E-04 -0.89961101766E+03  0.11003889539E+04  0.63368435887E+03 0.  0.
         13    1    3    3    0    0  0.49626305789E+02  0.23638956155E+03 -0.93734615216E+02  0.25909259566E+03  0.00000000000E+00 0.  1.
          3    1    3    3  501    0 -0.49626313789E+02 -0.23638954140E+03 -0.80587640245E+03  0.84129635820E+03  0.00000000000E+00 0.  1.
         21    1    1    2  502  501  0.79997407932E-05 -0.20150125096E-04 -0.59897425266E-05  0.22492229984E-04  0.00000000000E+00 0. -1.
<mgrwt>
<rscale>  1 0.63368436E+03</rscale>
<asrwt>0</asrwt>
<pdfrwt beam="1">  1        1 0.36505159E+00 0.63368436E+03</pdfrwt>
<pdfrwt beam="2">0</pdfrwt>
<totfact> 0.19148057E+00</totfact>
</mgrwt>
</event>
<event>
 6    1  0.6152586E-003  0.6503402E+03  0.7818608E-02  0.9806141E-01
          1   -1    0    0  502    0  0.00000000000E+00  0.00000000000E+00  0.10580590123E+03  0.10580590123E+03  0.00000000000E+00 0.  1.
         13   -1    0    0    0    0 -0.00000000000E+00 -0.00000000000E+00 -0.10000000000E+04  0.10000000000E+04  0.00000000000E+00 0.  1.
    9000005    2    1    2  501    0 -0.11687858033E-01 -0.66877818989E-02 -0.89426370737E+03  0.11057350021E+04  0.65034015433E+03 0.  0.
         13    1    3    3    0    0  0.17337604847E+03  0.18080181892E+02 -0.91383428697E+03  0.93031137325E+03  0.00000000000E+00 0.  1.
          1    1    3    3  501    0 -0.17338773633E+03 -0.18086869674E+02  0.19570579606E+02  0.17542362883E+03  0.00000000000E+00 0.  1.
         21    1    1    2  502  501  0.11687858033E-01  0.66877818989E-02  0.69608594273E-01  0.70899145614E-01  0.00000000000E+00 0.  1.
<mgrwt>
<rscale>  1 0.65034015E+03</rscale>
<asrwt>0</asrwt>
<pdfrwt beam="1">  1        1 0.38474954E+00 0.65034015E+03</pdfrwt>
<pdfrwt beam="2">0</pdfrwt>
<totfact> 0.15634814E+00</totfact>
</mgrwt>
</event>
<event>
 6    1  0.6152586E-003  0.6739890E+03  0.7818608E-02  0.9762778E-01
          1   -1    0    0  502    0  0.00000000000E+00  0.00000000000E+00  0.11356534676E+03  0.11356534676E+03  0.00000000000E+00 0.  1.
         13   -1    0    0    0    0 -0.00000000000E+00 -0.00000000000E+00 -0.10000000000E+04  0.10000000000E+04  0.00000000000E+00 0.  1.
    9000005    2    1    2  501    0 -0.21471636302E-04 -0.46130220426E-05 -0.88643470668E+03  0.11135652890E+04  0.67398899370E+03 0.  0.
         13    1    3    3    0    0  0.20323307799E+03  0.26716381022E+03 -0.49237135868E+03  0.59591084931E+03  0.00000000000E+00 0.  1.
          1    1    3    3  501    0 -0.20323309947E+03 -0.26716381483E+03 -0.39406334800E+03  0.51765443967E+03  0.00000000000E+00 0.  1.
         21    1    1    2  502  501  0.21471636296E-04  0.46130220329E-05  0.53441558656E-04  0.57778121544E-04  0.00000000000E+00 0. -1.
<mgrwt>
<rscale>  1 0.67398899E+03</rscale>
<asrwt>0</asrwt>
<pdfrwt beam="1">  1        1 0.41296577E+00 0.67398899E+03</pdfrwt>
<pdfrwt beam="2">0</pdfrwt>
<totfact> 0.11652285E+00</totfact>
</mgrwt>
</event>
<event>
 6    1  0.6152586E-003  0.6462042E+03  0.7818608E-02  0.9813928E-01
          1   -1    0    0  502    0  0.00000000000E+00  0.00000000000E+00  0.11794838669E+03  0.11794838669E+03  0.00000000000E+00 0.  1.
         13   -1    0    0    0    0 -0.00000000000E+00 -0.00000000000E+00 -0.10000000000E+04  0.10000000000E+04  0.00000000000E+00 0.  1.
    9000005    2    1    2  501    0 -0.28895657633E+02 -0.40759515034E+01 -0.87530386100E+03  0.10879966827E+04  0.64554501010E+03 0.  0.
         13    1    3    3    0    0 -0.30137468566E+03  0.35613069342E+02 -0.69633852116E+03  0.75959352809E+03  0.00000000000E+00 0.  1.
          1    1    3    3  501    0  0.27247902803E+03 -0.39689020845E+02 -0.17896533984E+03  0.32840315461E+03  0.00000000000E+00 0.  1.
         21    1    1    2  502  501  0.28895657633E+02  0.40759515034E+01 -0.67477523066E+01  0.29951703990E+02  0.00000000000E+00 0.  1.
<mgrwt>
<rscale>  1 0.64620425E+03</rscale>
<asrwt>0</asrwt>
<pdfrwt beam="1">  1        1 0.42890413E+00 0.64620425E+03</pdfrwt>
<pdfrwt beam="2">0</pdfrwt>
<totfact> 0.99269536E-01</totfact>
</mgrwt>
</event>
<event>
 6    1  0.6152586E-003  0.6460916E+03  0.7818608E-02  0.9814141E-01
          1   -1    0    0  502    0  0.00000000000E+00  0.00000000000E+00  0.10435861005E+03  0.10435861005E+03  0.00000000000E+00 0.  1.
         13   -1    0    0    0    0 -0.00000000000E+00 -0.00000000000E+00 -0.10000000000E+04  0.10000000000E+04  0.00000000000E+00 0.  1.
    9000005    2    1    2  501    0 -0.13605013265E-04  0.38317703286E-05 -0.89564140871E+03  0.11043585866E+04  0.64609159932E+03 0.  0.
         13    1    3    3    0    0 -0.11958415349E+03 -0.21763484292E+03 -0.80100050448E+03  0.83861022102E+03  0.00000000000E+00 0.  1.
          3    1    3    3  501    0  0.11958413989E+03  0.21763484675E+03 -0.94640904229E+02  0.26574836554E+03  0.00000000000E+00 0.  1.
         21    1    1    2  502  501  0.13605013264E-04 -0.38317703345E-05  0.18765098539E-04  0.23492717446E-04  0.00000000000E+00 0. -1.
<mgrwt>
<rscale>  1 0.64609160E+03</rscale>
<asrwt>0</asrwt>
<pdfrwt beam="1">  1        1 0.37948665E+00 0.64609160E+03</pdfrwt>
<pdfrwt beam="2">0</pdfrwt>
<totfact> 0.16507373E+00</totfact>
</mgrwt>
</event>
<event>
 6    1  0.6152586E-003  0.6641200E+03  0.7818608E-02  0.9780639E-01
          1   -1    0    0  502    0  0.00000000000E+00  0.00000000000E+00  0.11026444916E+03  0.11026444916E+03  0.00000000000E+00 0.  1.
         13   -1    0    0    0    0 -0.00000000000E+00 -0.00000000000E+00 -0.10000000000E+04  0.10000000000E+04  0.00000000000E+00 0.  1.
    9000005    2    1    2  501    0 -0.34694469718E-04 -0.33155029655E-05 -0.88973615237E+03  0.11102638466E+04  0.66412001044E+03 0.  0.
         13    1    3    3    0    0  0.96844027291E+02  0.31409507269E+03 -0.52380313104E+03  0.61838838960E+03  0.00000000000E+00 0.  1.
          3    1    3    3  501    0 -0.96844061986E+02 -0.31409507600E+03 -0.36593302134E+03  0.49187545702E+03  0.00000000000E+00 0.  1.
         21    1    1    2  502  501  0.34694469714E-04  0.33155029611E-05  0.60153846298E-03  0.60254727718E-03  0.00000000000E+00 0.  1.
<mgrwt>
<rscale>  1 0.66412001E+03</rscale>
<asrwt>0</asrwt>
<pdfrwt beam="1">  1        1 0.40096248E+00 0.66412001E+03</pdfrwt>
<pdfrwt beam="2">0</pdfrwt>
<totfact> 0.13211906E+00</totfact>
</mgrwt>
</event>
<event>
 6    1  0.6152586E-003  0.6565680E+03  0.7818608E-02  0.9794532E-01
          1   -1    0    0  502    0  0.00000000000E+00  0.00000000000E+00  0.10777359496E+03  0.10777359496E+03  0.00000000000E+00 0.  1.
         13   -1    0    0    0    0 -0.00000000000E+00 -0.00000000000E+00 -0.10000000000E+04  0.10000000000E+04  0.00000000000E+00 0.  1.
    9000005    2    1    2  501    0  0.58849267134E-04 -0.53121729933E-03 -0.89222958941E+03  0.11077703661E+04  0.65656800386E+03 0.  0.
         13    1    3    3    0    0  0.27350875545E+03 -0.31039865885E+02 -0.74793233561E+03  0.79697759769E+03  0.00000000000E+00 0.  1.
          3    1    3    3  501    0 -0.27350869660E+03  0.31039334668E+02 -0.14429725380E+03  0.31079276836E+03  0.00000000000E+00 0.  1.
         21    1    1    2  502  501 -0.58849267130E-04  0.53121729933E-03  0.31843668000E-02  0.32289080155E-02  0.00000000000E+00 0.  1.
<mgrwt>
<rscale>  1 0.65656800E+03</rscale>
<asrwt>0</asrwt>
<pdfrwt beam="1">  1        1 0.39190481E+00 0.65656800E+03</pdfrwt>
<pdfrwt beam="2">0</pdfrwt>
<totfact> 0.14517357E+00</totfact>
</mgrwt>
</event>
<event>
 6    1  0.6152586E-003  0.6441082E+03  0.7818608E-02  0.9817898E-01
          1   -1    0    0  502    0  0.00000000000E+00  0.00000000000E+00  0.10606430270E+03  0.10606430270E+03  0.00000000000E+00 0.  1.
         13   -1    0    0    0    0 -0.00000000000E+00 -0.00000000000E+00 -0.10000000000E+04  0.10000000000E+04  0.00000000000E+00 0.  1.
    9000005    2    1    2  501    0  0.53042682599E-01  0.88578108533E-02 -0.89628081509E+03  0.11037185684E+04  0.64410820195E+03 0.  0.
         13    1    3    3    0    0 -0.49838436902E+02  0.29452218195E+03 -0.65442076138E+03  0.71937036245E+03  0.00000000000E+00 0.  1.
          3    1    3    3  501    0  0.49891479584E+02 -0.29451332413E+03 -0.24186005371E+03  0.38434820594E+03  0.00000000000E+00 0.  1.
         21    1    1    2  502  501 -0.53042682599E-01 -0.88578108534E-02  0.23451177875E+01  0.23457343039E+01  0.00000000000E+00 0.  1.
<mgrwt>
<rscale>  1 0.64410820E+03</rscale>
<asrwt>0</asrwt>
<pdfrwt beam="1">  1        1 0.38568919E+00 0.64410820E+03</pdfrwt>
<pdfrwt beam="2">0</pdfrwt>
<totfact> 0.15503817E+00</totfact>
</mgrwt>
</event>
<event>
 6    1  0.6152586E-003  0.6559728E+03  0.7818608E-02  0.9795636E-01
          1   -1    0    0  502    0  0.00000000000E+00  0.00000000000E+00  0.10762020346E+03  0.10762020346E+03  0.00000000000E+00 0.  1.
         13   -1    0    0    0    0 -0.00000000000E+00 -0.00000000000E+00 -0.10000000000E+04  0.10000000000E+04  0.00000000000E+00 0.  1.
    9000005    2    1    2  501    0  0.36358723086E-02 -0.27838491212E-02 -0.89242479878E+03  0.11075749688E+04  0.65597278153E+03 0.  0.
         13    1    3    3    0    0 -0.12143114301E+03  0.30404962808E+03 -0.41320564006E+03  0.52719123647E+03  0.00000000000E+00 0.  1.
          1    1    3    3  501    0  0.12143477888E+03 -0.30405241193E+03 -0.47921915872E+03  0.58038373237E+03  0.00000000000E+00 0.  1.
         21    1    1    2  502  501 -0.36358723086E-02  0.27838491212E-02  0.45002236959E-01  0.45234618543E-01  0.00000000000E+00 0. -1.
<mgrwt>
<rscale>  1 0.65597278E+03</rscale>
<asrwt>0</asrwt>
<pdfrwt beam="1">  1        1 0.39134702E+00 0.65597278E+03</pdfrwt>
<pdfrwt beam="2">0</pdfrwt>
<totfact> 0.14601968E+00</totfact>
</mgrwt>
</event>
<event>
 6    1  0.6152586E-003  0.6518062E+03  0.7818608E-02  0.9803396E-01
          1   -1    0    0  502    0  0.00000000000E+00  0.00000000000E+00  0.10634754881E+03  0.10634754881E+03  0.00000000000E+00 0.  1.
         13   -1    0    0    0    0 -0.00000000000E+00 -0.00000000000E+00 -0.10000000000E+04  0.10000000000E+04  0.00000000000E+00 0.  1.
    9000005    2    1    2  501    0 -0.21919244824E-02 -0.78790674841E-03 -0.89378717261E+03  0.11062128073E+04  0.65180615602E+03 0.  0.
         13    1    3    3    0    0  0.30255535793E+03 -0.12112470358E+03 -0.44883492979E+03  0.55467443841E+03  0.00000000000E+00 0.  1.
          3    1    3    3  501    0 -0.30255754986E+03  0.12112391568E+03 -0.44495224282E+03  0.55153836885E+03  0.00000000000E+00 0.  1.
         21    1    1    2  502  501  0.21919244824E-02  0.78790674841E-03  0.13472141126E+00  0.13474154512E+00  0.00000000000E+00 0.  1.
<mgrwt>
<rscale>  1 0.65180616E+03</rscale>
<asrwt>0</asrwt>
<pdfrwt beam="1">  1        1 0.38671917E+00 0.65180616E+03</pdfrwt>
<pdfrwt beam="2">0</pdfrwt>
<totfact> 0.15320032E+00</totfact>
</mgrwt>
</event>
<event>
 6    1  0.6152586E-003  0.6456785E+03  0.7818608E-02  0.9814922E-01
          1   -1    0    0  502    0  0.00000000000E+00  0.00000000000E+00  0.10423636462E+03  0.10423636462E+03  0.00000000000E+00 0.  1.
         13   -1    0    0    0    0 -0.00000000000E+00 -0.00000000000E+00 -0.10000000000E+04  0.10000000000E+04  0.00000000000E+00 0.  1.
    9000005    2    1    2  501    0  0.13467784554E-02  0.51577344132E-03 -0.89577475171E+03  0.11042251551E+04  0.64567854807E+03 0.  0.
         13    1    3    3    0    0  0.24090585740E+03 -0.20549799464E+03 -0.55551168139E+03  0.63942027345E+03  0.00000000000E+00 0.  1.
          1    1    3    3  501    0 -0.24090451062E+03  0.20549851041E+03 -0.34026307031E+03  0.46480488169E+03  0.00000000000E+00 0.  1.
         21    1    1    2  502  501 -0.13467784554E-02 -0.51577344131E-03  0.11116325255E-01  0.11209483558E-01  0.00000000000E+00 0. -1.
<mgrwt>
<rscale>  1 0.64567855E+03</rscale>
<asrwt>0</asrwt>
<pdfrwt beam="1">  1        1 0.37904213E+00 0.64567855E+03</pdfrwt>
<pdfrwt beam="2">0</pdfrwt>
<totfact> 0.16583324E+00</totfact>
</mgrwt>
</event>
<event>
 6    1  0.6152586E-003  0.6479590E+03  0.7818608E-02  0.9810616E-01
          1   -1    0    0  502    0  0.00000000000E+00  0.00000000000E+00  0.11838101261E+03  0.11838101261E+03  0.00000000000E+00 0.  1.
         13   -1    0    0    0    0 -0.00000000000E+00 -0.00000000000E+00 -0.10000000000E+04  0.10000000000E+04  0.00000000000E+00 0.  1.
    9000005    2    1    2  501    0 -0.42748847584E+00 -0.40334395684E+00 -0.89503016312E+03  0.11049569645E+04  0.64795876035E+03 0.  0.
         13    1    3    3    0    0 -0.17988986774E+03  0.26591106065E+03 -0.37384266044E+03  0.49277519363E+03  0.00000000000E+00 0.  1.
          3    1    3    3  501    0  0.17946237926E+03 -0.26631440460E+03 -0.52118750267E+03  0.61218177089E+03  0.00000000000E+00 0.  1.
         21    1    1    2  502  501  0.42748847584E+00  0.40334395684E+00  0.13411175728E+02  0.13424048091E+02  0.00000000000E+00 0.  1.
<mgrwt>
<rscale>  1 0.64795903E+03</rscale>
<asrwt>0</asrwt>
<pdfrwt beam="1">  1        1 0.43047732E+00 0.64795903E+03</pdfrwt>
<pdfrwt beam="2">0</pdfrwt>
<totfact> 0.97616431E-01</totfact>
</mgrwt>
</event>
<event>
 6    1  0.6152586E-003  0.6367614E+03  0.7818608E-02  0.9831943E-01
          1   -1    0    0  502    0  0.00000000000E+00  0.00000000000E+00  0.10199724009E+03  0.10199724009E+03  0.00000000000E+00 0.  1.
         13   -1    0    0    0    0 -0.00000000000E+00 -0.00000000000E+00 -0.10000000000E+04  0.10000000000E+04  0.00000000000E+00 0.  1.
    9000005    2    1    2  501    0 -0.14603923511E+00 -0.16199398794E+01 -0.89716343991E+03  0.11001669421E+04  0.63675930856E+03 0.  0.
         13    1    3    3    0    0 -0.17966165565E+03  0.26591811577E+02 -0.90028447650E+03  0.91842123973E+03  0.00000000000E+00 0.  1.
          1    1    3    3  501    0  0.17951561642E+03 -0.28211751457E+02  0.31210365960E+01  0.18174570236E+03  0.00000000000E+00 0.  1.
         21    1    1    2  502  501  0.14603923511E+00  0.16199398794E+01 -0.83932000740E+00  0.18302979938E+01  0.00000000000E+00 0.  1.
<mgrwt>
<rscale>  1 0.63676139E+03</rscale>
<asrwt>0</asrwt>
<pdfrwt beam="1">  1        1 0.37089984E+00 0.63676139E+03</pdfrwt>
<pdfrwt beam="2">0</pdfrwt>
<totfact> 0.18039330E+00</totfact>
</mgrwt>
</event>
<event>
 6    1  0.6152586E-003  0.6595644E+03  0.7818608E-02  0.9788996E-01
          1   -1    0    0  502    0  0.00000000000E+00  0.00000000000E+00  0.10891709125E+03  0.10891709125E+03  0.00000000000E+00 0.  1.
         13   -1    0    0    0    0 -0.00000000000E+00 -0.00000000000E+00 -0.10000000000E+04  0.10000000000E+04  0.00000000000E+00 0.  1.
    9000005    2    1    2  501    0  0.46429141094E-01  0.42513473532E+00 -0.89081762469E+03  0.11084138310E+04  0.65956424819E+03 0.  0.
         13    1    3    3    0    0  0.35985005965E+01 -0.23171707605E+03 -0.83915352070E+03  0.87056555402E+03  0.00000000000E+00 0.  1.
          1    1    3    3  501    0 -0.35520714554E+01  0.23214221079E+03 -0.51664103982E+02  0.23784827702E+03  0.00000000000E+00 0.  1.
         21    1    1    2  502  501 -0.46429141094E-01 -0.42513473532E+00 -0.26528406168E+00  0.50326021271E+00  0.00000000000E+00 0. -1.
<mgrwt>
<rscale>  1 0.65956439E+03</rscale>
<asrwt>0</asrwt>
<pdfrwt beam="1">  1        1 0.39606299E+00 0.65956439E+03</pdfrwt>
<pdfrwt beam="2">0</pdfrwt>
<totfact> 0.13904812E+00</totfact>
</mgrwt>
</event>
<event>
 6    1  0.6152586E-003  0.6435910E+03  0.7818608E-02  0.9818880E-01
          1   -1    0    0  502    0  0.00000000000E+00  0.00000000000E+00  0.10356160199E+03  0.10356160199E+03  0.00000000000E+00 0.  1.
         13   -1    0    0    0    0 -0.00000000000E+00 -0.00000000000E+00 -0.10000000000E+04  0.10000000000E+04  0.00000000000E+00 0.  1.
    9000005    2    1    2  501    0  0.10928458813E-01 -0.26011018219E-01 -0.89640829309E+03  0.11035203429E+04  0.64359095590E+03 0.  0.
         13    1    3    3    0    0  0.24325793304E+03  0.18439808284E+03 -0.62283200605E+03  0.69361140612E+03  0.00000000000E+00 0.  1.
          1    1    3    3  501    0 -0.24324700459E+03 -0.18442409385E+03 -0.27357628703E+03  0.40990893679E+03  0.00000000000E+00 0.  1.
         21    1    1    2  502  501 -0.10928458813E-01  0.26011018219E-01 -0.30104927952E-01  0.41259071340E-01  0.00000000000E+00 0. -1.
<mgrwt>
<rscale>  1 0.64359096E+03</rscale>
<asrwt>0</asrwt>
<pdfrwt beam="1">  1        1 0.37658844E+00 0.64359096E+03</pdfrwt>
<pdfrwt beam="2">0</pdfrwt>
<totfact> 0.17007981E+00</totfact>
</mgrwt>
</event>
<event>
 6    1  0.6152586E-003  0.7164242E+03  0.7818608E-02  0.9689550E-01
          1   -1    0    0  502    0  0.00000000000E+00  0.00000000000E+00  0.12897365285E+03  0.12897365285E+03  0.00000000000E+00 0.  1.
         13   -1    0    0    0    0 -0.00000000000E+00 -0.00000000000E+00 -0.10000000000E+04  0.10000000000E+04  0.00000000000E+00 0.  1.
    9000005    2    1    2  501    0  0.16065407256E+00  0.97222098056E-03 -0.87167301415E+03  0.11283073279E+04  0.71642414593E+03 0.  0.
         13    1    3    3    0    0  0.28883765226E+03 -0.76159458983E+02 -0.12435742961E+03  0.32356177595E+03  0.00000000000E+00 0.  1.
          3    1    3    3  501    0 -0.28867699818E+03  0.76160431204E+02 -0.74731558454E+03  0.80474555199E+03  0.00000000000E+00 0.  1.
         21    1    1    2  502  501 -0.16065407256E+00 -0.97222098056E-03  0.64666700331E+00  0.66632491280E+00  0.00000000000E+00 0.  1.
<mgrwt>
<rscale>  1 0.71642416E+03</rscale>
<asrwt>0</asrwt>
<pdfrwt beam="1">  1        1 0.46899609E+00 0.71642416E+03</pdfrwt>
<pdfrwt beam="2">0</pdfrwt>
<totfact> 0.63971926E-01</totfact>
</mgrwt>
</event>
<event>
 6    1  0.6152586E-003  0.6620666E+03  0.7818608E-02  0.9784397E-01
          1   -1    0    0  502    0  0.00000000000E+00  0.00000000000E+00  0.10962362783E+03  0.10962362783E+03  0.00000000000E+00 0.  1.
         13   -1    0    0    0    0 -0.00000000000E+00 -0.00000000000E+00 -0.10000000000E+04  0.10000000000E+04  0.00000000000E+00 0.  1.
    9000005    2    1    2  501    0  0.48577746509E-03  0.77707166991E-02 -0.89041654608E+03  0.11095827064E+04  0.66206658030E+03 0.  0.
         13    1    3    3    0    0  0.25981498086E+03 -0.19405300052E+03 -0.55664296183E+03  0.64421407796E+03  0.00000000000E+00 0.  1.
          1    1    3    3  501    0 -0.25981449508E+03  0.19406077124E+03 -0.33377358426E+03  0.46536862844E+03  0.00000000000E+00 0.  1.
         21    1    1    2  502  501 -0.48577746507E-03 -0.77707166991E-02  0.40173917786E-01  0.40921433113E-01  0.00000000000E+00 0. -1.
<mgrwt>
<rscale>  1 0.66206658E+03</rscale>
<asrwt>0</asrwt>
<pdfrwt beam="1">  1        1 0.39863221E+00 0.66206658E+03</pdfrwt>
<pdfrwt beam="2">0</pdfrwt>
<totfact> 0.13537002E+00</totfact>
</mgrwt>
</event>
<event>
 6    1  0.6152586E-003  0.6402578E+03  0.7818608E-02  0.9825233E-01
          1   -1    0    0  502    0  0.00000000000E+00  0.00000000000E+00  0.10248353234E+03  0.10248353234E+03  0.00000000000E+00 0.  1.
         13   -1    0    0    0    0 -0.00000000000E+00 -0.00000000000E+00 -0.10000000000E+04  0.10000000000E+04  0.00000000000E+00 0.  1.
    9000005    2    1    2  501    0  0.16220069625E-04 -0.34600196642E-03 -0.89751746265E+03  0.11024824788E+04  0.64025777642E+03 0.  0.
         13    1    3    3    0    0 -0.12619958121E+03 -0.28760404991E+03 -0.55546585670E+03  0.63811028967E+03  0.00000000000E+00 0.  1.
          1    1    3    3  501    0  0.12619959743E+03  0.28760370391E+03 -0.34205160595E+03  0.46437218912E+03  0.00000000000E+00 0.  1.
         21    1    1    2  502  501 -0.16220069626E-04  0.34600196644E-03  0.99498204728E-03  0.10535510077E-02  0.00000000000E+00 0. -1.
<mgrwt>
<rscale>  1 0.64025778E+03</rscale>
<asrwt>0</asrwt>
<pdfrwt beam="1">  1        1 0.37266818E+00 0.64025778E+03</pdfrwt>
<pdfrwt beam="2">0</pdfrwt>
<totfact> 0.17708055E+00</totfact>
</mgrwt>
</event>
<event>
 6    1  0.6152586E-003  0.6104444E+03  0.7818608E-02  0.9883971E-01
          1   -1    0    0  502    0  0.00000000000E+00  0.00000000000E+00  0.93447731748E+02  0.93447731748E+02  0.00000000000E+00 0.  1.
         13   -1    0    0    0    0 -0.00000000000E+00 -0.00000000000E+00 -0.10000000000E+04  0.10000000000E+04  0.00000000000E+00 0.  1.
    9000005    2    1    2  501    0  0.50946238934E-01  0.35933282223E+00 -0.90670900762E+03  0.10930524055E+04  0.61044426854E+03 0.  0.
         13    1    3    3    0    0  0.16384980433E+02 -0.30022781619E+03 -0.36094757849E+03  0.46977480096E+03  0.00000000000E+00 0.  1.
          1    1    3    3  501    0 -0.16334034194E+02  0.30058714901E+03 -0.54576142913E+03  0.62327760456E+03  0.00000000000E+00 0.  1.
         21    1    1    2  502  501 -0.50946238934E-01 -0.35933282223E+00  0.15673936932E+00  0.39532622768E+00  0.00000000000E+00 0. -1.
<mgrwt>
<rscale>  1 0.61044438E+03</rscale>
<asrwt>0</asrwt>
<pdfrwt beam="1">  1        1 0.33981065E+00 0.61044438E+03</pdfrwt>
<pdfrwt beam="2">0</pdfrwt>
<totfact> 0.24775620E+00</totfact>
</mgrwt>
</event>
<event>
 6    1  0.6152586E-003  0.6588282E+03  0.7818608E-02  0.9790353E-01
          1   -1    0    0  502    0  0.00000000000E+00  0.00000000000E+00  0.11125521137E+03  0.11125521137E+03  0.00000000000E+00 0.  1.
         13   -1    0    0    0    0 -0.00000000000E+00 -0.00000000000E+00 -0.10000000000E+04  0.10000000000E+04  0.00000000000E+00 0.  1.
    9000005    2    1    2  501    0 -0.18833303169E+01 -0.10510726987E+01 -0.89100795728E+03  0.11081289326E+04  0.65882463489E+03 0.  0.
         13    1    3    3    0    0  0.32496128330E+03  0.46793573290E+02 -0.43093454209E+03  0.54175091482E+03  0.00000000000E+00 0.  1.
          1    1    3    3  501    0 -0.32684461362E+03 -0.47844645989E+02 -0.46007341519E+03  0.56637801773E+03  0.00000000000E+00 0.  1.
         21    1    1    2  502  501  0.18833303169E+01  0.10510726987E+01  0.22631686444E+01  0.31262788125E+01  0.00000000000E+00 0.  1.
<mgrwt>
<rscale>  1 0.65882817E+03</rscale>
<asrwt>0</asrwt>
<pdfrwt beam="1">  1        1 0.40456526E+00 0.65882817E+03</pdfrwt>
<pdfrwt beam="2">0</pdfrwt>
<totfact> 0.12744093E+00</totfact>
</mgrwt>
</event>
<event>
 6    1  0.6152586E-003  0.6520295E+03  0.7818608E-02  0.9802978E-01
          1   -1    0    0  502    0  0.00000000000E+00  0.00000000000E+00  0.10690366771E+03  0.10690366771E+03  0.00000000000E+00 0.  1.
         13   -1    0    0    0    0 -0.00000000000E+00 -0.00000000000E+00 -0.10000000000E+04  0.10000000000E+04  0.00000000000E+00 0.  1.
    9000005    2    1    2  501    0  0.40104383272E-01 -0.21084810778E-01 -0.89371344892E+03  0.11062848900E+04  0.65202954458E+03 0.  0.
         13    1    3    3    0    0  0.48100298348E+02  0.19421282308E+03 -0.88356565076E+03  0.90593626628E+03  0.00000000000E+00 0.  1.
          1    1    3    3  501    0 -0.48060193965E+02 -0.19423390789E+03 -0.10147798157E+02  0.20034862372E+03  0.00000000000E+00 0.  1.
         21    1    1    2  502  501 -0.40104383272E-01  0.21084810778E-01  0.61711662527E+00  0.61877771452E+00  0.00000000000E+00 0.  1.
<mgrwt>
<rscale>  1 0.65202955E+03</rscale>
<asrwt>0</asrwt>
<pdfrwt beam="1">  1        1 0.38874143E+00 0.65202955E+03</pdfrwt>
<pdfrwt beam="2">0</pdfrwt>
<totfact> 0.15006674E+00</totfact>
</mgrwt>
</event>
<event>
 6    1  0.6152586E-003  0.6447367E+03  0.7818608E-02  0.9816706E-01
          1   -1    0    0  502    0  0.00000000000E+00  0.00000000000E+00  0.10392138155E+03  0.10392138155E+03  0.00000000000E+00 0.  1.
         13   -1    0    0    0    0 -0.00000000000E+00 -0.00000000000E+00 -0.10000000000E+04  0.10000000000E+04  0.00000000000E+00 0.  1.
    9000005    2    1    2  501    0  0.20816128682E-04 -0.14396585414E-04 -0.89607861617E+03  0.11039213561E+04  0.64473674797E+03 0.  0.
         13    1    3    3    0    0  0.12957559713E+03 -0.29050424397E+03 -0.35843317735E+03  0.47922530584E+03  0.00000000000E+00 0.  1.
          3    1    3    3  501    0 -0.12957557631E+03  0.29050422957E+03 -0.53764543881E+03  0.62469605029E+03  0.00000000000E+00 0.  1.
         21    1    1    2  502  501 -0.20816128687E-04  0.14396585441E-04 -0.22848106430E-05  0.25412462406E-04  0.00000000000E+00 0.  1.
<mgrwt>
<rscale>  1 0.64473675E+03</rscale>
<asrwt>0</asrwt>
<pdfrwt beam="1">  1        1 0.37789673E+00 0.64473675E+03</pdfrwt>
<pdfrwt beam="2">0</pdfrwt>
<totfact> 0.16780183E+00</totfact>
</mgrwt>
</event>
<event>
 6    1  0.6152586E-003  0.6625871E+03  0.7818608E-02  0.9783443E-01
          1   -1    0    0  502    0  0.00000000000E+00  0.00000000000E+00  0.11936535043E+03  0.11936535043E+03  0.00000000000E+00 0.  1.
         13   -1    0    0    0    0 -0.00000000000E+00 -0.00000000000E+00 -0.10000000000E+04  0.10000000000E+04  0.00000000000E+00 0.  1.
    9000005    2    1    2  501    0 -0.14772468304E+02 -0.22456541386E+02 -0.85905517346E+03  0.10848951334E+04  0.66204164328E+03 0.  0.
         13    1    3    3    0    0 -0.45652288907E+02 -0.23733179476E+03 -0.83169043143E+03  0.86609438632E+03  0.00000000000E+00 0.  1.
          3    1    3    3  501    0  0.30879820603E+02  0.21487525337E+03 -0.27364742036E+02  0.21880074712E+03  0.00000000000E+00 0.  1.
         21    1    1    2  502  501  0.14772468304E+02  0.22456541386E+02 -0.21579476104E+02  0.34470216996E+02  0.00000000000E+00 0. -1.
<mgrwt>
<rscale>  1 0.66258710E+03</rscale>
<asrwt>0</asrwt>
<pdfrwt beam="1">  1        1 0.43405674E+00 0.66258710E+03</pdfrwt>
<pdfrwt beam="2">0</pdfrwt>
<totfact> 0.93749845E-01</totfact>
</mgrwt>
</event>
<event>
 6    1  0.6152586E-003  0.6490207E+03  0.7818608E-02  0.9808618E-01
          3   -1    0    0  502    0  0.00000000000E+00  0.00000000000E+00  0.10530699437E+03  0.10530699437E+03  0.00000000000E+00 0.  1.
         13   -1    0    0    0    0 -0.00000000000E+00 -0.00000000000E+00 -0.10000000000E+04  0.10000000000E+04  0.00000000000E+00 0.  1.
    9000005    2    1    2  501    0 -0.74191736132E-06 -0.12177278677E-04 -0.89469302312E+03  0.11053069730E+04  0.64902072313E+03 0.  0.
         13    1    3    3    0    0 -0.99694293910E+02  0.27239836973E+03 -0.19957262939E+03  0.35209240048E+03  0.00000000000E+00 0.  1.
          1    1    3    3  501    0  0.99694293168E+02 -0.27239838191E+03 -0.69512039372E+03  0.75321457257E+03  0.00000000000E+00 0.  1.
         21    1    1    2  502  501  0.74191735657E-06  0.12177278648E-04  0.17488408925E-04  0.21323250300E-04  0.00000000000E+00 0.  1.
<mgrwt>
<rscale>  1 0.64902072E+03</rscale>
<asrwt>0</asrwt>
<pdfrwt beam="1">  1        3 0.38293533E+00 0.64902072E+03</pdfrwt>
<pdfrwt beam="2">0</pdfrwt>
<totfact> 0.72845185E-02</totfact>
</mgrwt>
</event>
<event>
 6    1  0.1148617E-002  0.6250039E+03  0.7818608E-02  0.9854847E-01
          1   -1    0    0  502    0  0.00000000000E+00  0.00000000000E+00  0.97657482045E+02  0.97657482045E+02  0.00000000000E+00 0.  1.
         13   -1    0    0    0    0 -0.00000000000E+00 -0.00000000000E+00 -0.10000000000E+04  0.10000000000E+04  0.00000000000E+00 0.  1.
    9000005    2    1    2  501    0  0.15923813123E-04 -0.22427994708E-04 -0.90234248556E+03  0.10976574395E+04  0.62500391467E+03 0.  0.
         13    1    3    3    0    0 -0.19606681286E+03  0.23013318131E+03 -0.31228389090E+03  0.43465469601E+03  0.00000000000E+00 0.  1.
          1    1    3    3  501    0  0.19606682878E+03 -0.23013320374E+03 -0.59005859466E+03  0.66300274354E+03  0.00000000000E+00 0.  1.
         21    1    1    2  502  501 -0.15923813134E-04  0.22427994695E-04 -0.32395610863E-04  0.42497745516E-04  0.00000000000E+00 0. -1.
<mgrwt>
<rscale>  1 0.62500391E+03</rscale>
<asrwt>0</asrwt>
<pdfrwt beam="1">  1        1 0.35511887E+00 0.62500391E+03</pdfrwt>
<pdfrwt beam="2">0</pdfrwt>
<totfact> 0.21195711E+00</totfact>
</mgrwt>
</event>
<event>
 6    1  0.6152586E-003  0.6458244E+03  0.7818608E-02  0.9814646E-01
          1   -1    0    0  502    0  0.00000000000E+00  0.00000000000E+00  0.10427230274E+03  0.10427230274E+03  0.00000000000E+00 0.  1.
         13   -1    0    0    0    0 -0.00000000000E+00 -0.00000000000E+00 -0.10000000000E+04  0.10000000000E+04  0.00000000000E+00 0.  1.
    9000005    2    1    2  501    0 -0.56631135692E-06  0.54373811622E-05 -0.89572770089E+03  0.11042722962E+04  0.64582442659E+03 0.  0.
         13    1    3    3    0    0 -0.78441157221E+02  0.23168503749E+03 -0.80832231015E+03  0.84452112397E+03  0.00000000000E+00 0.  1.
          1    1    3    3  501    0  0.78441156655E+02 -0.23168503205E+03 -0.87405390733E+02  0.25975117221E+03  0.00000000000E+00 0.  1.
         21    1    1    2  502  501  0.56631135522E-06 -0.54373811433E-05  0.36291780464E-05  0.65617646667E-05  0.00000000000E+00 0.  1.
<mgrwt>
<rscale>  1 0.64582443E+03</rscale>
<asrwt>0</asrwt>
<pdfrwt beam="1">  1        1 0.37917281E+00 0.64582443E+03</pdfrwt>
<pdfrwt beam="2">0</pdfrwt>
<totfact> 0.16560887E+00</totfact>
</mgrwt>
</event>
<event>
 6    1  0.6152586E-003  0.6398452E+03  0.7818608E-02  0.9826023E-01
          1   -1    0    0  502    0  0.00000000000E+00  0.00000000000E+00  0.10235132796E+03  0.10235132796E+03  0.00000000000E+00 0.  1.
         13   -1    0    0    0    0 -0.00000000000E+00 -0.00000000000E+00 -0.10000000000E+04  0.10000000000E+04  0.00000000000E+00 0.  1.
    9000005    2    1    2  501    0  0.84727253693E-05  0.29791702055E-04 -0.89764952188E+03  0.11023504776E+04  0.63984522445E+03 0.  0.
         13    1    3    3    0    0 -0.23144971278E+03  0.44073641145E+02 -0.82168722750E+03  0.85479901452E+03  0.00000000000E+00 0.  1.
          3    1    3    3  501    0  0.23144972125E+03 -0.44073611353E+02 -0.75962294375E+02  0.24755146304E+03  0.00000000000E+00 0.  1.
         21    1    1    2  502  501 -0.84727253490E-05 -0.29791702058E-04  0.84983660507E-03  0.85040083955E-03  0.00000000000E+00 0. -1.
<mgrwt>
<rscale>  1 0.63984522E+03</rscale>
<asrwt>0</asrwt>
<pdfrwt beam="1">  1        1 0.37218743E+00 0.63984522E+03</pdfrwt>
<pdfrwt beam="2">0</pdfrwt>
<totfact> 0.17795788E+00</totfact>
</mgrwt>
</event>
<event>
 6    1  0.6152586E-003  0.6553260E+03  0.7818608E-02  0.9796836E-01
          1   -1    0    0  502    0  0.00000000000E+00  0.00000000000E+00  0.10927541808E+03  0.10927541808E+03  0.00000000000E+00 0.  1.
         13   -1    0    0    0    0 -0.00000000000E+00 -0.00000000000E+00 -0.10000000000E+04  0.10000000000E+04  0.00000000000E+00 0.  1.
    9000005    2    1    2  501    0  0.50352364709E-01  0.92639946842E-01 -0.89263535388E+03  0.11073617392E+04  0.65532597633E+03 0.  0.
         13    1    3    3    0    0 -0.21613283675E+03  0.66505589512E+02 -0.45639596817E+02  0.23069323648E+03  0.00000000000E+00 0.  1.
          3    1    3    3  501    0  0.21618318912E+03 -0.66412949566E+02 -0.84699575706E+03  0.87666850269E+03  0.00000000000E+00 0.  1.
         21    1    1    2  502  501 -0.50352364709E-01 -0.92639946842E-01  0.19107719620E+01  0.19136789206E+01  0.00000000000E+00 0.  1.
<mgrwt>
<rscale>  1 0.65532598E+03</rscale>
<asrwt>0</asrwt>
<pdfrwt beam="1">  1        1 0.39736599E+00 0.65532598E+03</pdfrwt>
<pdfrwt beam="2">0</pdfrwt>
<totfact> 0.13731266E+00</totfact>
</mgrwt>
</event>
<event>
 6    1  0.6152586E-003  0.6403746E+03  0.7818608E-02  0.9825010E-01
          1   -1    0    0  502    0  0.00000000000E+00  0.00000000000E+00  0.10356110455E+03  0.10356110455E+03  0.00000000000E+00 0.  1.
         13   -1    0    0    0    0 -0.00000000000E+00 -0.00000000000E+00 -0.10000000000E+04  0.10000000000E+04  0.00000000000E+00 0.  1.
    9000005    2    1    2  501    0  0.21072104032E-01  0.29050168644E-01 -0.89747974453E+03  0.11025196370E+04  0.64037462219E+03 0.  0.
         13    1    3    3    0    0 -0.30842862507E+03 -0.85894514382E+02 -0.44493436798E+03  0.54815388001E+03  0.00000000000E+00 0.  1.
          3    1    3    3  501    0  0.30844969718E+03  0.85923564551E+02 -0.45254537655E+03  0.55436575695E+03  0.00000000000E+00 0.  1.
         21    1    1    2  502  501 -0.21072104032E-01 -0.29050168644E-01  0.10408490774E+01  0.10414675932E+01  0.00000000000E+00 0.  1.
<mgrwt>
<rscale>  1 0.64037462E+03</rscale>
<asrwt>0</asrwt>
<pdfrwt beam="1">  1        1 0.37658663E+00 0.64037462E+03</pdfrwt>
<pdfrwt beam="2">0</pdfrwt>
<totfact> 0.17018340E+00</totfact>
</mgrwt>
</event>
<event>
 6    1  0.6152586E-003  0.6559009E+03  0.7818608E-02  0.9795769E-01
          1   -1    0    0  502    0  0.00000000000E+00  0.00000000000E+00  0.10764428058E+03  0.10764428058E+03  0.00000000000E+00 0.  1.
         13   -1    0    0    0    0 -0.00000000000E+00 -0.00000000000E+00 -0.10000000000E+04  0.10000000000E+04  0.00000000000E+00 0.  1.
    9000005    2    1    2  501    0  0.37452641361E-01  0.11299488194E+00 -0.89240414418E+03  0.11075157679E+04  0.65590091135E+03 0.  0.
         13    1    3    3    0    0 -0.28565131435E+03  0.86335653534E+02 -0.67586676899E+03  0.73881419037E+03  0.00000000000E+00 0.  1.
          3    1    3    3  501    0  0.28568876699E+03 -0.86222658652E+02 -0.21653737518E+03  0.36870157756E+03  0.00000000000E+00 0.  1.
         21    1    1    2  502  501 -0.37452641361E-01 -0.11299488194E+00  0.48424755144E-01  0.12851264763E+00  0.00000000000E+00 0. -1.
<mgrwt>
<rscale>  1 0.65590092E+03</rscale>
<asrwt>0</asrwt>
<pdfrwt beam="1">  1        1 0.39143457E+00 0.65590092E+03</pdfrwt>
<pdfrwt beam="2">0</pdfrwt>
<totfact> 0.14589104E+00</totfact>
</mgrwt>
</event>
<event>
 6    1  0.6152586E-003  0.6454668E+03  0.7818608E-02  0.9815323E-01
          1   -1    0    0  502    0  0.00000000000E+00  0.00000000000E+00  0.10530863249E+03  0.10530863249E+03  0.00000000000E+00 0.  1.
         13   -1    0    0    0    0 -0.00000000000E+00 -0.00000000000E+00 -0.10000000000E+04  0.10000000000E+04  0.00000000000E+00 0.  1.
    9000005    2    1    2  501    0  0.29428010896E+01 -0.12643285775E+01 -0.89242327065E+03  0.11013839837E+04  0.64545884986E+03 0.  0.
         13    1    3    3    0    0 -0.26973698726E+03 -0.76605956921E+02 -0.71358160811E+03  0.76669761078E+03  0.00000000000E+00 0.  1.
          1    1    3    3  501    0  0.27267978835E+03  0.75341628343E+02 -0.17884166253E+03  0.33468637288E+03  0.00000000000E+00 0.  1.
         21    1    1    2  502  501 -0.29428010896E+01  0.12643285775E+01 -0.22680968693E+01  0.39246488267E+01  0.00000000000E+00 0.  1.
<mgrwt>
<rscale>  1 0.64546680E+03</rscale>
<asrwt>0</asrwt>
<pdfrwt beam="1">  1        1 0.38294129E+00 0.64546680E+03</pdfrwt>
<pdfrwt beam="2">0</pdfrwt>
<totfact> 0.15939589E+00</totfact>
</mgrwt>
</event>
<event>
 6    1  0.6152586E-003  0.6314339E+03  0.7818608E-02  0.9842255E-01
          1   -1    0    0  502    0  0.00000000000E+00  0.00000000000E+00  0.10000218613E+03  0.10000218613E+03  0.00000000000E+00 0.  1.
         13   -1    0    0    0    0 -0.00000000000E+00 -0.00000000000E+00 -0.10000000000E+04  0.10000000000E+04  0.00000000000E+00 0.  1.
    9000005    2    1    2  501    0 -0.14603644078E+00 -0.90940484616E-01 -0.90029760583E+03  0.10996565389E+04  0.63143384041E+03 0.  0.
         13    1    3    3    0    0 -0.12347595295E+03 -0.22094050871E+03 -0.12139458530E+03  0.28070921732E+03  0.00000000000E+00 0.  1.
          1    1    3    3  501    0  0.12332991651E+03  0.22084956822E+03 -0.77890302053E+03  0.81894732155E+03  0.00000000000E+00 0.  1.
         21    1    1    2  502  501  0.14603644078E+00  0.90940484616E-01  0.29979195854E+00  0.34564726555E+00  0.00000000000E+00 0. -1.
<mgrwt>
<rscale>  1 0.63143386E+03</rscale>
<asrwt>0</asrwt>
<pdfrwt beam="1">  1        1 0.36364508E+00 0.63143386E+03</pdfrwt>
<pdfrwt beam="2">0</pdfrwt>
<totfact> 0.19429606E+00</totfact>
</mgrwt>
</event>
<event>
 6    1  0.6152586E-003  0.6749630E+03  0.7818608E-02  0.9761033E-01
          1   -1    0    0  502    0  0.00000000000E+00  0.00000000000E+00  0.11797915214E+03  0.11797915214E+03  0.00000000000E+00 0.  1.
         13   -1    0    0    0    0 -0.00000000000E+00 -0.00000000000E+00 -0.10000000000E+04  0.10000000000E+04  0.00000000000E+00 0.  1.
    9000005    2    1    2  501    0  0.39119574616E+01 -0.17758719675E+01 -0.88480560537E+03  0.11128593859E+04  0.67494932865E+03 0.  0.
         13    1    3    3    0    0 -0.10691923562E+02  0.24906775904E+03 -0.81470778504E+03  0.85199638546E+03  0.00000000000E+00 0.  1.
          1    1    3    3  501    0  0.14603881023E+02 -0.25084363101E+03 -0.70097820332E+02  0.26086300040E+03  0.00000000000E+00 0.  1.
         21    1    1    2  502  501 -0.39119574616E+01  0.17758719675E+01  0.27847575150E+01  0.51197662880E+01  0.00000000000E+00 0.  1.
<mgrwt>
<rscale>  1 0.67496300E+03</rscale>
<asrwt>0</asrwt>
<pdfrwt beam="1">  1        1 0.42901600E+00 0.67496300E+03</pdfrwt>
<pdfrwt beam="2">0</pdfrwt>
<totfact> 0.98590055E-01</totfact>
</mgrwt>
</event>
<event>
 6    1  0.6152586E-003  0.6518094E+03  0.7818608E-02  0.9803390E-01
          1   -1    0    0  502    0  0.00000000000E+00  0.00000000000E+00  0.10621388676E+03  0.10621388676E+03  0.00000000000E+00 0.  1.
         13   -1    0    0    0    0 -0.00000000000E+00 -0.00000000000E+00 -0.10000000000E+04  0.10000000000E+04  0.00000000000E+00 0.  1.
    9000005    2    1    2  501    0 -0.94770564374E-06 -0.19772625208E-05 -0.89378611559E+03  0.11062138835E+04  0.65180943206E+03 0.  0.
         13    1    3    3    0    0  0.26540218709E+03 -0.19014041415E+02 -0.76627189325E+03  0.81115502160E+03  0.00000000000E+00 0.  1.
          1    1    3    3  501    0 -0.26540218804E+03  0.19014039438E+02 -0.12751422234E+03  0.29505886194E+03  0.00000000000E+00 0.  1.
         21    1    1    2  502  501  0.94770560406E-06  0.19772625224E-05  0.23503229444E-05  0.32143010029E-05  0.00000000000E+00 0. -1.
<mgrwt>
<rscale>  1 0.65180943E+03</rscale>
<asrwt>0</asrwt>
<pdfrwt beam="1">  1        1 0.38623313E+00 0.65180943E+03</pdfrwt>
<pdfrwt beam="2">0</pdfrwt>
<totfact> 0.15396107E+00</totfact>
</mgrwt>
</event>
<event>
 6    1  0.6152586E-003  0.6498705E+03  0.7818608E-02  0.9807022E-01
          1   -1    0    0  502    0  0.00000000000E+00  0.00000000000E+00  0.10558402766E+03  0.10558402766E+03  0.00000000000E+00 0.  1.
         13   -1    0    0    0    0 -0.00000000000E+00 -0.00000000000E+00 -0.10000000000E+04  0.10000000000E+04  0.00000000000E+00 0.  1.
    9000005    2    1    2  501    0  0.12509021882E-02 -0.18343426771E-02 -0.89441571334E+03  0.11055817923E+04  0.64987047270E+03 0.  0.
         13    1    3    3    0    0 -0.61436661948E+02  0.31018927649E+03 -0.57440614972E+03  0.65569373606E+03  0.00000000000E+00 0.  1.
          3    1    3    3  501    0  0.61437912850E+02 -0.31019111083E+03 -0.32000956362E+03  0.44988805628E+03  0.00000000000E+00 0.  1.
         21    1    1    2  502  501 -0.12509021882E-02  0.18343426771E-02 -0.25899515815E-03  0.22353182846E-02  0.00000000000E+00 0. -1.
<mgrwt>
<rscale>  1 0.64987047E+03</rscale>
<asrwt>0</asrwt>
<pdfrwt beam="1">  1        1 0.38394273E+00 0.64987047E+03</pdfrwt>
<pdfrwt beam="2">0</pdfrwt>
<totfact> 0.15765143E+00</totfact>
</mgrwt>
</event>
<event>
 6    1  0.6152586E-003  0.6481902E+03  0.7818608E-02  0.9810181E-01
          1   -1    0    0  502    0  0.00000000000E+00  0.00000000000E+00  0.10506252594E+03  0.10506252594E+03  0.00000000000E+00 0.  1.
         13   -1    0    0    0    0 -0.00000000000E+00 -0.00000000000E+00 -0.10000000000E+04  0.10000000000E+04  0.00000000000E+00 0.  1.
    9000005    2    1    2  501    0  0.21668917054E-02  0.31001281823E-02 -0.89496220242E+03  0.11050375100E+04  0.64819021492E+03 0.  0.
         13    1    3    3    0    0 -0.41011268265E+02 -0.20860459063E+03 -0.30449734479E+02  0.21476728263E+03  0.00000000000E+00 0.  1.
          1    1    3    3  501    0  0.41013435157E+02  0.20860769076E+03 -0.86451246794E+03  0.89027022736E+03  0.00000000000E+00 0.  1.
         21    1    1    2  502  501 -0.21668917054E-02 -0.31001281823E-02  0.24728358921E-01  0.25015953896E-01  0.00000000000E+00 0. -1.
<mgrwt>
<rscale>  1 0.64819021E+03</rscale>
<asrwt>0</asrwt>
<pdfrwt beam="1">  1        1 0.38204635E+00 0.64819021E+03</pdfrwt>
<pdfrwt beam="2">0</pdfrwt>
<totfact> 0.16077261E+00</totfact>
</mgrwt>
</event>
<event>
 6    1  0.6152586E-003  0.6522359E+03  0.7818608E-02  0.9802593E-01
          1   -1    0    0  502    0  0.00000000000E+00  0.00000000000E+00  0.10635294674E+03  0.10635294674E+03  0.00000000000E+00 0.  1.
         13   -1    0    0    0    0 -0.00000000000E+00 -0.00000000000E+00 -0.10000000000E+04  0.10000000000E+04  0.00000000000E+00 0.  1.
    9000005    2    1    2  501    0  0.23497357120E-04  0.72699080050E-04 -0.89364692808E+03  0.11063528001E+04  0.65223591300E+03 0.  0.
         13    1    3    3    0    0 -0.26658454465E+03 -0.18050311049E+03 -0.35861518989E+03  0.48192691019E+03  0.00000000000E+00 0.  1.
          3    1    3    3  501    0  0.26658456815E+03  0.18050318319E+03 -0.53503173819E+03  0.62442588991E+03  0.00000000000E+00 0.  1.
         21    1    1    2  502  501 -0.23497357147E-04 -0.72699080042E-04 -0.12517560970E-03  0.14664997544E-03  0.00000000000E+00 0.  1.
<mgrwt>
<rscale>  1 0.65223591E+03</rscale>
<asrwt>0</asrwt>
<pdfrwt beam="1">  1        1 0.38673880E+00 0.65223591E+03</pdfrwt>
<pdfrwt beam="2">0</pdfrwt>
<totfact> 0.15315750E+00</totfact>
</mgrwt>
</event>
<event>
 6    1  0.6152586E-003  0.6551147E+03  0.7818608E-02  0.9797229E-01
          1   -1    0    0  502    0  0.00000000000E+00  0.00000000000E+00  0.11750724633E+03  0.11750724633E+03  0.00000000000E+00 0.  1.
         13   -1    0    0    0    0 -0.00000000000E+00 -0.00000000000E+00 -0.10000000000E+04  0.10000000000E+04  0.00000000000E+00 0.  1.
    9000005    2    1    2  501    0  0.24829915048E+01  0.82968201014E+00 -0.89252008242E+03  0.11071438038E+04  0.65510949555E+03 0.  0.
         13    1    3    3    0    0 -0.34517528448E+02  0.31909463268E+03 -0.55944672537E+03  0.64497556768E+03  0.00000000000E+00 0.  1.
          1    1    3    3  501    0  0.37000519953E+02 -0.31826495067E+03 -0.33307335706E+03  0.46216823613E+03  0.00000000000E+00 0.  1.
         21    1    1    2  502  501 -0.24829915048E+01 -0.82968201014E+00  0.10027328756E+02  0.10363442528E+02  0.00000000000E+00 0. -1.
<mgrwt>
<rscale>  1 0.65511473E+03</rscale>
<asrwt>0</asrwt>
<pdfrwt beam="1">  1        1 0.42729998E+00 0.65511473E+03</pdfrwt>
<pdfrwt beam="2">0</pdfrwt>
<totfact> 0.10076578E+00</totfact>
</mgrwt>
</event>
<event>
 6    1  0.6152586E-003  0.6694239E+03  0.7818608E-02  0.9770999E-01
          1   -1    0    0  502    0  0.00000000000E+00  0.00000000000E+00  0.11203813358E+03  0.11203813358E+03  0.00000000000E+00 0.  1.
         13   -1    0    0    0    0 -0.00000000000E+00 -0.00000000000E+00 -0.10000000000E+04  0.10000000000E+04  0.00000000000E+00 0.  1.
    9000005    2    1    2  501    0 -0.55402823929E-02  0.91202538259E-02 -0.88796210285E+03  0.11120274598E+04  0.66942391288E+03 0.  0.
         13    1    3    3    0    0  0.26547475333E+03 -0.19258896084E+03 -0.55493183908E+03  0.64460584741E+03  0.00000000000E+00 0.  1.
          3    1    3    3  501    0 -0.26548029361E+03  0.19259808109E+03 -0.33303026377E+03  0.46742161239E+03  0.00000000000E+00 0.  1.
         21    1    1    2  502  501  0.55402823929E-02 -0.91202538259E-02  0.23642204389E-03  0.10673783501E-01  0.00000000000E+00 0.  1.
<mgrwt>
<rscale>  1 0.66942391E+03</rscale>
<asrwt>0</asrwt>
<pdfrwt beam="1">  1        1 0.40741225E+00 0.66942391E+03</pdfrwt>
<pdfrwt beam="2">0</pdfrwt>
<totfact> 0.12350965E+00</totfact>
</mgrwt>
</event>
<event>
 6    1  0.6152586E-003  0.6518669E+03  0.7818608E-02  0.9803282E-01
          1   -1    0    0  502    0  0.00000000000E+00  0.00000000000E+00  0.10634524450E+03  0.10634524450E+03  0.00000000000E+00 0.  1.
         13   -1    0    0    0    0 -0.00000000000E+00 -0.00000000000E+00 -0.10000000000E+04  0.10000000000E+04  0.00000000000E+00 0.  1.
    9000005    2    1    2  501    0  0.52620914772E-04 -0.24755302544E-02 -0.89376738320E+03  0.11062325896E+04  0.65186686292E+03 0.  0.
         13    1    3    3    0    0 -0.66111625727E+02  0.18637743615E+03 -0.72103388336E+01  0.19788705048E+03  0.00000000000E+00 0.  1.
          1    1    3    3  501    0  0.66111678348E+02 -0.18637991168E+03 -0.88655704437E+03  0.90834553910E+03  0.00000000000E+00 0.  1.
         21    1    1    2  502  501 -0.52620914771E-04  0.24755302544E-02  0.11262770208E+00  0.11265491687E+00  0.00000000000E+00 0. -1.
<mgrwt>
<rscale>  1 0.65186686E+03</rscale>
<asrwt>0</asrwt>
<pdfrwt beam="1">  1        1 0.38671080E+00 0.65186686E+03</pdfrwt>
<pdfrwt beam="2">0</pdfrwt>
<totfact> 0.15321168E+00</totfact>
</mgrwt>
</event>
<event>
 6    1  0.6152586E-003  0.6785388E+03  0.7818608E-02  0.9754654E-01
          1   -1    0    0  502    0  0.00000000000E+00  0.00000000000E+00  0.11678401228E+03  0.11678401228E+03  0.00000000000E+00 0.  1.
         13   -1    0    0    0    0 -0.00000000000E+00 -0.00000000000E+00 -0.10000000000E+04  0.10000000000E+04  0.00000000000E+00 0.  1.
    9000005    2    1    2  501    0  0.51167553527E-01  0.25777870861E-01 -0.88489571354E+03  0.11151033096E+04  0.67853884488E+03 0.  0.
         13    1    3    3    0    0  0.67672745032E+02  0.27021038409E+03 -0.12413823495E+03  0.30496483972E+03  0.00000000000E+00 0.  1.
          1    1    3    3  501    0 -0.67621577479E+02 -0.27018460622E+03 -0.76075747859E+03  0.81013846990E+03  0.00000000000E+00 0.  1.
         21    1    1    2  502  501 -0.51167553527E-01 -0.25777870861E-01  0.16797258162E+01  0.16807026610E+01  0.00000000000E+00 0. -1.
<mgrwt>
<rscale>  1 0.67853885E+03</rscale>
<asrwt>0</asrwt>
<pdfrwt beam="1">  1        1 0.42467003E+00 0.67853885E+03</pdfrwt>
<pdfrwt beam="2">0</pdfrwt>
<totfact> 0.10309508E+00</totfact>
</mgrwt>
</event>
<event>
 6    1  0.6152586E-003  0.6344038E+03  0.7818608E-02  0.9836493E-01
          1   -1    0    0  502    0  0.00000000000E+00  0.00000000000E+00  0.12508484219E+03  0.12508484219E+03  0.00000000000E+00 0.  1.
         13   -1    0    0    0    0 -0.00000000000E+00 -0.00000000000E+00 -0.10000000000E+04  0.10000000000E+04  0.00000000000E+00 0.  1.
    9000005    2    1    2  501    0  0.19336244157E+02 -0.11622840834E+02 -0.89352767292E+03  0.10958375092E+04  0.63400249491E+03 0.  0.
         13    1    3    3    0    0 -0.16263224593E+03 -0.27111532886E+03 -0.41096657670E+03  0.51850390174E+03  0.00000000000E+00 0.  1.
          3    1    3    3  501    0  0.18196849008E+03  0.25949248803E+03 -0.48256109623E+03  0.57733360747E+03  0.00000000000E+00 0.  1.
         21    1    1    2  502  501 -0.19336244157E+02  0.11622840834E+02  0.18612515113E+02  0.29247332972E+02  0.00000000000E+00 0.  1.
<mgrwt>
<rscale>  1 0.63440377E+03</rscale>
<asrwt>0</asrwt>
<pdfrwt beam="1">  1        1 0.45485493E+00 0.63440377E+03</pdfrwt>
<pdfrwt beam="2">0</pdfrwt>
<totfact> 0.75704812E-01</totfact>
</mgrwt>
</event>
<event>
 6    1  0.6152586E-003  0.6501568E+03  0.7818608E-02  0.9806485E-01
          1   -1    0    0  502    0  0.00000000000E+00  0.00000000000E+00  0.10996305466E+03  0.10996305466E+03  0.00000000000E+00 0.  1.
         13   -1    0    0    0    0 -0.00000000000E+00 -0.00000000000E+00 -0.10000000000E+04  0.10000000000E+04  0.00000000000E+00 0.  1.
    9000005    2    1    2  501    0 -0.99894011835E+00  0.20294388232E+01 -0.89399166854E+03  0.11054071421E+04  0.65015285125E+03 0.  0.
         13    1    3    3    0    0  0.31905884075E+03 -0.31961222647E+02 -0.36167810361E+03  0.48335402579E+03  0.00000000000E+00 0.  1.
          1    1    3    3  501    0 -0.32005778087E+03  0.33990661470E+02 -0.53231356492E+03  0.62205311635E+03  0.00000000000E+00 0.  1.
         21    1    1    2  502  501  0.99894011835E+00 -0.20294388232E+01  0.39547231935E+01  0.45559125139E+01  0.00000000000E+00 0. -1.
<mgrwt>
<rscale>  1 0.65015679E+03</rscale>
<asrwt>0</asrwt>
<pdfrwt beam="1">  1        1 0.39986650E+00 0.65015679E+03</pdfrwt>
<pdfrwt beam="2">0</pdfrwt>
<totfact> 0.13396673E+00</totfact>
</mgrwt>
</event>
<event>
 6    1  0.6152586E-003  0.6432767E+03  0.7818608E-02  0.9819477E-01
          1   -1    0    0  502    0  0.00000000000E+00  0.00000000000E+00  0.10345132480E+03  0.10345132480E+03  0.00000000000E+00 0.  1.
         13   -1    0    0    0    0 -0.00000000000E+00 -0.00000000000E+00 -0.10000000000E+04  0.10000000000E+04  0.00000000000E+00 0.  1.
    9000005    2    1    2  501    0  0.49952110771E-04  0.10555668695E-04 -0.89654875702E+03  0.11034512284E+04  0.64327672090E+03 0.  0.
         13    1    3    3    0    0  0.18319402809E+03 -0.16037587651E+03 -0.87759854112E+02  0.25880932303E+03  0.00000000000E+00 0.  1.
          3    1    3    3  501    0 -0.18319397814E+03  0.16037588706E+03 -0.80878890291E+03  0.84464190533E+03  0.00000000000E+00 0.  1.
         21    1    1    2  502  501 -0.49952110770E-04 -0.10555668714E-04  0.81813984784E-04  0.96437355930E-04  0.00000000000E+00 0. -1.
<mgrwt>
<rscale>  1 0.64327672E+03</rscale>
<asrwt>0</asrwt>
<pdfrwt beam="1">  1        1 0.37618743E+00 0.64327672E+03</pdfrwt>
<pdfrwt beam="2">0</pdfrwt>
<totfact> 0.17078277E+00</totfact>
</mgrwt>
</event>
<event>
 6    1  0.6152586E-003  0.6527122E+03  0.7818608E-02  0.9801703E-01
          1   -1    0    0  502    0  0.00000000000E+00  0.00000000000E+00  0.10697641428E+03  0.10697641428E+03  0.00000000000E+00 0.  1.
         13   -1    0    0    0    0 -0.00000000000E+00 -0.00000000000E+00 -0.10000000000E+04  0.10000000000E+04  0.00000000000E+00 0.  1.
    9000005    2    1    2  501    0  0.20609342648E-01 -0.88790485916E-02 -0.89349139576E+03  0.11065080663E+04  0.65271220765E+03 0.  0.
         13    1    3    3    0    0 -0.29589386268E+03 -0.11063250274E+03 -0.30786476935E+03  0.44110480029E+03  0.00000000000E+00 0.  1.
          1    1    3    3  501    0  0.29591447202E+03  0.11062362370E+03 -0.58562662641E+03  0.66540326602E+03  0.00000000000E+00 0.  1.
         21    1    1    2  502  501 -0.20609342648E-01  0.88790485916E-02  0.46781003973E+00  0.46834796442E+00  0.00000000000E+00 0.  1.
<mgrwt>
<rscale>  1 0.65271221E+03</rscale>
<asrwt>0</asrwt>
<pdfrwt beam="1">  1        1 0.38900596E+00 0.65271221E+03</pdfrwt>
<pdfrwt beam="2">0</pdfrwt>
<totfact> 0.14964322E+00</totfact>
</mgrwt>
</event>
<event>
 6    1  0.6152586E-003  0.6572803E+03  0.7818608E-02  0.9793213E-01
          1   -1    0    0  502    0  0.00000000000E+00  0.00000000000E+00  0.10800434993E+03  0.10800434993E+03  0.00000000000E+00 0.  1.
         13   -1    0    0    0    0 -0.00000000000E+00 -0.00000000000E+00 -0.10000000000E+04  0.10000000000E+04  0.00000000000E+00 0.  1.
    9000005    2    1    2  501    0 -0.56270428388E-05  0.10925374326E-04 -0.89199563450E+03  0.11080043301E+04  0.65728029297E+03 0.  0.
         13    1    3    3    0    0 -0.20615796629E+03  0.12634492598E+03 -0.82120378286E+03  0.85606062891E+03  0.00000000000E+00 0.  1.
          1    1    3    3  501    0  0.20615796066E+03 -0.12634491506E+03 -0.70791851646E+02  0.25194370118E+03  0.00000000000E+00 0.  1.
         21    1    1    2  502  501  0.56270428343E-05 -0.10925374322E-04 -0.15572551170E-04  0.19837635068E-04  0.00000000000E+00 0.  1.
<mgrwt>
<rscale>  1 0.65728029E+03</rscale>
<asrwt>0</asrwt>
<pdfrwt beam="1">  1        1 0.39274392E+00 0.65728029E+03</pdfrwt>
<pdfrwt beam="2">0</pdfrwt>
<totfact> 0.14391437E+00</totfact>
</mgrwt>
</event>
<event>
 6    1  0.6152586E-003  0.6412902E+03  0.7818608E-02  0.9823261E-01
          1   -1    0    0  502    0  0.00000000000E+00  0.00000000000E+00  0.10281333996E+03  0.10281333996E+03  0.00000000000E+00 0.  1.
         13   -1    0    0    0    0 -0.00000000000E+00 -0.00000000000E+00 -0.10000000000E+04  0.10000000000E+04  0.00000000000E+00 0.  1.
    9000005    2    1    2  501    0  0.16118495296E-04  0.19730675547E-04 -0.89718672492E+03  0.11028132703E+04  0.64129017588E+03 0.  0.
         13    1    3    3    0    0 -0.15416871973E+03  0.24711552252E+03 -0.21800756260E+03  0.36381502576E+03  0.00000000000E+00 0.  1.
          3    1    3    3  501    0  0.15416873585E+03 -0.24711550279E+03 -0.67917916233E+03  0.73899824450E+03  0.00000000000E+00 0.  1.
         21    1    1    2  502  501 -0.16118495292E-04 -0.19730675550E-04  0.64881341326E-04  0.69704332006E-04  0.00000000000E+00 0. -1.
<mgrwt>
<rscale>  1 0.64129018E+03</rscale>
<asrwt>0</asrwt>
<pdfrwt beam="1">  1        1 0.37386748E+00 0.64129018E+03</pdfrwt>
<pdfrwt beam="2">0</pdfrwt>
<totfact> 0.17490975E+00</totfact>
</mgrwt>
</event>
<event>
 6    1  0.6152586E-003  0.6135403E+03  0.7818608E-02  0.9877706E-01
          1   -1    0    0  502    0  0.00000000000E+00  0.00000000000E+00  0.94108090218E+02  0.94108090218E+02  0.00000000000E+00 0.  1.
         13   -1    0    0    0    0 -0.00000000000E+00 -0.00000000000E+00 -0.10000000000E+04  0.10000000000E+04  0.00000000000E+00 0.  1.
    9000005    2    1    2  501    0  0.57575674106E-04  0.16806063172E-04 -0.90589206601E+03  0.10941079229E+04  0.61354030970E+03 0.  0.
         13    1    3    3    0    0 -0.22538713337E+03 -0.14351093772E+03 -0.18419141589E+03  0.32453232015E+03  0.00000000000E+00 0.  1.
          1    1    3    3  501    0  0.22538719095E+03  0.14351095453E+03 -0.72170065012E+03  0.76957560272E+03  0.00000000000E+00 0.  1.
         21    1    1    2  502  501 -0.57575674083E-04 -0.16806063183E-04  0.15622943275E-03  0.16734705753E-03  0.00000000000E+00 0.  1.
<mgrwt>
<rscale>  1 0.61354031E+03</rscale>
<asrwt>0</asrwt>
<pdfrwt beam="1">  1        1 0.34221196E+00 0.61354031E+03</pdfrwt>
<pdfrwt beam="2">0</pdfrwt>
<totfact> 0.24174264E+00</totfact>
</mgrwt>
</event>
<event>
 6    1  0.6152586E-003  0.6603917E+03  0.7818608E-02  0.9787473E-01
          1   -1    0    0  502    0  0.00000000000E+00  0.00000000000E+00  0.10916305813E+03  0.10916305813E+03  0.00000000000E+00 0.  1.
         13   -1    0    0    0    0 -0.00000000000E+00 -0.00000000000E+00 -0.10000000000E+04  0.10000000000E+04  0.00000000000E+00 0.  1.
    9000005    2    1    2  501    0 -0.52119822374E-03 -0.32053202176E-02 -0.89097067621E+03  0.11090292844E+04  0.66039170777E+03 0.  0.
         13    1    3    3    0    0 -0.32663137997E+03  0.47982489211E+02 -0.43500580492E+03  0.54609562164E+03  0.00000000000E+00 0.  1.
          3    1    3    3  501    0  0.32663085877E+03 -0.47985694531E+02 -0.45596487129E+03  0.56293366273E+03  0.00000000000E+00 0.  1.
         21    1    1    2  502  501  0.52119822375E-03  0.32053202176E-02  0.13373434411E+00  0.13377376619E+00  0.00000000000E+00 0. -1.
<mgrwt>
<rscale>  1 0.66039171E+03</rscale>
<asrwt>0</asrwt>
<pdfrwt beam="1">  1        1 0.39695741E+00 0.66039171E+03</pdfrwt>
<pdfrwt beam="2">0</pdfrwt>
<totfact> 0.13775819E+00</totfact>
</mgrwt>
</event>
<event>
 6    1  0.6152586E-003  0.6253866E+03  0.7818608E-02  0.9854093E-01
          1   -1    0    0  502    0  0.00000000000E+00  0.00000000000E+00  0.97780709205E+02  0.97780709205E+02  0.00000000000E+00 0.  1.
         13   -1    0    0    0    0 -0.00000000000E+00 -0.00000000000E+00 -0.10000000000E+04  0.10000000000E+04  0.00000000000E+00 0.  1.
    9000005    2    1    2  501    0 -0.62218349208E-03  0.22675077571E-02 -0.90222247137E+03  0.10977767539E+04  0.62538661120E+03 0.  0.
         13    1    3    3    0    0 -0.25442885836E+03 -0.16621889568E+03 -0.32195033472E+03  0.44273556812E+03  0.00000000000E+00 0.  1.
          3    1    3    3  501    0  0.25442823618E+03  0.16622116319E+03 -0.58027213664E+03  0.65504118574E+03  0.00000000000E+00 0.  1.
         21    1    1    2  502  501  0.62218349210E-03 -0.22675077571E-02  0.31805728100E-02  0.39553441223E-02  0.00000000000E+00 0. -1.
<mgrwt>
<rscale>  1 0.62538661E+03</rscale>
<asrwt>0</asrwt>
<pdfrwt beam="1">  1        1 0.35556697E+00 0.62538661E+03</pdfrwt>
<pdfrwt beam="2">0</pdfrwt>
<totfact> 0.21098998E+00</totfact>
</mgrwt>
</event>
<event>
 6    1  0.6152586E-003  0.6357552E+03  0.7818608E-02  0.9833882E-01
          1   -1    0    0  502    0  0.00000000000E+00  0.00000000000E+00  0.10154882690E+03  0.10154882690E+03  0.00000000000E+00 0.  1.
         13   -1    0    0    0    0 -0.00000000000E+00 -0.00000000000E+00 -0.10000000000E+04  0.10000000000E+04  0.00000000000E+00 0.  1.
    9000005    2    1    2  501    0 -0.80374315059E+00 -0.12314704666E+01 -0.89721937102E+03  0.10996305311E+04  0.63575352345E+03 0.  0.
         13    1    3    3    0    0 -0.23822996257E+03  0.16955032200E+02 -0.81251912912E+03  0.84689333648E+03  0.00000000000E+00 0.  1.
          3    1    3    3  501    0  0.23742621942E+03 -0.18186502666E+02 -0.84700241899E+02  0.25273719458E+03  0.00000000000E+00 0.  1.
         21    1    1    2  502  501  0.80374315059E+00  0.12314704666E+01 -0.12318020846E+01  0.19182958421E+01  0.00000000000E+00 0.  1.
<mgrwt>
<rscale>  1 0.63575522E+03</rscale>
<asrwt>0</asrwt>
<pdfrwt beam="1">  1        1 0.36926924E+00 0.63575522E+03</pdfrwt>
<pdfrwt beam="2">0</pdfrwt>
<totfact> 0.18342618E+00</totfact>
</mgrwt>
</event>
<event>
 6    1  0.6152586E-003  0.6507256E+03  0.7818608E-02  0.9805419E-01
          1   -1    0    0  502    0  0.00000000000E+00  0.00000000000E+00  0.10586096460E+03  0.10586096460E+03  0.00000000000E+00 0.  1.
         13   -1    0    0    0    0 -0.00000000000E+00 -0.00000000000E+00 -0.10000000000E+04  0.10000000000E+04  0.00000000000E+00 0.  1.
    9000005    2    1    2  501    0  0.60310709102E-05 -0.58316744003E-05 -0.89413905443E+03  0.11058609438E+04  0.65072557840E+03 0.  0.
         13    1    3    3    0    0  0.23652610895E+03 -0.15482591913E+03 -0.72080548081E+03  0.77425848824E+03  0.00000000000E+00 0.  1.
          3    1    3    3  501    0 -0.23652610292E+03  0.15482591330E+03 -0.17333357362E+03  0.33160245557E+03  0.00000000000E+00 0.  1.
         21    1    1    2  502  501 -0.60310709134E-05  0.58316744211E-05  0.19024395018E-04  0.20792062156E-04  0.00000000000E+00 0.  1.
<mgrwt>
<rscale>  1 0.65072558E+03</rscale>
<asrwt>0</asrwt>
<pdfrwt beam="1">  1        1 0.38494977E+00 0.65072558E+03</pdfrwt>
<pdfrwt beam="2">0</pdfrwt>
<totfact> 0.15601854E+00</totfact>
</mgrwt>
</event>
<event>
 6    1  0.6152586E-003  0.6427163E+03  0.7818608E-02  0.9820543E-01
          1   -1    0    0  502    0  0.00000000000E+00  0.00000000000E+00  0.10327105857E+03  0.10327105857E+03  0.00000000000E+00 0.  1.
         13   -1    0    0    0    0 -0.00000000000E+00 -0.00000000000E+00 -0.10000000000E+04  0.10000000000E+04  0.00000000000E+00 0.  1.
    9000005    2    1    2  501    0 -0.77267729921E-05 -0.12719604911E-04 -0.89672892578E+03  0.11032710370E+04  0.64271627852E+03 0.  0.
         13    1    3    3    0    0 -0.30096673670E+03  0.68661353773E+02 -0.60166626153E+03  0.67623786374E+03  0.00000000000E+00 0.  1.
          1    1    3    3  501    0  0.30096672897E+03 -0.68661366493E+02 -0.29506266426E+03  0.42703317323E+03  0.00000000000E+00 0.  1.
         21    1    1    2  502  501  0.77267730021E-05  0.12719604904E-04 -0.15650145997E-04  0.21596722892E-04  0.00000000000E+00 0.  1.
<mgrwt>
<rscale>  1 0.64271628E+03</rscale>
<asrwt>0</asrwt>
<pdfrwt beam="1">  1        1 0.37553191E+00 0.64271628E+03</pdfrwt>
<pdfrwt beam="2">0</pdfrwt>
<totfact> 0.17193932E+00</totfact>
</mgrwt>
</event>
<event>
 6    1  0.6152586E-003  0.6487854E+03  0.7818608E-02  0.9809061E-01
          1   -1    0    0  502    0  0.00000000000E+00  0.00000000000E+00  0.11008947284E+03  0.11008947284E+03  0.00000000000E+00 0.  1.
         13   -1    0    0    0    0 -0.00000000000E+00 -0.00000000000E+00 -0.10000000000E+04  0.10000000000E+04  0.00000000000E+00 0.  1.
    9000005    2    1    2  501    0  0.70462170564E+01 -0.10724135054E+02 -0.88233484537E+03  0.10951882245E+04  0.64865847061E+03 0.  0.
         13    1    3    3    0    0 -0.88388133227E+02  0.10954988974E+03  0.50693783704E+02  0.14961116317E+03  0.00000000000E+00 0.  1.
          3    1    3    3  501    0  0.95434350284E+02 -0.12027402480E+03 -0.93302862908E+03  0.94557706134E+03  0.00000000000E+00 0.  1.
         21    1    1    2  502  501 -0.70462170564E+01  0.10724135054E+02 -0.75756817834E+01  0.14901248335E+02  0.00000000000E+00 0. -1.
<mgrwt>
<rscale>  1 0.64878538E+03</rscale>
<asrwt>0</asrwt>
<pdfrwt beam="1">  1        1 0.40032620E+00 0.64878538E+03</pdfrwt>
<pdfrwt beam="2">0</pdfrwt>
<totfact> 0.13337097E+00</totfact>
</mgrwt>
</event>
<event>
 6    1  0.6152586E-003  0.6428911E+03  0.7818608E-02  0.9820211E-01
          1   -1    0    0  502    0  0.00000000000E+00  0.00000000000E+00  0.10332871984E+03  0.10332871984E+03  0.00000000000E+00 0.  1.
         13   -1    0    0    0    0 -0.00000000000E+00 -0.00000000000E+00 -0.10000000000E+04  0.10000000000E+04  0.00000000000E+00 0.  1.
    9000005    2    1    2  501    0  0.32425094105E-04 -0.19389168037E-02 -0.89667202542E+03  0.11033266424E+04  0.64289109389E+03 0.  0.
         13    1    3    3    0    0 -0.20010316880E+03 -0.23118973486E+03 -0.27811575128E+03  0.41332595222E+03  0.00000000000E+00 0.  1.
          1    1    3    3  501    0  0.20010320123E+03  0.23118779595E+03 -0.61855627414E+03  0.69000069015E+03  0.00000000000E+00 0.  1.
         21    1    1    2  502  501 -0.32425094100E-04  0.19389168037E-02  0.74525375933E-03  0.20774630981E-02  0.00000000000E+00 0.  1.
<mgrwt>
<rscale>  1 0.64289109E+03</rscale>
<asrwt>0</asrwt>
<pdfrwt beam="1">  1        1 0.37574159E+00 0.64289109E+03</pdfrwt>
<pdfrwt beam="2">0</pdfrwt>
<totfact> 0.17156871E+00</totfact>
</mgrwt>
</event>
<event>
 6    1  0.6152586E-003  0.6775376E+03  0.7818608E-02  0.9756436E-01
          1   -1    0    0  502    0  0.00000000000E+00  0.00000000000E+00  0.11476429572E+03  0.11476429572E+03  0.00000000000E+00 0.  1.
         13   -1    0    0    0    0 -0.00000000000E+00 -0.00000000000E+00 -0.10000000000E+04  0.10000000000E+04  0.00000000000E+00 0.  1.
    9000005    2    1    2  501    0 -0.50688571491E-05 -0.73707292358E-06 -0.88523571173E+03  0.11147642867E+04  0.67753756319E+03 0.  0.
         13    1    3    3    0    0  0.24333921966E+03 -0.18301155227E+03 -0.19826146406E+03  0.36333842656E+03  0.00000000000E+00 0.  1.
          1    1    3    3  501    0 -0.24333922473E+03  0.18301155153E+03 -0.68697424767E+03  0.75142586012E+03  0.00000000000E+00 0.  1.
         21    1    1    2  502  501  0.50688571555E-05  0.73707293801E-06  0.74517253850E-05  0.90423890976E-05  0.00000000000E+00 0. -1.
<mgrwt>
<rscale>  1 0.67753756E+03</rscale>
<asrwt>0</asrwt>
<pdfrwt beam="1">  1        1 0.41732559E+00 0.67753756E+03</pdfrwt>
<pdfrwt beam="2">0</pdfrwt>
<totfact> 0.11130067E+00</totfact>
</mgrwt>
</event>
<event>
 6    1  0.6152586E-003  0.6781674E+03  0.7818608E-02  0.9755315E-01
          1   -1    0    0  502    0  0.00000000000E+00  0.00000000000E+00  0.11512762528E+03  0.11512762528E+03  0.00000000000E+00 0.  1.
         13   -1    0    0    0    0 -0.00000000000E+00 -0.00000000000E+00 -0.10000000000E+04  0.10000000000E+04  0.00000000000E+00 0.  1.
    9000005    2    1    2  501    0  0.34845126674E-02 -0.23452827146E-02 -0.88502220003E+03  0.11149777411E+04  0.67816743405E+03 0.  0.
         13    1    3    3    0    0  0.23687787169E+03 -0.18612952544E+02 -0.44785484638E+02  0.24179186863E+03  0.00000000000E+00 0.  1.
          1    1    3    3  501    0 -0.23687438718E+03  0.18610607261E+02 -0.84023671539E+03  0.87318587248E+03  0.00000000000E+00 0.  1.
         21    1    1    2  502  501 -0.34845126674E-02  0.23452827146E-02  0.14982531288E+00  0.14988417715E+00  0.00000000000E+00 0.  1.
<mgrwt>
<rscale>  1 0.67816743E+03</rscale>
<asrwt>0</asrwt>
<pdfrwt beam="1">  1        1 0.41864679E+00 0.67816743E+03</pdfrwt>
<pdfrwt beam="2">0</pdfrwt>
<totfact> 0.10977133E+00</totfact>
</mgrwt>
</event>
<event>
 6    1  0.6152586E-003  0.5125389E+03  0.7818608E-02  0.1010557E+00
          1   -1    0    0  502    0  0.00000000000E+00  0.00000000000E+00  0.65674122741E+02  0.65674122741E+02  0.00000000000E+00 0.  1.
         13   -1    0    0    0    0 -0.00000000000E+00 -0.00000000000E+00 -0.10000000000E+04  0.10000000000E+04  0.00000000000E+00 0.  1.
    9000005    2    1    2  501    0  0.43032869598E-04 -0.22971532864E-04 -0.93432594935E+03  0.10656740357E+04  0.51253894557E+03 0.  0.
         13    1    3    3    0    0  0.23402286533E+03  0.41897771753E+02 -0.26825430317E+03  0.35844455073E+03  0.00000000000E+00 0.  1.
          3    1    3    3  501    0 -0.23402282230E+03 -0.41897794724E+02 -0.66607164618E+03  0.70722948497E+03  0.00000000000E+00 0.  1.
         21    1    1    2  502  501 -0.43032869584E-04  0.22971532870E-04  0.72093583460E-04  0.87045987634E-04  0.00000000000E+00 0.  1.
<mgrwt>
<rscale>  1 0.51253895E+03</rscale>
<asrwt>0</asrwt>
<pdfrwt beam="1">  1        1 0.23881550E+00 0.51253895E+03</pdfrwt>
<pdfrwt beam="2">0</pdfrwt>
<totfact> 0.68957246E+00</totfact>
</mgrwt>
</event>
<event>
 6    1  0.6152586E-003  0.6443996E+03  0.7818608E-02  0.9817345E-01
          1   -1    0    0  502    0  0.00000000000E+00  0.00000000000E+00  0.10667997291E+03  0.10667997291E+03  0.00000000000E+00 0.  1.
         13   -1    0    0    0    0 -0.00000000000E+00 -0.00000000000E+00 -0.10000000000E+04  0.10000000000E+04  0.00000000000E+00 0.  1.
    9000005    2    1    2  501    0 -0.14333771845E+00 -0.21637162808E+00 -0.89618079578E+03  0.11038074549E+04  0.64439957429E+03 0.  0.
         13    1    3    3    0    0  0.10151017648E+03  0.29018322233E+03 -0.28340473950E+03  0.41812541757E+03  0.00000000000E+00 0.  1.
          1    1    3    3  501    0 -0.10165351420E+03 -0.29039959396E+03 -0.61277605629E+03  0.68568203730E+03  0.00000000000E+00 0.  1.
         21    1    1    2  502  501  0.14333771845E+00  0.21637162808E+00  0.28607686912E+01  0.28725180396E+01  0.00000000000E+00 0.  1.
<mgrwt>
<rscale>  1 0.64439963E+03</rscale>
<asrwt>0</asrwt>
<pdfrwt beam="1">  1        1 0.38792799E+00 0.64439963E+03</pdfrwt>
<pdfrwt beam="2">0</pdfrwt>
<totfact> 0.15153251E+00</totfact>
</mgrwt>
</event>
<event>
 6    1  0.6152586E-003  0.6430055E+03  0.7818608E-02  0.9819993E-01
          1   -1    0    0  502    0  0.00000000000E+00  0.00000000000E+00  0.10959454072E+03  0.10959454072E+03  0.00000000000E+00 0.  1.
         13   -1    0    0    0    0 -0.00000000000E+00 -0.00000000000E+00 -0.10000000000E+04  0.10000000000E+04  0.00000000000E+00 0.  1.
    9000005    2    1    2  501    0  0.83719796253E+01  0.16014670376E+01 -0.89324509429E+03  0.11006102062E+04  0.64294896594E+03 0.  0.
         13    1    3    3    0    0  0.21694837631E+03  0.13059834773E+02 -0.86250780684E+03  0.88946999619E+03  0.00000000000E+00 0.  1.
          3    1    3    3  501    0 -0.20857639669E+03 -0.11458367736E+02 -0.30737287450E+02  0.21114021002E+03  0.00000000000E+00 0.  1.
         21    1    1    2  502  501 -0.83719796253E+01 -0.16014670376E+01  0.28396350070E+01  0.89843345047E+01  0.00000000000E+00 0. -1.
<mgrwt>
<rscale>  1 0.64300546E+03</rscale>
<asrwt>0</asrwt>
<pdfrwt beam="1">  1        1 0.39852644E+00 0.64300546E+03</pdfrwt>
<pdfrwt beam="2">0</pdfrwt>
<totfact> 0.13600644E+00</totfact>
</mgrwt>
</event>
<event>
 6    1  0.6152586E-003  0.6377018E+03  0.7818608E-02  0.9830133E-01
          1   -1    0    0  502    0  0.00000000000E+00  0.00000000000E+00  0.10166590926E+03  0.10166590926E+03  0.00000000000E+00 0.  1.
         13   -1    0    0    0    0 -0.00000000000E+00 -0.00000000000E+00 -0.10000000000E+04  0.10000000000E+04  0.00000000000E+00 0.  1.
    9000005    2    1    2  501    0  0.63869663336E-06  0.10860020438E-05 -0.89833409088E+03  0.11016659080E+04  0.63770183785E+03 0.  0.
         13    1    3    3    0    0  0.21077382955E+03 -0.23841481575E+03 -0.48366097788E+03  0.57896042449E+03  0.00000000000E+00 0.  1.
          3    1    3    3  501    0 -0.21077382891E+03  0.23841481684E+03 -0.41467311299E+03  0.52270548350E+03  0.00000000000E+00 0.  1.
         21    1    1    2  502  501 -0.63869663353E-06 -0.10860020303E-05  0.13551776987E-06  0.12671617361E-05  0.00000000000E+00 0. -1.
<mgrwt>
<rscale>  1 0.63770184E+03</rscale>
<asrwt>0</asrwt>
<pdfrwt beam="1">  1        1 0.36969500E+00 0.63770184E+03</pdfrwt>
<pdfrwt beam="2">0</pdfrwt>
<totfact> 0.18257357E+00</totfact>
</mgrwt>
</event>
<event>
 6    1  0.6152586E-003  0.6524418E+03  0.7818608E-02  0.9802208E-01
          1   -1    0    0  502    0  0.00000000000E+00  0.00000000000E+00  0.10642114163E+03  0.10642114163E+03  0.00000000000E+00 0.  1.
         13   -1    0    0    0    0 -0.00000000000E+00 -0.00000000000E+00 -0.10000000000E+04  0.10000000000E+04  0.00000000000E+00 0.  1.
    9000005    2    1    2  501    0  0.66753940246E-04  0.90718401680E-05 -0.89357992630E+03  0.11064200716E+04  0.65244179059E+03 0.  0.
         13    1    3    3    0    0 -0.28586875281E+03  0.13219218208E+03 -0.30265232197E+03  0.43679989106E+03  0.00000000000E+00 0.  1.
          1    1    3    3  501    0  0.28586881956E+03 -0.13219217301E+03 -0.59092760433E+03  0.66962018052E+03  0.00000000000E+00 0.  1.
         21    1    1    2  502  501 -0.66753940225E-04 -0.90718401461E-05  0.10679254743E-02  0.10700482257E-02  0.00000000000E+00 0. -1.
<mgrwt>
<rscale>  1 0.65244179E+03</rscale>
<asrwt>0</asrwt>
<pdfrwt beam="1">  1        1 0.38698679E+00 0.65244179E+03</pdfrwt>
<pdfrwt beam="2">0</pdfrwt>
<totfact> 0.15276497E+00</totfact>
</mgrwt>
</event>
<event>
 6    1  0.6152586E-003  0.6339260E+03  0.7818608E-02  0.9837417E-01
          1   -1    0    0  502    0  0.00000000000E+00  0.00000000000E+00  0.10049955191E+03  0.10049955191E+03  0.00000000000E+00 0.  1.
         13   -1    0    0    0    0 -0.00000000000E+00 -0.00000000000E+00 -0.10000000000E+04  0.10000000000E+04  0.00000000000E+00 0.  1.
    9000005    2    1    2  501    0 -0.31843901410E-02  0.63775288844E-02 -0.89953403438E+03  0.11004652175E+04  0.63392603342E+03 0.  0.
         13    1    3    3    0    0 -0.23613757697E+03 -0.16107219699E+03 -0.21199754444E+03  0.35587661731E+03  0.00000000000E+00 0.  1.
          3    1    3    3  501    0  0.23613439258E+03  0.16107857451E+03 -0.68753648994E+03  0.74458860018E+03  0.00000000000E+00 0.  1.
         21    1    1    2  502  501  0.31843901410E-02 -0.63775288843E-02  0.33586293416E-01  0.34334418892E-01  0.00000000000E+00 0.  1.
<mgrwt>
<rscale>  1 0.63392603E+03</rscale>
<asrwt>0</asrwt>
<pdfrwt beam="1">  1        1 0.36545369E+00 0.63392603E+03</pdfrwt>
<pdfrwt beam="2">0</pdfrwt>
<totfact> 0.19069678E+00</totfact>
</mgrwt>
</event>
<event>
 6    1  0.6152586E-003  0.6513824E+03  0.7818608E-02  0.9804189E-01
          1   -1    0    0  502    0  0.00000000000E+00  0.00000000000E+00  0.10607482670E+03  0.10607482670E+03  0.00000000000E+00 0.  1.
         13   -1    0    0    0    0 -0.00000000000E+00 -0.00000000000E+00 -0.10000000000E+04  0.10000000000E+04  0.00000000000E+00 0.  1.
    9000005    2    1    2  501    0 -0.40785161275E-05  0.14470863420E-04 -0.89392523274E+03  0.11060747654E+04  0.65138242598E+03 0.  0.
         13    1    3    3    0    0 -0.23303870010E+03  0.12506273861E+03 -0.12421380095E+03  0.29219307432E+03  0.00000000000E+00 0.  1.
          3    1    3    3  501    0  0.23303869602E+03 -0.12506272414E+03 -0.76971143179E+03  0.81388169106E+03  0.00000000000E+00 0.  1.
         21    1    1    2  502  501  0.40785161392E-05 -0.14470863421E-04  0.59445522099E-04  0.61317291848E-04  0.00000000000E+00 0.  1.
<mgrwt>
<rscale>  1 0.65138243E+03</rscale>
<asrwt>0</asrwt>
<pdfrwt beam="1">  1        1 0.38572746E+00 0.65138243E+03</pdfrwt>
<pdfrwt beam="2">0</pdfrwt>
<totfact> 0.15476867E+00</totfact>
</mgrwt>
</event>
<event>
 6    1  0.6152586E-003  0.6507415E+03  0.7818608E-02  0.9805389E-01
          1   -1    0    0  502    0  0.00000000000E+00  0.00000000000E+00  0.10586878599E+03  0.10586878599E+03  0.00000000000E+00 0.  1.
         13   -1    0    0    0    0 -0.00000000000E+00 -0.00000000000E+00 -0.10000000000E+04  0.10000000000E+04  0.00000000000E+00 0.  1.
    9000005    2    1    2  501    0 -0.10102395158E-03  0.17750920443E-03 -0.89413386106E+03  0.11058661311E+04  0.65074152961E+03 0.  0.
         13    1    3    3    0    0  0.23594660682E+02 -0.30394747275E+03 -0.64027005704E+03  0.70914492182E+03  0.00000000000E+00 0.  1.
          1    1    3    3  501    0 -0.23594761706E+02  0.30394765026E+03 -0.25386380402E+03  0.39672120925E+03  0.00000000000E+00 0.  1.
         21    1    1    2  502  501  0.10102395157E-03 -0.17750920444E-03  0.26470487424E-02  0.26549166467E-02  0.00000000000E+00 0. -1.
<mgrwt>
<rscale>  1 0.65074153E+03</rscale>
<asrwt>0</asrwt>
<pdfrwt beam="1">  1        1 0.38497822E+00 0.65074153E+03</pdfrwt>
<pdfrwt beam="2">0</pdfrwt>
<totfact> 0.15597290E+00</totfact>
</mgrwt>
</event>
<event>
 6    1  0.6152586E-003  0.6461091E+03  0.7818608E-02  0.9814108E-01
          1   -1    0    0  502    0  0.00000000000E+00  0.00000000000E+00  0.10436427684E+03  0.10436427684E+03  0.00000000000E+00 0.  1.
         13   -1    0    0    0    0 -0.00000000000E+00 -0.00000000000E+00 -0.10000000000E+04  0.10000000000E+04  0.00000000000E+00 0.  1.
    9000005    2    1    2  501    0  0.57244295590E-04 -0.87220986245E-04 -0.89563568629E+03  0.11043641662E+04  0.64610906896E+03 0.  0.
         13    1    3    3    0    0 -0.17256105113E+03  0.18568661338E+03 -0.79012698553E+03  0.82979364183E+03  0.00000000000E+00 0.  1.
          3    1    3    3  501    0  0.17256110838E+03 -0.18568670060E+03 -0.10550870075E+03  0.27457052435E+03  0.00000000000E+00 0.  1.
         21    1    1    2  502  501 -0.57244295592E-04  0.87220986229E-04 -0.36877070274E-04  0.11065409224E-03  0.00000000000E+00 0.  1.
<mgrwt>
<rscale>  1 0.64610907E+03</rscale>
<asrwt>0</asrwt>
<pdfrwt beam="1">  1        1 0.37950726E+00 0.64610907E+03</pdfrwt>
<pdfrwt beam="2">0</pdfrwt>
<totfact> 0.16503865E+00</totfact>
</mgrwt>
</event>
<event>
 6    1  0.6152586E-003  0.6495450E+03  0.7818608E-02  0.9807633E-01
          1   -1    0    0  502    0  0.00000000000E+00  0.00000000000E+00  0.10548025213E+03  0.10548025213E+03  0.00000000000E+00 0.  1.
         13   -1    0    0    0    0 -0.00000000000E+00 -0.00000000000E+00 -0.10000000000E+04  0.10000000000E+04  0.00000000000E+00 0.  1.
    9000005    2    1    2  501    0 -0.90646875500E-02 -0.15504983299E-02 -0.89451057383E+03  0.11054672623E+04  0.64954499554E+03 0.  0.
         13    1    3    3    0    0 -0.12060283496E+03 -0.29592030436E+03 -0.54598194277E+03  0.63262165009E+03  0.00000000000E+00 0.  1.
          1    1    3    3  501    0  0.12059377027E+03  0.29591875386E+03 -0.34852863106E+03  0.47284561221E+03  0.00000000000E+00 0.  1.
         21    1    1    2  502  501  0.90646875500E-02  0.15504983299E-02 -0.91740444806E-02  0.12989830545E-01  0.00000000000E+00 0. -1.
<mgrwt>
<rscale>  1 0.64954500E+03</rscale>
<asrwt>0</asrwt>
<pdfrwt beam="1">  1        1 0.38356536E+00 0.64954500E+03</pdfrwt>
<pdfrwt beam="2">0</pdfrwt>
<totfact> 0.15826764E+00</totfact>
</mgrwt>
</event>
<event>
 6    1  0.6152586E-003  0.6495112E+03  0.7818608E-02  0.9807697E-01
          1   -1    0    0  502    0  0.00000000000E+00  0.00000000000E+00  0.10547165935E+03  0.10547165935E+03  0.00000000000E+00 0.  1.
         13   -1    0    0    0    0 -0.00000000000E+00 -0.00000000000E+00 -0.10000000000E+04  0.10000000000E+04  0.00000000000E+00 0.  1.
    9000005    2    1    2  501    0 -0.62160385525E-04  0.62279042822E-04 -0.89453380588E+03  0.11054661934E+04  0.64951118151E+03 0.  0.
         13    1    3    3    0    0 -0.81231229211E+02 -0.18488294727E+03 -0.14390515346E+02  0.20245321366E+03  0.00000000000E+00 0.  1.
          1    1    3    3  501    0  0.81231167050E+02  0.18488300955E+03 -0.88014329054E+03  0.90301297975E+03  0.00000000000E+00 0.  1.
         21    1    1    2  502  501  0.62160385534E-04 -0.62279042799E-04  0.54652263277E-02  0.54659346324E-02  0.00000000000E+00 0. -1.
<mgrwt>
<rscale>  1 0.64951118E+03</rscale>
<asrwt>0</asrwt>
<pdfrwt beam="1">  1        1 0.38353412E+00 0.64951118E+03</pdfrwt>
<pdfrwt beam="2">0</pdfrwt>
<totfact> 0.15831896E+00</totfact>
</mgrwt>
</event>
<event>
 6    1  0.6152586E-003  0.6479801E+03  0.7818608E-02  0.9810577E-01
          1   -1    0    0  502    0  0.00000000000E+00  0.00000000000E+00  0.11732281728E+03  0.11732281728E+03  0.00000000000E+00 0.  1.
         13   -1    0    0    0    0 -0.00000000000E+00 -0.00000000000E+00 -0.10000000000E+04  0.10000000000E+04  0.00000000000E+00 0.  1.
    9000005    2    1    2  501    0  0.13498548602E-01  0.18059460867E+00 -0.89502972980E+03  0.11049689427E+04  0.64798002625E+03 0.  0.
         13    1    3    3    0    0 -0.26209809448E+03  0.11127825447E+03 -0.71121872369E+03  0.76610073357E+03  0.00000000000E+00 0.  1.
          1    1    3    3  501    0  0.26211159303E+03 -0.11109765986E+03 -0.18381100611E+03  0.33886820918E+03  0.00000000000E+00 0.  1.
         21    1    1    2  502  501 -0.13498548602E-01 -0.18059460867E+00  0.12352547079E+02  0.12353874533E+02  0.00000000000E+00 0.  1.
<mgrwt>
<rscale>  1 0.64798005E+03</rscale>
<asrwt>0</asrwt>
<pdfrwt beam="1">  1        1 0.42662933E+00 0.64798005E+03</pdfrwt>
<pdfrwt beam="2">0</pdfrwt>
<totfact> 0.10161798E+00</totfact>
</mgrwt>
</event>
<event>
 6    1  0.6152586E-003  0.6499845E+03  0.7818608E-02  0.9806808E-01
          1   -1    0    0  502    0  0.00000000000E+00  0.00000000000E+00  0.10563938149E+03  0.10563938149E+03  0.00000000000E+00 0.  1.
         13   -1    0    0    0    0 -0.00000000000E+00 -0.00000000000E+00 -0.10000000000E+04  0.10000000000E+04  0.00000000000E+00 0.  1.
    9000005    2    1    2  501    0  0.17406164744E-03  0.20842238638E-03 -0.89438003623E+03  0.11056199619E+04  0.64998450050E+03 0.  0.
         13    1    3    3    0    0 -0.18652689009E+03  0.15931705757E+02 -0.89907162655E+03  0.91835499108E+03  0.00000000000E+00 0.  1.
          1    1    3    3  501    0  0.18652706415E+03 -0.15931497334E+02  0.46915903229E+01  0.18726497080E+03  0.00000000000E+00 0.  1.
         21    1    1    2  502  501 -0.17406164746E-03 -0.20842238638E-03  0.19417719275E-01  0.19419617895E-01  0.00000000000E+00 0. -1.
<mgrwt>
<rscale>  1 0.64998450E+03</rscale>
<asrwt>0</asrwt>
<pdfrwt beam="1">  1        1 0.38414402E+00 0.64998450E+03</pdfrwt>
<pdfrwt beam="2">0</pdfrwt>
<totfact> 0.15732541E+00</totfact>
</mgrwt>
</event>
<event>
 6    1  0.6152586E-003  0.6616536E+03  0.7818608E-02  0.9785155E-01
          1   -1    0    0  502    0  0.00000000000E+00  0.00000000000E+00  0.10944993163E+03  0.10944993163E+03  0.00000000000E+00 0.  1.
         13   -1    0    0    0    0 -0.00000000000E+00 -0.00000000000E+00 -0.10000000000E+04  0.10000000000E+04  0.00000000000E+00 0.  1.
    9000005    2    1    2  501    0  0.32490288668E-02 -0.35697138234E-02 -0.89055172912E+03  0.11094448270E+04  0.66165356640E+03 0.  0.
         13    1    3    3    0    0 -0.11410863680E+03 -0.30962353579E+03 -0.48494224198E+03  0.58656328982E+03  0.00000000000E+00 0.  1.
          3    1    3    3  501    0  0.11411188583E+03  0.30961996608E+03 -0.40560948714E+03  0.52288153719E+03  0.00000000000E+00 0.  1.
         21    1    1    2  502  501 -0.32490288668E-02  0.35697138234E-02  0.16607472600E-02  0.51046181855E-02  0.00000000000E+00 0.  1.
<mgrwt>
<rscale>  1 0.66165357E+03</rscale>
<asrwt>0</asrwt>
<pdfrwt beam="1">  1        1 0.39800059E+00 0.66165357E+03</pdfrwt>
<pdfrwt beam="2">0</pdfrwt>
<totfact> 0.13626049E+00</totfact>
</mgrwt>
</event>
<event>
 6    1  0.6152586E-003  0.7025799E+03  0.7818608E-02  0.9712830E-01
          1   -1    0    0  502    0  0.00000000000E+00  0.00000000000E+00  0.12402385197E+03  0.12402385197E+03  0.00000000000E+00 0.  1.
         13   -1    0    0    0    0 -0.00000000000E+00 -0.00000000000E+00 -0.10000000000E+04  0.10000000000E+04  0.00000000000E+00 0.  1.
    9000005    2    1    2  501    0 -0.21707580850E+00  0.15803929436E+01 -0.87497422542E+03  0.11221400758E+04  0.70257804534E+03 0.  0.
         13    1    3    3    0    0  0.23528671636E+03 -0.25465041662E+03 -0.35302267754E+03  0.49480469323E+03  0.00000000000E+00 0.  1.
          1    1    3    3  501    0 -0.23550379216E+03  0.25623080957E+03 -0.52195154788E+03  0.62733538257E+03  0.00000000000E+00 0.  1.
         21    1    1    2  502  501  0.21707580850E+00 -0.15803929436E+01 -0.10019226092E+01  0.18837761750E+01  0.00000000000E+00 0. -1.
<mgrwt>
<rscale>  1 0.70257986E+03</rscale>
<asrwt>0</asrwt>
<pdfrwt beam="1">  1        1 0.45099678E+00 0.70257986E+03</pdfrwt>
<pdfrwt beam="2">0</pdfrwt>
<totfact> 0.77781480E-01</totfact>
</mgrwt>
</event>
<event>
 6    1  0.6152586E-003  0.6515411E+03  0.7818608E-02  0.9803892E-01
          1   -1    0    0  502    0  0.00000000000E+00  0.00000000000E+00  0.10613162429E+03  0.10613162429E+03  0.00000000000E+00 0.  1.
         13   -1    0    0    0    0 -0.00000000000E+00 -0.00000000000E+00 -0.10000000000E+04  0.10000000000E+04  0.00000000000E+00 0.  1.
    9000005    2    1    2  501    0 -0.10373771795E-01  0.23546726897E-02 -0.89386662975E+03  0.11061208443E+04  0.65154107339E+03 0.  0.
         13    1    3    3    0    0 -0.19686579576E+03 -0.23885752340E+03 -0.27448105811E+03  0.41370147364E+03  0.00000000000E+00 0.  1.
          1    1    3    3  501    0  0.19685542199E+03  0.23885987808E+03 -0.61938557164E+03  0.69241937067E+03  0.00000000000E+00 0.  1.
         21    1    1    2  502  501  0.10373771795E-01 -0.23546726897E-02 -0.17459665827E-02  0.10779982562E-01  0.00000000000E+00 0.  1.
<mgrwt>
<rscale>  1 0.65154107E+03</rscale>
<asrwt>0</asrwt>
<pdfrwt beam="1">  1        1 0.38593399E+00 0.65154107E+03</pdfrwt>
<pdfrwt beam="2">0</pdfrwt>
<totfact> 0.15443878E+00</totfact>
</mgrwt>
</event>
<event>
 6    1  0.6152586E-003  0.6451040E+03  0.7818608E-02  0.9816010E-01
          1   -1    0    0  502    0  0.00000000000E+00  0.00000000000E+00  0.10404670174E+03  0.10404670174E+03  0.00000000000E+00 0.  1.
         13   -1    0    0    0    0 -0.00000000000E+00 -0.00000000000E+00 -0.10000000000E+04  0.10000000000E+04  0.00000000000E+00 0.  1.
    9000005    2    1    2  501    0  0.95563332664E-04 -0.78097197616E-05 -0.89596021186E+03  0.11040397875E+04  0.64510398471E+03 0.  0.
         13    1    3    3    0    0  0.97261704348E+02 -0.18013919707E+03 -0.21395620820E+02  0.20583425868E+03  0.00000000000E+00 0.  1.
          3    1    3    3  501    0 -0.97261608785E+02  0.18013918926E+03 -0.87456459104E+03  0.89820552879E+03  0.00000000000E+00 0.  1.
         21    1    1    2  502  501 -0.95563332662E-04  0.78097197644E-05  0.69136007238E-02  0.69142655655E-02  0.00000000000E+00 0. -1.
<mgrwt>
<rscale>  1 0.64510398E+03</rscale>
<asrwt>0</asrwt>
<pdfrwt beam="1">  1        1 0.37835244E+00 0.64510398E+03</pdfrwt>
<pdfrwt beam="2">0</pdfrwt>
<totfact> 0.16701617E+00</totfact>
</mgrwt>
</event>
<event>
 6    1  0.6152586E-003  0.6368721E+03  0.7818608E-02  0.9831729E-01
          1   -1    0    0  502    0  0.00000000000E+00  0.00000000000E+00  0.10140165205E+03  0.10140165205E+03  0.00000000000E+00 0.  1.
         13   -1    0    0    0    0 -0.00000000000E+00 -0.00000000000E+00 -0.10000000000E+04  0.10000000000E+04  0.00000000000E+00 0.  1.
    9000005    2    1    2  501    0 -0.17166077052E-03  0.40288884037E-04 -0.89859842347E+03  0.11014014602E+04  0.63687208287E+03 0.  0.
         13    1    3    3    0    0  0.14729766330E+03 -0.22949016508E+03 -0.16492514178E+03  0.31868893905E+03  0.00000000000E+00 0.  1.
          1    1    3    3  501    0 -0.14729783496E+03  0.22949020537E+03 -0.73367328169E+03  0.78271252118E+03  0.00000000000E+00 0.  1.
         21    1    1    2  502  501  0.17166077051E-03 -0.40288884051E-04  0.75515587539E-04  0.19181558402E-03  0.00000000000E+00 0. -1.
<mgrwt>
<rscale>  1 0.63687208E+03</rscale>
<asrwt>0</asrwt>
<pdfrwt beam="1">  1        1 0.36873406E+00 0.63687208E+03</pdfrwt>
<pdfrwt beam="2">0</pdfrwt>
<totfact> 0.18438361E+00</totfact>
</mgrwt>
</event>
<event>
 6    1  0.6152586E-003  0.6366954E+03  0.7818608E-02  0.9832070E-01
          1   -1    0    0  502    0  0.00000000000E+00  0.00000000000E+00  0.10135523859E+03  0.10135523859E+03  0.00000000000E+00 0.  1.
         13   -1    0    0    0    0 -0.00000000000E+00 -0.00000000000E+00 -0.10000000000E+04  0.10000000000E+04  0.00000000000E+00 0.  1.
    9000005    2    1    2  501    0  0.18133380092E-03 -0.75848980259E-04 -0.89865474393E+03  0.11013452541E+04  0.63669539030E+03 0.  0.
         13    1    3    3    0    0 -0.11980724632E+03  0.28523832028E+03 -0.31952967959E+03  0.44476273648E+03  0.00000000000E+00 0.  1.
          1    1    3    3  501    0  0.11980742766E+03 -0.28523839613E+03 -0.57912506434E+03  0.65658251766E+03  0.00000000000E+00 0.  1.
         21    1    1    2  502  501 -0.18133380093E-03  0.75848980244E-04  0.99825154963E-02  0.99844504430E-02  0.00000000000E+00 0.  1.
<mgrwt>
<rscale>  1 0.63669539E+03</rscale>
<asrwt>0</asrwt>
<pdfrwt beam="1">  1        1 0.36856528E+00 0.63669539E+03</pdfrwt>
<pdfrwt beam="2">0</pdfrwt>
<totfact> 0.18470433E+00</totfact>
</mgrwt>
</event>
<event>
 6    1  0.6152586E-003  0.5324570E+03  0.7818608E-02  0.1005638E+00
          1   -1    0    0  502    0  0.00000000000E+00  0.00000000000E+00  0.74689859368E+02  0.74689859368E+02  0.00000000000E+00 0.  1.
         13   -1    0    0    0    0 -0.00000000000E+00 -0.00000000000E+00 -0.10000000000E+04  0.10000000000E+04  0.00000000000E+00 0.  1.
    9000005    2    1    2  501    0  0.75122660814E-01  0.34616599971E-01 -0.92912190532E+03  0.10708771973E+04  0.53245699356E+03 0.  0.
         13    1    3    3    0    0  0.18808651091E+03 -0.48112775299E+02 -0.98150989348E+02  0.21754307951E+03  0.00000000000E+00 0.  1.
          3    1    3    3  501    0 -0.18801138825E+03  0.48147391899E+02 -0.83097091597E+03  0.85333411783E+03  0.00000000000E+00 0.  1.
         21    1    1    2  502  501 -0.75122660814E-01 -0.34616599971E-01  0.38117646893E+01  0.38126620319E+01  0.00000000000E+00 0. -1.
<mgrwt>
<rscale>  1 0.53245700E+03</rscale>
<asrwt>0</asrwt>
<pdfrwt beam="1">  1        1 0.27160006E+00 0.53245700E+03</pdfrwt>
<pdfrwt beam="2">0</pdfrwt>
<totfact> 0.49510520E+00</totfact>
</mgrwt>
</event>
<event>
 6    1  0.6152586E-003  0.6500248E+03  0.7818608E-02  0.9806733E-01
          1   -1    0    0  502    0  0.00000000000E+00  0.00000000000E+00  0.10622237918E+03  0.10622237918E+03  0.00000000000E+00 0.  1.
         13   -1    0    0    0    0 -0.00000000000E+00 -0.00000000000E+00 -0.10000000000E+04  0.10000000000E+04  0.00000000000E+00 0.  1.
    9000005    2    1    2  501    0  0.47433252140E+00 -0.49994069067E+00 -0.89413547971E+03  0.11054458516E+04  0.65002446099E+03 0.  0.
         13    1    3    3    0    0 -0.10234721222E+03 -0.29920475494E+03 -0.31848826986E+03  0.44881311842E+03  0.00000000000E+00 0.  1.
          1    1    3    3  501    0  0.10282154474E+03  0.29870481425E+03 -0.57564720985E+03  0.65663273322E+03  0.00000000000E+00 0.  1.
         21    1    1    2  502  501 -0.47433252140E+00  0.49994069067E+00  0.35785889354E+00  0.77652754151E+00  0.00000000000E+00 0.  1.
<mgrwt>
<rscale>  1 0.65002483E+03</rscale>
<asrwt>0</asrwt>
<pdfrwt beam="1">  1        1 0.38626401E+00 0.65002483E+03</pdfrwt>
<pdfrwt beam="2">0</pdfrwt>
<totfact> 0.15396345E+00</totfact>
</mgrwt>
</event>
<event>
 6    1  0.6152586E-003  0.7153038E+03  0.7818608E-02  0.9691413E-01
          1   -1    0    0  502    0  0.00000000000E+00  0.00000000000E+00  0.12791848186E+03  0.12791848186E+03  0.00000000000E+00 0.  1.
         13   -1    0    0    0    0 -0.00000000000E+00 -0.00000000000E+00 -0.10000000000E+04  0.10000000000E+04  0.00000000000E+00 0.  1.
    9000005    2    1    2  501    0 -0.10460505507E-04  0.20518729946E-03 -0.87208509725E+03  0.11279148969E+04  0.71530384993E+03 0.  0.
         13    1    3    3    0    0  0.28060441970E+03 -0.21606468769E+03 -0.35732606544E+03  0.50309512686E+03  0.00000000000E+00 0.  1.
          3    1    3    3  501    0 -0.28060443016E+03  0.21606489288E+03 -0.51475903181E+03  0.62481977001E+03  0.00000000000E+00 0.  1.
         21    1    1    2  502  501  0.10460505529E-04 -0.20518729946E-03  0.35791060271E-02  0.35849980757E-02  0.00000000000E+00 0.  1.
<mgrwt>
<rscale>  1 0.71530385E+03</rscale>
<asrwt>0</asrwt>
<pdfrwt beam="1">  1        1 0.46515910E+00 0.71530385E+03</pdfrwt>
<pdfrwt beam="2">0</pdfrwt>
<totfact> 0.66686004E-01</totfact>
</mgrwt>
</event>
<event>
 6    1  0.6152586E-003  0.6535779E+03  0.7818608E-02  0.9800089E-01
          1   -1    0    0  502    0  0.00000000000E+00  0.00000000000E+00  0.10679131878E+03  0.10679131878E+03  0.00000000000E+00 0.  1.
         13   -1    0    0    0    0 -0.00000000000E+00 -0.00000000000E+00 -0.10000000000E+04  0.10000000000E+04  0.00000000000E+00 0.  1.
    9000005    2    1    2  501    0  0.94371210924E-04 -0.21466186073E-03 -0.89320894081E+03  0.11067909690E+04  0.65357787374E+03 0.  0.
         13    1    3    3    0    0 -0.20963090862E+02  0.42267800075E+02 -0.99420186974E+03  0.99532074021E+03  0.00000000000E+00 0.  1.
          3    1    3    3  501    0  0.20963185233E+02 -0.42268014736E+02  0.10099292893E+03  0.11147022875E+03  0.00000000000E+00 0.  1.
         21    1    1    2  502  501 -0.94371210923E-04  0.21466186074E-03  0.25958346382E-03  0.34981311381E-03  0.00000000000E+00 0.  1.
<mgrwt>
<rscale>  1 0.65357787E+03</rscale>
<asrwt>0</asrwt>
<pdfrwt beam="1">  1        1 0.38833289E+00 0.65357787E+03</pdfrwt>
<pdfrwt beam="2">0</pdfrwt>
<totfact> 0.15065035E+00</totfact>
</mgrwt>
</event>
<event>
 6    1  0.6152586E-003  0.6549689E+03  0.7818608E-02  0.9797500E-01
          1   -1    0    0  502    0  0.00000000000E+00  0.00000000000E+00  0.12774114789E+03  0.12774114789E+03  0.00000000000E+00 0.  1.
         13   -1    0    0    0    0 -0.00000000000E+00 -0.00000000000E+00 -0.10000000000E+04  0.10000000000E+04  0.00000000000E+00 0.  1.
    9000005    2    1    2  501    0 -0.34124174283E+00 -0.67012744578E-01 -0.89275229421E+03  0.11072447554E+04  0.65496883023E+03 0.  0.
         13    1    3    3    0    0 -0.21179101788E+03 -0.12299226188E+03 -0.81438061361E+03  0.85041067466E+03  0.00000000000E+00 0.  1.
          3    1    3    3  501    0  0.21144977614E+03  0.12292524914E+03 -0.78371680596E+02  0.25683408073E+03  0.00000000000E+00 0.  1.
         21    1    1    2  502  501  0.34124174283E+00  0.67012744578E-01  0.20493442102E+02  0.20496392508E+02  0.00000000000E+00 0.  1.
<mgrwt>
<rscale>  1 0.65496892E+03</rscale>
<asrwt>0</asrwt>
<pdfrwt beam="1">  1        1 0.46451424E+00 0.65496892E+03</pdfrwt>
<pdfrwt beam="2">0</pdfrwt>
<totfact> 0.67983849E-01</totfact>
</mgrwt>
</event>
<event>
 6    1  0.6152586E-003  0.6727636E+03  0.7818608E-02  0.9764978E-01
          1   -1    0    0  502    0  0.00000000000E+00  0.00000000000E+00  0.11317079601E+03  0.11317079601E+03  0.00000000000E+00 0.  1.
         13   -1    0    0    0    0 -0.00000000000E+00 -0.00000000000E+00 -0.10000000000E+04  0.10000000000E+04  0.00000000000E+00 0.  1.
    9000005    2    1    2  501    0 -0.97906442164E-03  0.42992917386E-03 -0.88684728095E+03  0.11131526875E+04  0.67276355866E+03 0.  0.
         13    1    3    3    0    0 -0.27181211490E+03  0.12914645495E+03 -0.69212288920E+03  0.75471499680E+03  0.00000000000E+00 0.  1.
          3    1    3    3  501    0  0.27181113584E+03 -0.12914602502E+03 -0.19472439175E+03  0.35843769066E+03  0.00000000000E+00 0.  1.
         21    1    1    2  502  501  0.97906442166E-03 -0.42992917386E-03  0.18076956940E-01  0.18108555394E-01  0.00000000000E+00 0. -1.
<mgrwt>
<rscale>  1 0.67276356E+03</rscale>
<asrwt>0</asrwt>
<pdfrwt beam="1">  1        1 0.41153104E+00 0.67276356E+03</pdfrwt>
<pdfrwt beam="2">0</pdfrwt>
<totfact> 0.11829239E+00</totfact>
</mgrwt>
</event>
