<event>
 6    1  0.6007990E-003  0.6417868E+03  0.7818608E-02  0.9822314E-01
          1   -1    0    0  502    0  0.00000000000E+00  0.00000000000E+00  0.10297313198E+03  0.10297313198E+03  0.00000000000E+00 0.  1.
         13   -1    0    0    0    0 -0.00000000000E+00 -0.00000000000E+00 -0.10000000000E+04  0.10000000000E+04  0.00000000000E+00 0.  1.
    9000005    2    1    2  501    0  0.57017580275E-05  0.98987813320E-03 -0.89702689296E+03  0.11029721418E+04  0.64178680169E+03 0.  0.
         13    1    3    3    0    0 -0.21763819512E+03  0.14307586488E+03 -0.12637155091E+03  0.28949413805E+03  0.00000000000E+00 0.  1.
          1    1    3    3  501    0  0.21763820082E+03 -0.14307487500E+03 -0.77065534205E+03  0.81347800372E+03  0.00000000000E+00 0.  1.
         21    1    1    2  502  501 -0.57017580441E-05 -0.98987813320E-03  0.24943829175E-04  0.99020877760E-03  0.00000000000E+00 0.  1.
<mgrwt>
<rscale>  1 0.64178680E+03</rscale>
<asrwt>0</asrwt>
<pdfrwt beam="1">  1        1 0.37444854E+00 0.64178680E+03</pdfrwt>
<pdfrwt beam="2">0</pdfrwt>
<totfact> 0.17386728E+00</totfact>
</mgrwt>
</event>
<event>
 6    1  0.6007990E-003  0.6420251E+03  0.7818608E-02  0.9821860E-01
          1   -1    0    0  502    0  0.00000000000E+00  0.00000000000E+00  0.10304976000E+03  0.10304976000E+03  0.00000000000E+00 0.  1.
         13   -1    0    0    0    0 -0.00000000000E+00 -0.00000000000E+00 -0.10000000000E+04  0.10000000000E+04  0.00000000000E+00 0.  1.
    9000005    2    1    2  501    0 -0.12987426985E-04  0.75762711703E-04 -0.89695092524E+03  0.11030490705E+04  0.64202514715E+03 0.  0.
         13    1    3    3    0    0 -0.94086592522E+02  0.17832371779E+03 -0.19308592398E+02  0.20254495046E+03  0.00000000000E+00 0.  1.
          3    1    3    3  501    0  0.94086579534E+02 -0.17832364202E+03 -0.87764233284E+03  0.90050412000E+03  0.00000000000E+00 0.  1.
         21    1    1    2  502  501  0.12987426977E-04 -0.75762711716E-04  0.68523559962E-03  0.68953352981E-03  0.00000000000E+00 0. -1.
<mgrwt>
<rscale>  1 0.64202515E+03</rscale>
<asrwt>0</asrwt>
<pdfrwt beam="1">  1        1 0.37472719E+00 0.64202515E+03</pdfrwt>
<pdfrwt beam="2">0</pdfrwt>
<totfact> 0.17336946E+00</totfact>
</mgrwt>
</event>
<event>
 6    1  0.6007990E-003  0.6285242E+03  0.7818608E-02  0.9847933E-01
          1   -1    0    0  502    0  0.00000000000E+00  0.00000000000E+00  0.98761800959E+02  0.98761800959E+02  0.00000000000E+00 0.  1.
         13   -1    0    0    0    0 -0.00000000000E+00 -0.00000000000E+00 -0.10000000000E+04  0.10000000000E+04  0.00000000000E+00 0.  1.
    9000005    2    1    2  501    0  0.27635956226E-04 -0.10252180686E-02 -0.90123906747E+03  0.10987604571E+04  0.62852421220E+03 0.  0.
         13    1    3    3    0    0  0.23998901725E+02  0.67296138475E+02 -0.98561292784E+03  0.98819915051E+03  0.00000000000E+00 0.  1.
          1    1    3    3  501    0 -0.23998874089E+02 -0.67297163693E+02  0.84373860370E+02  0.11056130658E+03  0.00000000000E+00 0.  1.
         21    1    1    2  502  501 -0.27635956225E-04  0.10252180686E-02  0.86842682950E-03  0.13438753634E-02  0.00000000000E+00 0.  1.
<mgrwt>
<rscale>  1 0.62852421E+03</rscale>
<asrwt>0</asrwt>
<pdfrwt beam="1">  1        1 0.35913458E+00 0.62852421E+03</pdfrwt>
<pdfrwt beam="2">0</pdfrwt>
<totfact> 0.20343683E+00</totfact>
</mgrwt>
</event>
<event>
 6    1  0.6007990E-003  0.6235194E+03  0.7818608E-02  0.9857777E-01
          1   -1    0    0  502    0  0.00000000000E+00  0.00000000000E+00  0.10541226785E+03  0.10541226785E+03  0.00000000000E+00 0.  1.
         13   -1    0    0    0    0 -0.00000000000E+00 -0.00000000000E+00 -0.10000000000E+04  0.10000000000E+04  0.00000000000E+00 0.  1.
    9000005    2    1    2  501    0  0.58638542276E+00 -0.65594909247E+00 -0.90278004310E+03  0.10971728458E+04  0.62351878337E+03 0.  0.
         13    1    3    3    0    0 -0.89557552720E+02 -0.21111976951E+03 -0.79609605744E+02  0.24275461201E+03  0.00000000000E+00 0.  1.
          1    1    3    3  501    0  0.90143938143E+02  0.21046382041E+03 -0.82317043736E+03  0.85441823379E+03  0.00000000000E+00 0.  1.
         21    1    1    2  502  501 -0.58638542276E+00  0.65594909247E+00  0.81923109498E+01  0.82394220534E+01  0.00000000000E+00 0.  1.
<mgrwt>
<rscale>  1 0.62351940E+03</rscale>
<asrwt>0</asrwt>
<pdfrwt beam="1">  1        1 0.38331815E+00 0.62351940E+03</pdfrwt>
<pdfrwt beam="2">0</pdfrwt>
<totfact> 0.15944276E+00</totfact>
</mgrwt>
</event>
<event>
 6    1  0.9198299E-003  0.6631942E+03  0.7818608E-02  0.9782331E-01
          1   -1    0    0  502    0  0.00000000000E+00  0.00000000000E+00  0.10995665998E+03  0.10995665998E+03  0.00000000000E+00 0.  1.
         13   -1    0    0    0    0 -0.00000000000E+00 -0.00000000000E+00 -0.10000000000E+04  0.10000000000E+04  0.00000000000E+00 0.  1.
    9000005    2    1    2  501    0  0.24075404951E-04 -0.66875342668E-05 -0.89004330475E+03  0.11099566168E+04  0.66319424512E+03 0.  0.
         13    1    3    3    0    0  0.24619125944E+03 -0.22196404507E+03 -0.43019443240E+03  0.54308878022E+03  0.00000000000E+00 0.  1.
          3    1    3    3  501    0 -0.24619123537E+03  0.22196403838E+03 -0.45984887235E+03  0.56686783654E+03  0.00000000000E+00 0.  1.
         21    1    1    2  502  501 -0.24075404957E-04  0.66875342725E-05 -0.35272752711E-04  0.43226326727E-04  0.00000000000E+00 0.  1.
<mgrwt>
<rscale>  1 0.66319425E+03</rscale>
<asrwt>0</asrwt>
<pdfrwt beam="1">  1        1 0.39984324E+00 0.66319425E+03</pdfrwt>
<pdfrwt beam="2">0</pdfrwt>
<totfact> 0.13366968E+00</totfact>
</mgrwt>
</event>
<event>
 6    1  0.6007990E-003  0.6479914E+03  0.7818608E-02  0.9810555E-01
          1   -1    0    0  502    0  0.00000000000E+00  0.00000000000E+00  0.10504474874E+03  0.10504474874E+03  0.00000000000E+00 0.  1.
         13   -1    0    0    0    0 -0.00000000000E+00 -0.00000000000E+00 -0.10000000000E+04  0.10000000000E+04  0.00000000000E+00 0.  1.
    9000005    2    1    2  501    0 -0.39057426959E-02 -0.55985146587E-02 -0.89502659445E+03  0.11049730797E+04  0.64799143674E+03 0.  0.
         13    1    3    3    0    0  0.26596793529E+03  0.62200211477E+02 -0.15036964641E+03  0.31179935771E+03  0.00000000000E+00 0.  1.
          3    1    3    3  501    0 -0.26597184103E+03 -0.62205809992E+02 -0.74465694804E+03  0.79317372201E+03  0.00000000000E+00 0.  1.
         21    1    1    2  502  501  0.39057426959E-02  0.55985146587E-02  0.71343181988E-01  0.71669015681E-01  0.00000000000E+00 0. -1.
<mgrwt>
<rscale>  1 0.64799144E+03</rscale>
<asrwt>0</asrwt>
<pdfrwt beam="1">  1        1 0.38198171E+00 0.64799144E+03</pdfrwt>
<pdfrwt beam="2">0</pdfrwt>
<totfact> 0.16088423E+00</totfact>
</mgrwt>
</event>
<event>
 6    1  0.6007990E-003  0.6344019E+03  0.7818608E-02  0.9836496E-01
          1   -1    0    0  502    0  0.00000000000E+00  0.00000000000E+00  0.10061975241E+03  0.10061975241E+03  0.00000000000E+00 0.  1.
         13   -1    0    0    0    0 -0.00000000000E+00 -0.00000000000E+00 -0.10000000000E+04  0.10000000000E+04  0.00000000000E+00 0.  1.
    9000005    2    1    2  501    0  0.31571668707E-04  0.13047678651E-03 -0.89938355801E+03  0.11006164393E+04  0.63440189310E+03 0.  0.
         13    1    3    3    0    0 -0.26192936594E+02  0.86082295851E+02  0.78011548506E+02  0.11908834236E+03  0.00000000000E+00 0.  1.
          1    1    3    3  501    0  0.26192968166E+02 -0.86082165374E+02 -0.97739510652E+03  0.98152809691E+03  0.00000000000E+00 0.  1.
         21    1    1    2  502  501 -0.31571668709E-04 -0.13047678652E-03  0.33104226787E-02  0.33131434128E-02  0.00000000000E+00 0.  1.
<mgrwt>
<rscale>  1 0.63440189E+03</rscale>
<asrwt>0</asrwt>
<pdfrwt beam="1">  1        1 0.36589078E+00 0.63440189E+03</pdfrwt>
<pdfrwt beam="2">0</pdfrwt>
<totfact> 0.18984092E+00</totfact>
</mgrwt>
</event>
<event>
 6    1  0.6007990E-003  0.6555922E+03  0.7818608E-02  0.9796342E-01
          1   -1    0    0  502    0  0.00000000000E+00  0.00000000000E+00  0.10745392040E+03  0.10745392040E+03  0.00000000000E+00 0.  1.
         13   -1    0    0    0    0 -0.00000000000E+00 -0.00000000000E+00 -0.10000000000E+04  0.10000000000E+04  0.00000000000E+00 0.  1.
    9000005    2    1    2  501    0 -0.28676957683E-04  0.61276392481E-04 -0.89254971127E+03  0.11074502881E+04  0.65559221589E+03 0.  0.
         13    1    3    3    0    0  0.57876649516E+02 -0.97723620576E+01  0.98500851477E+02  0.11466308631E+03  0.00000000000E+00 0.  1.
          3    1    3    3  501    0 -0.57876678193E+02  0.97724233340E+01 -0.99105056274E+03  0.99278720180E+03  0.00000000000E+00 0.  1.
         21    1    1    2  502  501  0.28676957682E-04 -0.61276392482E-04  0.36316661347E-02  0.36322962542E-02  0.00000000000E+00 0.  1.
<mgrwt>
<rscale>  1 0.65559222E+03</rscale>
<asrwt>0</asrwt>
<pdfrwt beam="1">  1        1 0.39074235E+00 0.65559222E+03</pdfrwt>
<pdfrwt beam="2">0</pdfrwt>
<totfact> 0.14693496E+00</totfact>
</mgrwt>
</event>
<event>
 6    1  0.6007990E-003  0.6479491E+03  0.7818608E-02  0.9810635E-01
          1   -1    0    0  502    0  0.00000000000E+00  0.00000000000E+00  0.10495952703E+03  0.10495952703E+03  0.00000000000E+00 0.  1.
         13   -1    0    0    0    0 -0.00000000000E+00 -0.00000000000E+00 -0.10000000000E+04  0.10000000000E+04  0.00000000000E+00 0.  1.
    9000005    2    1    2  501    0 -0.11487231115E-04 -0.85438282440E-05 -0.89504050541E+03  0.11049594916E+04  0.64794905024E+03 0.  0.
         13    1    3    3    0    0  0.97488686917E+01  0.32240859602E+03 -0.49916484856E+03  0.59431295566E+03  0.00000000000E+00 0.  1.
          1    1    3    3  501    0 -0.97488801789E+01 -0.32240860456E+03 -0.39587565685E+03  0.51064653592E+03  0.00000000000E+00 0.  1.
         21    1    1    2  502  501  0.11487231115E-04  0.85438281960E-05  0.32434304094E-04  0.35453315233E-04  0.00000000000E+00 0. -1.
<mgrwt>
<rscale>  1 0.64794905E+03</rscale>
<asrwt>0</asrwt>
<pdfrwt beam="1">  1        1 0.38167181E+00 0.64794905E+03</pdfrwt>
<pdfrwt beam="2">0</pdfrwt>
<totfact> 0.16139327E+00</totfact>
</mgrwt>
</event>
<event>
 6    1  0.6007990E-003  0.6565062E+03  0.7818608E-02  0.9794647E-01
          1   -1    0    0  502    0  0.00000000000E+00  0.00000000000E+00  0.10775091682E+03  0.10775091682E+03  0.00000000000E+00 0.  1.
         13   -1    0    0    0    0 -0.00000000000E+00 -0.00000000000E+00 -0.10000000000E+04  0.10000000000E+04  0.00000000000E+00 0.  1.
    9000005    2    1    2  501    0  0.91632840537E-03  0.16416660530E-02 -0.89224840576E+03  0.11077489184E+04  0.65650624421E+03 0.  0.
         13    1    3    3    0    0 -0.27686312554E+03 -0.15230247825E+03 -0.59610071851E+03  0.67467421899E+03  0.00000000000E+00 0.  1.
          3    1    3    3  501    0  0.27686404186E+03  0.15230411992E+03 -0.29614768725E+03  0.43307469943E+03  0.00000000000E+00 0.  1.
         21    1    1    2  502  501 -0.91632840538E-03 -0.16416660530E-02 -0.67741638851E-03  0.19984038980E-02  0.00000000000E+00 0. -1.
<mgrwt>
<rscale>  1 0.65650624E+03</rscale>
<asrwt>0</asrwt>
<pdfrwt beam="1">  1        1 0.39182234E+00 0.65650624E+03</pdfrwt>
<pdfrwt beam="2">0</pdfrwt>
<totfact> 0.14529767E+00</totfact>
</mgrwt>
</event>
<event>
 6    1  0.6007990E-003  0.6476626E+03  0.7818608E-02  0.9811175E-01
          1   -1    0    0  502    0  0.00000000000E+00  0.00000000000E+00  0.10487511770E+03  0.10487511770E+03  0.00000000000E+00 0.  1.
         13   -1    0    0    0    0 -0.00000000000E+00 -0.00000000000E+00 -0.10000000000E+04  0.10000000000E+04  0.00000000000E+00 0.  1.
    9000005    2    1    2  501    0  0.84253641321E-02  0.66587963556E-02 -0.89512931597E+03  0.11048634994E+04  0.64766261278E+03 0.  0.
         13    1    3    3    0    0 -0.23046204400E+03  0.20542214149E+03 -0.28080871716E+03  0.41733025960E+03  0.00000000000E+00 0.  1.
          3    1    3    3  501    0  0.23047046937E+03 -0.20541548269E+03 -0.61432059881E+03  0.68753323985E+03  0.00000000000E+00 0.  1.
         21    1    1    2  502  501 -0.84253641320E-02 -0.66587963555E-02  0.44336623142E-02  0.11618248198E-01  0.00000000000E+00 0.  1.
<mgrwt>
<rscale>  1 0.64766261E+03</rscale>
<asrwt>0</asrwt>
<pdfrwt beam="1">  1        1 0.38136487E+00 0.64766261E+03</pdfrwt>
<pdfrwt beam="2">0</pdfrwt>
<totfact> 0.16190626E+00</totfact>
</mgrwt>
</event>
<event>
 6    1  0.6007990E-003  0.6527039E+03  0.7818608E-02  0.9801719E-01
          1   -1    0    0  502    0  0.00000000000E+00  0.00000000000E+00  0.10818430220E+03  0.10818430220E+03  0.00000000000E+00 0.  1.
         13   -1    0    0    0    0 -0.00000000000E+00 -0.00000000000E+00 -0.10000000000E+04  0.10000000000E+04  0.00000000000E+00 0.  1.
    9000005    2    1    2  501    0  0.13341988006E+00 -0.66014828854E-01 -0.89349075183E+03  0.11065026468E+04  0.65270388513E+03 0.  0.
         13    1    3    3    0    0  0.28831559193E+03 -0.12896957563E+03 -0.58657215594E+03  0.66620261641E+03  0.00000000000E+00 0.  1.
          1    1    3    3  501    0 -0.28818217205E+03  0.12890356080E+03 -0.30691859589E+03  0.44030003041E+03  0.00000000000E+00 0.  1.
         21    1    1    2  502  501 -0.13341988006E+00  0.66014828854E-01  0.16750540297E+01  0.16816553821E+01  0.00000000000E+00 0.  1.
<mgrwt>
<rscale>  1 0.65270390E+03</rscale>
<asrwt>0</asrwt>
<pdfrwt beam="1">  1        1 0.39339829E+00 0.65270390E+03</pdfrwt>
<pdfrwt beam="2">0</pdfrwt>
<totfact> 0.14307649E+00</totfact>
</mgrwt>
</event>
<event>
 6    1  0.6007990E-003  0.6494982E+03  0.7818608E-02  0.9807721E-01
          1   -1    0    0  502    0  0.00000000000E+00  0.00000000000E+00  0.10546301052E+03  0.10546301052E+03  0.00000000000E+00 0.  1.
         13   -1    0    0    0    0 -0.00000000000E+00 -0.00000000000E+00 -0.10000000000E+04  0.10000000000E+04  0.00000000000E+00 0.  1.
    9000005    2    1    2  501    0  0.76086491987E-04  0.67737729466E-04 -0.89453801290E+03  0.11054619820E+04  0.64949821957E+03 0.  0.
         13    1    3    3    0    0  0.11068314233E+03 -0.26618199495E+03 -0.70176784576E+03  0.75867102341E+03  0.00000000000E+00 0.  1.
          3    1    3    3  501    0 -0.11068306624E+03  0.26618206268E+03 -0.19277016714E+03  0.34679095863E+03  0.00000000000E+00 0.  1.
         21    1    1    2  502  501 -0.76086491993E-04 -0.67737729479E-04  0.10234224132E-02  0.10284799415E-02  0.00000000000E+00 0.  1.
<mgrwt>
<rscale>  1 0.64949822E+03</rscale>
<asrwt>0</asrwt>
<pdfrwt beam="1">  1        1 0.38350267E+00 0.64949822E+03</pdfrwt>
<pdfrwt beam="2">0</pdfrwt>
<totfact> 0.15837003E+00</totfact>
</mgrwt>
</event>
<event>
 6    1  0.6007990E-003  0.5763441E+03  0.7818608E-02  0.9955737E-01
          1   -1    0    0  502    0  0.00000000000E+00  0.00000000000E+00  0.83044477712E+02  0.83044477712E+02  0.00000000000E+00 0.  1.
         13   -1    0    0    0    0 -0.00000000000E+00 -0.00000000000E+00 -0.10000000000E+04  0.10000000000E+04  0.00000000000E+00 0.  1.
    9000005    2    1    2  501    0 -0.28940958887E-03 -0.21356101394E-03 -0.91695683509E+03  0.10830431165E+04  0.57634412884E+03 0.  0.
         13    1    3    3    0    0  0.14897925115E+02 -0.22807588242E+03 -0.78828393087E+03  0.82075094394E+03  0.00000000000E+00 0.  1.
          1    1    3    3  501    0 -0.14898214524E+02  0.22807566886E+03 -0.12867290422E+03  0.26229217259E+03  0.00000000000E+00 0.  1.
         21    1    1    2  502  501  0.28940958887E-03  0.21356101393E-03  0.13128015624E-02  0.13611811632E-02  0.00000000000E+00 0. -1.
<mgrwt>
<rscale>  1 0.57634413E+03</rscale>
<asrwt>0</asrwt>
<pdfrwt beam="1">  1        1 0.30198056E+00 0.57634413E+03</pdfrwt>
<pdfrwt beam="2">0</pdfrwt>
<totfact> 0.36331489E+00</totfact>
</mgrwt>
</event>
<event>
 6    1  0.6007990E-003  0.6359484E+03  0.7818608E-02  0.9833509E-01
          1   -1    0    0  502    0  0.00000000000E+00  0.00000000000E+00  0.10348343815E+03  0.10348343815E+03  0.00000000000E+00 0.  1.
         13   -1    0    0    0    0 -0.00000000000E+00 -0.00000000000E+00 -0.10000000000E+04  0.10000000000E+04  0.00000000000E+00 0.  1.
    9000005    2    1    2  501    0 -0.21894941522E+01 -0.22397262523E+01 -0.89770068286E+03  0.11001349458E+04  0.63594069909E+03 0.  0.
         13    1    3    3    0    0 -0.19398911573E+02  0.30028670057E+03 -0.61978373119E+03  0.68897045928E+03  0.00000000000E+00 0.  1.
          1    1    3    3  501    0  0.17209417421E+02 -0.30252642682E+03 -0.27791695167E+03  0.41116448654E+03  0.00000000000E+00 0.  1.
         21    1    1    2  502  501  0.21894941522E+01  0.22397262523E+01  0.11841210131E+01  0.33484923326E+01  0.00000000000E+00 0. -1.
<mgrwt>
<rscale>  1 0.63594841E+03</rscale>
<asrwt>0</asrwt>
<pdfrwt beam="1">  1        1 0.37630420E+00 0.63594841E+03</pdfrwt>
<pdfrwt beam="2">0</pdfrwt>
<totfact> 0.17081092E+00</totfact>
</mgrwt>
</event>
<event>
 6    1  0.6007990E-003  0.4941668E+03  0.7818608E-02  0.1015313E+00
          1   -1    0    0  502    0  0.00000000000E+00  0.00000000000E+00  0.61310927292E+02  0.61310927292E+02  0.00000000000E+00 0.  1.
         13   -1    0    0    0    0 -0.00000000000E+00 -0.00000000000E+00 -0.10000000000E+04  0.10000000000E+04  0.00000000000E+00 0.  1.
    9000005    2    1    2  501    0 -0.35275072946E-01  0.98321472977E-02 -0.93894841693E+03  0.10610490105E+04  0.49416684591E+03 0.  0.
         13    1    3    3    0    0  0.10327043734E+02 -0.16599405436E+03 -0.86179885927E+03  0.87770037470E+03  0.00000000000E+00 0.  1.
          3    1    3    3  501    0 -0.10362318807E+02  0.16600388650E+03 -0.77149557659E+02  0.18334863575E+03  0.00000000000E+00 0.  1.
         21    1    1    2  502  501  0.35275072946E-01 -0.98321472977E-02  0.25934422339E+00  0.26191683431E+00  0.00000000000E+00 0.  1.
<mgrwt>
<rscale>  1 0.49416685E+03</rscale>
<asrwt>0</asrwt>
<pdfrwt beam="1">  1        1 0.22294930E+00 0.49416685E+03</pdfrwt>
<pdfrwt beam="2">0</pdfrwt>
<totfact> 0.81222902E+00</totfact>
</mgrwt>
</event>
<event>
 6    1  0.6007990E-003  0.6422721E+03  0.7818608E-02  0.9821389E-01
          1   -1    0    0  502    0  0.00000000000E+00  0.00000000000E+00  0.10314980412E+03  0.10314980412E+03  0.00000000000E+00 0.  1.
         13   -1    0    0    0    0 -0.00000000000E+00 -0.00000000000E+00 -0.10000000000E+04  0.10000000000E+04  0.00000000000E+00 0.  1.
    9000005    2    1    2  501    0 -0.73247457181E-04  0.34810754437E-03 -0.89687162971E+03  0.11031283673E+04  0.64227211885E+03 0.  0.
         13    1    3    3    0    0 -0.18009069846E+03 -0.26321311604E+03 -0.38383954029E+03  0.49904568610E+03  0.00000000000E+00 0.  1.
          3    1    3    3  501    0  0.18009062521E+03  0.26321346415E+03 -0.51303208942E+03  0.60408268124E+03  0.00000000000E+00 0.  1.
         21    1    1    2  502  501  0.73247457201E-04 -0.34810754435E-03  0.21433823436E-01  0.21436775203E-01  0.00000000000E+00 0.  1.
<mgrwt>
<rscale>  1 0.64227212E+03</rscale>
<asrwt>0</asrwt>
<pdfrwt beam="1">  1        1 0.37509099E+00 0.64227212E+03</pdfrwt>
<pdfrwt beam="2">0</pdfrwt>
<totfact> 0.17272359E+00</totfact>
</mgrwt>
</event>
<event>
 6    1  0.6007990E-003  0.6476377E+03  0.7818608E-02  0.9811222E-01
          1   -1    0    0  502    0  0.00000000000E+00  0.00000000000E+00  0.11257014608E+03  0.11257014608E+03  0.00000000000E+00 0.  1.
         13   -1    0    0    0    0 -0.00000000000E+00 -0.00000000000E+00 -0.10000000000E+04  0.10000000000E+04  0.00000000000E+00 0.  1.
    9000005    2    1    2  501    0  0.15852678281E+00 -0.97081355912E-01 -0.89514010578E+03  0.11048576537E+04  0.64763770068E+03 0.  0.
         13    1    3    3    0    0  0.29321533845E+03  0.13746568410E+03 -0.44006304249E+03  0.54637672934E+03  0.00000000000E+00 0.  1.
          3    1    3    3  501    0 -0.29305681166E+03 -0.13756276546E+03 -0.45507706329E+03  0.55848092432E+03  0.00000000000E+00 0.  1.
         21    1    1    2  502  501 -0.15852678281E+00  0.97081355912E-01  0.77102518562E+01  0.77124924127E+01  0.00000000000E+00 0.  1.
<mgrwt>
<rscale>  1 0.64763773E+03</rscale>
<asrwt>0</asrwt>
<pdfrwt beam="1">  1        1 0.40934685E+00 0.64763773E+03</pdfrwt>
<pdfrwt beam="2">0</pdfrwt>
<totfact> 0.12157488E+00</totfact>
</mgrwt>
</event>
<event>
 6    1  0.6007990E-003  0.6536701E+03  0.7818608E-02  0.9799917E-01
          1   -1    0    0  502    0  0.00000000000E+00  0.00000000000E+00  0.10791193563E+03  0.10791193563E+03  0.00000000000E+00 0.  1.
         13   -1    0    0    0    0 -0.00000000000E+00 -0.00000000000E+00 -0.10000000000E+04  0.10000000000E+04  0.00000000000E+00 0.  1.
    9000005    2    1    2  501    0 -0.21230178599E-02 -0.32190379650E-01 -0.89317857648E+03  0.11068209465E+04  0.65367012857E+03 0.  0.
         13    1    3    3    0    0  0.67969866230E+01  0.13216248225E+03 -0.95258398561E+03  0.96173248379E+03  0.00000000000E+00 0.  1.
          1    1    3    3  501    0 -0.67991096408E+01 -0.13219467263E+03  0.59405409133E+02  0.14508846266E+03  0.00000000000E+00 0.  1.
         21    1    1    2  502  501  0.21230178599E-02  0.32190379650E-01  0.10905121118E+01  0.10909891813E+01  0.00000000000E+00 0.  1.
<mgrwt>
<rscale>  1 0.65367013E+03</rscale>
<asrwt>0</asrwt>
<pdfrwt beam="1">  1        1 0.39240787E+00 0.65367013E+03</pdfrwt>
<pdfrwt beam="2">0</pdfrwt>
<totfact> 0.14450684E+00</totfact>
</mgrwt>
</event>
<event>
 6    1  0.6007990E-003  0.6471412E+03  0.7818608E-02  0.9812158E-01
          1   -1    0    0  502    0  0.00000000000E+00  0.00000000000E+00  0.10518210523E+03  0.10518210523E+03  0.00000000000E+00 0.  1.
         13   -1    0    0    0    0 -0.00000000000E+00 -0.00000000000E+00 -0.10000000000E+04  0.10000000000E+04  0.00000000000E+00 0.  1.
    9000005    2    1    2  501    0 -0.47172747910E+00  0.91712408813E+00 -0.89459827389E+03  0.11041276496E+04  0.64714042622E+03 0.  0.
         13    1    3    3    0    0 -0.31576548637E+03 -0.56091715590E+02 -0.37234162345E+03  0.49141876999E+03  0.00000000000E+00 0.  1.
          1    1    3    3  501    0  0.31529375889E+03  0.57008839678E+02 -0.52225665044E+03  0.61270887959E+03  0.00000000000E+00 0.  1.
         21    1    1    2  502  501  0.47172747910E+00 -0.91712408813E+00 -0.21962087323E+00  0.10544556584E+01  0.00000000000E+00 0. -1.
<mgrwt>
<rscale>  1 0.64714125E+03</rscale>
<asrwt>0</asrwt>
<pdfrwt beam="1">  1        1 0.38248119E+00 0.64714125E+03</pdfrwt>
<pdfrwt beam="2">0</pdfrwt>
<totfact> 0.16009410E+00</totfact>
</mgrwt>
</event>
<event>
 6    1  0.6007990E-003  0.6495798E+03  0.7818608E-02  0.9807568E-01
          1   -1    0    0  502    0  0.00000000000E+00  0.00000000000E+00  0.10551718762E+03  0.10551718762E+03  0.00000000000E+00 0.  1.
         13   -1    0    0    0    0 -0.00000000000E+00 -0.00000000000E+00 -0.10000000000E+04  0.10000000000E+04  0.00000000000E+00 0.  1.
    9000005    2    1    2  501    0 -0.70634453762E-01  0.35467433085E-01 -0.89442845548E+03  0.11054212614E+04  0.64957978490E+03 0.  0.
         13    1    3    3    0    0  0.25102813350E+03  0.63333939779E+02 -0.78085719787E+03  0.82265683927E+03  0.00000000000E+00 0.  1.
          3    1    3    3  501    0 -0.25109876796E+03 -0.63298472346E+02 -0.11357125761E+03  0.28276442214E+03  0.00000000000E+00 0.  1.
         21    1    1    2  502  501  0.70634453762E-01 -0.35467433085E-01 -0.54356895844E-01  0.95926205980E-01  0.00000000000E+00 0. -1.
<mgrwt>
<rscale>  1 0.64957979E+03</rscale>
<asrwt>0</asrwt>
<pdfrwt beam="1">  1        1 0.38369967E+00 0.64957979E+03</pdfrwt>
<pdfrwt beam="2">0</pdfrwt>
<totfact> 0.15805042E+00</totfact>
</mgrwt>
</event>
<event>
 6    1  0.6007990E-003  0.6346474E+03  0.7818608E-02  0.9836022E-01
          1   -1    0    0  502    0  0.00000000000E+00  0.00000000000E+00  0.10069469521E+03  0.10069469521E+03  0.00000000000E+00 0.  1.
         13   -1    0    0    0    0 -0.00000000000E+00 -0.00000000000E+00 -0.10000000000E+04  0.10000000000E+04  0.00000000000E+00 0.  1.
    9000005    2    1    2  501    0  0.43661351981E-04  0.53158520132E-04 -0.89930567977E+03  0.11006943140E+04  0.63464735651E+03 0.  0.
         13    1    3    3    0    0 -0.28719019161E+03  0.13120420743E+03 -0.50454026465E+03  0.59519209408E+03  0.00000000000E+00 0.  1.
          1    1    3    3  501    0  0.28719023527E+03 -0.13120415428E+03 -0.39476541512E+03  0.50550221989E+03  0.00000000000E+00 0.  1.
         21    1    1    2  502  501 -0.43661351990E-04 -0.53158520134E-04  0.37497905227E-03  0.38123671329E-03  0.00000000000E+00 0.  1.
<mgrwt>
<rscale>  1 0.63464736E+03</rscale>
<asrwt>0</asrwt>
<pdfrwt beam="1">  1        1 0.36616330E+00 0.63464736E+03</pdfrwt>
<pdfrwt beam="2">0</pdfrwt>
<totfact> 0.18931092E+00</totfact>
</mgrwt>
</event>
<event>
 6    1  0.6007990E-003  0.6515465E+03  0.7818608E-02  0.9803882E-01
          1   -1    0    0  502    0  0.00000000000E+00  0.00000000000E+00  0.10615502510E+03  0.10615502510E+03  0.00000000000E+00 0.  1.
         13   -1    0    0    0    0 -0.00000000000E+00 -0.00000000000E+00 -0.10000000000E+04  0.10000000000E+04  0.00000000000E+00 0.  1.
    9000005    2    1    2  501    0  0.52235706524E-03  0.43398201171E-04 -0.89387177335E+03  0.11061282215E+04  0.65154654114E+03 0.  0.
         13    1    3    3    0    0  0.47821767899E+02 -0.29282380149E+03 -0.21856238834E+03  0.36851352459E+03  0.00000000000E+00 0.  1.
          1    1    3    3  501    0 -0.47821245542E+02  0.29282384489E+03 -0.67530938501E+03  0.73761469694E+03  0.00000000000E+00 0.  1.
         21    1    1    2  502  501 -0.52235706525E-03 -0.43398201185E-04  0.26798447206E-01  0.26803572765E-01  0.00000000000E+00 0.  1.
<mgrwt>
<rscale>  1 0.65154654E+03</rscale>
<asrwt>0</asrwt>
<pdfrwt beam="1">  1        1 0.38601909E+00 0.65154654E+03</pdfrwt>
<pdfrwt beam="2">0</pdfrwt>
<totfact> 0.15430477E+00</totfact>
</mgrwt>
</event>
<event>
 6    1  0.6007990E-003  0.5933357E+03  0.7818608E-02  0.9919330E-01
          1   -1    0    0  502    0  0.00000000000E+00  0.00000000000E+00  0.88027347630E+02  0.88027347630E+02  0.00000000000E+00 0.  1.
         13   -1    0    0    0    0 -0.00000000000E+00 -0.00000000000E+00 -0.10000000000E+04  0.10000000000E+04  0.00000000000E+00 0.  1.
    9000005    2    1    2  501    0 -0.13126655169E-02 -0.93508233506E-03 -0.91198813163E+03  0.10880117847E+04  0.59333573246E+03 0.  0.
         13    1    3    3    0    0 -0.14529216190E+03  0.10264224355E+03 -0.89135008125E+03  0.90892805536E+03  0.00000000000E+00 0.  1.
          3    1    3    3  501    0  0.14529084924E+03 -0.10264317863E+03 -0.20638050379E+02  0.17908372934E+03  0.00000000000E+00 0.  1.
         21    1    1    2  502  501  0.13126655169E-02  0.93508233506E-03  0.15479257588E-01  0.15562933052E-01  0.00000000000E+00 0. -1.
<mgrwt>
<rscale>  1 0.59333573E+03</rscale>
<asrwt>0</asrwt>
<pdfrwt beam="1">  1        1 0.32010012E+00 0.59333573E+03</pdfrwt>
<pdfrwt beam="2">0</pdfrwt>
<totfact> 0.30250259E+00</totfact>
</mgrwt>
</event>
<event>
 6    1  0.6007990E-003  0.5406226E+03  0.7818608E-02  0.1003688E+00
          1   -1    0    0  502    0  0.00000000000E+00  0.00000000000E+00  0.73068233734E+02  0.73068233734E+02  0.00000000000E+00 0.  1.
         13   -1    0    0    0    0 -0.00000000000E+00 -0.00000000000E+00 -0.10000000000E+04  0.10000000000E+04  0.00000000000E+00 0.  1.
    9000005    2    1    2  501    0 -0.91966874464E-04  0.13247194858E-04 -0.92693174225E+03  0.10730681378E+04  0.54062257952E+03 0.  0.
         13    1    3    3    0    0 -0.17186591346E+03  0.17457116976E+03 -0.23667518969E+03  0.34062902245E+03  0.00000000000E+00 0.  1.
          1    1    3    3  501    0  0.17186582149E+03 -0.17457115651E+03 -0.69025655256E+03  0.73243911531E+03  0.00000000000E+00 0.  1.
         21    1    1    2  502  501  0.91966874475E-04 -0.13247194855E-04 -0.24013024563E-04  0.95968846617E-04  0.00000000000E+00 0. -1.
<mgrwt>
<rscale>  1 0.54062258E+03</rscale>
<asrwt>0</asrwt>
<pdfrwt beam="1">  1        1 0.26570323E+00 0.54062258E+03</pdfrwt>
<pdfrwt beam="2">0</pdfrwt>
<totfact> 0.52431363E+00</totfact>
</mgrwt>
</event>
<event>
 6    1  0.6007990E-003  0.6457165E+03  0.7818608E-02  0.9814850E-01
          1   -1    0    0  502    0  0.00000000000E+00  0.00000000000E+00  0.11110038461E+03  0.11110038461E+03  0.00000000000E+00 0.  1.
         13   -1    0    0    0    0 -0.00000000000E+00 -0.00000000000E+00 -0.10000000000E+04  0.10000000000E+04  0.00000000000E+00 0.  1.
    9000005    2    1    2  501    0 -0.40225025226E+01  0.25654678141E+01 -0.89483502968E+03  0.11034851831E+04  0.64569889017E+03 0.  0.
         13    1    3    3    0    0 -0.30625724852E+03  0.10416811790E+03 -0.50692864505E+03  0.60134944103E+03  0.00000000000E+00 0.  1.
          3    1    3    3  501    0  0.30223474600E+03 -0.10160265008E+03 -0.38790638463E+03  0.50213574204E+03  0.00000000000E+00 0.  1.
         21    1    1    2  502  501  0.40225025226E+01 -0.25654678141E+01  0.59354142931E+01  0.76152015390E+01  0.00000000000E+00 0. -1.
<mgrwt>
<rscale>  1 0.64571652E+03</rscale>
<asrwt>0</asrwt>
<pdfrwt beam="1">  1        1 0.40400225E+00 0.64571652E+03</pdfrwt>
<pdfrwt beam="2">0</pdfrwt>
<totfact> 0.12850321E+00</totfact>
</mgrwt>
</event>
<event>
 6    1  0.6007990E-003  0.6485973E+03  0.7818608E-02  0.9809415E-01
          1   -1    0    0  502    0  0.00000000000E+00  0.00000000000E+00  0.10525560418E+03  0.10525560418E+03  0.00000000000E+00 0.  1.
         13   -1    0    0    0    0 -0.00000000000E+00 -0.00000000000E+00 -0.10000000000E+04  0.10000000000E+04  0.00000000000E+00 0.  1.
    9000005    2    1    2  501    0  0.41059359845E-02 -0.61623774805E-02 -0.89483019691E+03  0.11051694841E+04  0.64859733837E+03 0.  0.
         13    1    3    3    0    0 -0.56654653498E+02  0.31914134614E+03 -0.42982771760E+03  0.53834265611E+03  0.00000000000E+00 0.  1.
          1    1    3    3  501    0  0.56658759434E+02 -0.31914750851E+03 -0.46500247931E+03  0.56682682803E+03  0.00000000000E+00 0.  1.
         21    1    1    2  502  501 -0.41059359845E-02  0.61623774805E-02  0.85801088121E-01  0.86120034424E-01  0.00000000000E+00 0.  1.
<mgrwt>
<rscale>  1 0.64859734E+03</rscale>
<asrwt>0</asrwt>
<pdfrwt beam="1">  1        1 0.38274846E+00 0.64859734E+03</pdfrwt>
<pdfrwt beam="2">0</pdfrwt>
<totfact> 0.15961657E+00</totfact>
</mgrwt>
</event>
<event>
 6    1  0.6007990E-003  0.6538560E+03  0.7818608E-02  0.9799570E-01
          1   -1    0    0  502    0  0.00000000000E+00  0.00000000000E+00  0.10689045540E+03  0.10689045540E+03  0.00000000000E+00 0.  1.
         13   -1    0    0    0    0 -0.00000000000E+00 -0.00000000000E+00 -0.10000000000E+04  0.10000000000E+04  0.00000000000E+00 0.  1.
    9000005    2    1    2  501    0  0.79668422218E-02 -0.44137436209E-02 -0.89311530715E+03  0.11068796777E+04  0.65385600016E+03 0.  0.
         13    1    3    3    0    0 -0.18605741482E+03 -0.16408173772E+03 -0.80702161225E+03  0.84428908610E+03  0.00000000000E+00 0.  1.
          3    1    3    3  501    0  0.18606538166E+03  0.16407732398E+03 -0.86093694905E+02  0.26259059160E+03  0.00000000000E+00 0.  1.
         21    1    1    2  502  501 -0.79668422218E-02  0.44137436209E-02  0.57625507084E-02  0.10777694485E-01  0.00000000000E+00 0. -1.
<mgrwt>
<rscale>  1 0.65385600E+03</rscale>
<asrwt>0</asrwt>
<pdfrwt beam="1">  1        1 0.38869338E+00 0.65385600E+03</pdfrwt>
<pdfrwt beam="2">0</pdfrwt>
<totfact> 0.15008950E+00</totfact>
</mgrwt>
</event>
<event>
 6    1  0.6007990E-003  0.5627340E+03  0.7818608E-02  0.9985887E-01
          1   -1    0    0  502    0  0.00000000000E+00  0.00000000000E+00  0.79167487152E+02  0.79167487152E+02  0.00000000000E+00 0.  1.
         13   -1    0    0    0    0 -0.00000000000E+00 -0.00000000000E+00 -0.10000000000E+04  0.10000000000E+04  0.00000000000E+00 0.  1.
    9000005    2    1    2  501    0  0.32130561507E-04  0.26124605824E-04 -0.92083260160E+03  0.10791673892E+04  0.56273401690E+03 0.  0.
         13    1    3    3    0    0  0.10650045896E+03 -0.25938358742E+03 -0.41563853396E+03  0.50137569157E+03  0.00000000000E+00 0.  1.
          1    1    3    3  501    0 -0.10650042683E+03  0.25938361355E+03 -0.50519406764E+03  0.57779169765E+03  0.00000000000E+00 0.  1.
         21    1    1    2  502  501 -0.32130561500E-04 -0.26124605807E-04  0.88750606836E-04  0.97936398875E-04  0.00000000000E+00 0.  1.
<mgrwt>
<rscale>  1 0.56273402E+03</rscale>
<asrwt>0</asrwt>
<pdfrwt beam="1">  1        1 0.28788238E+00 0.56273402E+03</pdfrwt>
<pdfrwt beam="2">0</pdfrwt>
<totfact> 0.41892153E+00</totfact>
</mgrwt>
</event>
<event>
 6    1  0.6007990E-003  0.6504078E+03  0.7818608E-02  0.9806014E-01
          1   -1    0    0  502    0  0.00000000000E+00  0.00000000000E+00  0.10575827330E+03  0.10575827330E+03  0.00000000000E+00 0.  1.
         13   -1    0    0    0    0 -0.00000000000E+00 -0.00000000000E+00 -0.10000000000E+04  0.10000000000E+04  0.00000000000E+00 0.  1.
    9000005    2    1    2  501    0  0.47414272139E-04  0.50390971779E-04 -0.89424241855E+03  0.11057575780E+04  0.65040780912E+03 0.  0.
         13    1    3    3    0    0  0.60384008512E+02  0.22681813652E+03 -0.64448288917E+02  0.24340558227E+03  0.00000000000E+00 0.  1.
          3    1    3    3  501    0 -0.60383961098E+02 -0.22681808613E+03 -0.82979412964E+03  0.86235199572E+03  0.00000000000E+00 0.  1.
         21    1    1    2  502  501 -0.47414272134E-04 -0.50390971782E-04  0.69185596508E-03  0.69530715490E-03  0.00000000000E+00 0.  1.
<mgrwt>
<rscale>  1 0.65040781E+03</rscale>
<asrwt>0</asrwt>
<pdfrwt beam="1">  1        1 0.38457635E+00 0.65040781E+03</pdfrwt>
<pdfrwt beam="2">0</pdfrwt>
<totfact> 0.15662217E+00</totfact>
</mgrwt>
</event>
<event>
 6    1  0.6007990E-003  0.6496913E+03  0.7818608E-02  0.9807359E-01
          1   -1    0    0  502    0  0.00000000000E+00  0.00000000000E+00  0.10583183367E+03  0.10583183367E+03  0.00000000000E+00 0.  1.
         13   -1    0    0    0    0 -0.00000000000E+00 -0.00000000000E+00 -0.10000000000E+04  0.10000000000E+04  0.00000000000E+00 0.  1.
    9000005    2    1    2  501    0  0.20993778976E+00  0.64233093077E+00 -0.89399159275E+03  0.11051333774E+04  0.64969097064E+03 0.  0.
         13    1    3    3    0    0  0.31227912056E+03 -0.72823555848E+02 -0.35829275620E+03  0.48082763915E+03  0.00000000000E+00 0.  1.
          3    1    3    3  501    0 -0.31206918278E+03  0.73465886779E+02 -0.53569883656E+03  0.62430573828E+03  0.00000000000E+00 0.  1.
         21    1    1    2  502  501 -0.20993778976E+00 -0.64233093077E+00 -0.17657357360E+00  0.69845624565E+00  0.00000000000E+00 0.  1.
<mgrwt>
<rscale>  1 0.64969132E+03</rscale>
<asrwt>0</asrwt>
<pdfrwt beam="1">  1        1 0.38484384E+00 0.64969132E+03</pdfrwt>
<pdfrwt beam="2">0</pdfrwt>
<totfact> 0.15621678E+00</totfact>
</mgrwt>
</event>
<event>
 6    1  0.6007990E-003  0.6496934E+03  0.7818608E-02  0.9807355E-01
          1   -1    0    0  502    0  0.00000000000E+00  0.00000000000E+00  0.10599672064E+03  0.10599672064E+03  0.00000000000E+00 0.  1.
         13   -1    0    0    0    0 -0.00000000000E+00 -0.00000000000E+00 -0.10000000000E+04  0.10000000000E+04  0.00000000000E+00 0.  1.
    9000005    2    1    2  501    0  0.33268828815E-01 -0.39033192926E-01 -0.89447308947E+03  0.11055241194E+04  0.64969336470E+03 0.  0.
         13    1    3    3    0    0 -0.16943533952E+03 -0.27647303757E+03 -0.41386614690E+03  0.52576692777E+03  0.00000000000E+00 0.  1.
          1    1    3    3  501    0  0.16946860835E+03  0.27643400438E+03 -0.48060694256E+03  0.57975719162E+03  0.00000000000E+00 0.  1.
         21    1    1    2  502  501 -0.33268828815E-01  0.39033192926E-01  0.46981011341E+00  0.47260125665E+00  0.00000000000E+00 0.  1.
<mgrwt>
<rscale>  1 0.64969337E+03</rscale>
<asrwt>0</asrwt>
<pdfrwt beam="1">  1        1 0.38544343E+00 0.64969337E+03</pdfrwt>
<pdfrwt beam="2">0</pdfrwt>
<totfact> 0.15526562E+00</totfact>
</mgrwt>
</event>
<event>
 6    1  0.6007990E-003  0.6641603E+03  0.7818608E-02  0.9780565E-01
          3   -1    0    0  502    0  0.00000000000E+00  0.00000000000E+00  0.11048501595E+03  0.11048501595E+03  0.00000000000E+00 0.  1.
         13   -1    0    0    0    0 -0.00000000000E+00 -0.00000000000E+00 -0.10000000000E+04  0.10000000000E+04  0.00000000000E+00 0.  1.
    9000005    2    1    2  501    0  0.17094918465E-01  0.32134745503E-02 -0.88972236023E+03  0.11102769115E+04  0.66416032831E+03 0.  0.
         13    1    3    3    0    0 -0.13898764173E+03  0.59127465810E+02  0.49529792661E+02  0.15895540924E+03  0.00000000000E+00 0.  1.
          1    1    3    3  501    0  0.13900473664E+03 -0.59124252336E+02 -0.93925215290E+03  0.95132150230E+03  0.00000000000E+00 0.  1.
         21    1    1    2  502  501 -0.17094918465E-01 -0.32134745503E-02  0.20737618904E+00  0.20810441234E+00  0.00000000000E+00 0.  1.
<mgrwt>
<rscale>  1 0.66416033E+03</rscale>
<asrwt>0</asrwt>
<pdfrwt beam="1">  1        3 0.40176454E+00 0.66416033E+03</pdfrwt>
<pdfrwt beam="2">0</pdfrwt>
<totfact> 0.57851657E-02</totfact>
</mgrwt>
</event>
<event>
 6    1  0.6007990E-003  0.6545102E+03  0.7818608E-02  0.9798353E-01
          1   -1    0    0  502    0  0.00000000000E+00  0.00000000000E+00  0.10709633831E+03  0.10709633831E+03  0.00000000000E+00 0.  1.
         13   -1    0    0    0    0 -0.00000000000E+00 -0.00000000000E+00 -0.10000000000E+04  0.10000000000E+04  0.00000000000E+00 0.  1.
    9000005    2    1    2  501    0 -0.19716842672E-04  0.26951891343E-04 -0.89290410592E+03  0.11070958928E+04  0.65451017835E+03 0.  0.
         13    1    3    3    0    0 -0.55579207810E+02 -0.50256006988E+02  0.92390129492E+02  0.11895650721E+03  0.00000000000E+00 0.  1.
          1    1    3    3  501    0  0.55579188093E+02  0.50256033940E+02 -0.98529423541E+03  0.98813938562E+03  0.00000000000E+00 0.  1.
         21    1    1    2  502  501  0.19716842678E-04 -0.26951891339E-04  0.44422553191E-03  0.44547893500E-03  0.00000000000E+00 0.  1.
<mgrwt>
<rscale>  1 0.65451018E+03</rscale>
<asrwt>0</asrwt>
<pdfrwt beam="1">  1        1 0.38944205E+00 0.65451018E+03</pdfrwt>
<pdfrwt beam="2">0</pdfrwt>
<totfact> 0.14892895E+00</totfact>
</mgrwt>
</event>
<event>
 6    1  0.6007990E-003  0.6464779E+03  0.7818608E-02  0.9813411E-01
          1   -1    0    0  502    0  0.00000000000E+00  0.00000000000E+00  0.10544770123E+03  0.10544770123E+03  0.00000000000E+00 0.  1.
         13   -1    0    0    0    0 -0.00000000000E+00 -0.00000000000E+00 -0.10000000000E+04  0.10000000000E+04  0.00000000000E+00 0.  1.
    9000005    2    1    2  501    0 -0.22224094155E+00 -0.52449285339E+00 -0.89542280834E+03  0.11044073788E+04  0.64647763166E+03 0.  0.
         13    1    3    3    0    0  0.24698963412E+03 -0.11970796722E+03 -0.73943644859E+03  0.78873324913E+03  0.00000000000E+00 0.  1.
          3    1    3    3  501    0 -0.24721187506E+03  0.11918347437E+03 -0.15598635975E+03  0.31567412970E+03  0.00000000000E+00 0.  1.
         21    1    1    2  502  501  0.22224094155E+00  0.52449285339E+00  0.87050957142E+00  0.10403224035E+01  0.00000000000E+00 0. -1.
<mgrwt>
<rscale>  1 0.64647788E+03</rscale>
<asrwt>0</asrwt>
<pdfrwt beam="1">  1        1 0.38344699E+00 0.64647788E+03</pdfrwt>
<pdfrwt beam="2">0</pdfrwt>
<totfact> 0.15854819E+00</totfact>
</mgrwt>
</event>
<event>
 6    1  0.6007990E-003  0.6568274E+03  0.7818608E-02  0.9794052E-01
          1   -1    0    0  502    0  0.00000000000E+00  0.00000000000E+00  0.12441909322E+03  0.12441909322E+03  0.00000000000E+00 0.  1.
         13   -1    0    0    0    0 -0.00000000000E+00 -0.00000000000E+00 -0.10000000000E+04  0.10000000000E+04  0.00000000000E+00 0.  1.
    9000005    2    1    2  501    0  0.76879710679E+00  0.64116126282E-02 -0.89213455702E+03  0.11078475988E+04  0.65682695081E+03 0.  0.
         13    1    3    3    0    0 -0.67818996809E+02  0.48057783815E+02  0.89790839142E+02  0.12235751594E+03  0.00000000000E+00 0.  1.
          3    1    3    3  501    0  0.68587793916E+02 -0.48051372202E+02 -0.98192539616E+03  0.98549008289E+03  0.00000000000E+00 0.  1.
         21    1    1    2  502  501 -0.76879710679E+00 -0.64116126282E-02  0.16553650236E+02  0.16571494387E+02  0.00000000000E+00 0.  1.
<mgrwt>
<rscale>  1 0.65682740E+03</rscale>
<asrwt>0</asrwt>
<pdfrwt beam="1">  1        1 0.45243402E+00 0.65682740E+03</pdfrwt>
<pdfrwt beam="2">0</pdfrwt>
<totfact> 0.77311538E-01</totfact>
</mgrwt>
</event>
<event>
 6    1  0.6007990E-003  0.6430739E+03  0.7818608E-02  0.9819863E-01
          1   -1    0    0  502    0  0.00000000000E+00  0.00000000000E+00  0.10340144077E+03  0.10340144077E+03  0.00000000000E+00 0.  1.
         13   -1    0    0    0    0 -0.00000000000E+00 -0.00000000000E+00 -0.10000000000E+04  0.10000000000E+04  0.00000000000E+00 0.  1.
    9000005    2    1    2  501    0  0.10840991470E-01  0.24488642446E-01 -0.89659996638E+03  0.11033746229E+04  0.64307391327E+03 0.  0.
         13    1    3    3    0    0 -0.74606026156E+01 -0.27524882766E+03 -0.73313401786E+03  0.78313668402E+03  0.00000000000E+00 0.  1.
          1    1    3    3  501    0  0.74714436071E+01  0.27527331631E+03 -0.16346594852E+03  0.32023793883E+03  0.00000000000E+00 0.  1.
         21    1    1    2  502  501 -0.10840991470E-01 -0.24488642446E-01  0.14071530512E-02  0.26817919096E-01  0.00000000000E+00 0. -1.
<mgrwt>
<rscale>  1 0.64307391E+03</rscale>
<asrwt>0</asrwt>
<pdfrwt beam="1">  1        1 0.37600603E+00 0.64307391E+03</pdfrwt>
<pdfrwt beam="2">0</pdfrwt>
<totfact> 0.17110357E+00</totfact>
</mgrwt>
</event>
<event>
 6    1  0.6007990E-003  0.6727013E+03  0.7818608E-02  0.9765090E-01
          1   -1    0    0  502    0  0.00000000000E+00  0.00000000000E+00  0.11313181208E+03  0.11313181208E+03  0.00000000000E+00 0.  1.
         13   -1    0    0    0    0 -0.00000000000E+00 -0.00000000000E+00 -0.10000000000E+04  0.10000000000E+04  0.00000000000E+00 0.  1.
    9000005    2    1    2  501    0 -0.18416400977E-04  0.54699376676E-04 -0.88686821346E+03  0.11131317490E+04  0.67270131746E+03 0.  0.
         13    1    3    3    0    0  0.97873484069E+02 -0.16621631392E+03 -0.89938254867E+03  0.91983479536E+03  0.00000000000E+00 0.  1.
          3    1    3    3  501    0 -0.97873502485E+02  0.16621636862E+03  0.12514335216E+02  0.19329695360E+03  0.00000000000E+00 0.  1.
         21    1    1    2  502  501  0.18416400983E-04 -0.54699376668E-04  0.25536618303E-04  0.63113425730E-04  0.00000000000E+00 0.  1.
<mgrwt>
<rscale>  1 0.67270132E+03</rscale>
<asrwt>0</asrwt>
<pdfrwt beam="1">  1        1 0.41138928E+00 0.67270132E+03</pdfrwt>
<pdfrwt beam="2">0</pdfrwt>
<totfact> 0.11846728E+00</totfact>
</mgrwt>
</event>
<event>
 6    1  0.6007990E-003  0.6482153E+03  0.7818608E-02  0.9810134E-01
          1   -1    0    0  502    0  0.00000000000E+00  0.00000000000E+00  0.10504872423E+03  0.10504872423E+03  0.00000000000E+00 0.  1.
         13   -1    0    0    0    0 -0.00000000000E+00 -0.00000000000E+00 -0.10000000000E+04  0.10000000000E+04  0.00000000000E+00 0.  1.
    9000005    2    1    2  501    0 -0.31415825276E-04 -0.44748538943E-03 -0.89495422723E+03  0.11050457389E+04  0.64821525450E+03 0.  0.
         13    1    3    3    0    0 -0.26579831232E+02 -0.31726861522E+03 -0.34406159432E+03  0.46876885809E+03  0.00000000000E+00 0.  1.
          1    1    3    3  501    0  0.26579799817E+02  0.31726816774E+03 -0.55089263291E+03  0.63627688078E+03  0.00000000000E+00 0.  1.
         21    1    1    2  502  501  0.31415825275E-04  0.44748538944E-03  0.29514599425E-02  0.29853552419E-02  0.00000000000E+00 0. -1.
<mgrwt>
<rscale>  1 0.64821525E+03</rscale>
<asrwt>0</asrwt>
<pdfrwt beam="1">  1        1 0.38199617E+00 0.64821525E+03</pdfrwt>
<pdfrwt beam="2">0</pdfrwt>
<totfact> 0.16085395E+00</totfact>
</mgrwt>
</event>
<event>
 6    1  0.6007990E-003  0.6121973E+03  0.7818608E-02  0.9880419E-01
          1   -1    0    0  502    0  0.00000000000E+00  0.00000000000E+00  0.93700411973E+02  0.93700411973E+02  0.00000000000E+00 0.  1.
         13   -1    0    0    0    0 -0.00000000000E+00 -0.00000000000E+00 -0.10000000000E+04  0.10000000000E+04  0.00000000000E+00 0.  1.
    9000005    2    1    2  501    0  0.13213177266E-03 -0.13470666586E-03 -0.90630360163E+03  0.10936963939E+04  0.61219734057E+03 0.  0.
         13    1    3    3    0    0  0.21518832142E+03  0.90499399967E+02 -0.80686384453E+03  0.83995560518E+03  0.00000000000E+00 0.  1.
          3    1    3    3  501    0 -0.21518818929E+03 -0.90499534673E+02 -0.99439757097E+02  0.25374078876E+03  0.00000000000E+00 0.  1.
         21    1    1    2  502  501 -0.13213177267E-03  0.13470666586E-03  0.40135990040E-02  0.40180320626E-02  0.00000000000E+00 0.  1.
<mgrwt>
<rscale>  1 0.61219734E+03</rscale>
<asrwt>0</asrwt>
<pdfrwt beam="1">  1        1 0.34072949E+00 0.61219734E+03</pdfrwt>
<pdfrwt beam="2">0</pdfrwt>
<totfact> 0.24541351E+00</totfact>
</mgrwt>
</event>
<event>
 6    1  0.6007990E-003  0.6460273E+03  0.7818608E-02  0.9814262E-01
          1   -1    0    0  502    0  0.00000000000E+00  0.00000000000E+00  0.10433786721E+03  0.10433786721E+03  0.00000000000E+00 0.  1.
         13   -1    0    0    0    0 -0.00000000000E+00 -0.00000000000E+00 -0.10000000000E+04  0.10000000000E+04  0.00000000000E+00 0.  1.
    9000005    2    1    2  501    0  0.14597765748E-04 -0.14809334431E-04 -0.89566217187E+03  0.11043378229E+04  0.64602732223E+03 0.  0.
         13    1    3    3    0    0  0.37854862884E+02 -0.22907572001E+03 -0.83170792292E+03  0.86350839324E+03  0.00000000000E+00 0.  1.
          1    1    3    3  501    0 -0.37854848286E+02  0.22907570520E+03 -0.63954248948E+02  0.24082942970E+03  0.00000000000E+00 0.  1.
         21    1    1    2  502  501 -0.14597765746E-04  0.14809334414E-04  0.39077986762E-04  0.44266242216E-04  0.00000000000E+00 0. -1.
<mgrwt>
<rscale>  1 0.64602732E+03</rscale>
<asrwt>0</asrwt>
<pdfrwt beam="1">  1        1 0.37941123E+00 0.64602732E+03</pdfrwt>
<pdfrwt beam="2">0</pdfrwt>
<totfact> 0.16520220E+00</totfact>
</mgrwt>
</event>
<event>
 6    1  0.6007990E-003  0.6519185E+03  0.7818608E-02  0.9803186E-01
          1   -1    0    0  502    0  0.00000000000E+00  0.00000000000E+00  0.10663274496E+03  0.10663274496E+03  0.00000000000E+00 0.  1.
         13   -1    0    0    0    0 -0.00000000000E+00 -0.00000000000E+00 -0.10000000000E+04  0.10000000000E+04  0.00000000000E+00 0.  1.
    9000005    2    1    2  501    0 -0.95957048275E-02 -0.21209825980E-01 -0.89375019128E+03  0.11062491018E+04  0.65191845365E+03 0.  0.
         13    1    3    3    0    0  0.22507240097E+03  0.81601811236E+02 -0.82222277871E+03  0.85636834312E+03  0.00000000000E+00 0.  1.
          1    1    3    3  501    0 -0.22508199667E+03 -0.81623021062E+02 -0.71527412570E+02  0.24988075865E+03  0.00000000000E+00 0.  1.
         21    1    1    2  502  501  0.95957048275E-02  0.21209825980E-01  0.38293624095E+00  0.38364319218E+00  0.00000000000E+00 0.  1.
<mgrwt>
<rscale>  1 0.65191845E+03</rscale>
<asrwt>0</asrwt>
<pdfrwt beam="1">  1        1 0.38775625E+00 0.65191845E+03</pdfrwt>
<pdfrwt beam="2">0</pdfrwt>
<totfact> 0.15158568E+00</totfact>
</mgrwt>
</event>
<event>
 6    1  0.6007990E-003  0.6419230E+03  0.7818608E-02  0.9822054E-01
          1   -1    0    0  502    0  0.00000000000E+00  0.00000000000E+00  0.10301632816E+03  0.10301632816E+03  0.00000000000E+00 0.  1.
         13   -1    0    0    0    0 -0.00000000000E+00 -0.00000000000E+00 -0.10000000000E+04  0.10000000000E+04  0.00000000000E+00 0.  1.
    9000005    2    1    2  501    0 -0.30473410831E-04  0.23318730404E-04 -0.89698369921E+03  0.11030162810E+04  0.64192301686E+03 0.  0.
         13    1    3    3    0    0 -0.90102080389E+02 -0.10699204785E+02  0.80519745368E+02  0.12131070549E+03  0.00000000000E+00 0.  1.
          3    1    3    3  501    0  0.90102049916E+02  0.10699228104E+02 -0.97750344458E+03  0.98170557554E+03  0.00000000000E+00 0.  1.
         21    1    1    2  502  501  0.30473410834E-04 -0.23318730405E-04  0.27370748159E-04  0.47133319535E-04  0.00000000000E+00 0.  1.
<mgrwt>
<rscale>  1 0.64192302E+03</rscale>
<asrwt>0</asrwt>
<pdfrwt beam="1">  1        1 0.37460562E+00 0.64192302E+03</pdfrwt>
<pdfrwt beam="2">0</pdfrwt>
<totfact> 0.17358642E+00</totfact>
</mgrwt>
</event>
<event>
 6    1  0.6007990E-003  0.6416483E+03  0.7818608E-02  0.9822578E-01
          1   -1    0    0  502    0  0.00000000000E+00  0.00000000000E+00  0.10293429094E+03  0.10293429094E+03  0.00000000000E+00 0.  1.
         13   -1    0    0    0    0 -0.00000000000E+00 -0.00000000000E+00 -0.10000000000E+04  0.10000000000E+04  0.00000000000E+00 0.  1.
    9000005    2    1    2  501    0  0.90561315186E-03 -0.34141276879E-02 -0.89707130565E+03  0.11029276729E+04  0.64164828705E+03 0.  0.
         13    1    3    3    0    0  0.86381566740E+02  0.78831661181E+02 -0.96205637608E+03  0.96913811019E+03  0.00000000000E+00 0.  1.
          3    1    3    3  501    0 -0.86380661127E+02 -0.78835075309E+02  0.64985070434E+02  0.13378956273E+03  0.00000000000E+00 0.  1.
         21    1    1    2  502  501 -0.90561315186E-03  0.34141276879E-02  0.55965879094E-02  0.66180207976E-02  0.00000000000E+00 0. -1.
<mgrwt>
<rscale>  1 0.64164829E+03</rscale>
<asrwt>0</asrwt>
<pdfrwt beam="1">  1        1 0.37430730E+00 0.64164829E+03</pdfrwt>
<pdfrwt beam="2">0</pdfrwt>
<totfact> 0.17412069E+00</totfact>
</mgrwt>
</event>
<event>
 6    1  0.6007990E-003  0.6406888E+03  0.7818608E-02  0.9824410E-01
          3   -1    0    0  502    0  0.00000000000E+00  0.00000000000E+00  0.10283381112E+03  0.10283381112E+03  0.00000000000E+00 0.  1.
         13   -1    0    0    0    0 -0.00000000000E+00 -0.00000000000E+00 -0.10000000000E+04  0.10000000000E+04  0.00000000000E+00 0.  1.
    9000005    2    1    2  501    0  0.56250642986E-02 -0.72955583938E-03 -0.89737942838E+03  0.11026204962E+04  0.64068878569E+03 0.  0.
         13    1    3    3    0    0 -0.14277692596E+03  0.12711533477E+03 -0.89107343343E+03  0.91134813473E+03  0.00000000000E+00 0.  1.
          3    1    3    3  501    0  0.14278255102E+03 -0.12711606432E+03 -0.63059949543E+01  0.19127236146E+03  0.00000000000E+00 0.  1.
         21    1    1    2  502  501 -0.56250642986E-02  0.72955583938E-03  0.21323949724E+00  0.21331492395E+00  0.00000000000E+00 0.  1.
<mgrwt>
<rscale>  1 0.64068879E+03</rscale>
<asrwt>0</asrwt>
<pdfrwt beam="1">  1        3 0.37394192E+00 0.64068879E+03</pdfrwt>
<pdfrwt beam="2">0</pdfrwt>
<totfact> 0.81381031E-02</totfact>
</mgrwt>
</event>
<event>
 6    1  0.6007990E-003  0.6398159E+03  0.7818608E-02  0.9826079E-01
          1   -1    0    0  502    0  0.00000000000E+00  0.00000000000E+00  0.10234113037E+03  0.10234113037E+03  0.00000000000E+00 0.  1.
         13   -1    0    0    0    0 -0.00000000000E+00 -0.00000000000E+00 -0.10000000000E+04  0.10000000000E+04  0.00000000000E+00 0.  1.
    9000005    2    1    2  501    0  0.13631226295E-04 -0.27431123492E-04 -0.89765890229E+03  0.11023410856E+04  0.63981588298E+03 0.  0.
         13    1    3    3    0    0 -0.30784151589E+03  0.40678277434E+02 -0.31626698684E+03  0.44322221077E+03  0.00000000000E+00 0.  1.
          3    1    3    3  501    0  0.30784152952E+03 -0.40678304865E+02 -0.58139191545E+03  0.65911887482E+03  0.00000000000E+00 0.  1.
         21    1    1    2  502  501 -0.13631226276E-04  0.27431123490E-04  0.32661655468E-04  0.44777903073E-04  0.00000000000E+00 0. -1.
<mgrwt>
<rscale>  1 0.63981588E+03</rscale>
<asrwt>0</asrwt>
<pdfrwt beam="1">  1        1 0.37215035E+00 0.63981588E+03</pdfrwt>
<pdfrwt beam="2">0</pdfrwt>
<totfact> 0.17802564E+00</totfact>
</mgrwt>
</event>
<event>
 6    1  0.6007990E-003  0.5558987E+03  0.7818608E-02  0.1000138E+00
          1   -1    0    0  502    0  0.00000000000E+00  0.00000000000E+00  0.77256191074E+02  0.77256191074E+02  0.00000000000E+00 0.  1.
         13   -1    0    0    0    0 -0.00000000000E+00 -0.00000000000E+00 -0.10000000000E+04  0.10000000000E+04  0.00000000000E+00 0.  1.
    9000005    2    1    2  501    0  0.20304699849E-04  0.52166508340E-05 -0.92274414600E+03  0.10772558533E+04  0.55589874492E+03 0.  0.
         13    1    3    3    0    0 -0.30668811702E+02 -0.22393201144E+03 -0.77486141727E+03  0.80715323063E+03  0.00000000000E+00 0.  1.
          3    1    3    3  501    0  0.30668832007E+02  0.22393201665E+03 -0.14788272873E+03  0.27010262271E+03  0.00000000000E+00 0.  1.
         21    1    1    2  502  501 -0.20304699849E-04 -0.52166508310E-05  0.33707282859E-03  0.33772412715E-03  0.00000000000E+00 0.  1.
<mgrwt>
<rscale>  1 0.55589874E+03</rscale>
<asrwt>0</asrwt>
<pdfrwt beam="1">  1        1 0.28093220E+00 0.55589874E+03</pdfrwt>
<pdfrwt beam="2">0</pdfrwt>
<totfact> 0.44940537E+00</totfact>
</mgrwt>
</event>
<event>
 6    1  0.6007990E-003  0.6524814E+03  0.7818608E-02  0.9802134E-01
          1   -1    0    0  502    0  0.00000000000E+00  0.00000000000E+00  0.10643305297E+03  0.10643305297E+03  0.00000000000E+00 0.  1.
         13   -1    0    0    0    0 -0.00000000000E+00 -0.00000000000E+00 -0.10000000000E+04  0.10000000000E+04  0.00000000000E+00 0.  1.
    9000005    2    1    2  501    0  0.34616592202E-04 -0.23474882340E-05 -0.89356699159E+03  0.11064329965E+04  0.65248142293E+03 0.  0.
         13    1    3    3    0    0  0.10688955356E+03 -0.10473296198E+03 -0.93836606155E+03  0.95022378178E+03  0.00000000000E+00 0.  1.
          1    1    3    3  501    0 -0.10688951895E+03  0.10473295963E+03  0.44799069958E+02  0.15620921472E+03  0.00000000000E+00 0.  1.
         21    1    1    2  502  501 -0.34616592193E-04  0.23474882356E-05  0.44559387739E-04  0.56474402978E-04  0.00000000000E+00 0. -1.
<mgrwt>
<rscale>  1 0.65248142E+03</rscale>
<asrwt>0</asrwt>
<pdfrwt beam="1">  1        1 0.38703010E+00 0.65248142E+03</pdfrwt>
<pdfrwt beam="2">0</pdfrwt>
<totfact> 0.15269641E+00</totfact>
</mgrwt>
</event>
<event>
 6    1  0.6007990E-003  0.6046398E+03  0.7818608E-02  0.9895826E-01
          1   -1    0    0  502    0  0.00000000000E+00  0.00000000000E+00  0.96320546287E+02  0.96320546287E+02  0.00000000000E+00 0.  1.
         13   -1    0    0    0    0 -0.00000000000E+00 -0.00000000000E+00 -0.10000000000E+04  0.10000000000E+04  0.00000000000E+00 0.  1.
    9000005    2    1    2  501    0  0.91019364603E-01  0.26026581679E+01 -0.90822436710E+03  0.10910823833E+04  0.60463417367E+03 0.  0.
         13    1    3    3    0    0  0.17582249347E+03  0.90494242572E+02 -0.86836402907E+03  0.89059465759E+03  0.00000000000E+00 0.  1.
          3    1    3    3  501    0 -0.17573147411E+03 -0.87891584404E+02 -0.39860338038E+02  0.20048772568E+03  0.00000000000E+00 0.  1.
         21    1    1    2  502  501 -0.91019364603E-01 -0.26026581679E+01  0.45449133909E+01  0.52381630172E+01  0.00000000000E+00 0.  1.
<mgrwt>
<rscale>  1 0.60463978E+03</rscale>
<asrwt>0</asrwt>
<pdfrwt beam="1">  1        1 0.35025727E+00 0.60463978E+03</pdfrwt>
<pdfrwt beam="2">0</pdfrwt>
<totfact> 0.22338234E+00</totfact>
</mgrwt>
</event>
<event>
 6    1  0.6007990E-003  0.6513888E+03  0.7818608E-02  0.9804177E-01
          1   -1    0    0  502    0  0.00000000000E+00  0.00000000000E+00  0.10607684014E+03  0.10607684014E+03  0.00000000000E+00 0.  1.
         13   -1    0    0    0    0 -0.00000000000E+00 -0.00000000000E+00 -0.10000000000E+04  0.10000000000E+04  0.00000000000E+00 0.  1.
    9000005    2    1    2  501    0  0.68787778105E-05  0.96808222612E-05 -0.89392316146E+03  0.11060768282E+04  0.65138877116E+03 0.  0.
         13    1    3    3    0    0 -0.32497961930E+03 -0.93682809031E+01 -0.41397814622E+03  0.52638144268E+03  0.00000000000E+00 0.  1.
          1    1    3    3  501    0  0.32497962618E+03  0.93682905839E+01 -0.47994501524E+03  0.57969538548E+03  0.00000000000E+00 0.  1.
         21    1    1    2  502  501 -0.68787778198E-05 -0.96808222608E-05  0.15986291612E-05  0.11982967877E-04  0.00000000000E+00 0. -1.
<mgrwt>
<rscale>  1 0.65138877E+03</rscale>
<asrwt>0</asrwt>
<pdfrwt beam="1">  1        1 0.38573478E+00 0.65138877E+03</pdfrwt>
<pdfrwt beam="2">0</pdfrwt>
<totfact> 0.15475694E+00</totfact>
</mgrwt>
</event>
<event>
 6    1  0.6007990E-003  0.6475443E+03  0.7818608E-02  0.9811398E-01
          1   -1    0    0  502    0  0.00000000000E+00  0.00000000000E+00  0.10482859737E+03  0.10482859737E+03  0.00000000000E+00 0.  1.
         13   -1    0    0    0    0 -0.00000000000E+00 -0.00000000000E+00 -0.10000000000E+04  0.10000000000E+04  0.00000000000E+00 0.  1.
    9000005    2    1    2  501    0 -0.81983255484E-04 -0.36101098004E-03 -0.89517135657E+03  0.11048282243E+04  0.64754432097E+03 0.  0.
         13    1    3    3    0    0  0.11996059623E+03  0.22423250059E+03 -0.78949322383E+03  0.82943975637E+03  0.00000000000E+00 0.  1.
          3    1    3    3  501    0 -0.11996067822E+03 -0.22423286160E+03 -0.10567813273E+03  0.27538846794E+03  0.00000000000E+00 0.  1.
         21    1    1    2  502  501  0.81983255483E-04  0.36101098003E-03 -0.46062243755E-04  0.37305751860E-03  0.00000000000E+00 0. -1.
<mgrwt>
<rscale>  1 0.64754432E+03</rscale>
<asrwt>0</asrwt>
<pdfrwt beam="1">  1        1 0.38119570E+00 0.64754432E+03</pdfrwt>
<pdfrwt beam="2">0</pdfrwt>
<totfact> 0.16218847E+00</totfact>
</mgrwt>
</event>
<event>
 6    1  0.6007990E-003  0.6511827E+03  0.7818608E-02  0.9804562E-01
          1   -1    0    0  502    0  0.00000000000E+00  0.00000000000E+00  0.10796840685E+03  0.10796840685E+03  0.00000000000E+00 0.  1.
         13   -1    0    0    0    0 -0.00000000000E+00 -0.00000000000E+00 -0.10000000000E+04  0.10000000000E+04  0.00000000000E+00 0.  1.
    9000005    2    1    2  501    0  0.14541988430E+01  0.24415410154E+00 -0.89367855637E+03  0.11057577976E+04  0.65118105815E+03 0.  0.
         13    1    3    3    0    0  0.26455969617E+03  0.12175085346E+03 -0.69732415163E+03  0.75569575598E+03  0.00000000000E+00 0.  1.
          3    1    3    3  501    0 -0.26310549732E+03 -0.12150669936E+03 -0.19635440474E+03  0.35006204161E+03  0.00000000000E+00 0.  1.
         21    1    1    2  502  501 -0.14541988430E+01 -0.24415410154E+00  0.16469632189E+01  0.22106092700E+01  0.00000000000E+00 0.  1.
<mgrwt>
<rscale>  1 0.65118273E+03</rscale>
<asrwt>0</asrwt>
<pdfrwt beam="1">  1        1 0.39261322E+00 0.65118273E+03</pdfrwt>
<pdfrwt beam="2">0</pdfrwt>
<totfact> 0.14427084E+00</totfact>
</mgrwt>
</event>
<event>
 6    1  0.6007990E-003  0.6520210E+03  0.7818608E-02  0.9802994E-01
          1   -1    0    0  502    0  0.00000000000E+00  0.00000000000E+00  0.10711365472E+03  0.10711365472E+03  0.00000000000E+00 0.  1.
         13   -1    0    0    0    0 -0.00000000000E+00 -0.00000000000E+00 -0.10000000000E+04  0.10000000000E+04  0.00000000000E+00 0.  1.
    9000005    2    1    2  501    0  0.54901664351E-01 -0.17610314493E-02 -0.89371613849E+03  0.11062820454E+04  0.65202103093E+03 0.  0.
         13    1    3    3    0    0  0.31488780479E+03  0.12516625471E+02 -0.58873990970E+03  0.66777666685E+03  0.00000000000E+00 0.  1.
          1    1    3    3  501    0 -0.31483290313E+03 -0.12518386502E+02 -0.30497622879E+03  0.43850537855E+03  0.00000000000E+00 0.  1.
         21    1    1    2  502  501 -0.54901664351E-01  0.17610314493E-02  0.82979320197E+00  0.83160931453E+00  0.00000000000E+00 0.  1.
<mgrwt>
<rscale>  1 0.65202103E+03</rscale>
<asrwt>0</asrwt>
<pdfrwt beam="1">  1        1 0.38950502E+00 0.65202103E+03</pdfrwt>
<pdfrwt beam="2">0</pdfrwt>
<totfact> 0.14890202E+00</totfact>
</mgrwt>
</event>
<event>
 6    1  0.6007990E-003  0.6421242E+03  0.7818608E-02  0.9821671E-01
          1   -1    0    0  502    0  0.00000000000E+00  0.00000000000E+00  0.10308176715E+03  0.10308176715E+03  0.00000000000E+00 0.  1.
         13   -1    0    0    0    0 -0.00000000000E+00 -0.00000000000E+00 -0.10000000000E+04  0.10000000000E+04  0.00000000000E+00 0.  1.
    9000005    2    1    2  501    0 -0.17140423116E-02  0.14198797772E-02 -0.89691716903E+03  0.11030793002E+04  0.64212423601E+03 0.  0.
         13    1    3    3    0    0 -0.21487420729E+03  0.14850164358E+03 -0.12773126707E+03  0.29075580766E+03  0.00000000000E+00 0.  1.
          1    1    3    3  501    0  0.21487249324E+03 -0.14850022370E+03 -0.76918590196E+03  0.81232349256E+03  0.00000000000E+00 0.  1.
         21    1    1    2  502  501  0.17140423116E-02 -0.14198797772E-02 -0.10638245826E-02  0.24669256920E-02  0.00000000000E+00 0. -1.
<mgrwt>
<rscale>  1 0.64212424E+03</rscale>
<asrwt>0</asrwt>
<pdfrwt beam="1">  1        1 0.37484358E+00 0.64212424E+03</pdfrwt>
<pdfrwt beam="2">0</pdfrwt>
<totfact> 0.17316194E+00</totfact>
</mgrwt>
</event>
<event>
 6    1  0.6007990E-003  0.6504123E+03  0.7818608E-02  0.9806006E-01
          1   -1    0    0  502    0  0.00000000000E+00  0.00000000000E+00  0.10575904929E+03  0.10575904929E+03  0.00000000000E+00 0.  1.
         13   -1    0    0    0    0 -0.00000000000E+00 -0.00000000000E+00 -0.10000000000E+04  0.10000000000E+04  0.00000000000E+00 0.  1.
    9000005    2    1    2  501    0 -0.35761105437E-05  0.25987388881E-05 -0.89424095146E+03  0.11057590448E+04  0.65041231992E+03 0.  0.
         13    1    3    3    0    0  0.28905737517E+03  0.13527314636E+03 -0.34086753617E+03  0.46695146159E+03  0.00000000000E+00 0.  1.
          3    1    3    3  501    0 -0.28905737874E+03 -0.13527314376E+03 -0.55337341529E+03  0.63880758322E+03  0.00000000000E+00 0.  1.
         21    1    1    2  502  501  0.35761105494E-05 -0.25987388915E-05  0.74953882931E-06  0.44837282416E-05  0.00000000000E+00 0.  1.
<mgrwt>
<rscale>  1 0.65041232E+03</rscale>
<asrwt>0</asrwt>
<pdfrwt beam="1">  1        1 0.38457917E+00 0.65041232E+03</pdfrwt>
<pdfrwt beam="2">0</pdfrwt>
<totfact> 0.15661754E+00</totfact>
</mgrwt>
</event>
<event>
 6    1  0.6007990E-003  0.6453890E+03  0.7818608E-02  0.9815470E-01
          1   -1    0    0  502    0  0.00000000000E+00  0.00000000000E+00  0.10413175089E+03  0.10413175089E+03  0.00000000000E+00 0.  1.
         13   -1    0    0    0    0 -0.00000000000E+00 -0.00000000000E+00 -0.10000000000E+04  0.10000000000E+04  0.00000000000E+00 0.  1.
    9000005    2    1    2  501    0  0.11542021923E-04  0.58236576024E-05 -0.89586825516E+03  0.11041317366E+04  0.64538899992E+03 0.  0.
         13    1    3    3    0    0 -0.15899768248E+03 -0.27650830511E+03 -0.36421616017E+03  0.48413894407E+03  0.00000000000E+00 0.  1.
          1    1    3    3  501    0  0.15899769402E+03  0.27650831093E+03 -0.53165209498E+03  0.61999279256E+03  0.00000000000E+00 0.  1.
         21    1    1    2  502  501 -0.11542021924E-04 -0.58236576015E-05  0.60508835610E-05  0.14273978066E-04  0.00000000000E+00 0.  1.
<mgrwt>
<rscale>  1 0.64538900E+03</rscale>
<asrwt>0</asrwt>
<pdfrwt beam="1">  1        1 0.37866171E+00 0.64538900E+03</pdfrwt>
<pdfrwt beam="2">0</pdfrwt>
<totfact> 0.16648389E+00</totfact>
</mgrwt>
</event>
<event>
 6    1  0.6007990E-003  0.6510154E+03  0.7818608E-02  0.9804876E-01
          1   -1    0    0  502    0  0.00000000000E+00  0.00000000000E+00  0.11046110503E+03  0.11046110503E+03  0.00000000000E+00 0.  1.
         13   -1    0    0    0    0 -0.00000000000E+00 -0.00000000000E+00 -0.10000000000E+04  0.10000000000E+04  0.00000000000E+00 0.  1.
    9000005    2    1    2  501    0 -0.80670220596E+00 -0.53855771767E+00 -0.89398691961E+03  0.11059085523E+04  0.65101472554E+03 0.  0.
         13    1    3    3    0    0 -0.30172294882E+03 -0.12272701526E+03 -0.42576699995E+03  0.53607480482E+03  0.00000000000E+00 0.  1.
          1    1    3    3  501    0  0.30091624661E+03  0.12218845754E+03 -0.46821991967E+03  0.56983374751E+03  0.00000000000E+00 0.  1.
         21    1    1    2  502  501  0.80670220596E+00  0.53855771767E+00  0.44480246451E+01  0.45525527024E+01  0.00000000000E+00 0. -1.
<mgrwt>
<rscale>  1 0.65101545E+03</rscale>
<asrwt>0</asrwt>
<pdfrwt beam="1">  1        1 0.40167759E+00 0.65101545E+03</pdfrwt>
<pdfrwt beam="2">0</pdfrwt>
<totfact> 0.13147701E+00</totfact>
</mgrwt>
</event>
<event>
 6    1  0.6007990E-003  0.6587464E+03  0.7818608E-02  0.9790504E-01
          1   -1    0    0  502    0  0.00000000000E+00  0.00000000000E+00  0.10848704947E+03  0.10848704947E+03  0.00000000000E+00 0.  1.
         13   -1    0    0    0    0 -0.00000000000E+00 -0.00000000000E+00 -0.10000000000E+04  0.10000000000E+04  0.00000000000E+00 0.  1.
    9000005    2    1    2  501    0  0.19378138126E-03 -0.19712409641E-03 -0.89151322162E+03  0.11084866623E+04  0.65874642783E+03 0.  0.
         13    1    3    3    0    0  0.28447572059E+03  0.84313992428E+01 -0.16676353738E+03  0.32985997256E+03  0.00000000000E+00 0.  1.
          3    1    3    3  501    0 -0.28447552681E+03 -0.84315963669E+01 -0.72474968424E+03  0.77862668974E+03  0.00000000000E+00 0.  1.
         21    1    1    2  502  501 -0.19378138124E-03  0.19712409642E-03  0.27108919093E-03  0.38716725396E-03  0.00000000000E+00 0.  1.
<mgrwt>
<rscale>  1 0.65874643E+03</rscale>
<asrwt>0</asrwt>
<pdfrwt beam="1">  1        1 0.39449919E+00 0.65874643E+03</pdfrwt>
<pdfrwt beam="2">0</pdfrwt>
<totfact> 0.14131434E+00</totfact>
</mgrwt>
</event>
<event>
 6    1  0.6007990E-003  0.6756012E+03  0.7818608E-02  0.9759892E-01
          1   -1    0    0  502    0  0.00000000000E+00  0.00000000000E+00  0.11457020805E+03  0.11457020805E+03  0.00000000000E+00 0.  1.
         13   -1    0    0    0    0 -0.00000000000E+00 -0.00000000000E+00 -0.10000000000E+04  0.10000000000E+04  0.00000000000E+00 0.  1.
    9000005    2    1    2  501    0 -0.96900198349E+00  0.19552478634E+00 -0.88519164382E+03  0.11135533947E+04  0.67560042883E+03 0.  0.
         13    1    3    3    0    0  0.31676429032E+03 -0.33439565172E+02 -0.62506524822E+03  0.70154428561E+03  0.00000000000E+00 0.  1.
          3    1    3    3  501    0 -0.31773329230E+03  0.33635089958E+02 -0.26012639560E+03  0.41200910912E+03  0.00000000000E+00 0.  1.
         21    1    1    2  502  501  0.96900198349E+00 -0.19552478634E+00 -0.23814813122E+00  0.10168133155E+01  0.00000000000E+00 0.  1.
<mgrwt>
<rscale>  1 0.67560115E+03</rscale>
<asrwt>0</asrwt>
<pdfrwt beam="1">  1        1 0.41661982E+00 0.67560115E+03</pdfrwt>
<pdfrwt beam="2">0</pdfrwt>
<totfact> 0.11215984E+00</totfact>
</mgrwt>
</event>
<event>
 6    1  0.6007990E-003  0.6903863E+03  0.7818608E-02  0.9733816E-01
          1   -1    0    0  502    0  0.00000000000E+00  0.00000000000E+00  0.11916207722E+03  0.11916207722E+03  0.00000000000E+00 0.  1.
         13   -1    0    0    0    0 -0.00000000000E+00 -0.00000000000E+00 -0.10000000000E+04  0.10000000000E+04  0.00000000000E+00 0.  1.
    9000005    2    1    2  501    0 -0.17067357331E-02  0.10109890864E-01 -0.88082997438E+03  0.11191491042E+04  0.69038632194E+03 0.  0.
         13    1    3    3    0    0  0.86804269591E+02 -0.33235346218E+03 -0.38517369672E+03  0.51609357842E+03  0.00000000000E+00 0.  1.
          1    1    3    3  501    0 -0.86805976327E+02  0.33236357207E+03 -0.49565627766E+03  0.60305552576E+03  0.00000000000E+00 0.  1.
         21    1    1    2  502  501  0.17067357331E-02 -0.10109890864E-01 -0.79483912147E-02  0.12973039854E-01  0.00000000000E+00 0. -1.
<mgrwt>
<rscale>  1 0.69038632E+03</rscale>
<asrwt>0</asrwt>
<pdfrwt beam="1">  1        1 0.43331756E+00 0.69038632E+03</pdfrwt>
<pdfrwt beam="2">0</pdfrwt>
<totfact> 0.93966635E-01</totfact>
</mgrwt>
</event>
<event>
 6    1  0.6007990E-003  0.6525468E+03  0.7818608E-02  0.9802012E-01
          1   -1    0    0  502    0  0.00000000000E+00  0.00000000000E+00  0.10645437702E+03  0.10645437702E+03  0.00000000000E+00 0.  1.
         13   -1    0    0    0    0 -0.00000000000E+00 -0.00000000000E+00 -0.10000000000E+04  0.10000000000E+04  0.00000000000E+00 0.  1.
    9000005    2    1    2  501    0 -0.41782627136E-05  0.52014436136E-05 -0.89354567358E+03  0.11064543260E+04  0.65254678355E+03 0.  0.
         13    1    3    3    0    0 -0.32171633977E+03 -0.13041317699E+02 -0.35732567089E+03  0.48099180276E+03  0.00000000000E+00 0.  1.
          1    1    3    3  501    0  0.32171633559E+03  0.13041322901E+02 -0.53622000268E+03  0.62546252323E+03  0.00000000000E+00 0.  1.
         21    1    1    2  502  501  0.41782626893E-05 -0.52014436131E-05  0.50596204951E-04  0.51034192952E-04  0.00000000000E+00 0. -1.
<mgrwt>
<rscale>  1 0.65254678E+03</rscale>
<asrwt>0</asrwt>
<pdfrwt beam="1">  1        1 0.38710764E+00 0.65254678E+03</pdfrwt>
<pdfrwt beam="2">0</pdfrwt>
<totfact> 0.15257389E+00</totfact>
</mgrwt>
</event>
<event>
 6    1  0.6007990E-003  0.6526255E+03  0.7818608E-02  0.9801865E-01
          1   -1    0    0  502    0  0.00000000000E+00  0.00000000000E+00  0.10648128281E+03  0.10648128281E+03  0.00000000000E+00 0.  1.
         13   -1    0    0    0    0 -0.00000000000E+00 -0.00000000000E+00 -0.10000000000E+04  0.10000000000E+04  0.00000000000E+00 0.  1.
    9000005    2    1    2  501    0 -0.55588893787E-03 -0.21465019927E-03 -0.89351991192E+03  0.11064799477E+04  0.65262549881E+03 0.  0.
         13    1    3    3    0    0 -0.25886485132E+03 -0.60166768696E+02 -0.76777041287E+03  0.81246689667E+03  0.00000000000E+00 0.  1.
          1    1    3    3  501    0  0.25886429543E+03  0.60166554046E+02 -0.12574949905E+03  0.29401305105E+03  0.00000000000E+00 0.  1.
         21    1    1    2  502  501  0.55588893785E-03  0.21465019927E-03  0.11947334501E-02  0.13350937181E-02  0.00000000000E+00 0.  1.
<mgrwt>
<rscale>  1 0.65262550E+03</rscale>
<asrwt>0</asrwt>
<pdfrwt beam="1">  1        1 0.38720548E+00 0.65262550E+03</pdfrwt>
<pdfrwt beam="2">0</pdfrwt>
<totfact> 0.15241954E+00</totfact>
</mgrwt>
</event>
<event>
 6    1  0.6007990E-003  0.5559656E+03  0.7818608E-02  0.1000122E+00
          1   -1    0    0  502    0  0.00000000000E+00  0.00000000000E+00  0.77275221544E+02  0.77275221544E+02  0.00000000000E+00 0.  1.
         13   -1    0    0    0    0 -0.00000000000E+00 -0.00000000000E+00 -0.10000000000E+04  0.10000000000E+04  0.00000000000E+00 0.  1.
    9000005    2    1    2  501    0  0.18076795045E-02  0.51637875450E-03 -0.92272416603E+03  0.10772732443E+04  0.55596560717E+03 0.  0.
         13    1    3    3    0    0  0.37417410163E+02 -0.23294168504E+03 -0.74622122567E+03  0.78262890878E+03  0.00000000000E+00 0.  1.
          3    1    3    3  501    0 -0.37415602484E+02  0.23294220142E+03 -0.17650294036E+03  0.29464433554E+03  0.00000000000E+00 0.  1.
         21    1    1    2  502  501 -0.18076795045E-02 -0.51637875450E-03 -0.61242843660E-03  0.19772255306E-02  0.00000000000E+00 0. -1.
<mgrwt>
<rscale>  1 0.55596561E+03</rscale>
<asrwt>0</asrwt>
<pdfrwt beam="1">  1        1 0.28100140E+00 0.55596561E+03</pdfrwt>
<pdfrwt beam="2">0</pdfrwt>
<totfact> 0.44909117E+00</totfact>
</mgrwt>
</event>
<event>
 6    1  0.6007990E-003  0.6322200E+03  0.7818608E-02  0.9840726E-01
          1   -1    0    0  502    0  0.00000000000E+00  0.00000000000E+00  0.10104943415E+03  0.10104943415E+03  0.00000000000E+00 0.  1.
         13   -1    0    0    0    0 -0.00000000000E+00 -0.00000000000E+00 -0.10000000000E+04  0.10000000000E+04  0.00000000000E+00 0.  1.
    9000005    2    1    2  501    0  0.38386053822E+00  0.18024827911E+01 -0.89917853340E+03  0.10991924844E+04  0.63221727796E+03 0.  0.
         13    1    3    3    0    0 -0.20252637447E+03  0.24323821702E+03 -0.43274549102E+03  0.53614403156E+03  0.00000000000E+00 0.  1.
          3    1    3    3  501    0  0.20291023500E+03 -0.24143573423E+03 -0.46643304238E+03  0.56304845285E+03  0.00000000000E+00 0.  1.
         21    1    1    2  502  501 -0.38386053822E+00 -0.18024827911E+01  0.22796755008E+00  0.18569497379E+01  0.00000000000E+00 0.  1.
<mgrwt>
<rscale>  1 0.63221996E+03</rscale>
<asrwt>0</asrwt>
<pdfrwt beam="1">  1        1 0.36745326E+00 0.63221996E+03</pdfrwt>
<pdfrwt beam="2">0</pdfrwt>
<totfact> 0.18694356E+00</totfact>
</mgrwt>
</event>
<event>
 6    1  0.6007990E-003  0.6538094E+03  0.7818608E-02  0.9799657E-01
          1   -1    0    0  502    0  0.00000000000E+00  0.00000000000E+00  0.10709166986E+03  0.10709166986E+03  0.00000000000E+00 0.  1.
         13   -1    0    0    0    0 -0.00000000000E+00 -0.00000000000E+00 -0.10000000000E+04  0.10000000000E+04  0.00000000000E+00 0.  1.
    9000005    2    1    2  501    0  0.29376538442E-01 -0.45459449200E-01 -0.89312971725E+03  0.11068637624E+04  0.65380937118E+03 0.  0.
         13    1    3    3    0    0 -0.13019584532E+03 -0.22882407888E+03 -0.11847090308E+03  0.28869841027E+03  0.00000000000E+00 0.  1.
          3    1    3    3  501    0  0.13022522186E+03  0.22877861944E+03 -0.77465881417E+03  0.81816535217E+03  0.00000000000E+00 0.  1.
         21    1    1    2  502  501 -0.29376538442E-01  0.45459449200E-01  0.22138710888E+00  0.22790742531E+00  0.00000000000E+00 0.  1.
<mgrwt>
<rscale>  1 0.65380937E+03</rscale>
<asrwt>0</asrwt>
<pdfrwt beam="1">  1        1 0.38942508E+00 0.65380937E+03</pdfrwt>
<pdfrwt beam="2">0</pdfrwt>
<totfact> 0.14897411E+00</totfact>
</mgrwt>
</event>
<event>
 6    1  0.6007990E-003  0.6413623E+03  0.7818608E-02  0.9823123E-01
          1   -1    0    0  502    0  0.00000000000E+00  0.00000000000E+00  0.10284246358E+03  0.10284246358E+03  0.00000000000E+00 0.  1.
         13   -1    0    0    0    0 -0.00000000000E+00 -0.00000000000E+00 -0.10000000000E+04  0.10000000000E+04  0.00000000000E+00 0.  1.
    9000005    2    1    2  501    0 -0.17105725317E-03 -0.27388237132E-03 -0.89716358327E+03  0.11028364081E+04  0.64136233746E+03 0.  0.
         13    1    3    3    0    0  0.22496409129E+03  0.15907066997E+03 -0.16643326624E+03  0.32188872694E+03  0.00000000000E+00 0.  1.
          1    1    3    3  501    0 -0.22496426235E+03 -0.15907094386E+03 -0.73073031703E+03  0.78094768118E+03  0.00000000000E+00 0.  1.
         21    1    1    2  502  501  0.17105725318E-03  0.27388237132E-03  0.60468525230E-02  0.60554684024E-02  0.00000000000E+00 0. -1.
<mgrwt>
<rscale>  1 0.64136234E+03</rscale>
<asrwt>0</asrwt>
<pdfrwt beam="1">  1        1 0.37397338E+00 0.64136234E+03</pdfrwt>
<pdfrwt beam="2">0</pdfrwt>
<totfact> 0.17471990E+00</totfact>
</mgrwt>
</event>
<event>
 6    1  0.6007990E-003  0.6071141E+03  0.7818608E-02  0.9890756E-01
          1   -1    0    0  502    0  0.00000000000E+00  0.00000000000E+00  0.92217976647E+02  0.92217976647E+02  0.00000000000E+00 0.  1.
         13   -1    0    0    0    0 -0.00000000000E+00 -0.00000000000E+00 -0.10000000000E+04  0.10000000000E+04  0.00000000000E+00 0.  1.
    9000005    2    1    2  501    0  0.13602849540E-01 -0.58185456519E-01 -0.90783918712E+03  0.10921352827E+04  0.60711406060E+03 0.  0.
         13    1    3    3    0    0 -0.30338497736E+02  0.99970169629E+02  0.58784946069E+02  0.11987547349E+03  0.00000000000E+00 0.  1.
          3    1    3    3  501    0  0.30352100586E+02 -0.10002835509E+03 -0.96662413319E+03  0.97225980926E+03  0.00000000000E+00 0.  1.
         21    1    1    2  502  501 -0.13602849540E-01  0.58185456519E-01  0.57163766465E-01  0.82693899790E-01  0.00000000000E+00 0.  1.
<mgrwt>
<rscale>  1 0.60711406E+03</rscale>
<asrwt>0</asrwt>
<pdfrwt beam="1">  1        1 0.33533880E+00 0.60711406E+03</pdfrwt>
<pdfrwt beam="2">0</pdfrwt>
<totfact> 0.25923286E+00</totfact>
</mgrwt>
</event>
<event>
 6    1  0.6007990E-003  0.6381558E+03  0.7818608E-02  0.9829261E-01
          1   -1    0    0  502    0  0.00000000000E+00  0.00000000000E+00  0.10262044423E+03  0.10262044423E+03  0.00000000000E+00 0.  1.
         13   -1    0    0    0    0 -0.00000000000E+00 -0.00000000000E+00 -0.10000000000E+04  0.10000000000E+04  0.00000000000E+00 0.  1.
    9000005    2    1    2  501    0 -0.43630505400E-01  0.19180191011E-01 -0.89818853074E+03  0.11018100665E+04  0.63815576759E+03 0.  0.
         13    1    3    3    0    0  0.28362190166E+03  0.10167303850E+03 -0.63033045523E+03  0.69863815573E+03  0.00000000000E+00 0.  1.
          1    1    3    3  501    0 -0.28366553217E+03 -0.10165385831E+03 -0.26785807551E+03  0.40317191081E+03  0.00000000000E+00 0.  1.
         21    1    1    2  502  501  0.43630505400E-01 -0.19180191011E-01  0.80897496628E+00  0.81037768775E+00  0.00000000000E+00 0.  1.
<mgrwt>
<rscale>  1 0.63815577E+03</rscale>
<asrwt>0</asrwt>
<pdfrwt beam="1">  1        1 0.37316604E+00 0.63815577E+03</pdfrwt>
<pdfrwt beam="2">0</pdfrwt>
<totfact> 0.17625787E+00</totfact>
</mgrwt>
</event>
<event>
 6    1  0.6007990E-003  0.6524157E+03  0.7818608E-02  0.9802257E-01
          1   -1    0    0  502    0  0.00000000000E+00  0.00000000000E+00  0.10645981613E+03  0.10645981613E+03  0.00000000000E+00 0.  1.
         13   -1    0    0    0    0 -0.00000000000E+00 -0.00000000000E+00 -0.10000000000E+04  0.10000000000E+04  0.00000000000E+00 0.  1.
    9000005    2    1    2  501    0  0.18286537085E-02  0.92319163798E-04 -0.89358841577E+03  0.11064115495E+04  0.65241571107E+03 0.  0.
         13    1    3    3    0    0  0.45135431724E+02 -0.32207956024E+03 -0.40391976336E+03  0.51857846615E+03  0.00000000000E+00 0.  1.
          1    1    3    3  501    0 -0.45133603071E+02  0.32207965256E+03 -0.48966865241E+03  0.58783308334E+03  0.00000000000E+00 0.  1.
         21    1    1    2  502  501 -0.18286537085E-02 -0.92319163809E-04  0.48231897935E-01  0.48266639365E-01  0.00000000000E+00 0. -1.
<mgrwt>
<rscale>  1 0.65241571E+03</rscale>
<asrwt>0</asrwt>
<pdfrwt beam="1">  1        1 0.38712742E+00 0.65241571E+03</pdfrwt>
<pdfrwt beam="2">0</pdfrwt>
<totfact> 0.15254682E+00</totfact>
</mgrwt>
</event>
<event>
 6    1  0.6007990E-003  0.6470623E+03  0.7818608E-02  0.9812307E-01
          1   -1    0    0  502    0  0.00000000000E+00  0.00000000000E+00  0.10467243762E+03  0.10467243762E+03  0.00000000000E+00 0.  1.
         13   -1    0    0    0    0 -0.00000000000E+00 -0.00000000000E+00 -0.10000000000E+04  0.10000000000E+04  0.00000000000E+00 0.  1.
    9000005    2    1    2  501    0 -0.13551110953E-05  0.44924256599E-05 -0.89532758583E+03  0.11046724137E+04  0.64706232747E+03 0.  0.
         13    1    3    3    0    0 -0.15923007605E+03  0.14808623214E+03 -0.38685315040E+02  0.22086263348E+03  0.00000000000E+00 0.  1.
          1    1    3    3  501    0  0.15923007469E+03 -0.14808622764E+03 -0.85664227079E+03  0.88380978022E+03  0.00000000000E+00 0.  1.
         21    1    1    2  502  501  0.13551110952E-05 -0.44924256661E-05  0.23450850531E-04  0.23915697880E-04  0.00000000000E+00 0.  1.
<mgrwt>
<rscale>  1 0.64706233E+03</rscale>
<asrwt>0</asrwt>
<pdfrwt beam="1">  1        1 0.38062785E+00 0.64706233E+03</pdfrwt>
<pdfrwt beam="2">0</pdfrwt>
<totfact> 0.16314175E+00</totfact>
</mgrwt>
</event>
<event>
 6    1  0.6007990E-003  0.5956298E+03  0.7818608E-02  0.9914515E-01
          1   -1    0    0  502    0  0.00000000000E+00  0.00000000000E+00  0.88871237925E+02  0.88871237925E+02  0.00000000000E+00 0.  1.
         13   -1    0    0    0    0 -0.00000000000E+00 -0.00000000000E+00 -0.10000000000E+04  0.10000000000E+04  0.00000000000E+00 0.  1.
    9000005    2    1    2  501    0  0.28613539161E-02  0.16970920789E-01 -0.91130583489E+03  0.10886933307E+04  0.59562978713E+03 0.  0.
         13    1    3    3    0    0  0.21410766396E+03 -0.10014334670E+03 -0.78678935207E+03  0.82152800694E+03  0.00000000000E+00 0.  1.
          1    1    3    3  501    0 -0.21410480261E+03  0.10016031762E+03 -0.12451648282E+03  0.26716532376E+03  0.00000000000E+00 0.  1.
         21    1    1    2  502  501 -0.28613539161E-02 -0.16970920789E-01  0.17707281310E+00  0.17790722481E+00  0.00000000000E+00 0. -1.
<mgrwt>
<rscale>  1 0.59562979E+03</rscale>
<asrwt>0</asrwt>
<pdfrwt beam="1">  1        1 0.32316882E+00 0.59562979E+03</pdfrwt>
<pdfrwt beam="2">0</pdfrwt>
<totfact> 0.29327780E+00</totfact>
</mgrwt>
</event>
<event>
 6    1  0.6007990E-003  0.6441164E+03  0.7818608E-02  0.9817882E-01
          1   -1    0    0  502    0  0.00000000000E+00  0.00000000000E+00  0.10456357059E+03  0.10456357059E+03  0.00000000000E+00 0.  1.
         13   -1    0    0    0    0 -0.00000000000E+00 -0.00000000000E+00 -0.10000000000E+04  0.10000000000E+04  0.00000000000E+00 0.  1.
    9000005    2    1    2  501    0 -0.49954102889E-02  0.16029201840E-01 -0.89627841747E+03  0.11037214152E+04  0.64411641834E+03 0.  0.
         13    1    3    3    0    0 -0.24841012578E+03 -0.20239464550E+03 -0.50361515995E+03  0.59690821108E+03  0.00000000000E+00 0.  1.
          3    1    3    3  501    0  0.24840513037E+03  0.20241067470E+03 -0.39266325751E+03  0.50681320408E+03  0.00000000000E+00 0.  1.
         21    1    1    2  502  501  0.49954102889E-02 -0.16029201840E-01  0.84198805923E+00  0.84215543775E+00  0.00000000000E+00 0. -1.
<mgrwt>
<rscale>  1 0.64411642E+03</rscale>
<asrwt>0</asrwt>
<pdfrwt beam="1">  1        1 0.38023197E+00 0.64411642E+03</pdfrwt>
<pdfrwt beam="2">0</pdfrwt>
<totfact> 0.16388821E+00</totfact>
</mgrwt>
</event>
<event>
 6    1  0.6007990E-003  0.6518447E+03  0.7818608E-02  0.9803324E-01
          1   -1    0    0  502    0  0.00000000000E+00  0.00000000000E+00  0.10653252998E+03  0.10653252998E+03  0.00000000000E+00 0.  1.
         13   -1    0    0    0    0 -0.00000000000E+00 -0.00000000000E+00 -0.10000000000E+04  0.10000000000E+04  0.00000000000E+00 0.  1.
    9000005    2    1    2  501    0  0.17809595330E-01  0.74650286225E-01 -0.89376930603E+03  0.11062210901E+04  0.65184470681E+03 0.  0.
         13    1    3    3    0    0 -0.15910487105E+03 -0.24039804918E+03 -0.70476659869E+03  0.76144700451E+03  0.00000000000E+00 0.  1.
          3    1    3    3  501    0  0.15912268065E+03  0.24047269947E+03 -0.18900270734E+03  0.34477408555E+03  0.00000000000E+00 0.  1.
         21    1    1    2  502  501 -0.17809595330E-01 -0.74650286225E-01  0.30183601365E+00  0.31143992367E+00  0.00000000000E+00 0.  1.
<mgrwt>
<rscale>  1 0.65184471E+03</rscale>
<asrwt>0</asrwt>
<pdfrwt beam="1">  1        1 0.38739184E+00 0.65184471E+03</pdfrwt>
<pdfrwt beam="2">0</pdfrwt>
<totfact> 0.15215216E+00</totfact>
</mgrwt>
</event>
<event>
 6    1  0.6007990E-003  0.6601879E+03  0.7818608E-02  0.9787848E-01
          1   -1    0    0  502    0  0.00000000000E+00  0.00000000000E+00  0.10896291651E+03  0.10896291651E+03  0.00000000000E+00 0.  1.
         13   -1    0    0    0    0 -0.00000000000E+00 -0.00000000000E+00 -0.10000000000E+04  0.10000000000E+04  0.00000000000E+00 0.  1.
    9000005    2    1    2  501    0  0.22778981787E-04 -0.26472816401E-03 -0.89103794816E+03  0.11089620119E+04  0.66018794207E+03 0.  0.
         13    1    3    3    0    0 -0.19169725208E+03  0.22747767563E+03 -0.68583732015E+03  0.74757391546E+03  0.00000000000E+00 0.  1.
          3    1    3    3  501    0  0.19169727485E+03 -0.22747794036E+03 -0.20520062801E+03  0.36138809647E+03  0.00000000000E+00 0.  1.
         21    1    1    2  502  501 -0.22778981802E-04  0.26472816401E-03  0.86467107633E-03  0.90457501241E-03  0.00000000000E+00 0. -1.
<mgrwt>
<rscale>  1 0.66018794E+03</rscale>
<asrwt>0</asrwt>
<pdfrwt beam="1">  1        1 0.39622962E+00 0.66018794E+03</pdfrwt>
<pdfrwt beam="2">0</pdfrwt>
<totfact> 0.13879479E+00</totfact>
</mgrwt>
</event>
<event>
 6    1  0.6007990E-003  0.6408846E+03  0.7818608E-02  0.9824035E-01
          1   -1    0    0  502    0  0.00000000000E+00  0.00000000000E+00  0.10268331317E+03  0.10268331317E+03  0.00000000000E+00 0.  1.
         13   -1    0    0    0    0 -0.00000000000E+00 -0.00000000000E+00 -0.10000000000E+04  0.10000000000E+04  0.00000000000E+00 0.  1.
    9000005    2    1    2  501    0 -0.37845172301E-04  0.19303518286E-05 -0.89731671289E+03  0.11026832672E+04  0.64088462650E+03 0.  0.
         13    1    3    3    0    0  0.25028568384E+03  0.18886287558E+03 -0.56241298904E+03  0.64391030396E+03  0.00000000000E+00 0.  1.
          1    1    3    3  501    0 -0.25028572169E+03 -0.18886287365E+03 -0.33490372386E+03  0.45877296322E+03  0.00000000000E+00 0.  1.
         21    1    1    2  502  501  0.37845172283E-04 -0.19303518209E-05  0.26062480868E-04  0.45991697427E-04  0.00000000000E+00 0. -1.
<mgrwt>
<rscale>  1 0.64088463E+03</rscale>
<asrwt>0</asrwt>
<pdfrwt beam="1">  1        1 0.37339465E+00 0.64088463E+03</pdfrwt>
<pdfrwt beam="2">0</pdfrwt>
<totfact> 0.17576249E+00</totfact>
</mgrwt>
</event>
<event>
 6    1  0.6007990E-003  0.5806288E+03  0.7818608E-02  0.9946431E-01
          1   -1    0    0  502    0  0.00000000000E+00  0.00000000000E+00  0.96396259332E+02  0.96396259332E+02  0.00000000000E+00 0.  1.
         13   -1    0    0    0    0 -0.00000000000E+00 -0.00000000000E+00 -0.10000000000E+04  0.10000000000E+04  0.00000000000E+00 0.  1.
    9000005    2    1    2  501    0  0.35229183904E+01 -0.20603795362E+00 -0.91543838649E+03  0.10840466744E+04  0.58061803233E+03 0.  0.
         13    1    3    3    0    0 -0.11431155780E+03 -0.95372549907E+02 -0.92053555926E+03  0.93249599001E+03  0.00000000000E+00 0.  1.
          1    1    3    3  501    0  0.11783447619E+03  0.95166511953E+02  0.50971727720E+01  0.15155068442E+03  0.00000000000E+00 0.  1.
         21    1    1    2  502  501 -0.35229183904E+01  0.20603795362E+00  0.11834645821E+02  0.12349584905E+02  0.00000000000E+00 0. -1.
<mgrwt>
<rscale>  1 0.58062876E+03</rscale>
<asrwt>0</asrwt>
<pdfrwt beam="1">  1        1 0.35053259E+00 0.58062876E+03</pdfrwt>
<pdfrwt beam="2">0</pdfrwt>
<totfact> 0.22379239E+00</totfact>
</mgrwt>
</event>
<event>
 6    1  0.6007990E-003  0.6546087E+03  0.7818608E-02  0.9798169E-01
          1   -1    0    0  502    0  0.00000000000E+00  0.00000000000E+00  0.10712848633E+03  0.10712848633E+03  0.00000000000E+00 0.  1.
         13   -1    0    0    0    0 -0.00000000000E+00 -0.00000000000E+00 -0.10000000000E+04  0.10000000000E+04  0.00000000000E+00 0.  1.
    9000005    2    1    2  501    0 -0.32793899692E-04 -0.61236876871E-03 -0.89287152622E+03  0.11071278730E+04  0.65460871117E+03 0.  0.
         13    1    3    3    0    0  0.17618324404E+03  0.21985497777E+03 -0.72818117981E+03  0.78078459088E+03  0.00000000000E+00 0.  1.
          3    1    3    3  501    0 -0.17618327684E+03 -0.21985559014E+03 -0.16469034641E+03  0.32634328207E+03  0.00000000000E+00 0.  1.
         21    1    1    2  502  501  0.32793899678E-04  0.61236876872E-03  0.12550136030E-04  0.61337464463E-03  0.00000000000E+00 0.  1.
<mgrwt>
<rscale>  1 0.65460871E+03</rscale>
<asrwt>0</asrwt>
<pdfrwt beam="1">  1        1 0.38955895E+00 0.65460871E+03</pdfrwt>
<pdfrwt beam="2">0</pdfrwt>
<totfact> 0.14874860E+00</totfact>
</mgrwt>
</event>
<event>
 6    1  0.6007990E-003  0.6519190E+03  0.7818608E-02  0.9803185E-01
          1   -1    0    0  502    0  0.00000000000E+00  0.00000000000E+00  0.10624979591E+03  0.10624979591E+03  0.00000000000E+00 0.  1.
         13   -1    0    0    0    0 -0.00000000000E+00 -0.00000000000E+00 -0.10000000000E+04  0.10000000000E+04  0.00000000000E+00 0.  1.
    9000005    2    1    2  501    0  0.12990303816E-03  0.17047618500E-03 -0.89375033624E+03  0.11062495441E+04  0.65191900595E+03 0.  0.
         13    1    3    3    0    0  0.16394719999E+03  0.23160844880E+02  0.29575137931E+02  0.16819571310E+03  0.00000000000E+00 0.  1.
          1    1    3    3  501    0 -0.16394707009E+03 -0.23160674404E+02 -0.92332547417E+03  0.93805383102E+03  0.00000000000E+00 0.  1.
         21    1    1    2  502  501 -0.12990303815E-03 -0.17047618500E-03  0.13215306723E-03  0.25179627112E-03  0.00000000000E+00 0. -1.
<mgrwt>
<rscale>  1 0.65191901E+03</rscale>
<asrwt>0</asrwt>
<pdfrwt beam="1">  1        1 0.38636371E+00 0.65191901E+03</pdfrwt>
<pdfrwt beam="2">0</pdfrwt>
<totfact> 0.15375320E+00</totfact>
</mgrwt>
</event>
<event>
 6    1  0.6007990E-003  0.6550913E+03  0.7818608E-02  0.9797272E-01
          1   -1    0    0  502    0  0.00000000000E+00  0.00000000000E+00  0.10728621204E+03  0.10728621204E+03  0.00000000000E+00 0.  1.
         13   -1    0    0    0    0 -0.00000000000E+00 -0.00000000000E+00 -0.10000000000E+04  0.10000000000E+04  0.00000000000E+00 0.  1.
    9000005    2    1    2  501    0  0.36945173065E-04 -0.60111835012E-04 -0.89271380807E+03  0.11072861387E+04  0.65509132933E+03 0.  0.
         13    1    3    3    0    0  0.17201027032E+03 -0.25962957642E+03 -0.61782753736E+03  0.69188576800E+03  0.00000000000E+00 0.  1.
          3    1    3    3  501    0 -0.17201023337E+03  0.25962951631E+03 -0.27488627071E+03  0.41540037066E+03  0.00000000000E+00 0.  1.
         21    1    1    2  502  501 -0.36945173078E-04  0.60111835022E-04  0.20110936100E-04  0.73367760455E-04  0.00000000000E+00 0. -1.
<mgrwt>
<rscale>  1 0.65509133E+03</rscale>
<asrwt>0</asrwt>
<pdfrwt beam="1">  1        1 0.39013250E+00 0.65509133E+03</pdfrwt>
<pdfrwt beam="2">0</pdfrwt>
<totfact> 0.14786680E+00</totfact>
</mgrwt>
</event>
<event>
 6    1  0.6007990E-003  0.6429101E+03  0.7818608E-02  0.9820175E-01
          1   -1    0    0  502    0  0.00000000000E+00  0.00000000000E+00  0.10333447660E+03  0.10333447660E+03  0.00000000000E+00 0.  1.
         13   -1    0    0    0    0 -0.00000000000E+00 -0.00000000000E+00 -0.10000000000E+04  0.10000000000E+04  0.00000000000E+00 0.  1.
    9000005    2    1    2  501    0 -0.95458679283E-04 -0.83244656878E-04 -0.89666664735E+03  0.11033333455E+04  0.64291009861E+03 0.  0.
         13    1    3    3    0    0 -0.24907600700E+03  0.15088843114E+03 -0.68192709006E+03  0.74150571951E+03  0.00000000000E+00 0.  1.
          1    1    3    3  501    0  0.24907591154E+03 -0.15088851439E+03 -0.21473955730E+03  0.36182762602E+03  0.00000000000E+00 0.  1.
         21    1    1    2  502  501  0.95458679292E-04  0.83244656873E-04  0.11239563496E-02  0.11310702490E-02  0.00000000000E+00 0. -1.
<mgrwt>
<rscale>  1 0.64291010E+03</rscale>
<asrwt>0</asrwt>
<pdfrwt beam="1">  1        1 0.37576253E+00 0.64291010E+03</pdfrwt>
<pdfrwt beam="2">0</pdfrwt>
<totfact> 0.17153170E+00</totfact>
</mgrwt>
</event>
<event>
 6    1  0.6007990E-003  0.6484310E+03  0.7818608E-02  0.9809728E-01
          1   -1    0    0  502    0  0.00000000000E+00  0.00000000000E+00  0.11168105112E+03  0.11168105112E+03  0.00000000000E+00 0.  1.
         13   -1    0    0    0    0 -0.00000000000E+00 -0.00000000000E+00 -0.10000000000E+04  0.10000000000E+04  0.00000000000E+00 0.  1.
    9000005    2    1    2  501    0 -0.77280871768E-01 -0.21627112983E+00 -0.89488208901E+03  0.11051138939E+04  0.64843096203E+03 0.  0.
         13    1    3    3    0    0  0.14727992272E+03 -0.16520847656E+03 -0.43627358114E+02  0.22558493464E+03  0.00000000000E+00 0.  1.
          3    1    3    3  501    0 -0.14735720359E+03  0.16499220543E+03 -0.85125473090E+03  0.87952895926E+03  0.00000000000E+00 0.  1.
         21    1    1    2  502  501  0.77280871768E-01  0.21627112983E+00  0.65631401281E+01  0.65671572142E+01  0.00000000000E+00 0. -1.
<mgrwt>
<rscale>  1 0.64843100E+03</rscale>
<asrwt>0</asrwt>
<pdfrwt beam="1">  1        1 0.40611377E+00 0.64843100E+03</pdfrwt>
<pdfrwt beam="2">0</pdfrwt>
<totfact> 0.12567516E+00</totfact>
</mgrwt>
</event>
<event>
 6    1  0.6007990E-003  0.6448287E+03  0.7818608E-02  0.9816531E-01
          1   -1    0    0  502    0  0.00000000000E+00  0.00000000000E+00  0.10401534481E+03  0.10401534481E+03  0.00000000000E+00 0.  1.
         13   -1    0    0    0    0 -0.00000000000E+00 -0.00000000000E+00 -0.10000000000E+04  0.10000000000E+04  0.00000000000E+00 0.  1.
    9000005    2    1    2  501    0  0.64422139925E-02  0.21186512592E-01 -0.89604687210E+03  0.11039493046E+04  0.64482871333E+03 0.  0.
         13    1    3    3    0    0  0.30607532224E+02  0.31215240526E+03 -0.57594535003E+03  0.65581170420E+03  0.00000000000E+00 0.  1.
          3    1    3    3  501    0 -0.30601090010E+02 -0.31213121875E+03 -0.32010152207E+03  0.44813760036E+03  0.00000000000E+00 0.  1.
         21    1    1    2  502  501 -0.64422139925E-02 -0.21186512592E-01  0.62216908611E-01  0.66040246472E-01  0.00000000000E+00 0.  1.
<mgrwt>
<rscale>  1 0.64482871E+03</rscale>
<asrwt>0</asrwt>
<pdfrwt beam="1">  1        1 0.37823842E+00 0.64482871E+03</pdfrwt>
<pdfrwt beam="2">0</pdfrwt>
<totfact> 0.16721805E+00</totfact>
</mgrwt>
</event>
<event>
 6    1  0.6007990E-003  0.6429916E+03  0.7818608E-02  0.9820019E-01
          1   -1    0    0  502    0  0.00000000000E+00  0.00000000000E+00  0.10335971902E+03  0.10335971902E+03  0.00000000000E+00 0.  1.
         13   -1    0    0    0    0 -0.00000000000E+00 -0.00000000000E+00 -0.10000000000E+04  0.10000000000E+04  0.00000000000E+00 0.  1.
    9000005    2    1    2  501    0  0.11251213776E-03 -0.18769905392E-03 -0.89664034419E+03  0.11033594912E+04  0.64299164851E+03 0.  0.
         13    1    3    3    0    0  0.11489961089E+03  0.22623340516E+03 -0.78709458063E+03  0.82698328462E+03  0.00000000000E+00 0.  1.
          1    1    3    3  501    0 -0.11489949838E+03 -0.22623359285E+03 -0.10954576356E+03  0.27637620661E+03  0.00000000000E+00 0.  1.
         21    1    1    2  502  501 -0.11251213776E-03  0.18769905392E-03  0.63210113958E-04  0.22778374501E-03  0.00000000000E+00 0.  1.
<mgrwt>
<rscale>  1 0.64299165E+03</rscale>
<asrwt>0</asrwt>
<pdfrwt beam="1">  1        1 0.37585432E+00 0.64299165E+03</pdfrwt>
<pdfrwt beam="2">0</pdfrwt>
<totfact> 0.17136957E+00</totfact>
</mgrwt>
</event>
<event>
 6    1  0.6007990E-003  0.6456226E+03  0.7818608E-02  0.9815028E-01
          1   -1    0    0  502    0  0.00000000000E+00  0.00000000000E+00  0.10463856447E+03  0.10463856447E+03  0.00000000000E+00 0.  1.
         13   -1    0    0    0    0 -0.00000000000E+00 -0.00000000000E+00 -0.10000000000E+04  0.10000000000E+04  0.00000000000E+00 0.  1.
    9000005    2    1    2  501    0 -0.28938794545E+00  0.12472981440E+01 -0.89415884610E+03  0.11028819429E+04  0.64562132739E+03 0.  0.
         13    1    3    3    0    0  0.27887880100E+03  0.11659941657E+03 -0.64125280288E+03  0.70892451417E+03  0.00000000000E+00 0.  1.
          3    1    3    3  501    0 -0.27916818894E+03 -0.11535211842E+03 -0.25290604322E+03  0.39395742871E+03  0.00000000000E+00 0.  1.
         21    1    1    2  502  501  0.28938794545E+00 -0.12472981440E+01 -0.12025894363E+01  0.17566215857E+01  0.00000000000E+00 0. -1.
<mgrwt>
<rscale>  1 0.64562260E+03</rscale>
<asrwt>0</asrwt>
<pdfrwt beam="1">  1        1 0.38050467E+00 0.64562260E+03</pdfrwt>
<pdfrwt beam="2">0</pdfrwt>
<totfact> 0.16338936E+00</totfact>
</mgrwt>
</event>
<event>
 6    1  0.6007990E-003  0.6533231E+03  0.7818608E-02  0.9800564E-01
          1   -1    0    0  502    0  0.00000000000E+00  0.00000000000E+00  0.10924406809E+03  0.10924406809E+03  0.00000000000E+00 0.  1.
         13   -1    0    0    0    0 -0.00000000000E+00 -0.00000000000E+00 -0.10000000000E+04  0.10000000000E+04  0.00000000000E+00 0.  1.
    9000005    2    1    2  501    0 -0.94114261711E+00  0.53488306269E+00 -0.89316377536E+03  0.11066040758E+04  0.65332218626E+03 0.  0.
         13    1    3    3    0    0 -0.22690997244E+03 -0.20445848633E+03 -0.24985031694E+03  0.39460941334E+03  0.00000000000E+00 0.  1.
          1    1    3    3  501    0  0.22596882982E+03  0.20499336940E+03 -0.64331345842E+03  0.71199466243E+03  0.00000000000E+00 0.  1.
         21    1    1    2  502  501  0.94114261711E+00 -0.53488306269E+00  0.24078434542E+01  0.26399923137E+01  0.00000000000E+00 0.  1.
<mgrwt>
<rscale>  1 0.65332308E+03</rscale>
<asrwt>0</asrwt>
<pdfrwt beam="1">  1        1 0.39725199E+00 0.65332308E+03</pdfrwt>
<pdfrwt beam="2">0</pdfrwt>
<totfact> 0.13752503E+00</totfact>
</mgrwt>
</event>
<event>
 6    1  0.6007990E-003  0.6460464E+03  0.7818608E-02  0.9814226E-01
          1   -1    0    0  502    0  0.00000000000E+00  0.00000000000E+00  0.10434595999E+03  0.10434595999E+03  0.00000000000E+00 0.  1.
         13   -1    0    0    0    0 -0.00000000000E+00 -0.00000000000E+00 -0.10000000000E+04  0.10000000000E+04  0.00000000000E+00 0.  1.
    9000005    2    1    2  501    0 -0.13432599523E-03  0.31089143278E-04 -0.89565600865E+03  0.11043439865E+04  0.64604640293E+03 0.  0.
         13    1    3    3    0    0 -0.10243326003E+03 -0.11872164249E+03 -0.93057989876E+03  0.94369822991E+03  0.00000000000E+00 0.  1.
          3    1    3    3  501    0  0.10243312571E+03  0.11872167358E+03  0.34923890105E+02  0.16064575662E+03  0.00000000000E+00 0.  1.
         21    1    1    2  502  501  0.13432599524E-03 -0.31089143267E-04  0.19686431137E-02  0.19734654080E-02  0.00000000000E+00 0.  1.
<mgrwt>
<rscale>  1 0.64604640E+03</rscale>
<asrwt>0</asrwt>
<pdfrwt beam="1">  1        1 0.37944065E+00 0.64604640E+03</pdfrwt>
<pdfrwt beam="2">0</pdfrwt>
<totfact> 0.16515225E+00</totfact>
</mgrwt>
</event>
<event>
 6    1  0.6007990E-003  0.6503113E+03  0.7818608E-02  0.9806195E-01
          1   -1    0    0  502    0  0.00000000000E+00  0.00000000000E+00  0.10573129929E+03  0.10573129929E+03  0.00000000000E+00 0.  1.
         13   -1    0    0    0    0 -0.00000000000E+00 -0.00000000000E+00 -0.10000000000E+04  0.10000000000E+04  0.00000000000E+00 0.  1.
    9000005    2    1    2  501    0 -0.89155344352E-03 -0.22188277298E-02 -0.89427349453E+03  0.11057259422E+04  0.65031129173E+03 0.  0.
         13    1    3    3    0    0 -0.26103825934E+03 -0.18017216451E+03 -0.32542866592E+03  0.45443019080E+03  0.00000000000E+00 0.  1.
          1    1    3    3  501    0  0.26103736779E+03  0.18016994569E+03 -0.56884482861E+03  0.65129575136E+03  0.00000000000E+00 0.  1.
         21    1    1    2  502  501  0.89155344353E-03  0.22188277299E-02  0.47938207114E-02  0.53571243266E-02  0.00000000000E+00 0.  1.
<mgrwt>
<rscale>  1 0.65031129E+03</rscale>
<asrwt>0</asrwt>
<pdfrwt beam="1">  1        1 0.38447826E+00 0.65031129E+03</pdfrwt>
<pdfrwt beam="2">0</pdfrwt>
<totfact> 0.15678147E+00</totfact>
</mgrwt>
</event>
<event>
 6    1  0.6007990E-003  0.4720691E+03  0.7818608E-02  0.1021338E+00
          1   -1    0    0  502    0  0.00000000000E+00  0.00000000000E+00  0.63315272358E+02  0.63315272358E+02  0.00000000000E+00 0.  1.
         13   -1    0    0    0    0 -0.00000000000E+00 -0.00000000000E+00 -0.10000000000E+04  0.10000000000E+04  0.00000000000E+00 0.  1.
    9000005    2    1    2  501    0  0.16453949707E+02 -0.16945998278E+01 -0.93405082848E+03  0.10465658976E+04  0.47177921079E+03 0.  0.
         13    1    3    3    0    0  0.65303731053E+02 -0.14350021800E+03 -0.86882328343E+03  0.88301233722E+03  0.00000000000E+00 0.  1.
          3    1    3    3  501    0 -0.48849781347E+02  0.14180561817E+03 -0.65227545048E+02  0.16355356039E+03  0.00000000000E+00 0.  1.
         21    1    1    2  502  501 -0.16453949707E+02  0.16945998278E+01 -0.26338991610E+01  0.16749374744E+02  0.00000000000E+00 0. -1.
<mgrwt>
<rscale>  1 0.47206909E+03</rscale>
<asrwt>0</asrwt>
<pdfrwt beam="1">  1        1 0.23023784E+00 0.47206909E+03</pdfrwt>
<pdfrwt beam="2">0</pdfrwt>
<totfact> 0.75710795E+00</totfact>
</mgrwt>
</event>
<event>
 6    1  0.6007990E-003  0.6492975E+03  0.7818608E-02  0.9808098E-01
          1   -1    0    0  502    0  0.00000000000E+00  0.00000000000E+00  0.10539697061E+03  0.10539697061E+03  0.00000000000E+00 0.  1.
         13   -1    0    0    0    0 -0.00000000000E+00 -0.00000000000E+00 -0.10000000000E+04  0.10000000000E+04  0.00000000000E+00 0.  1.
    9000005    2    1    2  501    0 -0.13119212852E-03 -0.10197200751E-03 -0.89460313072E+03  0.11053967760E+04  0.64929752107E+03 0.  0.
         13    1    3    3    0    0  0.17795792380E+03  0.99238243265E+02 -0.87758560997E+03  0.90092938369E+03  0.00000000000E+00 0.  1.
          1    1    3    3  501    0 -0.17795805499E+03 -0.99238345237E+02 -0.17017520753E+02  0.20446739230E+03  0.00000000000E+00 0.  1.
         21    1    1    2  502  501  0.13119212850E-03  0.10197200751E-03  0.10132842671E-03  0.19462043817E-03  0.00000000000E+00 0. -1.
<mgrwt>
<rscale>  1 0.64929752E+03</rscale>
<asrwt>0</asrwt>
<pdfrwt beam="1">  1        1 0.38326252E+00 0.64929752E+03</pdfrwt>
<pdfrwt beam="2">0</pdfrwt>
<totfact> 0.15876341E+00</totfact>
</mgrwt>
</event>
<event>
 6    1  0.6007990E-003  0.6384229E+03  0.7818608E-02  0.9828749E-01
          1   -1    0    0  502    0  0.00000000000E+00  0.00000000000E+00  0.10189997389E+03  0.10189997389E+03  0.00000000000E+00 0.  1.
         13   -1    0    0    0    0 -0.00000000000E+00 -0.00000000000E+00 -0.10000000000E+04  0.10000000000E+04  0.00000000000E+00 0.  1.
    9000005    2    1    2  501    0  0.53202659419E-03  0.21164152586E-02 -0.89810371470E+03  0.11018956881E+04  0.63842292024E+03 0.  0.
         13    1    3    3    0    0  0.18683636484E+03 -0.17066393454E+03 -0.11321160359E+03  0.27721990002E+03  0.00000000000E+00 0.  1.
          1    1    3    3  501    0 -0.18683583281E+03  0.17066605095E+03 -0.78489211111E+03  0.82467578808E+03  0.00000000000E+00 0.  1.
         21    1    1    2  502  501 -0.53202659417E-03 -0.21164152586E-02  0.36885913332E-02  0.42857871934E-02  0.00000000000E+00 0. -1.
<mgrwt>
<rscale>  1 0.63842292E+03</rscale>
<asrwt>0</asrwt>
<pdfrwt beam="1">  1        1 0.37054614E+00 0.63842292E+03</pdfrwt>
<pdfrwt beam="2">0</pdfrwt>
<totfact> 0.18098499E+00</totfact>
</mgrwt>
</event>
