<event>
 6    1  0.1029244E-011  0.3000000E+03  0.7818608E-02  0.1093470E+00
          1   -1    0    0  502    0  0.00000000000E+00  0.00000000000E+00  0.23172391733E+03  0.23172391733E+03  0.00000000000E+00 0.  1.
         13   -1    0    0    0    0 -0.00000000000E+00 -0.00000000000E+00 -0.27500000000E+03  0.27500000000E+03  0.00000000000E+00 0.  1.
    9000005    2    1    2  501    0  0.30648910764E+02 -0.22361801416E+02 -0.62456479553E+02  0.46421164242E+03  0.45842363729E+03 0.  0.
         13    1    3    3    0    0 -0.16394662502E+03 -0.14297914921E+03  0.25346865183E+02  0.21900684131E+03  0.00000000000E+00 0.  1.
          1    1    3    3  501    0  0.19459553579E+03  0.12061734780E+03 -0.87803344736E+02  0.24520480111E+03  0.00000000000E+00 0.  1.
         21    1    1    2  502  501 -0.30648910764E+02  0.22361801416E+02  0.19180396882E+02  0.42512274912E+02  0.00000000000E+00 0. -1.
<scales pt_clust_4="550.00000" pt_clust_5="550.00000" pt_clust_6="37.93950"></scales>
<mgrwt>
<rscale>  0 0.30000000E+03</rscale>
<asrwt>  1 0.37939503E+02</asrwt>
<pdfrwt beam="1">  1        1 0.84263243E+00 0.30000000E+03</pdfrwt>
<pdfrwt beam="2">0</pdfrwt>
<totfact> 0.46636181E-04</totfact>
</mgrwt>
<clustering>
<clus scale="   37.940">  1  6  2 -1</clus>
<clus scale="  458.424">  4  5 -1 -1</clus>
<clus scale="  300.000">  1  4  2 -1</clus>
</clustering>
</event>
<event>
 6    1  0.1029244E-011  0.3000000E+03  0.7818608E-02  0.1093470E+00
          1   -1    0    0  502    0  0.00000000000E+00  0.00000000000E+00  0.24066565900E+03  0.24066565900E+03  0.00000000000E+00 0.  1.
         13   -1    0    0    0    0 -0.00000000000E+00 -0.00000000000E+00 -0.27500000000E+03  0.27500000000E+03  0.00000000000E+00 0.  1.
    9000005    2    1    2  501    0 -0.92912516891E+01  0.41966804097E+02 -0.24126143212E+02  0.47148707475E+03  0.46890345580E+03 0.  0.
         13    1    3    3    0    0  0.19207003026E+03 -0.73411972982E+01 -0.13643461802E+03  0.23570998005E+03  0.00000000000E+00 0.  1.
          1    1    3    3  501    0 -0.20136128195E+03  0.49308001396E+02  0.11230847481E+03  0.23577709469E+03  0.00000000000E+00 0.  1.
         21    1    1    2  502  501  0.92912516891E+01 -0.41966804097E+02 -0.10208197793E+02  0.44178584249E+02  0.00000000000E+00 0.  1.
<scales pt_clust_4="550.00000" pt_clust_5="550.00000" pt_clust_6="42.98304"></scales>
<mgrwt>
<rscale>  0 0.30000000E+03</rscale>
<asrwt>  1 0.42983041E+02</asrwt>
<pdfrwt beam="1">  1        1 0.87514785E+00 0.30000000E+03</pdfrwt>
<pdfrwt beam="2">0</pdfrwt>
<totfact> 0.21582380E-04</totfact>
</mgrwt>
<clustering>
<clus scale="   42.983">  1  6  2 -1</clus>
<clus scale="  468.903">  4  5 -1 -1</clus>
<clus scale="  300.000">  1  4  2 -1</clus>
</clustering>
</event>
<event>
 6    1  0.1029244E-011  0.3000000E+03  0.7818608E-02  0.1093470E+00
          1   -1    0    0  502    0  0.00000000000E+00  0.00000000000E+00  0.23384484658E+03  0.23384484658E+03  0.00000000000E+00 0.  1.
         13   -1    0    0    0    0 -0.00000000000E+00 -0.00000000000E+00 -0.27500000000E+03  0.27500000000E+03  0.00000000000E+00 0.  1.
    9000005    2    1    2  501    0 -0.22329872626E+02 -0.20250295965E+02 -0.61247797970E+02  0.47261761838E+03  0.46766165413E+03 0.  0.
         13    1    3    3    0    0  0.12342192022E+02  0.77629357064E+02  0.18736785743E+03  0.20318799369E+03  0.00000000000E+00 0.  1.
          3    1    3    3  501    0 -0.34672064648E+02 -0.97879653029E+02 -0.24861565540E+03  0.26942962468E+03  0.00000000000E+00 0.  1.
         21    1    1    2  502  501  0.22329872626E+02  0.20250295965E+02  0.20092644545E+02  0.36227228199E+02  0.00000000000E+00 0. -1.
<scales pt_clust_4="550.00000" pt_clust_5="550.00000" pt_clust_6="30.14461"></scales>
<mgrwt>
<rscale>  0 0.30000000E+03</rscale>
<asrwt>  1 0.30144613E+02</asrwt>
<pdfrwt beam="1">  1        1 0.85034490E+00 0.30000000E+03</pdfrwt>
<pdfrwt beam="2">0</pdfrwt>
<totfact> 0.41556697E-04</totfact>
</mgrwt>
<clustering>
<clus scale="   30.145">  1  6  2 -1</clus>
<clus scale="  467.662">  4  5 -1 -1</clus>
<clus scale="  300.000">  1  4  2 -1</clus>
</clustering>
</event>
<event>
 6    1  0.1029244E-011  0.3000000E+03  0.7818608E-02  0.1093470E+00
          1   -1    0    0  502    0  0.00000000000E+00  0.00000000000E+00  0.23833792130E+03  0.23833792130E+03  0.00000000000E+00 0.  1.
         13   -1    0    0    0    0 -0.00000000000E+00 -0.00000000000E+00 -0.27500000000E+03  0.27500000000E+03  0.00000000000E+00 0.  1.
    9000005    2    1    2  501    0 -0.33955632601E+02  0.12855851322E+02 -0.49673216868E+02  0.47476918247E+03  0.47076543018E+03 0.  0.
         13    1    3    3    0    0 -0.14145563712E+03  0.15696966520E+03 -0.15891443356E+03  0.26439169854E+03  0.00000000000E+00 0.  1.
          3    1    3    3  501    0  0.10750000452E+03 -0.14411381387E+03  0.10924121669E+03  0.21037748393E+03  0.00000000000E+00 0.  1.
         21    1    1    2  502  501  0.33955632601E+02 -0.12855851322E+02  0.13011138173E+02  0.38568738832E+02  0.00000000000E+00 0.  1.
<scales pt_clust_4="550.00000" pt_clust_5="550.00000" pt_clust_6="36.30782"></scales>
<mgrwt>
<rscale>  0 0.30000000E+03</rscale>
<asrwt>  1 0.36307821E+02</asrwt>
<pdfrwt beam="1">  1        1 0.86668335E+00 0.30000000E+03</pdfrwt>
<pdfrwt beam="2">0</pdfrwt>
<totfact> 0.27224829E-04</totfact>
</mgrwt>
<clustering>
<clus scale="   36.308">  1  6  2 -1</clus>
<clus scale="  470.765">  4  5 -1 -1</clus>
<clus scale="  300.000">  1  4  2 -1</clus>
</clustering>
</event>
<event>
 6    1  0.1029244E-011  0.3000000E+03  0.7818608E-02  0.1093470E+00
          1   -1    0    0  502    0  0.00000000000E+00  0.00000000000E+00  0.25724482083E+03  0.25724482083E+03  0.00000000000E+00 0.  1.
         13   -1    0    0    0    0 -0.00000000000E+00 -0.00000000000E+00 -0.27500000000E+03  0.27500000000E+03  0.00000000000E+00 0.  1.
    9000005    2    1    2  501    0 -0.85164544734E+01 -0.31013445212E+02 -0.25672646815E+02  0.49912307458E+03  0.49742375798E+03 0.  0.
         13    1    3    3    0    0  0.13880771061E+03  0.12466448787E+03  0.13580778473E+03  0.23076518250E+03  0.00000000000E+00 0.  1.
          1    1    3    3  501    0 -0.14732416508E+03 -0.15567793308E+03 -0.16148043155E+03  0.26835789208E+03  0.00000000000E+00 0.  1.
         21    1    1    2  502  501  0.85164544734E+01  0.31013445212E+02  0.79174676457E+01  0.33121746250E+02  0.00000000000E+00 0.  1.
<scales pt_clust_4="550.00000" pt_clust_5="550.00000" pt_clust_6="32.16153"></scales>
<mgrwt>
<rscale>  0 0.30000000E+03</rscale>
<asrwt>  1 0.32161526E+02</asrwt>
<pdfrwt beam="1">  1        1 0.93543571E+00 0.30000000E+03</pdfrwt>
<pdfrwt beam="2">0</pdfrwt>
<totfact> 0.22609278E-05</totfact>
</mgrwt>
<clustering>
<clus scale="   32.162">  1  6  2 -1</clus>
<clus scale="  497.424">  4  5 -1 -1</clus>
<clus scale="  300.000">  1  4  2 -1</clus>
</clustering>
</event>
<event>
 6    1  0.1029244E-011  0.3000000E+03  0.7818608E-02  0.1093470E+00
          1   -1    0    0  502    0  0.00000000000E+00  0.00000000000E+00  0.23332922559E+03  0.23332922559E+03  0.00000000000E+00 0.  1.
         13   -1    0    0    0    0 -0.00000000000E+00 -0.00000000000E+00 -0.27500000000E+03  0.27500000000E+03  0.00000000000E+00 0.  1.
    9000005    2    1    2  501    0  0.31050025377E+02  0.11850689751E+02 -0.44816135550E+02  0.47494605288E+03  0.47165742252E+03 0.  0.
         13    1    3    3    0    0  0.21185914070E+03  0.13153621270E+03 -0.63440858598E+02  0.25731461927E+03  0.00000000000E+00 0.  1.
          3    1    3    3  501    0 -0.18080911533E+03 -0.11968552295E+03  0.18624723049E+02  0.21763143361E+03  0.00000000000E+00 0.  1.
         21    1    1    2  502  501 -0.31050025377E+02 -0.11850689751E+02  0.31453611422E+01  0.33383172710E+02  0.00000000000E+00 0.  1.
<scales pt_clust_4="550.00000" pt_clust_5="550.00000" pt_clust_6="33.23466"></scales>
<mgrwt>
<rscale>  0 0.30000000E+03</rscale>
<asrwt>  1 0.33234664E+02</asrwt>
<pdfrwt beam="1">  1        1 0.84846991E+00 0.30000000E+03</pdfrwt>
<pdfrwt beam="2">0</pdfrwt>
<totfact> 0.42464906E-04</totfact>
</mgrwt>
<clustering>
<clus scale="   33.235">  1  6  2 -1</clus>
<clus scale="  471.657">  4  5 -1 -1</clus>
<clus scale="  300.000">  1  4  2 -1</clus>
</clustering>
</event>
<event>
 6    1  0.1029244E-011  0.3000000E+03  0.7818608E-02  0.1093470E+00
          1   -1    0    0  502    0  0.00000000000E+00  0.00000000000E+00  0.23786946358E+03  0.23786946358E+03  0.00000000000E+00 0.  1.
         13   -1    0    0    0    0 -0.00000000000E+00 -0.00000000000E+00 -0.27500000000E+03  0.27500000000E+03  0.00000000000E+00 0.  1.
    9000005    2    1    2  501    0 -0.21961479298E+02 -0.31330157051E+02 -0.51815430146E+02  0.47188737703E+03  0.46747082528E+03 0.  0.
         13    1    3    3    0    0 -0.16996570550E+03 -0.18767522970E+03 -0.39338491182E+02  0.25623787733E+03  0.00000000000E+00 0.  1.
          1    1    3    3  501    0  0.14800422620E+03  0.15634507265E+03 -0.12476938963E+02  0.21564949970E+03  0.00000000000E+00 0.  1.
         21    1    1    2  502  501  0.21961479298E+02  0.31330157051E+02  0.14684893721E+02  0.40982086542E+02  0.00000000000E+00 0.  1.
<scales pt_clust_4="550.00000" pt_clust_5="550.00000" pt_clust_6="38.26075"></scales>
<mgrwt>
<rscale>  0 0.30000000E+03</rscale>
<asrwt>  1 0.38260754E+02</asrwt>
<pdfrwt beam="1">  1        1 0.86497987E+00 0.30000000E+03</pdfrwt>
<pdfrwt beam="2">0</pdfrwt>
<totfact> 0.28115878E-04</totfact>
</mgrwt>
<clustering>
<clus scale="   38.261">  1  6  2 -1</clus>
<clus scale="  467.471">  4  5 -1 -1</clus>
<clus scale="  300.000">  1  4  2 -1</clus>
</clustering>
</event>
<event>
 6    1  0.1029244E-011  0.3000000E+03  0.7818608E-02  0.1093470E+00
          1   -1    0    0  502    0  0.00000000000E+00  0.00000000000E+00  0.24061195352E+03  0.24061195352E+03  0.00000000000E+00 0.  1.
         13   -1    0    0    0    0 -0.00000000000E+00 -0.00000000000E+00 -0.27500000000E+03  0.27500000000E+03  0.00000000000E+00 0.  1.
    9000005    2    1    2  501    0 -0.26031865320E+01  0.32622374063E+02 -0.43367127365E+02  0.48167642990E+03  0.47860263217E+03 0.  0.
         13    1    3    3    0    0  0.82729108984E+02 -0.14655970320E+03 -0.17557525864E+03  0.24320880643E+03  0.00000000000E+00 0.  1.
          1    1    3    3  501    0 -0.85332295516E+02  0.17918207726E+03  0.13220813128E+03  0.23846762348E+03  0.00000000000E+00 0.  1.
         21    1    1    2  502  501  0.26031865320E+01 -0.32622374063E+02  0.89790808829E+01  0.33935523617E+02  0.00000000000E+00 0. -1.
<scales pt_clust_4="550.00000" pt_clust_5="550.00000" pt_clust_6="32.72607"></scales>
<mgrwt>
<rscale>  0 0.30000000E+03</rscale>
<asrwt>  1 0.32726073E+02</asrwt>
<pdfrwt beam="1">  1        1 0.87495256E+00 0.30000000E+03</pdfrwt>
<pdfrwt beam="2">0</pdfrwt>
<totfact> 0.22805208E-04</totfact>
</mgrwt>
<clustering>
<clus scale="   32.726">  1  6  2 -1</clus>
<clus scale="  478.603">  4  5 -1 -1</clus>
<clus scale="  300.000">  1  4  2 -1</clus>
</clustering>
</event>
<event>
 6    1  0.1029244E-011  0.3000000E+03  0.7818608E-02  0.1093470E+00
          1   -1    0    0  502    0  0.00000000000E+00  0.00000000000E+00  0.23386226445E+03  0.23386226445E+03  0.00000000000E+00 0.  1.
         13   -1    0    0    0    0 -0.00000000000E+00 -0.00000000000E+00 -0.27500000000E+03  0.27500000000E+03  0.00000000000E+00 0.  1.
    9000005    2    1    2  501    0  0.53517473164E+01  0.31485013809E+02 -0.42037220827E+02  0.47691298641E+03  0.47398198423E+03 0.  0.
         13    1    3    3    0    0  0.15739790816E+03  0.11989298460E+03  0.12525794486E+03  0.23417510970E+03  0.00000000000E+00 0.  1.
          3    1    3    3  501    0 -0.15204616084E+03 -0.88407970792E+02 -0.16729516569E+03  0.24273787671E+03  0.00000000000E+00 0.  1.
         21    1    1    2  502  501 -0.53517473164E+01 -0.31485013809E+02  0.89948528117E+00  0.31949278046E+02  0.00000000000E+00 0.  1.
<scales pt_clust_4="550.00000" pt_clust_5="550.00000" pt_clust_6="31.93661"></scales>
<mgrwt>
<rscale>  0 0.30000000E+03</rscale>
<asrwt>  1 0.31936614E+02</asrwt>
<pdfrwt beam="1">  1        1 0.85040823E+00 0.30000000E+03</pdfrwt>
<pdfrwt beam="2">0</pdfrwt>
<totfact> 0.41043497E-04</totfact>
</mgrwt>
<clustering>
<clus scale="   31.937">  1  6  2 -1</clus>
<clus scale="  473.982">  4  5 -1 -1</clus>
<clus scale="  300.000">  1  4  2 -1</clus>
</clustering>
</event>
<event>
 6    1  0.1029244E-011  0.3000000E+03  0.7818608E-02  0.1093470E+00
          1   -1    0    0  502    0  0.00000000000E+00  0.00000000000E+00  0.23789500610E+03  0.23789500610E+03  0.00000000000E+00 0.  1.
         13   -1    0    0    0    0 -0.00000000000E+00 -0.00000000000E+00 -0.27500000000E+03  0.27500000000E+03  0.00000000000E+00 0.  1.
    9000005    2    1    2  501    0 -0.20035183273E+02 -0.32019189085E+02 -0.66257289329E+02  0.46518239386E+03  0.45888777945E+03 0.  0.
         13    1    3    3    0    0 -0.82177709666E+02  0.13121941626E+03  0.13020704251E+03  0.20230072933E+03  0.00000000000E+00 0.  1.
          1    1    3    3  501    0  0.62142526392E+02 -0.16323860534E+03 -0.19646433184E+03  0.26288166453E+03  0.00000000000E+00 0.  1.
         21    1    1    2  502  501  0.20035183273E+02  0.32019189085E+02  0.29152295431E+02  0.47712612246E+02  0.00000000000E+00 0.  1.
<scales pt_clust_4="550.00000" pt_clust_5="550.00000" pt_clust_6="37.77085"></scales>
<mgrwt>
<rscale>  0 0.30000000E+03</rscale>
<asrwt>  1 0.37770849E+02</asrwt>
<pdfrwt beam="1">  1        1 0.86507275E+00 0.30000000E+03</pdfrwt>
<pdfrwt beam="2">0</pdfrwt>
<totfact> 0.28117931E-04</totfact>
</mgrwt>
<clustering>
<clus scale="   37.771">  1  6  2 -1</clus>
<clus scale="  458.888">  4  5 -1 -1</clus>
<clus scale="  300.000">  1  4  2 -1</clus>
</clustering>
</event>
<event>
 6    1  0.1029244E-011  0.3000000E+03  0.7818608E-02  0.1093470E+00
          1   -1    0    0  502    0  0.00000000000E+00  0.00000000000E+00  0.23010832154E+03  0.23010832154E+03  0.00000000000E+00 0.  1.
         13   -1    0    0    0    0 -0.00000000000E+00 -0.00000000000E+00 -0.27500000000E+03  0.27500000000E+03  0.00000000000E+00 0.  1.
    9000005    2    1    2  501    0 -0.28711012828E+02  0.13049814965E+02 -0.54530308916E+02  0.47213070602E+03  0.46790942398E+03 0.  0.
         13    1    3    3    0    0 -0.12963484346E+03  0.18637321824E+03  0.68133975879E+02  0.23702828478E+03  0.00000000000E+00 0.  1.
          3    1    3    3  501    0  0.10092383064E+03 -0.17332340327E+03 -0.12266428479E+03  0.23510242125E+03  0.00000000000E+00 0.  1.
         21    1    1    2  502  501  0.28711012828E+02 -0.13049814965E+02  0.96386304585E+01  0.32977615519E+02  0.00000000000E+00 0.  1.
<scales pt_clust_4="550.00000" pt_clust_5="550.00000" pt_clust_6="31.53760"></scales>
<mgrwt>
<rscale>  0 0.30000000E+03</rscale>
<asrwt>  1 0.31537595E+02</asrwt>
<pdfrwt beam="1">  1        1 0.83675753E+00 0.30000000E+03</pdfrwt>
<pdfrwt beam="2">0</pdfrwt>
<totfact> 0.53575205E-04</totfact>
</mgrwt>
<clustering>
<clus scale="   31.538">  1  6  2 -1</clus>
<clus scale="  467.909">  4  5 -1 -1</clus>
<clus scale="  300.000">  1  4  2 -1</clus>
</clustering>
</event>
<event>
 6    1  0.1029244E-011  0.3000000E+03  0.7818608E-02  0.1093470E+00
          1   -1    0    0  502    0  0.00000000000E+00  0.00000000000E+00  0.23870897083E+03  0.23870897083E+03  0.00000000000E+00 0.  1.
         13   -1    0    0    0    0 -0.00000000000E+00 -0.00000000000E+00 -0.27500000000E+03  0.27500000000E+03  0.00000000000E+00 0.  1.
    9000005    2    1    2  501    0 -0.10626069607E+02  0.31382532411E+02 -0.51894974255E+02  0.47708575690E+03  0.47309613652E+03 0.  0.
         13    1    3    3    0    0 -0.21499678737E+02  0.17357932989E+03 -0.20390985033E+03  0.26864706775E+03  0.00000000000E+00 0.  1.
          3    1    3    3  501    0  0.10873609129E+02 -0.14219679747E+03  0.15201487608E+03  0.20843868915E+03  0.00000000000E+00 0.  1.
         21    1    1    2  502  501  0.10626069607E+02 -0.31382532411E+02  0.15603945081E+02  0.36623213921E+02  0.00000000000E+00 0. -1.
<scales pt_clust_4="550.00000" pt_clust_5="550.00000" pt_clust_6="33.13271"></scales>
<mgrwt>
<rscale>  0 0.30000000E+03</rscale>
<asrwt>  1 0.33132713E+02</asrwt>
<pdfrwt beam="1">  1        1 0.86803262E+00 0.30000000E+03</pdfrwt>
<pdfrwt beam="2">0</pdfrwt>
<totfact> 0.26809010E-04</totfact>
</mgrwt>
<clustering>
<clus scale="   33.133">  1  6  2 -1</clus>
<clus scale="  473.096">  4  5 -1 -1</clus>
<clus scale="  300.000">  1  4  2 -1</clus>
</clustering>
</event>
<event>
 6    1  0.1029244E-011  0.3000000E+03  0.7818608E-02  0.1093470E+00
          1   -1    0    0  502    0  0.00000000000E+00  0.00000000000E+00  0.23089166610E+03  0.23089166610E+03  0.00000000000E+00 0.  1.
         13   -1    0    0    0    0 -0.00000000000E+00 -0.00000000000E+00 -0.27500000000E+03  0.27500000000E+03  0.00000000000E+00 0.  1.
    9000005    2    1    2  501    0  0.32031681079E+02  0.80901141923E+01 -0.47153017855E+02  0.47271413393E+03  0.46919480686E+03 0.  0.
         13    1    3    3    0    0  0.12154975881E+03  0.18022678521E+03 -0.13902631590E+03  0.25803944366E+03  0.00000000000E+00 0.  1.
          3    1    3    3  501    0 -0.89518077732E+02 -0.17213667101E+03  0.91873298049E+02  0.21467469027E+03  0.00000000000E+00 0.  1.
         21    1    1    2  502  501 -0.32031681079E+02 -0.80901141923E+01  0.30446839571E+01  0.33177532168E+02  0.00000000000E+00 0.  1.
<scales pt_clust_4="550.00000" pt_clust_5="550.00000" pt_clust_6="33.03753"></scales>
<mgrwt>
<rscale>  0 0.30000000E+03</rscale>
<asrwt>  1 0.33037532E+02</asrwt>
<pdfrwt beam="1">  1        1 0.83960606E+00 0.30000000E+03</pdfrwt>
<pdfrwt beam="2">0</pdfrwt>
<totfact> 0.50595344E-04</totfact>
</mgrwt>
<clustering>
<clus scale="   33.038">  1  6  2 -1</clus>
<clus scale="  469.195">  4  5 -1 -1</clus>
<clus scale="  300.000">  1  4  2 -1</clus>
</clustering>
</event>
<event>
 6    1  0.1029244E-011  0.3000000E+03  0.7818608E-02  0.1093470E+00
          1   -1    0    0  502    0  0.00000000000E+00  0.00000000000E+00  0.22342826029E+03  0.22342826029E+03  0.00000000000E+00 0.  1.
         13   -1    0    0    0    0 -0.00000000000E+00 -0.00000000000E+00 -0.27500000000E+03  0.27500000000E+03  0.00000000000E+00 0.  1.
    9000005    2    1    2  501    0  0.34184068661E+02  0.14355763603E+02 -0.45493352385E+02  0.46085719041E+03  0.45710509333E+03 0.  0.
         13    1    3    3    0    0 -0.71576680853E+02  0.20431476869E+03 -0.97306145620E+02  0.23735254775E+03  0.00000000000E+00 0.  1.
          3    1    3    3  501    0  0.10576074951E+03 -0.18995900509E+03  0.51812793235E+02  0.22350464267E+03  0.00000000000E+00 0.  1.
         21    1    1    2  502  501 -0.34184068661E+02 -0.14355763603E+02 -0.60783873286E+01  0.37571069872E+02  0.00000000000E+00 0.  1.
<scales pt_clust_4="550.00000" pt_clust_5="550.00000" pt_clust_6="37.07614"></scales>
<mgrwt>
<rscale>  0 0.30000000E+03</rscale>
<asrwt>  1 0.37076136E+02</asrwt>
<pdfrwt beam="1">  1        1 0.81246640E+00 0.30000000E+03</pdfrwt>
<pdfrwt beam="2">0</pdfrwt>
<totfact> 0.82518242E-04</totfact>
</mgrwt>
<clustering>
<clus scale="   37.076">  1  6  2 -1</clus>
<clus scale="  457.105">  4  5 -1 -1</clus>
<clus scale="  300.000">  1  4  2 -1</clus>
</clustering>
</event>
<event>
 6    1  0.1029244E-011  0.3000000E+03  0.7818608E-02  0.1093470E+00
          1   -1    0    0  502    0  0.00000000000E+00  0.00000000000E+00  0.25427447925E+03  0.25427447925E+03  0.00000000000E+00 0.  1.
         13   -1    0    0    0    0 -0.00000000000E+00 -0.00000000000E+00 -0.27500000000E+03  0.27500000000E+03  0.00000000000E+00 0.  1.
    9000005    2    1    2  501    0  0.22832239299E+02  0.34397426193E+02 -0.61649318786E+02  0.47114315099E+03  0.46526415737E+03 0.  0.
         13    1    3    3    0    0 -0.16699407815E+03 -0.39759832190E+02 -0.16892222222E+03  0.24083725532E+03  0.00000000000E+00 0.  1.
          3    1    3    3  501    0  0.18982631744E+03  0.74157258383E+02  0.10727290344E+03  0.23030589566E+03  0.00000000000E+00 0.  1.
         21    1    1    2  502  501 -0.22832239299E+02 -0.34397426193E+02  0.40923798038E+02  0.58131328266E+02  0.00000000000E+00 0. -1.
<scales pt_clust_4="550.00000" pt_clust_5="550.00000" pt_clust_6="41.28552"></scales>
<mgrwt>
<rscale>  0 0.30000000E+03</rscale>
<asrwt>  1 0.41285519E+02</asrwt>
<pdfrwt beam="1">  1        1 0.92463447E+00 0.30000000E+03</pdfrwt>
<pdfrwt beam="2">0</pdfrwt>
<totfact> 0.32369167E-05</totfact>
</mgrwt>
<clustering>
<clus scale="   41.286">  1  6  2 -1</clus>
<clus scale="  465.264">  4  5 -1 -1</clus>
<clus scale="  300.000">  1  4  2 -1</clus>
</clustering>
</event>
<event>
 6    1  0.1029244E-011  0.3000000E+03  0.7818608E-02  0.1093470E+00
          1   -1    0    0  502    0  0.00000000000E+00  0.00000000000E+00  0.23726891286E+03  0.23726891286E+03  0.00000000000E+00 0.  1.
         13   -1    0    0    0    0 -0.00000000000E+00 -0.00000000000E+00 -0.27500000000E+03  0.27500000000E+03  0.00000000000E+00 0.  1.
    9000005    2    1    2  501    0  0.63633322085E+01 -0.29871624343E+02 -0.65163326365E+02  0.47121609704E+03  0.46568824880E+03 0.  0.
         13    1    3    3    0    0 -0.32533042382E+02 -0.24546503767E+03 -0.35428616951E+02  0.25013330538E+03  0.00000000000E+00 0.  1.
          3    1    3    3  501    0  0.38896374590E+02  0.21559341332E+03 -0.29734709413E+02  0.22108279166E+03  0.00000000000E+00 0.  1.
         21    1    1    2  502  501 -0.63633322085E+01  0.29871624343E+02  0.27432239226E+02  0.41052815818E+02  0.00000000000E+00 0. -1.
<scales pt_clust_4="550.00000" pt_clust_5="550.00000" pt_clust_6="30.54187"></scales>
<mgrwt>
<rscale>  0 0.30000000E+03</rscale>
<asrwt>  1 0.30541872E+02</asrwt>
<pdfrwt beam="1">  1        1 0.86279605E+00 0.30000000E+03</pdfrwt>
<pdfrwt beam="2">0</pdfrwt>
<totfact> 0.30969749E-04</totfact>
</mgrwt>
<clustering>
<clus scale="   30.542">  1  6  2 -1</clus>
<clus scale="  465.688">  4  5 -1 -1</clus>
<clus scale="  300.000">  1  4  2 -1</clus>
</clustering>
</event>
<event>
 6    1  0.1029244E-011  0.3000000E+03  0.7818608E-02  0.1093470E+00
          1   -1    0    0  502    0  0.00000000000E+00  0.00000000000E+00  0.22538139402E+03  0.22538139402E+03  0.00000000000E+00 0.  1.
         13   -1    0    0    0    0 -0.00000000000E+00 -0.00000000000E+00 -0.27500000000E+03  0.27500000000E+03  0.00000000000E+00 0.  1.
    9000005    2    1    2  501    0 -0.21654837637E+02 -0.29748399046E+02 -0.29689301205E+02  0.45853552890E+03  0.45609152307E+03 0.  0.
         13    1    3    3    0    0 -0.57273233135E+01 -0.24508760364E+02  0.21339473439E+03  0.21487390310E+03  0.00000000000E+00 0.  1.
          3    1    3    3  501    0 -0.15927514324E+02 -0.52396386821E+01 -0.24308403560E+03  0.24366162580E+03  0.00000000000E+00 0.  1.
         21    1    1    2  502  501  0.21654837637E+02  0.29748399046E+02 -0.19929304775E+02  0.41845865121E+02  0.00000000000E+00 0. -1.
<scales pt_clust_4="550.00000" pt_clust_5="550.00000" pt_clust_6="36.79539"></scales>
<mgrwt>
<rscale>  0 0.30000000E+03</rscale>
<asrwt>  1 0.36795388E+02</asrwt>
<pdfrwt beam="1">  1        1 0.81956871E+00 0.30000000E+03</pdfrwt>
<pdfrwt beam="2">0</pdfrwt>
<totfact> 0.72275305E-04</totfact>
</mgrwt>
<clustering>
<clus scale="   36.795">  1  6  2 -1</clus>
<clus scale="  456.092">  4  5 -1 -1</clus>
<clus scale="  300.000">  1  4  2 -1</clus>
</clustering>
</event>
<event>
 6    1  0.1029244E-011  0.3000000E+03  0.7818608E-02  0.1093470E+00
          1   -1    0    0  502    0  0.00000000000E+00  0.00000000000E+00  0.22872598106E+03  0.22872598106E+03  0.00000000000E+00 0.  1.
         13   -1    0    0    0    0 -0.00000000000E+00 -0.00000000000E+00 -0.27500000000E+03  0.27500000000E+03  0.00000000000E+00 0.  1.
    9000005    2    1    2  501    0 -0.39119800947E+02 -0.29978454214E+01 -0.42190075392E+02  0.46427950468E+03  0.46069090517E+03 0.  0.
         13    1    3    3    0    0 -0.45811781332E+02 -0.10516393198E+03  0.18352738370E+03  0.21642659834E+03  0.00000000000E+00 0.  1.
          3    1    3    3  501    0  0.66919803851E+01  0.10216608656E+03 -0.22571745910E+03  0.24785290635E+03  0.00000000000E+00 0.  1.
         21    1    1    2  502  501  0.39119800947E+02  0.29978454214E+01 -0.40839435511E+01  0.39446476372E+02  0.00000000000E+00 0.  1.
<scales pt_clust_4="550.00000" pt_clust_5="550.00000" pt_clust_6="39.23452"></scales>
<mgrwt>
<rscale>  0 0.30000000E+03</rscale>
<asrwt>  1 0.39234519E+02</asrwt>
<pdfrwt beam="1">  1        1 0.83173084E+00 0.30000000E+03</pdfrwt>
<pdfrwt beam="2">0</pdfrwt>
<totfact> 0.56045972E-04</totfact>
</mgrwt>
<clustering>
<clus scale="   39.235">  1  6  2 -1</clus>
<clus scale="  460.691">  4  5 -1 -1</clus>
<clus scale="  300.000">  1  4  2 -1</clus>
</clustering>
</event>
<event>
 6    1  0.1029244E-011  0.3000000E+03  0.7818608E-02  0.1093470E+00
          1   -1    0    0  502    0  0.00000000000E+00  0.00000000000E+00  0.23686541643E+03  0.23686541643E+03  0.00000000000E+00 0.  1.
         13   -1    0    0    0    0 -0.00000000000E+00 -0.00000000000E+00 -0.27500000000E+03  0.27500000000E+03  0.00000000000E+00 0.  1.
    9000005    2    1    2  501    0  0.28415198828E+02  0.29988143288E+02 -0.40328754159E+02  0.47049481519E+03  0.46693923636E+03 0.  0.
         13    1    3    3    0    0 -0.14261569538E+03 -0.91149164529E+02  0.11927277812E+03  0.20705893452E+03  0.00000000000E+00 0.  1.
          3    1    3    3  501    0  0.17103089421E+03  0.12113730782E+03 -0.15960153228E+03  0.26343588067E+03  0.00000000000E+00 0.  1.
         21    1    1    2  502  501 -0.28415198828E+02 -0.29988143288E+02  0.21941705900E+01  0.41370601239E+02  0.00000000000E+00 0. -1.
<scales pt_clust_4="550.00000" pt_clust_5="550.00000" pt_clust_6="41.31237"></scales>
<mgrwt>
<rscale>  0 0.30000000E+03</rscale>
<asrwt>  1 0.41312374E+02</asrwt>
<pdfrwt beam="1">  1        1 0.86132879E+00 0.30000000E+03</pdfrwt>
<pdfrwt beam="2">0</pdfrwt>
<totfact> 0.30360690E-04</totfact>
</mgrwt>
<clustering>
<clus scale="   41.312">  1  6  2 -1</clus>
<clus scale="  466.939">  4  5 -1 -1</clus>
<clus scale="  300.000">  1  4  2 -1</clus>
</clustering>
</event>
<event>
 6    1  0.1029244E-011  0.3000000E+03  0.7818608E-02  0.1093470E+00
          1   -1    0    0  502    0  0.00000000000E+00  0.00000000000E+00  0.23713578390E+03  0.23713578390E+03  0.00000000000E+00 0.  1.
         13   -1    0    0    0    0 -0.00000000000E+00 -0.00000000000E+00 -0.27500000000E+03  0.27500000000E+03  0.00000000000E+00 0.  1.
    9000005    2    1    2  501    0  0.34809660583E+02  0.69099162281E+01 -0.66831017363E+02  0.46632601434E+03  0.46014574577E+03 0.  0.
         13    1    3    3    0    0  0.18735625370E+03 -0.87913650060E+02 -0.16221509434E+03  0.26295420229E+03  0.00000000000E+00 0.  1.
          1    1    3    3  501    0 -0.15254659312E+03  0.94823566288E+02  0.95384076975E+02  0.20337181205E+03  0.00000000000E+00 0.  1.
         21    1    1    2  502  501 -0.34809660583E+02 -0.69099162281E+01  0.28966801264E+02  0.45809769565E+02  0.00000000000E+00 0. -1.
<scales pt_clust_4="550.00000" pt_clust_5="550.00000" pt_clust_6="35.48886"></scales>
<mgrwt>
<rscale>  0 0.30000000E+03</rscale>
<asrwt>  1 0.35488863E+02</asrwt>
<pdfrwt beam="1">  1        1 0.86231194E+00 0.30000000E+03</pdfrwt>
<pdfrwt beam="2">0</pdfrwt>
<totfact> 0.30467691E-04</totfact>
</mgrwt>
<clustering>
<clus scale="   35.489">  1  6  2 -1</clus>
<clus scale="  460.146">  4  5 -1 -1</clus>
<clus scale="  300.000">  1  4  2 -1</clus>
</clustering>
</event>
<event>
 6    1  0.1029244E-011  0.3000000E+03  0.7818608E-02  0.1093470E+00
          1   -1    0    0  502    0  0.00000000000E+00  0.00000000000E+00  0.23670204238E+03  0.23670204238E+03  0.00000000000E+00 0.  1.
         13   -1    0    0    0    0 -0.00000000000E+00 -0.00000000000E+00 -0.27500000000E+03  0.27500000000E+03  0.00000000000E+00 0.  1.
    9000005    2    1    2  501    0 -0.18526881905E+02  0.27507233335E+02 -0.38675646302E+02  0.47853525346E+03  0.47581539482E+03 0.  0.
         13    1    3    3    0    0  0.22166428353E+03  0.16696371986E+02 -0.76617444129E+02  0.23512561786E+03  0.00000000000E+00 0.  1.
          3    1    3    3  501    0 -0.24019116544E+03  0.10810861348E+02  0.37941797827E+02  0.24340963559E+03  0.00000000000E+00 0.  1.
         21    1    1    2  502  501  0.18526881905E+02 -0.27507233335E+02  0.37768868268E+00  0.33166788925E+02  0.00000000000E+00 0.  1.
<scales pt_clust_4="550.00000" pt_clust_5="550.00000" pt_clust_6="33.16464"></scales>
<mgrwt>
<rscale>  0 0.30000000E+03</rscale>
<asrwt>  1 0.33164638E+02</asrwt>
<pdfrwt beam="1">  1        1 0.86073470E+00 0.30000000E+03</pdfrwt>
<pdfrwt beam="2">0</pdfrwt>
<totfact> 0.32089301E-04</totfact>
</mgrwt>
<clustering>
<clus scale="   33.165">  1  6  2 -1</clus>
<clus scale="  475.815">  4  5 -1 -1</clus>
<clus scale="  300.000">  1  4  2 -1</clus>
</clustering>
</event>
<event>
 6    1  0.1029244E-011  0.3000000E+03  0.7818608E-02  0.1093470E+00
          1   -1    0    0  502    0  0.00000000000E+00  0.00000000000E+00  0.25336903666E+03  0.25336903666E+03  0.00000000000E+00 0.  1.
         13   -1    0    0    0    0 -0.00000000000E+00 -0.00000000000E+00 -0.27500000000E+03  0.27500000000E+03  0.00000000000E+00 0.  1.
    9000005    2    1    2  501    0 -0.27653444477E+02  0.11756526814E+02 -0.70826219294E+02  0.47072268272E+03  0.46439268058E+03 0.  0.
         13    1    3    3    0    0 -0.18748956537E+03 -0.13241271946E+03  0.32735629270E+02  0.23185574572E+03  0.00000000000E+00 0.  1.
          3    1    3    3  501    0  0.15983612090E+03  0.14416924628E+03 -0.10356184856E+03  0.23886693700E+03  0.00000000000E+00 0.  1.
         21    1    1    2  502  501  0.27653444477E+02 -0.11756526814E+02  0.49195255955E+02  0.57646353940E+02  0.00000000000E+00 0.  1.
<scales pt_clust_4="550.00000" pt_clust_5="550.00000" pt_clust_6="30.04878"></scales>
<mgrwt>
<rscale>  0 0.30000000E+03</rscale>
<asrwt>  1 0.30048776E+02</asrwt>
<pdfrwt beam="1">  1        1 0.92134195E+00 0.30000000E+03</pdfrwt>
<pdfrwt beam="2">0</pdfrwt>
<totfact> 0.40260733E-05</totfact>
</mgrwt>
<clustering>
<clus scale="   30.049">  1  6  2 -1</clus>
<clus scale="  464.393">  4  5 -1 -1</clus>
<clus scale="  300.000">  1  4  2 -1</clus>
</clustering>
</event>
<event>
 6    1  0.1029244E-011  0.3000000E+03  0.7818608E-02  0.1093470E+00
          1   -1    0    0  502    0  0.00000000000E+00  0.00000000000E+00  0.22012402222E+03  0.22012402222E+03  0.00000000000E+00 0.  1.
         13   -1    0    0    0    0 -0.00000000000E+00 -0.00000000000E+00 -0.27500000000E+03  0.27500000000E+03  0.00000000000E+00 0.  1.
    9000005    2    1    2  501    0  0.31725687142E+02 -0.49007457757E+01 -0.45920965083E+02  0.46179642425E+03  0.45838484474E+03 0.  0.
         13    1    3    3    0    0  0.18712795301E+03  0.11919962754E+03  0.68694076654E+02  0.23225911860E+03  0.00000000000E+00 0.  1.
          1    1    3    3  501    0 -0.15540226587E+03 -0.12410037332E+03 -0.11461504174E+03  0.22953730565E+03  0.00000000000E+00 0.  1.
         21    1    1    2  502  501 -0.31725687142E+02  0.49007457757E+01 -0.89550126991E+01  0.33327597967E+02  0.00000000000E+00 0.  1.
<scales pt_clust_4="550.00000" pt_clust_5="550.00000" pt_clust_6="32.10199"></scales>
<mgrwt>
<rscale>  0 0.30000000E+03</rscale>
<asrwt>  1 0.32101987E+02</asrwt>
<pdfrwt beam="1">  1        1 0.80045099E+00 0.30000000E+03</pdfrwt>
<pdfrwt beam="2">0</pdfrwt>
<totfact> 0.10461742E-03</totfact>
</mgrwt>
<clustering>
<clus scale="   32.102">  1  6  2 -1</clus>
<clus scale="  458.385">  4  5 -1 -1</clus>
<clus scale="  300.000">  1  4  2 -1</clus>
</clustering>
</event>
<event>
 6    1  0.1029244E-011  0.3000000E+03  0.7818608E-02  0.1093470E+00
          1   -1    0    0  502    0  0.00000000000E+00  0.00000000000E+00  0.23941611245E+03  0.23941611245E+03  0.00000000000E+00 0.  1.
         13   -1    0    0    0    0 -0.00000000000E+00 -0.00000000000E+00 -0.27500000000E+03  0.27500000000E+03  0.00000000000E+00 0.  1.
    9000005    2    1    2  501    0  0.20902388934E+02  0.24586783212E+02 -0.14645645564E+02  0.47594755712E+03  0.47462633979E+03 0.  0.
         13    1    3    3    0    0 -0.36932708294E+02  0.20591130472E+03  0.12151840988E+03  0.24193018475E+03  0.00000000000E+00 0.  1.
          3    1    3    3  501    0  0.57835097228E+02 -0.18132452151E+03 -0.13616405545E+03  0.23401737236E+03  0.00000000000E+00 0.  1.
         21    1    1    2  502  501 -0.20902388934E+02 -0.24586783212E+02 -0.20938241986E+02  0.38468555332E+02  0.00000000000E+00 0.  1.
<scales pt_clust_4="550.00000" pt_clust_5="550.00000" pt_clust_6="32.27105"></scales>
<mgrwt>
<rscale>  0 0.30000000E+03</rscale>
<asrwt>  1 0.32271052E+02</asrwt>
<pdfrwt beam="1">  1        1 0.87060405E+00 0.30000000E+03</pdfrwt>
<pdfrwt beam="2">0</pdfrwt>
<totfact> 0.25352645E-04</totfact>
</mgrwt>
<clustering>
<clus scale="   32.271">  1  6  2 -1</clus>
<clus scale="  474.626">  4  5 -1 -1</clus>
<clus scale="  300.000">  1  4  2 -1</clus>
</clustering>
</event>
<event>
 6    1  0.1029244E-011  0.3000000E+03  0.7818608E-02  0.1093470E+00
          1   -1    0    0  502    0  0.00000000000E+00  0.00000000000E+00  0.23627874717E+03  0.23627874717E+03  0.00000000000E+00 0.  1.
         13   -1    0    0    0    0 -0.00000000000E+00 -0.00000000000E+00 -0.27500000000E+03  0.27500000000E+03  0.00000000000E+00 0.  1.
    9000005    2    1    2  501    0  0.94832348144E+01  0.30932630071E+02 -0.41478572598E+02  0.47880780388E+03  0.47590932091E+03 0.  0.
         13    1    3    3    0    0 -0.15023908445E+03 -0.10836103129E+03  0.11260951690E+03  0.21678283810E+03  0.00000000000E+00 0.  1.
          3    1    3    3  501    0  0.15972231927E+03  0.13929366136E+03 -0.15408808950E+03  0.26202496578E+03  0.00000000000E+00 0.  1.
         21    1    1    2  502  501 -0.94832348144E+01 -0.30932630071E+02  0.27573197686E+01  0.32470943287E+02  0.00000000000E+00 0. -1.
<scales pt_clust_4="550.00000" pt_clust_5="550.00000" pt_clust_6="32.35366"></scales>
<mgrwt>
<rscale>  0 0.30000000E+03</rscale>
<asrwt>  1 0.32353660E+02</asrwt>
<pdfrwt beam="1">  1        1 0.85919544E+00 0.30000000E+03</pdfrwt>
<pdfrwt beam="2">0</pdfrwt>
<totfact> 0.33481797E-04</totfact>
</mgrwt>
<clustering>
<clus scale="   32.354">  1  6  2 -1</clus>
<clus scale="  475.909">  4  5 -1 -1</clus>
<clus scale="  300.000">  1  4  2 -1</clus>
</clustering>
</event>
<event>
 6    1  0.1029244E-011  0.3000000E+03  0.7818608E-02  0.1093470E+00
          1   -1    0    0  502    0  0.00000000000E+00  0.00000000000E+00  0.22761138071E+03  0.22761138071E+03  0.00000000000E+00 0.  1.
         13   -1    0    0    0    0 -0.00000000000E+00 -0.00000000000E+00 -0.27500000000E+03  0.27500000000E+03  0.00000000000E+00 0.  1.
    9000005    2    1    2  501    0 -0.36761241227E+02  0.81136781767E+01 -0.56476061477E+02  0.46388410046E+03  0.45889180915E+03 0.  0.
         13    1    3    3    0    0  0.51245659822E+02  0.14832715046E+02  0.19248443245E+03  0.19974079158E+03  0.00000000000E+00 0.  1.
          1    1    3    3  501    0 -0.88006901050E+02 -0.67190368691E+01 -0.24896049392E+03  0.26414330888E+03  0.00000000000E+00 0.  1.
         21    1    1    2  502  501  0.36761241227E+02 -0.81136781767E+01  0.90874421828E+01  0.38727280250E+02  0.00000000000E+00 0.  1.
<scales pt_clust_4="550.00000" pt_clust_5="550.00000" pt_clust_6="37.64599"></scales>
<mgrwt>
<rscale>  0 0.30000000E+03</rscale>
<asrwt>  1 0.37645991E+02</asrwt>
<pdfrwt beam="1">  1        1 0.82767775E+00 0.30000000E+03</pdfrwt>
<pdfrwt beam="2">0</pdfrwt>
<totfact> 0.61019917E-04</totfact>
</mgrwt>
<clustering>
<clus scale="   37.646">  1  6  2 -1</clus>
<clus scale="  458.892">  4  5 -1 -1</clus>
<clus scale="  300.000">  1  4  2 -1</clus>
</clustering>
</event>
<event>
 6    1  0.1029244E-011  0.3000000E+03  0.7818608E-02  0.1093470E+00
          1   -1    0    0  502    0  0.00000000000E+00  0.00000000000E+00  0.23120421400E+03  0.23120421400E+03  0.00000000000E+00 0.  1.
         13   -1    0    0    0    0 -0.00000000000E+00 -0.00000000000E+00 -0.27500000000E+03  0.27500000000E+03  0.00000000000E+00 0.  1.
    9000005    2    1    2  501    0 -0.10699450198E+02  0.28400618773E+02 -0.53663747913E+02  0.47429104973E+03  0.47026708223E+03 0.  0.
         13    1    3    3    0    0 -0.20161779558E+03 -0.88857605640E+02  0.52288858412E+02  0.22644984939E+03  0.00000000000E+00 0.  1.
          3    1    3    3  501    0  0.19091834539E+03  0.11725822441E+03 -0.10595260632E+03  0.24784120034E+03  0.00000000000E+00 0.  1.
         21    1    1    2  502  501  0.10699450198E+02 -0.28400618773E+02  0.98679619086E+01  0.31913164266E+02  0.00000000000E+00 0. -1.
<scales pt_clust_4="550.00000" pt_clust_5="550.00000" pt_clust_6="30.34919"></scales>
<mgrwt>
<rscale>  0 0.30000000E+03</rscale>
<asrwt>  1 0.30349191E+02</asrwt>
<pdfrwt beam="1">  1        1 0.84074260E+00 0.30000000E+03</pdfrwt>
<pdfrwt beam="2">0</pdfrwt>
<totfact> 0.50392365E-04</totfact>
</mgrwt>
<clustering>
<clus scale="   30.349">  1  6  2 -1</clus>
<clus scale="  470.267">  4  5 -1 -1</clus>
<clus scale="  300.000">  1  4  2 -1</clus>
</clustering>
</event>
<event>
 6    1  0.1029244E-011  0.3000000E+03  0.7818608E-02  0.1093470E+00
          1   -1    0    0  502    0  0.00000000000E+00  0.00000000000E+00  0.22992718312E+03  0.22992718312E+03  0.00000000000E+00 0.  1.
         13   -1    0    0    0    0 -0.00000000000E+00 -0.00000000000E+00 -0.27500000000E+03  0.27500000000E+03  0.00000000000E+00 0.  1.
    9000005    2    1    2  501    0 -0.17506729644E+02  0.24620496448E+02 -0.70368950157E+02  0.46552478742E+03  0.45918284389E+03 0.  0.
         13    1    3    3    0    0 -0.16805886402E+03 -0.15053818045E+03 -0.57856263183E+01  0.22569669696E+03  0.00000000000E+00 0.  1.
          1    1    3    3  501    0  0.15055213437E+03  0.17515867689E+03 -0.64583323839E+02  0.23982809046E+03  0.00000000000E+00 0.  1.
         21    1    1    2  502  501  0.17506729644E+02 -0.24620496448E+02  0.25296133276E+02  0.39402395700E+02  0.00000000000E+00 0.  1.
<scales pt_clust_4="550.00000" pt_clust_5="550.00000" pt_clust_6="30.21017"></scales>
<mgrwt>
<rscale>  0 0.30000000E+03</rscale>
<asrwt>  1 0.30210171E+02</asrwt>
<pdfrwt beam="1">  1        1 0.83609885E+00 0.30000000E+03</pdfrwt>
<pdfrwt beam="2">0</pdfrwt>
<totfact> 0.54616085E-04</totfact>
</mgrwt>
<clustering>
<clus scale="   30.210">  1  6  2 -1</clus>
<clus scale="  459.183">  4  5 -1 -1</clus>
<clus scale="  300.000">  1  4  2 -1</clus>
</clustering>
</event>
<event>
 6    1  0.1029244E-011  0.3000000E+03  0.7818608E-02  0.1093470E+00
          1   -1    0    0  502    0  0.00000000000E+00  0.00000000000E+00  0.24989567547E+03  0.24989567547E+03  0.00000000000E+00 0.  1.
         13   -1    0    0    0    0 -0.00000000000E+00 -0.00000000000E+00 -0.27500000000E+03  0.27500000000E+03  0.00000000000E+00 0.  1.
    9000005    2    1    2  501    0 -0.24480789184E+02  0.20839628283E+02 -0.35013922976E+02  0.49125345070E+03  0.48894823742E+03 0.  0.
         13    1    3    3    0    0  0.76444002448E+02  0.21149302073E+03 -0.12526250049E+03  0.25741732141E+03  0.00000000000E+00 0.  1.
          3    1    3    3  501    0 -0.10092479163E+03 -0.19065339245E+03  0.90248577518E+02  0.23383612929E+03  0.00000000000E+00 0.  1.
         21    1    1    2  502  501  0.24480789184E+02 -0.20839628283E+02  0.99095984433E+01  0.33642224768E+02  0.00000000000E+00 0.  1.
<scales pt_clust_4="550.00000" pt_clust_5="550.00000" pt_clust_6="32.14964"></scales>
<mgrwt>
<rscale>  0 0.30000000E+03</rscale>
<asrwt>  1 0.32149637E+02</asrwt>
<pdfrwt beam="1">  1        1 0.90871155E+00 0.30000000E+03</pdfrwt>
<pdfrwt beam="2">0</pdfrwt>
<totfact> 0.78366331E-05</totfact>
</mgrwt>
<clustering>
<clus scale="   32.150">  1  6  2 -1</clus>
<clus scale="  488.948">  4  5 -1 -1</clus>
<clus scale="  300.000">  1  4  2 -1</clus>
</clustering>
</event>
<event>
 6    1  0.1029244E-011  0.3000000E+03  0.7818608E-02  0.1093470E+00
          1   -1    0    0  502    0  0.00000000000E+00  0.00000000000E+00  0.25075991731E+03  0.25075991731E+03  0.00000000000E+00 0.  1.
         13   -1    0    0    0    0 -0.00000000000E+00 -0.00000000000E+00 -0.27500000000E+03  0.27500000000E+03  0.00000000000E+00 0.  1.
    9000005    2    1    2  501    0 -0.33469112253E+02 -0.43592203531E+02 -0.48171479079E+02  0.46581683250E+03  0.46004822395E+03 0.  0.
         13    1    3    3    0    0  0.15003100551E+03  0.12501774824E+03 -0.86668294390E+02  0.21365891800E+03  0.00000000000E+00 0.  1.
          1    1    3    3  501    0 -0.18350011776E+03 -0.16860995177E+03  0.38496815311E+02  0.25215791450E+03  0.00000000000E+00 0.  1.
         21    1    1    2  502  501  0.33469112253E+02  0.43592203531E+02  0.23931396389E+02  0.59943084812E+02  0.00000000000E+00 0.  1.
<scales pt_clust_4="550.00000" pt_clust_5="550.00000" pt_clust_6="54.95873"></scales>
<mgrwt>
<rscale>  0 0.30000000E+03</rscale>
<asrwt>  1 0.54958727E+02</asrwt>
<pdfrwt beam="1">  1        1 0.91185424E+00 0.30000000E+03</pdfrwt>
<pdfrwt beam="2">0</pdfrwt>
<totfact> 0.59617796E-05</totfact>
</mgrwt>
<clustering>
<clus scale="   54.959">  1  6  2 -1</clus>
<clus scale="  460.048">  4  5 -1 -1</clus>
<clus scale="  300.000">  1  4  2 -1</clus>
</clustering>
</event>
<event>
 6    1  0.1029244E-011  0.3000000E+03  0.7818608E-02  0.1093470E+00
          1   -1    0    0  502    0  0.00000000000E+00  0.00000000000E+00  0.24547781754E+03  0.24547781754E+03  0.00000000000E+00 0.  1.
         13   -1    0    0    0    0 -0.00000000000E+00 -0.00000000000E+00 -0.27500000000E+03  0.27500000000E+03  0.00000000000E+00 0.  1.
    9000005    2    1    2  501    0  0.10185286668E+02 -0.28735494627E+02 -0.32582709492E+02  0.48983739422E+03  0.48780074938E+03 0.  0.
         13    1    3    3    0    0  0.17149906363E+03  0.15629573094E+03 -0.68059428570E+02  0.24181060802E+03  0.00000000000E+00 0.  1.
          1    1    3    3  501    0 -0.16131377696E+03 -0.18503122557E+03  0.35476719078E+02  0.24802678619E+03  0.00000000000E+00 0.  1.
         21    1    1    2  502  501 -0.10185286668E+02  0.28735494627E+02  0.30605270354E+01  0.30640423328E+02  0.00000000000E+00 0. -1.
<scales pt_clust_4="550.00000" pt_clust_5="550.00000" pt_clust_6="30.48719"></scales>
<mgrwt>
<rscale>  0 0.30000000E+03</rscale>
<asrwt>  1 0.30487189E+02</asrwt>
<pdfrwt beam="1">  1        1 0.89264661E+00 0.30000000E+03</pdfrwt>
<pdfrwt beam="2">0</pdfrwt>
<totfact> 0.13777166E-04</totfact>
</mgrwt>
<clustering>
<clus scale="   30.487">  1  6  2 -1</clus>
<clus scale="  487.801">  4  5 -1 -1</clus>
<clus scale="  300.000">  1  4  2 -1</clus>
</clustering>
</event>
<event>
 6    1  0.1029244E-011  0.3000000E+03  0.7818608E-02  0.1093470E+00
          1   -1    0    0  502    0  0.00000000000E+00  0.00000000000E+00  0.25057201894E+03  0.25057201894E+03  0.00000000000E+00 0.  1.
         13   -1    0    0    0    0 -0.00000000000E+00 -0.00000000000E+00 -0.27500000000E+03  0.27500000000E+03  0.00000000000E+00 0.  1.
    9000005    2    1    2  501    0  0.28457185766E+02  0.15978192790E+02 -0.74972087442E+02  0.46540707270E+03  0.45816788992E+03 0.  0.
         13    1    3    3    0    0  0.26797672899E+02 -0.22077541286E+03 -0.29921198418E+02  0.22439959071E+03  0.00000000000E+00 0.  1.
          3    1    3    3  501    0  0.16595128665E+01  0.23675360565E+03 -0.45050889024E+02  0.24100748199E+03  0.00000000000E+00 0.  1.
         21    1    1    2  502  501 -0.28457185766E+02 -0.15978192790E+02  0.50544106387E+02  0.60164946247E+02  0.00000000000E+00 0.  1.
<scales pt_clust_4="550.00000" pt_clust_5="550.00000" pt_clust_6="32.63609"></scales>
<mgrwt>
<rscale>  0 0.30000000E+03</rscale>
<asrwt>  1 0.32636085E+02</asrwt>
<pdfrwt beam="1">  1        1 0.91117098E+00 0.30000000E+03</pdfrwt>
<pdfrwt beam="2">0</pdfrwt>
<totfact> 0.68131749E-05</totfact>
</mgrwt>
<clustering>
<clus scale="   32.636">  1  6  2 -1</clus>
<clus scale="  458.168">  4  5 -1 -1</clus>
<clus scale="  300.000">  1  4  2 -1</clus>
</clustering>
</event>
<event>
 6    1  0.1029244E-011  0.3000000E+03  0.7818608E-02  0.1093470E+00
          1   -1    0    0  502    0  0.00000000000E+00  0.00000000000E+00  0.25242748289E+03  0.25242748289E+03  0.00000000000E+00 0.  1.
         13   -1    0    0    0    0 -0.00000000000E+00 -0.00000000000E+00 -0.27500000000E+03  0.27500000000E+03  0.00000000000E+00 0.  1.
    9000005    2    1    2  501    0 -0.15299806475E+02 -0.26748929400E+02 -0.30483032359E+02  0.49561293349E+03  0.49371385972E+03 0.  0.
         13    1    3    3    0    0 -0.17024924157E+03 -0.19672030617E+03  0.17178417913E+02  0.26072740776E+03  0.00000000000E+00 0.  1.
          1    1    3    3  501    0  0.15494943509E+03  0.16997137677E+03 -0.47661450272E+02  0.23488552573E+03  0.00000000000E+00 0.  1.
         21    1    1    2  502  501  0.15299806475E+02  0.26748929400E+02  0.79105152503E+01  0.31814549404E+02  0.00000000000E+00 0.  1.
<scales pt_clust_4="550.00000" pt_clust_5="550.00000" pt_clust_6="30.81541"></scales>
<mgrwt>
<rscale>  0 0.30000000E+03</rscale>
<asrwt>  1 0.30815407E+02</asrwt>
<pdfrwt beam="1">  1        1 0.91791812E+00 0.30000000E+03</pdfrwt>
<pdfrwt beam="2">0</pdfrwt>
<totfact> 0.47588632E-05</totfact>
</mgrwt>
<clustering>
<clus scale="   30.815">  1  6  2 -1</clus>
<clus scale="  493.714">  4  5 -1 -1</clus>
<clus scale="  300.000">  1  4  2 -1</clus>
</clustering>
</event>
<event>
 6    1  0.1029244E-011  0.3000000E+03  0.7818608E-02  0.1093470E+00
          1   -1    0    0  502    0  0.00000000000E+00  0.00000000000E+00  0.22243251190E+03  0.22243251190E+03  0.00000000000E+00 0.  1.
         13   -1    0    0    0    0 -0.00000000000E+00 -0.00000000000E+00 -0.27500000000E+03  0.27500000000E+03  0.00000000000E+00 0.  1.
    9000005    2    1    2  501    0  0.12956445878E+02  0.31581127354E+02 -0.62642457706E+02  0.46184119122E+03  0.45629811670E+03 0.  0.
         13    1    3    3    0    0  0.13623494695E+03  0.16029216407E+03 -0.15481554424E+03  0.26119224983E+03  0.00000000000E+00 0.  1.
          1    1    3    3  501    0 -0.12327850108E+03 -0.12871103671E+03  0.92173086536E+02  0.20064894139E+03  0.00000000000E+00 0.  1.
         21    1    1    2  502  501 -0.12956445878E+02 -0.31581127354E+02  0.10074969601E+02  0.35591320672E+02  0.00000000000E+00 0. -1.
<scales pt_clust_4="550.00000" pt_clust_5="550.00000" pt_clust_6="34.13557"></scales>
<mgrwt>
<rscale>  0 0.30000000E+03</rscale>
<asrwt>  1 0.34135569E+02</asrwt>
<pdfrwt beam="1">  1        1 0.80884550E+00 0.30000000E+03</pdfrwt>
<pdfrwt beam="2">0</pdfrwt>
<totfact> 0.89453637E-04</totfact>
</mgrwt>
<clustering>
<clus scale="   34.136">  1  6  2 -1</clus>
<clus scale="  456.298">  4  5 -1 -1</clus>
<clus scale="  300.000">  1  4  2 -1</clus>
</clustering>
</event>
<event>
 6    1  0.1029244E-011  0.3000000E+03  0.7818608E-02  0.1093470E+00
          1   -1    0    0  502    0  0.00000000000E+00  0.00000000000E+00  0.23794992884E+03  0.23794992884E+03  0.00000000000E+00 0.  1.
         13   -1    0    0    0    0 -0.00000000000E+00 -0.00000000000E+00 -0.27500000000E+03  0.27500000000E+03  0.00000000000E+00 0.  1.
    9000005    2    1    2  501    0  0.43029462293E+02  0.99644820263E+01 -0.49044736933E+02  0.46718206310E+03  0.46249634413E+03 0.  0.
         13    1    3    3    0    0  0.63969925460E+01 -0.40505571850E+02 -0.25176672970E+03  0.25508451354E+03  0.00000000000E+00 0.  1.
          1    1    3    3  501    0  0.36632469747E+02  0.50470053876E+02  0.20272199277E+03  0.21209754956E+03  0.00000000000E+00 0.  1.
         21    1    1    2  502  501 -0.43029462293E+02 -0.99644820263E+01  0.11994665772E+02  0.45767865739E+02  0.00000000000E+00 0. -1.
<scales pt_clust_4="550.00000" pt_clust_5="550.00000" pt_clust_6="44.16815"></scales>
<mgrwt>
<rscale>  0 0.30000000E+03</rscale>
<asrwt>  1 0.44168151E+02</asrwt>
<pdfrwt beam="1">  1        1 0.86527247E+00 0.30000000E+03</pdfrwt>
<pdfrwt beam="2">0</pdfrwt>
<totfact> 0.27194719E-04</totfact>
</mgrwt>
<clustering>
<clus scale="   44.168">  1  6  2 -1</clus>
<clus scale="  462.496">  4  5 -1 -1</clus>
<clus scale="  300.000">  1  4  2 -1</clus>
</clustering>
</event>
<event>
 6    1  0.1029244E-011  0.3000000E+03  0.7818608E-02  0.1093470E+00
          1   -1    0    0  502    0  0.00000000000E+00  0.00000000000E+00  0.24601283594E+03  0.24601283594E+03  0.00000000000E+00 0.  1.
         13   -1    0    0    0    0 -0.00000000000E+00 -0.00000000000E+00 -0.27500000000E+03  0.27500000000E+03  0.00000000000E+00 0.  1.
    9000005    2    1    2  501    0 -0.37281762759E+02 -0.81437137310E+01 -0.37797831021E+02  0.48184808444E+03  0.47884512166E+03 0.  0.
         13    1    3    3    0    0 -0.19944244542E+03  0.14966034195E+03  0.13935153693E+02  0.24973925501E+03  0.00000000000E+00 0.  1.
          3    1    3    3  501    0  0.16216068266E+03 -0.15780405568E+03 -0.51732984713E+02  0.23210882943E+03  0.00000000000E+00 0.  1.
         21    1    1    2  502  501  0.37281762759E+02  0.81437137310E+01  0.88106669604E+01  0.39164751500E+02  0.00000000000E+00 0. -1.
<scales pt_clust_4="550.00000" pt_clust_5="550.00000" pt_clust_6="38.16084"></scales>
<mgrwt>
<rscale>  0 0.30000000E+03</rscale>
<asrwt>  1 0.38160843E+02</asrwt>
<pdfrwt beam="1">  1        1 0.89459213E+00 0.30000000E+03</pdfrwt>
<pdfrwt beam="2">0</pdfrwt>
<totfact> 0.12540356E-04</totfact>
</mgrwt>
<clustering>
<clus scale="   38.161">  1  6  2 -1</clus>
<clus scale="  478.845">  4  5 -1 -1</clus>
<clus scale="  300.000">  1  4  2 -1</clus>
</clustering>
</event>
<event>
 6    1  0.1029244E-011  0.3000000E+03  0.7818608E-02  0.1093470E+00
          1   -1    0    0  502    0  0.00000000000E+00  0.00000000000E+00  0.23440698535E+03  0.23440698535E+03  0.00000000000E+00 0.  1.
         13   -1    0    0    0    0 -0.00000000000E+00 -0.00000000000E+00 -0.27500000000E+03  0.27500000000E+03  0.00000000000E+00 0.  1.
    9000005    2    1    2  501    0  0.18017549345E+02  0.28125829347E+02 -0.52792658601E+02  0.47384681559E+03  0.46971059758E+03 0.  0.
         13    1    3    3    0    0  0.10868185492E+02 -0.29893927059E+02  0.20604707076E+03  0.20848779269E+03  0.00000000000E+00 0.  1.
          3    1    3    3  501    0  0.71493638531E+01  0.58019756406E+02 -0.25883972936E+03  0.26535902290E+03  0.00000000000E+00 0.  1.
         21    1    1    2  502  501 -0.18017549345E+02 -0.28125829347E+02  0.12199643948E+02  0.35560169759E+02  0.00000000000E+00 0. -1.
<scales pt_clust_4="550.00000" pt_clust_5="550.00000" pt_clust_6="33.40201"></scales>
<mgrwt>
<rscale>  0 0.30000000E+03</rscale>
<asrwt>  1 0.33402011E+02</asrwt>
<pdfrwt beam="1">  1        1 0.85238904E+00 0.30000000E+03</pdfrwt>
<pdfrwt beam="2">0</pdfrwt>
<totfact> 0.38967006E-04</totfact>
</mgrwt>
<clustering>
<clus scale="   33.402">  1  6  2 -1</clus>
<clus scale="  469.711">  4  5 -1 -1</clus>
<clus scale="  300.000">  1  4  2 -1</clus>
</clustering>
</event>
<event>
 6    1  0.1029244E-011  0.3000000E+03  0.7818608E-02  0.1093470E+00
          1   -1    0    0  502    0  0.00000000000E+00  0.00000000000E+00  0.23156112939E+03  0.23156112939E+03  0.00000000000E+00 0.  1.
         13   -1    0    0    0    0 -0.00000000000E+00 -0.00000000000E+00 -0.27500000000E+03  0.27500000000E+03  0.00000000000E+00 0.  1.
    9000005    2    1    2  501    0  0.37143056464E+02  0.66229622330E+01 -0.39744296229E+02  0.46865176179E+03  0.46543677817E+03 0.  0.
         13    1    3    3    0    0 -0.59923115670E+02  0.19792144367E+03 -0.12061505871E+03  0.23939855898E+03  0.00000000000E+00 0.  1.
          1    1    3    3  501    0  0.97066172134E+02 -0.19129848143E+03  0.80870762482E+02  0.22925320280E+03  0.00000000000E+00 0.  1.
         21    1    1    2  502  501 -0.37143056464E+02 -0.66229622330E+01 -0.36945743821E+01  0.37909367603E+02  0.00000000000E+00 0.  1.
<scales pt_clust_4="550.00000" pt_clust_5="550.00000" pt_clust_6="37.72892"></scales>
<mgrwt>
<rscale>  0 0.30000000E+03</rscale>
<asrwt>  1 0.37728924E+02</asrwt>
<pdfrwt beam="1">  1        1 0.84204047E+00 0.30000000E+03</pdfrwt>
<pdfrwt beam="2">0</pdfrwt>
<totfact> 0.47216455E-04</totfact>
</mgrwt>
<clustering>
<clus scale="   37.729">  1  6  2 -1</clus>
<clus scale="  465.437">  4  5 -1 -1</clus>
<clus scale="  300.000">  1  4  2 -1</clus>
</clustering>
</event>
<event>
 6    1  0.1029244E-011  0.3000000E+03  0.7818608E-02  0.1093470E+00
          1   -1    0    0  502    0  0.00000000000E+00  0.00000000000E+00  0.24110392376E+03  0.24110392376E+03  0.00000000000E+00 0.  1.
         13   -1    0    0    0    0 -0.00000000000E+00 -0.00000000000E+00 -0.27500000000E+03  0.27500000000E+03  0.00000000000E+00 0.  1.
    9000005    2    1    2  501    0  0.30040486914E+02 -0.74960780904E+01 -0.37035249936E+02  0.48498356945E+03  0.48257520746E+03 0.  0.
         13    1    3    3    0    0  0.12045998007E+03  0.18854764547E+03 -0.11976990296E+03  0.25378268472E+03  0.00000000000E+00 0.  1.
          3    1    3    3  501    0 -0.90419493155E+02 -0.19604372356E+03  0.82734653027E+02  0.23120088473E+03  0.00000000000E+00 0.  1.
         21    1    1    2  502  501 -0.30040486914E+02  0.74960780904E+01  0.31391736949E+01  0.31120354308E+02  0.00000000000E+00 0.  1.
<scales pt_clust_4="550.00000" pt_clust_5="550.00000" pt_clust_6="30.96162"></scales>
<mgrwt>
<rscale>  0 0.30000000E+03</rscale>
<asrwt>  1 0.30961622E+02</asrwt>
<pdfrwt beam="1">  1        1 0.87674154E+00 0.30000000E+03</pdfrwt>
<pdfrwt beam="2">0</pdfrwt>
<totfact> 0.22045995E-04</totfact>
</mgrwt>
<clustering>
<clus scale="   30.962">  1  6  2 -1</clus>
<clus scale="  482.575">  4  5 -1 -1</clus>
<clus scale="  300.000">  1  4  2 -1</clus>
</clustering>
</event>
<event>
 6    1  0.1029244E-011  0.3000000E+03  0.7818608E-02  0.1093470E+00
          1   -1    0    0  502    0  0.00000000000E+00  0.00000000000E+00  0.24832804392E+03  0.24832804392E+03  0.00000000000E+00 0.  1.
         13   -1    0    0    0    0 -0.00000000000E+00 -0.00000000000E+00 -0.27500000000E+03  0.27500000000E+03  0.00000000000E+00 0.  1.
    9000005    2    1    2  501    0  0.19535974248E+02 -0.28382787567E+02 -0.72902852684E+02  0.46566928291E+03  0.45863473288E+03 0.  0.
         13    1    3    3    0    0  0.10912804178E+03  0.17558324615E+03  0.47955364869E+02  0.21222187175E+03  0.00000000000E+00 0.  1.
          3    1    3    3  501    0 -0.89592067532E+02 -0.20396603371E+03 -0.12085821755E+03  0.25344741116E+03  0.00000000000E+00 0.  1.
         21    1    1    2  502  501 -0.19535974248E+02  0.28382787567E+02  0.46230896605E+02  0.57658761006E+02  0.00000000000E+00 0.  1.
<scales pt_clust_4="550.00000" pt_clust_5="550.00000" pt_clust_6="34.45630"></scales>
<mgrwt>
<rscale>  0 0.30000000E+03</rscale>
<asrwt>  1 0.34456305E+02</asrwt>
<pdfrwt beam="1">  1        1 0.90301107E+00 0.30000000E+03</pdfrwt>
<pdfrwt beam="2">0</pdfrwt>
<totfact> 0.10046653E-04</totfact>
</mgrwt>
<clustering>
<clus scale="   34.456">  1  6  2 -1</clus>
<clus scale="  458.635">  4  5 -1 -1</clus>
<clus scale="  300.000">  1  4  2 -1</clus>
</clustering>
</event>
<event>
 6    1  0.1029244E-011  0.3000000E+03  0.7818608E-02  0.1093470E+00
          1   -1    0    0  502    0  0.00000000000E+00  0.00000000000E+00  0.23402530743E+03  0.23402530743E+03  0.00000000000E+00 0.  1.
         13   -1    0    0    0    0 -0.00000000000E+00 -0.00000000000E+00 -0.27500000000E+03  0.27500000000E+03  0.00000000000E+00 0.  1.
    9000005    2    1    2  501    0 -0.27520374440E+02  0.16752174020E+02 -0.72367106364E+02  0.46404208848E+03  0.45723085575E+03 0.  0.
         13    1    3    3    0    0  0.15113543021E+03 -0.10665801753E+03  0.77131880214E+02  0.20041750900E+03  0.00000000000E+00 0.  1.
          3    1    3    3  501    0 -0.17865580465E+03  0.12341019155E+03 -0.14949898658E+03  0.26362457947E+03  0.00000000000E+00 0.  1.
         21    1    1    2  502  501  0.27520374440E+02 -0.16752174020E+02  0.31392413798E+02  0.44983218958E+02  0.00000000000E+00 0.  1.
<scales pt_clust_4="550.00000" pt_clust_5="550.00000" pt_clust_6="32.21811"></scales>
<mgrwt>
<rscale>  0 0.30000000E+03</rscale>
<asrwt>  1 0.32218106E+02</asrwt>
<pdfrwt beam="1">  1        1 0.85100112E+00 0.30000000E+03</pdfrwt>
<pdfrwt beam="2">0</pdfrwt>
<totfact> 0.40449579E-04</totfact>
</mgrwt>
<clustering>
<clus scale="   32.218">  1  6  2 -1</clus>
<clus scale="  457.231">  4  5 -1 -1</clus>
<clus scale="  300.000">  1  4  2 -1</clus>
</clustering>
</event>
<event>
 6    1  0.1029244E-011  0.3000000E+03  0.7818608E-02  0.1093470E+00
          1   -1    0    0  502    0  0.00000000000E+00  0.00000000000E+00  0.23076688617E+03  0.23076688617E+03  0.00000000000E+00 0.  1.
         13   -1    0    0    0    0 -0.00000000000E+00 -0.00000000000E+00 -0.27500000000E+03  0.27500000000E+03  0.00000000000E+00 0.  1.
    9000005    2    1    2  501    0 -0.30820354977E+02 -0.52471982729E+01 -0.36128714269E+02  0.47346969337E+03  0.47105290486E+03 0.  0.
         13    1    3    3    0    0 -0.14685342745E+03  0.85153627108E+02  0.15664563084E+03  0.23098684600E+03  0.00000000000E+00 0.  1.
          3    1    3    3  501    0  0.11603307247E+03 -0.90400825381E+02 -0.19277434511E+03  0.24248284737E+03  0.00000000000E+00 0.  1.
         21    1    1    2  502  501  0.30820354977E+02  0.52471982729E+01 -0.81043995589E+01  0.32297192801E+02  0.00000000000E+00 0.  1.
<scales pt_clust_4="550.00000" pt_clust_5="550.00000" pt_clust_6="31.26385"></scales>
<mgrwt>
<rscale>  0 0.30000000E+03</rscale>
<asrwt>  1 0.31263850E+02</asrwt>
<pdfrwt beam="1">  1        1 0.83915231E+00 0.30000000E+03</pdfrwt>
<pdfrwt beam="2">0</pdfrwt>
<totfact> 0.51533142E-04</totfact>
</mgrwt>
<clustering>
<clus scale="   31.264">  1  6  2 -1</clus>
<clus scale="  471.053">  4  5 -1 -1</clus>
<clus scale="  300.000">  1  4  2 -1</clus>
</clustering>
</event>
<event>
 6    1  0.1029244E-011  0.3000000E+03  0.7818608E-02  0.1093470E+00
          1   -1    0    0  502    0  0.00000000000E+00  0.00000000000E+00  0.22440541259E+03  0.22440541259E+03  0.00000000000E+00 0.  1.
         13   -1    0    0    0    0 -0.00000000000E+00 -0.00000000000E+00 -0.27500000000E+03  0.27500000000E+03  0.00000000000E+00 0.  1.
    9000005    2    1    2  501    0  0.24400178311E+02  0.22482928836E+02 -0.56970955897E+02  0.46561918957E+03  0.46092807366E+03 0.  0.
         13    1    3    3    0    0 -0.17973062926E+01  0.74509812332E+02 -0.25162769261E+03  0.26243368331E+03  0.00000000000E+00 0.  1.
          1    1    3    3  501    0  0.26197484604E+02 -0.52026883496E+02  0.19465673672E+03  0.20318550626E+03  0.00000000000E+00 0.  1.
         21    1    1    2  502  501 -0.24400178311E+02 -0.22482928836E+02  0.63763684822E+01  0.33786223016E+02  0.00000000000E+00 0. -1.
<scales pt_clust_4="550.00000" pt_clust_5="550.00000" pt_clust_6="33.17907"></scales>
<mgrwt>
<rscale>  0 0.30000000E+03</rscale>
<asrwt>  1 0.33179072E+02</asrwt>
<pdfrwt beam="1">  1        1 0.81601968E+00 0.30000000E+03</pdfrwt>
<pdfrwt beam="2">0</pdfrwt>
<totfact> 0.78889386E-04</totfact>
</mgrwt>
<clustering>
<clus scale="   33.179">  1  6  2 -1</clus>
<clus scale="  460.928">  4  5 -1 -1</clus>
<clus scale="  300.000">  1  4  2 -1</clus>
</clustering>
</event>
<event>
 6    1  0.1029244E-011  0.3000000E+03  0.7818608E-02  0.1093470E+00
          1   -1    0    0  502    0  0.00000000000E+00  0.00000000000E+00  0.23213871995E+03  0.23213871995E+03  0.00000000000E+00 0.  1.
         13   -1    0    0    0    0 -0.00000000000E+00 -0.00000000000E+00 -0.27500000000E+03  0.27500000000E+03  0.00000000000E+00 0.  1.
    9000005    2    1    2  501    0 -0.20659728800E+02  0.32874443881E+02 -0.50665770405E+02  0.46753488776E+03  0.46315688220E+03 0.  0.
         13    1    3    3    0    0 -0.14333877221E+03  0.20635451293E+03 -0.43118304731E+02  0.25492621840E+03  0.00000000000E+00 0.  1.
          1    1    3    3  501    0  0.12267904341E+03 -0.17348006905E+03 -0.75474656740E+01  0.21260866936E+03  0.00000000000E+00 0.  1.
         21    1    1    2  502  501  0.20659728800E+02 -0.32874443881E+02  0.78044903575E+01  0.39603832192E+02  0.00000000000E+00 0. -1.
<scales pt_clust_4="550.00000" pt_clust_5="550.00000" pt_clust_6="38.82723"></scales>
<mgrwt>
<rscale>  0 0.30000000E+03</rscale>
<asrwt>  1 0.38827226E+02</asrwt>
<pdfrwt beam="1">  1        1 0.84414080E+00 0.30000000E+03</pdfrwt>
<pdfrwt beam="2">0</pdfrwt>
<totfact> 0.45089091E-04</totfact>
</mgrwt>
<clustering>
<clus scale="   38.827">  1  6  2 -1</clus>
<clus scale="  463.157">  4  5 -1 -1</clus>
<clus scale="  300.000">  1  4  2 -1</clus>
</clustering>
</event>
<event>
 6    1  0.1029244E-011  0.3000000E+03  0.7818608E-02  0.1093470E+00
          1   -1    0    0  502    0  0.00000000000E+00  0.00000000000E+00  0.24396361202E+03  0.24396361202E+03  0.00000000000E+00 0.  1.
         13   -1    0    0    0    0 -0.00000000000E+00 -0.00000000000E+00 -0.27500000000E+03  0.27500000000E+03  0.00000000000E+00 0.  1.
    9000005    2    1    2  501    0  0.39202469522E+02 -0.31225925056E+02 -0.43747804850E+02  0.46725798244E+03  0.46249784833E+03 0.  0.
         13    1    3    3    0    0  0.23751158510E+03  0.50505378176E+02  0.19588699696E+02  0.24361088530E+03  0.00000000000E+00 0.  1.
          1    1    3    3  501    0 -0.19830911558E+03 -0.81731303232E+02 -0.63336504546E+02  0.22364709714E+03  0.00000000000E+00 0.  1.
         21    1    1    2  502  501 -0.39202469522E+02  0.31225925056E+02  0.12711416874E+02  0.51705629588E+02  0.00000000000E+00 0.  1.
<scales pt_clust_4="550.00000" pt_clust_5="550.00000" pt_clust_6="50.11878"></scales>
<mgrwt>
<rscale>  0 0.30000000E+03</rscale>
<asrwt>  1 0.50118779E+02</asrwt>
<pdfrwt beam="1">  1        1 0.88714041E+00 0.30000000E+03</pdfrwt>
<pdfrwt beam="2">0</pdfrwt>
<totfact> 0.14858367E-04</totfact>
</mgrwt>
<clustering>
<clus scale="   50.119">  1  6  2 -1</clus>
<clus scale="  462.498">  4  5 -1 -1</clus>
<clus scale="  300.000">  1  4  2 -1</clus>
</clustering>
</event>
<event>
 6    1  0.1029244E-011  0.3000000E+03  0.7818608E-02  0.1093470E+00
          1   -1    0    0  502    0  0.00000000000E+00  0.00000000000E+00  0.22940651518E+03  0.22940651518E+03  0.00000000000E+00 0.  1.
         13   -1    0    0    0    0 -0.00000000000E+00 -0.00000000000E+00 -0.27500000000E+03  0.27500000000E+03  0.00000000000E+00 0.  1.
    9000005    2    1    2  501    0 -0.35245328565E+02 -0.23923551030E+02 -0.48125908685E+02  0.46173354188E+03  0.45723865884E+03 0.  0.
         13    1    3    3    0    0  0.17258379631E+02  0.21304194635E+03 -0.47806553475E+02  0.21902097874E+03  0.00000000000E+00 0.  1.
          1    1    3    3  501    0 -0.52503708196E+02 -0.23696549738E+03 -0.31935521074E+00  0.24271256315E+03  0.00000000000E+00 0.  1.
         21    1    1    2  502  501  0.35245328565E+02  0.23923551030E+02  0.25324238672E+01  0.42672973299E+02  0.00000000000E+00 0.  1.
<scales pt_clust_4="550.00000" pt_clust_5="550.00000" pt_clust_6="42.59776"></scales>
<mgrwt>
<rscale>  0 0.30000000E+03</rscale>
<asrwt>  1 0.42597764E+02</asrwt>
<pdfrwt beam="1">  1        1 0.83420551E+00 0.30000000E+03</pdfrwt>
<pdfrwt beam="2">0</pdfrwt>
<totfact> 0.52886425E-04</totfact>
</mgrwt>
<clustering>
<clus scale="   42.598">  1  6  2 -1</clus>
<clus scale="  457.239">  4  5 -1 -1</clus>
<clus scale="  300.000">  1  4  2 -1</clus>
</clustering>
</event>
<event>
 6    1  0.1029244E-011  0.3000000E+03  0.7818608E-02  0.1093470E+00
          1   -1    0    0  502    0  0.00000000000E+00  0.00000000000E+00  0.22049225967E+03  0.22049225967E+03  0.00000000000E+00 0.  1.
         13   -1    0    0    0    0 -0.00000000000E+00 -0.00000000000E+00 -0.27500000000E+03  0.27500000000E+03  0.00000000000E+00 0.  1.
    9000005    2    1    2  501    0 -0.12126101040E+02  0.28714296322E+02 -0.42847190777E+02  0.46221281322E+03  0.45916581951E+03 0.  0.
         13    1    3    3    0    0 -0.22257277739E+03 -0.15259441261E+02 -0.92582802340E+02  0.24154309568E+03  0.00000000000E+00 0.  1.
          1    1    3    3  501    0  0.21044667635E+03  0.43973737582E+02  0.49735611562E+02  0.22066971754E+03  0.00000000000E+00 0.  1.
         21    1    1    2  502  501  0.12126101040E+02 -0.28714296322E+02 -0.11660549557E+02  0.33279446444E+02  0.00000000000E+00 0.  1.
<scales pt_clust_4="550.00000" pt_clust_5="550.00000" pt_clust_6="31.16976"></scales>
<mgrwt>
<rscale>  0 0.30000000E+03</rscale>
<asrwt>  1 0.31169763E+02</asrwt>
<pdfrwt beam="1">  1        1 0.80179004E+00 0.30000000E+03</pdfrwt>
<pdfrwt beam="2">0</pdfrwt>
<totfact> 0.10288036E-03</totfact>
</mgrwt>
<clustering>
<clus scale="   31.170">  1  6  2 -1</clus>
<clus scale="  459.166">  4  5 -1 -1</clus>
<clus scale="  300.000">  1  4  2 -1</clus>
</clustering>
</event>
<event>
 6    1  0.1029244E-011  0.3000000E+03  0.7818608E-02  0.1093470E+00
          1   -1    0    0  502    0  0.00000000000E+00  0.00000000000E+00  0.24452464446E+03  0.24452464446E+03  0.00000000000E+00 0.  1.
         13   -1    0    0    0    0 -0.00000000000E+00 -0.00000000000E+00 -0.27500000000E+03  0.27500000000E+03  0.00000000000E+00 0.  1.
    9000005    2    1    2  501    0 -0.19150890563E+02 -0.23365573137E+02 -0.40143536198E+02  0.48780429871E+03  0.48521008205E+03 0.  0.
         13    1    3    3    0    0 -0.13003427985E+03  0.17348202840E+03 -0.12046026879E+03  0.24802339500E+03  0.00000000000E+00 0.  1.
          1    1    3    3  501    0  0.11088338929E+03 -0.19684760153E+03  0.80316732590E+02  0.23978090371E+03  0.00000000000E+00 0.  1.
         21    1    1    2  502  501  0.19150890563E+02  0.23365573137E+02  0.96681806630E+01  0.31720345753E+02  0.00000000000E+00 0. -1.
<scales pt_clust_4="550.00000" pt_clust_5="550.00000" pt_clust_6="30.21103"></scales>
<mgrwt>
<rscale>  0 0.30000000E+03</rscale>
<asrwt>  1 0.30211035E+02</asrwt>
<pdfrwt beam="1">  1        1 0.88918053E+00 0.30000000E+03</pdfrwt>
<pdfrwt beam="2">0</pdfrwt>
<totfact> 0.15288210E-04</totfact>
</mgrwt>
<clustering>
<clus scale="   30.211">  1  6  2 -1</clus>
<clus scale="  485.210">  4  5 -1 -1</clus>
<clus scale="  300.000">  1  4  2 -1</clus>
</clustering>
</event>
<event>
 6    1  0.1029244E-011  0.3000000E+03  0.7818608E-02  0.1093470E+00
          1   -1    0    0  502    0  0.00000000000E+00  0.00000000000E+00  0.22601704773E+03  0.22601704773E+03  0.00000000000E+00 0.  1.
         13   -1    0    0    0    0 -0.00000000000E+00 -0.00000000000E+00 -0.27500000000E+03  0.27500000000E+03  0.00000000000E+00 0.  1.
    9000005    2    1    2  501    0  0.31533225502E+02  0.20349502899E+02 -0.59678586951E+02  0.46199342437E+03  0.45658289920E+03 0.  0.
         13    1    3    3    0    0 -0.14590736567E+03 -0.10699352193E+03 -0.14053574064E+03  0.22910012547E+03  0.00000000000E+00 0.  1.
          1    1    3    3  501    0  0.17744059117E+03  0.12734302483E+03  0.80857153693E+02  0.23289329890E+03  0.00000000000E+00 0.  1.
         21    1    1    2  502  501 -0.31533225502E+02 -0.20349502899E+02  0.10695634681E+02  0.39023623359E+02  0.00000000000E+00 0.  1.
<scales pt_clust_4="550.00000" pt_clust_5="550.00000" pt_clust_6="37.52928"></scales>
<mgrwt>
<rscale>  0 0.30000000E+03</rscale>
<asrwt>  1 0.37529276E+02</asrwt>
<pdfrwt beam="1">  1        1 0.82188017E+00 0.30000000E+03</pdfrwt>
<pdfrwt beam="2">0</pdfrwt>
<totfact> 0.68739522E-04</totfact>
</mgrwt>
<clustering>
<clus scale="   37.529">  1  6  2 -1</clus>
<clus scale="  456.583">  4  5 -1 -1</clus>
<clus scale="  300.000">  1  4  2 -1</clus>
</clustering>
</event>
<event>
 6    1  0.1029244E-011  0.3000000E+03  0.7818608E-02  0.1093470E+00
          1   -1    0    0  502    0  0.00000000000E+00  0.00000000000E+00  0.23206928720E+03  0.23206928720E+03  0.00000000000E+00 0.  1.
         13   -1    0    0    0    0 -0.00000000000E+00 -0.00000000000E+00 -0.27500000000E+03  0.27500000000E+03  0.00000000000E+00 0.  1.
    9000005    2    1    2  501    0 -0.35397298266E+01  0.34667467673E+02 -0.61302422122E+02  0.46767534470E+03  0.46232875541E+03 0.  0.
         13    1    3    3    0    0  0.19656448122E+03  0.29350397634E+01  0.88615042682E+02  0.21563588645E+03  0.00000000000E+00 0.  1.
          1    1    3    3  501    0 -0.20010421105E+03  0.31732427910E+02 -0.14991746480E+03  0.25203945825E+03  0.00000000000E+00 0.  1.
         21    1    1    2  502  501  0.35397298266E+01 -0.34667467673E+02  0.18371709317E+02  0.39393942496E+02  0.00000000000E+00 0. -1.
<scales pt_clust_4="550.00000" pt_clust_5="550.00000" pt_clust_6="34.84771"></scales>
<mgrwt>
<rscale>  0 0.30000000E+03</rscale>
<asrwt>  1 0.34847712E+02</asrwt>
<pdfrwt beam="1">  1        1 0.84388832E+00 0.30000000E+03</pdfrwt>
<pdfrwt beam="2">0</pdfrwt>
<totfact> 0.46232218E-04</totfact>
</mgrwt>
<clustering>
<clus scale="   34.848">  1  6  2 -1</clus>
<clus scale="  462.329">  4  5 -1 -1</clus>
<clus scale="  300.000">  1  4  2 -1</clus>
</clustering>
</event>
<event>
 6    1  0.1029244E-011  0.3000000E+03  0.7818608E-02  0.1093470E+00
          1   -1    0    0  502    0  0.00000000000E+00  0.00000000000E+00  0.24275276825E+03  0.24275276825E+03  0.00000000000E+00 0.  1.
         13   -1    0    0    0    0 -0.00000000000E+00 -0.00000000000E+00 -0.27500000000E+03  0.27500000000E+03  0.00000000000E+00 0.  1.
    9000005    2    1    2  501    0 -0.38582198984E+02 -0.89414016083E+01 -0.34314824854E+02  0.47809410359E+03  0.47521356246E+03 0.  0.
         13    1    3    3    0    0 -0.50690578179E+02 -0.23595329690E+03  0.26440812691E+02  0.24278099103E+03  0.00000000000E+00 0.  1.
          3    1    3    3  501    0  0.12108379195E+02  0.22701189529E+03 -0.60755637545E+02  0.23531311256E+03  0.00000000000E+00 0.  1.
         21    1    1    2  502  501  0.38582198984E+02  0.89414016083E+01  0.20675931043E+01  0.39658664658E+02  0.00000000000E+00 0.  1.
<scales pt_clust_4="550.00000" pt_clust_5="550.00000" pt_clust_6="39.60473"></scales>
<mgrwt>
<rscale>  0 0.30000000E+03</rscale>
<asrwt>  1 0.39604731E+02</asrwt>
<pdfrwt beam="1">  1        1 0.88273734E+00 0.30000000E+03</pdfrwt>
<pdfrwt beam="2">0</pdfrwt>
<totfact> 0.17795447E-04</totfact>
</mgrwt>
<clustering>
<clus scale="   39.605">  1  6  2 -1</clus>
<clus scale="  475.214">  4  5 -1 -1</clus>
<clus scale="  300.000">  1  4  2 -1</clus>
</clustering>
</event>
<event>
 6    1  0.1029244E-011  0.3000000E+03  0.7818608E-02  0.1093470E+00
          1   -1    0    0  502    0  0.00000000000E+00  0.00000000000E+00  0.24303789438E+03  0.24303789438E+03  0.00000000000E+00 0.  1.
         13   -1    0    0    0    0 -0.00000000000E+00 -0.00000000000E+00 -0.27500000000E+03  0.27500000000E+03  0.00000000000E+00 0.  1.
    9000005    2    1    2  501    0 -0.16948678328E+02  0.26766388135E+02 -0.47813635052E+02  0.48261236381E+03  0.47919187469E+03 0.  0.
         13    1    3    3    0    0  0.22942463373E+03  0.29954194134E+02  0.12787996084E+01  0.23137534794E+03  0.00000000000E+00 0.  1.
          3    1    3    3  501    0 -0.24637331206E+03 -0.31878059987E+01 -0.49092434661E+02  0.25123701587E+03  0.00000000000E+00 0.  1.
         21    1    1    2  502  501  0.16948678328E+02 -0.26766388135E+02  0.15851529429E+02  0.35425530569E+02  0.00000000000E+00 0.  1.
<scales pt_clust_4="550.00000" pt_clust_5="550.00000" pt_clust_6="31.68118"></scales>
<mgrwt>
<rscale>  0 0.30000000E+03</rscale>
<asrwt>  1 0.31681181E+02</asrwt>
<pdfrwt beam="1">  1        1 0.88377416E+00 0.30000000E+03</pdfrwt>
<pdfrwt beam="2">0</pdfrwt>
<totfact> 0.17969787E-04</totfact>
</mgrwt>
<clustering>
<clus scale="   31.681">  1  6  2 -1</clus>
<clus scale="  479.192">  4  5 -1 -1</clus>
<clus scale="  300.000">  1  4  2 -1</clus>
</clustering>
</event>
<event>
 6    1  0.1029244E-011  0.3000000E+03  0.7818608E-02  0.1093470E+00
          1   -1    0    0  502    0  0.00000000000E+00  0.00000000000E+00  0.26384411198E+03  0.26384411198E+03  0.00000000000E+00 0.  1.
         13   -1    0    0    0    0 -0.00000000000E+00 -0.00000000000E+00 -0.27500000000E+03  0.27500000000E+03  0.00000000000E+00 0.  1.
    9000005    2    1    2  501    0 -0.26406367460E+02 -0.15573970711E+02 -0.64959447906E+02  0.47691941689E+03  0.47147911462E+03 0.  0.
         13    1    3    3    0    0 -0.28550980882E+02  0.22700856626E+03 -0.47683791633E+02  0.23371305408E+03  0.00000000000E+00 0.  1.
          3    1    3    3  501    0  0.21446134224E+01 -0.24258253697E+03 -0.17275656273E+02  0.24320636280E+03  0.00000000000E+00 0.  1.
         21    1    1    2  502  501  0.26406367460E+02  0.15573970711E+02  0.53803559886E+02  0.61924695094E+02  0.00000000000E+00 0. -1.
<scales pt_clust_4="550.00000" pt_clust_5="550.00000" pt_clust_6="30.65689"></scales>
<mgrwt>
<rscale>  0 0.30000000E+03</rscale>
<asrwt>  1 0.30656888E+02</asrwt>
<pdfrwt beam="1">  1        1 0.95943313E+00 0.30000000E+03</pdfrwt>
<pdfrwt beam="2">0</pdfrwt>
<totfact> 0.79993225E-06</totfact>
</mgrwt>
<clustering>
<clus scale="   30.657">  1  6  2 -1</clus>
<clus scale="  471.479">  4  5 -1 -1</clus>
<clus scale="  300.000">  1  4  2 -1</clus>
</clustering>
</event>
<event>
 6    1  0.1029244E-011  0.3000000E+03  0.7818608E-02  0.1093470E+00
          1   -1    0    0  502    0  0.00000000000E+00  0.00000000000E+00  0.23554954368E+03  0.23554954368E+03  0.00000000000E+00 0.  1.
         13   -1    0    0    0    0 -0.00000000000E+00 -0.00000000000E+00 -0.27500000000E+03  0.27500000000E+03  0.00000000000E+00 0.  1.
    9000005    2    1    2  501    0  0.37420706819E+02 -0.27320951473E+02 -0.16988956489E+02  0.45905913037E+03  0.45639885719E+03 0.  0.
         13    1    3    3    0    0 -0.17687195031E+03  0.97475032254E+02  0.36880099198E+02  0.20529298681E+03  0.00000000000E+00 0.  1.
          1    1    3    3  501    0  0.21429265713E+03 -0.12479598373E+03 -0.53869055687E+02  0.25376614355E+03  0.00000000000E+00 0.  1.
         21    1    1    2  502  501 -0.37420706819E+02  0.27320951473E+02 -0.22461499832E+02  0.51490413311E+02  0.00000000000E+00 0.  1.
<scales pt_clust_4="550.00000" pt_clust_5="550.00000" pt_clust_6="46.33299"></scales>
<mgrwt>
<rscale>  0 0.30000000E+03</rscale>
<asrwt>  1 0.46332989E+02</asrwt>
<pdfrwt beam="1">  1        1 0.85654380E+00 0.30000000E+03</pdfrwt>
<pdfrwt beam="2">0</pdfrwt>
<totfact> 0.33401011E-04</totfact>
</mgrwt>
<clustering>
<clus scale="   46.333">  1  6  2 -1</clus>
<clus scale="  456.399">  4  5 -1 -1</clus>
<clus scale="  300.000">  1  4  2 -1</clus>
</clustering>
</event>
<event>
 6    1  0.1029244E-011  0.3000000E+03  0.7818608E-02  0.1093470E+00
          1   -1    0    0  502    0  0.00000000000E+00  0.00000000000E+00  0.22747766676E+03  0.22747766676E+03  0.00000000000E+00 0.  1.
         13   -1    0    0    0    0 -0.00000000000E+00 -0.00000000000E+00 -0.27500000000E+03  0.27500000000E+03  0.00000000000E+00 0.  1.
    9000005    2    1    2  501    0  0.30604421942E+02 -0.11243742661E+02 -0.60870021135E+02  0.46724681148E+03  0.46211618775E+03 0.  0.
         13    1    3    3    0    0  0.88493917032E+02  0.15223741313E+03 -0.18390082118E+03  0.25461130246E+03  0.00000000000E+00 0.  1.
          3    1    3    3  501    0 -0.57889495090E+02 -0.16348115579E+03  0.12303080004E+03  0.21263550903E+03  0.00000000000E+00 0.  1.
         21    1    1    2  502  501 -0.30604421942E+02  0.11243742661E+02  0.13347687898E+02  0.35230855278E+02  0.00000000000E+00 0. -1.
<scales pt_clust_4="550.00000" pt_clust_5="550.00000" pt_clust_6="32.60448"></scales>
<mgrwt>
<rscale>  0 0.30000000E+03</rscale>
<asrwt>  1 0.32604484E+02</asrwt>
<pdfrwt beam="1">  1        1 0.82719152E+00 0.30000000E+03</pdfrwt>
<pdfrwt beam="2">0</pdfrwt>
<totfact> 0.63299324E-04</totfact>
</mgrwt>
<clustering>
<clus scale="   32.604">  1  6  2 -1</clus>
<clus scale="  462.116">  4  5 -1 -1</clus>
<clus scale="  300.000">  1  4  2 -1</clus>
</clustering>
</event>
<event>
 6    1  0.1029244E-011  0.3000000E+03  0.7818608E-02  0.1093470E+00
          1   -1    0    0  502    0  0.00000000000E+00  0.00000000000E+00  0.24369881938E+03  0.24369881938E+03  0.00000000000E+00 0.  1.
         13   -1    0    0    0    0 -0.00000000000E+00 -0.00000000000E+00 -0.27500000000E+03  0.27500000000E+03  0.00000000000E+00 0.  1.
    9000005    2    1    2  501    0 -0.11320285045E+02 -0.29464529475E+02 -0.48308944934E+02  0.48284395363E+03  0.47938316830E+03 0.  0.
         13    1    3    3    0    0  0.20976209294E+03 -0.73452518060E+02  0.63608103381E+02  0.23117395801E+03  0.00000000000E+00 0.  1.
          3    1    3    3  501    0 -0.22108237799E+03  0.43987988585E+02 -0.11191704832E+03  0.25166999563E+03  0.00000000000E+00 0.  1.
         21    1    1    2  502  501  0.11320285045E+02  0.29464529475E+02  0.17007764312E+02  0.35854865744E+02  0.00000000000E+00 0.  1.
<scales pt_clust_4="550.00000" pt_clust_5="550.00000" pt_clust_6="31.56434"></scales>
<mgrwt>
<rscale>  0 0.30000000E+03</rscale>
<asrwt>  1 0.31564337E+02</asrwt>
<pdfrwt beam="1">  1        1 0.88617753E+00 0.30000000E+03</pdfrwt>
<pdfrwt beam="2">0</pdfrwt>
<totfact> 0.16671423E-04</totfact>
</mgrwt>
<clustering>
<clus scale="   31.564">  1  6  2 -1</clus>
<clus scale="  479.383">  4  5 -1 -1</clus>
<clus scale="  300.000">  1  4  2 -1</clus>
</clustering>
</event>
<event>
 6    1  0.1029244E-011  0.3000000E+03  0.7818608E-02  0.1093470E+00
          1   -1    0    0  502    0  0.00000000000E+00  0.00000000000E+00  0.24830006340E+03  0.24830006340E+03  0.00000000000E+00 0.  1.
         13   -1    0    0    0    0 -0.00000000000E+00 -0.00000000000E+00 -0.27500000000E+03  0.27500000000E+03  0.00000000000E+00 0.  1.
    9000005    2    1    2  501    0  0.28789839847E+02 -0.10306055029E+02 -0.36682772572E+02  0.49113289594E+03  0.48880550940E+03 0.  0.
         13    1    3    3    0    0  0.23765653833E+03  0.94763729269E+02 -0.14145651775E+02  0.25624381760E+03  0.00000000000E+00 0.  1.
          1    1    3    3  501    0 -0.20886669848E+03 -0.10506978430E+03 -0.22537120798E+02  0.23488907833E+03  0.00000000000E+00 0.  1.
         21    1    1    2  502  501 -0.28789839847E+02  0.10306055029E+02  0.99828359736E+01  0.32167167465E+02  0.00000000000E+00 0. -1.
<scales pt_clust_4="550.00000" pt_clust_5="550.00000" pt_clust_6="30.57891"></scales>
<mgrwt>
<rscale>  0 0.30000000E+03</rscale>
<asrwt>  1 0.30578909E+02</asrwt>
<pdfrwt beam="1">  1        1 0.90290932E+00 0.30000000E+03</pdfrwt>
<pdfrwt beam="2">0</pdfrwt>
<totfact> 0.10315206E-04</totfact>
</mgrwt>
<clustering>
<clus scale="   30.579">  1  6  2 -1</clus>
<clus scale="  488.806">  4  5 -1 -1</clus>
<clus scale="  300.000">  1  4  2 -1</clus>
</clustering>
</event>
<event>
 6    1  0.1029244E-011  0.3000000E+03  0.7818608E-02  0.1093470E+00
          1   -1    0    0  502    0  0.00000000000E+00  0.00000000000E+00  0.22672951421E+03  0.22672951421E+03  0.00000000000E+00 0.  1.
         13   -1    0    0    0    0 -0.00000000000E+00 -0.00000000000E+00 -0.27500000000E+03  0.27500000000E+03  0.00000000000E+00 0.  1.
    9000005    2    1    2  501    0 -0.14870277164E+01  0.35246985770E+02 -0.49421426703E+02  0.46643240495E+03  0.46246313335E+03 0.  0.
         13    1    3    3    0    0  0.40092189811E+02 -0.21045598171E+03 -0.13566053971E+02  0.21466984357E+03  0.00000000000E+00 0.  1.
          3    1    3    3  501    0 -0.41579217527E+02  0.24570296748E+03 -0.35855372732E+02  0.25176256138E+03  0.00000000000E+00 0.  1.
         21    1    1    2  502  501  0.14870277164E+01 -0.35246985770E+02  0.11509409141E+01  0.35297109263E+02  0.00000000000E+00 0.  1.
<scales pt_clust_4="550.00000" pt_clust_5="550.00000" pt_clust_6="35.27834"></scales>
<mgrwt>
<rscale>  0 0.30000000E+03</rscale>
<asrwt>  1 0.35278340E+02</asrwt>
<pdfrwt beam="1">  1        1 0.82447096E+00 0.30000000E+03</pdfrwt>
<pdfrwt beam="2">0</pdfrwt>
<totfact> 0.65934145E-04</totfact>
</mgrwt>
<clustering>
<clus scale="   35.278">  1  6  2 -1</clus>
<clus scale="  462.463">  4  5 -1 -1</clus>
<clus scale="  300.000">  1  4  2 -1</clus>
</clustering>
</event>
<event>
 6    1  0.1029244E-011  0.3000000E+03  0.7818608E-02  0.1093470E+00
          1   -1    0    0  502    0  0.00000000000E+00  0.00000000000E+00  0.24512460046E+03  0.24512460046E+03  0.00000000000E+00 0.  1.
         13   -1    0    0    0    0 -0.00000000000E+00 -0.00000000000E+00 -0.27500000000E+03  0.27500000000E+03  0.00000000000E+00 0.  1.
    9000005    2    1    2  501    0 -0.31478600526E+02 -0.39182345798E+01 -0.37759516058E+02  0.48743799546E+03  0.48493686549E+03 0.  0.
         13    1    3    3    0    0 -0.38162236187E+02 -0.55876468429E+01 -0.26112915781E+03  0.26396214715E+03  0.00000000000E+00 0.  1.
          3    1    3    3  501    0  0.66836356620E+01  0.16694122630E+01  0.22336964175E+03  0.22347584831E+03  0.00000000000E+00 0.  1.
         21    1    1    2  502  501  0.31478600526E+02  0.39182345798E+01  0.78841165230E+01  0.32686605003E+02  0.00000000000E+00 0.  1.
<scales pt_clust_4="550.00000" pt_clust_5="550.00000" pt_clust_6="31.72152"></scales>
<mgrwt>
<rscale>  0 0.30000000E+03</rscale>
<asrwt>  1 0.31721520E+02</asrwt>
<pdfrwt beam="1">  1        1 0.89136218E+00 0.30000000E+03</pdfrwt>
<pdfrwt beam="2">0</pdfrwt>
<totfact> 0.14177642E-04</totfact>
</mgrwt>
<clustering>
<clus scale="   31.722">  1  6  2 -1</clus>
<clus scale="  484.937">  4  5 -1 -1</clus>
<clus scale="  300.000">  1  4  2 -1</clus>
</clustering>
</event>
<event>
 6    1  0.1029244E-011  0.3000000E+03  0.7818608E-02  0.1093470E+00
          1   -1    0    0  502    0  0.00000000000E+00  0.00000000000E+00  0.23821160223E+03  0.23821160223E+03  0.00000000000E+00 0.  1.
         13   -1    0    0    0    0 -0.00000000000E+00 -0.00000000000E+00 -0.27500000000E+03  0.27500000000E+03  0.00000000000E+00 0.  1.
    9000005    2    1    2  501    0 -0.47214260273E+02  0.93448494137E+01 -0.41053124609E+02  0.46489286385E+03  0.46056867375E+03 0.  0.
         13    1    3    3    0    0  0.13592516306E+02  0.20442778793E+03  0.88251309875E+02  0.22307794753E+03  0.00000000000E+00 0.  1.
          1    1    3    3  501    0 -0.60806776579E+02 -0.19508293852E+03 -0.12930443448E+03  0.24181491632E+03  0.00000000000E+00 0.  1.
         21    1    1    2  502  501  0.47214260273E+02 -0.93448494137E+01  0.42647268421E+01  0.48318738381E+02  0.00000000000E+00 0.  1.
<scales pt_clust_4="550.00000" pt_clust_5="550.00000" pt_clust_6="48.13016"></scales>
<mgrwt>
<rscale>  0 0.30000000E+03</rscale>
<asrwt>  1 0.48130163E+02</asrwt>
<pdfrwt beam="1">  1        1 0.86622401E+00 0.30000000E+03</pdfrwt>
<pdfrwt beam="2">0</pdfrwt>
<totfact> 0.26161967E-04</totfact>
</mgrwt>
<clustering>
<clus scale="   48.130">  1  6  2 -1</clus>
<clus scale="  460.569">  4  5 -1 -1</clus>
<clus scale="  300.000">  1  4  2 -1</clus>
</clustering>
</event>
<event>
 6    1  0.1029244E-011  0.3000000E+03  0.7818608E-02  0.1093470E+00
          1   -1    0    0  502    0  0.00000000000E+00  0.00000000000E+00  0.23740591590E+03  0.23740591590E+03  0.00000000000E+00 0.  1.
         13   -1    0    0    0    0 -0.00000000000E+00 -0.00000000000E+00 -0.27500000000E+03  0.27500000000E+03  0.00000000000E+00 0.  1.
    9000005    2    1    2  501    0 -0.21703340611E+02 -0.24533185655E+02 -0.68701178327E+02  0.46723331908E+03  0.46099263591E+03 0.  0.
         13    1    3    3    0    0  0.19088927871E+03  0.93310598585E+02  0.71760858336E+01  0.21259605062E+03  0.00000000000E+00 0.  1.
          1    1    3    3  501    0 -0.21259261932E+03 -0.11784378424E+03 -0.75877264161E+02  0.25463726846E+03  0.00000000000E+00 0.  1.
         21    1    1    2  502  501  0.21703340611E+02  0.24533185655E+02  0.31107094232E+02  0.45172596822E+02  0.00000000000E+00 0. -1.
<scales pt_clust_4="550.00000" pt_clust_5="550.00000" pt_clust_6="32.75534"></scales>
<mgrwt>
<rscale>  0 0.30000000E+03</rscale>
<asrwt>  1 0.32755338E+02</asrwt>
<pdfrwt beam="1">  1        1 0.86329424E+00 0.30000000E+03</pdfrwt>
<pdfrwt beam="2">0</pdfrwt>
<totfact> 0.30182321E-04</totfact>
</mgrwt>
<clustering>
<clus scale="   32.755">  1  6  2 -1</clus>
<clus scale="  460.993">  4  5 -1 -1</clus>
<clus scale="  300.000">  1  4  2 -1</clus>
</clustering>
</event>
<event>
 6    1  0.1029244E-011  0.3000000E+03  0.7818608E-02  0.1093470E+00
          1   -1    0    0  502    0  0.00000000000E+00  0.00000000000E+00  0.23380963133E+03  0.23380963133E+03  0.00000000000E+00 0.  1.
         13   -1    0    0    0    0 -0.00000000000E+00 -0.00000000000E+00 -0.27500000000E+03  0.27500000000E+03  0.00000000000E+00 0.  1.
    9000005    2    1    2  501    0  0.33679089283E+02  0.19390758556E+02 -0.58851731250E+02  0.46612232291E+03  0.46075612971E+03 0.  0.
         13    1    3    3    0    0  0.37904678823E+02  0.67738696073E+02  0.19384413817E+03  0.20880815483E+03  0.00000000000E+00 0.  1.
          3    1    3    3  501    0 -0.42255895400E+01 -0.48347937517E+02 -0.25269586942E+03  0.25731416807E+03  0.00000000000E+00 0.  1.
         21    1    1    2  502  501 -0.33679089283E+02 -0.19390758556E+02  0.17661362582E+02  0.42687308425E+02  0.00000000000E+00 0.  1.
<scales pt_clust_4="550.00000" pt_clust_5="550.00000" pt_clust_6="38.86235"></scales>
<mgrwt>
<rscale>  0 0.30000000E+03</rscale>
<asrwt>  1 0.38862354E+02</asrwt>
<pdfrwt beam="1">  1        1 0.85021684E+00 0.30000000E+03</pdfrwt>
<pdfrwt beam="2">0</pdfrwt>
<totfact> 0.39730216E-04</totfact>
</mgrwt>
<clustering>
<clus scale="   38.862">  1  6  2 -1</clus>
<clus scale="  460.756">  4  5 -1 -1</clus>
<clus scale="  300.000">  1  4  2 -1</clus>
</clustering>
</event>
<event>
 6    1  0.1029244E-011  0.3000000E+03  0.7818608E-02  0.1093470E+00
          1   -1    0    0  502    0  0.00000000000E+00  0.00000000000E+00  0.24022110583E+03  0.24022110583E+03  0.00000000000E+00 0.  1.
         13   -1    0    0    0    0 -0.00000000000E+00 -0.00000000000E+00 -0.27500000000E+03  0.27500000000E+03  0.00000000000E+00 0.  1.
    9000005    2    1    2  501    0  0.10451933265E+01  0.31886701181E+02 -0.28599526614E+02  0.48272435639E+03  0.48081911067E+03 0.  0.
         13    1    3    3    0    0  0.22742957308E+03  0.13508802909E+02 -0.93857875085E+02  0.24640616710E+03  0.00000000000E+00 0.  1.
          1    1    3    3  501    0 -0.22638437976E+03  0.18377898272E+02  0.65258348471E+02  0.23631818929E+03  0.00000000000E+00 0.  1.
         21    1    1    2  502  501 -0.10451933265E+01 -0.31886701181E+02 -0.61793675524E+01  0.32496749447E+02  0.00000000000E+00 0.  1.
<scales pt_clust_4="550.00000" pt_clust_5="550.00000" pt_clust_6="31.90384"></scales>
<mgrwt>
<rscale>  0 0.30000000E+03</rscale>
<asrwt>  1 0.31903842E+02</asrwt>
<pdfrwt beam="1">  1        1 0.87353129E+00 0.30000000E+03</pdfrwt>
<pdfrwt beam="2">0</pdfrwt>
<totfact> 0.23712781E-04</totfact>
</mgrwt>
<clustering>
<clus scale="   31.904">  1  6  2 -1</clus>
<clus scale="  480.819">  4  5 -1 -1</clus>
<clus scale="  300.000">  1  4  2 -1</clus>
</clustering>
</event>
<event>
 6    1  0.1029244E-011  0.3000000E+03  0.7818608E-02  0.1093470E+00
          1   -1    0    0  502    0  0.00000000000E+00  0.00000000000E+00  0.23841900584E+03  0.23841900584E+03  0.00000000000E+00 0.  1.
         13   -1    0    0    0    0 -0.00000000000E+00 -0.00000000000E+00 -0.27500000000E+03  0.27500000000E+03  0.00000000000E+00 0.  1.
    9000005    2    1    2  501    0  0.16880265785E+02 -0.25900329430E+02 -0.45664268878E+02  0.48119671050E+03  0.47802644101E+03 0.  0.
         13    1    3    3    0    0 -0.10979915758E+03  0.12515627833E+03 -0.17802006782E+03  0.24374390979E+03  0.00000000000E+00 0.  1.
          3    1    3    3  501    0  0.12667942337E+03 -0.15105660776E+03  0.13235579894E+03  0.23745280071E+03  0.00000000000E+00 0.  1.
         21    1    1    2  502  501 -0.16880265785E+02  0.25900329430E+02  0.90832747150E+01  0.32222295342E+02  0.00000000000E+00 0.  1.
<scales pt_clust_4="550.00000" pt_clust_5="550.00000" pt_clust_6="30.91554"></scales>
<mgrwt>
<rscale>  0 0.30000000E+03</rscale>
<asrwt>  1 0.30915537E+02</asrwt>
<pdfrwt beam="1">  1        1 0.86697820E+00 0.30000000E+03</pdfrwt>
<pdfrwt beam="2">0</pdfrwt>
<totfact> 0.27862667E-04</totfact>
</mgrwt>
<clustering>
<clus scale="   30.916">  1  6  2 -1</clus>
<clus scale="  478.026">  4  5 -1 -1</clus>
<clus scale="  300.000">  1  4  2 -1</clus>
</clustering>
</event>
<event>
 6    1  0.1029244E-011  0.3000000E+03  0.7818608E-02  0.1093470E+00
          1   -1    0    0  502    0  0.00000000000E+00  0.00000000000E+00  0.24362075064E+03  0.24362075064E+03  0.00000000000E+00 0.  1.
         13   -1    0    0    0    0 -0.00000000000E+00 -0.00000000000E+00 -0.27500000000E+03  0.27500000000E+03  0.00000000000E+00 0.  1.
    9000005    2    1    2  501    0 -0.45906878520E+02 -0.57596731290E+01 -0.62383661538E+02  0.46292614673E+03  0.45636419751E+03 0.  0.
         13    1    3    3    0    0 -0.17635343426E+03 -0.10167850649E+03 -0.17273949852E+03  0.26697937525E+03  0.00000000000E+00 0.  1.
          3    1    3    3  501    0  0.13044655574E+03  0.95918833357E+02  0.11035583699E+03  0.19594677148E+03  0.00000000000E+00 0.  1.
         21    1    1    2  502  501  0.45906878520E+02  0.57596731290E+01  0.31004412180E+02  0.55694603910E+02  0.00000000000E+00 0. -1.
<scales pt_clust_4="550.00000" pt_clust_5="550.00000" pt_clust_6="46.26678"></scales>
<mgrwt>
<rscale>  0 0.30000000E+03</rscale>
<asrwt>  1 0.46266784E+02</asrwt>
<pdfrwt beam="1">  1        1 0.88589364E+00 0.30000000E+03</pdfrwt>
<pdfrwt beam="2">0</pdfrwt>
<totfact> 0.15678954E-04</totfact>
</mgrwt>
<clustering>
<clus scale="   46.267">  1  6  2 -1</clus>
<clus scale="  456.364">  4  5 -1 -1</clus>
<clus scale="  300.000">  1  4  2 -1</clus>
</clustering>
</event>
<event>
 6    1  0.1029244E-011  0.3000000E+03  0.7818608E-02  0.1093470E+00
          1   -1    0    0  502    0  0.00000000000E+00  0.00000000000E+00  0.24233673033E+03  0.24233673033E+03  0.00000000000E+00 0.  1.
         13   -1    0    0    0    0 -0.00000000000E+00 -0.00000000000E+00 -0.27500000000E+03  0.27500000000E+03  0.00000000000E+00 0.  1.
    9000005    2    1    2  501    0  0.40121957453E+02  0.69952924904E+01 -0.38196151262E+02  0.47623541203E+03  0.47295086015E+03 0.  0.
         13    1    3    3    0    0  0.62417977796E+02  0.23501581643E+03 -0.43711765186E+02  0.24706103768E+03  0.00000000000E+00 0.  1.
          3    1    3    3  501    0 -0.22296020343E+02 -0.22802052394E+03  0.55156139233E+01  0.22917437435E+03  0.00000000000E+00 0.  1.
         21    1    1    2  502  501 -0.40121957453E+02 -0.69952924904E+01  0.55328815880E+01  0.41101318295E+02  0.00000000000E+00 0.  1.
<scales pt_clust_4="550.00000" pt_clust_5="550.00000" pt_clust_6="40.72721"></scales>
<mgrwt>
<rscale>  0 0.30000000E+03</rscale>
<asrwt>  1 0.40727209E+02</asrwt>
<pdfrwt beam="1">  1        1 0.88122447E+00 0.30000000E+03</pdfrwt>
<pdfrwt beam="2">0</pdfrwt>
<totfact> 0.18526201E-04</totfact>
</mgrwt>
<clustering>
<clus scale="   40.727">  1  6  2 -1</clus>
<clus scale="  472.951">  4  5 -1 -1</clus>
<clus scale="  300.000">  1  4  2 -1</clus>
</clustering>
</event>
<event>
 6    1  0.1029244E-011  0.3000000E+03  0.7818608E-02  0.1093470E+00
          1   -1    0    0  502    0  0.00000000000E+00  0.00000000000E+00  0.23852240672E+03  0.23852240672E+03  0.00000000000E+00 0.  1.
         13   -1    0    0    0    0 -0.00000000000E+00 -0.00000000000E+00 -0.27500000000E+03  0.27500000000E+03  0.00000000000E+00 0.  1.
    9000005    2    1    2  501    0 -0.14984461243E+02  0.29516919225E+02 -0.41088037401E+02  0.48010027641E+03  0.47719206405E+03 0.  0.
         13    1    3    3    0    0  0.75061580581E+01  0.22109497522E+03  0.98336313229E+02  0.24209370288E+03  0.00000000000E+00 0.  1.
          3    1    3    3  501    0 -0.22490619302E+02 -0.19157805599E+03 -0.13942435063E+03  0.23800657353E+03  0.00000000000E+00 0.  1.
         21    1    1    2  502  501  0.14984461243E+02 -0.29516919225E+02  0.46104441197E+01  0.33422130307E+02  0.00000000000E+00 0.  1.
<scales pt_clust_4="550.00000" pt_clust_5="550.00000" pt_clust_6="33.10261"></scales>
<mgrwt>
<rscale>  0 0.30000000E+03</rscale>
<asrwt>  1 0.33102607E+02</asrwt>
<pdfrwt beam="1">  1        1 0.86735421E+00 0.30000000E+03</pdfrwt>
<pdfrwt beam="2">0</pdfrwt>
<totfact> 0.27253925E-04</totfact>
</mgrwt>
<clustering>
<clus scale="   33.103">  1  6  2 -1</clus>
<clus scale="  477.192">  4  5 -1 -1</clus>
<clus scale="  300.000">  1  4  2 -1</clus>
</clustering>
</event>
<event>
 6    1  0.1029244E-011  0.3000000E+03  0.7818608E-02  0.1093470E+00
          1   -1    0    0  502    0  0.00000000000E+00  0.00000000000E+00  0.23388290213E+03  0.23388290213E+03  0.00000000000E+00 0.  1.
         13   -1    0    0    0    0 -0.00000000000E+00 -0.00000000000E+00 -0.27500000000E+03  0.27500000000E+03  0.00000000000E+00 0.  1.
    9000005    2    1    2  501    0 -0.37563965429E+02 -0.23408771978E+02 -0.49665084017E+02  0.46380419129E+03  0.45900837158E+03 0.  0.
         13    1    3    3    0    0 -0.21680879701E+03  0.10439257875E+03 -0.35145477659E+02  0.24318525769E+03  0.00000000000E+00 0.  1.
          1    1    3    3  501    0  0.17924483158E+03 -0.12780135072E+03 -0.14519606358E+02  0.22061893360E+03  0.00000000000E+00 0.  1.
         21    1    1    2  502  501  0.37563965429E+02  0.23408771978E+02  0.85479861480E+01  0.45078710845E+02  0.00000000000E+00 0. -1.
<scales pt_clust_4="550.00000" pt_clust_5="550.00000" pt_clust_6="44.26084"></scales>
<mgrwt>
<rscale>  0 0.30000000E+03</rscale>
<asrwt>  1 0.44260842E+02</asrwt>
<pdfrwt beam="1">  1        1 0.85048328E+00 0.30000000E+03</pdfrwt>
<pdfrwt beam="2">0</pdfrwt>
<totfact> 0.38580804E-04</totfact>
</mgrwt>
<clustering>
<clus scale="   44.261">  1  6  2 -1</clus>
<clus scale="  459.008">  4  5 -1 -1</clus>
<clus scale="  300.000">  1  4  2 -1</clus>
</clustering>
</event>
<event>
 6    1  0.1029244E-011  0.3000000E+03  0.7818608E-02  0.1093470E+00
          1   -1    0    0  502    0  0.00000000000E+00  0.00000000000E+00  0.24352553765E+03  0.24352553765E+03  0.00000000000E+00 0.  1.
         13   -1    0    0    0    0 -0.00000000000E+00 -0.00000000000E+00 -0.27500000000E+03  0.27500000000E+03  0.00000000000E+00 0.  1.
    9000005    2    1    2  501    0  0.38181668306E+02 -0.15332046879E+02 -0.49311886256E+02  0.47368041364E+03  0.46930646776E+03 0.  0.
         13    1    3    3    0    0 -0.17587499629E+03 -0.75994737764E+02  0.89475863746E+02  0.21145482893E+03  0.00000000000E+00 0.  1.
          1    1    3    3  501    0  0.21405666459E+03  0.60662690885E+02 -0.13878775000E+03  0.26222558470E+03  0.00000000000E+00 0.  1.
         21    1    1    2  502  501 -0.38181668306E+02  0.15332046879E+02  0.17837423904E+02  0.44845124012E+02  0.00000000000E+00 0. -1.
<scales pt_clust_4="550.00000" pt_clust_5="550.00000" pt_clust_6="41.14501"></scales>
<mgrwt>
<rscale>  0 0.30000000E+03</rscale>
<asrwt>  1 0.41145005E+02</asrwt>
<pdfrwt beam="1">  1        1 0.88554741E+00 0.30000000E+03</pdfrwt>
<pdfrwt beam="2">0</pdfrwt>
<totfact> 0.16189772E-04</totfact>
</mgrwt>
<clustering>
<clus scale="   41.145">  1  6  2 -1</clus>
<clus scale="  469.306">  4  5 -1 -1</clus>
<clus scale="  300.000">  1  4  2 -1</clus>
</clustering>
</event>
<event>
 6    1  0.1029244E-011  0.3000000E+03  0.7818608E-02  0.1093470E+00
          1   -1    0    0  502    0  0.00000000000E+00  0.00000000000E+00  0.24862673759E+03  0.24862673759E+03  0.00000000000E+00 0.  1.
         13   -1    0    0    0    0 -0.00000000000E+00 -0.00000000000E+00 -0.27500000000E+03  0.27500000000E+03  0.00000000000E+00 0.  1.
    9000005    2    1    2  501    0  0.15775788496E+02 -0.30913511614E+02 -0.72284802198E+02  0.46607336941E+03  0.45912391829E+03 0.  0.
         13    1    3    3    0    0 -0.63009556072E+02 -0.22292925079E+03  0.31887483679E+02  0.23384710097E+03  0.00000000000E+00 0.  1.
          1    1    3    3  501    0  0.78785344568E+02  0.19201573918E+03 -0.10417228588E+03  0.23222626844E+03  0.00000000000E+00 0.  1.
         21    1    1    2  502  501 -0.15775788496E+02  0.30913511614E+02  0.45911539788E+02  0.57553368179E+02  0.00000000000E+00 0.  1.
<scales pt_clust_4="550.00000" pt_clust_5="550.00000" pt_clust_6="34.70621"></scales>
<mgrwt>
<rscale>  0 0.30000000E+03</rscale>
<asrwt>  1 0.34706206E+02</asrwt>
<pdfrwt beam="1">  1        1 0.90409723E+00 0.30000000E+03</pdfrwt>
<pdfrwt beam="2">0</pdfrwt>
<totfact> 0.96195856E-05</totfact>
</mgrwt>
<clustering>
<clus scale="   34.706">  1  6  2 -1</clus>
<clus scale="  459.124">  4  5 -1 -1</clus>
<clus scale="  300.000">  1  4  2 -1</clus>
</clustering>
</event>
<event>
 6    1  0.1029244E-011  0.3000000E+03  0.7818608E-02  0.1093470E+00
          1   -1    0    0  502    0  0.00000000000E+00  0.00000000000E+00  0.23273023334E+03  0.23273023334E+03  0.00000000000E+00 0.  1.
         13   -1    0    0    0    0 -0.00000000000E+00 -0.00000000000E+00 -0.27500000000E+03  0.27500000000E+03  0.00000000000E+00 0.  1.
    9000005    2    1    2  501    0  0.63277440961E+01 -0.32726514314E+02 -0.65890762150E+02  0.46687663481E+03  0.46100014589E+03 0.  0.
         13    1    3    3    0    0  0.15181722162E+03 -0.95131671924E+02 -0.19337831694E+03  0.26361653447E+03  0.00000000000E+00 0.  1.
          3    1    3    3  501    0 -0.14548947752E+03  0.62405157610E+02  0.12748755479E+03  0.20326010034E+03  0.00000000000E+00 0.  1.
         21    1    1    2  502  501 -0.63277440961E+01  0.32726514314E+02  0.23620995487E+02  0.40853598523E+02  0.00000000000E+00 0.  1.
<scales pt_clust_4="550.00000" pt_clust_5="550.00000" pt_clust_6="33.33264"></scales>
<mgrwt>
<rscale>  0 0.30000000E+03</rscale>
<asrwt>  1 0.33332643E+02</asrwt>
<pdfrwt beam="1">  1        1 0.84629176E+00 0.30000000E+03</pdfrwt>
<pdfrwt beam="2">0</pdfrwt>
<totfact> 0.44416414E-04</totfact>
</mgrwt>
<clustering>
<clus scale="   33.333">  1  6  2 -1</clus>
<clus scale="  461.000">  4  5 -1 -1</clus>
<clus scale="  300.000">  1  4  2 -1</clus>
</clustering>
</event>
<event>
 6    1  0.1029244E-011  0.3000000E+03  0.7818608E-02  0.1093470E+00
          1   -1    0    0  502    0  0.00000000000E+00  0.00000000000E+00  0.23550256466E+03  0.23550256466E+03  0.00000000000E+00 0.  1.
         13   -1    0    0    0    0 -0.00000000000E+00 -0.00000000000E+00 -0.27500000000E+03  0.27500000000E+03  0.00000000000E+00 0.  1.
    9000005    2    1    2  501    0 -0.11735128282E+02  0.29101199787E+02 -0.52345600658E+02  0.47659580402E+03  0.47267209082E+03 0.  0.
         13    1    3    3    0    0  0.43420869230E+02 -0.11761332216E+03 -0.21615233402E+03  0.24988016515E+03  0.00000000000E+00 0.  1.
          3    1    3    3  501    0 -0.55155997512E+02  0.14671452195E+03  0.16380673336E+03  0.22671563887E+03  0.00000000000E+00 0.  1.
         21    1    1    2  502  501  0.11735128282E+02 -0.29101199787E+02  0.12848165315E+02  0.33906760636E+02  0.00000000000E+00 0.  1.
<scales pt_clust_4="550.00000" pt_clust_5="550.00000" pt_clust_6="31.37823"></scales>
<mgrwt>
<rscale>  0 0.30000000E+03</rscale>
<asrwt>  1 0.31378226E+02</asrwt>
<pdfrwt beam="1">  1        1 0.85637296E+00 0.30000000E+03</pdfrwt>
<pdfrwt beam="2">0</pdfrwt>
<totfact> 0.36030698E-04</totfact>
</mgrwt>
<clustering>
<clus scale="   31.378">  1  6  2 -1</clus>
<clus scale="  472.672">  4  5 -1 -1</clus>
<clus scale="  300.000">  1  4  2 -1</clus>
</clustering>
</event>
<event>
 6    1  0.1029244E-011  0.3000000E+03  0.7818608E-02  0.1093470E+00
          1   -1    0    0  502    0  0.00000000000E+00  0.00000000000E+00  0.23514422355E+03  0.23514422355E+03  0.00000000000E+00 0.  1.
         13   -1    0    0    0    0 -0.00000000000E+00 -0.00000000000E+00 -0.27500000000E+03  0.27500000000E+03  0.00000000000E+00 0.  1.
    9000005    2    1    2  501    0  0.17923490673E+02 -0.43889988539E+02 -0.38021938702E+02  0.46270009249E+03  0.45869175396E+03 0.  0.
         13    1    3    3    0    0 -0.11413784659E+03 -0.72275880917E+02 -0.20649524955E+03  0.24676211029E+03  0.00000000000E+00 0.  1.
          3    1    3    3  501    0  0.13206133726E+03  0.28385892378E+02  0.16847331085E+03  0.21593798220E+03  0.00000000000E+00 0.  1.
         21    1    1    2  502  501 -0.17923490673E+02  0.43889988539E+02 -0.18338377450E+01  0.47444131067E+02  0.00000000000E+00 0. -1.
<scales pt_clust_4="550.00000" pt_clust_5="550.00000" pt_clust_6="47.40868"></scales>
<mgrwt>
<rscale>  0 0.30000000E+03</rscale>
<asrwt>  1 0.47408677E+02</asrwt>
<pdfrwt beam="1">  1        1 0.85506990E+00 0.30000000E+03</pdfrwt>
<pdfrwt beam="2">0</pdfrwt>
<totfact> 0.34421688E-04</totfact>
</mgrwt>
<clustering>
<clus scale="   47.409">  1  6  2 -1</clus>
<clus scale="  458.692">  4  5 -1 -1</clus>
<clus scale="  300.000">  1  4  2 -1</clus>
</clustering>
</event>
<event>
 6    1  0.1029244E-011  0.3000000E+03  0.7818608E-02  0.1093470E+00
          1   -1    0    0  502    0  0.00000000000E+00  0.00000000000E+00  0.25014866999E+03  0.25014866999E+03  0.00000000000E+00 0.  1.
         13   -1    0    0    0    0 -0.00000000000E+00 -0.00000000000E+00 -0.27500000000E+03  0.27500000000E+03  0.00000000000E+00 0.  1.
    9000005    2    1    2  501    0 -0.34455502806E+02  0.88639810797E+01 -0.33995893866E+02  0.48841483161E+03  0.48592959891E+03 0.  0.
         13    1    3    3    0    0  0.19835078393E+03 -0.29297039519E+02  0.92406598026E+02  0.22077212090E+03  0.00000000000E+00 0.  1.
          3    1    3    3  501    0 -0.23280628673E+03  0.38161020598E+02 -0.12640249189E+03  0.26764271070E+03  0.00000000000E+00 0.  1.
         21    1    1    2  502  501  0.34455502806E+02 -0.88639810797E+01  0.91445638541E+01  0.36733838382E+02  0.00000000000E+00 0. -1.
<scales pt_clust_4="550.00000" pt_clust_5="550.00000" pt_clust_6="35.57741"></scales>
<mgrwt>
<rscale>  0 0.30000000E+03</rscale>
<asrwt>  1 0.35577406E+02</asrwt>
<pdfrwt beam="1">  1        1 0.90963153E+00 0.30000000E+03</pdfrwt>
<pdfrwt beam="2">0</pdfrwt>
<totfact> 0.73124251E-05</totfact>
</mgrwt>
<clustering>
<clus scale="   35.577">  1  6  2 -1</clus>
<clus scale="  485.930">  4  5 -1 -1</clus>
<clus scale="  300.000">  1  4  2 -1</clus>
</clustering>
</event>
<event>
 6    1  0.1029244E-011  0.3000000E+03  0.7818608E-02  0.1093470E+00
          1   -1    0    0  502    0  0.00000000000E+00  0.00000000000E+00  0.23564455726E+03  0.23564455726E+03  0.00000000000E+00 0.  1.
         13   -1    0    0    0    0 -0.00000000000E+00 -0.00000000000E+00 -0.27500000000E+03  0.27500000000E+03  0.00000000000E+00 0.  1.
    9000005    2    1    2  501    0  0.31640366732E+02  0.19043019817E+01 -0.71839713534E+02  0.46525769768E+03  0.45858373460E+03 0.  0.
         13    1    3    3    0    0 -0.75309086539E+02 -0.20890697359E+03 -0.51751253073E+02  0.22801704832E+03  0.00000000000E+00 0.  1.
          1    1    3    3  501    0  0.10694945327E+03  0.21081127558E+03 -0.20088460461E+02  0.23724064936E+03  0.00000000000E+00 0.  1.
         21    1    1    2  502  501 -0.31640366732E+02 -0.19043019817E+01  0.32484270789E+02  0.45386859571E+02  0.00000000000E+00 0. -1.
<scales pt_clust_4="550.00000" pt_clust_5="550.00000" pt_clust_6="31.69762"></scales>
<mgrwt>
<rscale>  0 0.30000000E+03</rscale>
<asrwt>  1 0.31697621E+02</asrwt>
<pdfrwt beam="1">  1        1 0.85688930E+00 0.30000000E+03</pdfrwt>
<pdfrwt beam="2">0</pdfrwt>
<totfact> 0.35526993E-04</totfact>
</mgrwt>
<clustering>
<clus scale="   31.698">  1  6  2 -1</clus>
<clus scale="  458.584">  4  5 -1 -1</clus>
<clus scale="  300.000">  1  4  2 -1</clus>
</clustering>
</event>
<event>
 6    1  0.1029244E-011  0.3000000E+03  0.7818608E-02  0.1093470E+00
          1   -1    0    0  502    0  0.00000000000E+00  0.00000000000E+00  0.22887338960E+03  0.22887338960E+03  0.00000000000E+00 0.  1.
         13   -1    0    0    0    0 -0.00000000000E+00 -0.00000000000E+00 -0.27500000000E+03  0.27500000000E+03  0.00000000000E+00 0.  1.
    9000005    2    1    2  501    0  0.24290998863E+02  0.31014123635E+02 -0.60356490939E+02  0.46198761647E+03  0.45633071700E+03 0.  0.
         13    1    3    3    0    0  0.14595658214E+03  0.13188706042E+03  0.11343596103E+03  0.22707980499E+03  0.00000000000E+00 0.  1.
          1    1    3    3  501    0 -0.12166558328E+03 -0.10087293679E+03 -0.17379245197E+03  0.23490781148E+03  0.00000000000E+00 0.  1.
         21    1    1    2  502  501 -0.24290998863E+02 -0.31014123635E+02  0.14229880535E+02  0.41885773130E+02  0.00000000000E+00 0. -1.
<scales pt_clust_4="550.00000" pt_clust_5="550.00000" pt_clust_6="39.39452"></scales>
<mgrwt>
<rscale>  0 0.30000000E+03</rscale>
<asrwt>  1 0.39394524E+02</asrwt>
<pdfrwt beam="1">  1        1 0.83226687E+00 0.30000000E+03</pdfrwt>
<pdfrwt beam="2">0</pdfrwt>
<totfact> 0.55471960E-04</totfact>
</mgrwt>
<clustering>
<clus scale="   39.395">  1  6  2 -1</clus>
<clus scale="  456.331">  4  5 -1 -1</clus>
<clus scale="  300.000">  1  4  2 -1</clus>
</clustering>
</event>
<event>
 6    1  0.1029244E-011  0.3000000E+03  0.7818608E-02  0.1093470E+00
          1   -1    0    0  502    0  0.00000000000E+00  0.00000000000E+00  0.22732873145E+03  0.22732873145E+03  0.00000000000E+00 0.  1.
         13   -1    0    0    0    0 -0.00000000000E+00 -0.00000000000E+00 -0.27500000000E+03  0.27500000000E+03  0.00000000000E+00 0.  1.
    9000005    2    1    2  501    0  0.27298284623E+02  0.28727115434E+02 -0.45254066164E+02  0.46262625833E+03  0.45869890003E+03 0.  0.
         13    1    3    3    0    0  0.11140236145E+03 -0.76757744503E+02  0.16465346721E+03  0.21310326544E+03  0.00000000000E+00 0.  1.
          1    1    3    3  501    0 -0.84104076827E+02  0.10548485994E+03 -0.20990753337E+03  0.24952299289E+03  0.00000000000E+00 0.  1.
         21    1    1    2  502  501 -0.27298284623E+02 -0.28727115434E+02 -0.24172023877E+01  0.39702473121E+02  0.00000000000E+00 0. -1.
<scales pt_clust_4="550.00000" pt_clust_5="550.00000" pt_clust_6="39.62882"></scales>
<mgrwt>
<rscale>  0 0.30000000E+03</rscale>
<asrwt>  1 0.39628822E+02</asrwt>
<pdfrwt beam="1">  1        1 0.82664993E+00 0.30000000E+03</pdfrwt>
<pdfrwt beam="2">0</pdfrwt>
<totfact> 0.61715299E-04</totfact>
</mgrwt>
<clustering>
<clus scale="   39.629">  1  6  2 -1</clus>
<clus scale="  458.699">  4  5 -1 -1</clus>
<clus scale="  300.000">  1  4  2 -1</clus>
</clustering>
</event>
<event>
 6    1  0.1029244E-011  0.3000000E+03  0.7818608E-02  0.1093470E+00
          1   -1    0    0  502    0  0.00000000000E+00  0.00000000000E+00  0.23329031447E+03  0.23329031447E+03  0.00000000000E+00 0.  1.
         13   -1    0    0    0    0 -0.00000000000E+00 -0.00000000000E+00 -0.27500000000E+03  0.27500000000E+03  0.00000000000E+00 0.  1.
    9000005    2    1    2  501    0  0.10277355429E+02  0.34744496159E+02 -0.57852056851E+02  0.46862445762E+03  0.46362616163E+03 0.  0.
         13    1    3    3    0    0  0.80754008765E+02 -0.20182807943E+03 -0.13312337896E+02  0.21779118880E+03  0.00000000000E+00 0.  1.
          3    1    3    3  501    0 -0.70476653336E+02  0.23657257559E+03 -0.44539718955E+02  0.25083326882E+03  0.00000000000E+00 0.  1.
         21    1    1    2  502  501 -0.10277355429E+02 -0.34744496159E+02  0.16142371325E+02  0.39665856854E+02  0.00000000000E+00 0.  1.
<scales pt_clust_4="550.00000" pt_clust_5="550.00000" pt_clust_6="36.23264"></scales>
<mgrwt>
<rscale>  0 0.30000000E+03</rscale>
<asrwt>  1 0.36232638E+02</asrwt>
<pdfrwt beam="1">  1        1 0.84832842E+00 0.30000000E+03</pdfrwt>
<pdfrwt beam="2">0</pdfrwt>
<totfact> 0.41908819E-04</totfact>
</mgrwt>
<clustering>
<clus scale="   36.233">  1  6  2 -1</clus>
<clus scale="  463.626">  4  5 -1 -1</clus>
<clus scale="  300.000">  1  4  2 -1</clus>
</clustering>
</event>
<event>
 6    1  0.1029244E-011  0.3000000E+03  0.7818608E-02  0.1093470E+00
          1   -1    0    0  502    0  0.00000000000E+00  0.00000000000E+00  0.24315433888E+03  0.24315433888E+03  0.00000000000E+00 0.  1.
         13   -1    0    0    0    0 -0.00000000000E+00 -0.00000000000E+00 -0.27500000000E+03  0.27500000000E+03  0.00000000000E+00 0.  1.
    9000005    2    1    2  501    0 -0.75471520539E+01  0.45173864766E+02 -0.32167112792E+02  0.47235323744E+03  0.46902582041E+03 0.  0.
         13    1    3    3    0    0 -0.11275570053E+03 -0.15306048709E+02 -0.22060350246E+03  0.24822173238E+03  0.00000000000E+00 0.  1.
          3    1    3    3  501    0  0.10520854848E+03  0.60479913475E+02  0.18843638967E+03  0.22413150506E+03  0.00000000000E+00 0.  1.
         21    1    1    2  502  501  0.75471520539E+01 -0.45173864766E+02  0.32145167240E+00  0.45801101441E+02  0.00000000000E+00 0. -1.
<scales pt_clust_4="550.00000" pt_clust_5="550.00000" pt_clust_6="45.79997"></scales>
<mgrwt>
<rscale>  0 0.30000000E+03</rscale>
<asrwt>  1 0.45799973E+02</asrwt>
<pdfrwt beam="1">  1        1 0.88419760E+00 0.30000000E+03</pdfrwt>
<pdfrwt beam="2">0</pdfrwt>
<totfact> 0.16570324E-04</totfact>
</mgrwt>
<clustering>
<clus scale="   45.800">  1  6  2 -1</clus>
<clus scale="  469.026">  4  5 -1 -1</clus>
<clus scale="  300.000">  1  4  2 -1</clus>
</clustering>
</event>
<event>
 6    1  0.1029244E-011  0.3000000E+03  0.7818608E-02  0.1093470E+00
          1   -1    0    0  502    0  0.00000000000E+00  0.00000000000E+00  0.22559893073E+03  0.22559893073E+03  0.00000000000E+00 0.  1.
         13   -1    0    0    0    0 -0.00000000000E+00 -0.00000000000E+00 -0.27500000000E+03  0.27500000000E+03  0.00000000000E+00 0.  1.
    9000005    2    1    2  501    0 -0.40185611717E+02  0.19083737282E+01 -0.43316175303E+02  0.45991046537E+03  0.45609518725E+03 0.  0.
         13    1    3    3    0    0 -0.22584952011E+03  0.60405527463E+02 -0.10418882414E+03  0.25595340309E+03  0.00000000000E+00 0.  1.
          1    1    3    3  501    0  0.18566390839E+03 -0.58497153735E+02  0.60872648832E+02  0.20395706227E+03  0.00000000000E+00 0.  1.
         21    1    1    2  502  501  0.40185611717E+02 -0.19083737282E+01 -0.60848939648E+01  0.40688465367E+02  0.00000000000E+00 0.  1.
<scales pt_clust_4="550.00000" pt_clust_5="550.00000" pt_clust_6="40.23092"></scales>
<mgrwt>
<rscale>  0 0.30000000E+03</rscale>
<asrwt>  1 0.40230920E+02</asrwt>
<pdfrwt beam="1">  1        1 0.82035975E+00 0.30000000E+03</pdfrwt>
<pdfrwt beam="2">0</pdfrwt>
<totfact> 0.69987387E-04</totfact>
</mgrwt>
<clustering>
<clus scale="   40.231">  1  6  2 -1</clus>
<clus scale="  456.095">  4  5 -1 -1</clus>
<clus scale="  300.000">  1  4  2 -1</clus>
</clustering>
</event>
<event>
 6    1  0.1029244E-011  0.3000000E+03  0.7818608E-02  0.1093470E+00
          1   -1    0    0  502    0  0.00000000000E+00  0.00000000000E+00  0.23722882209E+03  0.23722882209E+03  0.00000000000E+00 0.  1.
         13   -1    0    0    0    0 -0.00000000000E+00 -0.00000000000E+00 -0.27500000000E+03  0.27500000000E+03  0.00000000000E+00 0.  1.
    9000005    2    1    2  501    0  0.11064981673E+01  0.44851081381E+02 -0.17238357333E+02  0.46288877183E+03  0.46038680507E+03 0.  0.
         13    1    3    3    0    0  0.20608387808E+03 -0.81099264523E+02 -0.19221294708E+02  0.22229960342E+03  0.00000000000E+00 0.  1.
          3    1    3    3  501    0 -0.20497737992E+03  0.12595034590E+03  0.19829373759E+01  0.24058916840E+03  0.00000000000E+00 0.  1.
         21    1    1    2  502  501 -0.11064981673E+01 -0.44851081381E+02 -0.20532820577E+02  0.49340050265E+02  0.00000000000E+00 0. -1.
<scales pt_clust_4="550.00000" pt_clust_5="550.00000" pt_clust_6="44.86475"></scales>
<mgrwt>
<rscale>  0 0.30000000E+03</rscale>
<asrwt>  1 0.44864751E+02</asrwt>
<pdfrwt beam="1">  1        1 0.86265026E+00 0.30000000E+03</pdfrwt>
<pdfrwt beam="2">0</pdfrwt>
<totfact> 0.28946044E-04</totfact>
</mgrwt>
<clustering>
<clus scale="   44.865">  1  6  2 -1</clus>
<clus scale="  460.387">  4  5 -1 -1</clus>
<clus scale="  300.000">  1  4  2 -1</clus>
</clustering>
</event>
<event>
 6    1  0.1029244E-011  0.3000000E+03  0.7818608E-02  0.1093470E+00
          1   -1    0    0  502    0  0.00000000000E+00  0.00000000000E+00  0.23078040792E+03  0.23078040792E+03  0.00000000000E+00 0.  1.
         13   -1    0    0    0    0 -0.00000000000E+00 -0.00000000000E+00 -0.27500000000E+03  0.27500000000E+03  0.00000000000E+00 0.  1.
    9000005    2    1    2  501    0 -0.26866169194E+02  0.16852906695E+02 -0.59897197302E+02  0.47040246541E+03  0.46549435411E+03 0.  0.
         13    1    3    3    0    0 -0.21339397816E+01  0.23784386179E+03  0.77202844113E+01  0.23797869459E+03  0.00000000000E+00 0.  1.
          3    1    3    3  501    0 -0.24732229412E+02 -0.22099095509E+03 -0.67617481714E+02  0.23242377081E+03  0.00000000000E+00 0.  1.
         21    1    1    2  502  501  0.26866169194E+02 -0.16852906695E+02  0.15677605227E+02  0.35377942518E+02  0.00000000000E+00 0.  1.
<scales pt_clust_4="550.00000" pt_clust_5="550.00000" pt_clust_6="31.71453"></scales>
<mgrwt>
<rscale>  0 0.30000000E+03</rscale>
<asrwt>  1 0.31714532E+02</asrwt>
<pdfrwt beam="1">  1        1 0.83920148E+00 0.30000000E+03</pdfrwt>
<pdfrwt beam="2">0</pdfrwt>
<totfact> 0.51348959E-04</totfact>
</mgrwt>
<clustering>
<clus scale="   31.715">  1  6  2 -1</clus>
<clus scale="  465.494">  4  5 -1 -1</clus>
<clus scale="  300.000">  1  4  2 -1</clus>
</clustering>
</event>
<event>
 6    1  0.1029244E-011  0.3000000E+03  0.7818608E-02  0.1093470E+00
          1   -1    0    0  502    0  0.00000000000E+00  0.00000000000E+00  0.23502770401E+03  0.23502770401E+03  0.00000000000E+00 0.  1.
         13   -1    0    0    0    0 -0.00000000000E+00 -0.00000000000E+00 -0.27500000000E+03  0.27500000000E+03  0.00000000000E+00 0.  1.
    9000005    2    1    2  501    0  0.31694382292E+02 -0.53394371289E+01 -0.43891408408E+02  0.47764865369E+03  0.47454055378E+03 0.  0.
         13    1    3    3    0    0 -0.17103484148E+03 -0.35491878025E+02 -0.16441013590E+03  0.23988181088E+03  0.00000000000E+00 0.  1.
          1    1    3    3  501    0  0.20272922377E+03  0.30152440896E+02  0.12051872749E+03  0.23776684281E+03  0.00000000000E+00 0.  1.
         21    1    1    2  502  501 -0.31694382292E+02  0.53394371289E+01  0.39191124214E+01  0.32379050324E+02  0.00000000000E+00 0.  1.
<scales pt_clust_4="550.00000" pt_clust_5="550.00000" pt_clust_6="32.14099"></scales>
<mgrwt>
<rscale>  0 0.30000000E+03</rscale>
<asrwt>  1 0.32140993E+02</asrwt>
<pdfrwt beam="1">  1        1 0.85464620E+00 0.30000000E+03</pdfrwt>
<pdfrwt beam="2">0</pdfrwt>
<totfact> 0.37322854E-04</totfact>
</mgrwt>
<clustering>
<clus scale="   32.141">  1  6  2 -1</clus>
<clus scale="  474.541">  4  5 -1 -1</clus>
<clus scale="  300.000">  1  4  2 -1</clus>
</clustering>
</event>
<event>
 6    1  0.1029244E-011  0.3000000E+03  0.7818608E-02  0.1093470E+00
          1   -1    0    0  502    0  0.00000000000E+00  0.00000000000E+00  0.24447463376E+03  0.24447463376E+03  0.00000000000E+00 0.  1.
         13   -1    0    0    0    0 -0.00000000000E+00 -0.00000000000E+00 -0.27500000000E+03  0.27500000000E+03  0.00000000000E+00 0.  1.
    9000005    2    1    2  501    0  0.43977566847E+01  0.50557872794E+02 -0.34583483074E+02  0.46856385811E+03  0.46452194034E+03 0.  0.
         13    1    3    3    0    0 -0.19551683861E+03  0.10318422297E+03 -0.11198991069E+03  0.24782162567E+03  0.00000000000E+00 0.  1.
          1    1    3    3  501    0  0.19991459529E+03 -0.52626350181E+02  0.77406427621E+02  0.22074223244E+03  0.00000000000E+00 0.  1.
         21    1    1    2  502  501 -0.43977566847E+01 -0.50557872794E+02  0.40581168323E+01  0.50910775653E+02  0.00000000000E+00 0.  1.
<scales pt_clust_4="550.00000" pt_clust_5="550.00000" pt_clust_6="50.74878"></scales>
<mgrwt>
<rscale>  0 0.30000000E+03</rscale>
<asrwt>  1 0.50748781E+02</asrwt>
<pdfrwt beam="1">  1        1 0.88899867E+00 0.30000000E+03</pdfrwt>
<pdfrwt beam="2">0</pdfrwt>
<totfact> 0.13980573E-04</totfact>
</mgrwt>
<clustering>
<clus scale="   50.749">  1  6  2 -1</clus>
<clus scale="  464.522">  4  5 -1 -1</clus>
<clus scale="  300.000">  1  4  2 -1</clus>
</clustering>
</event>
<event>
 6    1  0.1029244E-011  0.3000000E+03  0.7818608E-02  0.1093470E+00
          1   -1    0    0  502    0  0.00000000000E+00  0.00000000000E+00  0.23200185436E+03  0.23200185436E+03  0.00000000000E+00 0.  1.
         13   -1    0    0    0    0 -0.00000000000E+00 -0.00000000000E+00 -0.27500000000E+03  0.27500000000E+03  0.00000000000E+00 0.  1.
    9000005    2    1    2  501    0  0.56519851277E+01 -0.29776049970E+02 -0.59545804374E+02  0.47247095374E+03  0.46772271831E+03 0.  0.
         13    1    3    3    0    0 -0.21930459971E+03 -0.41537009943E+02 -0.98312282301E+02  0.24389574719E+03  0.00000000000E+00 0.  1.
          3    1    3    3  501    0  0.22495658483E+03  0.11760959973E+02  0.38766477927E+02  0.22857520655E+03  0.00000000000E+00 0.  1.
         21    1    1    2  502  501 -0.56519851277E+01  0.29776049970E+02  0.16547658730E+02  0.34530900613E+02  0.00000000000E+00 0. -1.
<scales pt_clust_4="550.00000" pt_clust_5="550.00000" pt_clust_6="30.30772"></scales>
<mgrwt>
<rscale>  0 0.30000000E+03</rscale>
<asrwt>  1 0.30307723E+02</asrwt>
<pdfrwt beam="1">  1        1 0.84364311E+00 0.30000000E+03</pdfrwt>
<pdfrwt beam="2">0</pdfrwt>
<totfact> 0.47702227E-04</totfact>
</mgrwt>
<clustering>
<clus scale="   30.308">  1  6  2 -1</clus>
<clus scale="  467.723">  4  5 -1 -1</clus>
<clus scale="  300.000">  1  4  2 -1</clus>
</clustering>
</event>
<event>
 6    1  0.1029244E-011  0.3000000E+03  0.7818608E-02  0.1093470E+00
          1   -1    0    0  502    0  0.00000000000E+00  0.00000000000E+00  0.23872422721E+03  0.23872422721E+03  0.00000000000E+00 0.  1.
         13   -1    0    0    0    0 -0.00000000000E+00 -0.00000000000E+00 -0.27500000000E+03  0.27500000000E+03  0.00000000000E+00 0.  1.
    9000005    2    1    2  501    0  0.41559504092E+01 -0.31872196501E+02 -0.42565631627E+02  0.48097256835E+03  0.47800593059E+03 0.  0.
         13    1    3    3    0    0 -0.17859628994E+03  0.13637853992E+03  0.17539769874E+02  0.22539606132E+03  0.00000000000E+00 0.  1.
          3    1    3    3  501    0  0.18275224034E+03 -0.16825073643E+03 -0.60105401501E+02  0.25557650704E+03  0.00000000000E+00 0.  1.
         21    1    1    2  502  501 -0.41559504092E+01  0.31872196501E+02  0.62898588364E+01  0.32751658856E+02  0.00000000000E+00 0. -1.
<scales pt_clust_4="550.00000" pt_clust_5="550.00000" pt_clust_6="32.14201"></scales>
<mgrwt>
<rscale>  0 0.30000000E+03</rscale>
<asrwt>  1 0.32142010E+02</asrwt>
<pdfrwt beam="1">  1        1 0.86808810E+00 0.30000000E+03</pdfrwt>
<pdfrwt beam="2">0</pdfrwt>
<totfact> 0.26927919E-04</totfact>
</mgrwt>
<clustering>
<clus scale="   32.142">  1  6  2 -1</clus>
<clus scale="  478.006">  4  5 -1 -1</clus>
<clus scale="  300.000">  1  4  2 -1</clus>
</clustering>
</event>
<event>
 6    1  0.1029244E-011  0.3000000E+03  0.7818608E-02  0.1093470E+00
          1   -1    0    0  502    0  0.00000000000E+00  0.00000000000E+00  0.24937792520E+03  0.24937792520E+03  0.00000000000E+00 0.  1.
         13   -1    0    0    0    0 -0.00000000000E+00 -0.00000000000E+00 -0.27500000000E+03  0.27500000000E+03  0.00000000000E+00 0.  1.
    9000005    2    1    2  501    0 -0.22453450857E+02  0.22470263531E+02 -0.26629513081E+02  0.49259608871E+03  0.49084896399E+03 0.  0.
         13    1    3    3    0    0  0.23173859797E+03 -0.21071362501E+02 -0.30415542268E+02  0.23467399796E+03  0.00000000000E+00 0.  1.
          1    1    3    3  501    0 -0.25419204882E+03  0.43541626032E+02  0.37860291870E+01  0.25792209076E+03  0.00000000000E+00 0.  1.
         21    1    1    2  502  501  0.22453450857E+02 -0.22470263531E+02  0.10074382812E+01  0.31781836486E+02  0.00000000000E+00 0. -1.
<scales pt_clust_4="550.00000" pt_clust_5="550.00000" pt_clust_6="31.76587"></scales>
<mgrwt>
<rscale>  0 0.30000000E+03</rscale>
<asrwt>  1 0.31765865E+02</asrwt>
<pdfrwt beam="1">  1        1 0.90682882E+00 0.30000000E+03</pdfrwt>
<pdfrwt beam="2">0</pdfrwt>
<totfact> 0.86524933E-05</totfact>
</mgrwt>
<clustering>
<clus scale="   31.766">  1  6  2 -1</clus>
<clus scale="  490.849">  4  5 -1 -1</clus>
<clus scale="  300.000">  1  4  2 -1</clus>
</clustering>
</event>
<event>
 6    1  0.1029244E-011  0.3000000E+03  0.7818608E-02  0.1093470E+00
          1   -1    0    0  502    0  0.00000000000E+00  0.00000000000E+00  0.24625609634E+03  0.24625609634E+03  0.00000000000E+00 0.  1.
         13   -1    0    0    0    0 -0.00000000000E+00 -0.00000000000E+00 -0.27500000000E+03  0.27500000000E+03  0.00000000000E+00 0.  1.
    9000005    2    1    2  501    0 -0.33672043078E+02 -0.54855440768E+01 -0.73337452049E+02  0.46510912637E+03  0.45802207357E+03 0.  0.
         13    1    3    3    0    0 -0.18550180142E+03  0.63142257124E+02 -0.18098062659E+03  0.26674304146E+03  0.00000000000E+00 0.  1.
          3    1    3    3  501    0  0.15182975834E+03 -0.68627801201E+02  0.10764317455E+03  0.19836608491E+03  0.00000000000E+00 0.  1.
         21    1    1    2  502  501  0.33672043078E+02  0.54855440768E+01  0.44593548391E+02  0.56146969971E+02  0.00000000000E+00 0. -1.
<scales pt_clust_4="550.00000" pt_clust_5="550.00000" pt_clust_6="34.11594"></scales>
<mgrwt>
<rscale>  0 0.30000000E+03</rscale>
<asrwt>  1 0.34115945E+02</asrwt>
<pdfrwt beam="1">  1        1 0.89547671E+00 0.30000000E+03</pdfrwt>
<pdfrwt beam="2">0</pdfrwt>
<totfact> 0.12515216E-04</totfact>
</mgrwt>
<clustering>
<clus scale="   34.116">  1  6  2 -1</clus>
<clus scale="  458.022">  4  5 -1 -1</clus>
<clus scale="  300.000">  1  4  2 -1</clus>
</clustering>
</event>
<event>
 6    1  0.1029244E-011  0.3000000E+03  0.7818608E-02  0.1093470E+00
          1   -1    0    0  502    0  0.00000000000E+00  0.00000000000E+00  0.26077287324E+03  0.26077287324E+03  0.00000000000E+00 0.  1.
         13   -1    0    0    0    0 -0.00000000000E+00 -0.00000000000E+00 -0.27500000000E+03  0.27500000000E+03  0.00000000000E+00 0.  1.
    9000005    2    1    2  501    0 -0.44261381320E+02  0.14702801614E+02 -0.50762545844E+02  0.47652695271E+03  0.47151443069E+03 0.  0.
         13    1    3    3    0    0  0.24274803532E+01  0.19507721180E+03 -0.16709797288E+03  0.25687106447E+03  0.00000000000E+00 0.  1.
          3    1    3    3  501    0 -0.46688861673E+02 -0.18037441019E+03  0.11633542703E+03  0.21965588824E+03  0.00000000000E+00 0.  1.
         21    1    1    2  502  501  0.44261381320E+02 -0.14702801614E+02  0.36535419088E+02  0.59245920531E+02  0.00000000000E+00 0.  1.
<scales pt_clust_4="550.00000" pt_clust_5="550.00000" pt_clust_6="46.63949"></scales>
<mgrwt>
<rscale>  0 0.30000000E+03</rscale>
<asrwt>  1 0.46639492E+02</asrwt>
<pdfrwt beam="1">  1        1 0.94826499E+00 0.30000000E+03</pdfrwt>
<pdfrwt beam="2">0</pdfrwt>
<totfact> 0.12706880E-05</totfact>
</mgrwt>
<clustering>
<clus scale="   46.639">  1  6  2 -1</clus>
<clus scale="  471.514">  4  5 -1 -1</clus>
<clus scale="  300.000">  1  4  2 -1</clus>
</clustering>
</event>
<event>
 6    1  0.1029244E-011  0.3000000E+03  0.7818608E-02  0.1093470E+00
          1   -1    0    0  502    0  0.00000000000E+00  0.00000000000E+00  0.24242920384E+03  0.24242920384E+03  0.00000000000E+00 0.  1.
         13   -1    0    0    0    0 -0.00000000000E+00 -0.00000000000E+00 -0.27500000000E+03  0.27500000000E+03  0.00000000000E+00 0.  1.
    9000005    2    1    2  501    0 -0.32413813728E+02  0.10968860004E+02 -0.48387614687E+02  0.47973115404E+03  0.47605634929E+03 0.  0.
         13    1    3    3    0    0 -0.14851389888E+03  0.38799923200E+02  0.17110673037E+03  0.22986806081E+03  0.00000000000E+00 0.  1.
          1    1    3    3  501    0  0.11610008515E+03 -0.27831063196E+02 -0.21949434506E+03  0.24986309324E+03  0.00000000000E+00 0.  1.
         21    1    1    2  502  501  0.32413813728E+02 -0.10968860004E+02  0.15816818529E+02  0.37698049798E+02  0.00000000000E+00 0.  1.
<scales pt_clust_4="550.00000" pt_clust_5="550.00000" pt_clust_6="34.21946"></scales>
<mgrwt>
<rscale>  0 0.30000000E+03</rscale>
<asrwt>  1 0.34219457E+02</asrwt>
<pdfrwt beam="1">  1        1 0.88156074E+00 0.30000000E+03</pdfrwt>
<pdfrwt beam="2">0</pdfrwt>
<totfact> 0.18942941E-04</totfact>
</mgrwt>
<clustering>
<clus scale="   34.219">  1  6  2 -1</clus>
<clus scale="  476.056">  4  5 -1 -1</clus>
<clus scale="  300.000">  1  4  2 -1</clus>
</clustering>
</event>
<event>
 6    1  0.1029244E-011  0.3000000E+03  0.7818608E-02  0.1093470E+00
          1   -1    0    0  502    0  0.00000000000E+00  0.00000000000E+00  0.23262752733E+03  0.23262752733E+03  0.00000000000E+00 0.  1.
         13   -1    0    0    0    0 -0.00000000000E+00 -0.00000000000E+00 -0.27500000000E+03  0.27500000000E+03  0.00000000000E+00 0.  1.
    9000005    2    1    2  501    0  0.32950935041E+02 -0.12326611248E+02 -0.53302886891E+02  0.47078755692E+03  0.46643543662E+03 0.  0.
         13    1    3    3    0    0 -0.16041166185E+03 -0.14492283631E+03  0.37405073619E+02  0.21939386790E+03  0.00000000000E+00 0.  1.
          3    1    3    3  501    0  0.19336259689E+03  0.13259622507E+03 -0.90707960509E+02  0.25139368902E+03  0.00000000000E+00 0.  1.
         21    1    1    2  502  501 -0.32950935041E+02  0.12326611248E+02  0.10930414223E+02  0.36839970413E+02  0.00000000000E+00 0.  1.
<scales pt_clust_4="550.00000" pt_clust_5="550.00000" pt_clust_6="35.18110"></scales>
<mgrwt>
<rscale>  0 0.30000000E+03</rscale>
<asrwt>  1 0.35181095E+02</asrwt>
<pdfrwt beam="1">  1        1 0.84591828E+00 0.30000000E+03</pdfrwt>
<pdfrwt beam="2">0</pdfrwt>
<totfact> 0.44306291E-04</totfact>
</mgrwt>
<clustering>
<clus scale="   35.181">  1  6  2 -1</clus>
<clus scale="  466.435">  4  5 -1 -1</clus>
<clus scale="  300.000">  1  4  2 -1</clus>
</clustering>
</event>
<event>
 6    1  0.1029244E-011  0.3000000E+03  0.7818608E-02  0.1093470E+00
          1   -1    0    0  502    0  0.00000000000E+00  0.00000000000E+00  0.25219860407E+03  0.25219860407E+03  0.00000000000E+00 0.  1.
         13   -1    0    0    0    0 -0.00000000000E+00 -0.00000000000E+00 -0.27500000000E+03  0.27500000000E+03  0.00000000000E+00 0.  1.
    9000005    2    1    2  501    0  0.23213462426E+02 -0.20837407155E+02 -0.30989344896E+02  0.49494794698E+03  0.49299094144E+03 0.  0.
         13    1    3    3    0    0  0.16585285151E+03  0.16037765523E+03  0.72975413030E+02  0.24197845268E+03  0.00000000000E+00 0.  1.
          3    1    3    3  501    0 -0.14263938909E+03 -0.18121506239E+03 -0.10396475793E+03  0.25296949430E+03  0.00000000000E+00 0.  1.
         21    1    1    2  502  501 -0.23213462426E+02  0.20837407155E+02  0.81879489675E+01  0.32250657095E+02  0.00000000000E+00 0. -1.
<scales pt_clust_4="550.00000" pt_clust_5="550.00000" pt_clust_6="31.19395"></scales>
<mgrwt>
<rscale>  0 0.30000000E+03</rscale>
<asrwt>  1 0.31193948E+02</asrwt>
<pdfrwt beam="1">  1        1 0.91708583E+00 0.30000000E+03</pdfrwt>
<pdfrwt beam="2">0</pdfrwt>
<totfact> 0.49567846E-05</totfact>
</mgrwt>
<clustering>
<clus scale="   31.194">  1  6  2 -1</clus>
<clus scale="  492.991">  4  5 -1 -1</clus>
<clus scale="  300.000">  1  4  2 -1</clus>
</clustering>
</event>
<event>
 6    1  0.1029244E-011  0.3000000E+03  0.7818608E-02  0.1093470E+00
          1   -1    0    0  502    0  0.00000000000E+00  0.00000000000E+00  0.23368410433E+03  0.23368410433E+03  0.00000000000E+00 0.  1.
         13   -1    0    0    0    0 -0.00000000000E+00 -0.00000000000E+00 -0.27500000000E+03  0.27500000000E+03  0.00000000000E+00 0.  1.
    9000005    2    1    2  501    0  0.27963331130E+02 -0.33279741774E+02 -0.37816795555E+02  0.46507524282E+03  0.46149255937E+03 0.  0.
         13    1    3    3    0    0 -0.59361201496E+02 -0.65211034858E+02 -0.23286294094E+03  0.24900076421E+03  0.00000000000E+00 0.  1.
          3    1    3    3  501    0  0.87324532626E+02  0.31931293085E+02  0.19504614539E+03  0.21607447861E+03  0.00000000000E+00 0.  1.
         21    1    1    2  502  501 -0.27963331130E+02  0.33279741774E+02 -0.34991001181E+01  0.43608861508E+02  0.00000000000E+00 0.  1.
<scales pt_clust_4="550.00000" pt_clust_5="550.00000" pt_clust_6="43.46825"></scales>
<mgrwt>
<rscale>  0 0.30000000E+03</rscale>
<asrwt>  1 0.43468254E+02</asrwt>
<pdfrwt beam="1">  1        1 0.84976038E+00 0.30000000E+03</pdfrwt>
<pdfrwt beam="2">0</pdfrwt>
<totfact> 0.39316246E-04</totfact>
</mgrwt>
<clustering>
<clus scale="   43.468">  1  6  2 -1</clus>
<clus scale="  461.493">  4  5 -1 -1</clus>
<clus scale="  300.000">  1  4  2 -1</clus>
</clustering>
</event>
<event>
 6    1  0.1029244E-011  0.3000000E+03  0.7818608E-02  0.1093470E+00
          1   -1    0    0  502    0  0.00000000000E+00  0.00000000000E+00  0.23691278406E+03  0.23691278406E+03  0.00000000000E+00 0.  1.
         13   -1    0    0    0    0 -0.00000000000E+00 -0.00000000000E+00 -0.27500000000E+03  0.27500000000E+03  0.00000000000E+00 0.  1.
    9000005    2    1    2  501    0 -0.33783131189E+02  0.13883738243E+02 -0.28386554784E+02  0.47412176704E+03  0.47185971999E+03 0.  0.
         13    1    3    3    0    0 -0.23404900865E+03  0.79849243148E+02 -0.74528817225E+02  0.25828159957E+03  0.00000000000E+00 0.  1.
          3    1    3    3  501    0  0.20026587746E+03 -0.65965504905E+02  0.46142262441E+02  0.21584016747E+03  0.00000000000E+00 0.  1.
         21    1    1    2  502  501  0.33783131189E+02 -0.13883738243E+02 -0.97006611542E+01  0.37791017019E+02  0.00000000000E+00 0. -1.
<scales pt_clust_4="550.00000" pt_clust_5="550.00000" pt_clust_6="36.52478"></scales>
<mgrwt>
<rscale>  0 0.30000000E+03</rscale>
<asrwt>  1 0.36524779E+02</asrwt>
<pdfrwt beam="1">  1        1 0.86150103E+00 0.30000000E+03</pdfrwt>
<pdfrwt beam="2">0</pdfrwt>
<totfact> 0.30922151E-04</totfact>
</mgrwt>
<clustering>
<clus scale="   36.525">  1  6  2 -1</clus>
<clus scale="  471.860">  4  5 -1 -1</clus>
<clus scale="  300.000">  1  4  2 -1</clus>
</clustering>
</event>
<event>
 6    1  0.1029244E-011  0.3000000E+03  0.7818608E-02  0.1093470E+00
          1   -1    0    0  502    0  0.00000000000E+00  0.00000000000E+00  0.23127099940E+03  0.23127099940E+03  0.00000000000E+00 0.  1.
         13   -1    0    0    0    0 -0.00000000000E+00 -0.00000000000E+00 -0.27500000000E+03  0.27500000000E+03  0.00000000000E+00 0.  1.
    9000005    2    1    2  501    0  0.23834485167E+02 -0.18948780068E+02 -0.59079615574E+02  0.47217143446E+03  0.46747013123E+03 0.  0.
         13    1    3    3    0    0 -0.55006187832E+02 -0.46662250143E+02  0.19329764144E+03  0.20631777547E+03  0.00000000000E+00 0.  1.
          1    1    3    3  501    0  0.78840672999E+02  0.27713470075E+02 -0.25237725701E+03  0.26585365899E+03  0.00000000000E+00 0.  1.
         21    1    1    2  502  501 -0.23834485167E+02  0.18948780068E+02  0.15350614978E+02  0.34099564945E+02  0.00000000000E+00 0. -1.
<scales pt_clust_4="550.00000" pt_clust_5="550.00000" pt_clust_6="30.44896"></scales>
<mgrwt>
<rscale>  0 0.30000000E+03</rscale>
<asrwt>  1 0.30448956E+02</asrwt>
<pdfrwt beam="1">  1        1 0.84098545E+00 0.30000000E+03</pdfrwt>
<pdfrwt beam="2">0</pdfrwt>
<totfact> 0.50138566E-04</totfact>
</mgrwt>
<clustering>
<clus scale="   30.449">  1  6  2 -1</clus>
<clus scale="  467.470">  4  5 -1 -1</clus>
<clus scale="  300.000">  1  4  2 -1</clus>
</clustering>
</event>
<event>
 6    1  0.1029244E-011  0.3000000E+03  0.7818608E-02  0.1093470E+00
          1   -1    0    0  502    0  0.00000000000E+00  0.00000000000E+00  0.25113886633E+03  0.25113886633E+03  0.00000000000E+00 0.  1.
         13   -1    0    0    0    0 -0.00000000000E+00 -0.00000000000E+00 -0.27500000000E+03  0.27500000000E+03  0.00000000000E+00 0.  1.
    9000005    2    1    2  501    0  0.21650103200E+02  0.47208562943E+02 -0.29730552980E+02  0.47387199856E+03  0.47007806783E+03 0.  0.
         13    1    3    3    0    0  0.71469035354E+02  0.18258719186E+03  0.14749552183E+03  0.24535858372E+03  0.00000000000E+00 0.  1.
          3    1    3    3  501    0 -0.49818932154E+02 -0.13537862892E+03 -0.17722607481E+03  0.22851341484E+03  0.00000000000E+00 0.  1.
         21    1    1    2  502  501 -0.21650103200E+02 -0.47208562943E+02  0.58694193142E+01  0.52266867773E+02  0.00000000000E+00 0. -1.
<scales pt_clust_4="550.00000" pt_clust_5="550.00000" pt_clust_6="51.93626"></scales>
<mgrwt>
<rscale>  0 0.30000000E+03</rscale>
<asrwt>  1 0.51936263E+02</asrwt>
<pdfrwt beam="1">  1        1 0.91323224E+00 0.30000000E+03</pdfrwt>
<pdfrwt beam="2">0</pdfrwt>
<totfact> 0.55617623E-05</totfact>
</mgrwt>
<clustering>
<clus scale="   51.936">  1  6  2 -1</clus>
<clus scale="  470.078">  4  5 -1 -1</clus>
<clus scale="  300.000">  1  4  2 -1</clus>
</clustering>
</event>
<event>
 6    1  0.1029244E-011  0.3000000E+03  0.7818608E-02  0.1093470E+00
          1   -1    0    0  502    0  0.00000000000E+00  0.00000000000E+00  0.23193797206E+03  0.23193797206E+03  0.00000000000E+00 0.  1.
         13   -1    0    0    0    0 -0.00000000000E+00 -0.00000000000E+00 -0.27500000000E+03  0.27500000000E+03  0.00000000000E+00 0.  1.
    9000005    2    1    2  501    0  0.29143655876E+02 -0.12007105561E+02 -0.58500953487E+02  0.47183977148E+03  0.46713690191E+03 0.  0.
         13    1    3    3    0    0 -0.91214226892E+02  0.98070030457E+01 -0.23774821349E+03  0.25483411372E+03  0.00000000000E+00 0.  1.
          1    1    3    3  501    0  0.12035788277E+03 -0.21814108607E+02  0.17924726001E+03  0.21700565776E+03  0.00000000000E+00 0.  1.
         21    1    1    2  502  501 -0.29143655876E+02  0.12007105561E+02  0.15438925544E+02  0.35098200577E+02  0.00000000000E+00 0.  1.
<scales pt_clust_4="550.00000" pt_clust_5="550.00000" pt_clust_6="31.52020"></scales>
<mgrwt>
<rscale>  0 0.30000000E+03</rscale>
<asrwt>  1 0.31520204E+02</asrwt>
<pdfrwt beam="1">  1        1 0.84341081E+00 0.30000000E+03</pdfrwt>
<pdfrwt beam="2">0</pdfrwt>
<totfact> 0.47561220E-04</totfact>
</mgrwt>
<clustering>
<clus scale="   31.520">  1  6  2 -1</clus>
<clus scale="  467.137">  4  5 -1 -1</clus>
<clus scale="  300.000">  1  4  2 -1</clus>
</clustering>
</event>
<event>
 6    1  0.1029244E-011  0.3000000E+03  0.7818608E-02  0.1093470E+00
          1   -1    0    0  502    0  0.00000000000E+00  0.00000000000E+00  0.22753431941E+03  0.22753431941E+03  0.00000000000E+00 0.  1.
         13   -1    0    0    0    0 -0.00000000000E+00 -0.00000000000E+00 -0.27500000000E+03  0.27500000000E+03  0.00000000000E+00 0.  1.
    9000005    2    1    2  501    0 -0.96857147510E+01 -0.30057481113E+02 -0.57081763406E+02  0.46952319568E+03  0.46496928751E+03 0.  0.
         13    1    3    3    0    0  0.27528108922E+02 -0.24050302187E+03  0.18650705470E+02  0.24279075173E+03  0.00000000000E+00 0.  1.
          1    1    3    3  501    0 -0.37213823673E+02  0.21044554076E+03 -0.75732468876E+02  0.22673244395E+03  0.00000000000E+00 0.  1.
         21    1    1    2  502  501  0.96857147510E+01  0.30057481113E+02  0.96160828118E+01  0.33011123728E+02  0.00000000000E+00 0. -1.
<scales pt_clust_4="550.00000" pt_clust_5="550.00000" pt_clust_6="31.57951"></scales>
<mgrwt>
<rscale>  0 0.30000000E+03</rscale>
<asrwt>  1 0.31579507E+02</asrwt>
<pdfrwt beam="1">  1        1 0.82739753E+00 0.30000000E+03</pdfrwt>
<pdfrwt beam="2">0</pdfrwt>
<totfact> 0.63420837E-04</totfact>
</mgrwt>
<clustering>
<clus scale="   31.580">  1  6  2 -1</clus>
<clus scale="  464.969">  4  5 -1 -1</clus>
<clus scale="  300.000">  1  4  2 -1</clus>
</clustering>
</event>
<event>
 6    1  0.1029244E-011  0.3000000E+03  0.7818608E-02  0.1093470E+00
          1   -1    0    0  502    0  0.00000000000E+00  0.00000000000E+00  0.24201590007E+03  0.24201590007E+03  0.00000000000E+00 0.  1.
         13   -1    0    0    0    0 -0.00000000000E+00 -0.00000000000E+00 -0.27500000000E+03  0.27500000000E+03  0.00000000000E+00 0.  1.
    9000005    2    1    2  501    0  0.12815751227E+02  0.41836088184E+02 -0.71202877573E+00  0.46264689851E+03  0.46057262615E+03 0.  0.
         13    1    3    3    0    0  0.26662819084E+02 -0.85231743374E+02  0.20321507632E+03  0.22197234793E+03  0.00000000000E+00 0.  1.
          3    1    3    3  501    0 -0.13847067857E+02  0.12706783156E+03 -0.20392710510E+03  0.24067455058E+03  0.00000000000E+00 0.  1.
         21    1    1    2  502  501 -0.12815751227E+02 -0.41836088184E+02 -0.32272071156E+02  0.54369001561E+02  0.00000000000E+00 0.  1.
<scales pt_clust_4="550.00000" pt_clust_5="550.00000" pt_clust_6="43.75504"></scales>
<mgrwt>
<rscale>  0 0.30000000E+03</rscale>
<asrwt>  1 0.43755042E+02</asrwt>
<pdfrwt beam="1">  1        1 0.88005782E+00 0.30000000E+03</pdfrwt>
<pdfrwt beam="2">0</pdfrwt>
<totfact> 0.18915468E-04</totfact>
</mgrwt>
<clustering>
<clus scale="   43.755">  1  6  2 -1</clus>
<clus scale="  460.573">  4  5 -1 -1</clus>
<clus scale="  300.000">  1  4  2 -1</clus>
</clustering>
</event>
<event>
 6    1  0.1029244E-011  0.3000000E+03  0.7818608E-02  0.1093470E+00
          1   -1    0    0  502    0  0.00000000000E+00  0.00000000000E+00  0.23856862033E+03  0.23856862033E+03  0.00000000000E+00 0.  1.
         13   -1    0    0    0    0 -0.00000000000E+00 -0.00000000000E+00 -0.27500000000E+03  0.27500000000E+03  0.00000000000E+00 0.  1.
    9000005    2    1    2  501    0  0.20186238630E+02  0.34080396856E+02 -0.29090543130E+02  0.47328406298E+03  0.47072559617E+03 0.  0.
         13    1    3    3    0    0 -0.19404289480E+03 -0.78904493709E+02 -0.82730819142E+02  0.22521756722E+03  0.00000000000E+00 0.  1.
          1    1    3    3  501    0  0.21422913343E+03  0.11298489057E+03  0.53640276012E+02  0.24806649576E+03  0.00000000000E+00 0.  1.
         21    1    1    2  502  501 -0.20186238630E+02 -0.34080396856E+02 -0.73408365369E+01  0.40284557351E+02  0.00000000000E+00 0.  1.
<scales pt_clust_4="550.00000" pt_clust_5="550.00000" pt_clust_6="39.61009"></scales>
<mgrwt>
<rscale>  0 0.30000000E+03</rscale>
<asrwt>  1 0.39610090E+02</asrwt>
<pdfrwt beam="1">  1        1 0.86752226E+00 0.30000000E+03</pdfrwt>
<pdfrwt beam="2">0</pdfrwt>
<totfact> 0.26253262E-04</totfact>
</mgrwt>
<clustering>
<clus scale="   39.610">  1  6  2 -1</clus>
<clus scale="  470.726">  4  5 -1 -1</clus>
<clus scale="  300.000">  1  4  2 -1</clus>
</clustering>
</event>
<event>
 6    1  0.1029244E-011  0.3000000E+03  0.7818608E-02  0.1093470E+00
          1   -1    0    0  502    0  0.00000000000E+00  0.00000000000E+00  0.24481213562E+03  0.24481213562E+03  0.00000000000E+00 0.  1.
         13   -1    0    0    0    0 -0.00000000000E+00 -0.00000000000E+00 -0.27500000000E+03  0.27500000000E+03  0.00000000000E+00 0.  1.
    9000005    2    1    2  501    0  0.31541745468E+02  0.15341022463E+02 -0.33813129433E+02  0.48455066622E+03  0.48209521024E+03 0.  0.
         13    1    3    3    0    0 -0.16540440932E+03  0.73616281667E+02 -0.16158127778E+03  0.24266537635E+03  0.00000000000E+00 0.  1.
          1    1    3    3  501    0  0.19694615479E+03 -0.58275259204E+02  0.12776814835E+03  0.24188528987E+03  0.00000000000E+00 0.  1.
         21    1    1    2  502  501 -0.31541745468E+02 -0.15341022463E+02  0.36252650487E+01  0.35261469397E+02  0.00000000000E+00 0. -1.
<scales pt_clust_4="550.00000" pt_clust_5="550.00000" pt_clust_6="35.07462"></scales>
<mgrwt>
<rscale>  0 0.30000000E+03</rscale>
<asrwt>  1 0.35074616E+02</asrwt>
<pdfrwt beam="1">  1        1 0.89022595E+00 0.30000000E+03</pdfrwt>
<pdfrwt beam="2">0</pdfrwt>
<totfact> 0.14390205E-04</totfact>
</mgrwt>
<clustering>
<clus scale="   35.075">  1  6  2 -1</clus>
<clus scale="  482.095">  4  5 -1 -1</clus>
<clus scale="  300.000">  1  4  2 -1</clus>
</clustering>
</event>
<event>
 6    1  0.1029244E-011  0.3000000E+03  0.7818608E-02  0.1093470E+00
          1   -1    0    0  502    0  0.00000000000E+00  0.00000000000E+00  0.23333646812E+03  0.23333646812E+03  0.00000000000E+00 0.  1.
         13   -1    0    0    0    0 -0.00000000000E+00 -0.00000000000E+00 -0.27500000000E+03  0.27500000000E+03  0.00000000000E+00 0.  1.
    9000005    2    1    2  501    0  0.78769701791E+01 -0.29526179795E+02 -0.34457153022E+02  0.47693943245E+03  0.47471052746E+03 0.  0.
         13    1    3    3    0    0  0.94248950615E+02 -0.12318907962E+03 -0.20935631909E+03  0.26055418318E+03  0.00000000000E+00 0.  1.
          1    1    3    3  501    0 -0.86371980435E+02  0.93662899821E+02  0.17489916607E+03  0.21638524927E+03  0.00000000000E+00 0.  1.
         21    1    1    2  502  501 -0.78769701791E+01  0.29526179795E+02 -0.72063788609E+01  0.31397035669E+02  0.00000000000E+00 0.  1.
<scales pt_clust_4="550.00000" pt_clust_5="550.00000" pt_clust_6="30.55884"></scales>
<mgrwt>
<rscale>  0 0.30000000E+03</rscale>
<asrwt>  1 0.30558843E+02</asrwt>
<pdfrwt beam="1">  1        1 0.84849625E+00 0.30000000E+03</pdfrwt>
<pdfrwt beam="2">0</pdfrwt>
<totfact> 0.43124825E-04</totfact>
</mgrwt>
<clustering>
<clus scale="   30.559">  1  6  2 -1</clus>
<clus scale="  474.711">  4  5 -1 -1</clus>
<clus scale="  300.000">  1  4  2 -1</clus>
</clustering>
</event>
<event>
 6    1  0.1029244E-011  0.3000000E+03  0.7818608E-02  0.1093470E+00
          1   -1    0    0  502    0  0.00000000000E+00  0.00000000000E+00  0.23322877498E+03  0.23322877498E+03  0.00000000000E+00 0.  1.
         13   -1    0    0    0    0 -0.00000000000E+00 -0.00000000000E+00 -0.27500000000E+03  0.27500000000E+03  0.00000000000E+00 0.  1.
    9000005    2    1    2  501    0  0.35404224394E+02 -0.44789073787E+01 -0.51293451561E+02  0.47129379814E+03  0.46713307127E+03 0.  0.
         13    1    3    3    0    0  0.12334952872E+03  0.20354548763E+03  0.67650911052E+01  0.23810005927E+03  0.00000000000E+00 0.  1.
          1    1    3    3  501    0 -0.87945304321E+02 -0.20802439501E+03 -0.58058542666E+02  0.23319373887E+03  0.00000000000E+00 0.  1.
         21    1    1    2  502  501 -0.35404224394E+02  0.44789073787E+01  0.95222265434E+01  0.36934976846E+02  0.00000000000E+00 0.  1.
<scales pt_clust_4="550.00000" pt_clust_5="550.00000" pt_clust_6="35.68641"></scales>
<mgrwt>
<rscale>  0 0.30000000E+03</rscale>
<asrwt>  1 0.35686408E+02</asrwt>
<pdfrwt beam="1">  1        1 0.84810464E+00 0.30000000E+03</pdfrwt>
<pdfrwt beam="2">0</pdfrwt>
<totfact> 0.42226706E-04</totfact>
</mgrwt>
<clustering>
<clus scale="   35.686">  1  6  2 -1</clus>
<clus scale="  467.133">  4  5 -1 -1</clus>
<clus scale="  300.000">  1  4  2 -1</clus>
</clustering>
</event>
<event>
 6    1  0.1029244E-011  0.3000000E+03  0.7818608E-02  0.1093470E+00
          1   -1    0    0  502    0  0.00000000000E+00  0.00000000000E+00  0.24896712803E+03  0.24896712803E+03  0.00000000000E+00 0.  1.
         13   -1    0    0    0    0 -0.00000000000E+00 -0.00000000000E+00 -0.27500000000E+03  0.27500000000E+03  0.00000000000E+00 0.  1.
    9000005    2    1    2  501    0  0.40114972781E+02  0.15368055252E+02 -0.34270049153E+02  0.48022653760E+03  0.47707201027E+03 0.  0.
         13    1    3    3    0    0 -0.14355337734E+03 -0.34047183419E+02 -0.18565290898E+03  0.23713663879E+03  0.00000000000E+00 0.  1.
          3    1    3    3  501    0  0.18366835012E+03  0.49415238671E+02  0.15138285983E+03  0.24308989880E+03  0.00000000000E+00 0.  1.
         21    1    1    2  502  501 -0.40114972781E+02 -0.15368055252E+02  0.82371771806E+01  0.43740590432E+02  0.00000000000E+00 0.  1.
<scales pt_clust_4="550.00000" pt_clust_5="550.00000" pt_clust_6="42.95798"></scales>
<mgrwt>
<rscale>  0 0.30000000E+03</rscale>
<asrwt>  1 0.42957981E+02</asrwt>
<pdfrwt beam="1">  1        1 0.90533501E+00 0.30000000E+03</pdfrwt>
<pdfrwt beam="2">0</pdfrwt>
<totfact> 0.87747908E-05</totfact>
</mgrwt>
<clustering>
<clus scale="   42.958">  1  6  2 -1</clus>
<clus scale="  477.072">  4  5 -1 -1</clus>
<clus scale="  300.000">  1  4  2 -1</clus>
</clustering>
</event>
<event>
 6    1  0.1029244E-011  0.3000000E+03  0.7818608E-02  0.1093470E+00
          1   -1    0    0  502    0  0.00000000000E+00  0.00000000000E+00  0.24842564171E+03  0.24842564171E+03  0.00000000000E+00 0.  1.
         13   -1    0    0    0    0 -0.00000000000E+00 -0.00000000000E+00 -0.27500000000E+03  0.27500000000E+03  0.00000000000E+00 0.  1.
    9000005    2    1    2  501    0  0.28396907536E+02  0.32633452801E+02 -0.66479060812E+01  0.47579802265E+03  0.47378079014E+03 0.  0.
         13    1    3    3    0    0  0.11850198721E+03 -0.16238834177E+03  0.11226498669E+03  0.23025230021E+03  0.00000000000E+00 0.  1.
          3    1    3    3  501    0 -0.90105079675E+02  0.19502179458E+03 -0.11891289277E+03  0.24554572244E+03  0.00000000000E+00 0.  1.
         21    1    1    2  502  501 -0.28396907536E+02 -0.32633452801E+02 -0.19926452208E+02  0.47627619056E+02  0.00000000000E+00 0.  1.
<scales pt_clust_4="550.00000" pt_clust_5="550.00000" pt_clust_6="43.25885"></scales>
<mgrwt>
<rscale>  0 0.30000000E+03</rscale>
<asrwt>  1 0.43258854E+02</asrwt>
<pdfrwt beam="1">  1        1 0.90336597E+00 0.30000000E+03</pdfrwt>
<pdfrwt beam="2">0</pdfrwt>
<totfact> 0.95080798E-05</totfact>
</mgrwt>
<clustering>
<clus scale="   43.259">  1  6  2 -1</clus>
<clus scale="  473.781">  4  5 -1 -1</clus>
<clus scale="  300.000">  1  4  2 -1</clus>
</clustering>
</event>
<event>
 6    1  0.1029244E-011  0.3000000E+03  0.7818608E-02  0.1093470E+00
          1   -1    0    0  502    0  0.00000000000E+00  0.00000000000E+00  0.23714530778E+03  0.23714530778E+03  0.00000000000E+00 0.  1.
         13   -1    0    0    0    0 -0.00000000000E+00 -0.00000000000E+00 -0.27500000000E+03  0.27500000000E+03  0.00000000000E+00 0.  1.
    9000005    2    1    2  501    0  0.38980402406E+01  0.30785635714E+02 -0.54271868017E+02  0.47703870235E+03  0.47292445252E+03 0.  0.
         13    1    3    3    0    0 -0.38595012229E+02  0.10203406841E+03 -0.24547018502E+03  0.26861894538E+03  0.00000000000E+00 0.  1.
          1    1    3    3  501    0  0.42493052470E+02 -0.71248432700E+02  0.19119831700E+03  0.20841975697E+03  0.00000000000E+00 0.  1.
         21    1    1    2  502  501 -0.38980402406E+01 -0.30785635714E+02  0.16417175801E+02  0.35106605437E+02  0.00000000000E+00 0.  1.
<scales pt_clust_4="550.00000" pt_clust_5="550.00000" pt_clust_6="31.03144"></scales>
<mgrwt>
<rscale>  0 0.30000000E+03</rscale>
<asrwt>  1 0.31031437E+02</asrwt>
<pdfrwt beam="1">  1        1 0.86234657E+00 0.30000000E+03</pdfrwt>
<pdfrwt beam="2">0</pdfrwt>
<totfact> 0.31223106E-04</totfact>
</mgrwt>
<clustering>
<clus scale="   31.031">  1  6  2 -1</clus>
<clus scale="  472.924">  4  5 -1 -1</clus>
<clus scale="  300.000">  1  4  2 -1</clus>
</clustering>
</event>
<event>
 6    1  0.1029244E-011  0.3000000E+03  0.7818608E-02  0.1093470E+00
          1   -1    0    0  502    0  0.00000000000E+00  0.00000000000E+00  0.24059628287E+03  0.24059628287E+03  0.00000000000E+00 0.  1.
         13   -1    0    0    0    0 -0.00000000000E+00 -0.00000000000E+00 -0.27500000000E+03  0.27500000000E+03  0.00000000000E+00 0.  1.
    9000005    2    1    2  501    0 -0.34331590965E+02  0.91459427978E+01 -0.56158314147E+02  0.47393612326E+03  0.46925407432E+03 0.  0.
         13    1    3    3    0    0 -0.92947562702E+02  0.85644112738E+02  0.17938580819E+03  0.21943890183E+03  0.00000000000E+00 0.  1.
          3    1    3    3  501    0  0.58615971737E+02 -0.76498169940E+02 -0.23554412233E+03  0.25449722142E+03  0.00000000000E+00 0.  1.
         21    1    1    2  502  501  0.34331590965E+02 -0.91459427978E+01  0.21754597020E+02  0.41660159618E+02  0.00000000000E+00 0.  1.
<scales pt_clust_4="550.00000" pt_clust_5="550.00000" pt_clust_6="35.52895"></scales>
<mgrwt>
<rscale>  0 0.30000000E+03</rscale>
<asrwt>  1 0.35528952E+02</asrwt>
<pdfrwt beam="1">  1        1 0.87489557E+00 0.30000000E+03</pdfrwt>
<pdfrwt beam="2">0</pdfrwt>
<totfact> 0.22486890E-04</totfact>
</mgrwt>
<clustering>
<clus scale="   35.529">  1  6  2 -1</clus>
<clus scale="  469.254">  4  5 -1 -1</clus>
<clus scale="  300.000">  1  4  2 -1</clus>
</clustering>
</event>
<event>
 6    1  0.1029244E-011  0.3000000E+03  0.7818608E-02  0.1093470E+00
          1   -1    0    0  502    0  0.00000000000E+00  0.00000000000E+00  0.22837087076E+03  0.22837087076E+03  0.00000000000E+00 0.  1.
         13   -1    0    0    0    0 -0.00000000000E+00 -0.00000000000E+00 -0.27500000000E+03  0.27500000000E+03  0.00000000000E+00 0.  1.
    9000005    2    1    2  501    0  0.18794033763E+02 -0.25897411746E+02 -0.48403931306E+02  0.47132338159E+03  0.46773806540E+03 0.  0.
         13    1    3    3    0    0 -0.12854900485E+03  0.12074122168E+02  0.16482326279E+03  0.20937368276E+03  0.00000000000E+00 0.  1.
          3    1    3    3  501    0  0.14734303861E+03 -0.37971533913E+02 -0.21322719409E+03  0.26194969883E+03  0.00000000000E+00 0.  1.
         21    1    1    2  502  501 -0.18794033763E+02  0.25897411746E+02  0.17748020688E+01  0.32047489178E+02  0.00000000000E+00 0.  1.
<scales pt_clust_4="550.00000" pt_clust_5="550.00000" pt_clust_6="31.99831"></scales>
<mgrwt>
<rscale>  0 0.30000000E+03</rscale>
<asrwt>  1 0.31998307E+02</asrwt>
<pdfrwt beam="1">  1        1 0.83043953E+00 0.30000000E+03</pdfrwt>
<pdfrwt beam="2">0</pdfrwt>
<totfact> 0.59612963E-04</totfact>
</mgrwt>
<clustering>
<clus scale="   31.998">  1  6  2 -1</clus>
<clus scale="  467.738">  4  5 -1 -1</clus>
<clus scale="  300.000">  1  4  2 -1</clus>
</clustering>
</event>
<event>
 6    1  0.1029244E-011  0.3000000E+03  0.7818608E-02  0.1093470E+00
          1   -1    0    0  502    0  0.00000000000E+00  0.00000000000E+00  0.23587426649E+03  0.23587426649E+03  0.00000000000E+00 0.  1.
         13   -1    0    0    0    0 -0.00000000000E+00 -0.00000000000E+00 -0.27500000000E+03  0.27500000000E+03  0.00000000000E+00 0.  1.
    9000005    2    1    2  501    0  0.29910194088E+02 -0.21297257652E+02 -0.44731493417E+02  0.47373106472E+03  0.47018296681E+03 0.  0.
         13    1    3    3    0    0  0.22221599089E+03 -0.38770822465E+02  0.85048288508E+02  0.24107329728E+03  0.00000000000E+00 0.  1.
          1    1    3    3  501    0 -0.19230579681E+03  0.17473564813E+02 -0.12977978192E+03  0.23265776744E+03  0.00000000000E+00 0.  1.
         21    1    1    2  502  501 -0.29910194088E+02  0.21297257652E+02  0.56057599083E+01  0.37143201774E+02  0.00000000000E+00 0.  1.
<scales pt_clust_4="550.00000" pt_clust_5="550.00000" pt_clust_6="36.71775"></scales>
<mgrwt>
<rscale>  0 0.30000000E+03</rscale>
<asrwt>  1 0.36717746E+02</asrwt>
<pdfrwt beam="1">  1        1 0.85772461E+00 0.30000000E+03</pdfrwt>
<pdfrwt beam="2">0</pdfrwt>
<totfact> 0.33879171E-04</totfact>
</mgrwt>
<clustering>
<clus scale="   36.718">  1  6  2 -1</clus>
<clus scale="  470.183">  4  5 -1 -1</clus>
<clus scale="  300.000">  1  4  2 -1</clus>
</clustering>
</event>
<event>
 6    1  0.1029244E-011  0.3000000E+03  0.7818608E-02  0.1093470E+00
          1   -1    0    0  502    0  0.00000000000E+00  0.00000000000E+00  0.23506243799E+03  0.23506243799E+03  0.00000000000E+00 0.  1.
         13   -1    0    0    0    0 -0.00000000000E+00 -0.00000000000E+00 -0.27500000000E+03  0.27500000000E+03  0.00000000000E+00 0.  1.
    9000005    2    1    2  501    0 -0.14757082969E+02  0.32845019982E+02 -0.51577574522E+02  0.47221991262E+03  0.46801157341E+03 0.  0.
         13    1    3    3    0    0  0.32032590355E+02  0.20174859676E+03 -0.16573775006E+03  0.26305433836E+03  0.00000000000E+00 0.  1.
          3    1    3    3  501    0 -0.46789673324E+02 -0.16890357677E+03  0.11416017553E+03  0.20916557426E+03  0.00000000000E+00 0.  1.
         21    1    1    2  502  501  0.14757082969E+02 -0.32845019982E+02  0.11640012517E+02  0.37842525375E+02  0.00000000000E+00 0.  1.
<scales pt_clust_4="550.00000" pt_clust_5="550.00000" pt_clust_6="36.00787"></scales>
<mgrwt>
<rscale>  0 0.30000000E+03</rscale>
<asrwt>  1 0.36007872E+02</asrwt>
<pdfrwt beam="1">  1        1 0.85477250E+00 0.30000000E+03</pdfrwt>
<pdfrwt beam="2">0</pdfrwt>
<totfact> 0.36429526E-04</totfact>
</mgrwt>
<clustering>
<clus scale="   36.008">  1  6  2 -1</clus>
<clus scale="  468.012">  4  5 -1 -1</clus>
<clus scale="  300.000">  1  4  2 -1</clus>
</clustering>
</event>
<event>
 6    1  0.1029244E-011  0.3000000E+03  0.7818608E-02  0.1093470E+00
          1   -1    0    0  502    0  0.00000000000E+00  0.00000000000E+00  0.24133795197E+03  0.24133795197E+03  0.00000000000E+00 0.  1.
         13   -1    0    0    0    0 -0.00000000000E+00 -0.00000000000E+00 -0.27500000000E+03  0.27500000000E+03  0.00000000000E+00 0.  1.
    9000005    2    1    2  501    0  0.23474766784E+02 -0.38985519514E+02 -0.23797766729E+02  0.46977359379E+03  0.46695819975E+03 0.  0.
         13    1    3    3    0    0  0.16642691752E+03 -0.17835182579E+03 -0.89124092956E+02  0.25971214177E+03  0.00000000000E+00 0.  1.
          3    1    3    3  501    0 -0.14295215074E+03  0.13936630628E+03  0.65326326227E+02  0.21006145202E+03  0.00000000000E+00 0.  1.
         21    1    1    2  502  501 -0.23474766784E+02  0.38985519514E+02 -0.98642813018E+01  0.46564358183E+02  0.00000000000E+00 0.  1.
<scales pt_clust_4="550.00000" pt_clust_5="550.00000" pt_clust_6="45.50755"></scales>
<mgrwt>
<rscale>  0 0.30000000E+03</rscale>
<asrwt>  1 0.45507554E+02</asrwt>
<pdfrwt beam="1">  1        1 0.87759255E+00 0.30000000E+03</pdfrwt>
<pdfrwt beam="2">0</pdfrwt>
<totfact> 0.20087823E-04</totfact>
</mgrwt>
<clustering>
<clus scale="   45.508">  1  6  2 -1</clus>
<clus scale="  466.958">  4  5 -1 -1</clus>
<clus scale="  300.000">  1  4  2 -1</clus>
</clustering>
</event>
<event>
 6    1  0.1029244E-011  0.3000000E+03  0.7818608E-02  0.1093470E+00
          1   -1    0    0  502    0  0.00000000000E+00  0.00000000000E+00  0.23870819559E+03  0.23870819559E+03  0.00000000000E+00 0.  1.
         13   -1    0    0    0    0 -0.00000000000E+00 -0.00000000000E+00 -0.27500000000E+03  0.27500000000E+03  0.00000000000E+00 0.  1.
    9000005    2    1    2  501    0  0.18748525834E+02  0.47689745501E+02 -0.39039706426E+02  0.46239182382E+03  0.45788238774E+03 0.  0.
         13    1    3    3    0    0  0.43079619182E+02 -0.18019981992E+03 -0.11837423681E+03  0.21986425045E+03  0.00000000000E+00 0.  1.
          1    1    3    3  501    0 -0.24331093348E+02  0.22788956542E+03  0.79334530384E+02  0.24252757336E+03  0.00000000000E+00 0.  1.
         21    1    1    2  502  501 -0.18748525834E+02 -0.47689745501E+02  0.27479020193E+01  0.51316371778E+02  0.00000000000E+00 0. -1.
<scales pt_clust_4="550.00000" pt_clust_5="550.00000" pt_clust_6="51.24275"></scales>
<mgrwt>
<rscale>  0 0.30000000E+03</rscale>
<asrwt>  1 0.51242746E+02</asrwt>
<pdfrwt beam="1">  1        1 0.86802980E+00 0.30000000E+03</pdfrwt>
<pdfrwt beam="2">0</pdfrwt>
<totfact> 0.24769745E-04</totfact>
</mgrwt>
<clustering>
<clus scale="   51.243">  1  6  2 -1</clus>
<clus scale="  457.882">  4  5 -1 -1</clus>
<clus scale="  300.000">  1  4  2 -1</clus>
</clustering>
</event>
<event>
 6    1  0.1029244E-011  0.3000000E+03  0.7818608E-02  0.1093470E+00
          1   -1    0    0  502    0  0.00000000000E+00  0.00000000000E+00  0.23925246669E+03  0.23925246669E+03  0.00000000000E+00 0.  1.
         13   -1    0    0    0    0 -0.00000000000E+00 -0.00000000000E+00 -0.27500000000E+03  0.27500000000E+03  0.00000000000E+00 0.  1.
    9000005    2    1    2  501    0 -0.36965848429E+02  0.52390284264E+01 -0.34608117687E+02  0.47689982774E+03  0.47417486492E+03 0.  0.
         13    1    3    3    0    0  0.28193180639E+02  0.44061319513E+02  0.21227670386E+03  0.21862674656E+03  0.00000000000E+00 0.  1.
          3    1    3    3  501    0 -0.65159029068E+02 -0.38822291086E+02 -0.24688482154E+03  0.25827308118E+03  0.00000000000E+00 0.  1.
         21    1    1    2  502  501  0.36965848429E+02 -0.52390284264E+01 -0.11394156178E+01  0.37352638954E+02  0.00000000000E+00 0.  1.
<scales pt_clust_4="550.00000" pt_clust_5="550.00000" pt_clust_6="37.33526"></scales>
<mgrwt>
<rscale>  0 0.30000000E+03</rscale>
<asrwt>  1 0.37335256E+02</asrwt>
<pdfrwt beam="1">  1        1 0.87000897E+00 0.30000000E+03</pdfrwt>
<pdfrwt beam="2">0</pdfrwt>
<totfact> 0.25017453E-04</totfact>
</mgrwt>
<clustering>
<clus scale="   37.335">  1  6  2 -1</clus>
<clus scale="  474.175">  4  5 -1 -1</clus>
<clus scale="  300.000">  1  4  2 -1</clus>
</clustering>
</event>
<event>
 6    1  0.1029244E-011  0.3000000E+03  0.7818608E-02  0.1093470E+00
          1   -1    0    0  502    0  0.00000000000E+00  0.00000000000E+00  0.23069637532E+03  0.23069637532E+03  0.00000000000E+00 0.  1.
         13   -1    0    0    0    0 -0.00000000000E+00 -0.00000000000E+00 -0.27500000000E+03  0.27500000000E+03  0.00000000000E+00 0.  1.
    9000005    2    1    2  501    0  0.14557053622E+02 -0.26939229493E+02 -0.30834315068E+02  0.47224413776E+03  0.47024051375E+03 0.  0.
         13    1    3    3    0    0  0.23682102649E+03 -0.60931771390E+02 -0.36965697215E+02  0.24731223610E+03  0.00000000000E+00 0.  1.
          3    1    3    3  501    0 -0.22226397287E+03  0.33992541897E+02  0.61313821466E+01  0.22493190167E+03  0.00000000000E+00 0.  1.
         21    1    1    2  502  501 -0.14557053622E+02  0.26939229493E+02 -0.13469309614E+02  0.33452237554E+02  0.00000000000E+00 0.  1.
<scales pt_clust_4="550.00000" pt_clust_5="550.00000" pt_clust_6="30.62076"></scales>
<mgrwt>
<rscale>  0 0.30000000E+03</rscale>
<asrwt>  1 0.30620758E+02</asrwt>
<pdfrwt beam="1">  1        1 0.83889591E+00 0.30000000E+03</pdfrwt>
<pdfrwt beam="2">0</pdfrwt>
<totfact> 0.51967548E-04</totfact>
</mgrwt>
<clustering>
<clus scale="   30.621">  1  6  2 -1</clus>
<clus scale="  470.241">  4  5 -1 -1</clus>
<clus scale="  300.000">  1  4  2 -1</clus>
</clustering>
</event>
<event>
 6    1  0.1029244E-011  0.3000000E+03  0.7818608E-02  0.1093470E+00
          1   -1    0    0  502    0  0.00000000000E+00  0.00000000000E+00  0.24237265864E+03  0.24237265864E+03  0.00000000000E+00 0.  1.
         13   -1    0    0    0    0 -0.00000000000E+00 -0.00000000000E+00 -0.27500000000E+03  0.27500000000E+03  0.00000000000E+00 0.  1.
    9000005    2    1    2  501    0 -0.37486567266E+02  0.84681328037E+00 -0.25532722148E+02  0.47921124567E+03  0.47705926074E+03 0.  0.
         13    1    3    3    0    0 -0.24561682085E+03  0.69382010359E+02 -0.45225556466E+02  0.25920423801E+03  0.00000000000E+00 0.  1.
          3    1    3    3  501    0  0.20813025358E+03 -0.68535197079E+02  0.19692834319E+02  0.22000700766E+03  0.00000000000E+00 0.  1.
         21    1    1    2  502  501  0.37486567266E+02 -0.84681328037E+00 -0.70946192104E+01  0.38161412970E+02  0.00000000000E+00 0. -1.
<scales pt_clust_4="550.00000" pt_clust_5="550.00000" pt_clust_6="37.49615"></scales>
<mgrwt>
<rscale>  0 0.30000000E+03</rscale>
<asrwt>  1 0.37496149E+02</asrwt>
<pdfrwt beam="1">  1        1 0.88135512E+00 0.30000000E+03</pdfrwt>
<pdfrwt beam="2">0</pdfrwt>
<totfact> 0.18736677E-04</totfact>
</mgrwt>
<clustering>
<clus scale="   37.496">  1  6  2 -1</clus>
<clus scale="  477.059">  4  5 -1 -1</clus>
<clus scale="  300.000">  1  4  2 -1</clus>
</clustering>
</event>
<event>
 6    1  0.1029244E-011  0.3000000E+03  0.7818608E-02  0.1093470E+00
          1   -1    0    0  502    0  0.00000000000E+00  0.00000000000E+00  0.23754224078E+03  0.23754224078E+03  0.00000000000E+00 0.  1.
         13   -1    0    0    0    0 -0.00000000000E+00 -0.00000000000E+00 -0.27500000000E+03  0.27500000000E+03  0.00000000000E+00 0.  1.
    9000005    2    1    2  501    0  0.26665171536E+02  0.34868463227E+02 -0.26771732640E+02  0.46736445569E+03  0.46452768236E+03 0.  0.
         13    1    3    3    0    0 -0.19735241712E+03  0.11347485827E+03 -0.32063347968E+02  0.22989688620E+03  0.00000000000E+00 0.  1.
          3    1    3    3  501    0  0.22401758865E+03 -0.78606395045E+02  0.52916153285E+01  0.23746756949E+03  0.00000000000E+00 0.  1.
         21    1    1    2  502  501 -0.26665171536E+02 -0.34868463227E+02 -0.10686026582E+02  0.45177785083E+02  0.00000000000E+00 0.  1.
<scales pt_clust_4="550.00000" pt_clust_5="550.00000" pt_clust_6="43.89582"></scales>
<mgrwt>
<rscale>  0 0.30000000E+03</rscale>
<asrwt>  1 0.43895820E+02</asrwt>
<pdfrwt beam="1">  1        1 0.86378997E+00 0.30000000E+03</pdfrwt>
<pdfrwt beam="2">0</pdfrwt>
<totfact> 0.28245872E-04</totfact>
</mgrwt>
<clustering>
<clus scale="   43.896">  1  6  2 -1</clus>
<clus scale="  464.528">  4  5 -1 -1</clus>
<clus scale="  300.000">  1  4  2 -1</clus>
</clustering>
</event>
<event>
 6    1  0.1029244E-011  0.3000000E+03  0.7818608E-02  0.1093470E+00
          1   -1    0    0  502    0  0.00000000000E+00  0.00000000000E+00  0.24026465649E+03  0.24026465649E+03  0.00000000000E+00 0.  1.
         13   -1    0    0    0    0 -0.00000000000E+00 -0.00000000000E+00 -0.27500000000E+03  0.27500000000E+03  0.00000000000E+00 0.  1.
    9000005    2    1    2  501    0 -0.23086895605E+02  0.35224752129E+02 -0.58489678589E+02  0.46691120422E+03  0.46131468892E+03 0.  0.
         13    1    3    3    0    0 -0.20951794971E+03 -0.99997109431E+02 -0.15922588562E+02  0.23270307684E+03  0.00000000000E+00 0.  1.
          3    1    3    3  501    0  0.18643105410E+03  0.13522186156E+03 -0.42567090027E+02  0.23420812738E+03  0.00000000000E+00 0.  1.
         21    1    1    2  502  501  0.23086895605E+02 -0.35224752129E+02  0.23754335077E+02  0.48353452268E+02  0.00000000000E+00 0. -1.
<scales pt_clust_4="550.00000" pt_clust_5="550.00000" pt_clust_6="42.11636"></scales>
<mgrwt>
<rscale>  0 0.30000000E+03</rscale>
<asrwt>  1 0.42116362E+02</asrwt>
<pdfrwt beam="1">  1        1 0.87368966E+00 0.30000000E+03</pdfrwt>
<pdfrwt beam="2">0</pdfrwt>
<totfact> 0.22437491E-04</totfact>
</mgrwt>
<clustering>
<clus scale="   42.116">  1  6  2 -1</clus>
<clus scale="  461.315">  4  5 -1 -1</clus>
<clus scale="  300.000">  1  4  2 -1</clus>
</clustering>
</event>
<event>
 6    1  0.1029244E-011  0.3000000E+03  0.7818608E-02  0.1093470E+00
          1   -1    0    0  502    0  0.00000000000E+00  0.00000000000E+00  0.23646583433E+03  0.23646583433E+03  0.00000000000E+00 0.  1.
         13   -1    0    0    0    0 -0.00000000000E+00 -0.00000000000E+00 -0.27500000000E+03  0.27500000000E+03  0.00000000000E+00 0.  1.
    9000005    2    1    2  501    0 -0.22642768774E+00 -0.31092219435E+02 -0.61937207445E+02  0.47254951714E+03  0.46743989037E+03 0.  0.
         13    1    3    3    0    0  0.81475789785E+01 -0.57320645254E+02  0.20048984845E+03  0.20868209973E+03  0.00000000000E+00 0.  1.
          3    1    3    3  501    0 -0.83740066662E+01  0.26228425819E+02 -0.26242705589E+03  0.26386741742E+03  0.00000000000E+00 0.  1.
         21    1    1    2  502  501  0.22642768774E+00  0.31092219435E+02  0.23403041772E+02  0.38916317183E+02  0.00000000000E+00 0.  1.
<scales pt_clust_4="550.00000" pt_clust_5="550.00000" pt_clust_6="31.09304"></scales>
<mgrwt>
<rscale>  0 0.30000000E+03</rscale>
<asrwt>  1 0.31093044E+02</asrwt>
<pdfrwt beam="1">  1        1 0.85987576E+00 0.30000000E+03</pdfrwt>
<pdfrwt beam="2">0</pdfrwt>
<totfact> 0.33179619E-04</totfact>
</mgrwt>
<clustering>
<clus scale="   31.093">  1  6  2 -1</clus>
<clus scale="  467.440">  4  5 -1 -1</clus>
<clus scale="  300.000">  1  4  2 -1</clus>
</clustering>
</event>
<event>
 6    1  0.1029244E-011  0.3000000E+03  0.7818608E-02  0.1093470E+00
          1   -1    0    0  502    0  0.00000000000E+00  0.00000000000E+00  0.22414739465E+03  0.22414739465E+03  0.00000000000E+00 0.  1.
         13   -1    0    0    0    0 -0.00000000000E+00 -0.00000000000E+00 -0.27500000000E+03  0.27500000000E+03  0.00000000000E+00 0.  1.
    9000005    2    1    2  501    0  0.30700747755E+02  0.67310770825E+01 -0.34258141716E+02  0.46360559482E+03  0.46126855948E+03 0.  0.
         13    1    3    3    0    0 -0.18754802523E+03  0.64565627314E+02 -0.10830319281E+03  0.22599239716E+03  0.00000000000E+00 0.  1.
          1    1    3    3  501    0  0.21824877299E+03 -0.57834550232E+02  0.74045051099E+02  0.23761319766E+03  0.00000000000E+00 0.  1.
         21    1    1    2  502  501 -0.30700747755E+02 -0.67310770825E+01 -0.16594463639E+02  0.35541799826E+02  0.00000000000E+00 0.  1.
<scales pt_clust_4="550.00000" pt_clust_5="550.00000" pt_clust_6="31.42999"></scales>
<mgrwt>
<rscale>  0 0.30000000E+03</rscale>
<asrwt>  1 0.31429990E+02</asrwt>
<pdfrwt beam="1">  1        1 0.81508144E+00 0.30000000E+03</pdfrwt>
<pdfrwt beam="2">0</pdfrwt>
<totfact> 0.81115605E-04</totfact>
</mgrwt>
<clustering>
<clus scale="   31.430">  1  6  2 -1</clus>
<clus scale="  461.269">  4  5 -1 -1</clus>
<clus scale="  300.000">  1  4  2 -1</clus>
</clustering>
</event>
<event>
 6    1  0.1029244E-011  0.3000000E+03  0.7818608E-02  0.1093470E+00
          1   -1    0    0  502    0  0.00000000000E+00  0.00000000000E+00  0.24770089060E+03  0.24770089060E+03  0.00000000000E+00 0.  1.
         13   -1    0    0    0    0 -0.00000000000E+00 -0.00000000000E+00 -0.27500000000E+03  0.27500000000E+03  0.00000000000E+00 0.  1.
    9000005    2    1    2  501    0  0.16792838111E+02 -0.43583550526E+02 -0.23659779518E+02  0.47585251805E+03  0.47296332678E+03 0.  0.
         13    1    3    3    0    0  0.20153647948E+03  0.10274410814E+03 -0.67638527852E+02  0.23611072565E+03  0.00000000000E+00 0.  1.
          3    1    3    3  501    0 -0.18474364137E+03 -0.14632765867E+03  0.43978748335E+02  0.23974179240E+03  0.00000000000E+00 0.  1.
         21    1    1    2  502  501 -0.16792838111E+02  0.43583550526E+02 -0.36393298848E+01  0.46848372546E+02  0.00000000000E+00 0.  1.
<scales pt_clust_4="550.00000" pt_clust_5="550.00000" pt_clust_6="46.70682"></scales>
<mgrwt>
<rscale>  0 0.30000000E+03</rscale>
<asrwt>  1 0.46706825E+02</asrwt>
<pdfrwt beam="1">  1        1 0.90073051E+00 0.30000000E+03</pdfrwt>
<pdfrwt beam="2">0</pdfrwt>
<totfact> 0.10254538E-04</totfact>
</mgrwt>
<clustering>
<clus scale="   46.707">  1  6  2 -1</clus>
<clus scale="  472.963">  4  5 -1 -1</clus>
<clus scale="  300.000">  1  4  2 -1</clus>
</clustering>
</event>
<event>
 6    1  0.1029244E-011  0.3000000E+03  0.7818608E-02  0.1093470E+00
          1   -1    0    0  502    0  0.00000000000E+00  0.00000000000E+00  0.23077157231E+03  0.23077157231E+03  0.00000000000E+00 0.  1.
         13   -1    0    0    0    0 -0.00000000000E+00 -0.00000000000E+00 -0.27500000000E+03  0.27500000000E+03  0.00000000000E+00 0.  1.
    9000005    2    1    2  501    0  0.23546384695E+02 -0.20377942430E+02 -0.36162403001E+02  0.47360398731E+03  0.47119351082E+03 0.  0.
         13    1    3    3    0    0  0.87056933498E+02 -0.87212456743E+01 -0.24228790012E+03  0.25760123513E+03  0.00000000000E+00 0.  1.
          3    1    3    3  501    0 -0.63510548803E+02 -0.11656696755E+02  0.20612549712E+03  0.21600275218E+03  0.00000000000E+00 0.  1.
         21    1    1    2  502  501 -0.23546384695E+02  0.20377942430E+02 -0.80660246929E+01  0.32167584992E+02  0.00000000000E+00 0.  1.
<scales pt_clust_4="550.00000" pt_clust_5="550.00000" pt_clust_6="31.13991"></scales>
<mgrwt>
<rscale>  0 0.30000000E+03</rscale>
<asrwt>  1 0.31139906E+02</asrwt>
<pdfrwt beam="1">  1        1 0.83916935E+00 0.30000000E+03</pdfrwt>
<pdfrwt beam="2">0</pdfrwt>
<totfact> 0.51557115E-04</totfact>
</mgrwt>
<clustering>
<clus scale="   31.140">  1  6  2 -1</clus>
<clus scale="  471.194">  4  5 -1 -1</clus>
<clus scale="  300.000">  1  4  2 -1</clus>
</clustering>
</event>
<event>
 6    1  0.1029244E-011  0.3000000E+03  0.7818608E-02  0.1093470E+00
          1   -1    0    0  502    0  0.00000000000E+00  0.00000000000E+00  0.24043062438E+03  0.24043062438E+03  0.00000000000E+00 0.  1.
         13   -1    0    0    0    0 -0.00000000000E+00 -0.00000000000E+00 -0.27500000000E+03  0.27500000000E+03  0.00000000000E+00 0.  1.
    9000005    2    1    2  501    0 -0.19189764684E+02  0.25899548841E+02 -0.13812455956E+02  0.47709156580E+03  0.47580095053E+03 0.  0.
         13    1    3    3    0    0  0.18070206719E+03  0.14762424432E+03 -0.54314600525E+02  0.23957510394E+03  0.00000000000E+00 0.  1.
          1    1    3    3  501    0 -0.19989183188E+03 -0.12172469548E+03  0.40502144569E+02  0.23751646186E+03  0.00000000000E+00 0.  1.
         21    1    1    2  502  501  0.19189764684E+02 -0.25899548841E+02 -0.20756919662E+02  0.38339058578E+02  0.00000000000E+00 0.  1.
<scales pt_clust_4="550.00000" pt_clust_5="550.00000" pt_clust_6="32.23406"></scales>
<mgrwt>
<rscale>  0 0.30000000E+03</rscale>
<asrwt>  1 0.32234062E+02</asrwt>
<pdfrwt beam="1">  1        1 0.87429318E+00 0.30000000E+03</pdfrwt>
<pdfrwt beam="2">0</pdfrwt>
<totfact> 0.23238672E-04</totfact>
</mgrwt>
<clustering>
<clus scale="   32.234">  1  6  2 -1</clus>
<clus scale="  475.801">  4  5 -1 -1</clus>
<clus scale="  300.000">  1  4  2 -1</clus>
</clustering>
</event>
<event>
 6    1  0.1029244E-011  0.3000000E+03  0.7818608E-02  0.1093470E+00
          1   -1    0    0  502    0  0.00000000000E+00  0.00000000000E+00  0.22215210460E+03  0.22215210460E+03  0.00000000000E+00 0.  1.
         13   -1    0    0    0    0 -0.00000000000E+00 -0.00000000000E+00 -0.27500000000E+03  0.27500000000E+03  0.00000000000E+00 0.  1.
    9000005    2    1    2  501    0  0.55777509296E+00 -0.32007558271E+02 -0.51131677885E+02  0.46509371565E+03  0.46116474383E+03 0.  0.
         13    1    3    3    0    0  0.50216107901E+02  0.56224516312E+02 -0.23958502343E+03  0.25116496010E+03  0.00000000000E+00 0.  1.
          1    1    3    3  501    0 -0.49658332808E+02 -0.88232074583E+02  0.18845334555E+03  0.21392875555E+03  0.00000000000E+00 0.  1.
         21    1    1    2  502  501 -0.55777509296E+00  0.32007558271E+02 -0.17162175150E+01  0.32058388950E+02  0.00000000000E+00 0. -1.
<scales pt_clust_4="550.00000" pt_clust_5="550.00000" pt_clust_6="32.01242"></scales>
<mgrwt>
<rscale>  0 0.30000000E+03</rscale>
<asrwt>  1 0.32012418E+02</asrwt>
<pdfrwt beam="1">  1        1 0.80782583E+00 0.30000000E+03</pdfrwt>
<pdfrwt beam="2">0</pdfrwt>
<totfact> 0.92203506E-04</totfact>
</mgrwt>
<clustering>
<clus scale="   32.012">  1  6  2 -1</clus>
<clus scale="  461.165">  4  5 -1 -1</clus>
<clus scale="  300.000">  1  4  2 -1</clus>
</clustering>
</event>
<event>
 6    1  0.1029244E-011  0.3000000E+03  0.7818608E-02  0.1093470E+00
          1   -1    0    0  502    0  0.00000000000E+00  0.00000000000E+00  0.23234490091E+03  0.23234490091E+03  0.00000000000E+00 0.  1.
         13   -1    0    0    0    0 -0.00000000000E+00 -0.00000000000E+00 -0.27500000000E+03  0.27500000000E+03  0.00000000000E+00 0.  1.
    9000005    2    1    2  501    0 -0.11395453285E+02 -0.34532369478E+02 -0.35198359643E+02  0.47022423469E+03  0.46749285072E+03 0.  0.
         13    1    3    3    0    0  0.43217027954E+02 -0.68044840371E+02  0.20571027429E+03  0.22094010219E+03  0.00000000000E+00 0.  1.
          1    1    3    3  501    0 -0.54612481239E+02  0.33512470892E+02 -0.24090863394E+03  0.24928413250E+03  0.00000000000E+00 0.  1.
         21    1    1    2  502  501  0.11395453285E+02  0.34532369478E+02 -0.74567394438E+01  0.37120666218E+02  0.00000000000E+00 0. -1.
<scales pt_clust_4="550.00000" pt_clust_5="550.00000" pt_clust_6="36.36402"></scales>
<mgrwt>
<rscale>  0 0.30000000E+03</rscale>
<asrwt>  1 0.36364024E+02</asrwt>
<pdfrwt beam="1">  1        1 0.84489055E+00 0.30000000E+03</pdfrwt>
<pdfrwt beam="2">0</pdfrwt>
<totfact> 0.44960421E-04</totfact>
</mgrwt>
<clustering>
<clus scale="   36.364">  1  6  2 -1</clus>
<clus scale="  467.493">  4  5 -1 -1</clus>
<clus scale="  300.000">  1  4  2 -1</clus>
</clustering>
</event>
<event>
 6    1  0.1029244E-011  0.3000000E+03  0.7818608E-02  0.1093470E+00
          1   -1    0    0  502    0  0.00000000000E+00  0.00000000000E+00  0.23585739663E+03  0.23585739663E+03  0.00000000000E+00 0.  1.
         13   -1    0    0    0    0 -0.00000000000E+00 -0.00000000000E+00 -0.27500000000E+03  0.27500000000E+03  0.00000000000E+00 0.  1.
    9000005    2    1    2  501    0 -0.17699168254E+02 -0.24572248636E+02 -0.33001499985E+02  0.47995805827E+03  0.47786356080E+03 0.  0.
         13    1    3    3    0    0 -0.27568396237E+02 -0.17032019528E+03  0.16175556633E+03  0.23650337975E+03  0.00000000000E+00 0.  1.
          3    1    3    3  501    0  0.98692279831E+01  0.14574794665E+03 -0.19475706632E+03  0.24345467852E+03  0.00000000000E+00 0.  1.
         21    1    1    2  502  501  0.17699168254E+02  0.24572248636E+02 -0.61411033873E+01  0.30899338354E+02  0.00000000000E+00 0.  1.
<scales pt_clust_4="550.00000" pt_clust_5="550.00000" pt_clust_6="30.28295"></scales>
<mgrwt>
<rscale>  0 0.30000000E+03</rscale>
<asrwt>  1 0.30282947E+02</asrwt>
<pdfrwt beam="1">  1        1 0.85766326E+00 0.30000000E+03</pdfrwt>
<pdfrwt beam="2">0</pdfrwt>
<totfact> 0.35185657E-04</totfact>
</mgrwt>
<clustering>
<clus scale="   30.283">  1  6  2 -1</clus>
<clus scale="  477.864">  4  5 -1 -1</clus>
<clus scale="  300.000">  1  4  2 -1</clus>
</clustering>
</event>
<event>
 6    1  0.1029244E-011  0.3000000E+03  0.7818608E-02  0.1093470E+00
          1   -1    0    0  502    0  0.00000000000E+00  0.00000000000E+00  0.23068639849E+03  0.23068639849E+03  0.00000000000E+00 0.  1.
         13   -1    0    0    0    0 -0.00000000000E+00 -0.00000000000E+00 -0.27500000000E+03  0.27500000000E+03  0.00000000000E+00 0.  1.
    9000005    2    1    2  501    0  0.24505939258E+01  0.36240352244E+02 -0.53640994550E+02  0.46818481449E+03  0.46368124362E+03 0.  0.
         13    1    3    3    0    0  0.39290389890E+02 -0.21124598545E+03 -0.26933663855E+02  0.21655027905E+03  0.00000000000E+00 0.  1.
          1    1    3    3  501    0 -0.36839795964E+02  0.24748633770E+03 -0.26707330695E+02  0.25163453544E+03  0.00000000000E+00 0.  1.
         21    1    1    2  502  501 -0.24505939258E+01 -0.36240352244E+02  0.93273930362E+01  0.37501583996E+02  0.00000000000E+00 0.  1.
<scales pt_clust_4="550.00000" pt_clust_5="550.00000" pt_clust_6="36.32311"></scales>
<mgrwt>
<rscale>  0 0.30000000E+03</rscale>
<asrwt>  1 0.36323113E+02</asrwt>
<pdfrwt beam="1">  1        1 0.83885963E+00 0.30000000E+03</pdfrwt>
<pdfrwt beam="2">0</pdfrwt>
<totfact> 0.50350503E-04</totfact>
</mgrwt>
<clustering>
<clus scale="   36.323">  1  6  2 -1</clus>
<clus scale="  463.681">  4  5 -1 -1</clus>
<clus scale="  300.000">  1  4  2 -1</clus>
</clustering>
</event>
<event>
 6    1  0.1029244E-011  0.3000000E+03  0.7818608E-02  0.1093470E+00
          1   -1    0    0  502    0  0.00000000000E+00  0.00000000000E+00  0.22956472285E+03  0.22956472285E+03  0.00000000000E+00 0.  1.
         13   -1    0    0    0    0 -0.00000000000E+00 -0.00000000000E+00 -0.27500000000E+03  0.27500000000E+03  0.00000000000E+00 0.  1.
    9000005    2    1    2  501    0  0.35837744158E+02 -0.10062118188E+02 -0.65532658491E+02  0.46226230134E+03  0.45607709412E+03 0.  0.
         13    1    3    3    0    0  0.12142651925E+03  0.15254829853E+03 -0.16310752730E+03  0.25420355706E+03  0.00000000000E+00 0.  1.
          3    1    3    3  501    0 -0.85588775088E+02 -0.16261041672E+03  0.97574868813E+02  0.20805874428E+03  0.00000000000E+00 0.  1.
         21    1    1    2  502  501 -0.35837744158E+02  0.10062118188E+02  0.20097381338E+02  0.42302421507E+02  0.00000000000E+00 0.  1.
<scales pt_clust_4="550.00000" pt_clust_5="550.00000" pt_clust_6="37.22352"></scales>
<mgrwt>
<rscale>  0 0.30000000E+03</rscale>
<asrwt>  1 0.37223516E+02</asrwt>
<pdfrwt beam="1">  1        1 0.83478081E+00 0.30000000E+03</pdfrwt>
<pdfrwt beam="2">0</pdfrwt>
<totfact> 0.53680358E-04</totfact>
</mgrwt>
<clustering>
<clus scale="   37.224">  1  6  2 -1</clus>
<clus scale="  456.077">  4  5 -1 -1</clus>
<clus scale="  300.000">  1  4  2 -1</clus>
</clustering>
</event>
<event>
 6    1  0.1029244E-011  0.3000000E+03  0.7818608E-02  0.1093470E+00
          1   -1    0    0  502    0  0.00000000000E+00  0.00000000000E+00  0.25094722614E+03  0.25094722614E+03  0.00000000000E+00 0.  1.
         13   -1    0    0    0    0 -0.00000000000E+00 -0.00000000000E+00 -0.27500000000E+03  0.27500000000E+03  0.00000000000E+00 0.  1.
    9000005    2    1    2  501    0  0.15841276530E+02 -0.35208021928E+02 -0.63447104530E+02  0.47078868973E+03  0.46489343344E+03 0.  0.
         13    1    3    3    0    0  0.23151936305E+03 -0.79732718978E+02 -0.15173443071E+02  0.24533396691E+03  0.00000000000E+00 0.  1.
          1    1    3    3  501    0 -0.21567808652E+03  0.44524697050E+02 -0.48273661459E+02  0.22545472282E+03  0.00000000000E+00 0.  1.
         21    1    1    2  502  501 -0.15841276530E+02  0.35208021928E+02  0.39394330673E+02  0.55158536415E+02  0.00000000000E+00 0.  1.
<scales pt_clust_4="550.00000" pt_clust_5="550.00000" pt_clust_6="38.60765"></scales>
<mgrwt>
<rscale>  0 0.30000000E+03</rscale>
<asrwt>  1 0.38607653E+02</asrwt>
<pdfrwt beam="1">  1        1 0.91253537E+00 0.30000000E+03</pdfrwt>
<pdfrwt beam="2">0</pdfrwt>
<totfact> 0.61039350E-05</totfact>
</mgrwt>
<clustering>
<clus scale="   38.608">  1  6  2 -1</clus>
<clus scale="  464.893">  4  5 -1 -1</clus>
<clus scale="  300.000">  1  4  2 -1</clus>
</clustering>
</event>
<event>
 6    1  0.1029244E-011  0.3000000E+03  0.7818608E-02  0.1093470E+00
          1   -1    0    0  502    0  0.00000000000E+00  0.00000000000E+00  0.23954633264E+03  0.23954633264E+03  0.00000000000E+00 0.  1.
         13   -1    0    0    0    0 -0.00000000000E+00 -0.00000000000E+00 -0.27500000000E+03  0.27500000000E+03  0.00000000000E+00 0.  1.
    9000005    2    1    2  501    0  0.34508487684E+02  0.12201275960E+02 -0.55155359471E+02  0.47297875478E+03  0.46832369354E+03 0.  0.
         13    1    3    3    0    0  0.19138816291E+03  0.85501508309E+02  0.10735049895E+03  0.23550810273E+03  0.00000000000E+00 0.  1.
          1    1    3    3  501    0 -0.15687967523E+03 -0.73300232349E+02 -0.16250585842E+03  0.23747065205E+03  0.00000000000E+00 0.  1.
         21    1    1    2  502  501 -0.34508487684E+02 -0.12201275960E+02  0.19701692110E+02  0.41567577861E+02  0.00000000000E+00 0. -1.
<scales pt_clust_4="550.00000" pt_clust_5="550.00000" pt_clust_6="36.60201"></scales>
<mgrwt>
<rscale>  0 0.30000000E+03</rscale>
<asrwt>  1 0.36602006E+02</asrwt>
<pdfrwt beam="1">  1        1 0.87107757E+00 0.30000000E+03</pdfrwt>
<pdfrwt beam="2">0</pdfrwt>
<totfact> 0.24486492E-04</totfact>
</mgrwt>
<clustering>
<clus scale="   36.602">  1  6  2 -1</clus>
<clus scale="  468.324">  4  5 -1 -1</clus>
<clus scale="  300.000">  1  4  2 -1</clus>
</clustering>
</event>
<event>
 6    1  0.1029244E-011  0.3000000E+03  0.7818608E-02  0.1093470E+00
          1   -1    0    0  502    0  0.00000000000E+00  0.00000000000E+00  0.23596261124E+03  0.23596261124E+03  0.00000000000E+00 0.  1.
         13   -1    0    0    0    0 -0.00000000000E+00 -0.00000000000E+00 -0.27500000000E+03  0.27500000000E+03  0.00000000000E+00 0.  1.
    9000005    2    1    2  501    0  0.35131259568E+02  0.31844359084E+02 -0.36189910681E+02  0.46346127720E+03  0.45960676369E+03 0.  0.
         13    1    3    3    0    0  0.11288740056E+03 -0.15050047235E+03 -0.14481980534E+03  0.23741679258E+03  0.00000000000E+00 0.  1.
          1    1    3    3  501    0 -0.77756140994E+02  0.18234483143E+03  0.10862989466E+03  0.22604448462E+03  0.00000000000E+00 0.  1.
         21    1    1    2  502  501 -0.35131259568E+02 -0.31844359084E+02 -0.28474780763E+01  0.47501334041E+02  0.00000000000E+00 0. -1.
<scales pt_clust_4="550.00000" pt_clust_5="550.00000" pt_clust_6="47.41591"></scales>
<mgrwt>
<rscale>  0 0.30000000E+03</rscale>
<asrwt>  1 0.47415911E+02</asrwt>
<pdfrwt beam="1">  1        1 0.85804586E+00 0.30000000E+03</pdfrwt>
<pdfrwt beam="2">0</pdfrwt>
<totfact> 0.32097672E-04</totfact>
</mgrwt>
<clustering>
<clus scale="   47.416">  1  6  2 -1</clus>
<clus scale="  459.607">  4  5 -1 -1</clus>
<clus scale="  300.000">  1  4  2 -1</clus>
</clustering>
</event>
<event>
 6    1  0.1029244E-011  0.3000000E+03  0.7818608E-02  0.1093470E+00
          1   -1    0    0  502    0  0.00000000000E+00  0.00000000000E+00  0.23275340018E+03  0.23275340018E+03  0.00000000000E+00 0.  1.
         13   -1    0    0    0    0 -0.00000000000E+00 -0.00000000000E+00 -0.27500000000E+03  0.27500000000E+03  0.00000000000E+00 0.  1.
    9000005    2    1    2  501    0 -0.19625280068E+02  0.24805107900E+02 -0.56153811519E+02  0.47320118559E+03  0.46879170908E+03 0.  0.
         13    1    3    3    0    0 -0.45592622336E+02  0.23885460412E+03 -0.80656396493E+02  0.25619458116E+03  0.00000000000E+00 0.  1.
          1    1    3    3  501    0  0.25967342268E+02 -0.21404949622E+03  0.24502584974E+02  0.21700660443E+03  0.00000000000E+00 0.  1.
         21    1    1    2  502  501  0.19625280068E+02 -0.24805107900E+02  0.13907211696E+02  0.34552214586E+02  0.00000000000E+00 0. -1.
<scales pt_clust_4="550.00000" pt_clust_5="550.00000" pt_clust_6="31.62981"></scales>
<mgrwt>
<rscale>  0 0.30000000E+03</rscale>
<asrwt>  1 0.31629812E+02</asrwt>
<pdfrwt beam="1">  1        1 0.84637600E+00 0.30000000E+03</pdfrwt>
<pdfrwt beam="2">0</pdfrwt>
<totfact> 0.44782711E-04</totfact>
</mgrwt>
<clustering>
<clus scale="   31.630">  1  6  2 -1</clus>
<clus scale="  468.792">  4  5 -1 -1</clus>
<clus scale="  300.000">  1  4  2 -1</clus>
</clustering>
</event>
<event>
 6    1  0.1029244E-011  0.3000000E+03  0.7818608E-02  0.1093470E+00
          1   -1    0    0  502    0  0.00000000000E+00  0.00000000000E+00  0.23670587765E+03  0.23670587765E+03  0.00000000000E+00 0.  1.
         13   -1    0    0    0    0 -0.00000000000E+00 -0.00000000000E+00 -0.27500000000E+03  0.27500000000E+03  0.00000000000E+00 0.  1.
    9000005    2    1    2  501    0  0.30809755576E+02 -0.59405261301E+01 -0.34105295272E+02  0.48005027528E+03  0.47780808359E+03 0.  0.
         13    1    3    3    0    0 -0.17190076488E+03  0.50691128496E+02  0.12303543219E+03  0.21738716855E+03  0.00000000000E+00 0.  1.
          3    1    3    3  501    0  0.20271052046E+03 -0.56631654626E+02 -0.15714072746E+03  0.26266310673E+03  0.00000000000E+00 0.  1.
         21    1    1    2  502  501 -0.30809755576E+02  0.59405261301E+01 -0.41888270746E+01  0.31655602373E+02  0.00000000000E+00 0.  1.
<scales pt_clust_4="550.00000" pt_clust_5="550.00000" pt_clust_6="31.37725"></scales>
<mgrwt>
<rscale>  0 0.30000000E+03</rscale>
<asrwt>  1 0.31377251E+02</asrwt>
<pdfrwt beam="1">  1        1 0.86074865E+00 0.30000000E+03</pdfrwt>
<pdfrwt beam="2">0</pdfrwt>
<totfact> 0.32417517E-04</totfact>
</mgrwt>
<clustering>
<clus scale="   31.377">  1  6  2 -1</clus>
<clus scale="  477.808">  4  5 -1 -1</clus>
<clus scale="  300.000">  1  4  2 -1</clus>
</clustering>
</event>
<event>
 6    1  0.1029244E-011  0.3000000E+03  0.7818608E-02  0.1093470E+00
          1   -1    0    0  502    0  0.00000000000E+00  0.00000000000E+00  0.23539722209E+03  0.23539722209E+03  0.00000000000E+00 0.  1.
         13   -1    0    0    0    0 -0.00000000000E+00 -0.00000000000E+00 -0.27500000000E+03  0.27500000000E+03  0.00000000000E+00 0.  1.
    9000005    2    1    2  501    0  0.15128056177E+02 -0.28497586286E+02 -0.31430222319E+02  0.47711417576E+03  0.47498327058E+03 0.  0.
         13    1    3    3    0    0 -0.30414748807E+02  0.19763834414E+03  0.86697582125E+02  0.21795055119E+03  0.00000000000E+00 0.  1.
          3    1    3    3  501    0  0.45542804984E+02 -0.22613593043E+03 -0.11812780444E+03  0.25916362457E+03  0.00000000000E+00 0.  1.
         21    1    1    2  502  501 -0.15128056177E+02  0.28497586286E+02 -0.81725555950E+01  0.33283046327E+02  0.00000000000E+00 0. -1.
<scales pt_clust_4="550.00000" pt_clust_5="550.00000" pt_clust_6="32.26409"></scales>
<mgrwt>
<rscale>  0 0.30000000E+03</rscale>
<asrwt>  1 0.32264091E+02</asrwt>
<pdfrwt beam="1">  1        1 0.85598990E+00 0.30000000E+03</pdfrwt>
<pdfrwt beam="2">0</pdfrwt>
<totfact> 0.36162132E-04</totfact>
</mgrwt>
<clustering>
<clus scale="   32.264">  1  6  2 -1</clus>
<clus scale="  474.983">  4  5 -1 -1</clus>
<clus scale="  300.000">  1  4  2 -1</clus>
</clustering>
</event>
<event>
 6    1  0.1029244E-011  0.3000000E+03  0.7818608E-02  0.1093470E+00
          1   -1    0    0  502    0  0.00000000000E+00  0.00000000000E+00  0.23704234299E+03  0.23704234299E+03  0.00000000000E+00 0.  1.
         13   -1    0    0    0    0 -0.00000000000E+00 -0.00000000000E+00 -0.27500000000E+03  0.27500000000E+03  0.00000000000E+00 0.  1.
    9000005    2    1    2  501    0  0.34095895288E+02  0.29804095703E+02 -0.50745009867E+02  0.46498566877E+03  0.45998456706E+03 0.  0.
         13    1    3    3    0    0  0.24318849596E+03  0.60164867767E+02 -0.37192385464E+02  0.25326612370E+03  0.00000000000E+00 0.  1.
          3    1    3    3  501    0 -0.20909260067E+03 -0.30360772064E+02 -0.13552624403E+02  0.21171954506E+03  0.00000000000E+00 0.  1.
         21    1    1    2  502  501 -0.34095895288E+02 -0.29804095703E+02  0.12787352861E+02  0.47056674228E+02  0.00000000000E+00 0.  1.
<scales pt_clust_4="550.00000" pt_clust_5="550.00000" pt_clust_6="45.28592"></scales>
<mgrwt>
<rscale>  0 0.30000000E+03</rscale>
<asrwt>  1 0.45285916E+02</asrwt>
<pdfrwt beam="1">  1        1 0.86197216E+00 0.30000000E+03</pdfrwt>
<pdfrwt beam="2">0</pdfrwt>
<totfact> 0.29389718E-04</totfact>
</mgrwt>
<clustering>
<clus scale="   45.286">  1  6  2 -1</clus>
<clus scale="  459.985">  4  5 -1 -1</clus>
<clus scale="  300.000">  1  4  2 -1</clus>
</clustering>
</event>
<event>
 6    1  0.1029244E-011  0.3000000E+03  0.7818608E-02  0.1093470E+00
          1   -1    0    0  502    0  0.00000000000E+00  0.00000000000E+00  0.23147944666E+03  0.23147944666E+03  0.00000000000E+00 0.  1.
         13   -1    0    0    0    0 -0.00000000000E+00 -0.00000000000E+00 -0.27500000000E+03  0.27500000000E+03  0.00000000000E+00 0.  1.
    9000005    2    1    2  501    0  0.32080351404E+02 -0.18355664909E+02 -0.55138901196E+02  0.46773586155E+03  0.46300157491E+03 0.  0.
         13    1    3    3    0    0 -0.12147542497E+02 -0.14602649185E+03  0.15793039568E+03  0.21543748279E+03  0.00000000000E+00 0.  1.
          3    1    3    3  501    0  0.44227893901E+02  0.12767082694E+03 -0.21306929688E+03  0.25229837876E+03  0.00000000000E+00 0.  1.
         21    1    1    2  502  501 -0.32080351404E+02  0.18355664909E+02  0.11618347855E+02  0.38743585112E+02  0.00000000000E+00 0. -1.
<scales pt_clust_4="550.00000" pt_clust_5="550.00000" pt_clust_6="36.96051"></scales>
<mgrwt>
<rscale>  0 0.30000000E+03</rscale>
<asrwt>  1 0.36960511E+02</asrwt>
<pdfrwt beam="1">  1        1 0.84174344E+00 0.30000000E+03</pdfrwt>
<pdfrwt beam="2">0</pdfrwt>
<totfact> 0.47664193E-04</totfact>
</mgrwt>
<clustering>
<clus scale="   36.961">  1  6  2 -1</clus>
<clus scale="  463.002">  4  5 -1 -1</clus>
<clus scale="  300.000">  1  4  2 -1</clus>
</clustering>
</event>
<event>
 6    1  0.1029244E-011  0.3000000E+03  0.7818608E-02  0.1093470E+00
          1   -1    0    0  502    0  0.00000000000E+00  0.00000000000E+00  0.24332910569E+03  0.24332910569E+03  0.00000000000E+00 0.  1.
         13   -1    0    0    0    0 -0.00000000000E+00 -0.00000000000E+00 -0.27500000000E+03  0.27500000000E+03  0.00000000000E+00 0.  1.
    9000005    2    1    2  501    0  0.30478741058E+02 -0.13442939657E+02 -0.38792865722E+02  0.48426462625E+03  0.48155755162E+03 0.  0.
         13    1    3    3    0    0 -0.74522071502E+02 -0.10342576525E+02 -0.24313132112E+03  0.25450608507E+03  0.00000000000E+00 0.  1.
          1    1    3    3  501    0  0.10500081256E+03 -0.31003631329E+01  0.20433845540E+03  0.22975854118E+03  0.00000000000E+00 0.  1.
         21    1    1    2  502  501 -0.30478741058E+02  0.13442939657E+02  0.71219714138E+01  0.34064479446E+02  0.00000000000E+00 0.  1.
<scales pt_clust_4="550.00000" pt_clust_5="550.00000" pt_clust_6="33.31165"></scales>
<mgrwt>
<rscale>  0 0.30000000E+03</rscale>
<asrwt>  1 0.33311654E+02</asrwt>
<pdfrwt beam="1">  1        1 0.88483311E+00 0.30000000E+03</pdfrwt>
<pdfrwt beam="2">0</pdfrwt>
<totfact> 0.17219510E-04</totfact>
</mgrwt>
<clustering>
<clus scale="   33.312">  1  6  2 -1</clus>
<clus scale="  481.558">  4  5 -1 -1</clus>
<clus scale="  300.000">  1  4  2 -1</clus>
</clustering>
</event>
<event>
 6    1  0.1029244E-011  0.3000000E+03  0.7818608E-02  0.1093470E+00
          1   -1    0    0  502    0  0.00000000000E+00  0.00000000000E+00  0.22864766608E+03  0.22864766608E+03  0.00000000000E+00 0.  1.
         13   -1    0    0    0    0 -0.00000000000E+00 -0.00000000000E+00 -0.27500000000E+03  0.27500000000E+03  0.00000000000E+00 0.  1.
    9000005    2    1    2  501    0  0.30198969577E+02 -0.41562450319E+01 -0.65621756649E+02  0.46758434970E+03  0.46195200725E+03 0.  0.
         13    1    3    3    0    0  0.22527034811E+03  0.93875458808E+02 -0.46415172539E+02  0.24842242199E+03  0.00000000000E+00 0.  1.
          3    1    3    3  501    0 -0.19507137854E+03 -0.98031703840E+02 -0.19206584109E+02  0.21916192771E+03  0.00000000000E+00 0.  1.
         21    1    1    2  502  501 -0.30198969577E+02  0.41562450319E+01  0.19269422729E+02  0.36063316383E+02  0.00000000000E+00 0.  1.
<scales pt_clust_4="550.00000" pt_clust_5="550.00000" pt_clust_6="30.48364"></scales>
<mgrwt>
<rscale>  0 0.30000000E+03</rscale>
<asrwt>  1 0.30483637E+02</asrwt>
<pdfrwt beam="1">  1        1 0.83144606E+00 0.30000000E+03</pdfrwt>
<pdfrwt beam="2">0</pdfrwt>
<totfact> 0.59064138E-04</totfact>
</mgrwt>
<clustering>
<clus scale="   30.484">  1  6  2 -1</clus>
<clus scale="  461.952">  4  5 -1 -1</clus>
<clus scale="  300.000">  1  4  2 -1</clus>
</clustering>
</event>
<event>
 6    1  0.1029244E-011  0.3000000E+03  0.7818608E-02  0.1093470E+00
          1   -1    0    0  502    0  0.00000000000E+00  0.00000000000E+00  0.24007115819E+03  0.24007115819E+03  0.00000000000E+00 0.  1.
         13   -1    0    0    0    0 -0.00000000000E+00 -0.00000000000E+00 -0.27500000000E+03  0.27500000000E+03  0.00000000000E+00 0.  1.
    9000005    2    1    2  501    0  0.41859242594E+02  0.10371107740E+02 -0.50151013803E+02  0.46933855946E+03  0.46465449869E+03 0.  0.
         13    1    3    3    0    0  0.12980327306E+03 -0.16834645677E+03 -0.13608789151E+03  0.25240707878E+03  0.00000000000E+00 0.  1.
          3    1    3    3  501    0 -0.87944030470E+02  0.17871756451E+03  0.85936877706E+02  0.21693148068E+03  0.00000000000E+00 0.  1.
         21    1    1    2  502  501 -0.41859242594E+02 -0.10371107740E+02  0.15222171996E+02  0.45732598730E+02  0.00000000000E+00 0. -1.
<scales pt_clust_4="550.00000" pt_clust_5="550.00000" pt_clust_6="43.12489"></scales>
<mgrwt>
<rscale>  0 0.30000000E+03</rscale>
<asrwt>  1 0.43124889E+02</asrwt>
<pdfrwt beam="1">  1        1 0.87298603E+00 0.30000000E+03</pdfrwt>
<pdfrwt beam="2">0</pdfrwt>
<totfact> 0.22718811E-04</totfact>
</mgrwt>
<clustering>
<clus scale="   43.125">  1  6  2 -1</clus>
<clus scale="  464.654">  4  5 -1 -1</clus>
<clus scale="  300.000">  1  4  2 -1</clus>
</clustering>
</event>
<event>
 6    1  0.1029244E-011  0.3000000E+03  0.7818608E-02  0.1093470E+00
          1   -1    0    0  502    0  0.00000000000E+00  0.00000000000E+00  0.25467396850E+03  0.25467396850E+03  0.00000000000E+00 0.  1.
         13   -1    0    0    0    0 -0.00000000000E+00 -0.00000000000E+00 -0.27500000000E+03  0.27500000000E+03  0.00000000000E+00 0.  1.
    9000005    2    1    2  501    0 -0.76061688540E-03 -0.47269318918E+02 -0.64655711768E+02  0.46487034928E+03  0.45791887061E+03 0.  0.
         13    1    3    3    0    0  0.17742719806E+03  0.12162129975E+03 -0.38377521343E+02  0.21850625919E+03  0.00000000000E+00 0.  1.
          3    1    3    3  501    0 -0.17742795867E+03 -0.16889061866E+03 -0.26278190424E+02  0.24636409009E+03  0.00000000000E+00 0.  1.
         21    1    1    2  502  501  0.76061688542E-03  0.47269318918E+02  0.44329680267E+02  0.64803619221E+02  0.00000000000E+00 0.  1.
<scales pt_clust_4="550.00000" pt_clust_5="550.00000" pt_clust_6="47.26932"></scales>
<mgrwt>
<rscale>  0 0.30000000E+03</rscale>
<asrwt>  1 0.47269319E+02</asrwt>
<pdfrwt beam="1">  1        1 0.92608716E+00 0.30000000E+03</pdfrwt>
<pdfrwt beam="2">0</pdfrwt>
<totfact> 0.29487788E-05</totfact>
</mgrwt>
<clustering>
<clus scale="   47.269">  1  6  2 -1</clus>
<clus scale="  457.919">  4  5 -1 -1</clus>
<clus scale="  300.000">  1  4  2 -1</clus>
</clustering>
</event>
<event>
 6    1  0.1029244E-011  0.3000000E+03  0.7818608E-02  0.1093470E+00
          1   -1    0    0  502    0  0.00000000000E+00  0.00000000000E+00  0.26378145631E+03  0.26378145631E+03  0.00000000000E+00 0.  1.
         13   -1    0    0    0    0 -0.00000000000E+00 -0.00000000000E+00 -0.27500000000E+03  0.27500000000E+03  0.00000000000E+00 0.  1.
    9000005    2    1    2  501    0 -0.17906853078E+01 -0.47416290110E+02  0.87118318881E+01  0.48731563277E+03  0.48492176565E+03 0.  0.
         13    1    3    3    0    0  0.30532116183E+02 -0.25194714684E+03 -0.73968529323E+02  0.26434999196E+03  0.00000000000E+00 0.  1.
          3    1    3    3  501    0 -0.32322801491E+02  0.20453085673E+03  0.82680361211E+02  0.22296564081E+03  0.00000000000E+00 0.  1.
         21    1    1    2  502  501  0.17906853078E+01  0.47416290110E+02 -0.19930375583E+02  0.51465823539E+02  0.00000000000E+00 0.  1.
<scales pt_clust_4="550.00000" pt_clust_5="550.00000" pt_clust_6="47.45011"></scales>
<mgrwt>
<rscale>  0 0.30000000E+03</rscale>
<asrwt>  1 0.47450115E+02</asrwt>
<pdfrwt beam="1">  1        1 0.95920530E+00 0.30000000E+03</pdfrwt>
<pdfrwt beam="2">0</pdfrwt>
<totfact> 0.74648937E-06</totfact>
</mgrwt>
<clustering>
<clus scale="   47.450">  1  6  2 -1</clus>
<clus scale="  484.922">  4  5 -1 -1</clus>
<clus scale="  300.000">  1  4  2 -1</clus>
</clustering>
</event>
<event>
 6    1  0.1029244E-011  0.3000000E+03  0.7818608E-02  0.1093470E+00
          1   -1    0    0  502    0  0.00000000000E+00  0.00000000000E+00  0.22173124905E+03  0.22173124905E+03  0.00000000000E+00 0.  1.
         13   -1    0    0    0    0 -0.00000000000E+00 -0.00000000000E+00 -0.27500000000E+03  0.27500000000E+03  0.00000000000E+00 0.  1.
    9000005    2    1    2  501    0  0.21610526396E+02  0.24116922617E+02 -0.58831348317E+02  0.46387423614E+03  0.45898751465E+03 0.  0.
         13    1    3    3    0    0  0.13948879884E+01  0.72127684741E+02  0.19334929180E+03  0.20636932247E+03  0.00000000000E+00 0.  1.
          1    1    3    3  501    0  0.20215638407E+02 -0.48010762124E+02 -0.25218064012E+03  0.25750491367E+03  0.00000000000E+00 0.  1.
         21    1    1    2  502  501 -0.21610526396E+02 -0.24116922617E+02  0.55625973649E+01  0.32857012905E+02  0.00000000000E+00 0.  1.
<scales pt_clust_4="550.00000" pt_clust_5="550.00000" pt_clust_6="32.38272"></scales>
<mgrwt>
<rscale>  0 0.30000000E+03</rscale>
<asrwt>  1 0.32382724E+02</asrwt>
<pdfrwt beam="1">  1        1 0.80629545E+00 0.30000000E+03</pdfrwt>
<pdfrwt beam="2">0</pdfrwt>
<totfact> 0.94525690E-04</totfact>
</mgrwt>
<clustering>
<clus scale="   32.383">  1  6  2 -1</clus>
<clus scale="  458.988">  4  5 -1 -1</clus>
<clus scale="  300.000">  1  4  2 -1</clus>
</clustering>
</event>
<event>
 6    1  0.1029244E-011  0.3000000E+03  0.7818608E-02  0.1093470E+00
          1   -1    0    0  502    0  0.00000000000E+00  0.00000000000E+00  0.23195085515E+03  0.23195085515E+03  0.00000000000E+00 0.  1.
         13   -1    0    0    0    0 -0.00000000000E+00 -0.00000000000E+00 -0.27500000000E+03  0.27500000000E+03  0.00000000000E+00 0.  1.
    9000005    2    1    2  501    0 -0.16070616260E+02  0.29882968587E+02 -0.59361563810E+02  0.46930312572E+03  0.46429556539E+03 0.  0.
         13    1    3    3    0    0  0.19494590362E+03 -0.78460729931E+02  0.36812170582E+02  0.21334274626E+03  0.00000000000E+00 0.  1.
          1    1    3    3  501    0 -0.21101651988E+03  0.10834369852E+03 -0.96173734392E+02  0.25596037947E+03  0.00000000000E+00 0.  1.
         21    1    1    2  502  501  0.16070616260E+02 -0.29882968587E+02  0.16312418960E+02  0.37647729425E+02  0.00000000000E+00 0.  1.
<scales pt_clust_4="550.00000" pt_clust_5="550.00000" pt_clust_6="33.93017"></scales>
<mgrwt>
<rscale>  0 0.30000000E+03</rscale>
<asrwt>  1 0.33930171E+02</asrwt>
<pdfrwt beam="1">  1        1 0.84345766E+00 0.30000000E+03</pdfrwt>
<pdfrwt beam="2">0</pdfrwt>
<totfact> 0.46859167E-04</totfact>
</mgrwt>
<clustering>
<clus scale="   33.930">  1  6  2 -1</clus>
<clus scale="  464.296">  4  5 -1 -1</clus>
<clus scale="  300.000">  1  4  2 -1</clus>
</clustering>
</event>
<event>
 6    1  0.1029244E-011  0.3000000E+03  0.7818608E-02  0.1093470E+00
          1   -1    0    0  502    0  0.00000000000E+00  0.00000000000E+00  0.24270556452E+03  0.24270556452E+03  0.00000000000E+00 0.  1.
         13   -1    0    0    0    0 -0.00000000000E+00 -0.00000000000E+00 -0.27500000000E+03  0.27500000000E+03  0.00000000000E+00 0.  1.
    9000005    2    1    2  501    0 -0.31229435997E+02 -0.28497829139E+01 -0.53556486906E+02  0.47981791790E+03  0.47578728243E+03 0.  0.
         13    1    3    3    0    0 -0.38519743247E+02 -0.58181624575E+02 -0.25832346533E+03  0.26758154794E+03  0.00000000000E+00 0.  1.
          3    1    3    3  501    0  0.72903072509E+01  0.55331841661E+02  0.20476697843E+03  0.21223636996E+03  0.00000000000E+00 0.  1.
         21    1    1    2  502  501  0.31229435997E+02  0.28497829139E+01  0.21262051428E+02  0.37887646618E+02  0.00000000000E+00 0.  1.
<scales pt_clust_4="550.00000" pt_clust_5="550.00000" pt_clust_6="31.35919"></scales>
<mgrwt>
<rscale>  0 0.30000000E+03</rscale>
<asrwt>  1 0.31359192E+02</asrwt>
<pdfrwt beam="1">  1        1 0.88256569E+00 0.30000000E+03</pdfrwt>
<pdfrwt beam="2">0</pdfrwt>
<totfact> 0.18686065E-04</totfact>
</mgrwt>
<clustering>
<clus scale="   31.359">  1  6  2 -1</clus>
<clus scale="  475.787">  4  5 -1 -1</clus>
<clus scale="  300.000">  1  4  2 -1</clus>
</clustering>
</event>
<event>
 6    1  0.1029244E-011  0.3000000E+03  0.7818608E-02  0.1093470E+00
          1   -1    0    0  502    0  0.00000000000E+00  0.00000000000E+00  0.23190006141E+03  0.23190006141E+03  0.00000000000E+00 0.  1.
         13   -1    0    0    0    0 -0.00000000000E+00 -0.00000000000E+00 -0.27500000000E+03  0.27500000000E+03  0.00000000000E+00 0.  1.
    9000005    2    1    2  501    0  0.43524196144E+01 -0.35235322180E+02 -0.67943096381E+02  0.46356815660E+03  0.45718562967E+03 0.  0.
         13    1    3    3    0    0  0.57789089969E+02  0.66498624618E+02 -0.24056803072E+03  0.25619255141E+03  0.00000000000E+00 0.  1.
          3    1    3    3  501    0 -0.53436670355E+02 -0.10173394680E+03  0.17262493434E+03  0.20737560518E+03  0.00000000000E+00 0.  1.
         21    1    1    2  502  501 -0.43524196144E+01  0.35235322180E+02  0.24843157792E+02  0.43331904813E+02  0.00000000000E+00 0.  1.
<scales pt_clust_4="550.00000" pt_clust_5="550.00000" pt_clust_6="35.50312"></scales>
<mgrwt>
<rscale>  0 0.30000000E+03</rscale>
<asrwt>  1 0.35503119E+02</asrwt>
<pdfrwt beam="1">  1        1 0.84327295E+00 0.30000000E+03</pdfrwt>
<pdfrwt beam="2">0</pdfrwt>
<totfact> 0.46631098E-04</totfact>
</mgrwt>
<clustering>
<clus scale="   35.503">  1  6  2 -1</clus>
<clus scale="  457.186">  4  5 -1 -1</clus>
<clus scale="  300.000">  1  4  2 -1</clus>
</clustering>
</event>
<event>
 6    1  0.1029244E-011  0.3000000E+03  0.7818608E-02  0.1093470E+00
          1   -1    0    0  502    0  0.00000000000E+00  0.00000000000E+00  0.23667035352E+03  0.23667035352E+03  0.00000000000E+00 0.  1.
         13   -1    0    0    0    0 -0.00000000000E+00 -0.00000000000E+00 -0.27500000000E+03  0.27500000000E+03  0.00000000000E+00 0.  1.
    9000005    2    1    2  501    0  0.11096960831E+02  0.42228842924E+02 -0.53439036523E+02  0.46546741658E+03  0.46032354660E+03 0.  0.
         13    1    3    3    0    0  0.10902973813E+03  0.12534515513E+02 -0.23369832303E+03  0.25818501905E+03  0.00000000000E+00 0.  1.
          1    1    3    3  501    0 -0.97932777296E+02  0.29694327411E+02  0.18025928651E+03  0.20728239752E+03  0.00000000000E+00 0.  1.
         21    1    1    2  502  501 -0.11096960831E+02 -0.42228842924E+02  0.15109390040E+02  0.46202936938E+02  0.00000000000E+00 0. -1.
<scales pt_clust_4="550.00000" pt_clust_5="550.00000" pt_clust_6="43.66254"></scales>
<mgrwt>
<rscale>  0 0.30000000E+03</rscale>
<asrwt>  1 0.43662544E+02</asrwt>
<pdfrwt beam="1">  1        1 0.86061947E+00 0.30000000E+03</pdfrwt>
<pdfrwt beam="2">0</pdfrwt>
<totfact> 0.30591297E-04</totfact>
</mgrwt>
<clustering>
<clus scale="   43.663">  1  6  2 -1</clus>
<clus scale="  460.324">  4  5 -1 -1</clus>
<clus scale="  300.000">  1  4  2 -1</clus>
</clustering>
</event>
<event>
 6    1  0.1029244E-011  0.3000000E+03  0.7818608E-02  0.1093470E+00
          1   -1    0    0  502    0  0.00000000000E+00  0.00000000000E+00  0.23633475709E+03  0.23633475709E+03  0.00000000000E+00 0.  1.
         13   -1    0    0    0    0 -0.00000000000E+00 -0.00000000000E+00 -0.27500000000E+03  0.27500000000E+03  0.00000000000E+00 0.  1.
    9000005    2    1    2  501    0 -0.40652791788E+02 -0.61206562266E+01 -0.42361044112E+02  0.47005799778E+03  0.46633673596E+03 0.  0.
         13    1    3    3    0    0 -0.12298652721E+02  0.11909943869E+03  0.17829519105E+03  0.21476756810E+03  0.00000000000E+00 0.  1.
          3    1    3    3  501    0 -0.28354139067E+02 -0.12522009491E+03 -0.22065623516E+03  0.25529042968E+03  0.00000000000E+00 0.  1.
         21    1    1    2  502  501  0.40652791788E+02  0.61206562266E+01  0.36958012056E+01  0.41276759313E+02  0.00000000000E+00 0. -1.
<scales pt_clust_4="550.00000" pt_clust_5="550.00000" pt_clust_6="41.11097"></scales>
<mgrwt>
<rscale>  0 0.30000000E+03</rscale>
<asrwt>  1 0.41110971E+02</asrwt>
<pdfrwt beam="1">  1        1 0.85939912E+00 0.30000000E+03</pdfrwt>
<pdfrwt beam="2">0</pdfrwt>
<totfact> 0.31866813E-04</totfact>
</mgrwt>
<clustering>
<clus scale="   41.111">  1  6  2 -1</clus>
<clus scale="  466.337">  4  5 -1 -1</clus>
<clus scale="  300.000">  1  4  2 -1</clus>
</clustering>
</event>
<event>
 6    1  0.1029244E-011  0.3000000E+03  0.7818608E-02  0.1093470E+00
          1   -1    0    0  502    0  0.00000000000E+00  0.00000000000E+00  0.22832397205E+03  0.22832397205E+03  0.00000000000E+00 0.  1.
         13   -1    0    0    0    0 -0.00000000000E+00 -0.00000000000E+00 -0.27500000000E+03  0.27500000000E+03  0.00000000000E+00 0.  1.
    9000005    2    1    2  501    0 -0.17633965611E+02 -0.26043702559E+02 -0.64558753154E+02  0.46714354852E+03  0.46159076153E+03 0.  0.
         13    1    3    3    0    0  0.11181948990E+03 -0.20657535493E+03 -0.69423312284E+02  0.24494197655E+03  0.00000000000E+00 0.  1.
          1    1    3    3  501    0 -0.12945345551E+03  0.18053165237E+03  0.48645591304E+01  0.22220157197E+03  0.00000000000E+00 0.  1.
         21    1    1    2  502  501  0.17633965611E+02  0.26043702559E+02  0.17882725203E+02  0.36180423530E+02  0.00000000000E+00 0. -1.
<scales pt_clust_4="550.00000" pt_clust_5="550.00000" pt_clust_6="31.45205"></scales>
<mgrwt>
<rscale>  0 0.30000000E+03</rscale>
<asrwt>  1 0.31452046E+02</asrwt>
<pdfrwt beam="1">  1        1 0.83026899E+00 0.30000000E+03</pdfrwt>
<pdfrwt beam="2">0</pdfrwt>
<totfact> 0.60000529E-04</totfact>
</mgrwt>
<clustering>
<clus scale="   31.452">  1  6  2 -1</clus>
<clus scale="  461.591">  4  5 -1 -1</clus>
<clus scale="  300.000">  1  4  2 -1</clus>
</clustering>
</event>
<event>
 6    1  0.1029244E-011  0.3000000E+03  0.7818608E-02  0.1093470E+00
          1   -1    0    0  502    0  0.00000000000E+00  0.00000000000E+00  0.22422213133E+03  0.22422213133E+03  0.00000000000E+00 0.  1.
         13   -1    0    0    0    0 -0.00000000000E+00 -0.00000000000E+00 -0.27500000000E+03  0.27500000000E+03  0.00000000000E+00 0.  1.
    9000005    2    1    2  501    0 -0.18193690913E+02 -0.25271208471E+02 -0.55880556089E+02  0.46766770556E+03  0.46327184450E+03 0.  0.
         13    1    3    3    0    0  0.84759533314E+02 -0.21673926866E+03 -0.86193718424E+02  0.24817221070E+03  0.00000000000E+00 0.  1.
          1    1    3    3  501    0 -0.10295322423E+03  0.19146806019E+03  0.30313162334E+02  0.21949549486E+03  0.00000000000E+00 0.  1.
         21    1    1    2  502  501  0.18193690913E+02  0.25271208471E+02  0.51026874156E+01  0.31554425767E+02  0.00000000000E+00 0. -1.
<scales pt_clust_4="550.00000" pt_clust_5="550.00000" pt_clust_6="31.13911"></scales>
<mgrwt>
<rscale>  0 0.30000000E+03</rscale>
<asrwt>  1 0.31139113E+02</asrwt>
<pdfrwt beam="1">  1        1 0.81535320E+00 0.30000000E+03</pdfrwt>
<pdfrwt beam="2">0</pdfrwt>
<totfact> 0.80849092E-04</totfact>
</mgrwt>
<clustering>
<clus scale="   31.139">  1  6  2 -1</clus>
<clus scale="  463.272">  4  5 -1 -1</clus>
<clus scale="  300.000">  1  4  2 -1</clus>
</clustering>
</event>
<event>
 6    1  0.1029244E-011  0.3000000E+03  0.7818608E-02  0.1093470E+00
          1   -1    0    0  502    0  0.00000000000E+00  0.00000000000E+00  0.22749015586E+03  0.22749015586E+03  0.00000000000E+00 0.  1.
         13   -1    0    0    0    0 -0.00000000000E+00 -0.00000000000E+00 -0.27500000000E+03  0.27500000000E+03  0.00000000000E+00 0.  1.
    9000005    2    1    2  501    0 -0.22297630843E+02 -0.20736862071E+02 -0.55361479185E+02  0.47104417102E+03  0.46678744187E+03 0.  0.
         13    1    3    3    0    0  0.12898025668E+03 -0.18527598997E+03  0.37800280816E+02  0.22889290138E+03  0.00000000000E+00 0.  1.
          3    1    3    3  501    0 -0.15127788752E+03  0.16453912790E+03 -0.93161760001E+02  0.24215126964E+03  0.00000000000E+00 0.  1.
         21    1    1    2  502  501  0.22297630843E+02  0.20736862071E+02  0.78516350470E+01  0.31445984842E+02  0.00000000000E+00 0. -1.
<scales pt_clust_4="550.00000" pt_clust_5="550.00000" pt_clust_6="30.44999"></scales>
<mgrwt>
<rscale>  0 0.30000000E+03</rscale>
<asrwt>  1 0.30449988E+02</asrwt>
<pdfrwt beam="1">  1        1 0.82723693E+00 0.30000000E+03</pdfrwt>
<pdfrwt beam="2">0</pdfrwt>
<totfact> 0.64071616E-04</totfact>
</mgrwt>
<clustering>
<clus scale="   30.450">  1  6  2 -1</clus>
<clus scale="  466.787">  4  5 -1 -1</clus>
<clus scale="  300.000">  1  4  2 -1</clus>
</clustering>
</event>
<event>
 6    1  0.1029244E-011  0.3000000E+03  0.7818608E-02  0.1093470E+00
          1   -1    0    0  502    0  0.00000000000E+00  0.00000000000E+00  0.23700621707E+03  0.23700621707E+03  0.00000000000E+00 0.  1.
         13   -1    0    0    0    0 -0.00000000000E+00 -0.00000000000E+00 -0.27500000000E+03  0.27500000000E+03  0.00000000000E+00 0.  1.
    9000005    2    1    2  501    0 -0.32714904181E+02  0.12186945452E+02 -0.55165904839E+02  0.47310032592E+03  0.46857427878E+03 0.  0.
         13    1    3    3    0    0  0.50995286142E+02 -0.40392888488E+02  0.19422593687E+03  0.20483119685E+03  0.00000000000E+00 0.  1.
          1    1    3    3  501    0 -0.83710190324E+02  0.52579833940E+02 -0.24939184171E+03  0.26826912907E+03  0.00000000000E+00 0.  1.
         21    1    1    2  502  501  0.32714904181E+02 -0.12186945452E+02  0.17172121908E+02  0.38905891146E+02  0.00000000000E+00 0. -1.
<scales pt_clust_4="550.00000" pt_clust_5="550.00000" pt_clust_6="34.91112"></scales>
<mgrwt>
<rscale>  0 0.30000000E+03</rscale>
<asrwt>  1 0.34911124E+02</asrwt>
<pdfrwt beam="1">  1        1 0.86184079E+00 0.30000000E+03</pdfrwt>
<pdfrwt beam="2">0</pdfrwt>
<totfact> 0.30921597E-04</totfact>
</mgrwt>
<clustering>
<clus scale="   34.911">  1  6  2 -1</clus>
<clus scale="  468.574">  4  5 -1 -1</clus>
<clus scale="  300.000">  1  4  2 -1</clus>
</clustering>
</event>
<event>
 6    1  0.1029244E-011  0.3000000E+03  0.7818608E-02  0.1093470E+00
          1   -1    0    0  502    0  0.00000000000E+00  0.00000000000E+00  0.22374692381E+03  0.22374692381E+03  0.00000000000E+00 0.  1.
         13   -1    0    0    0    0 -0.00000000000E+00 -0.00000000000E+00 -0.27500000000E+03  0.27500000000E+03  0.00000000000E+00 0.  1.
    9000005    2    1    2  501    0  0.92511407575E+01  0.33432965076E+02 -0.53167819051E+02  0.46400483120E+03  0.45964151208E+03 0.  0.
         13    1    3    3    0    0  0.10406398006E+03 -0.14846274747E+03  0.10087922940E+03  0.20747799463E+03  0.00000000000E+00 0.  1.
          3    1    3    3  501    0 -0.94812839305E+02  0.18189571255E+03 -0.15404704845E+03  0.25652683656E+03  0.00000000000E+00 0.  1.
         21    1    1    2  502  501 -0.92511407575E+01 -0.33432965076E+02  0.19147428620E+01  0.34742092615E+02  0.00000000000E+00 0.  1.
<scales pt_clust_4="550.00000" pt_clust_5="550.00000" pt_clust_6="34.68929"></scales>
<mgrwt>
<rscale>  0 0.30000000E+03</rscale>
<asrwt>  1 0.34689289E+02</asrwt>
<pdfrwt beam="1">  1        1 0.81362518E+00 0.30000000E+03</pdfrwt>
<pdfrwt beam="2">0</pdfrwt>
<totfact> 0.81791983E-04</totfact>
</mgrwt>
<clustering>
<clus scale="   34.689">  1  6  2 -1</clus>
<clus scale="  459.642">  4  5 -1 -1</clus>
<clus scale="  300.000">  1  4  2 -1</clus>
</clustering>
</event>
<event>
 6    1  0.1029244E-011  0.3000000E+03  0.7818608E-02  0.1093470E+00
          1   -1    0    0  502    0  0.00000000000E+00  0.00000000000E+00  0.22849721677E+03  0.22849721677E+03  0.00000000000E+00 0.  1.
         13   -1    0    0    0    0 -0.00000000000E+00 -0.00000000000E+00 -0.27500000000E+03  0.27500000000E+03  0.00000000000E+00 0.  1.
    9000005    2    1    2  501    0 -0.22460305946E+02  0.20248732179E+02 -0.72140196107E+02  0.46385187105E+03  0.45720878588E+03 0.  0.
         13    1    3    3    0    0  0.12747773315E+03  0.68048492720E+01 -0.21903283839E+03  0.25351974818E+03  0.00000000000E+00 0.  1.
          1    1    3    3  501    0 -0.14993803910E+03  0.13443882907E+02  0.14689264228E+03  0.21033212287E+03  0.00000000000E+00 0.  1.
         21    1    1    2  502  501  0.22460305946E+02 -0.20248732179E+02  0.25637412876E+02  0.39645345716E+02  0.00000000000E+00 0.  1.
<scales pt_clust_4="550.00000" pt_clust_5="550.00000" pt_clust_6="30.24031"></scales>
<mgrwt>
<rscale>  0 0.30000000E+03</rscale>
<asrwt>  1 0.30240312E+02</asrwt>
<pdfrwt beam="1">  1        1 0.83089897E+00 0.30000000E+03</pdfrwt>
<pdfrwt beam="2">0</pdfrwt>
<totfact> 0.59749110E-04</totfact>
</mgrwt>
<clustering>
<clus scale="   30.240">  1  6  2 -1</clus>
<clus scale="  457.209">  4  5 -1 -1</clus>
<clus scale="  300.000">  1  4  2 -1</clus>
</clustering>
</event>
<event>
 6    1  0.1029244E-011  0.3000000E+03  0.7818608E-02  0.1093470E+00
          1   -1    0    0  502    0  0.00000000000E+00  0.00000000000E+00  0.24096517591E+03  0.24096517591E+03  0.00000000000E+00 0.  1.
         13   -1    0    0    0    0 -0.00000000000E+00 -0.00000000000E+00 -0.27500000000E+03  0.27500000000E+03  0.00000000000E+00 0.  1.
    9000005    2    1    2  501    0 -0.30435873781E+02 -0.36934161386E+02 -0.41047990168E+02  0.46759515226E+03  0.46332473949E+03 0.  0.
         13    1    3    3    0    0 -0.18571173204E+03 -0.12297493872E+02  0.13622797573E+03  0.23064721361E+03  0.00000000000E+00 0.  1.
          1    1    3    3  501    0  0.15527585826E+03 -0.24636667514E+02 -0.17727596589E+03  0.23694793865E+03  0.00000000000E+00 0.  1.
         21    1    1    2  502  501  0.30435873781E+02  0.36934161386E+02  0.70131660820E+01  0.48370023657E+02  0.00000000000E+00 0. -1.
<scales pt_clust_4="550.00000" pt_clust_5="550.00000" pt_clust_6="47.85890"></scales>
<mgrwt>
<rscale>  0 0.30000000E+03</rscale>
<asrwt>  1 0.47858904E+02</asrwt>
<pdfrwt beam="1">  1        1 0.87623700E+00 0.30000000E+03</pdfrwt>
<pdfrwt beam="2">0</pdfrwt>
<totfact> 0.20610005E-04</totfact>
</mgrwt>
<clustering>
<clus scale="   47.859">  1  6  2 -1</clus>
<clus scale="  463.325">  4  5 -1 -1</clus>
<clus scale="  300.000">  1  4  2 -1</clus>
</clustering>
</event>
<event>
 6    1  0.1029244E-011  0.3000000E+03  0.7818608E-02  0.1093470E+00
          1   -1    0    0  502    0  0.00000000000E+00  0.00000000000E+00  0.22662632520E+03  0.22662632520E+03  0.00000000000E+00 0.  1.
         13   -1    0    0    0    0 -0.00000000000E+00 -0.00000000000E+00 -0.27500000000E+03  0.27500000000E+03  0.00000000000E+00 0.  1.
    9000005    2    1    2  501    0  0.28910952435E+02  0.16790497821E+02 -0.34891413506E+02  0.46557725645E+03  0.46306263831E+03 0.  0.
         13    1    3    3    0    0  0.10170225916E+03 -0.14984471803E+03 -0.16259039226E+03  0.24337712443E+03  0.00000000000E+00 0.  1.
          1    1    3    3  501    0 -0.72791306729E+02  0.16663521585E+03  0.12769897875E+03  0.22220013202E+03  0.00000000000E+00 0.  1.
         21    1    1    2  502  501 -0.28910952435E+02 -0.16790497821E+02 -0.13482261295E+02  0.36049068746E+02  0.00000000000E+00 0. -1.
<scales pt_clust_4="550.00000" pt_clust_5="550.00000" pt_clust_6="33.43299"></scales>
<mgrwt>
<rscale>  0 0.30000000E+03</rscale>
<asrwt>  1 0.33432994E+02</asrwt>
<pdfrwt beam="1">  1        1 0.82409573E+00 0.30000000E+03</pdfrwt>
<pdfrwt beam="2">0</pdfrwt>
<totfact> 0.67118582E-04</totfact>
</mgrwt>
<clustering>
<clus scale="   33.433">  1  6  2 -1</clus>
<clus scale="  463.063">  4  5 -1 -1</clus>
<clus scale="  300.000">  1  4  2 -1</clus>
</clustering>
</event>
<event>
 6    1  0.1029244E-011  0.3000000E+03  0.7818608E-02  0.1093470E+00
          1   -1    0    0  502    0  0.00000000000E+00  0.00000000000E+00  0.22899074526E+03  0.22899074526E+03  0.00000000000E+00 0.  1.
         13   -1    0    0    0    0 -0.00000000000E+00 -0.00000000000E+00 -0.27500000000E+03  0.27500000000E+03  0.00000000000E+00 0.  1.
    9000005    2    1    2  501    0  0.35080901945E+02 -0.19013083509E+02 -0.45402741639E+02  0.46408416831E+03  0.46013100233E+03 0.  0.
         13    1    3    3    0    0  0.82239541584E+02 -0.23042041467E+03 -0.35859432115E+02  0.24727071919E+03  0.00000000000E+00 0.  1.
          1    1    3    3  501    0 -0.47158639639E+02  0.21140733116E+03 -0.95433095243E+01  0.21681344912E+03  0.00000000000E+00 0.  1.
         21    1    1    2  502  501 -0.35080901945E+02  0.19013083509E+02 -0.60651309967E+00  0.39906576951E+02  0.00000000000E+00 0. -1.
<scales pt_clust_4="550.00000" pt_clust_5="550.00000" pt_clust_6="39.90197"></scales>
<mgrwt>
<rscale>  0 0.30000000E+03</rscale>
<asrwt>  1 0.39901968E+02</asrwt>
<pdfrwt beam="1">  1        1 0.83269362E+00 0.30000000E+03</pdfrwt>
<pdfrwt beam="2">0</pdfrwt>
<totfact> 0.54928557E-04</totfact>
</mgrwt>
<clustering>
<clus scale="   39.902">  1  6  2 -1</clus>
<clus scale="  460.131">  4  5 -1 -1</clus>
<clus scale="  300.000">  1  4  2 -1</clus>
</clustering>
</event>
<event>
 6    1  0.1029244E-011  0.3000000E+03  0.7818608E-02  0.1093470E+00
          1   -1    0    0  502    0  0.00000000000E+00  0.00000000000E+00  0.24103248293E+03  0.24103248293E+03  0.00000000000E+00 0.  1.
         13   -1    0    0    0    0 -0.00000000000E+00 -0.00000000000E+00 -0.27500000000E+03  0.27500000000E+03  0.00000000000E+00 0.  1.
    9000005    2    1    2  501    0  0.17112647228E+02 -0.26690106925E+02 -0.20503134446E+02  0.48158695924E+03  0.48010458890E+03 0.  0.
         13    1    3    3    0    0 -0.12218796708E+03 -0.20669481566E+03 -0.66986952001E+02  0.24927875533E+03  0.00000000000E+00 0.  1.
          3    1    3    3  501    0  0.13930061431E+03  0.18000470873E+03  0.46483817555E+02  0.23230820392E+03  0.00000000000E+00 0.  1.
         21    1    1    2  502  501 -0.17112647228E+02  0.26690106925E+02 -0.13464382622E+02  0.34445523689E+02  0.00000000000E+00 0.  1.
<scales pt_clust_4="550.00000" pt_clust_5="550.00000" pt_clust_6="31.70498"></scales>
<mgrwt>
<rscale>  0 0.30000000E+03</rscale>
<asrwt>  1 0.31704976E+02</asrwt>
<pdfrwt beam="1">  1        1 0.87648176E+00 0.30000000E+03</pdfrwt>
<pdfrwt beam="2">0</pdfrwt>
<totfact> 0.22091016E-04</totfact>
</mgrwt>
<clustering>
<clus scale="   31.705">  1  6  2 -1</clus>
<clus scale="  480.105">  4  5 -1 -1</clus>
<clus scale="  300.000">  1  4  2 -1</clus>
</clustering>
</event>
<event>
 6    1  0.1029244E-011  0.3000000E+03  0.7818608E-02  0.1093470E+00
          1   -1    0    0  502    0  0.00000000000E+00  0.00000000000E+00  0.23028890213E+03  0.23028890213E+03  0.00000000000E+00 0.  1.
         13   -1    0    0    0    0 -0.00000000000E+00 -0.00000000000E+00 -0.27500000000E+03  0.27500000000E+03  0.00000000000E+00 0.  1.
    9000005    2    1    2  501    0 -0.18885043106E+02  0.25130533866E+02 -0.58217455433E+02  0.47107471969E+03  0.46640532890E+03 0.  0.
         13    1    3    3    0    0  0.34523141849E+02  0.77094236471E+02 -0.25076559451E+03  0.26461056670E+03  0.00000000000E+00 0.  1.
          3    1    3    3  501    0 -0.53408184955E+02 -0.51963702605E+02  0.19254813907E+03  0.20646415299E+03  0.00000000000E+00 0.  1.
         21    1    1    2  502  501  0.18885043106E+02 -0.25130533866E+02  0.13506357561E+02  0.34214182440E+02  0.00000000000E+00 0.  1.
<scales pt_clust_4="550.00000" pt_clust_5="550.00000" pt_clust_6="31.43547"></scales>
<mgrwt>
<rscale>  0 0.30000000E+03</rscale>
<asrwt>  1 0.31435467E+02</asrwt>
<pdfrwt beam="1">  1        1 0.83741419E+00 0.30000000E+03</pdfrwt>
<pdfrwt beam="2">0</pdfrwt>
<totfact> 0.53022113E-04</totfact>
</mgrwt>
<clustering>
<clus scale="   31.435">  1  6  2 -1</clus>
<clus scale="  466.405">  4  5 -1 -1</clus>
<clus scale="  300.000">  1  4  2 -1</clus>
</clustering>
</event>
<event>
 6    1  0.1029244E-011  0.3000000E+03  0.7818608E-02  0.1093470E+00
          1   -1    0    0  502    0  0.00000000000E+00  0.00000000000E+00  0.23944452604E+03  0.23944452604E+03  0.00000000000E+00 0.  1.
         13   -1    0    0    0    0 -0.00000000000E+00 -0.00000000000E+00 -0.27500000000E+03  0.27500000000E+03  0.00000000000E+00 0.  1.
    9000005    2    1    2  501    0  0.39591613855E+02  0.23846839101E+02 -0.34922829495E+02  0.46822150297E+03  0.46462415369E+03 0.  0.
         13    1    3    3    0    0 -0.19691314112E+03  0.96785504303E+02 -0.15096092118E+02  0.21993205993E+03  0.00000000000E+00 0.  1.
          3    1    3    3  501    0  0.23650475497E+03 -0.72938665202E+02 -0.19826737377E+02  0.24828944303E+03  0.00000000000E+00 0.  1.
         21    1    1    2  502  501 -0.39591613855E+02 -0.23846839101E+02 -0.63264446922E+00  0.46223023071E+02  0.00000000000E+00 0.  1.
<scales pt_clust_4="550.00000" pt_clust_5="550.00000" pt_clust_6="46.21869"></scales>
<mgrwt>
<rscale>  0 0.30000000E+03</rscale>
<asrwt>  1 0.46218693E+02</asrwt>
<pdfrwt beam="1">  1        1 0.87070737E+00 0.30000000E+03</pdfrwt>
<pdfrwt beam="2">0</pdfrwt>
<totfact> 0.23675909E-04</totfact>
</mgrwt>
<clustering>
<clus scale="   46.219">  1  6  2 -1</clus>
<clus scale="  464.624">  4  5 -1 -1</clus>
<clus scale="  300.000">  1  4  2 -1</clus>
</clustering>
</event>
<event>
 6    1  0.1029244E-011  0.3000000E+03  0.7818608E-02  0.1093470E+00
          1   -1    0    0  502    0  0.00000000000E+00  0.00000000000E+00  0.24395986678E+03  0.24395986678E+03  0.00000000000E+00 0.  1.
         13   -1    0    0    0    0 -0.00000000000E+00 -0.00000000000E+00 -0.27500000000E+03  0.27500000000E+03  0.00000000000E+00 0.  1.
    9000005    2    1    2  501    0  0.23865359785E+02 -0.35045339538E+02 -0.54363138357E+02  0.47056881606E+03  0.46549106180E+03 0.  0.
         13    1    3    3    0    0 -0.67623266624E+02 -0.15764807175E+03 -0.19713459200E+03  0.26131947512E+03  0.00000000000E+00 0.  1.
          1    1    3    3  501    0  0.91488626410E+02  0.12260273221E+03  0.14277145364E+03  0.20924934094E+03  0.00000000000E+00 0.  1.
         21    1    1    2  502  501 -0.23865359785E+02  0.35045339538E+02  0.23323005133E+02  0.48391050716E+02  0.00000000000E+00 0. -1.
<scales pt_clust_4="550.00000" pt_clust_5="550.00000" pt_clust_6="42.39966"></scales>
<mgrwt>
<rscale>  0 0.30000000E+03</rscale>
<asrwt>  1 0.42399661E+02</asrwt>
<pdfrwt beam="1">  1        1 0.88712679E+00 0.30000000E+03</pdfrwt>
<pdfrwt beam="2">0</pdfrwt>
<totfact> 0.15313743E-04</totfact>
</mgrwt>
<clustering>
<clus scale="   42.400">  1  6  2 -1</clus>
<clus scale="  465.491">  4  5 -1 -1</clus>
<clus scale="  300.000">  1  4  2 -1</clus>
</clustering>
</event>
<event>
 6    1  0.1029244E-011  0.3000000E+03  0.7818608E-02  0.1093470E+00
          1   -1    0    0  502    0  0.00000000000E+00  0.00000000000E+00  0.23242952109E+03  0.23242952109E+03  0.00000000000E+00 0.  1.
         13   -1    0    0    0    0 -0.00000000000E+00 -0.00000000000E+00 -0.27500000000E+03  0.27500000000E+03  0.00000000000E+00 0.  1.
    9000005    2    1    2  501    0 -0.30318847966E+02  0.94670047300E+00 -0.38020895494E+02  0.47675660971E+03  0.47426906669E+03 0.  0.
         13    1    3    3    0    0  0.14383391795E+03 -0.93113668119E+02 -0.16799999805E+03  0.23996322737E+03  0.00000000000E+00 0.  1.
          3    1    3    3  501    0 -0.17415276592E+03  0.94060368592E+02  0.12997910256E+03  0.23679338234E+03  0.00000000000E+00 0.  1.
         21    1    1    2  502  501  0.30318847966E+02 -0.94670047300E+00 -0.45495834124E+01  0.30672911388E+02  0.00000000000E+00 0.  1.
<scales pt_clust_4="550.00000" pt_clust_5="550.00000" pt_clust_6="30.33364"></scales>
<mgrwt>
<rscale>  0 0.30000000E+03</rscale>
<asrwt>  1 0.30333640E+02</asrwt>
<pdfrwt beam="1">  1        1 0.84519826E+00 0.30000000E+03</pdfrwt>
<pdfrwt beam="2">0</pdfrwt>
<totfact> 0.46239719E-04</totfact>
</mgrwt>
<clustering>
<clus scale="   30.334">  1  6  2 -1</clus>
<clus scale="  474.269">  4  5 -1 -1</clus>
<clus scale="  300.000">  1  4  2 -1</clus>
</clustering>
</event>
<event>
 6    1  0.1029244E-011  0.3000000E+03  0.7818608E-02  0.1093470E+00
          1   -1    0    0  502    0  0.00000000000E+00  0.00000000000E+00  0.23292108755E+03  0.23292108755E+03  0.00000000000E+00 0.  1.
         13   -1    0    0    0    0 -0.00000000000E+00 -0.00000000000E+00 -0.27500000000E+03  0.27500000000E+03  0.00000000000E+00 0.  1.
    9000005    2    1    2  501    0  0.76267419304E+00  0.40366600080E+02 -0.63140785602E+02  0.46238377785E+03  0.45626960795E+03 0.  0.
         13    1    3    3    0    0  0.10710029074E+03  0.66767222534E+02  0.16592123979E+03  0.20846628527E+03  0.00000000000E+00 0.  1.
          3    1    3    3  501    0 -0.10633761655E+03 -0.26400622454E+02 -0.22906202539E+03  0.25391749258E+03  0.00000000000E+00 0.  1.
         21    1    1    2  502  501 -0.76267419304E+00 -0.40366600080E+02  0.21061873155E+02  0.45537309700E+02  0.00000000000E+00 0. -1.
<scales pt_clust_4="550.00000" pt_clust_5="550.00000" pt_clust_6="40.37380"></scales>
<mgrwt>
<rscale>  0 0.30000000E+03</rscale>
<asrwt>  1 0.40373804E+02</asrwt>
<pdfrwt beam="1">  1        1 0.84698577E+00 0.30000000E+03</pdfrwt>
<pdfrwt beam="2">0</pdfrwt>
<totfact> 0.42255545E-04</totfact>
</mgrwt>
<clustering>
<clus scale="   40.374">  1  6  2 -1</clus>
<clus scale="  456.270">  4  5 -1 -1</clus>
<clus scale="  300.000">  1  4  2 -1</clus>
</clustering>
</event>
<event>
 6    1  0.1029244E-011  0.3000000E+03  0.7818608E-02  0.1093470E+00
          1   -1    0    0  502    0  0.00000000000E+00  0.00000000000E+00  0.24737368776E+03  0.24737368776E+03  0.00000000000E+00 0.  1.
         13   -1    0    0    0    0 -0.00000000000E+00 -0.00000000000E+00 -0.27500000000E+03  0.27500000000E+03  0.00000000000E+00 0.  1.
    9000005    2    1    2  501    0 -0.30153235131E+02  0.17076627685E+02 -0.46136471572E+02  0.48308686045E+03  0.47962851450E+03 0.  0.
         13    1    3    3    0    0 -0.24775693280E+02  0.18162431054E+02  0.21736662073E+03  0.21952666509E+03  0.00000000000E+00 0.  1.
          1    1    3    3  501    0 -0.53775418507E+01 -0.10858033690E+01 -0.26350309230E+03  0.26356019536E+03  0.00000000000E+00 0.  1.
         21    1    1    2  502  501  0.30153235131E+02 -0.17076627685E+02  0.18510159332E+02  0.39286827314E+02  0.00000000000E+00 0.  1.
<scales pt_clust_4="550.00000" pt_clust_5="550.00000" pt_clust_6="34.65298"></scales>
<mgrwt>
<rscale>  0 0.30000000E+03</rscale>
<asrwt>  1 0.34652977E+02</asrwt>
<pdfrwt beam="1">  1        1 0.89954068E+00 0.30000000E+03</pdfrwt>
<pdfrwt beam="2">0</pdfrwt>
<totfact> 0.11210806E-04</totfact>
</mgrwt>
<clustering>
<clus scale="   34.653">  1  6  2 -1</clus>
<clus scale="  479.629">  4  5 -1 -1</clus>
<clus scale="  300.000">  1  4  2 -1</clus>
</clustering>
</event>
<event>
 6    1  0.1029244E-011  0.3000000E+03  0.7818608E-02  0.1093470E+00
          1   -1    0    0  502    0  0.00000000000E+00  0.00000000000E+00  0.22692897479E+03  0.22692897479E+03  0.00000000000E+00 0.  1.
         13   -1    0    0    0    0 -0.00000000000E+00 -0.00000000000E+00 -0.27500000000E+03  0.27500000000E+03  0.00000000000E+00 0.  1.
    9000005    2    1    2  501    0  0.51019009739E+01  0.34614904601E+02 -0.50756228557E+02  0.46683721891E+03  0.46274893107E+03 0.  0.
         13    1    3    3    0    0 -0.18477121271E+03  0.46154774388E+02  0.10811487498E+03  0.21899655349E+03  0.00000000000E+00 0.  1.
          3    1    3    3  501    0  0.18987311369E+03 -0.11539869787E+02 -0.15887110354E+03  0.24784066542E+03  0.00000000000E+00 0.  1.
         21    1    1    2  502  501 -0.51019009739E+01 -0.34614904601E+02  0.26852033498E+01  0.35091755885E+02  0.00000000000E+00 0.  1.
<scales pt_clust_4="550.00000" pt_clust_5="550.00000" pt_clust_6="34.98887"></scales>
<mgrwt>
<rscale>  0 0.30000000E+03</rscale>
<asrwt>  1 0.34988870E+02</asrwt>
<pdfrwt beam="1">  1        1 0.82519627E+00 0.30000000E+03</pdfrwt>
<pdfrwt beam="2">0</pdfrwt>
<totfact> 0.65058265E-04</totfact>
</mgrwt>
<clustering>
<clus scale="   34.989">  1  6  2 -1</clus>
<clus scale="  462.749">  4  5 -1 -1</clus>
<clus scale="  300.000">  1  4  2 -1</clus>
</clustering>
</event>
<event>
 6    1  0.1029244E-011  0.3000000E+03  0.7818608E-02  0.1093470E+00
          1   -1    0    0  502    0  0.00000000000E+00  0.00000000000E+00  0.23835340010E+03  0.23835340010E+03  0.00000000000E+00 0.  1.
         13   -1    0    0    0    0 -0.00000000000E+00 -0.00000000000E+00 -0.27500000000E+03  0.27500000000E+03  0.00000000000E+00 0.  1.
    9000005    2    1    2  501    0  0.35420804239E+02  0.30794018004E+02 -0.27480896469E+02  0.46553169962E+03  0.46234365872E+03 0.  0.
         13    1    3    3    0    0 -0.45462682597E+01  0.14548875786E+03  0.17610063367E+03  0.22847118067E+03  0.00000000000E+00 0.  1.
          1    1    3    3  501    0  0.39967072499E+02 -0.11469473985E+03 -0.20358153013E+03  0.23706051895E+03  0.00000000000E+00 0.  1.
         21    1    1    2  502  501 -0.35420804239E+02 -0.30794018004E+02 -0.91657034284E+01  0.47821700483E+02  0.00000000000E+00 0.  1.
<scales pt_clust_4="550.00000" pt_clust_5="550.00000" pt_clust_6="46.93514"></scales>
<mgrwt>
<rscale>  0 0.30000000E+03</rscale>
<asrwt>  1 0.46935137E+02</asrwt>
<pdfrwt beam="1">  1        1 0.86673964E+00 0.30000000E+03</pdfrwt>
<pdfrwt beam="2">0</pdfrwt>
<totfact> 0.25949896E-04</totfact>
</mgrwt>
<clustering>
<clus scale="   46.935">  1  6  2 -1</clus>
<clus scale="  462.344">  4  5 -1 -1</clus>
<clus scale="  300.000">  1  4  2 -1</clus>
</clustering>
</event>
<event>
 6    1  0.1029244E-011  0.3000000E+03  0.7818608E-02  0.1093470E+00
          1   -1    0    0  502    0  0.00000000000E+00  0.00000000000E+00  0.24955216836E+03  0.24955216836E+03  0.00000000000E+00 0.  1.
         13   -1    0    0    0    0 -0.00000000000E+00 -0.00000000000E+00 -0.27500000000E+03  0.27500000000E+03  0.00000000000E+00 0.  1.
    9000005    2    1    2  501    0 -0.17206114428E+02 -0.26393448230E+02 -0.55082219537E+02  0.48129871267E+03  0.47709719704E+03 0.  0.
         13    1    3    3    0    0 -0.30350122274E+02  0.10273938234E+03 -0.23568539959E+03  0.25889016626E+03  0.00000000000E+00 0.  1.
          1    1    3    3  501    0  0.13144007845E+02 -0.12913283057E+03  0.18060318005E+03  0.22240854641E+03  0.00000000000E+00 0.  1.
         21    1    1    2  502  501  0.17206114428E+02  0.26393448230E+02  0.29634387898E+02  0.43253455692E+02  0.00000000000E+00 0.  1.
<scales pt_clust_4="550.00000" pt_clust_5="550.00000" pt_clust_6="31.50658"></scales>
<mgrwt>
<rscale>  0 0.30000000E+03</rscale>
<asrwt>  1 0.31506578E+02</asrwt>
<pdfrwt beam="1">  1        1 0.90746243E+00 0.30000000E+03</pdfrwt>
<pdfrwt beam="2">0</pdfrwt>
<totfact> 0.83967091E-05</totfact>
</mgrwt>
<clustering>
<clus scale="   31.507">  1  6  2 -1</clus>
<clus scale="  477.097">  4  5 -1 -1</clus>
<clus scale="  300.000">  1  4  2 -1</clus>
</clustering>
</event>
<event>
 6    1  0.1029244E-011  0.3000000E+03  0.7818608E-02  0.1093470E+00
          1   -1    0    0  502    0  0.00000000000E+00  0.00000000000E+00  0.23041333799E+03  0.23041333799E+03  0.00000000000E+00 0.  1.
         13   -1    0    0    0    0 -0.00000000000E+00 -0.00000000000E+00 -0.27500000000E+03  0.27500000000E+03  0.00000000000E+00 0.  1.
    9000005    2    1    2  501    0  0.18963028791E+02 -0.26877308939E+02 -0.41628383355E+02  0.47238702107E+03  0.46939811374E+03 0.  0.
         13    1    3    3    0    0 -0.44695852179E+02  0.91945337489E+02  0.18345929037E+03  0.21002136918E+03  0.00000000000E+00 0.  1.
          1    1    3    3  501    0  0.63658880969E+02 -0.11882264643E+03 -0.22508767373E+03  0.26236565190E+03  0.00000000000E+00 0.  1.
         21    1    1    2  502  501 -0.18963028791E+02  0.26877308939E+02 -0.29582786509E+01  0.33026316920E+02  0.00000000000E+00 0. -1.
<scales pt_clust_4="550.00000" pt_clust_5="550.00000" pt_clust_6="32.89358"></scales>
<mgrwt>
<rscale>  0 0.30000000E+03</rscale>
<asrwt>  1 0.32893575E+02</asrwt>
<pdfrwt beam="1">  1        1 0.83786668E+00 0.30000000E+03</pdfrwt>
<pdfrwt beam="2">0</pdfrwt>
<totfact> 0.52168577E-04</totfact>
</mgrwt>
<clustering>
<clus scale="   32.894">  1  6  2 -1</clus>
<clus scale="  469.398">  4  5 -1 -1</clus>
<clus scale="  300.000">  1  4  2 -1</clus>
</clustering>
</event>
<event>
 6    1  0.1029244E-011  0.3000000E+03  0.7818608E-02  0.1093470E+00
          1   -1    0    0  502    0  0.00000000000E+00  0.00000000000E+00  0.24703371031E+03  0.24703371031E+03  0.00000000000E+00 0.  1.
         13   -1    0    0    0    0 -0.00000000000E+00 -0.00000000000E+00 -0.27500000000E+03  0.27500000000E+03  0.00000000000E+00 0.  1.
    9000005    2    1    2  501    0 -0.27472856948E+02 -0.13060123837E+02 -0.44395749934E+02  0.48746129548E+03  0.48448137970E+03 0.  0.
         13    1    3    3    0    0 -0.97134883195E+02 -0.52180525497E+02 -0.24655464781E+03  0.27008736944E+03  0.00000000000E+00 0.  1.
          1    1    3    3  501    0  0.69662026248E+02  0.39120401660E+02  0.20215889788E+03  0.21737392603E+03  0.00000000000E+00 0.  1.
         21    1    1    2  502  501  0.27472856948E+02  0.13060123837E+02  0.16429460245E+02  0.34572414834E+02  0.00000000000E+00 0.  1.
<scales pt_clust_4="550.00000" pt_clust_5="550.00000" pt_clust_6="30.41915"></scales>
<mgrwt>
<rscale>  0 0.30000000E+03</rscale>
<asrwt>  1 0.30419150E+02</asrwt>
<pdfrwt beam="1">  1        1 0.89830440E+00 0.30000000E+03</pdfrwt>
<pdfrwt beam="2">0</pdfrwt>
<totfact> 0.11886708E-04</totfact>
</mgrwt>
<clustering>
<clus scale="   30.419">  1  6  2 -1</clus>
<clus scale="  484.481">  4  5 -1 -1</clus>
<clus scale="  300.000">  1  4  2 -1</clus>
</clustering>
</event>
<event>
 6    1  0.1029244E-011  0.3000000E+03  0.7818608E-02  0.1093470E+00
          1   -1    0    0  502    0  0.00000000000E+00  0.00000000000E+00  0.23794389902E+03  0.23794389902E+03  0.00000000000E+00 0.  1.
         13   -1    0    0    0    0 -0.00000000000E+00 -0.00000000000E+00 -0.27500000000E+03  0.27500000000E+03  0.00000000000E+00 0.  1.
    9000005    2    1    2  501    0 -0.34678420648E+02  0.12121070515E+02 -0.46831008577E+02  0.47492992754E+03  0.47118550434E+03 0.  0.
         13    1    3    3    0    0 -0.12877021442E+03 -0.16792456779E+03  0.90041016318E+02  0.22997350545E+03  0.00000000000E+00 0.  1.
          3    1    3    3  501    0  0.94091793772E+02  0.18004563830E+03 -0.13687202490E+03  0.24495642210E+03  0.00000000000E+00 0.  1.
         21    1    1    2  502  501  0.34678420648E+02 -0.12121070515E+02  0.97749075997E+01  0.38013971479E+02  0.00000000000E+00 0.  1.
<scales pt_clust_4="550.00000" pt_clust_5="550.00000" pt_clust_6="36.73572"></scales>
<mgrwt>
<rscale>  0 0.30000000E+03</rscale>
<asrwt>  1 0.36735721E+02</asrwt>
<pdfrwt beam="1">  1        1 0.86525054E+00 0.30000000E+03</pdfrwt>
<pdfrwt beam="2">0</pdfrwt>
<totfact> 0.28138722E-04</totfact>
</mgrwt>
<clustering>
<clus scale="   36.736">  1  6  2 -1</clus>
<clus scale="  471.186">  4  5 -1 -1</clus>
<clus scale="  300.000">  1  4  2 -1</clus>
</clustering>
</event>
<event>
 6    1  0.1029244E-011  0.3000000E+03  0.7818608E-02  0.1093470E+00
          1   -1    0    0  502    0  0.00000000000E+00  0.00000000000E+00  0.24770528198E+03  0.24770528198E+03  0.00000000000E+00 0.  1.
         13   -1    0    0    0    0 -0.00000000000E+00 -0.00000000000E+00 -0.27500000000E+03  0.27500000000E+03  0.00000000000E+00 0.  1.
    9000005    2    1    2  501    0 -0.61811136933E+01  0.40891073380E+02 -0.40335150692E+02  0.47934240693E+03  0.47584864469E+03 0.  0.
         13    1    3    3    0    0  0.26676799715E+02  0.19399106622E+03 -0.18262664539E+03  0.26776235176E+03  0.00000000000E+00 0.  1.
          3    1    3    3  501    0 -0.32857913408E+02 -0.15309999284E+03  0.14229149469E+03  0.21158005517E+03  0.00000000000E+00 0.  1.
         21    1    1    2  502  501  0.61811136933E+01 -0.40891073380E+02  0.13040432676E+02  0.43362875055E+02  0.00000000000E+00 0. -1.
<scales pt_clust_4="550.00000" pt_clust_5="550.00000" pt_clust_6="41.35560"></scales>
<mgrwt>
<rscale>  0 0.30000000E+03</rscale>
<asrwt>  1 0.41355605E+02</asrwt>
<pdfrwt beam="1">  1        1 0.90074648E+00 0.30000000E+03</pdfrwt>
<pdfrwt beam="2">0</pdfrwt>
<totfact> 0.10475816E-04</totfact>
</mgrwt>
<clustering>
<clus scale="   41.356">  1  6  2 -1</clus>
<clus scale="  475.849">  4  5 -1 -1</clus>
<clus scale="  300.000">  1  4  2 -1</clus>
</clustering>
</event>
<event>
 6    1  0.1029244E-011  0.3000000E+03  0.7818608E-02  0.1093470E+00
          1   -1    0    0  502    0  0.00000000000E+00  0.00000000000E+00  0.22151997857E+03  0.22151997857E+03  0.00000000000E+00 0.  1.
         13   -1    0    0    0    0 -0.00000000000E+00 -0.00000000000E+00 -0.27500000000E+03  0.27500000000E+03  0.00000000000E+00 0.  1.
    9000005    2    1    2  501    0 -0.17507348049E+02 -0.28531246864E+02 -0.63188726232E+02  0.46166602281E+03  0.45609446632E+03 0.  0.
         13    1    3    3    0    0  0.51441061531E+02 -0.18177838533E+03  0.11142304879E+03  0.21932774559E+03  0.00000000000E+00 0.  1.
          3    1    3    3  501    0 -0.68948409579E+02  0.15324713846E+03 -0.17461177502E+03  0.24233827722E+03  0.00000000000E+00 0.  1.
         21    1    1    2  502  501  0.17507348049E+02  0.28531246864E+02  0.97087048035E+01  0.34853955762E+02  0.00000000000E+00 0.  1.
<scales pt_clust_4="550.00000" pt_clust_5="550.00000" pt_clust_6="33.47446"></scales>
<mgrwt>
<rscale>  0 0.30000000E+03</rscale>
<asrwt>  1 0.33474457E+02</asrwt>
<pdfrwt beam="1">  1        1 0.80552719E+00 0.30000000E+03</pdfrwt>
<pdfrwt beam="2">0</pdfrwt>
<totfact> 0.95212865E-04</totfact>
</mgrwt>
<clustering>
<clus scale="   33.474">  1  6  2 -1</clus>
<clus scale="  456.094">  4  5 -1 -1</clus>
<clus scale="  300.000">  1  4  2 -1</clus>
</clustering>
</event>
<event>
 6    1  0.1029244E-011  0.3000000E+03  0.7818608E-02  0.1093470E+00
          1   -1    0    0  502    0  0.00000000000E+00  0.00000000000E+00  0.26260114807E+03  0.26260114807E+03  0.00000000000E+00 0.  1.
         13   -1    0    0    0    0 -0.00000000000E+00 -0.00000000000E+00 -0.27500000000E+03  0.27500000000E+03  0.00000000000E+00 0.  1.
    9000005    2    1    2  501    0  0.29713525176E+02  0.34007405874E+02 -0.13437691495E+02  0.49242951515E+03  0.49017023432E+03 0.  0.
         13    1    3    3    0    0 -0.98411215943E+02  0.22840609967E+03 -0.58003266443E+02  0.25537911565E+03  0.00000000000E+00 0.  1.
          1    1    3    3  501    0  0.12812474112E+03 -0.19439869380E+03  0.44565574947E+02  0.23705039951E+03  0.00000000000E+00 0.  1.
         21    1    1    2  502  501 -0.29713525176E+02 -0.34007405874E+02  0.10388395662E+01  0.45171632916E+02  0.00000000000E+00 0.  1.
<scales pt_clust_4="550.00000" pt_clust_5="550.00000" pt_clust_6="45.15969"></scales>
<mgrwt>
<rscale>  0 0.30000000E+03</rscale>
<asrwt>  1 0.45159686E+02</asrwt>
<pdfrwt beam="1">  1        1 0.95491327E+00 0.30000000E+03</pdfrwt>
<pdfrwt beam="2">0</pdfrwt>
<totfact> 0.93050508E-06</totfact>
</mgrwt>
<clustering>
<clus scale="   45.160">  1  6  2 -1</clus>
<clus scale="  490.170">  4  5 -1 -1</clus>
<clus scale="  300.000">  1  4  2 -1</clus>
</clustering>
</event>
<event>
 6    1  0.1029244E-011  0.3000000E+03  0.7818608E-02  0.1093470E+00
          1   -1    0    0  502    0  0.00000000000E+00  0.00000000000E+00  0.24353701241E+03  0.24353701241E+03  0.00000000000E+00 0.  1.
         13   -1    0    0    0    0 -0.00000000000E+00 -0.00000000000E+00 -0.27500000000E+03  0.27500000000E+03  0.00000000000E+00 0.  1.
    9000005    2    1    2  501    0 -0.12110648102E+02 -0.32690011367E+02 -0.45447339785E+02  0.48097550622E+03  0.47755279525E+03 0.  0.
         13    1    3    3    0    0 -0.14000670781E+03  0.17207277655E+03  0.38943217766E+02  0.22522764678E+03  0.00000000000E+00 0.  1.
          3    1    3    3  501    0  0.12789605971E+03 -0.20476278792E+03 -0.84390557551E+02  0.25574785944E+03  0.00000000000E+00 0.  1.
         21    1    1    2  502  501  0.12110648102E+02  0.32690011367E+02  0.13984352191E+02  0.37561506184E+02  0.00000000000E+00 0.  1.
<scales pt_clust_4="550.00000" pt_clust_5="550.00000" pt_clust_6="34.86122"></scales>
<mgrwt>
<rscale>  0 0.30000000E+03</rscale>
<asrwt>  1 0.34861220E+02</asrwt>
<pdfrwt beam="1">  1        1 0.88558914E+00 0.30000000E+03</pdfrwt>
<pdfrwt beam="2">0</pdfrwt>
<totfact> 0.16669951E-04</totfact>
</mgrwt>
<clustering>
<clus scale="   34.861">  1  6  2 -1</clus>
<clus scale="  477.553">  4  5 -1 -1</clus>
<clus scale="  300.000">  1  4  2 -1</clus>
</clustering>
</event>
<event>
 6    1  0.1029244E-011  0.3000000E+03  0.7818608E-02  0.1093470E+00
          1   -1    0    0  502    0  0.00000000000E+00  0.00000000000E+00  0.23303792865E+03  0.23303792865E+03  0.00000000000E+00 0.  1.
         13   -1    0    0    0    0 -0.00000000000E+00 -0.00000000000E+00 -0.27500000000E+03  0.27500000000E+03  0.00000000000E+00 0.  1.
    9000005    2    1    2  501    0 -0.13597089250E+02 -0.27146173737E+02 -0.50222502593E+02  0.47657318157E+03  0.47294598216E+03 0.  0.
         13    1    3    3    0    0  0.22575167904E+03 -0.54845082701E+02 -0.12133097022E+02  0.23263494091E+03  0.00000000000E+00 0.  1.
          3    1    3    3  501    0 -0.23934876829E+03  0.27698908964E+02 -0.38089405571E+02  0.24393824066E+03  0.00000000000E+00 0.  1.
         21    1    1    2  502  501  0.13597089250E+02  0.27146173737E+02  0.82604312473E+01  0.31464747084E+02  0.00000000000E+00 0.  1.
<scales pt_clust_4="550.00000" pt_clust_5="550.00000" pt_clust_6="30.36109"></scales>
<mgrwt>
<rscale>  0 0.30000000E+03</rscale>
<asrwt>  1 0.30361087E+02</asrwt>
<pdfrwt beam="1">  1        1 0.84741065E+00 0.30000000E+03</pdfrwt>
<pdfrwt beam="2">0</pdfrwt>
<totfact> 0.44176964E-04</totfact>
</mgrwt>
<clustering>
<clus scale="   30.361">  1  6  2 -1</clus>
<clus scale="  472.946">  4  5 -1 -1</clus>
<clus scale="  300.000">  1  4  2 -1</clus>
</clustering>
</event>
<event>
 6    1  0.1029244E-011  0.3000000E+03  0.7818608E-02  0.1093470E+00
          1   -1    0    0  502    0  0.00000000000E+00  0.00000000000E+00  0.24293366072E+03  0.24293366072E+03  0.00000000000E+00 0.  1.
         13   -1    0    0    0    0 -0.00000000000E+00 -0.00000000000E+00 -0.27500000000E+03  0.27500000000E+03  0.00000000000E+00 0.  1.
    9000005    2    1    2  501    0  0.11772890573E+02  0.29882947663E+02 -0.59607593704E+02  0.47562394306E+03  0.47077964959E+03 0.  0.
         13    1    3    3    0    0  0.30948760669E+02  0.10984990144E+03 -0.24639134049E+03  0.27153916716E+03  0.00000000000E+00 0.  1.
          1    1    3    3  501    0 -0.19175870096E+02 -0.79966953775E+02  0.18678374679E+03  0.20408477590E+03  0.00000000000E+00 0.  1.
         21    1    1    2  502  501 -0.11772890573E+02 -0.29882947663E+02  0.27541254425E+02  0.42309717664E+02  0.00000000000E+00 0. -1.
<scales pt_clust_4="550.00000" pt_clust_5="550.00000" pt_clust_6="32.11840"></scales>
<mgrwt>
<rscale>  0 0.30000000E+03</rscale>
<asrwt>  1 0.32118398E+02</asrwt>
<pdfrwt beam="1">  1        1 0.88339513E+00 0.30000000E+03</pdfrwt>
<pdfrwt beam="2">0</pdfrwt>
<totfact> 0.18134545E-04</totfact>
</mgrwt>
<clustering>
<clus scale="   32.118">  1  6  2 -1</clus>
<clus scale="  470.780">  4  5 -1 -1</clus>
<clus scale="  300.000">  1  4  2 -1</clus>
</clustering>
</event>
<event>
 6    1  0.1029244E-011  0.3000000E+03  0.7818608E-02  0.1093470E+00
          1   -1    0    0  502    0  0.00000000000E+00  0.00000000000E+00  0.22129434217E+03  0.22129434217E+03  0.00000000000E+00 0.  1.
         13   -1    0    0    0    0 -0.00000000000E+00 -0.00000000000E+00 -0.27500000000E+03  0.27500000000E+03  0.00000000000E+00 0.  1.
    9000005    2    1    2  501    0 -0.24874811367E+02  0.22628312617E+02 -0.47725318795E+02  0.46213938312E+03  0.45843680765E+03 0.  0.
         13    1    3    3    0    0 -0.23966997020E+03 -0.22173011980E+01  0.43892951090E+01  0.23972041413E+03  0.00000000000E+00 0.  1.
          1    1    3    3  501    0  0.21479515883E+03  0.24845613815E+02 -0.52114613904E+02  0.22241896899E+03  0.00000000000E+00 0.  1.
         21    1    1    2  502  501  0.24874811367E+02 -0.22628312617E+02 -0.59803390345E+01  0.34154959045E+02  0.00000000000E+00 0.  1.
<scales pt_clust_4="550.00000" pt_clust_5="550.00000" pt_clust_6="33.62734"></scales>
<mgrwt>
<rscale>  0 0.30000000E+03</rscale>
<asrwt>  1 0.33627339E+02</asrwt>
<pdfrwt beam="1">  1        1 0.80470670E+00 0.30000000E+03</pdfrwt>
<pdfrwt beam="2">0</pdfrwt>
<totfact> 0.96503761E-04</totfact>
</mgrwt>
<clustering>
<clus scale="   33.627">  1  6  2 -1</clus>
<clus scale="  458.437">  4  5 -1 -1</clus>
<clus scale="  300.000">  1  4  2 -1</clus>
</clustering>
</event>
<event>
 6    1  0.1029244E-011  0.3000000E+03  0.7818608E-02  0.1093470E+00
          1   -1    0    0  502    0  0.00000000000E+00  0.00000000000E+00  0.23919037412E+03  0.23919037412E+03  0.00000000000E+00 0.  1.
         13   -1    0    0    0    0 -0.00000000000E+00 -0.00000000000E+00 -0.27500000000E+03  0.27500000000E+03  0.00000000000E+00 0.  1.
    9000005    2    1    2  501    0  0.12233725095E+01 -0.37284940815E+02 -0.58457421005E+02  0.47054881049E+03  0.46541083951E+03 0.  0.
         13    1    3    3    0    0 -0.20706707549E+03 -0.12314947344E+03 -0.42972882211E+02  0.24472277206E+03  0.00000000000E+00 0.  1.
          1    1    3    3  501    0  0.20829044800E+03  0.85864532630E+02 -0.15484538794E+02  0.22582603843E+03  0.00000000000E+00 0.  1.
         21    1    1    2  502  501 -0.12233725095E+01  0.37284940815E+02  0.22647795125E+02  0.43641563628E+02  0.00000000000E+00 0. -1.
<scales pt_clust_4="550.00000" pt_clust_5="550.00000" pt_clust_6="37.30501"></scales>
<mgrwt>
<rscale>  0 0.30000000E+03</rscale>
<asrwt>  1 0.37305006E+02</asrwt>
<pdfrwt beam="1">  1        1 0.86978318E+00 0.30000000E+03</pdfrwt>
<pdfrwt beam="2">0</pdfrwt>
<totfact> 0.25154665E-04</totfact>
</mgrwt>
<clustering>
<clus scale="   37.305">  1  6  2 -1</clus>
<clus scale="  465.411">  4  5 -1 -1</clus>
<clus scale="  300.000">  1  4  2 -1</clus>
</clustering>
</event>
<event>
 6    1  0.1029244E-011  0.3000000E+03  0.7818608E-02  0.1093470E+00
          1   -1    0    0  502    0  0.00000000000E+00  0.00000000000E+00  0.24055596523E+03  0.24055596523E+03  0.00000000000E+00 0.  1.
         13   -1    0    0    0    0 -0.00000000000E+00 -0.00000000000E+00 -0.27500000000E+03  0.27500000000E+03  0.00000000000E+00 0.  1.
    9000005    2    1    2  501    0 -0.27859421221E+02 -0.18297009855E+02 -0.68588519210E+02  0.46784041495E+03  0.46158351463E+03 0.  0.
         13    1    3    3    0    0  0.18781740462E+01 -0.18979517004E+03  0.10924790156E+03  0.21899963037E+03  0.00000000000E+00 0.  1.
          3    1    3    3  501    0 -0.29737595268E+02  0.17149816018E+03 -0.17783642077E+03  0.24884078458E+03  0.00000000000E+00 0.  1.
         21    1    1    2  502  501  0.27859421221E+02  0.18297009855E+02  0.34144484440E+02  0.47715550275E+02  0.00000000000E+00 0.  1.
<scales pt_clust_4="550.00000" pt_clust_5="550.00000" pt_clust_6="33.33059"></scales>
<mgrwt>
<rscale>  0 0.30000000E+03</rscale>
<asrwt>  1 0.33330585E+02</asrwt>
<pdfrwt beam="1">  1        1 0.87474896E+00 0.30000000E+03</pdfrwt>
<pdfrwt beam="2">0</pdfrwt>
<totfact> 0.22839124E-04</totfact>
</mgrwt>
<clustering>
<clus scale="   33.331">  1  6  2 -1</clus>
<clus scale="  461.584">  4  5 -1 -1</clus>
<clus scale="  300.000">  1  4  2 -1</clus>
</clustering>
</event>
<event>
 6    1  0.1029244E-011  0.3000000E+03  0.7818608E-02  0.1093470E+00
          1   -1    0    0  502    0  0.00000000000E+00  0.00000000000E+00  0.24967446843E+03  0.24967446843E+03  0.00000000000E+00 0.  1.
         13   -1    0    0    0    0 -0.00000000000E+00 -0.00000000000E+00 -0.27500000000E+03  0.27500000000E+03  0.00000000000E+00 0.  1.
    9000005    2    1    2  501    0 -0.39815708433E+02  0.20175245795E+02 -0.18822135535E+02  0.47956764699E+03  0.47711479129E+03 0.  0.
         13    1    3    3    0    0  0.14801834161E+02  0.12986896394E+03 -0.21302909739E+03  0.24993286784E+03  0.00000000000E+00 0.  1.
          3    1    3    3  501    0 -0.54617542594E+02 -0.10969371815E+03  0.19420696186E+03  0.22963477915E+03  0.00000000000E+00 0.  1.
         21    1    1    2  502  501  0.39815708433E+02 -0.20175245795E+02 -0.65033960309E+01  0.45106821445E+02  0.00000000000E+00 0. -1.
<scales pt_clust_4="550.00000" pt_clust_5="550.00000" pt_clust_6="44.63556"></scales>
<mgrwt>
<rscale>  0 0.30000000E+03</rscale>
<asrwt>  1 0.44635560E+02</asrwt>
<pdfrwt beam="1">  1        1 0.90790716E+00 0.30000000E+03</pdfrwt>
<pdfrwt beam="2">0</pdfrwt>
<totfact> 0.76961326E-05</totfact>
</mgrwt>
<clustering>
<clus scale="   44.636">  1  6  2 -1</clus>
<clus scale="  477.115">  4  5 -1 -1</clus>
<clus scale="  300.000">  1  4  2 -1</clus>
</clustering>
</event>
<event>
 6    1  0.1029244E-011  0.3000000E+03  0.7818608E-02  0.1093470E+00
          1   -1    0    0  502    0  0.00000000000E+00  0.00000000000E+00  0.22559424527E+03  0.22559424527E+03  0.00000000000E+00 0.  1.
         13   -1    0    0    0    0 -0.00000000000E+00 -0.00000000000E+00 -0.27500000000E+03  0.27500000000E+03  0.00000000000E+00 0.  1.
    9000005    2    1    2  501    0  0.30274310817E+02 -0.48415369460E+01 -0.60016160592E+02  0.46815113987E+03  0.46327483835E+03 0.  0.
         13    1    3    3    0    0  0.65001879519E+01  0.17654448759E+03 -0.17774426435E+03  0.25060573029E+03  0.00000000000E+00 0.  1.
          1    1    3    3  501    0  0.23774122865E+02 -0.18138602454E+03  0.11772810375E+03  0.21754540958E+03  0.00000000000E+00 0.  1.
         21    1    1    2  502  501 -0.30274310817E+02  0.48415369460E+01  0.10610405858E+02  0.32443105399E+02  0.00000000000E+00 0.  1.
<scales pt_clust_4="550.00000" pt_clust_5="550.00000" pt_clust_6="30.65900"></scales>
<mgrwt>
<rscale>  0 0.30000000E+03</rscale>
<asrwt>  1 0.30659002E+02</asrwt>
<pdfrwt beam="1">  1        1 0.82034271E+00 0.30000000E+03</pdfrwt>
<pdfrwt beam="2">0</pdfrwt>
<totfact> 0.73659564E-04</totfact>
</mgrwt>
<clustering>
<clus scale="   30.659">  1  6  2 -1</clus>
<clus scale="  463.275">  4  5 -1 -1</clus>
<clus scale="  300.000">  1  4  2 -1</clus>
</clustering>
</event>
<event>
 6    1  0.1029244E-011  0.3000000E+03  0.7818608E-02  0.1093470E+00
          1   -1    0    0  502    0  0.00000000000E+00  0.00000000000E+00  0.23838536096E+03  0.23838536096E+03  0.00000000000E+00 0.  1.
         13   -1    0    0    0    0 -0.00000000000E+00 -0.00000000000E+00 -0.27500000000E+03  0.27500000000E+03  0.00000000000E+00 0.  1.
    9000005    2    1    2  501    0  0.26877664308E+02  0.18534039621E+02 -0.40756779366E+02  0.48047522894E+03  0.47762894708E+03 0.  0.
         13    1    3    3    0    0  0.12195307577E+03  0.10764307755E+03  0.16834603304E+03  0.23409393772E+03  0.00000000000E+00 0.  1.
          3    1    3    3  501    0 -0.95075411467E+02 -0.89109037931E+02 -0.20910281241E+03  0.24638129122E+03  0.00000000000E+00 0.  1.
         21    1    1    2  502  501 -0.26877664308E+02 -0.18534039621E+02  0.41421403243E+01  0.32910132023E+02  0.00000000000E+00 0.  1.
<scales pt_clust_4="550.00000" pt_clust_5="550.00000" pt_clust_6="32.64842"></scales>
<mgrwt>
<rscale>  0 0.30000000E+03</rscale>
<asrwt>  1 0.32648422E+02</asrwt>
<pdfrwt beam="1">  1        1 0.86685586E+00 0.30000000E+03</pdfrwt>
<pdfrwt beam="2">0</pdfrwt>
<totfact> 0.27656668E-04</totfact>
</mgrwt>
<clustering>
<clus scale="   32.648">  1  6  2 -1</clus>
<clus scale="  477.629">  4  5 -1 -1</clus>
<clus scale="  300.000">  1  4  2 -1</clus>
</clustering>
</event>
<event>
 6    1  0.1029244E-011  0.3000000E+03  0.7818608E-02  0.1093470E+00
          1   -1    0    0  502    0  0.00000000000E+00  0.00000000000E+00  0.24982956113E+03  0.24982956113E+03  0.00000000000E+00 0.  1.
         13   -1    0    0    0    0 -0.00000000000E+00 -0.00000000000E+00 -0.27500000000E+03  0.27500000000E+03  0.00000000000E+00 0.  1.
    9000005    2    1    2  501    0 -0.18189980774E+02 -0.29555480757E+02 -0.70030204084E+02  0.46811271726E+03  0.46154185588E+03 0.  0.
         13    1    3    3    0    0 -0.19008641758E+03  0.12818487733E+03 -0.42742677176E+02  0.23321909308E+03  0.00000000000E+00 0.  1.
          1    1    3    3  501    0  0.17189643680E+03 -0.15774035809E+03 -0.27287526909E+02  0.23489362418E+03  0.00000000000E+00 0.  1.
         21    1    1    2  502  501  0.18189980774E+02  0.29555480757E+02  0.44859765211E+02  0.56716843866E+02  0.00000000000E+00 0.  1.
<scales pt_clust_4="550.00000" pt_clust_5="550.00000" pt_clust_6="34.70449"></scales>
<mgrwt>
<rscale>  0 0.30000000E+03</rscale>
<asrwt>  1 0.34704493E+02</asrwt>
<pdfrwt beam="1">  1        1 0.90847113E+00 0.30000000E+03</pdfrwt>
<pdfrwt beam="2">0</pdfrwt>
<totfact> 0.78241188E-05</totfact>
</mgrwt>
<clustering>
<clus scale="   34.704">  1  6  2 -1</clus>
<clus scale="  461.542">  4  5 -1 -1</clus>
<clus scale="  300.000">  1  4  2 -1</clus>
</clustering>
</event>
<event>
 6    1  0.1029244E-011  0.3000000E+03  0.7818608E-02  0.1093470E+00
          1   -1    0    0  502    0  0.00000000000E+00  0.00000000000E+00  0.23018596872E+03  0.23018596872E+03  0.00000000000E+00 0.  1.
         13   -1    0    0    0    0 -0.00000000000E+00 -0.00000000000E+00 -0.27500000000E+03  0.27500000000E+03  0.00000000000E+00 0.  1.
    9000005    2    1    2  501    0 -0.35946038724E+02  0.25676844127E+01 -0.54423334778E+02  0.46788919384E+03  0.46331381119E+03 0.  0.
         13    1    3    3    0    0 -0.10251587759E+03 -0.21310283758E+03 -0.52179490185E+02  0.24216734655E+03  0.00000000000E+00 0.  1.
          3    1    3    3  501    0  0.66569838867E+02  0.21567052199E+03 -0.22438445933E+01  0.22572184728E+03  0.00000000000E+00 0.  1.
         21    1    1    2  502  501  0.35946038724E+02 -0.25676844127E+01  0.96093035014E+01  0.37296774887E+02  0.00000000000E+00 0.  1.
<scales pt_clust_4="550.00000" pt_clust_5="550.00000" pt_clust_6="36.03763"></scales>
<mgrwt>
<rscale>  0 0.30000000E+03</rscale>
<asrwt>  1 0.36037629E+02</asrwt>
<pdfrwt beam="1">  1        1 0.83703989E+00 0.30000000E+03</pdfrwt>
<pdfrwt beam="2">0</pdfrwt>
<totfact> 0.51999912E-04</totfact>
</mgrwt>
<clustering>
<clus scale="   36.038">  1  6  2 -1</clus>
<clus scale="  463.314">  4  5 -1 -1</clus>
<clus scale="  300.000">  1  4  2 -1</clus>
</clustering>
</event>
<event>
 6    1  0.1029244E-011  0.3000000E+03  0.7818608E-02  0.1093470E+00
          1   -1    0    0  502    0  0.00000000000E+00  0.00000000000E+00  0.21927465180E+03  0.21927465180E+03  0.00000000000E+00 0.  1.
         13   -1    0    0    0    0 -0.00000000000E+00 -0.00000000000E+00 -0.27500000000E+03  0.27500000000E+03  0.00000000000E+00 0.  1.
    9000005    2    1    2  501    0 -0.26402988712E+02  0.15491186452E+02 -0.57720336202E+02  0.46359771180E+03  0.45897070332E+03 0.  0.
         13    1    3    3    0    0 -0.22081048482E+03 -0.71979074970E+02  0.27800603759E+02  0.23390410644E+03  0.00000000000E+00 0.  1.
          1    1    3    3  501    0  0.19440749610E+03  0.87470261423E+02 -0.85520939961E+02  0.22969360537E+03  0.00000000000E+00 0.  1.
         21    1    1    2  502  501  0.26402988712E+02 -0.15491186452E+02  0.19949880038E+01  0.30676940000E+02  0.00000000000E+00 0.  1.
<scales pt_clust_4="550.00000" pt_clust_5="550.00000" pt_clust_6="30.61200"></scales>
<mgrwt>
<rscale>  0 0.30000000E+03</rscale>
<asrwt>  1 0.30612002E+02</asrwt>
<pdfrwt beam="1">  1        1 0.79736237E+00 0.30000000E+03</pdfrwt>
<pdfrwt beam="2">0</pdfrwt>
<totfact> 0.11115699E-03</totfact>
</mgrwt>
<clustering>
<clus scale="   30.612">  1  6  2 -1</clus>
<clus scale="  458.971">  4  5 -1 -1</clus>
<clus scale="  300.000">  1  4  2 -1</clus>
</clustering>
</event>
<event>
 6    1  0.1029244E-011  0.3000000E+03  0.7818608E-02  0.1093470E+00
          1   -1    0    0  502    0  0.00000000000E+00  0.00000000000E+00  0.23177492219E+03  0.23177492219E+03  0.00000000000E+00 0.  1.
         13   -1    0    0    0    0 -0.00000000000E+00 -0.00000000000E+00 -0.27500000000E+03  0.27500000000E+03  0.00000000000E+00 0.  1.
    9000005    2    1    2  501    0  0.25570118373E+02  0.19001700655E+02 -0.51151844623E+02  0.47394613583E+03  0.47009949254E+03 0.  0.
         13    1    3    3    0    0  0.16856047309E+03  0.10106647878E+03 -0.17859737368E+03  0.26556371760E+03  0.00000000000E+00 0.  1.
          3    1    3    3  501    0 -0.14299035472E+03 -0.82064778120E+02  0.12744552906E+03  0.20838241823E+03  0.00000000000E+00 0.  1.
         21    1    1    2  502  501 -0.25570118373E+02 -0.19001700655E+02  0.79267668111E+01  0.32828786354E+02  0.00000000000E+00 0. -1.
<scales pt_clust_4="550.00000" pt_clust_5="550.00000" pt_clust_6="31.85743"></scales>
<mgrwt>
<rscale>  0 0.30000000E+03</rscale>
<asrwt>  1 0.31857426E+02</asrwt>
<pdfrwt beam="1">  1        1 0.84281790E+00 0.30000000E+03</pdfrwt>
<pdfrwt beam="2">0</pdfrwt>
<totfact> 0.48015335E-04</totfact>
</mgrwt>
<clustering>
<clus scale="   31.857">  1  6  2 -1</clus>
<clus scale="  470.099">  4  5 -1 -1</clus>
<clus scale="  300.000">  1  4  2 -1</clus>
</clustering>
</event>
<event>
 6    1  0.1029244E-011  0.3000000E+03  0.7818608E-02  0.1093470E+00
          1   -1    0    0  502    0  0.00000000000E+00  0.00000000000E+00  0.24181014282E+03  0.24181014282E+03  0.00000000000E+00 0.  1.
         13   -1    0    0    0    0 -0.00000000000E+00 -0.00000000000E+00 -0.27500000000E+03  0.27500000000E+03  0.00000000000E+00 0.  1.
    9000005    2    1    2  501    0  0.38704880516E+02  0.12421676798E+02 -0.43036521675E+02  0.47498523837E+03  0.47128172959E+03 0.  0.
         13    1    3    3    0    0 -0.89796074417E+02 -0.15505325861E+03 -0.15421450984E+03  0.23640423649E+03  0.00000000000E+00 0.  1.
          3    1    3    3  501    0  0.12850095493E+03  0.16747493541E+03  0.11117798816E+03  0.23858100188E+03  0.00000000000E+00 0.  1.
         21    1    1    2  502  501 -0.38704880516E+02 -0.12421676798E+02  0.98466644936E+01  0.41824904445E+02  0.00000000000E+00 0. -1.
<scales pt_clust_4="550.00000" pt_clust_5="550.00000" pt_clust_6="40.64930"></scales>
<mgrwt>
<rscale>  0 0.30000000E+03</rscale>
<asrwt>  1 0.40649303E+02</asrwt>
<pdfrwt beam="1">  1        1 0.87930961E+00 0.30000000E+03</pdfrwt>
<pdfrwt beam="2">0</pdfrwt>
<totfact> 0.19575822E-04</totfact>
</mgrwt>
<clustering>
<clus scale="   40.649">  1  6  2 -1</clus>
<clus scale="  471.282">  4  5 -1 -1</clus>
<clus scale="  300.000">  1  4  2 -1</clus>
</clustering>
</event>
<event>
 6    1  0.1029244E-011  0.3000000E+03  0.7818608E-02  0.1093470E+00
          1   -1    0    0  502    0  0.00000000000E+00  0.00000000000E+00  0.23782759485E+03  0.23782759485E+03  0.00000000000E+00 0.  1.
         13   -1    0    0    0    0 -0.00000000000E+00 -0.00000000000E+00 -0.27500000000E+03  0.27500000000E+03  0.00000000000E+00 0.  1.
    9000005    2    1    2  501    0 -0.25420795291E+02  0.38717749370E+02 -0.37072310452E+02  0.46651030900E+03  0.46272262885E+03 0.  0.
         13    1    3    3    0    0  0.55362656837E+02 -0.16612131407E+03  0.10527361182E+03  0.20431311291E+03  0.00000000000E+00 0.  1.
          1    1    3    3  501    0 -0.80783452128E+02  0.20483906344E+03 -0.14234592228E+03  0.26219719609E+03  0.00000000000E+00 0.  1.
         21    1    1    2  502  501  0.25420795291E+02 -0.38717749370E+02 -0.10009469710E+00  0.46317285849E+02  0.00000000000E+00 0.  1.
<scales pt_clust_4="550.00000" pt_clust_5="550.00000" pt_clust_6="46.31718"></scales>
<mgrwt>
<rscale>  0 0.30000000E+03</rscale>
<asrwt>  1 0.46317178E+02</asrwt>
<pdfrwt beam="1">  1        1 0.86482762E+00 0.30000000E+03</pdfrwt>
<pdfrwt beam="2">0</pdfrwt>
<totfact> 0.27263743E-04</totfact>
</mgrwt>
<clustering>
<clus scale="   46.317">  1  6  2 -1</clus>
<clus scale="  462.723">  4  5 -1 -1</clus>
<clus scale="  300.000">  1  4  2 -1</clus>
</clustering>
</event>
<event>
 6    1  0.1029244E-011  0.3000000E+03  0.7818608E-02  0.1093470E+00
          1   -1    0    0  502    0  0.00000000000E+00  0.00000000000E+00  0.24013558538E+03  0.24013558538E+03  0.00000000000E+00 0.  1.
         13   -1    0    0    0    0 -0.00000000000E+00 -0.00000000000E+00 -0.27500000000E+03  0.27500000000E+03  0.00000000000E+00 0.  1.
    9000005    2    1    2  501    0  0.48346078343E+02 -0.14492750115E+02 -0.24454595280E+02  0.46360164089E+03  0.46019677433E+03 0.  0.
         13    1    3    3    0    0 -0.18165878843E+02 -0.20124725276E+03 -0.12874818899E+03  0.23959664452E+03  0.00000000000E+00 0.  1.
          3    1    3    3  501    0  0.66511957186E+02  0.18675450265E+03  0.10429359371E+03  0.22400499636E+03  0.00000000000E+00 0.  1.
         21    1    1    2  502  501 -0.48346078343E+02  0.14492750115E+02 -0.10409819336E+02  0.51533944499E+02  0.00000000000E+00 0.  1.
<scales pt_clust_4="550.00000" pt_clust_5="550.00000" pt_clust_6="50.47163"></scales>
<mgrwt>
<rscale>  0 0.30000000E+03</rscale>
<asrwt>  1 0.50471632E+02</asrwt>
<pdfrwt beam="1">  1        1 0.87322031E+00 0.30000000E+03</pdfrwt>
<pdfrwt beam="2">0</pdfrwt>
<totfact> 0.21970735E-04</totfact>
</mgrwt>
<clustering>
<clus scale="   50.472">  1  6  2 -1</clus>
<clus scale="  460.197">  4  5 -1 -1</clus>
<clus scale="  300.000">  1  4  2 -1</clus>
</clustering>
</event>
<event>
 6    1  0.1029244E-011  0.3000000E+03  0.7818608E-02  0.1093470E+00
          1   -1    0    0  502    0  0.00000000000E+00  0.00000000000E+00  0.22362648683E+03  0.22362648683E+03  0.00000000000E+00 0.  1.
         13   -1    0    0    0    0 -0.00000000000E+00 -0.00000000000E+00 -0.27500000000E+03  0.27500000000E+03  0.00000000000E+00 0.  1.
    9000005    2    1    2  501    0 -0.29876052015E+02  0.28140623606E+01 -0.56880125757E+02  0.46811714051E+03  0.46367856441E+03 0.  0.
         13    1    3    3    0    0 -0.24213875216E+03 -0.65244361934E+01  0.17866244113E+02  0.24288463567E+03  0.00000000000E+00 0.  1.
          3    1    3    3  501    0  0.21226270014E+03  0.93384985540E+01 -0.74746369869E+02  0.22523250484E+03  0.00000000000E+00 0.  1.
         21    1    1    2  502  501  0.29876052015E+02 -0.28140623606E+01  0.55066125861E+01  0.30509346324E+02  0.00000000000E+00 0. -1.
<scales pt_clust_4="550.00000" pt_clust_5="550.00000" pt_clust_6="30.00829"></scales>
<mgrwt>
<rscale>  0 0.30000000E+03</rscale>
<asrwt>  1 0.30008289E+02</asrwt>
<pdfrwt beam="1">  1        1 0.81318722E+00 0.30000000E+03</pdfrwt>
<pdfrwt beam="2">0</pdfrwt>
<totfact> 0.84754424E-04</totfact>
</mgrwt>
<clustering>
<clus scale="   30.008">  1  6  2 -1</clus>
<clus scale="  463.679">  4  5 -1 -1</clus>
<clus scale="  300.000">  1  4  2 -1</clus>
</clustering>
</event>
<event>
 6    1  0.1029244E-011  0.3000000E+03  0.7818608E-02  0.1093470E+00
          1   -1    0    0  502    0  0.00000000000E+00  0.00000000000E+00  0.23183604144E+03  0.23183604144E+03  0.00000000000E+00 0.  1.
         13   -1    0    0    0    0 -0.00000000000E+00 -0.00000000000E+00 -0.27500000000E+03  0.27500000000E+03  0.00000000000E+00 0.  1.
    9000005    2    1    2  501    0  0.31725645785E+02 -0.20133493267E+01 -0.47410394456E+02  0.47476420966E+03  0.47132020866E+03 0.  0.
         13    1    3    3    0    0 -0.10844049446E+03 -0.48536439774E+02  0.17274797684E+03  0.20965922429E+03  0.00000000000E+00 0.  1.
          1    1    3    3  501    0  0.14016614025E+03  0.46523090447E+02 -0.22015837130E+03  0.26510498537E+03  0.00000000000E+00 0.  1.
         21    1    1    2  502  501 -0.31725645785E+02  0.20133493267E+01  0.42464358946E+01  0.32071831781E+02  0.00000000000E+00 0. -1.
<scales pt_clust_4="550.00000" pt_clust_5="550.00000" pt_clust_6="31.78947"></scales>
<mgrwt>
<rscale>  0 0.30000000E+03</rscale>
<asrwt>  1 0.31789466E+02</asrwt>
<pdfrwt beam="1">  1        1 0.84304015E+00 0.30000000E+03</pdfrwt>
<pdfrwt beam="2">0</pdfrwt>
<totfact> 0.47828419E-04</totfact>
</mgrwt>
<clustering>
<clus scale="   31.789">  1  6  2 -1</clus>
<clus scale="  471.320">  4  5 -1 -1</clus>
<clus scale="  300.000">  1  4  2 -1</clus>
</clustering>
</event>
<event>
 6    1  0.1029244E-011  0.3000000E+03  0.7818608E-02  0.1093470E+00
          1   -1    0    0  502    0  0.00000000000E+00  0.00000000000E+00  0.25960770222E+03  0.25960770222E+03  0.00000000000E+00 0.  1.
         13   -1    0    0    0    0 -0.00000000000E+00 -0.00000000000E+00 -0.27500000000E+03  0.27500000000E+03  0.00000000000E+00 0.  1.
    9000005    2    1    2  501    0 -0.32728422929E+02  0.25165240570E+02 -0.18697271902E+02  0.49319077507E+03  0.49110397437E+03 0.  0.
         13    1    3    3    0    0 -0.45384404746E+02  0.21889749001E+03  0.12082165646E+03  0.25411361238E+03  0.00000000000E+00 0.  1.
          1    1    3    3  501    0  0.12655981817E+02 -0.19373224944E+03 -0.13951892836E+03  0.23907716269E+03  0.00000000000E+00 0.  1.
         21    1    1    2  502  501  0.32728422929E+02 -0.25165240570E+02  0.33049741233E+01  0.41416927147E+02  0.00000000000E+00 0.  1.
<scales pt_clust_4="550.00000" pt_clust_5="550.00000" pt_clust_6="41.28485"></scales>
<mgrwt>
<rscale>  0 0.30000000E+03</rscale>
<asrwt>  1 0.41284852E+02</asrwt>
<pdfrwt beam="1">  1        1 0.94402801E+00 0.30000000E+03</pdfrwt>
<pdfrwt beam="2">0</pdfrwt>
<totfact> 0.15740396E-05</totfact>
</mgrwt>
<clustering>
<clus scale="   41.285">  1  6  2 -1</clus>
<clus scale="  491.104">  4  5 -1 -1</clus>
<clus scale="  300.000">  1  4  2 -1</clus>
</clustering>
</event>
<event>
 6    1  0.1029244E-011  0.3000000E+03  0.7818608E-02  0.1093470E+00
          1   -1    0    0  502    0  0.00000000000E+00  0.00000000000E+00  0.23897509576E+03  0.23897509576E+03  0.00000000000E+00 0.  1.
         13   -1    0    0    0    0 -0.00000000000E+00 -0.00000000000E+00 -0.27500000000E+03  0.27500000000E+03  0.00000000000E+00 0.  1.
    9000005    2    1    2  501    0  0.33610001345E+02 -0.15841278924E+02 -0.59522845443E+02  0.47001225294E+03  0.46474505966E+03 0.  0.
         13    1    3    3    0    0  0.12417240547E+03  0.11970215975E+03  0.13296092332E+03  0.21777511442E+03  0.00000000000E+00 0.  1.
          3    1    3    3  501    0 -0.90562404123E+02 -0.13554343868E+03 -0.19248376877E+03  0.25223713852E+03  0.00000000000E+00 0.  1.
         21    1    1    2  502  501 -0.33610001345E+02  0.15841278924E+02  0.23497941207E+02  0.43962842826E+02  0.00000000000E+00 0. -1.
<scales pt_clust_4="550.00000" pt_clust_5="550.00000" pt_clust_6="37.15613"></scales>
<mgrwt>
<rscale>  0 0.30000000E+03</rscale>
<asrwt>  1 0.37156134E+02</asrwt>
<pdfrwt beam="1">  1        1 0.86900035E+00 0.30000000E+03</pdfrwt>
<pdfrwt beam="2">0</pdfrwt>
<totfact> 0.25643258E-04</totfact>
</mgrwt>
<clustering>
<clus scale="   37.156">  1  6  2 -1</clus>
<clus scale="  464.745">  4  5 -1 -1</clus>
<clus scale="  300.000">  1  4  2 -1</clus>
</clustering>
</event>
<event>
 6    1  0.1029244E-011  0.3000000E+03  0.7818608E-02  0.1093470E+00
          1   -1    0    0  502    0  0.00000000000E+00  0.00000000000E+00  0.24752684390E+03  0.24752684390E+03  0.00000000000E+00 0.  1.
         13   -1    0    0    0    0 -0.00000000000E+00 -0.00000000000E+00 -0.27500000000E+03  0.27500000000E+03  0.00000000000E+00 0.  1.
    9000005    2    1    2  501    0  0.29890407007E+02  0.29040542071E+02 -0.38091524863E+02  0.47952057378E+03  0.47618507630E+03 0.  0.
         13    1    3    3    0    0  0.14534855054E+03  0.20397886701E+03 -0.85433132400E+02  0.26463635322E+03  0.00000000000E+00 0.  1.
          3    1    3    3  501    0 -0.11545814353E+03 -0.17493832494E+03  0.47341607538E+02  0.21488422056E+03  0.00000000000E+00 0.  1.
         21    1    1    2  502  501 -0.29890407007E+02 -0.29040542071E+02  0.10618368763E+02  0.43006270125E+02  0.00000000000E+00 0. -1.
<scales pt_clust_4="550.00000" pt_clust_5="550.00000" pt_clust_6="41.67481"></scales>
<mgrwt>
<rscale>  0 0.30000000E+03</rscale>
<asrwt>  1 0.41674807E+02</asrwt>
<pdfrwt beam="1">  1        1 0.90009761E+00 0.30000000E+03</pdfrwt>
<pdfrwt beam="2">0</pdfrwt>
<totfact> 0.10664830E-04</totfact>
</mgrwt>
<clustering>
<clus scale="   41.675">  1  6  2 -1</clus>
<clus scale="  476.185">  4  5 -1 -1</clus>
<clus scale="  300.000">  1  4  2 -1</clus>
</clustering>
</event>
<event>
 6    1  0.1029244E-011  0.3000000E+03  0.7818608E-02  0.1093470E+00
          1   -1    0    0  502    0  0.00000000000E+00  0.00000000000E+00  0.22876979339E+03  0.22876979339E+03  0.00000000000E+00 0.  1.
         13   -1    0    0    0    0 -0.00000000000E+00 -0.00000000000E+00 -0.27500000000E+03  0.27500000000E+03  0.00000000000E+00 0.  1.
    9000005    2    1    2  501    0 -0.28588592043E+02  0.15646295950E+02 -0.69160316234E+02  0.46392127900E+03  0.45757806940E+03 0.  0.
         13    1    3    3    0    0 -0.96882572584E+02 -0.13541276414E+03  0.12530394441E+03  0.20838408780E+03  0.00000000000E+00 0.  1.
          1    1    3    3  501    0  0.68293980541E+02  0.15105906009E+03 -0.19446426065E+03  0.25553719120E+03  0.00000000000E+00 0.  1.
         21    1    1    2  502  501  0.28588592043E+02 -0.15646295950E+02  0.22930109623E+02  0.39848514392E+02  0.00000000000E+00 0.  1.
<scales pt_clust_4="550.00000" pt_clust_5="550.00000" pt_clust_6="32.59009"></scales>
<mgrwt>
<rscale>  0 0.30000000E+03</rscale>
<asrwt>  1 0.32590093E+02</asrwt>
<pdfrwt beam="1">  1        1 0.83189016E+00 0.30000000E+03</pdfrwt>
<pdfrwt beam="2">0</pdfrwt>
<totfact> 0.57852058E-04</totfact>
</mgrwt>
<clustering>
<clus scale="   32.590">  1  6  2 -1</clus>
<clus scale="  457.578">  4  5 -1 -1</clus>
<clus scale="  300.000">  1  4  2 -1</clus>
</clustering>
</event>
<event>
 6    1  0.1029244E-011  0.3000000E+03  0.7818608E-02  0.1093470E+00
          1   -1    0    0  502    0  0.00000000000E+00  0.00000000000E+00  0.25307582335E+03  0.25307582335E+03  0.00000000000E+00 0.  1.
         13   -1    0    0    0    0 -0.00000000000E+00 -0.00000000000E+00 -0.27500000000E+03  0.27500000000E+03  0.00000000000E+00 0.  1.
    9000005    2    1    2  501    0 -0.15862807895E+02  0.45939144154E+02  0.46895392121E+01  0.47266532333E+03  0.47013666360E+03 0.  0.
         13    1    3    3    0    0  0.32225869461E+02 -0.10966108966E+03 -0.18821693806E+03  0.22020371709E+03  0.00000000000E+00 0.  1.
          3    1    3    3  501    0 -0.48088677357E+02  0.15560023382E+03  0.19290647727E+03  0.25246160624E+03  0.00000000000E+00 0.  1.
         21    1    1    2  502  501  0.15862807895E+02 -0.45939144154E+02 -0.26613715865E+02  0.55410500016E+02  0.00000000000E+00 0.  1.
<scales pt_clust_4="550.00000" pt_clust_5="550.00000" pt_clust_6="48.60078"></scales>
<mgrwt>
<rscale>  0 0.30000000E+03</rscale>
<asrwt>  1 0.48600782E+02</asrwt>
<pdfrwt beam="1">  1        1 0.92027572E+00 0.30000000E+03</pdfrwt>
<pdfrwt beam="2">0</pdfrwt>
<totfact> 0.38843911E-05</totfact>
</mgrwt>
<clustering>
<clus scale="   48.601">  1  6  2 -1</clus>
<clus scale="  470.137">  4  5 -1 -1</clus>
<clus scale="  300.000">  1  4  2 -1</clus>
</clustering>
</event>
<event>
 6    1  0.1029244E-011  0.3000000E+03  0.7818608E-02  0.1093470E+00
          1   -1    0    0  502    0  0.00000000000E+00  0.00000000000E+00  0.26520568709E+03  0.26520568709E+03  0.00000000000E+00 0.  1.
         13   -1    0    0    0    0 -0.00000000000E+00 -0.00000000000E+00 -0.27500000000E+03  0.27500000000E+03  0.00000000000E+00 0.  1.
    9000005    2    1    2  501    0  0.51913111097E+02  0.58335741207E+01 -0.56696355127E+02  0.47000025101E+03  0.46363429292E+03 0.  0.
         13    1    3    3    0    0  0.11602985276E+02  0.16143664139E+03 -0.19817189602E+03  0.25586816688E+03  0.00000000000E+00 0.  1.
          1    1    3    3  501    0  0.40310125822E+02 -0.15560306727E+03  0.14147554089E+03  0.21413208414E+03  0.00000000000E+00 0.  1.
         21    1    1    2  502  501 -0.51913111097E+02 -0.58335741207E+01  0.46902042216E+02  0.70205436078E+02  0.00000000000E+00 0.  1.
<scales pt_clust_4="550.00000" pt_clust_5="550.00000" pt_clust_6="52.23985"></scales>
<mgrwt>
<rscale>  0 0.30000000E+03</rscale>
<asrwt>  1 0.52239848E+02</asrwt>
<pdfrwt beam="1">  1        1 0.96438432E+00 0.30000000E+03</pdfrwt>
<pdfrwt beam="2">0</pdfrwt>
<totfact> 0.56932989E-06</totfact>
</mgrwt>
<clustering>
<clus scale="   52.240">  1  6  2 -1</clus>
<clus scale="  463.634">  4  5 -1 -1</clus>
<clus scale="  300.000">  1  4  2 -1</clus>
</clustering>
</event>
<event>
 6    1  0.1029244E-011  0.3000000E+03  0.7818608E-02  0.1093470E+00
          1   -1    0    0  502    0  0.00000000000E+00  0.00000000000E+00  0.22140130058E+03  0.22140130058E+03  0.00000000000E+00 0.  1.
         13   -1    0    0    0    0 -0.00000000000E+00 -0.00000000000E+00 -0.27500000000E+03  0.27500000000E+03  0.00000000000E+00 0.  1.
    9000005    2    1    2  501    0 -0.26006075935E+02 -0.19629852614E+02 -0.65189114316E+02  0.46181828717E+03  0.45603164653E+03 0.  0.
         13    1    3    3    0    0  0.52096143441E+02 -0.12793900038E+03  0.15292268975E+03  0.20607703661E+03  0.00000000000E+00 0.  1.
          1    1    3    3  501    0 -0.78102219376E+02  0.10830914777E+03 -0.21811180406E+03  0.25574125055E+03  0.00000000000E+00 0.  1.
         21    1    1    2  502  501  0.26006075935E+02  0.19629852614E+02  0.11590414893E+02  0.34583013411E+02  0.00000000000E+00 0. -1.
<scales pt_clust_4="550.00000" pt_clust_5="550.00000" pt_clust_6="32.58293"></scales>
<mgrwt>
<rscale>  0 0.30000000E+03</rscale>
<asrwt>  1 0.32582926E+02</asrwt>
<pdfrwt beam="1">  1        1 0.80509564E+00 0.30000000E+03</pdfrwt>
<pdfrwt beam="2">0</pdfrwt>
<totfact> 0.96426290E-04</totfact>
</mgrwt>
<clustering>
<clus scale="   32.583">  1  6  2 -1</clus>
<clus scale="  456.032">  4  5 -1 -1</clus>
<clus scale="  300.000">  1  4  2 -1</clus>
</clustering>
</event>
<event>
 6    1  0.1029244E-011  0.3000000E+03  0.7818608E-02  0.1093470E+00
          1   -1    0    0  502    0  0.00000000000E+00  0.00000000000E+00  0.24267858957E+03  0.24267858957E+03  0.00000000000E+00 0.  1.
         13   -1    0    0    0    0 -0.00000000000E+00 -0.00000000000E+00 -0.27500000000E+03  0.27500000000E+03  0.00000000000E+00 0.  1.
    9000005    2    1    2  501    0  0.39619570124E+02  0.28409930469E+02 -0.50681663746E+02  0.46558316379E+03  0.46024147670E+03 0.  0.
         13    1    3    3    0    0  0.20793348091E+03 -0.98120853592E+02  0.45016661304E+02  0.23428728986E+03  0.00000000000E+00 0.  1.
          1    1    3    3  501    0 -0.16831391079E+03  0.12653078406E+03 -0.95698325050E+02  0.23129587393E+03  0.00000000000E+00 0.  1.
         21    1    1    2  502  501 -0.39619570124E+02 -0.28409930469E+02  0.18360253319E+02  0.52095425788E+02  0.00000000000E+00 0.  1.
<scales pt_clust_4="550.00000" pt_clust_5="550.00000" pt_clust_6="48.75279"></scales>
<mgrwt>
<rscale>  0 0.30000000E+03</rscale>
<asrwt>  1 0.48752790E+02</asrwt>
<pdfrwt beam="1">  1        1 0.88246760E+00 0.30000000E+03</pdfrwt>
<pdfrwt beam="2">0</pdfrwt>
<totfact> 0.17285276E-04</totfact>
</mgrwt>
<clustering>
<clus scale="   48.753">  1  6  2 -1</clus>
<clus scale="  460.241">  4  5 -1 -1</clus>
<clus scale="  300.000">  1  4  2 -1</clus>
</clustering>
</event>
<event>
 6    1  0.1029244E-011  0.3000000E+03  0.7818608E-02  0.1093470E+00
          1   -1    0    0  502    0  0.00000000000E+00  0.00000000000E+00  0.23037892150E+03  0.23037892150E+03  0.00000000000E+00 0.  1.
         13   -1    0    0    0    0 -0.00000000000E+00 -0.00000000000E+00 -0.27500000000E+03  0.27500000000E+03  0.00000000000E+00 0.  1.
    9000005    2    1    2  501    0  0.84811963892E+01 -0.31338632372E+02 -0.47743407112E+02  0.47276313533E+03  0.46922436918E+03 0.  0.
         13    1    3    3    0    0  0.94615121693E+02 -0.87612128665E+02 -0.22987922088E+03  0.26357610388E+03  0.00000000000E+00 0.  1.
          3    1    3    3  501    0 -0.86133925303E+02  0.56273496293E+02  0.18213581377E+03  0.20918703146E+03  0.00000000000E+00 0.  1.
         21    1    1    2  502  501 -0.84811963892E+01  0.31338632372E+02  0.31223286098E+01  0.32615786164E+02  0.00000000000E+00 0. -1.
<scales pt_clust_4="550.00000" pt_clust_5="550.00000" pt_clust_6="32.46599"></scales>
<mgrwt>
<rscale>  0 0.30000000E+03</rscale>
<asrwt>  1 0.32465991E+02</asrwt>
<pdfrwt beam="1">  1        1 0.83774153E+00 0.30000000E+03</pdfrwt>
<pdfrwt beam="2">0</pdfrwt>
<totfact> 0.52408471E-04</totfact>
</mgrwt>
<clustering>
<clus scale="   32.466">  1  6  2 -1</clus>
<clus scale="  469.224">  4  5 -1 -1</clus>
<clus scale="  300.000">  1  4  2 -1</clus>
</clustering>
</event>
<event>
 6    1  0.1029244E-011  0.3000000E+03  0.7818608E-02  0.1093470E+00
          1   -1    0    0  502    0  0.00000000000E+00  0.00000000000E+00  0.22232821382E+03  0.22232821382E+03  0.00000000000E+00 0.  1.
         13   -1    0    0    0    0 -0.00000000000E+00 -0.00000000000E+00 -0.27500000000E+03  0.27500000000E+03  0.00000000000E+00 0.  1.
    9000005    2    1    2  501    0 -0.18710886290E+02  0.26858192803E+02 -0.60329482343E+02  0.46371125237E+03  0.45860333552E+03 0.  0.
         13    1    3    3    0    0  0.82650320610E+02 -0.80331888910E+02  0.16082871979E+03  0.19786400628E+03  0.00000000000E+00 0.  1.
          3    1    3    3  501    0 -0.10136120690E+03  0.10719008171E+03 -0.22115820214E+03  0.26584724609E+03  0.00000000000E+00 0.  1.
         21    1    1    2  502  501  0.18710886290E+02 -0.26858192803E+02  0.76576961645E+01  0.33616961448E+02  0.00000000000E+00 0.  1.
<scales pt_clust_4="550.00000" pt_clust_5="550.00000" pt_clust_6="32.73316"></scales>
<mgrwt>
<rscale>  0 0.30000000E+03</rscale>
<asrwt>  1 0.32733160E+02</asrwt>
<pdfrwt beam="1">  1        1 0.80846623E+00 0.30000000E+03</pdfrwt>
<pdfrwt beam="2">0</pdfrwt>
<totfact> 0.90775664E-04</totfact>
</mgrwt>
<clustering>
<clus scale="   32.733">  1  6  2 -1</clus>
<clus scale="  458.603">  4  5 -1 -1</clus>
<clus scale="  300.000">  1  4  2 -1</clus>
</clustering>
</event>
<event>
 6    1  0.1029244E-011  0.3000000E+03  0.7818608E-02  0.1093470E+00
          1   -1    0    0  502    0  0.00000000000E+00  0.00000000000E+00  0.25701052889E+03  0.25701052889E+03  0.00000000000E+00 0.  1.
         13   -1    0    0    0    0 -0.00000000000E+00 -0.00000000000E+00 -0.27500000000E+03  0.27500000000E+03  0.00000000000E+00 0.  1.
    9000005    2    1    2  501    0 -0.38536446045E+02 -0.60628915871E+01 -0.51629259882E+02  0.48049886306E+03  0.47612158174E+03 0.  0.
         13    1    3    3    0    0  0.65915625001E+02 -0.19046230269E+03  0.94977271273E+02  0.22280359159E+03  0.00000000000E+00 0.  1.
          3    1    3    3  501    0 -0.10445207105E+03  0.18439941110E+03 -0.14660653116E+03  0.25769527147E+03  0.00000000000E+00 0.  1.
         21    1    1    2  502  501  0.38536446045E+02  0.60628915871E+01  0.33639788773E+02  0.51511665833E+02  0.00000000000E+00 0.  1.
<scales pt_clust_4="550.00000" pt_clust_5="550.00000" pt_clust_6="39.01046"></scales>
<mgrwt>
<rscale>  0 0.30000000E+03</rscale>
<asrwt>  1 0.39010464E+02</asrwt>
<pdfrwt beam="1">  1        1 0.93458374E+00 0.30000000E+03</pdfrwt>
<pdfrwt beam="2">0</pdfrwt>
<totfact> 0.22335941E-05</totfact>
</mgrwt>
<clustering>
<clus scale="   39.010">  1  6  2 -1</clus>
<clus scale="  476.122">  4  5 -1 -1</clus>
<clus scale="  300.000">  1  4  2 -1</clus>
</clustering>
</event>
<event>
 6    1  0.1029244E-011  0.3000000E+03  0.7818608E-02  0.1093470E+00
          1   -1    0    0  502    0  0.00000000000E+00  0.00000000000E+00  0.22742335877E+03  0.22742335877E+03  0.00000000000E+00 0.  1.
         13   -1    0    0    0    0 -0.00000000000E+00 -0.00000000000E+00 -0.27500000000E+03  0.27500000000E+03  0.00000000000E+00 0.  1.
    9000005    2    1    2  501    0  0.67323361739E+01 -0.35174867839E+02 -0.46066728445E+02  0.46657819850E+03  0.46291519328E+03 0.  0.
         13    1    3    3    0    0  0.16439015917E+03 -0.79957726863E+02  0.13130812599E+03  0.22507595711E+03  0.00000000000E+00 0.  1.
          3    1    3    3  501    0 -0.15765782300E+03  0.44782859023E+02 -0.17737485443E+03  0.24150224140E+03  0.00000000000E+00 0.  1.
         21    1    1    2  502  501 -0.67323361739E+01  0.35174867839E+02 -0.15099127866E+01  0.35845160266E+02  0.00000000000E+00 0.  1.
<scales pt_clust_4="550.00000" pt_clust_5="550.00000" pt_clust_6="35.81334"></scales>
<mgrwt>
<rscale>  0 0.30000000E+03</rscale>
<asrwt>  1 0.35813345E+02</asrwt>
<pdfrwt beam="1">  1        1 0.82699403E+00 0.30000000E+03</pdfrwt>
<pdfrwt beam="2">0</pdfrwt>
<totfact> 0.62441713E-04</totfact>
</mgrwt>
<clustering>
<clus scale="   35.813">  1  6  2 -1</clus>
<clus scale="  462.915">  4  5 -1 -1</clus>
<clus scale="  300.000">  1  4  2 -1</clus>
</clustering>
</event>
<event>
 6    1  0.1029244E-011  0.3000000E+03  0.7818608E-02  0.1093470E+00
          1   -1    0    0  502    0  0.00000000000E+00  0.00000000000E+00  0.22265523572E+03  0.22265523572E+03  0.00000000000E+00 0.  1.
         13   -1    0    0    0    0 -0.00000000000E+00 -0.00000000000E+00 -0.27500000000E+03  0.27500000000E+03  0.00000000000E+00 0.  1.
    9000005    2    1    2  501    0 -0.32350608589E+02  0.10953863854E+02 -0.46186329434E+02  0.46294968387E+03  0.45937205374E+03 0.  0.
         13    1    3    3    0    0 -0.34601183701E+02  0.17178474042E+03 -0.18184267472E+03  0.25253514073E+03  0.00000000000E+00 0.  1.
          1    1    3    3  501    0  0.22505751125E+01 -0.16083087656E+03  0.13565634529E+03  0.21041454313E+03  0.00000000000E+00 0.  1.
         21    1    1    2  502  501  0.32350608589E+02 -0.10953863854E+02 -0.61584348499E+01  0.34705551850E+02  0.00000000000E+00 0.  1.
<scales pt_clust_4="550.00000" pt_clust_5="550.00000" pt_clust_6="34.15480"></scales>
<mgrwt>
<rscale>  0 0.30000000E+03</rscale>
<asrwt>  1 0.34154797E+02</asrwt>
<pdfrwt beam="1">  1        1 0.80965540E+00 0.30000000E+03</pdfrwt>
<pdfrwt beam="2">0</pdfrwt>
<totfact> 0.88158427E-04</totfact>
</mgrwt>
<clustering>
<clus scale="   34.155">  1  6  2 -1</clus>
<clus scale="  459.372">  4  5 -1 -1</clus>
<clus scale="  300.000">  1  4  2 -1</clus>
</clustering>
</event>
<event>
 6    1  0.1029244E-011  0.3000000E+03  0.7818608E-02  0.1093470E+00
          1   -1    0    0  502    0  0.00000000000E+00  0.00000000000E+00  0.23247052923E+03  0.23247052923E+03  0.00000000000E+00 0.  1.
         13   -1    0    0    0    0 -0.00000000000E+00 -0.00000000000E+00 -0.27500000000E+03  0.27500000000E+03  0.00000000000E+00 0.  1.
    9000005    2    1    2  501    0 -0.35394075194E+02  0.60526177403E+01 -0.61658806317E+02  0.46678507459E+03  0.46129938514E+03 0.  0.
         13    1    3    3    0    0  0.26954361658E+02 -0.76375315966E+02  0.18358295992E+03  0.20065500162E+03  0.00000000000E+00 0.  1.
          3    1    3    3  501    0 -0.62348436852E+02  0.82427933706E+02 -0.24524176624E+03  0.26613007297E+03  0.00000000000E+00 0.  1.
         21    1    1    2  502  501  0.35394075194E+02 -0.60526177403E+01  0.19129335546E+02  0.40685454634E+02  0.00000000000E+00 0. -1.
<scales pt_clust_4="550.00000" pt_clust_5="550.00000" pt_clust_6="35.90786"></scales>
<mgrwt>
<rscale>  0 0.30000000E+03</rscale>
<asrwt>  1 0.35907865E+02</asrwt>
<pdfrwt beam="1">  1        1 0.84534738E+00 0.30000000E+03</pdfrwt>
<pdfrwt beam="2">0</pdfrwt>
<totfact> 0.44652967E-04</totfact>
</mgrwt>
<clustering>
<clus scale="   35.908">  1  6  2 -1</clus>
<clus scale="  461.299">  4  5 -1 -1</clus>
<clus scale="  300.000">  1  4  2 -1</clus>
</clustering>
</event>
<event>
 6    1  0.1029244E-011  0.3000000E+03  0.7818608E-02  0.1093470E+00
          1   -1    0    0  502    0  0.00000000000E+00  0.00000000000E+00  0.22860870016E+03  0.22860870016E+03  0.00000000000E+00 0.  1.
         13   -1    0    0    0    0 -0.00000000000E+00 -0.00000000000E+00 -0.27500000000E+03  0.27500000000E+03  0.00000000000E+00 0.  1.
    9000005    2    1    2  501    0 -0.27055140095E+02  0.14053695848E+02 -0.61446044933E+02  0.46960675430E+03  0.46457012417E+03 0.  0.
         13    1    3    3    0    0  0.20274322808E+01  0.94261602144E+02 -0.24753985443E+03  0.26488740939E+03  0.00000000000E+00 0.  1.
          1    1    3    3  501    0 -0.29082572376E+02 -0.80207906297E+02  0.18609380950E+03  0.20471934491E+03  0.00000000000E+00 0.  1.
         21    1    1    2  502  501  0.27055140095E+02 -0.14053695848E+02  0.15054745094E+02  0.34001945862E+02  0.00000000000E+00 0.  1.
<scales pt_clust_4="550.00000" pt_clust_5="550.00000" pt_clust_6="30.48749"></scales>
<mgrwt>
<rscale>  0 0.30000000E+03</rscale>
<asrwt>  1 0.30487489E+02</asrwt>
<pdfrwt beam="1">  1        1 0.83130436E+00 0.30000000E+03</pdfrwt>
<pdfrwt beam="2">0</pdfrwt>
<totfact> 0.59214741E-04</totfact>
</mgrwt>
<clustering>
<clus scale="   30.487">  1  6  2 -1</clus>
<clus scale="  464.570">  4  5 -1 -1</clus>
<clus scale="  300.000">  1  4  2 -1</clus>
</clustering>
</event>
<event>
 6    1  0.1029244E-011  0.3000000E+03  0.7818608E-02  0.1093470E+00
          1   -1    0    0  502    0  0.00000000000E+00  0.00000000000E+00  0.23993735428E+03  0.23993735428E+03  0.00000000000E+00 0.  1.
         13   -1    0    0    0    0 -0.00000000000E+00 -0.00000000000E+00 -0.27500000000E+03  0.27500000000E+03  0.00000000000E+00 0.  1.
    9000005    2    1    2  501    0 -0.86780578366E+01  0.42130893846E+02 -0.61123713170E+02  0.46464321804E+03  0.45859229262E+03 0.  0.
         13    1    3    3    0    0 -0.21094251479E+03  0.12132965449E+03 -0.29191568546E+02  0.24509136517E+03  0.00000000000E+00 0.  1.
          1    1    3    3  501    0  0.20226445696E+03 -0.79198760648E+02 -0.31932144624E+02  0.21955185287E+03  0.00000000000E+00 0.  1.
         21    1    1    2  502  501  0.86780578366E+01 -0.42130893846E+02  0.26061067455E+02  0.50294136248E+02  0.00000000000E+00 0.  1.
<scales pt_clust_4="550.00000" pt_clust_5="550.00000" pt_clust_6="43.01536"></scales>
<mgrwt>
<rscale>  0 0.30000000E+03</rscale>
<asrwt>  1 0.43015357E+02</asrwt>
<pdfrwt beam="1">  1        1 0.87249947E+00 0.30000000E+03</pdfrwt>
<pdfrwt beam="2">0</pdfrwt>
<totfact> 0.22992223E-04</totfact>
</mgrwt>
<clustering>
<clus scale="   43.015">  1  6  2 -1</clus>
<clus scale="  458.592">  4  5 -1 -1</clus>
<clus scale="  300.000">  1  4  2 -1</clus>
</clustering>
</event>
<event>
 6    1  0.1029244E-011  0.3000000E+03  0.7818608E-02  0.1093470E+00
          1   -1    0    0  502    0  0.00000000000E+00  0.00000000000E+00  0.24483051783E+03  0.24483051783E+03  0.00000000000E+00 0.  1.
         13   -1    0    0    0    0 -0.00000000000E+00 -0.00000000000E+00 -0.27500000000E+03  0.27500000000E+03  0.00000000000E+00 0.  1.
    9000005    2    1    2  501    0 -0.11770375781E+02  0.35928324812E+02 -0.38866213548E+02  0.48103593823E+03  0.47797029724E+03 0.  0.
         13    1    3    3    0    0 -0.43477788497E+02  0.16220413852E+03 -0.20816947899E+03  0.26746033842E+03  0.00000000000E+00 0.  1.
          1    1    3    3  501    0  0.31707412717E+02 -0.12627581370E+03  0.16930326544E+03  0.21357559981E+03  0.00000000000E+00 0.  1.
         21    1    1    2  502  501  0.11770375781E+02 -0.35928324812E+02  0.86967313800E+01  0.38794579603E+02  0.00000000000E+00 0.  1.
<scales pt_clust_4="550.00000" pt_clust_5="550.00000" pt_clust_6="37.80723"></scales>
<mgrwt>
<rscale>  0 0.30000000E+03</rscale>
<asrwt>  1 0.37807225E+02</asrwt>
<pdfrwt beam="1">  1        1 0.89029279E+00 0.30000000E+03</pdfrwt>
<pdfrwt beam="2">0</pdfrwt>
<totfact> 0.14162266E-04</totfact>
</mgrwt>
<clustering>
<clus scale="   37.807">  1  6  2 -1</clus>
<clus scale="  477.970">  4  5 -1 -1</clus>
<clus scale="  300.000">  1  4  2 -1</clus>
</clustering>
</event>
<event>
 6    1  0.1029244E-011  0.3000000E+03  0.7818608E-02  0.1093470E+00
          1   -1    0    0  502    0  0.00000000000E+00  0.00000000000E+00  0.23603592739E+03  0.23603592739E+03  0.00000000000E+00 0.  1.
         13   -1    0    0    0    0 -0.00000000000E+00 -0.00000000000E+00 -0.27500000000E+03  0.27500000000E+03  0.00000000000E+00 0.  1.
    9000005    2    1    2  501    0 -0.44812327091E+01  0.30802956085E+02 -0.39805070260E+02  0.47989735280E+03  0.47722963242E+03 0.  0.
         13    1    3    3    0    0  0.10000352761E+03 -0.18442022825E+03  0.63664451080E+02  0.21923660382E+03  0.00000000000E+00 0.  1.
          1    1    3    3  501    0 -0.10448476032E+03  0.21522318434E+03 -0.10346952134E+03  0.26066074898E+03  0.00000000000E+00 0.  1.
         21    1    1    2  502  501  0.44812327091E+01 -0.30802956085E+02  0.84099764519E+00  0.31138574585E+02  0.00000000000E+00 0.  1.
<scales pt_clust_4="550.00000" pt_clust_5="550.00000" pt_clust_6="31.12722"></scales>
<mgrwt>
<rscale>  0 0.30000000E+03</rscale>
<asrwt>  1 0.31127216E+02</asrwt>
<pdfrwt beam="1">  1        1 0.85831246E+00 0.30000000E+03</pdfrwt>
<pdfrwt beam="2">0</pdfrwt>
<totfact> 0.34459169E-04</totfact>
</mgrwt>
<clustering>
<clus scale="   31.127">  1  6  2 -1</clus>
<clus scale="  477.230">  4  5 -1 -1</clus>
<clus scale="  300.000">  1  4  2 -1</clus>
</clustering>
</event>
<event>
 6    1  0.1029244E-011  0.3000000E+03  0.7818608E-02  0.1093470E+00
          1   -1    0    0  502    0  0.00000000000E+00  0.00000000000E+00  0.22727404673E+03  0.22727404673E+03  0.00000000000E+00 0.  1.
         13   -1    0    0    0    0 -0.00000000000E+00 -0.00000000000E+00 -0.27500000000E+03  0.27500000000E+03  0.00000000000E+00 0.  1.
    9000005    2    1    2  501    0  0.29378078362E+02 -0.19767988597E+02 -0.44738913702E+02  0.46673860995E+03  0.46323807568E+03 0.  0.
         13    1    3    3    0    0 -0.69711046220E+02  0.75588592804E+02 -0.22066202125E+03  0.24344402426E+03  0.00000000000E+00 0.  1.
          1    1    3    3  501    0  0.99089124582E+02 -0.95356581401E+02  0.17592310755E+03  0.22329458569E+03  0.00000000000E+00 0.  1.
         21    1    1    2  502  501 -0.29378078362E+02  0.19767988597E+02 -0.29870395717E+01  0.35535436775E+02  0.00000000000E+00 0. -1.
<scales pt_clust_4="550.00000" pt_clust_5="550.00000" pt_clust_6="35.40967"></scales>
<mgrwt>
<rscale>  0 0.30000000E+03</rscale>
<asrwt>  1 0.35409672E+02</asrwt>
<pdfrwt beam="1">  1        1 0.82645108E+00 0.30000000E+03</pdfrwt>
<pdfrwt beam="2">0</pdfrwt>
<totfact> 0.63267550E-04</totfact>
</mgrwt>
<clustering>
<clus scale="   35.410">  1  6  2 -1</clus>
<clus scale="  463.238">  4  5 -1 -1</clus>
<clus scale="  300.000">  1  4  2 -1</clus>
</clustering>
</event>
<event>
 6    1  0.1029244E-011  0.3000000E+03  0.7818608E-02  0.1093470E+00
          1   -1    0    0  502    0  0.00000000000E+00  0.00000000000E+00  0.23059127423E+03  0.23059127423E+03  0.00000000000E+00 0.  1.
         13   -1    0    0    0    0 -0.00000000000E+00 -0.00000000000E+00 -0.27500000000E+03  0.27500000000E+03  0.00000000000E+00 0.  1.
    9000005    2    1    2  501    0  0.83317806597E+01 -0.30176420272E+02 -0.49216461458E+02  0.47391874304E+03  0.47031551114E+03 0.  0.
         13    1    3    3    0    0 -0.20732130007E+02 -0.19874298332E+02 -0.25965225452E+03  0.26123572157E+03  0.00000000000E+00 0.  1.
          3    1    3    3  501    0  0.29063910667E+02 -0.10302121940E+02  0.21043579306E+03  0.21268302147E+03  0.00000000000E+00 0.  1.
         21    1    1    2  502  501 -0.83317806597E+01  0.30176420272E+02  0.48077356859E+01  0.31672531188E+02  0.00000000000E+00 0.  1.
<scales pt_clust_4="550.00000" pt_clust_5="550.00000" pt_clust_6="31.30551"></scales>
<mgrwt>
<rscale>  0 0.30000000E+03</rscale>
<asrwt>  1 0.31305509E+02</asrwt>
<pdfrwt beam="1">  1        1 0.83851372E+00 0.30000000E+03</pdfrwt>
<pdfrwt beam="2">0</pdfrwt>
<totfact> 0.52087278E-04</totfact>
</mgrwt>
<clustering>
<clus scale="   31.306">  1  6  2 -1</clus>
<clus scale="  470.316">  4  5 -1 -1</clus>
<clus scale="  300.000">  1  4  2 -1</clus>
</clustering>
</event>
<event>
 6    1  0.1029244E-011  0.3000000E+03  0.7818608E-02  0.1093470E+00
          1   -1    0    0  502    0  0.00000000000E+00  0.00000000000E+00  0.24567931604E+03  0.24567931604E+03  0.00000000000E+00 0.  1.
         13   -1    0    0    0    0 -0.00000000000E+00 -0.00000000000E+00 -0.27500000000E+03  0.27500000000E+03  0.00000000000E+00 0.  1.
    9000005    2    1    2  501    0 -0.10351695033E+02 -0.34944422612E+02 -0.44939850911E+02  0.48102797762E+03  0.47753539638E+03 0.  0.
         13    1    3    3    0    0  0.21576759011E+03 -0.10679405096E+03 -0.37485261518E+02  0.24365091236E+03  0.00000000000E+00 0.  1.
          3    1    3    3  501    0 -0.22611928515E+03  0.71849628353E+02 -0.74545893928E+01  0.23737706526E+03  0.00000000000E+00 0.  1.
         21    1    1    2  502  501  0.10351695033E+02  0.34944422612E+02  0.15619166947E+02  0.39651338412E+02  0.00000000000E+00 0. -1.
<scales pt_clust_4="550.00000" pt_clust_5="550.00000" pt_clust_6="36.44544"></scales>
<mgrwt>
<rscale>  0 0.30000000E+03</rscale>
<asrwt>  1 0.36445442E+02</asrwt>
<pdfrwt beam="1">  1        1 0.89337933E+00 0.30000000E+03</pdfrwt>
<pdfrwt beam="2">0</pdfrwt>
<totfact> 0.13058415E-04</totfact>
</mgrwt>
<clustering>
<clus scale="   36.445">  1  6  2 -1</clus>
<clus scale="  477.535">  4  5 -1 -1</clus>
<clus scale="  300.000">  1  4  2 -1</clus>
</clustering>
</event>
<event>
 6    1  0.1029244E-011  0.3000000E+03  0.7818608E-02  0.1093470E+00
          1   -1    0    0  502    0  0.00000000000E+00  0.00000000000E+00  0.23894432382E+03  0.23894432382E+03  0.00000000000E+00 0.  1.
         13   -1    0    0    0    0 -0.00000000000E+00 -0.00000000000E+00 -0.27500000000E+03  0.27500000000E+03  0.00000000000E+00 0.  1.
    9000005    2    1    2  501    0 -0.46556079256E+02 -0.18357025847E+00 -0.16590525445E+02  0.46348251344E+03  0.46083976881E+03 0.  0.
         13    1    3    3    0    0 -0.52508579082E+02  0.73283446546E+02  0.20821900877E+03  0.22689814902E+03  0.00000000000E+00 0.  1.
          3    1    3    3  501    0  0.59524998259E+01 -0.73467016804E+02 -0.22480953422E+03  0.23658436442E+03  0.00000000000E+00 0.  1.
         21    1    1    2  502  501  0.46556079256E+02  0.18357025847E+00 -0.19465150738E+02  0.50461810382E+02  0.00000000000E+00 0.  1.
<scales pt_clust_4="550.00000" pt_clust_5="550.00000" pt_clust_6="46.55646"></scales>
<mgrwt>
<rscale>  0 0.30000000E+03</rscale>
<asrwt>  1 0.46556464E+02</asrwt>
<pdfrwt beam="1">  1        1 0.86888845E+00 0.30000000E+03</pdfrwt>
<pdfrwt beam="2">0</pdfrwt>
<totfact> 0.24681683E-04</totfact>
</mgrwt>
<clustering>
<clus scale="   46.556">  1  6  2 -1</clus>
<clus scale="  460.840">  4  5 -1 -1</clus>
<clus scale="  300.000">  1  4  2 -1</clus>
</clustering>
</event>
<event>
 6    1  0.1029244E-011  0.3000000E+03  0.7818608E-02  0.1093470E+00
          1   -1    0    0  502    0  0.00000000000E+00  0.00000000000E+00  0.24779312442E+03  0.24779312442E+03  0.00000000000E+00 0.  1.
         13   -1    0    0    0    0 -0.00000000000E+00 -0.00000000000E+00 -0.27500000000E+03  0.27500000000E+03  0.00000000000E+00 0.  1.
    9000005    2    1    2  501    0  0.29626239297E+02  0.30460893738E+02 -0.52586691151E+02  0.47329852733E+03  0.46844482684E+03 0.  0.
         13    1    3    3    0    0  0.17868131700E+03  0.26904941480E+02 -0.19588753402E+03  0.26650105986E+03  0.00000000000E+00 0.  1.
          3    1    3    3  501    0 -0.14905507771E+03  0.35559522579E+01  0.14330084287E+03  0.20679746747E+03  0.00000000000E+00 0.  1.
         21    1    1    2  502  501 -0.29626239297E+02 -0.30460893738E+02  0.25379815571E+02  0.49494597085E+02  0.00000000000E+00 0. -1.
<scales pt_clust_4="550.00000" pt_clust_5="550.00000" pt_clust_6="42.49212"></scales>
<mgrwt>
<rscale>  0 0.30000000E+03</rscale>
<asrwt>  1 0.42492118E+02</asrwt>
<pdfrwt beam="1">  1        1 0.90106591E+00 0.30000000E+03</pdfrwt>
<pdfrwt beam="2">0</pdfrwt>
<totfact> 0.10322772E-04</totfact>
</mgrwt>
<clustering>
<clus scale="   42.492">  1  6  2 -1</clus>
<clus scale="  468.445">  4  5 -1 -1</clus>
<clus scale="  300.000">  1  4  2 -1</clus>
</clustering>
</event>
<event>
 6    1  0.1029244E-011  0.3000000E+03  0.7818608E-02  0.1093470E+00
          1   -1    0    0  502    0  0.00000000000E+00  0.00000000000E+00  0.22402198931E+03  0.22402198931E+03  0.00000000000E+00 0.  1.
         13   -1    0    0    0    0 -0.00000000000E+00 -0.00000000000E+00 -0.27500000000E+03  0.27500000000E+03  0.00000000000E+00 0.  1.
    9000005    2    1    2  501    0 -0.38330227635E+01  0.29915239356E+02 -0.48353088686E+02  0.46874817514E+03  0.46527112193E+03 0.  0.
         13    1    3    3    0    0  0.96614669315E+02  0.22444255426E+01  0.18748168334E+03  0.21092371455E+03  0.00000000000E+00 0.  1.
          1    1    3    3  501    0 -0.10044769208E+03  0.27670813814E+02 -0.23583477202E+03  0.25782446059E+03  0.00000000000E+00 0.  1.
         21    1    1    2  502  501  0.38330227635E+01 -0.29915239356E+02 -0.26249220025E+01  0.30273814176E+02  0.00000000000E+00 0.  1.
<scales pt_clust_4="550.00000" pt_clust_5="550.00000" pt_clust_6="30.15980"></scales>
<mgrwt>
<rscale>  0 0.30000000E+03</rscale>
<asrwt>  1 0.30159801E+02</asrwt>
<pdfrwt beam="1">  1        1 0.81462542E+00 0.30000000E+03</pdfrwt>
<pdfrwt beam="2">0</pdfrwt>
<totfact> 0.82455577E-04</totfact>
</mgrwt>
<clustering>
<clus scale="   30.160">  1  6  2 -1</clus>
<clus scale="  465.271">  4  5 -1 -1</clus>
<clus scale="  300.000">  1  4  2 -1</clus>
</clustering>
</event>
<event>
 6    1  0.1029244E-011  0.3000000E+03  0.7818608E-02  0.1093470E+00
          1   -1    0    0  502    0  0.00000000000E+00  0.00000000000E+00  0.24526049487E+03  0.24526049487E+03  0.00000000000E+00 0.  1.
         13   -1    0    0    0    0 -0.00000000000E+00 -0.00000000000E+00 -0.27500000000E+03  0.27500000000E+03  0.00000000000E+00 0.  1.
    9000005    2    1    2  501    0 -0.30729813988E+02 -0.35250463463E+02 -0.44755493683E+02  0.47114434117E+03  0.46667656826E+03 0.  0.
         13    1    3    3    0    0 -0.15581362093E+03 -0.17883912473E+03 -0.12068840502E+03  0.26613344042E+03  0.00000000000E+00 0.  1.
          3    1    3    3  501    0  0.12508380695E+03  0.14358866127E+03  0.75932911338E+02  0.20501090075E+03  0.00000000000E+00 0.  1.
         21    1    1    2  502  501  0.30729813988E+02  0.35250463463E+02  0.15015988556E+02  0.49116153701E+02  0.00000000000E+00 0. -1.
<scales pt_clust_4="550.00000" pt_clust_5="550.00000" pt_clust_6="46.76448"></scales>
<mgrwt>
<rscale>  0 0.30000000E+03</rscale>
<asrwt>  1 0.46764481E+02</asrwt>
<pdfrwt beam="1">  1        1 0.89185634E+00 0.30000000E+03</pdfrwt>
<pdfrwt beam="2">0</pdfrwt>
<totfact> 0.13015469E-04</totfact>
</mgrwt>
<clustering>
<clus scale="   46.764">  1  6  2 -1</clus>
<clus scale="  466.677">  4  5 -1 -1</clus>
<clus scale="  300.000">  1  4  2 -1</clus>
</clustering>
</event>
<event>
 6    1  0.1029244E-011  0.3000000E+03  0.7818608E-02  0.1093470E+00
          1   -1    0    0  502    0  0.00000000000E+00  0.00000000000E+00  0.22539665800E+03  0.22539665800E+03  0.00000000000E+00 0.  1.
         13   -1    0    0    0    0 -0.00000000000E+00 -0.00000000000E+00 -0.27500000000E+03  0.27500000000E+03  0.00000000000E+00 0.  1.
    9000005    2    1    2  501    0 -0.27479964394E+02  0.12902611746E+02 -0.43802059360E+02  0.46948904221E+03  0.46645440776E+03 0.  0.
         13    1    3    3    0    0  0.12010741017E+03 -0.14945228857E+03 -0.13225137437E+03  0.23292102215E+03  0.00000000000E+00 0.  1.
          3    1    3    3  501    0 -0.14758737457E+03  0.16235490032E+03  0.88449315009E+02  0.23656802006E+03  0.00000000000E+00 0.  1.
         21    1    1    2  502  501  0.27479964394E+02 -0.12902611746E+02 -0.58012826450E+01  0.30907615781E+02  0.00000000000E+00 0. -1.
<scales pt_clust_4="550.00000" pt_clust_5="550.00000" pt_clust_6="30.35831"></scales>
<mgrwt>
<rscale>  0 0.30000000E+03</rscale>
<asrwt>  1 0.30358306E+02</asrwt>
<pdfrwt beam="1">  1        1 0.81962421E+00 0.30000000E+03</pdfrwt>
<pdfrwt beam="2">0</pdfrwt>
<totfact> 0.74863578E-04</totfact>
</mgrwt>
<clustering>
<clus scale="   30.358">  1  6  2 -1</clus>
<clus scale="  466.454">  4  5 -1 -1</clus>
<clus scale="  300.000">  1  4  2 -1</clus>
</clustering>
</event>
<event>
 6    1  0.1029244E-011  0.3000000E+03  0.7818608E-02  0.1093470E+00
          1   -1    0    0  502    0  0.00000000000E+00  0.00000000000E+00  0.22334610569E+03  0.22334610569E+03  0.00000000000E+00 0.  1.
         13   -1    0    0    0    0 -0.00000000000E+00 -0.00000000000E+00 -0.27500000000E+03  0.27500000000E+03  0.00000000000E+00 0.  1.
    9000005    2    1    2  501    0  0.27001166195E+01 -0.34413161254E+02 -0.61257943771E+02  0.46251603363E+03  0.45714001071E+03 0.  0.
         13    1    3    3    0    0 -0.12194003101E+03 -0.20031195032E+03  0.28881093181E+02  0.23628027033E+03  0.00000000000E+00 0.  1.
          3    1    3    3  501    0  0.12464014763E+03  0.16589878907E+03 -0.90139036951E+02  0.22623576330E+03  0.00000000000E+00 0.  1.
         21    1    1    2  502  501 -0.27001166195E+01  0.34413161254E+02  0.96040494565E+01  0.35830072052E+02  0.00000000000E+00 0.  1.
<scales pt_clust_4="550.00000" pt_clust_5="550.00000" pt_clust_6="34.51893"></scales>
<mgrwt>
<rscale>  0 0.30000000E+03</rscale>
<asrwt>  1 0.34518927E+02</asrwt>
<pdfrwt beam="1">  1        1 0.81216766E+00 0.30000000E+03</pdfrwt>
<pdfrwt beam="2">0</pdfrwt>
<totfact> 0.84080934E-04</totfact>
</mgrwt>
<clustering>
<clus scale="   34.519">  1  6  2 -1</clus>
<clus scale="  457.140">  4  5 -1 -1</clus>
<clus scale="  300.000">  1  4  2 -1</clus>
</clustering>
</event>
<event>
 6    1  0.1029244E-011  0.3000000E+03  0.7818608E-02  0.1093470E+00
          1   -1    0    0  502    0  0.00000000000E+00  0.00000000000E+00  0.24611220405E+03  0.24611220405E+03  0.00000000000E+00 0.  1.
         13   -1    0    0    0    0 -0.00000000000E+00 -0.00000000000E+00 -0.27500000000E+03  0.27500000000E+03  0.00000000000E+00 0.  1.
    9000005    2    1    2  501    0 -0.57124932443E+01  0.32810251058E+02 -0.60976645643E+02  0.47486461570E+03  0.46975430469E+03 0.  0.
         13    1    3    3    0    0  0.16994295267E+03  0.12235294097E+03 -0.15095279713E+03  0.25814258906E+03  0.00000000000E+00 0.  1.
          3    1    3    3  501    0 -0.17565544591E+03 -0.89542689911E+02  0.89976151485E+02  0.21672202664E+03  0.00000000000E+00 0.  1.
         21    1    1    2  502  501  0.57124932443E+01 -0.32810251058E+02  0.32088849691E+02  0.46247588349E+02  0.00000000000E+00 0.  1.
<scales pt_clust_4="550.00000" pt_clust_5="550.00000" pt_clust_6="33.30383"></scales>
<mgrwt>
<rscale>  0 0.30000000E+03</rscale>
<asrwt>  1 0.33303831E+02</asrwt>
<pdfrwt beam="1">  1        1 0.89495347E+00 0.30000000E+03</pdfrwt>
<pdfrwt beam="2">0</pdfrwt>
<totfact> 0.12742782E-04</totfact>
</mgrwt>
<clustering>
<clus scale="   33.304">  1  6  2 -1</clus>
<clus scale="  469.754">  4  5 -1 -1</clus>
<clus scale="  300.000">  1  4  2 -1</clus>
</clustering>
</event>
<event>
 6    1  0.1029244E-011  0.3000000E+03  0.7818608E-02  0.1093470E+00
          1   -1    0    0  502    0  0.00000000000E+00  0.00000000000E+00  0.23415795855E+03  0.23415795855E+03  0.00000000000E+00 0.  1.
         13   -1    0    0    0    0 -0.00000000000E+00 -0.00000000000E+00 -0.27500000000E+03  0.27500000000E+03  0.00000000000E+00 0.  1.
    9000005    2    1    2  501    0 -0.33395284177E+02  0.76992688939E+01 -0.61207663869E+02  0.46929215462E+03  0.46401963808E+03 0.  0.
         13    1    3    3    0    0 -0.84990076972E+02  0.22222824974E+03 -0.71407470026E+02  0.24841041633E+03  0.00000000000E+00 0.  1.
          1    1    3    3  501    0  0.51594792796E+02 -0.21452898084E+03  0.10199806157E+02  0.22088173829E+03  0.00000000000E+00 0.  1.
         21    1    1    2  502  501  0.33395284177E+02 -0.76992688939E+01  0.20365622421E+02  0.39865803934E+02  0.00000000000E+00 0.  1.
<scales pt_clust_4="550.00000" pt_clust_5="550.00000" pt_clust_6="34.27133"></scales>
<mgrwt>
<rscale>  0 0.30000000E+03</rscale>
<asrwt>  1 0.34271325E+02</asrwt>
<pdfrwt beam="1">  1        1 0.85148349E+00 0.30000000E+03</pdfrwt>
<pdfrwt beam="2">0</pdfrwt>
<totfact> 0.39560512E-04</totfact>
</mgrwt>
<clustering>
<clus scale="   34.271">  1  6  2 -1</clus>
<clus scale="  464.020">  4  5 -1 -1</clus>
<clus scale="  300.000">  1  4  2 -1</clus>
</clustering>
</event>
<event>
 6    1  0.1029244E-011  0.3000000E+03  0.7818608E-02  0.1093470E+00
          1   -1    0    0  502    0  0.00000000000E+00  0.00000000000E+00  0.23300886761E+03  0.23300886761E+03  0.00000000000E+00 0.  1.
         13   -1    0    0    0    0 -0.00000000000E+00 -0.00000000000E+00 -0.27500000000E+03  0.27500000000E+03  0.00000000000E+00 0.  1.
    9000005    2    1    2  501    0  0.33524331667E+02  0.11647630325E+02 -0.30472887940E+02  0.47069642918E+03  0.46836629195E+03 0.  0.
         13    1    3    3    0    0 -0.70639333376E+01  0.22982241269E+03 -0.79758238497E+02  0.24337135644E+03  0.00000000000E+00 0.  1.
          3    1    3    3  501    0  0.40588265005E+02 -0.21817478236E+03  0.49285350557E+02  0.22732507274E+03  0.00000000000E+00 0.  1.
         21    1    1    2  502  501 -0.33524331667E+02 -0.11647630325E+02 -0.11518244454E+02  0.37312438425E+02  0.00000000000E+00 0.  1.
<scales pt_clust_4="550.00000" pt_clust_5="550.00000" pt_clust_6="35.49013"></scales>
<mgrwt>
<rscale>  0 0.30000000E+03</rscale>
<asrwt>  1 0.35490131E+02</asrwt>
<pdfrwt beam="1">  1        1 0.84730497E+00 0.30000000E+03</pdfrwt>
<pdfrwt beam="2">0</pdfrwt>
<totfact> 0.42985405E-04</totfact>
</mgrwt>
<clustering>
<clus scale="   35.490">  1  6  2 -1</clus>
<clus scale="  468.366">  4  5 -1 -1</clus>
<clus scale="  300.000">  1  4  2 -1</clus>
</clustering>
</event>
<event>
 6    1  0.1029244E-011  0.3000000E+03  0.7818608E-02  0.1093470E+00
          1   -1    0    0  502    0  0.00000000000E+00  0.00000000000E+00  0.23891186252E+03  0.23891186252E+03  0.00000000000E+00 0.  1.
         13   -1    0    0    0    0 -0.00000000000E+00 -0.00000000000E+00 -0.27500000000E+03  0.27500000000E+03  0.00000000000E+00 0.  1.
    9000005    2    1    2  501    0  0.25217949694E+02 -0.22686157992E+02 -0.34154597238E+02  0.47993620463E+03  0.47751609109E+03 0.  0.
         13    1    3    3    0    0  0.19850177220E+03 -0.75731152172E+02 -0.15423761265E+03  0.26254028668E+03  0.00000000000E+00 0.  1.
          3    1    3    3  501    0 -0.17328382251E+03  0.53044994180E+02  0.12008301541E+03  0.21739591795E+03  0.00000000000E+00 0.  1.
         21    1    1    2  502  501 -0.25217949694E+02  0.22686157992E+02 -0.19335402411E+01  0.33975657891E+02  0.00000000000E+00 0.  1.
<scales pt_clust_4="550.00000" pt_clust_5="550.00000" pt_clust_6="33.92059"></scales>
<mgrwt>
<rscale>  0 0.30000000E+03</rscale>
<asrwt>  1 0.33920595E+02</asrwt>
<pdfrwt beam="1">  1        1 0.86877041E+00 0.30000000E+03</pdfrwt>
<pdfrwt beam="2">0</pdfrwt>
<totfact> 0.26225492E-04</totfact>
</mgrwt>
<clustering>
<clus scale="   33.921">  1  6  2 -1</clus>
<clus scale="  477.516">  4  5 -1 -1</clus>
<clus scale="  300.000">  1  4  2 -1</clus>
</clustering>
</event>
<event>
 6    1  0.1029244E-011  0.3000000E+03  0.7818608E-02  0.1093470E+00
          1   -1    0    0  502    0  0.00000000000E+00  0.00000000000E+00  0.22403347473E+03  0.22403347473E+03  0.00000000000E+00 0.  1.
         13   -1    0    0    0    0 -0.00000000000E+00 -0.00000000000E+00 -0.27500000000E+03  0.27500000000E+03  0.00000000000E+00 0.  1.
    9000005    2    1    2  501    0 -0.33794293577E+02  0.10467583970E+02 -0.50924102716E+02  0.46365514249E+03  0.45949015476E+03 0.  0.
         13    1    3    3    0    0  0.15318612285E+02 -0.12926789554E+03  0.15978455796E+03  0.20609695209E+03  0.00000000000E+00 0.  1.
          3    1    3    3  501    0 -0.49112905862E+02  0.13973547951E+03 -0.21070866067E+03  0.25755819040E+03  0.00000000000E+00 0.  1.
         21    1    1    2  502  501  0.33794293577E+02 -0.10467583970E+02 -0.42422554331E-01  0.35378332241E+02  0.00000000000E+00 0.  1.
<scales pt_clust_4="550.00000" pt_clust_5="550.00000" pt_clust_6="35.37831"></scales>
<mgrwt>
<rscale>  0 0.30000000E+03</rscale>
<asrwt>  1 0.35378307E+02</asrwt>
<pdfrwt beam="1">  1        1 0.81466718E+00 0.30000000E+03</pdfrwt>
<pdfrwt beam="2">0</pdfrwt>
<totfact> 0.79937464E-04</totfact>
</mgrwt>
<clustering>
<clus scale="   35.378">  1  6  2 -1</clus>
<clus scale="  459.490">  4  5 -1 -1</clus>
<clus scale="  300.000">  1  4  2 -1</clus>
</clustering>
</event>
<event>
 6    1  0.1029244E-011  0.3000000E+03  0.7818608E-02  0.1093470E+00
          1   -1    0    0  502    0  0.00000000000E+00  0.00000000000E+00  0.23730575092E+03  0.23730575092E+03  0.00000000000E+00 0.  1.
         13   -1    0    0    0    0 -0.00000000000E+00 -0.00000000000E+00 -0.27500000000E+03  0.27500000000E+03  0.00000000000E+00 0.  1.
    9000005    2    1    2  501    0  0.37924486308E+01  0.45699129551E+02 -0.28331964488E+02  0.46550355566E+03  0.46237221695E+03 0.  0.
         13    1    3    3    0    0 -0.20324750626E+03 -0.79624270280E+02  0.18237171504E+02  0.21904832262E+03  0.00000000000E+00 0.  1.
          1    1    3    3  501    0  0.20703995489E+03  0.12532339983E+03 -0.46569135992E+02  0.24645523304E+03  0.00000000000E+00 0.  1.
         21    1    1    2  502  501 -0.37924486308E+01 -0.45699129551E+02 -0.93622845961E+01  0.46802195260E+02  0.00000000000E+00 0.  1.
<scales pt_clust_4="550.00000" pt_clust_5="550.00000" pt_clust_6="45.85625"></scales>
<mgrwt>
<rscale>  0 0.30000000E+03</rscale>
<asrwt>  1 0.45856245E+02</asrwt>
<pdfrwt beam="1">  1        1 0.86293000E+00 0.30000000E+03</pdfrwt>
<pdfrwt beam="2">0</pdfrwt>
<totfact> 0.28633068E-04</totfact>
</mgrwt>
<clustering>
<clus scale="   45.856">  1  6  2 -1</clus>
<clus scale="  462.372">  4  5 -1 -1</clus>
<clus scale="  300.000">  1  4  2 -1</clus>
</clustering>
</event>
<event>
 6    1  0.1029244E-011  0.3000000E+03  0.7818608E-02  0.1093470E+00
          1   -1    0    0  502    0  0.00000000000E+00  0.00000000000E+00  0.24989817682E+03  0.24989817682E+03  0.00000000000E+00 0.  1.
         13   -1    0    0    0    0 -0.00000000000E+00 -0.00000000000E+00 -0.27500000000E+03  0.27500000000E+03  0.00000000000E+00 0.  1.
    9000005    2    1    2  501    0 -0.14626363406E+02  0.26418819000E+02 -0.36264380185E+02  0.49270365582E+03  0.49043848002E+03 0.  0.
         13    1    3    3    0    0 -0.81327654287E+02  0.17078639458E+03 -0.19241606339E+03  0.26982609469E+03  0.00000000000E+00 0.  1.
          1    1    3    3  501    0  0.66701290881E+02 -0.14436757558E+03  0.15615168321E+03  0.22287756112E+03  0.00000000000E+00 0.  1.
         21    1    1    2  502  501  0.14626363406E+02 -0.26418819000E+02  0.11162557007E+02  0.32194521006E+02  0.00000000000E+00 0. -1.
<scales pt_clust_4="550.00000" pt_clust_5="550.00000" pt_clust_6="30.19743"></scales>
<mgrwt>
<rscale>  0 0.30000000E+03</rscale>
<asrwt>  1 0.30197425E+02</asrwt>
<pdfrwt beam="1">  1        1 0.90872064E+00 0.30000000E+03</pdfrwt>
<pdfrwt beam="2">0</pdfrwt>
<totfact> 0.79272075E-05</totfact>
</mgrwt>
<clustering>
<clus scale="   30.197">  1  6  2 -1</clus>
<clus scale="  490.438">  4  5 -1 -1</clus>
<clus scale="  300.000">  1  4  2 -1</clus>
</clustering>
</event>
<event>
 6    1  0.1029244E-011  0.3000000E+03  0.7818608E-02  0.1093470E+00
          1   -1    0    0  502    0  0.00000000000E+00  0.00000000000E+00  0.22948039479E+03  0.22948039479E+03  0.00000000000E+00 0.  1.
         13   -1    0    0    0    0 -0.00000000000E+00 -0.00000000000E+00 -0.27500000000E+03  0.27500000000E+03  0.00000000000E+00 0.  1.
    9000005    2    1    2  501    0 -0.89482447351E+01 -0.29644683651E+02 -0.26638205923E+02  0.46821214984E+03  0.46642699846E+03 0.  0.
         13    1    3    3    0    0  0.30224136108E+02 -0.13676278405E+03 -0.20990972692E+03  0.25234827315E+03  0.00000000000E+00 0.  1.
          3    1    3    3  501    0 -0.39172380844E+02  0.10711810040E+03  0.18327152100E+03  0.21586387670E+03  0.00000000000E+00 0.  1.
         21    1    1    2  502  501  0.89482447351E+01  0.29644683651E+02 -0.18881399285E+02  0.36268244948E+02  0.00000000000E+00 0.  1.
<scales pt_clust_4="550.00000" pt_clust_5="550.00000" pt_clust_6="30.96578"></scales>
<mgrwt>
<rscale>  0 0.30000000E+03</rscale>
<asrwt>  1 0.30965776E+02</asrwt>
<pdfrwt beam="1">  1        1 0.83447416E+00 0.30000000E+03</pdfrwt>
<pdfrwt beam="2">0</pdfrwt>
<totfact> 0.55860007E-04</totfact>
</mgrwt>
<clustering>
<clus scale="   30.966">  1  6  2 -1</clus>
<clus scale="  466.427">  4  5 -1 -1</clus>
<clus scale="  300.000">  1  4  2 -1</clus>
</clustering>
</event>
<event>
 6    1  0.1029244E-011  0.3000000E+03  0.7818608E-02  0.1093470E+00
          1   -1    0    0  502    0  0.00000000000E+00  0.00000000000E+00  0.24083739671E+03  0.24083739671E+03  0.00000000000E+00 0.  1.
         13   -1    0    0    0    0 -0.00000000000E+00 -0.00000000000E+00 -0.27500000000E+03  0.27500000000E+03  0.00000000000E+00 0.  1.
    9000005    2    1    2  501    0 -0.20376483474E+02 -0.23786055553E+02 -0.39223321683E+02  0.48411061956E+03  0.48150144911E+03 0.  0.
         13    1    3    3    0    0 -0.23540265404E+03 -0.63530284431E+02  0.48324944443E+02  0.24856750959E+03  0.00000000000E+00 0.  1.
          1    1    3    3  501    0  0.21502617056E+03  0.39744228878E+02 -0.87548266126E+02  0.23554310998E+03  0.00000000000E+00 0.  1.
         21    1    1    2  502  501  0.20376483474E+02  0.23786055553E+02  0.50607183959E+01  0.31726777148E+02  0.00000000000E+00 0.  1.
<scales pt_clust_4="550.00000" pt_clust_5="550.00000" pt_clust_6="31.32056"></scales>
<mgrwt>
<rscale>  0 0.30000000E+03</rscale>
<asrwt>  1 0.31320561E+02</asrwt>
<pdfrwt beam="1">  1        1 0.87577235E+00 0.30000000E+03</pdfrwt>
<pdfrwt beam="2">0</pdfrwt>
<totfact> 0.22538333E-04</totfact>
</mgrwt>
<clustering>
<clus scale="   31.321">  1  6  2 -1</clus>
<clus scale="  481.501">  4  5 -1 -1</clus>
<clus scale="  300.000">  1  4  2 -1</clus>
</clustering>
</event>
<event>
 6    1  0.1029244E-011  0.3000000E+03  0.7818608E-02  0.1093470E+00
          1   -1    0    0  502    0  0.00000000000E+00  0.00000000000E+00  0.22551510156E+03  0.22551510156E+03  0.00000000000E+00 0.  1.
         13   -1    0    0    0    0 -0.00000000000E+00 -0.00000000000E+00 -0.27500000000E+03  0.27500000000E+03  0.00000000000E+00 0.  1.
    9000005    2    1    2  501    0 -0.36230214707E+02 -0.21993483477E+01 -0.62903882838E+02  0.46181710765E+03  0.45607091208E+03 0.  0.
         13    1    3    3    0    0  0.68489888781E+02 -0.19440264119E+03 -0.11610241538E+03  0.23656504946E+03  0.00000000000E+00 0.  1.
          1    1    3    3  501    0 -0.10472010349E+03  0.19220329284E+03  0.53198532546E+02  0.22525205819E+03  0.00000000000E+00 0.  1.
         21    1    1    2  502  501  0.36230214707E+02  0.21993483477E+01  0.13418984402E+02  0.38697993918E+02  0.00000000000E+00 0. -1.
<scales pt_clust_4="550.00000" pt_clust_5="550.00000" pt_clust_6="36.29691"></scales>
<mgrwt>
<rscale>  0 0.30000000E+03</rscale>
<asrwt>  1 0.36296909E+02</asrwt>
<pdfrwt beam="1">  1        1 0.82005491E+00 0.30000000E+03</pdfrwt>
<pdfrwt beam="2">0</pdfrwt>
<totfact> 0.71761518E-04</totfact>
</mgrwt>
<clustering>
<clus scale="   36.297">  1  6  2 -1</clus>
<clus scale="  456.071">  4  5 -1 -1</clus>
<clus scale="  300.000">  1  4  2 -1</clus>
</clustering>
</event>
<event>
 6    1  0.1029244E-011  0.3000000E+03  0.7818608E-02  0.1093470E+00
          1   -1    0    0  502    0  0.00000000000E+00  0.00000000000E+00  0.22663083386E+03  0.22663083386E+03  0.00000000000E+00 0.  1.
         13   -1    0    0    0    0 -0.00000000000E+00 -0.00000000000E+00 -0.27500000000E+03  0.27500000000E+03  0.00000000000E+00 0.  1.
    9000005    2    1    2  501    0  0.21090382013E+02 -0.22882012654E+02 -0.47429416347E+02  0.47049767074E+03  0.46706543216E+03 0.  0.
         13    1    3    3    0    0  0.15031243369E+03 -0.18522190492E+03 -0.96439940643E+02  0.25729680125E+03  0.00000000000E+00 0.  1.
          3    1    3    3  501    0 -0.12922205167E+03  0.16233989226E+03  0.49010524296E+02  0.21320086949E+03  0.00000000000E+00 0.  1.
         21    1    1    2  502  501 -0.21090382013E+02  0.22882012654E+02 -0.93974979140E+00  0.31133163126E+02  0.00000000000E+00 0.  1.
<scales pt_clust_4="550.00000" pt_clust_5="550.00000" pt_clust_6="31.11898"></scales>
<mgrwt>
<rscale>  0 0.30000000E+03</rscale>
<asrwt>  1 0.31118977E+02</asrwt>
<pdfrwt beam="1">  1        1 0.82411212E+00 0.30000000E+03</pdfrwt>
<pdfrwt beam="2">0</pdfrwt>
<totfact> 0.68016139E-04</totfact>
</mgrwt>
<clustering>
<clus scale="   31.119">  1  6  2 -1</clus>
<clus scale="  467.065">  4  5 -1 -1</clus>
<clus scale="  300.000">  1  4  2 -1</clus>
</clustering>
</event>
<event>
 6    1  0.1029244E-011  0.3000000E+03  0.7818608E-02  0.1093470E+00
          1   -1    0    0  502    0  0.00000000000E+00  0.00000000000E+00  0.22563954209E+03  0.22563954209E+03  0.00000000000E+00 0.  1.
         13   -1    0    0    0    0 -0.00000000000E+00 -0.00000000000E+00 -0.27500000000E+03  0.27500000000E+03  0.00000000000E+00 0.  1.
    9000005    2    1    2  501    0 -0.24294995268E+02 -0.22574433846E+02 -0.56503750685E+02  0.46671494201E+03  0.46209340116E+03 0.  0.
         13    1    3    3    0    0 -0.15866092901E+03 -0.16367892069E+02  0.15086080548E+03  0.21954539602E+03  0.00000000000E+00 0.  1.
          1    1    3    3  501    0  0.13436593375E+03 -0.62065417767E+01 -0.20736455616E+03  0.24716954599E+03  0.00000000000E+00 0.  1.
         21    1    1    2  502  501  0.24294995268E+02  0.22574433846E+02  0.71432927742E+01  0.33924600074E+02  0.00000000000E+00 0. -1.
<scales pt_clust_4="550.00000" pt_clust_5="550.00000" pt_clust_6="33.16401"></scales>
<mgrwt>
<rscale>  0 0.30000000E+03</rscale>
<asrwt>  1 0.33164015E+02</asrwt>
<pdfrwt beam="1">  1        1 0.82050743E+00 0.30000000E+03</pdfrwt>
<pdfrwt beam="2">0</pdfrwt>
<totfact> 0.72327254E-04</totfact>
</mgrwt>
<clustering>
<clus scale="   33.164">  1  6  2 -1</clus>
<clus scale="  462.093">  4  5 -1 -1</clus>
<clus scale="  300.000">  1  4  2 -1</clus>
</clustering>
</event>
<event>
 6    1  0.1029244E-011  0.3000000E+03  0.7818608E-02  0.1093470E+00
          1   -1    0    0  502    0  0.00000000000E+00  0.00000000000E+00  0.24512502718E+03  0.24512502718E+03  0.00000000000E+00 0.  1.
         13   -1    0    0    0    0 -0.00000000000E+00 -0.00000000000E+00 -0.27500000000E+03  0.27500000000E+03  0.00000000000E+00 0.  1.
    9000005    2    1    2  501    0  0.34218088919E+02 -0.32341758671E+02 -0.15861794429E+02  0.47100032736E+03  0.46837254925E+03 0.  0.
         13    1    3    3    0    0  0.11231826492E+03 -0.13529240341E+03 -0.18691331477E+03  0.25662426677E+03  0.00000000000E+00 0.  1.
          3    1    3    3  501    0 -0.78100176003E+02  0.10295064474E+03  0.17105152034E+03  0.21437606059E+03  0.00000000000E+00 0.  1.
         21    1    1    2  502  501 -0.34218088919E+02  0.32341758671E+02 -0.14013178396E+02  0.49124699815E+02  0.00000000000E+00 0. -1.
<scales pt_clust_4="550.00000" pt_clust_5="550.00000" pt_clust_6="47.08364"></scales>
<mgrwt>
<rscale>  0 0.30000000E+03</rscale>
<asrwt>  1 0.47083640E+02</asrwt>
<pdfrwt beam="1">  1        1 0.89136374E+00 0.30000000E+03</pdfrwt>
<pdfrwt beam="2">0</pdfrwt>
<totfact> 0.13184825E-04</totfact>
</mgrwt>
<clustering>
<clus scale="   47.084">  1  6  2 -1</clus>
<clus scale="  468.373">  4  5 -1 -1</clus>
<clus scale="  300.000">  1  4  2 -1</clus>
</clustering>
</event>
<event>
 6    1  0.1029244E-011  0.3000000E+03  0.7818608E-02  0.1093470E+00
          1   -1    0    0  502    0  0.00000000000E+00  0.00000000000E+00  0.24011769055E+03  0.24011769055E+03  0.00000000000E+00 0.  1.
         13   -1    0    0    0    0 -0.00000000000E+00 -0.00000000000E+00 -0.27500000000E+03  0.27500000000E+03  0.00000000000E+00 0.  1.
    9000005    2    1    2  501    0 -0.37419312194E+02  0.28634423216E+01 -0.41884143627E+02  0.47694139020E+03  0.47361419317E+03 0.  0.
         13    1    3    3    0    0  0.39528812230E+01  0.17765411899E+02  0.21527832452E+03  0.21604627314E+03  0.00000000000E+00 0.  1.
          3    1    3    3  501    0 -0.41372193417E+02 -0.14901969577E+02 -0.25716246814E+03  0.26089511706E+03  0.00000000000E+00 0.  1.
         21    1    1    2  502  501  0.37419312194E+02 -0.28634423216E+01  0.70018341819E+01  0.38176300356E+02  0.00000000000E+00 0. -1.
<scales pt_clust_4="550.00000" pt_clust_5="550.00000" pt_clust_6="37.52871"></scales>
<mgrwt>
<rscale>  0 0.30000000E+03</rscale>
<asrwt>  1 0.37528712E+02</asrwt>
<pdfrwt beam="1">  1        1 0.87315524E+00 0.30000000E+03</pdfrwt>
<pdfrwt beam="2">0</pdfrwt>
<totfact> 0.23208441E-04</totfact>
</mgrwt>
<clustering>
<clus scale="   37.529">  1  6  2 -1</clus>
<clus scale="  473.614">  4  5 -1 -1</clus>
<clus scale="  300.000">  1  4  2 -1</clus>
</clustering>
</event>
<event>
 6    1  0.1029244E-011  0.3000000E+03  0.7818608E-02  0.1093470E+00
          1   -1    0    0  502    0  0.00000000000E+00  0.00000000000E+00  0.23211790527E+03  0.23211790527E+03  0.00000000000E+00 0.  1.
         13   -1    0    0    0    0 -0.00000000000E+00 -0.00000000000E+00 -0.27500000000E+03  0.27500000000E+03  0.00000000000E+00 0.  1.
    9000005    2    1    2  501    0 -0.29131620564E+02  0.18781419325E+02 -0.59255830494E+02  0.46878394837E+03  0.46373024893E+03 0.  0.
         13    1    3    3    0    0 -0.69077635332E+02 -0.20515905648E+03 -0.98698188385E+02  0.23791446057E+03  0.00000000000E+00 0.  1.
          3    1    3    3  501    0  0.39946014767E+02  0.22394047581E+03  0.39442357892E+02  0.23086948780E+03  0.00000000000E+00 0.  1.
         21    1    1    2  502  501  0.29131620564E+02 -0.18781419325E+02  0.16373735759E+02  0.38333956895E+02  0.00000000000E+00 0. -1.
<scales pt_clust_4="550.00000" pt_clust_5="550.00000" pt_clust_6="34.66112"></scales>
<mgrwt>
<rscale>  0 0.30000000E+03</rscale>
<asrwt>  1 0.34661117E+02</asrwt>
<pdfrwt beam="1">  1        1 0.84406511E+00 0.30000000E+03</pdfrwt>
<pdfrwt beam="2">0</pdfrwt>
<totfact> 0.46117321E-04</totfact>
</mgrwt>
<clustering>
<clus scale="   34.661">  1  6  2 -1</clus>
<clus scale="  463.730">  4  5 -1 -1</clus>
<clus scale="  300.000">  1  4  2 -1</clus>
</clustering>
</event>
<event>
 6    1  0.1029244E-011  0.3000000E+03  0.7818608E-02  0.1093470E+00
          1   -1    0    0  502    0  0.00000000000E+00  0.00000000000E+00  0.23728330898E+03  0.23728330898E+03  0.00000000000E+00 0.  1.
         13   -1    0    0    0    0 -0.00000000000E+00 -0.00000000000E+00 -0.27500000000E+03  0.27500000000E+03  0.00000000000E+00 0.  1.
    9000005    2    1    2  501    0 -0.44513288082E+02  0.13661658571E+02 -0.38044521835E+02  0.46571957627E+03  0.46182168025E+03 0.  0.
         13    1    3    3    0    0 -0.20784630539E+03 -0.11450646769E+01  0.11828113287E+03  0.23914812195E+03  0.00000000000E+00 0.  1.
          1    1    3    3  501    0  0.16333301731E+03  0.14806723248E+02 -0.15632565470E+03  0.22657145433E+03  0.00000000000E+00 0.  1.
         21    1    1    2  502  501  0.44513288082E+02 -0.13661658571E+02  0.32783081740E+00  0.46563732709E+02  0.00000000000E+00 0.  1.
<scales pt_clust_4="550.00000" pt_clust_5="550.00000" pt_clust_6="46.56258"></scales>
<mgrwt>
<rscale>  0 0.30000000E+03</rscale>
<asrwt>  1 0.46562579E+02</asrwt>
<pdfrwt beam="1">  1        1 0.86284840E+00 0.30000000E+03</pdfrwt>
<pdfrwt beam="2">0</pdfrwt>
<totfact> 0.28613471E-04</totfact>
</mgrwt>
<clustering>
<clus scale="   46.563">  1  6  2 -1</clus>
<clus scale="  461.822">  4  5 -1 -1</clus>
<clus scale="  300.000">  1  4  2 -1</clus>
</clustering>
</event>
<event>
 6    1  0.1029244E-011  0.3000000E+03  0.7818608E-02  0.1093470E+00
          1   -1    0    0  502    0  0.00000000000E+00  0.00000000000E+00  0.23413176921E+03  0.23413176921E+03  0.00000000000E+00 0.  1.
         13   -1    0    0    0    0 -0.00000000000E+00 -0.00000000000E+00 -0.27500000000E+03  0.27500000000E+03  0.00000000000E+00 0.  1.
    9000005    2    1    2  501    0  0.26721176923E-01 -0.39315044339E+02 -0.55936572812E+02  0.46702798842E+03  0.46199628610E+03 0.  0.
         13    1    3    3    0    0 -0.72980675189E+02  0.19375485378E+03 -0.79223851847E+02  0.22168342521E+03  0.00000000000E+00 0.  1.
          3    1    3    3  501    0  0.73007396366E+02 -0.23306989812E+03  0.23287279034E+02  0.24534456321E+03  0.00000000000E+00 0.  1.
         21    1    1    2  502  501 -0.26721176923E-01  0.39315044339E+02  0.15068342024E+02  0.42103780789E+02  0.00000000000E+00 0.  1.
<scales pt_clust_4="550.00000" pt_clust_5="550.00000" pt_clust_6="39.31505"></scales>
<mgrwt>
<rscale>  0 0.30000000E+03</rscale>
<asrwt>  1 0.39315053E+02</asrwt>
<pdfrwt beam="1">  1        1 0.85138825E+00 0.30000000E+03</pdfrwt>
<pdfrwt beam="2">0</pdfrwt>
<totfact> 0.38646729E-04</totfact>
</mgrwt>
<clustering>
<clus scale="   39.315">  1  6  2 -1</clus>
<clus scale="  461.996">  4  5 -1 -1</clus>
<clus scale="  300.000">  1  4  2 -1</clus>
</clustering>
</event>
<event>
 6    1  0.1029244E-011  0.3000000E+03  0.7818608E-02  0.1093470E+00
          1   -1    0    0  502    0  0.00000000000E+00  0.00000000000E+00  0.25923969075E+03  0.25923969075E+03  0.00000000000E+00 0.  1.
         13   -1    0    0    0    0 -0.00000000000E+00 -0.00000000000E+00 -0.27500000000E+03  0.27500000000E+03  0.00000000000E+00 0.  1.
    9000005    2    1    2  501    0  0.27821048365E+02 -0.20175736751E+02 -0.39706822984E+02  0.49235285982E+03  0.48954431433E+03 0.  0.
         13    1    3    3    0    0  0.11388427563E+03 -0.11381104483E+03  0.17812883760E+03  0.24010927709E+03  0.00000000000E+00 0.  1.
          3    1    3    3  501    0 -0.86063227263E+02  0.93635308081E+02 -0.21783566058E+03  0.25224358273E+03  0.00000000000E+00 0.  1.
         21    1    1    2  502  501 -0.27821048365E+02  0.20175736751E+02  0.23946513736E+02  0.41886830934E+02  0.00000000000E+00 0. -1.
<scales pt_clust_4="550.00000" pt_clust_5="550.00000" pt_clust_6="34.36671"></scales>
<mgrwt>
<rscale>  0 0.30000000E+03</rscale>
<asrwt>  1 0.34366715E+02</asrwt>
<pdfrwt beam="1">  1        1 0.94268978E+00 0.30000000E+03</pdfrwt>
<pdfrwt beam="2">0</pdfrwt>
<totfact> 0.17241125E-05</totfact>
</mgrwt>
<clustering>
<clus scale="   34.367">  1  6  2 -1</clus>
<clus scale="  489.544">  4  5 -1 -1</clus>
<clus scale="  300.000">  1  4  2 -1</clus>
</clustering>
</event>
<event>
 6    1  0.1029244E-011  0.3000000E+03  0.7818608E-02  0.1093470E+00
          1   -1    0    0  502    0  0.00000000000E+00  0.00000000000E+00  0.26806964355E+03  0.26806964355E+03  0.00000000000E+00 0.  1.
         13   -1    0    0    0    0 -0.00000000000E+00 -0.00000000000E+00 -0.27500000000E+03  0.27500000000E+03  0.00000000000E+00 0.  1.
    9000005    2    1    2  501    0  0.10288042262E+02  0.32649206391E+02 -0.65959366237E+02  0.47483300758E+03  0.46898180413E+03 0.  0.
         13    1    3    3    0    0  0.30398839678E+02  0.69236902938E+02  0.19573282028E+03  0.20983130156E+03  0.00000000000E+00 0.  1.
          1    1    3    3  501    0 -0.20110797416E+02 -0.36587696547E+02 -0.26169218651E+03  0.26500170602E+03  0.00000000000E+00 0.  1.
         21    1    1    2  502  501 -0.10288042262E+02 -0.32649206391E+02  0.59029009786E+02  0.68236635965E+02  0.00000000000E+00 0. -1.
<scales pt_clust_4="550.00000" pt_clust_5="550.00000" pt_clust_6="34.23178"></scales>
<mgrwt>
<rscale>  0 0.30000000E+03</rscale>
<asrwt>  1 0.34231776E+02</asrwt>
<pdfrwt beam="1">  1        1 0.97479870E+00 0.30000000E+03</pdfrwt>
<pdfrwt beam="2">0</pdfrwt>
<totfact> 0.41388207E-06</totfact>
</mgrwt>
<clustering>
<clus scale="   34.232">  1  6  2 -1</clus>
<clus scale="  468.982">  4  5 -1 -1</clus>
<clus scale="  300.000">  1  4  2 -1</clus>
</clustering>
</event>
<event>
 6    1  0.1029244E-011  0.3000000E+03  0.7818608E-02  0.1093470E+00
          1   -1    0    0  502    0  0.00000000000E+00  0.00000000000E+00  0.23591726141E+03  0.23591726141E+03  0.00000000000E+00 0.  1.
         13   -1    0    0    0    0 -0.00000000000E+00 -0.00000000000E+00 -0.27500000000E+03  0.27500000000E+03  0.00000000000E+00 0.  1.
    9000005    2    1    2  501    0  0.19889779636E+02  0.30969120277E+02 -0.56762520343E+02  0.47008511198E+03  0.46519172289E+03 0.  0.
         13    1    3    3    0    0  0.19099159847E+03  0.46095009915E+01  0.11762854916E+03  0.22435577498E+03  0.00000000000E+00 0.  1.
          1    1    3    3  501    0 -0.17110181884E+03  0.26359619286E+02 -0.17439106951E+03  0.24572933700E+03  0.00000000000E+00 0.  1.
         21    1    1    2  502  501 -0.19889779636E+02 -0.30969120277E+02  0.17679781757E+02  0.40832149438E+02  0.00000000000E+00 0. -1.
<scales pt_clust_4="550.00000" pt_clust_5="550.00000" pt_clust_6="36.80611"></scales>
<mgrwt>
<rscale>  0 0.30000000E+03</rscale>
<asrwt>  1 0.36806110E+02</asrwt>
<pdfrwt beam="1">  1        1 0.85788095E+00 0.30000000E+03</pdfrwt>
<pdfrwt beam="2">0</pdfrwt>
<totfact> 0.33737495E-04</totfact>
</mgrwt>
<clustering>
<clus scale="   36.806">  1  6  2 -1</clus>
<clus scale="  465.192">  4  5 -1 -1</clus>
<clus scale="  300.000">  1  4  2 -1</clus>
</clustering>
</event>
<event>
 6    1  0.1029244E-011  0.3000000E+03  0.7818608E-02  0.1093470E+00
          1   -1    0    0  502    0  0.00000000000E+00  0.00000000000E+00  0.24298321971E+03  0.24298321971E+03  0.00000000000E+00 0.  1.
         13   -1    0    0    0    0 -0.00000000000E+00 -0.00000000000E+00 -0.27500000000E+03  0.27500000000E+03  0.00000000000E+00 0.  1.
    9000005    2    1    2  501    0  0.40091432159E+02  0.21920378704E+02 -0.45629601750E+02  0.47030581581E+03  0.46585155779E+03 0.  0.
         13    1    3    3    0    0  0.22287584306E+02  0.95855614896E+02  0.19473928247E+03  0.21819354587E+03  0.00000000000E+00 0.  1.
          1    1    3    3  501    0  0.17803847853E+02 -0.73935236191E+02 -0.24036888422E+03  0.25211226994E+03  0.00000000000E+00 0.  1.
         21    1    1    2  502  501 -0.40091432159E+02 -0.21920378704E+02  0.13612821465E+02  0.47677403907E+02  0.00000000000E+00 0. -1.
<scales pt_clust_4="550.00000" pt_clust_5="550.00000" pt_clust_6="45.69273"></scales>
<mgrwt>
<rscale>  0 0.30000000E+03</rscale>
<asrwt>  1 0.45692734E+02</asrwt>
<pdfrwt beam="1">  1        1 0.88357534E+00 0.30000000E+03</pdfrwt>
<pdfrwt beam="2">0</pdfrwt>
<totfact> 0.16901260E-04</totfact>
</mgrwt>
<clustering>
<clus scale="   45.693">  1  6  2 -1</clus>
<clus scale="  465.852">  4  5 -1 -1</clus>
<clus scale="  300.000">  1  4  2 -1</clus>
</clustering>
</event>
<event>
 6    1  0.1029244E-011  0.3000000E+03  0.7818608E-02  0.1093470E+00
          1   -1    0    0  502    0  0.00000000000E+00  0.00000000000E+00  0.23258454371E+03  0.23258454371E+03  0.00000000000E+00 0.  1.
         13   -1    0    0    0    0 -0.00000000000E+00 -0.00000000000E+00 -0.27500000000E+03  0.27500000000E+03  0.00000000000E+00 0.  1.
    9000005    2    1    2  501    0  0.22656281176E+02 -0.24611936924E+02 -0.48006794478E+02  0.47366821168E+03  0.47004028330E+03 0.  0.
         13    1    3    3    0    0  0.17976652513E+03 -0.29543410804E+02  0.13916331906E+03  0.22924930981E+03  0.00000000000E+00 0.  1.
          1    1    3    3  501    0 -0.15711024395E+03  0.49314738800E+01 -0.18717011354E+03  0.24441890187E+03  0.00000000000E+00 0.  1.
         21    1    1    2  502  501 -0.22656281176E+02  0.24611936924E+02  0.55913381919E+01  0.33916332034E+02  0.00000000000E+00 0.  1.
<scales pt_clust_4="550.00000" pt_clust_5="550.00000" pt_clust_6="33.45227"></scales>
<mgrwt>
<rscale>  0 0.30000000E+03</rscale>
<asrwt>  1 0.33452272E+02</asrwt>
<pdfrwt beam="1">  1        1 0.84576198E+00 0.30000000E+03</pdfrwt>
<pdfrwt beam="2">0</pdfrwt>
<totfact> 0.44870199E-04</totfact>
</mgrwt>
<clustering>
<clus scale="   33.452">  1  6  2 -1</clus>
<clus scale="  470.040">  4  5 -1 -1</clus>
<clus scale="  300.000">  1  4  2 -1</clus>
</clustering>
</event>
<event>
 6    1  0.1029244E-011  0.3000000E+03  0.7818608E-02  0.1093470E+00
          1   -1    0    0  502    0  0.00000000000E+00  0.00000000000E+00  0.23538814013E+03  0.23538814013E+03  0.00000000000E+00 0.  1.
         13   -1    0    0    0    0 -0.00000000000E+00 -0.00000000000E+00 -0.27500000000E+03  0.27500000000E+03  0.00000000000E+00 0.  1.
    9000005    2    1    2  501    0 -0.10990772162E+02 -0.41574943053E+02 -0.39975410937E+02  0.46738342955E+03  0.46368088571E+03 0.  0.
         13    1    3    3    0    0 -0.79875670831E+01 -0.23317500427E+03 -0.11682245798E+03  0.26092502857E+03  0.00000000000E+00 0.  1.
          3    1    3    3  501    0 -0.30032050792E+01  0.19160006121E+03  0.76847047047E+02  0.20645840099E+03  0.00000000000E+00 0.  1.
         21    1    1    2  502  501  0.10990772162E+02  0.41574943053E+02  0.36355106706E+00  0.43004710579E+02  0.00000000000E+00 0. -1.
<scales pt_clust_4="550.00000" pt_clust_5="550.00000" pt_clust_6="43.00317"></scales>
<mgrwt>
<rscale>  0 0.30000000E+03</rscale>
<asrwt>  1 0.43003174E+02</asrwt>
<pdfrwt beam="1">  1        1 0.85595687E+00 0.30000000E+03</pdfrwt>
<pdfrwt beam="2">0</pdfrwt>
<totfact> 0.34317344E-04</totfact>
</mgrwt>
<clustering>
<clus scale="   43.003">  1  6  2 -1</clus>
<clus scale="  463.681">  4  5 -1 -1</clus>
<clus scale="  300.000">  1  4  2 -1</clus>
</clustering>
</event>
<event>
 6    1  0.1029244E-011  0.3000000E+03  0.7818608E-02  0.1093470E+00
          1   -1    0    0  502    0  0.00000000000E+00  0.00000000000E+00  0.24756305689E+03  0.24756305689E+03  0.00000000000E+00 0.  1.
         13   -1    0    0    0    0 -0.00000000000E+00 -0.00000000000E+00 -0.27500000000E+03  0.27500000000E+03  0.00000000000E+00 0.  1.
    9000005    2    1    2  501    0  0.40230634199E+02 -0.20385588202E+02 -0.51986297465E+02  0.47121379269E+03  0.46616068814E+03 0.  0.
         13    1    3    3    0    0 -0.57098416368E+02 -0.52776420729E+02 -0.24259813487E+03  0.25475367471E+03  0.00000000000E+00 0.  1.
          3    1    3    3  501    0  0.97329050566E+02  0.32390832527E+02  0.19061183741E+03  0.21646011798E+03  0.00000000000E+00 0.  1.
         21    1    1    2  502  501 -0.40230634199E+02  0.20385588202E+02  0.24549354358E+02  0.51349264199E+02  0.00000000000E+00 0.  1.
<scales pt_clust_4="550.00000" pt_clust_5="550.00000" pt_clust_6="45.10073"></scales>
<mgrwt>
<rscale>  0 0.30000000E+03</rscale>
<asrwt>  1 0.45100733E+02</asrwt>
<pdfrwt beam="1">  1        1 0.90022930E+00 0.30000000E+03</pdfrwt>
<pdfrwt beam="2">0</pdfrwt>
<totfact> 0.10473997E-04</totfact>
</mgrwt>
<clustering>
<clus scale="   45.101">  1  6  2 -1</clus>
<clus scale="  466.161">  4  5 -1 -1</clus>
<clus scale="  300.000">  1  4  2 -1</clus>
</clustering>
</event>
<event>
 6    1  0.1029244E-011  0.3000000E+03  0.7818608E-02  0.1093470E+00
          1   -1    0    0  502    0  0.00000000000E+00  0.00000000000E+00  0.24023117430E+03  0.24023117430E+03  0.00000000000E+00 0.  1.
         13   -1    0    0    0    0 -0.00000000000E+00 -0.00000000000E+00 -0.27500000000E+03  0.27500000000E+03  0.00000000000E+00 0.  1.
    9000005    2    1    2  501    0  0.69048272163E+01  0.36588748346E+02 -0.32804799830E+02  0.47794484246E+03  0.47536165642E+03 0.  0.
         13    1    3    3    0    0  0.17030405795E+03  0.16644153307E+03 -0.10058396990E+03  0.25850220712E+03  0.00000000000E+00 0.  1.
          3    1    3    3  501    0 -0.16339923074E+03 -0.12985278473E+03  0.67779170069E+02  0.21944263534E+03  0.00000000000E+00 0.  1.
         21    1    1    2  502  501 -0.69048272163E+01 -0.36588748346E+02 -0.19640258713E+01  0.37286331839E+02  0.00000000000E+00 0.  1.
<scales pt_clust_4="550.00000" pt_clust_5="550.00000" pt_clust_6="37.23457"></scales>
<mgrwt>
<rscale>  0 0.30000000E+03</rscale>
<asrwt>  1 0.37234569E+02</asrwt>
<pdfrwt beam="1">  1        1 0.87356791E+00 0.30000000E+03</pdfrwt>
<pdfrwt beam="2">0</pdfrwt>
<totfact> 0.23015261E-04</totfact>
</mgrwt>
<clustering>
<clus scale="   37.235">  1  6  2 -1</clus>
<clus scale="  475.362">  4  5 -1 -1</clus>
<clus scale="  300.000">  1  4  2 -1</clus>
</clustering>
</event>
<event>
 6    1  0.1029244E-011  0.3000000E+03  0.7818608E-02  0.1093470E+00
          1   -1    0    0  502    0  0.00000000000E+00  0.00000000000E+00  0.23614372372E+03  0.23614372372E+03  0.00000000000E+00 0.  1.
         13   -1    0    0    0    0 -0.00000000000E+00 -0.00000000000E+00 -0.27500000000E+03  0.27500000000E+03  0.00000000000E+00 0.  1.
    9000005    2    1    2  501    0  0.23849931329E+02  0.42932340741E+02 -0.41409831532E+02  0.46196521469E+03  0.45747686316E+03 0.  0.
         13    1    3    3    0    0  0.65304747532E+02 -0.11487319839E+03 -0.19653901374E+03  0.23682935984E+03  0.00000000000E+00 0.  1.
          1    1    3    3  501    0 -0.41454816203E+02  0.15780553913E+03  0.15512918221E+03  0.22513585485E+03  0.00000000000E+00 0.  1.
         21    1    1    2  502  501 -0.23849931329E+02 -0.42932340741E+02  0.25535552515E+01  0.49178509029E+02  0.00000000000E+00 0.  1.
<scales pt_clust_4="550.00000" pt_clust_5="550.00000" pt_clust_6="49.11217"></scales>
<mgrwt>
<rscale>  0 0.30000000E+03</rscale>
<asrwt>  1 0.49112169E+02</asrwt>
<pdfrwt beam="1">  1        1 0.85870445E+00 0.30000000E+03</pdfrwt>
<pdfrwt beam="2">0</pdfrwt>
<totfact> 0.31396214E-04</totfact>
</mgrwt>
<clustering>
<clus scale="   49.112">  1  6  2 -1</clus>
<clus scale="  457.477">  4  5 -1 -1</clus>
<clus scale="  300.000">  1  4  2 -1</clus>
</clustering>
</event>
<event>
 6    1  0.1029244E-011  0.3000000E+03  0.7818608E-02  0.1093470E+00
          1   -1    0    0  502    0  0.00000000000E+00  0.00000000000E+00  0.23233552787E+03  0.23233552787E+03  0.00000000000E+00 0.  1.
         13   -1    0    0    0    0 -0.00000000000E+00 -0.00000000000E+00 -0.27500000000E+03  0.27500000000E+03  0.00000000000E+00 0.  1.
    9000005    2    1    2  501    0 -0.12646639288E+02  0.36365287340E+02 -0.38547859525E+02  0.46861449860E+03  0.46543661138E+03 0.  0.
         13    1    3    3    0    0 -0.16592690527E+03  0.18370018991E+03 -0.60637239936E+02  0.25486147714E+03  0.00000000000E+00 0.  1.
          1    1    3    3  501    0  0.15328026598E+03 -0.14733490257E+03  0.22089380410E+02  0.21375302145E+03  0.00000000000E+00 0.  1.
         21    1    1    2  502  501  0.12646639288E+02 -0.36365287340E+02 -0.41166126061E+01  0.38721029273E+02  0.00000000000E+00 0.  1.
<scales pt_clust_4="550.00000" pt_clust_5="550.00000" pt_clust_6="38.50160"></scales>
<mgrwt>
<rscale>  0 0.30000000E+03</rscale>
<asrwt>  1 0.38501599E+02</asrwt>
<pdfrwt beam="1">  1        1 0.84485646E+00 0.30000000E+03</pdfrwt>
<pdfrwt beam="2">0</pdfrwt>
<totfact> 0.44518820E-04</totfact>
</mgrwt>
<clustering>
<clus scale="   38.502">  1  6  2 -1</clus>
<clus scale="  465.437">  4  5 -1 -1</clus>
<clus scale="  300.000">  1  4  2 -1</clus>
</clustering>
</event>
<event>
 6    1  0.1029244E-011  0.3000000E+03  0.7818608E-02  0.1093470E+00
          1   -1    0    0  502    0  0.00000000000E+00  0.00000000000E+00  0.23394848658E+03  0.23394848658E+03  0.00000000000E+00 0.  1.
         13   -1    0    0    0    0 -0.00000000000E+00 -0.00000000000E+00 -0.27500000000E+03  0.27500000000E+03  0.00000000000E+00 0.  1.
    9000005    2    1    2  501    0  0.34580593429E+02  0.87131518891E+01 -0.52841708070E+02  0.47138859910E+03  0.46705805719E+03 0.  0.
         13    1    3    3    0    0  0.13217210941E+03 -0.92391160086E+01  0.17696786259E+03  0.22107114728E+03  0.00000000000E+00 0.  1.
          3    1    3    3  501    0 -0.97591515985E+02  0.17952267898E+02 -0.22980957066E+03  0.25031745181E+03  0.00000000000E+00 0.  1.
         21    1    1    2  502  501 -0.34580593429E+02 -0.87131518891E+01  0.11790194646E+02  0.37559887480E+02  0.00000000000E+00 0. -1.
<scales pt_clust_4="550.00000" pt_clust_5="550.00000" pt_clust_6="35.66141"></scales>
<mgrwt>
<rscale>  0 0.30000000E+03</rscale>
<asrwt>  1 0.35661414E+02</asrwt>
<pdfrwt beam="1">  1        1 0.85072177E+00 0.30000000E+03</pdfrwt>
<pdfrwt beam="2">0</pdfrwt>
<totfact> 0.39926670E-04</totfact>
</mgrwt>
<clustering>
<clus scale="   35.661">  1  6  2 -1</clus>
<clus scale="  467.058">  4  5 -1 -1</clus>
<clus scale="  300.000">  1  4  2 -1</clus>
</clustering>
</event>
<event>
 6    1  0.1029244E-011  0.3000000E+03  0.7818608E-02  0.1093470E+00
          1   -1    0    0  502    0  0.00000000000E+00  0.00000000000E+00  0.23795052381E+03  0.23795052381E+03  0.00000000000E+00 0.  1.
         13   -1    0    0    0    0 -0.00000000000E+00 -0.00000000000E+00 -0.27500000000E+03  0.27500000000E+03  0.00000000000E+00 0.  1.
    9000005    2    1    2  501    0  0.35211393786E+02  0.18739165697E+02 -0.33181156842E+02  0.47287606214E+03  0.47002104463E+03 0.  0.
         13    1    3    3    0    0  0.21974643472E+03 -0.80103004860E+02 -0.98203672167E+02  0.25367094470E+03  0.00000000000E+00 0.  1.
          1    1    3    3  501    0 -0.18453504093E+03  0.98842170557E+02  0.65022515325E+02  0.21920511744E+03  0.00000000000E+00 0.  1.
         21    1    1    2  502  501 -0.35211393786E+02 -0.18739165697E+02 -0.38683193524E+01  0.40074461668E+02  0.00000000000E+00 0. -1.
<scales pt_clust_4="550.00000" pt_clust_5="550.00000" pt_clust_6="39.88734"></scales>
<mgrwt>
<rscale>  0 0.30000000E+03</rscale>
<asrwt>  1 0.39887344E+02</asrwt>
<pdfrwt beam="1">  1        1 0.86527463E+00 0.30000000E+03</pdfrwt>
<pdfrwt beam="2">0</pdfrwt>
<totfact> 0.27699338E-04</totfact>
</mgrwt>
<clustering>
<clus scale="   39.887">  1  6  2 -1</clus>
<clus scale="  470.021">  4  5 -1 -1</clus>
<clus scale="  300.000">  1  4  2 -1</clus>
</clustering>
</event>
<event>
 6    1  0.1029244E-011  0.3000000E+03  0.7818608E-02  0.1093470E+00
          1   -1    0    0  502    0  0.00000000000E+00  0.00000000000E+00  0.23193927323E+03  0.23193927323E+03  0.00000000000E+00 0.  1.
         13   -1    0    0    0    0 -0.00000000000E+00 -0.00000000000E+00 -0.27500000000E+03  0.27500000000E+03  0.00000000000E+00 0.  1.
    9000005    2    1    2  501    0 -0.54099908885E+01  0.33149999312E+02 -0.57106726283E+02  0.47053212341E+03  0.46584451324E+03 0.  0.
         13    1    3    3    0    0 -0.16501013997E+03  0.16259514208E+03 -0.11274617486E+03  0.25763778152E+03  0.00000000000E+00 0.  1.
          3    1    3    3  501    0  0.15960014908E+03 -0.12944514277E+03  0.55639448576E+02  0.21289434189E+03  0.00000000000E+00 0.  1.
         21    1    1    2  502  501  0.54099908885E+01 -0.33149999312E+02  0.14045999510E+02  0.36407149821E+02  0.00000000000E+00 0. -1.
<scales pt_clust_4="550.00000" pt_clust_5="550.00000" pt_clust_6="33.58855"></scales>
<mgrwt>
<rscale>  0 0.30000000E+03</rscale>
<asrwt>  1 0.33588546E+02</asrwt>
<pdfrwt beam="1">  1        1 0.84341554E+00 0.30000000E+03</pdfrwt>
<pdfrwt beam="2">0</pdfrwt>
<totfact> 0.46987226E-04</totfact>
</mgrwt>
<clustering>
<clus scale="   33.589">  1  6  2 -1</clus>
<clus scale="  465.845">  4  5 -1 -1</clus>
<clus scale="  300.000">  1  4  2 -1</clus>
</clustering>
</event>
<event>
 6    1  0.1029244E-011  0.3000000E+03  0.7818608E-02  0.1093470E+00
          1   -1    0    0  502    0  0.00000000000E+00  0.00000000000E+00  0.22706501842E+03  0.22706501842E+03  0.00000000000E+00 0.  1.
         13   -1    0    0    0    0 -0.00000000000E+00 -0.00000000000E+00 -0.27500000000E+03  0.27500000000E+03  0.00000000000E+00 0.  1.
    9000005    2    1    2  501    0  0.23483206187E+02 -0.31169575891E+02 -0.49610744559E+02  0.46300337975E+03  0.45868060810E+03 0.  0.
         13    1    3    3    0    0  0.19755056611E+03  0.99143090958E+02 -0.95484377793E+02  0.24077550760E+03  0.00000000000E+00 0.  1.
          3    1    3    3  501    0 -0.17406735993E+03 -0.13031266685E+03  0.45873633234E+02  0.22222787215E+03  0.00000000000E+00 0.  1.
         21    1    1    2  502  501 -0.23483206187E+02  0.31169575891E+02  0.16757629763E+01  0.39061638670E+02  0.00000000000E+00 0. -1.
<scales pt_clust_4="550.00000" pt_clust_5="550.00000" pt_clust_6="39.02568"></scales>
<mgrwt>
<rscale>  0 0.30000000E+03</rscale>
<asrwt>  1 0.39025677E+02</asrwt>
<pdfrwt beam="1">  1        1 0.82569098E+00 0.30000000E+03</pdfrwt>
<pdfrwt beam="2">0</pdfrwt>
<totfact> 0.63112113E-04</totfact>
</mgrwt>
<clustering>
<clus scale="   39.026">  1  6  2 -1</clus>
<clus scale="  458.681">  4  5 -1 -1</clus>
<clus scale="  300.000">  1  4  2 -1</clus>
</clustering>
</event>
<event>
 6    1  0.1029244E-011  0.3000000E+03  0.7818608E-02  0.1093470E+00
          1   -1    0    0  502    0  0.00000000000E+00  0.00000000000E+00  0.24689933663E+03  0.24689933663E+03  0.00000000000E+00 0.  1.
         13   -1    0    0    0    0 -0.00000000000E+00 -0.00000000000E+00 -0.27500000000E+03  0.27500000000E+03  0.00000000000E+00 0.  1.
    9000005    2    1    2  501    0  0.48762830272E+02  0.15385096589E+02 -0.57340685385E+02  0.46299692835E+03  0.45657823716E+03 0.  0.
         13    1    3    3    0    0  0.19012126896E+03  0.13930137427E+03  0.57639760291E+02  0.24263823225E+03  0.00000000000E+00 0.  1.
          1    1    3    3  501    0 -0.14135843869E+03 -0.12391627768E+03 -0.11498044568E+03  0.22035869610E+03  0.00000000000E+00 0.  1.
         21    1    1    2  502  501 -0.48762830272E+02 -0.15385096589E+02  0.29240022011E+02  0.58902408273E+02  0.00000000000E+00 0.  1.
<scales pt_clust_4="550.00000" pt_clust_5="550.00000" pt_clust_6="51.13233"></scales>
<mgrwt>
<rscale>  0 0.30000000E+03</rscale>
<asrwt>  1 0.51132326E+02</asrwt>
<pdfrwt beam="1">  1        1 0.89781577E+00 0.30000000E+03</pdfrwt>
<pdfrwt beam="2">0</pdfrwt>
<totfact> 0.10949211E-04</totfact>
</mgrwt>
<clustering>
<clus scale="   51.132">  1  6  2 -1</clus>
<clus scale="  456.578">  4  5 -1 -1</clus>
<clus scale="  300.000">  1  4  2 -1</clus>
</clustering>
</event>
<event>
 6    1  0.1029244E-011  0.3000000E+03  0.7818608E-02  0.1093470E+00
          1   -1    0    0  502    0  0.00000000000E+00  0.00000000000E+00  0.22562151841E+03  0.22562151841E+03  0.00000000000E+00 0.  1.
         13   -1    0    0    0    0 -0.00000000000E+00 -0.00000000000E+00 -0.27500000000E+03  0.27500000000E+03  0.00000000000E+00 0.  1.
    9000005    2    1    2  501    0  0.20899031421E+02 -0.26456527475E+02 -0.62592298560E+02  0.46440933373E+03  0.45893519810E+03 0.  0.
         13    1    3    3    0    0 -0.14216852281E+03  0.13908947761E+03  0.51628319690E+02  0.20548297996E+03  0.00000000000E+00 0.  1.
          3    1    3    3  501    0  0.16306755423E+03 -0.16554600509E+03 -0.11422061825E+03  0.25892635377E+03  0.00000000000E+00 0.  1.
         21    1    1    2  502  501 -0.20899031421E+02  0.26456527475E+02  0.13213816968E+02  0.36212184680E+02  0.00000000000E+00 0.  1.
<scales pt_clust_4="550.00000" pt_clust_5="550.00000" pt_clust_6="33.71524"></scales>
<mgrwt>
<rscale>  0 0.30000000E+03</rscale>
<asrwt>  1 0.33715239E+02</asrwt>
<pdfrwt beam="1">  1        1 0.82044189E+00 0.30000000E+03</pdfrwt>
<pdfrwt beam="2">0</pdfrwt>
<totfact> 0.72197650E-04</totfact>
</mgrwt>
<clustering>
<clus scale="   33.715">  1  6  2 -1</clus>
<clus scale="  458.935">  4  5 -1 -1</clus>
<clus scale="  300.000">  1  4  2 -1</clus>
</clustering>
</event>
<event>
 6    1  0.1029244E-011  0.3000000E+03  0.7818608E-02  0.1093470E+00
          1   -1    0    0  502    0  0.00000000000E+00  0.00000000000E+00  0.24185722514E+03  0.24185722514E+03  0.00000000000E+00 0.  1.
         13   -1    0    0    0    0 -0.00000000000E+00 -0.00000000000E+00 -0.27500000000E+03  0.27500000000E+03  0.00000000000E+00 0.  1.
    9000005    2    1    2  501    0  0.44770547885E+02  0.99446874087E+01 -0.32877541690E+02  0.47099472287E+03  0.46760217863E+03 0.  0.
         13    1    3    3    0    0 -0.13094712385E+03  0.97654370601E+02  0.13555367140E+03  0.21226945888E+03  0.00000000000E+00 0.  1.
          1    1    3    3  501    0  0.17571767173E+03 -0.87709683192E+02 -0.16843121309E+03  0.25872526399E+03  0.00000000000E+00 0.  1.
         21    1    1    2  502  501 -0.44770547885E+02 -0.99446874087E+01 -0.26523317112E+00  0.45862502268E+02  0.00000000000E+00 0. -1.
<scales pt_clust_4="550.00000" pt_clust_5="550.00000" pt_clust_6="45.86174"></scales>
<mgrwt>
<rscale>  0 0.30000000E+03</rscale>
<asrwt>  1 0.45861735E+02</asrwt>
<pdfrwt beam="1">  1        1 0.87948082E+00 0.30000000E+03</pdfrwt>
<pdfrwt beam="2">0</pdfrwt>
<totfact> 0.19064308E-04</totfact>
</mgrwt>
<clustering>
<clus scale="   45.862">  1  6  2 -1</clus>
<clus scale="  467.602">  4  5 -1 -1</clus>
<clus scale="  300.000">  1  4  2 -1</clus>
</clustering>
</event>
<event>
 6    1  0.1029244E-011  0.3000000E+03  0.7818608E-02  0.1093470E+00
          1   -1    0    0  502    0  0.00000000000E+00  0.00000000000E+00  0.22733130806E+03  0.22733130806E+03  0.00000000000E+00 0.  1.
         13   -1    0    0    0    0 -0.00000000000E+00 -0.00000000000E+00 -0.27500000000E+03  0.27500000000E+03  0.00000000000E+00 0.  1.
    9000005    2    1    2  501    0 -0.38852156387E+02  0.24400501125E+01 -0.37511293875E+02  0.46209927311E+03  0.45892613473E+03 0.  0.
         13    1    3    3    0    0 -0.14005679996E+03  0.30686711292E+02  0.17427828405E+03  0.22567787166E+03  0.00000000000E+00 0.  1.
          1    1    3    3  501    0  0.10120464357E+03 -0.28246661179E+02 -0.21178957793E+03  0.23642140145E+03  0.00000000000E+00 0.  1.
         21    1    1    2  502  501  0.38852156387E+02 -0.24400501125E+01 -0.10157398068E+02  0.40232034947E+02  0.00000000000E+00 0. -1.
<scales pt_clust_4="550.00000" pt_clust_5="550.00000" pt_clust_6="38.92872"></scales>
<mgrwt>
<rscale>  0 0.30000000E+03</rscale>
<asrwt>  1 0.38928722E+02</asrwt>
<pdfrwt beam="1">  1        1 0.82665930E+00 0.30000000E+03</pdfrwt>
<pdfrwt beam="2">0</pdfrwt>
<totfact> 0.61905203E-04</totfact>
</mgrwt>
<clustering>
<clus scale="   38.929">  1  6  2 -1</clus>
<clus scale="  458.926">  4  5 -1 -1</clus>
<clus scale="  300.000">  1  4  2 -1</clus>
</clustering>
</event>
<event>
 6    1  0.1029244E-011  0.3000000E+03  0.7818608E-02  0.1093470E+00
          1   -1    0    0  502    0  0.00000000000E+00  0.00000000000E+00  0.24347903255E+03  0.24347903255E+03  0.00000000000E+00 0.  1.
         13   -1    0    0    0    0 -0.00000000000E+00 -0.00000000000E+00 -0.27500000000E+03  0.27500000000E+03  0.00000000000E+00 0.  1.
    9000005    2    1    2  501    0  0.21263541242E+02  0.34691961671E+02 -0.51981728238E+02  0.47293440474E+03  0.46830458115E+03 0.  0.
         13    1    3    3    0    0 -0.16671384175E+03 -0.25626103739E+02  0.12329875177E+03  0.20893248769E+03  0.00000000000E+00 0.  1.
          1    1    3    3  501    0  0.18797738299E+03  0.60318065411E+02 -0.17528048001E+03  0.26400191705E+03  0.00000000000E+00 0.  1.
         21    1    1    2  502  501 -0.21263541242E+02 -0.34691961671E+02  0.20460760791E+02  0.45544627816E+02  0.00000000000E+00 0.  1.
<scales pt_clust_4="550.00000" pt_clust_5="550.00000" pt_clust_6="40.68993"></scales>
<mgrwt>
<rscale>  0 0.30000000E+03</rscale>
<asrwt>  1 0.40689930E+02</asrwt>
<pdfrwt beam="1">  1        1 0.88537830E+00 0.30000000E+03</pdfrwt>
<pdfrwt beam="2">0</pdfrwt>
<totfact> 0.16309623E-04</totfact>
</mgrwt>
<clustering>
<clus scale="   40.690">  1  6  2 -1</clus>
<clus scale="  468.305">  4  5 -1 -1</clus>
<clus scale="  300.000">  1  4  2 -1</clus>
</clustering>
</event>
<event>
 6    1  0.1029244E-011  0.3000000E+03  0.7818608E-02  0.1093470E+00
          1   -1    0    0  502    0  0.00000000000E+00  0.00000000000E+00  0.23451088894E+03  0.23451088894E+03  0.00000000000E+00 0.  1.
         13   -1    0    0    0    0 -0.00000000000E+00 -0.00000000000E+00 -0.27500000000E+03  0.27500000000E+03  0.00000000000E+00 0.  1.
    9000005    2    1    2  501    0  0.28447634228E+02  0.13647233216E+02 -0.31644345279E+02  0.47674284431E+03  0.47464392985E+03 0.  0.
         13    1    3    3    0    0  0.62661394448E+02 -0.10994867071E+02  0.21618542616E+03  0.22535189358E+03  0.00000000000E+00 0.  1.
          1    1    3    3  501    0 -0.34213760220E+02  0.24642100287E+02 -0.24782977144E+03  0.25139095073E+03  0.00000000000E+00 0.  1.
         21    1    1    2  502  501 -0.28447634228E+02 -0.13647233216E+02 -0.88447657779E+01  0.32768044636E+02  0.00000000000E+00 0. -1.
<scales pt_clust_4="550.00000" pt_clust_5="550.00000" pt_clust_6="31.55180"></scales>
<mgrwt>
<rscale>  0 0.30000000E+03</rscale>
<asrwt>  1 0.31551797E+02</asrwt>
<pdfrwt beam="1">  1        1 0.85276687E+00 0.30000000E+03</pdfrwt>
<pdfrwt beam="2">0</pdfrwt>
<totfact> 0.39062145E-04</totfact>
</mgrwt>
<clustering>
<clus scale="   31.552">  1  6  2 -1</clus>
<clus scale="  474.644">  4  5 -1 -1</clus>
<clus scale="  300.000">  1  4  2 -1</clus>
</clustering>
</event>
<event>
 6    1  0.1029244E-011  0.3000000E+03  0.7818608E-02  0.1093470E+00
          1   -1    0    0  502    0  0.00000000000E+00  0.00000000000E+00  0.22572705623E+03  0.22572705623E+03  0.00000000000E+00 0.  1.
         13   -1    0    0    0    0 -0.00000000000E+00 -0.00000000000E+00 -0.27500000000E+03  0.27500000000E+03  0.00000000000E+00 0.  1.
    9000005    2    1    2  501    0  0.12941459254E+02 -0.27528004301E+02 -0.43671229250E+02  0.46979727133E+03  0.46677299353E+03 0.  0.
         13    1    3    3    0    0  0.23871736541E+03 -0.21473584445E+02 -0.45350640360E+02  0.24393395819E+03  0.00000000000E+00 0.  1.
          1    1    3    3  501    0 -0.22577590615E+03 -0.60544198556E+01  0.16794111100E+01  0.22586331314E+03  0.00000000000E+00 0.  1.
         21    1    1    2  502  501 -0.12941459254E+02  0.27528004301E+02 -0.56017145236E+01  0.30929784901E+02  0.00000000000E+00 0.  1.
<scales pt_clust_4="550.00000" pt_clust_5="550.00000" pt_clust_6="30.41831"></scales>
<mgrwt>
<rscale>  0 0.30000000E+03</rscale>
<asrwt>  1 0.30418306E+02</asrwt>
<pdfrwt beam="1">  1        1 0.82082566E+00 0.30000000E+03</pdfrwt>
<pdfrwt beam="2">0</pdfrwt>
<totfact> 0.73058581E-04</totfact>
</mgrwt>
<clustering>
<clus scale="   30.418">  1  6  2 -1</clus>
<clus scale="  466.773">  4  5 -1 -1</clus>
<clus scale="  300.000">  1  4  2 -1</clus>
</clustering>
</event>
<event>
 6    1  0.1029244E-011  0.3000000E+03  0.7818608E-02  0.1093470E+00
          1   -1    0    0  502    0  0.00000000000E+00  0.00000000000E+00  0.23546802223E+03  0.23546802223E+03  0.00000000000E+00 0.  1.
         13   -1    0    0    0    0 -0.00000000000E+00 -0.00000000000E+00 -0.27500000000E+03  0.27500000000E+03  0.00000000000E+00 0.  1.
    9000005    2    1    2  501    0 -0.26669646901E+02 -0.15246247046E+02 -0.29962758043E+02  0.47829212938E+03  0.47636317662E+03 0.  0.
         13    1    3    3    0    0 -0.14519013652E+03  0.27466390676E+02  0.18033732486E+03  0.23314400936E+03  0.00000000000E+00 0.  1.
          1    1    3    3  501    0  0.11852048962E+03 -0.42712637722E+02 -0.21030008291E+03  0.24514812002E+03  0.00000000000E+00 0.  1.
         21    1    1    2  502  501  0.26669646901E+02  0.15246247046E+02 -0.95692197241E+01  0.32175892854E+02  0.00000000000E+00 0. -1.
<scales pt_clust_4="550.00000" pt_clust_5="550.00000" pt_clust_6="30.72001"></scales>
<mgrwt>
<rscale>  0 0.30000000E+03</rscale>
<asrwt>  1 0.30720011E+02</asrwt>
<pdfrwt beam="1">  1        1 0.85624735E+00 0.30000000E+03</pdfrwt>
<pdfrwt beam="2">0</pdfrwt>
<totfact> 0.36283642E-04</totfact>
</mgrwt>
<clustering>
<clus scale="   30.720">  1  6  2 -1</clus>
<clus scale="  476.363">  4  5 -1 -1</clus>
<clus scale="  300.000">  1  4  2 -1</clus>
</clustering>
</event>
<event>
 6    1  0.1029244E-011  0.3000000E+03  0.7818608E-02  0.1093470E+00
          1   -1    0    0  502    0  0.00000000000E+00  0.00000000000E+00  0.23133574318E+03  0.23133574318E+03  0.00000000000E+00 0.  1.
         13   -1    0    0    0    0 -0.00000000000E+00 -0.00000000000E+00 -0.27500000000E+03  0.27500000000E+03  0.00000000000E+00 0.  1.
    9000005    2    1    2  501    0  0.11356769781E+02 -0.40425897472E+02 -0.40374269932E+02  0.46421622965E+03  0.46054684539E+03 0.  0.
         13    1    3    3    0    0  0.19209189958E+03 -0.12635356675E+03  0.63790649055E+02  0.23860798105E+03  0.00000000000E+00 0.  1.
          3    1    3    3  501    0 -0.18073512980E+03  0.85927669276E+02 -0.10416491899E+03  0.22560824860E+03  0.00000000000E+00 0.  1.
         21    1    1    2  502  501 -0.11356769781E+02  0.40425897472E+02 -0.32899868841E+01  0.42119513529E+02  0.00000000000E+00 0. -1.
<scales pt_clust_4="550.00000" pt_clust_5="550.00000" pt_clust_6="41.99083"></scales>
<mgrwt>
<rscale>  0 0.30000000E+03</rscale>
<asrwt>  1 0.41990825E+02</asrwt>
<pdfrwt beam="1">  1        1 0.84122088E+00 0.30000000E+03</pdfrwt>
<pdfrwt beam="2">0</pdfrwt>
<totfact> 0.47020227E-04</totfact>
</mgrwt>
<clustering>
<clus scale="   41.991">  1  6  2 -1</clus>
<clus scale="  460.547">  4  5 -1 -1</clus>
<clus scale="  300.000">  1  4  2 -1</clus>
</clustering>
</event>
<event>
 6    1  0.1029244E-011  0.3000000E+03  0.7818608E-02  0.1093470E+00
          1   -1    0    0  502    0  0.00000000000E+00  0.00000000000E+00  0.24739281295E+03  0.24739281295E+03  0.00000000000E+00 0.  1.
         13   -1    0    0    0    0 -0.00000000000E+00 -0.00000000000E+00 -0.27500000000E+03  0.27500000000E+03  0.00000000000E+00 0.  1.
    9000005    2    1    2  501    0 -0.33315210843E+02  0.15339348290E+02 -0.49239009217E+02  0.47981189457E+03  0.47586739252E+03 0.  0.
         13    1    3    3    0    0  0.20805535459E+03  0.71187963083E+02 -0.71089423580E+02  0.23110271051E+03  0.00000000000E+00 0.  1.
          1    1    3    3  501    0 -0.24137056543E+03 -0.55848614793E+02  0.21850414362E+02  0.24870918406E+03  0.00000000000E+00 0.  1.
         21    1    1    2  502  501  0.33315210843E+02 -0.15339348290E+02  0.21631822163E+02  0.42580918374E+02  0.00000000000E+00 0. -1.
<scales pt_clust_4="550.00000" pt_clust_5="550.00000" pt_clust_6="36.67695"></scales>
<mgrwt>
<rscale>  0 0.30000000E+03</rscale>
<asrwt>  1 0.36676953E+02</asrwt>
<pdfrwt beam="1">  1        1 0.89961023E+00 0.30000000E+03</pdfrwt>
<pdfrwt beam="2">0</pdfrwt>
<totfact> 0.11071040E-04</totfact>
</mgrwt>
<clustering>
<clus scale="   36.677">  1  6  2 -1</clus>
<clus scale="  475.867">  4  5 -1 -1</clus>
<clus scale="  300.000">  1  4  2 -1</clus>
</clustering>
</event>
<event>
 6    1  0.1029244E-011  0.3000000E+03  0.7818608E-02  0.1093470E+00
          1   -1    0    0  502    0  0.00000000000E+00  0.00000000000E+00  0.24763815169E+03  0.24763815169E+03  0.00000000000E+00 0.  1.
         13   -1    0    0    0    0 -0.00000000000E+00 -0.00000000000E+00 -0.27500000000E+03  0.27500000000E+03  0.00000000000E+00 0.  1.
    9000005    2    1    2  501    0  0.36491930409E+02  0.10675461318E+02 -0.55829993220E+02  0.47514013348E+03  0.47031429049E+03 0.  0.
         13    1    3    3    0    0  0.28321121758E+02  0.19225027139E+03 -0.17193058267E+03  0.25946556234E+03  0.00000000000E+00 0.  1.
          1    1    3    3  501    0  0.81708086504E+01 -0.18157481007E+03  0.11610058945E+03  0.21567457114E+03  0.00000000000E+00 0.  1.
         21    1    1    2  502  501 -0.36491930409E+02 -0.10675461318E+02  0.28468144908E+02  0.47498018209E+02  0.00000000000E+00 0.  1.
<scales pt_clust_4="550.00000" pt_clust_5="550.00000" pt_clust_6="38.02139"></scales>
<mgrwt>
<rscale>  0 0.30000000E+03</rscale>
<asrwt>  1 0.38021395E+02</asrwt>
<pdfrwt beam="1">  1        1 0.90050237E+00 0.30000000E+03</pdfrwt>
<pdfrwt beam="2">0</pdfrwt>
<totfact> 0.10716448E-04</totfact>
</mgrwt>
<clustering>
<clus scale="   38.021">  1  6  2 -1</clus>
<clus scale="  470.314">  4  5 -1 -1</clus>
<clus scale="  300.000">  1  4  2 -1</clus>
</clustering>
</event>
<event>
 6    1  0.1029244E-011  0.3000000E+03  0.7818608E-02  0.1093470E+00
          1   -1    0    0  502    0  0.00000000000E+00  0.00000000000E+00  0.23933932485E+03  0.23933932485E+03  0.00000000000E+00 0.  1.
         13   -1    0    0    0    0 -0.00000000000E+00 -0.00000000000E+00 -0.27500000000E+03  0.27500000000E+03  0.00000000000E+00 0.  1.
    9000005    2    1    2  501    0  0.34162289652E+02 -0.16404598027E+01 -0.65711267880E+02  0.46881140741E+03  0.46292160443E+03 0.  0.
         13    1    3    3    0    0  0.64759700242E+02  0.91177552357E+02  0.17575361994E+03  0.20831826553E+03  0.00000000000E+00 0.  1.
          3    1    3    3  501    0 -0.30597410589E+02 -0.92818012160E+02 -0.24146488783E+03  0.26049314188E+03  0.00000000000E+00 0.  1.
         21    1    1    2  502  501 -0.34162289652E+02  0.16404598027E+01  0.30050592728E+02  0.45527917435E+02  0.00000000000E+00 0.  1.
<scales pt_clust_4="550.00000" pt_clust_5="550.00000" pt_clust_6="34.20165"></scales>
<mgrwt>
<rscale>  0 0.30000000E+03</rscale>
<asrwt>  1 0.34201654E+02</asrwt>
<pdfrwt beam="1">  1        1 0.87032482E+00 0.30000000E+03</pdfrwt>
<pdfrwt beam="2">0</pdfrwt>
<totfact> 0.25241184E-04</totfact>
</mgrwt>
<clustering>
<clus scale="   34.202">  1  6  2 -1</clus>
<clus scale="  462.922">  4  5 -1 -1</clus>
<clus scale="  300.000">  1  4  2 -1</clus>
</clustering>
</event>
<event>
 6    1  0.1029244E-011  0.3000000E+03  0.7818608E-02  0.1093470E+00
          1   -1    0    0  502    0  0.00000000000E+00  0.00000000000E+00  0.23069534447E+03  0.23069534447E+03  0.00000000000E+00 0.  1.
         13   -1    0    0    0    0 -0.00000000000E+00 -0.00000000000E+00 -0.27500000000E+03  0.27500000000E+03  0.00000000000E+00 0.  1.
    9000005    2    1    2  501    0 -0.29963156299E+02  0.20335269005E+01 -0.43976929361E+02  0.47566147406E+03  0.47267107128E+03 0.  0.
         13    1    3    3    0    0 -0.13161848527E+02  0.22611080787E+03 -0.94381194256E+02  0.24537143583E+03  0.00000000000E+00 0.  1.
          1    1    3    3  501    0 -0.16801307772E+02 -0.22407728097E+03  0.50404264895E+02  0.23029003823E+03  0.00000000000E+00 0.  1.
         21    1    1    2  502  501  0.29963156299E+02 -0.20335269005E+01 -0.32772617069E+00  0.30033870405E+02  0.00000000000E+00 0. -1.
<scales pt_clust_4="550.00000" pt_clust_5="550.00000" pt_clust_6="30.03208"></scales>
<mgrwt>
<rscale>  0 0.30000000E+03</rscale>
<asrwt>  1 0.30032082E+02</asrwt>
<pdfrwt beam="1">  1        1 0.83889216E+00 0.30000000E+03</pdfrwt>
<pdfrwt beam="2">0</pdfrwt>
<totfact> 0.52165246E-04</totfact>
</mgrwt>
<clustering>
<clus scale="   30.032">  1  6  2 -1</clus>
<clus scale="  472.671">  4  5 -1 -1</clus>
<clus scale="  300.000">  1  4  2 -1</clus>
</clustering>
</event>
<event>
 6    1  0.1029244E-011  0.3000000E+03  0.7818608E-02  0.1093470E+00
          1   -1    0    0  502    0  0.00000000000E+00  0.00000000000E+00  0.24270815106E+03  0.24270815106E+03  0.00000000000E+00 0.  1.
         13   -1    0    0    0    0 -0.00000000000E+00 -0.00000000000E+00 -0.27500000000E+03  0.27500000000E+03  0.00000000000E+00 0.  1.
    9000005    2    1    2  501    0 -0.31278021089E+02  0.40111198018E+02 -0.26383256749E+02  0.46650137152E+03  0.46296893047E+03 0.  0.
         13    1    3    3    0    0  0.12952772074E+03 -0.46238157052E+02  0.15634566715E+03  0.20822911719E+03  0.00000000000E+00 0.  1.
          1    1    3    3  501    0 -0.16080574183E+03  0.86349355070E+02 -0.18272892390E+03  0.25827225433E+03  0.00000000000E+00 0.  1.
         21    1    1    2  502  501  0.31278021089E+02 -0.40111198018E+02 -0.59085921897E+01  0.51206779545E+02  0.00000000000E+00 0.  1.
<scales pt_clust_4="550.00000" pt_clust_5="550.00000" pt_clust_6="50.86478"></scales>
<mgrwt>
<rscale>  0 0.30000000E+03</rscale>
<asrwt>  1 0.50864776E+02</asrwt>
<pdfrwt beam="1">  1        1 0.88257509E+00 0.30000000E+03</pdfrwt>
<pdfrwt beam="2">0</pdfrwt>
<totfact> 0.17101293E-04</totfact>
</mgrwt>
<clustering>
<clus scale="   50.865">  1  6  2 -1</clus>
<clus scale="  462.969">  4  5 -1 -1</clus>
<clus scale="  300.000">  1  4  2 -1</clus>
</clustering>
</event>
<event>
 6    1  0.1029244E-011  0.3000000E+03  0.7818608E-02  0.1093470E+00
          1   -1    0    0  502    0  0.00000000000E+00  0.00000000000E+00  0.24608880970E+03  0.24608880970E+03  0.00000000000E+00 0.  1.
         13   -1    0    0    0    0 -0.00000000000E+00 -0.00000000000E+00 -0.27500000000E+03  0.27500000000E+03  0.00000000000E+00 0.  1.
    9000005    2    1    2  501    0  0.47721047521E+02 -0.54754273365E+01 -0.23570460807E+02  0.47275867342E+03  0.46972110661E+03 0.  0.
         13    1    3    3    0    0 -0.36689397214E+02 -0.22796203878E+03  0.16344082131E+02  0.23147339375E+03  0.00000000000E+00 0.  1.
          3    1    3    3  501    0  0.84410444735E+02  0.22248661144E+03 -0.39914542937E+02  0.24128527968E+03  0.00000000000E+00 0.  1.
         21    1    1    2  502  501 -0.47721047521E+02  0.54754273365E+01 -0.53407294951E+01  0.48330136277E+02  0.00000000000E+00 0. -1.
<scales pt_clust_4="550.00000" pt_clust_5="550.00000" pt_clust_6="48.03416"></scales>
<mgrwt>
<rscale>  0 0.30000000E+03</rscale>
<asrwt>  1 0.48034165E+02</asrwt>
<pdfrwt beam="1">  1        1 0.89486840E+00 0.30000000E+03</pdfrwt>
<pdfrwt beam="2">0</pdfrwt>
<totfact> 0.11944915E-04</totfact>
</mgrwt>
<clustering>
<clus scale="   48.034">  1  6  2 -1</clus>
<clus scale="  469.721">  4  5 -1 -1</clus>
<clus scale="  300.000">  1  4  2 -1</clus>
</clustering>
</event>
<event>
 6    1  0.1029244E-011  0.3000000E+03  0.7818608E-02  0.1093470E+00
          1   -1    0    0  502    0  0.00000000000E+00  0.00000000000E+00  0.24005981432E+03  0.24005981432E+03  0.00000000000E+00 0.  1.
         13   -1    0    0    0    0 -0.00000000000E+00 -0.00000000000E+00 -0.27500000000E+03  0.27500000000E+03  0.00000000000E+00 0.  1.
    9000005    2    1    2  501    0  0.13074265502E+02  0.28988633372E+02 -0.40063620490E+02  0.48284915044E+03  0.48013220171E+03 0.  0.
         13    1    3    3    0    0  0.19702616425E+03 -0.12754243456E+03 -0.54259041343E+02  0.24089505097E+03  0.00000000000E+00 0.  1.
          3    1    3    3  501    0 -0.18395189875E+03  0.15653106793E+03  0.14195420853E+02  0.24195409948E+03  0.00000000000E+00 0.  1.
         21    1    1    2  502  501 -0.13074265502E+02 -0.28988633372E+02  0.51234348124E+01  0.32210663878E+02  0.00000000000E+00 0.  1.
<scales pt_clust_4="550.00000" pt_clust_5="550.00000" pt_clust_6="31.80059"></scales>
<mgrwt>
<rscale>  0 0.30000000E+03</rscale>
<asrwt>  1 0.31800586E+02</asrwt>
<pdfrwt beam="1">  1        1 0.87294478E+00 0.30000000E+03</pdfrwt>
<pdfrwt beam="2">0</pdfrwt>
<totfact> 0.24060241E-04</totfact>
</mgrwt>
<clustering>
<clus scale="   31.801">  1  6  2 -1</clus>
<clus scale="  480.132">  4  5 -1 -1</clus>
<clus scale="  300.000">  1  4  2 -1</clus>
</clustering>
</event>
<event>
 6    1  0.1029244E-011  0.3000000E+03  0.7818608E-02  0.1093470E+00
          1   -1    0    0  502    0  0.00000000000E+00  0.00000000000E+00  0.24737447226E+03  0.24737447226E+03  0.00000000000E+00 0.  1.
         13   -1    0    0    0    0 -0.00000000000E+00 -0.00000000000E+00 -0.27500000000E+03  0.27500000000E+03  0.00000000000E+00 0.  1.
    9000005    2    1    2  501    0 -0.18522044201E+00  0.45575625854E+02 -0.60063781827E+02  0.46643332187E+03  0.46029904832E+03 0.  0.
         13    1    3    3    0    0 -0.56257918450E+02  0.22863139259E+03 -0.12204079446E+03  0.26520034423E+03  0.00000000000E+00 0.  1.
          1    1    3    3  501    0  0.56072698008E+02 -0.18305576674E+03  0.61977012631E+02  0.20123297764E+03  0.00000000000E+00 0.  1.
         21    1    1    2  502  501  0.18522044201E+00 -0.45575625854E+02  0.32438254083E+02  0.55941150386E+02  0.00000000000E+00 0. -1.
<scales pt_clust_4="550.00000" pt_clust_5="550.00000" pt_clust_6="45.57600"></scales>
<mgrwt>
<rscale>  0 0.30000000E+03</rscale>
<asrwt>  1 0.45576002E+02</asrwt>
<pdfrwt beam="1">  1        1 0.89954354E+00 0.30000000E+03</pdfrwt>
<pdfrwt beam="2">0</pdfrwt>
<totfact> 0.10662419E-04</totfact>
</mgrwt>
<clustering>
<clus scale="   45.576">  1  6  2 -1</clus>
<clus scale="  460.299">  4  5 -1 -1</clus>
<clus scale="  300.000">  1  4  2 -1</clus>
</clustering>
</event>
<event>
 6    1  0.1029244E-011  0.3000000E+03  0.7818608E-02  0.1093470E+00
          1   -1    0    0  502    0  0.00000000000E+00  0.00000000000E+00  0.22974630832E+03  0.22974630832E+03  0.00000000000E+00 0.  1.
         13   -1    0    0    0    0 -0.00000000000E+00 -0.00000000000E+00 -0.27500000000E+03  0.27500000000E+03  0.00000000000E+00 0.  1.
    9000005    2    1    2  501    0  0.28587223431E+02  0.16221510943E+02 -0.59844771450E+02  0.46878429545E+03  0.46378545927E+03 0.  0.
         13    1    3    3    0    0  0.16612468409E+02  0.22674328097E+03  0.47365024785E+02  0.23223250234E+03  0.00000000000E+00 0.  1.
          1    1    3    3  501    0  0.11974755022E+02 -0.21052177003E+03 -0.10720979623E+03  0.23655179311E+03  0.00000000000E+00 0.  1.
         21    1    1    2  502  501 -0.28587223431E+02 -0.16221510943E+02  0.14591079768E+02  0.35962012869E+02  0.00000000000E+00 0. -1.
<scales pt_clust_4="550.00000" pt_clust_5="550.00000" pt_clust_6="32.86893"></scales>
<mgrwt>
<rscale>  0 0.30000000E+03</rscale>
<asrwt>  1 0.32868933E+02</asrwt>
<pdfrwt beam="1">  1        1 0.83544112E+00 0.30000000E+03</pdfrwt>
<pdfrwt beam="2">0</pdfrwt>
<totfact> 0.54338496E-04</totfact>
</mgrwt>
<clustering>
<clus scale="   32.869">  1  6  2 -1</clus>
<clus scale="  463.785">  4  5 -1 -1</clus>
<clus scale="  300.000">  1  4  2 -1</clus>
</clustering>
</event>
<event>
 6    1  0.1029244E-011  0.3000000E+03  0.7818608E-02  0.1093470E+00
          1   -1    0    0  502    0  0.00000000000E+00  0.00000000000E+00  0.23576428575E+03  0.23576428575E+03  0.00000000000E+00 0.  1.
         13   -1    0    0    0    0 -0.00000000000E+00 -0.00000000000E+00 -0.27500000000E+03  0.27500000000E+03  0.00000000000E+00 0.  1.
    9000005    2    1    2  501    0 -0.22243203861E+02 -0.24855012454E+02 -0.46472328147E+02  0.47663364933E+03  0.47318857406E+03 0.  0.
         13    1    3    3    0    0 -0.23891566742E+03 -0.15239873425E+02 -0.89384258033E+02  0.25554352949E+03  0.00000000000E+00 0.  1.
          1    1    3    3  501    0  0.21667246356E+03 -0.96151390292E+01  0.42911929886E+02  0.22109011984E+03  0.00000000000E+00 0.  1.
         21    1    1    2  502  501  0.22243203861E+02  0.24855012454E+02  0.72366138989E+01  0.34130636426E+02  0.00000000000E+00 0.  1.
<scales pt_clust_4="550.00000" pt_clust_5="550.00000" pt_clust_6="33.35464"></scales>
<mgrwt>
<rscale>  0 0.30000000E+03</rscale>
<asrwt>  1 0.33354636E+02</asrwt>
<pdfrwt beam="1">  1        1 0.85732468E+00 0.30000000E+03</pdfrwt>
<pdfrwt beam="2">0</pdfrwt>
<totfact> 0.34824117E-04</totfact>
</mgrwt>
<clustering>
<clus scale="   33.355">  1  6  2 -1</clus>
<clus scale="  473.189">  4  5 -1 -1</clus>
<clus scale="  300.000">  1  4  2 -1</clus>
</clustering>
</event>
<event>
 6    1  0.1029244E-011  0.3000000E+03  0.7818608E-02  0.1093470E+00
          1   -1    0    0  502    0  0.00000000000E+00  0.00000000000E+00  0.24397798806E+03  0.24397798806E+03  0.00000000000E+00 0.  1.
         13   -1    0    0    0    0 -0.00000000000E+00 -0.00000000000E+00 -0.27500000000E+03  0.27500000000E+03  0.00000000000E+00 0.  1.
    9000005    2    1    2  501    0  0.17539898566E+02 -0.30058467697E+02 -0.64677310661E+02  0.47056478063E+03  0.46479769656E+03 0.  0.
         13    1    3    3    0    0  0.11886060925E+03  0.93894749348E+02 -0.20690003406E+03  0.25642092832E+03  0.00000000000E+00 0.  1.
          1    1    3    3  501    0 -0.10132071069E+03 -0.12395321705E+03  0.14222272340E+03  0.21414385231E+03  0.00000000000E+00 0.  1.
         21    1    1    2  502  501 -0.17539898566E+02  0.30058467697E+02  0.33655298717E+02  0.48413207431E+02  0.00000000000E+00 0. -1.
<scales pt_clust_4="550.00000" pt_clust_5="550.00000" pt_clust_6="34.80172"></scales>
<mgrwt>
<rscale>  0 0.30000000E+03</rscale>
<asrwt>  1 0.34801717E+02</asrwt>
<pdfrwt beam="1">  1        1 0.88719268E+00 0.30000000E+03</pdfrwt>
<pdfrwt beam="2">0</pdfrwt>
<totfact> 0.15846727E-04</totfact>
</mgrwt>
<clustering>
<clus scale="   34.802">  1  6  2 -1</clus>
<clus scale="  464.798">  4  5 -1 -1</clus>
<clus scale="  300.000">  1  4  2 -1</clus>
</clustering>
</event>
<event>
 6    1  0.1029244E-011  0.3000000E+03  0.7818608E-02  0.1093470E+00
          1   -1    0    0  502    0  0.00000000000E+00  0.00000000000E+00  0.24242748119E+03  0.24242748119E+03  0.00000000000E+00 0.  1.
         13   -1    0    0    0    0 -0.00000000000E+00 -0.00000000000E+00 -0.27500000000E+03  0.27500000000E+03  0.00000000000E+00 0.  1.
    9000005    2    1    2  501    0  0.31360313476E+02 -0.39263304815E+01 -0.51610036689E+02  0.48053151367E+03  0.47670541681E+03 0.  0.
         13    1    3    3    0    0  0.24556059225E+03 -0.66561652241E+02 -0.33695724771E+02  0.25664344894E+03  0.00000000000E+00 0.  1.
          3    1    3    3  501    0 -0.21420027877E+03  0.62635321760E+02 -0.17914311918E+02  0.22388806473E+03  0.00000000000E+00 0.  1.
         21    1    1    2  502  501 -0.31360313476E+02  0.39263304815E+01  0.19037517884E+02  0.36895967524E+02  0.00000000000E+00 0. -1.
<scales pt_clust_4="550.00000" pt_clust_5="550.00000" pt_clust_6="31.60515"></scales>
<mgrwt>
<rscale>  0 0.30000000E+03</rscale>
<asrwt>  1 0.31605147E+02</asrwt>
<pdfrwt beam="1">  1        1 0.88155448E+00 0.30000000E+03</pdfrwt>
<pdfrwt beam="2">0</pdfrwt>
<totfact> 0.19233506E-04</totfact>
</mgrwt>
<clustering>
<clus scale="   31.605">  1  6  2 -1</clus>
<clus scale="  476.705">  4  5 -1 -1</clus>
<clus scale="  300.000">  1  4  2 -1</clus>
</clustering>
</event>
<event>
 6    1  0.1029244E-011  0.3000000E+03  0.7818608E-02  0.1093470E+00
          1   -1    0    0  502    0  0.00000000000E+00  0.00000000000E+00  0.23520955157E+03  0.23520955157E+03  0.00000000000E+00 0.  1.
         13   -1    0    0    0    0 -0.00000000000E+00 -0.00000000000E+00 -0.27500000000E+03  0.27500000000E+03  0.00000000000E+00 0.  1.
    9000005    2    1    2  501    0  0.89513877094E+00 -0.35779586920E+02 -0.47824672126E+02  0.47352810035E+03  0.46974533786E+03 0.  0.
         13    1    3    3    0    0  0.50269316425E+01  0.20584193554E+03  0.51514877543E+02  0.21224974694E+03  0.00000000000E+00 0.  1.
          1    1    3    3  501    0 -0.41317928716E+01 -0.24162152246E+03 -0.99339549669E+02  0.26127835340E+03  0.00000000000E+00 0.  1.
         21    1    1    2  502  501 -0.89513877094E+00  0.35779586920E+02  0.80342236975E+01  0.36681451225E+02  0.00000000000E+00 0. -1.
<scales pt_clust_4="550.00000" pt_clust_5="550.00000" pt_clust_6="35.79078"></scales>
<mgrwt>
<rscale>  0 0.30000000E+03</rscale>
<asrwt>  1 0.35790783E+02</asrwt>
<pdfrwt beam="1">  1        1 0.85530746E+00 0.30000000E+03</pdfrwt>
<pdfrwt beam="2">0</pdfrwt>
<totfact> 0.36027499E-04</totfact>
</mgrwt>
<clustering>
<clus scale="   35.791">  1  6  2 -1</clus>
<clus scale="  469.745">  4  5 -1 -1</clus>
<clus scale="  300.000">  1  4  2 -1</clus>
</clustering>
</event>
<event>
 6    1  0.1029244E-011  0.3000000E+03  0.7818608E-02  0.1093470E+00
          1   -1    0    0  502    0  0.00000000000E+00  0.00000000000E+00  0.24212179052E+03  0.24212179052E+03  0.00000000000E+00 0.  1.
         13   -1    0    0    0    0 -0.00000000000E+00 -0.00000000000E+00 -0.27500000000E+03  0.27500000000E+03  0.00000000000E+00 0.  1.
    9000005    2    1    2  501    0  0.34312059262E+02 -0.12526520032E+02 -0.14815827682E+02  0.47637279358E+03  0.47473919009E+03 0.  0.
         13    1    3    3    0    0 -0.21354628674E+03  0.29565399297E+02 -0.53205326770E+02  0.22205165212E+03  0.00000000000E+00 0.  1.
          1    1    3    3  501    0  0.24785834600E+03 -0.42091919329E+02  0.38389499088E+02  0.25432114146E+03  0.00000000000E+00 0.  1.
         21    1    1    2  502  501 -0.34312059262E+02  0.12526520032E+02 -0.18062381799E+02  0.40748996934E+02  0.00000000000E+00 0. -1.
<scales pt_clust_4="550.00000" pt_clust_5="550.00000" pt_clust_6="36.52715"></scales>
<mgrwt>
<rscale>  0 0.30000000E+03</rscale>
<asrwt>  1 0.36527147E+02</asrwt>
<pdfrwt beam="1">  1        1 0.88044287E+00 0.30000000E+03</pdfrwt>
<pdfrwt beam="2">0</pdfrwt>
<totfact> 0.19335071E-04</totfact>
</mgrwt>
<clustering>
<clus scale="   36.527">  1  6  2 -1</clus>
<clus scale="  474.739">  4  5 -1 -1</clus>
<clus scale="  300.000">  1  4  2 -1</clus>
</clustering>
</event>
<event>
 6    1  0.1029244E-011  0.3000000E+03  0.7818608E-02  0.1093470E+00
          1   -1    0    0  502    0  0.00000000000E+00  0.00000000000E+00  0.22874733214E+03  0.22874733214E+03  0.00000000000E+00 0.  1.
         13   -1    0    0    0    0 -0.00000000000E+00 -0.00000000000E+00 -0.27500000000E+03  0.27500000000E+03  0.00000000000E+00 0.  1.
    9000005    2    1    2  501    0 -0.16075760594E+02 -0.29253485470E+02 -0.68413603431E+02  0.46368109253E+03  0.45738991894E+03 0.  0.
         13    1    3    3    0    0  0.85690547127E+02 -0.17755321560E+03 -0.16717853834E+03  0.25848922205E+03  0.00000000000E+00 0.  1.
          1    1    3    3  501    0 -0.10176630772E+03  0.14829973013E+03  0.98764934909E+02  0.20519187048E+03  0.00000000000E+00 0.  1.
         21    1    1    2  502  501  0.16075760594E+02  0.29253485470E+02  0.22160935571E+02  0.40066239607E+02  0.00000000000E+00 0.  1.
<scales pt_clust_4="550.00000" pt_clust_5="550.00000" pt_clust_6="33.37958"></scales>
<mgrwt>
<rscale>  0 0.30000000E+03</rscale>
<asrwt>  1 0.33379582E+02</asrwt>
<pdfrwt beam="1">  1        1 0.83180848E+00 0.30000000E+03</pdfrwt>
<pdfrwt beam="2">0</pdfrwt>
<totfact> 0.57675029E-04</totfact>
</mgrwt>
<clustering>
<clus scale="   33.380">  1  6  2 -1</clus>
<clus scale="  457.390">  4  5 -1 -1</clus>
<clus scale="  300.000">  1  4  2 -1</clus>
</clustering>
</event>
<event>
 6    1  0.1029244E-011  0.3000000E+03  0.7818608E-02  0.1093470E+00
          1   -1    0    0  502    0  0.00000000000E+00  0.00000000000E+00  0.24383786773E+03  0.24383786773E+03  0.00000000000E+00 0.  1.
         13   -1    0    0    0    0 -0.00000000000E+00 -0.00000000000E+00 -0.27500000000E+03  0.27500000000E+03  0.00000000000E+00 0.  1.
    9000005    2    1    2  501    0 -0.43750053715E+02  0.87066056260E+01 -0.42258293441E+02  0.47287052091E+03  0.46886127372E+03 0.  0.
         13    1    3    3    0    0 -0.12560347190E+03  0.19971047088E+03  0.56797248383E+02  0.24266526689E+03  0.00000000000E+00 0.  1.
          3    1    3    3  501    0  0.81853418182E+02 -0.19100386525E+03 -0.99055541824E+02  0.23020525402E+03  0.00000000000E+00 0.  1.
         21    1    1    2  502  501  0.43750053715E+02 -0.87066056260E+01  0.11096161176E+02  0.45967346828E+02  0.00000000000E+00 0. -1.
<scales pt_clust_4="550.00000" pt_clust_5="550.00000" pt_clust_6="44.60798"></scales>
<mgrwt>
<rscale>  0 0.30000000E+03</rscale>
<asrwt>  1 0.44607983E+02</asrwt>
<pdfrwt beam="1">  1        1 0.88668316E+00 0.30000000E+03</pdfrwt>
<pdfrwt beam="2">0</pdfrwt>
<totfact> 0.15390252E-04</totfact>
</mgrwt>
<clustering>
<clus scale="   44.608">  1  6  2 -1</clus>
<clus scale="  468.861">  4  5 -1 -1</clus>
<clus scale="  300.000">  1  4  2 -1</clus>
</clustering>
</event>
<event>
 6    1  0.1029244E-011  0.3000000E+03  0.7818608E-02  0.1093470E+00
          1   -1    0    0  502    0  0.00000000000E+00  0.00000000000E+00  0.25335086912E+03  0.25335086912E+03  0.00000000000E+00 0.  1.
         13   -1    0    0    0    0 -0.00000000000E+00 -0.00000000000E+00 -0.27500000000E+03  0.27500000000E+03  0.00000000000E+00 0.  1.
    9000005    2    1    2  501    0 -0.19419143428E+02 -0.37206611616E+02 -0.45337035530E+02  0.48015800755E+03  0.47616680937E+03 0.  0.
         13    1    3    3    0    0 -0.10199340633E+03 -0.15096045172E+03 -0.20042087464E+03  0.27085095515E+03  0.00000000000E+00 0.  1.
          1    1    3    3  501    0  0.82574262905E+02  0.11375384010E+03  0.15508383911E+03  0.20930705240E+03  0.00000000000E+00 0.  1.
         21    1    1    2  502  501  0.19419143428E+02  0.37206611616E+02  0.23687904649E+02  0.48192861568E+02  0.00000000000E+00 0.  1.
<scales pt_clust_4="550.00000" pt_clust_5="550.00000" pt_clust_6="41.96945"></scales>
<mgrwt>
<rscale>  0 0.30000000E+03</rscale>
<asrwt>  1 0.41969454E+02</asrwt>
<pdfrwt beam="1">  1        1 0.92127589E+00 0.30000000E+03</pdfrwt>
<pdfrwt beam="2">0</pdfrwt>
<totfact> 0.37950335E-05</totfact>
</mgrwt>
<clustering>
<clus scale="   41.969">  1  6  2 -1</clus>
<clus scale="  476.167">  4  5 -1 -1</clus>
<clus scale="  300.000">  1  4  2 -1</clus>
</clustering>
</event>
<event>
 6    1  0.1029244E-011  0.3000000E+03  0.7818608E-02  0.1093470E+00
          1   -1    0    0  502    0  0.00000000000E+00  0.00000000000E+00  0.23762940101E+03  0.23762940101E+03  0.00000000000E+00 0.  1.
         13   -1    0    0    0    0 -0.00000000000E+00 -0.00000000000E+00 -0.27500000000E+03  0.27500000000E+03  0.00000000000E+00 0.  1.
    9000005    2    1    2  501    0  0.16025221736E+02  0.35549773653E+02 -0.64709419034E+02  0.46500582261E+03  0.45882732265E+03 0.  0.
         13    1    3    3    0    0  0.11284169719E+03  0.49030017207E+02  0.17052153615E+03  0.21027312121E+03  0.00000000000E+00 0.  1.
          1    1    3    3  501    0 -0.96816475451E+02 -0.13480243554E+02 -0.23523095518E+03  0.25473270140E+03  0.00000000000E+00 0.  1.
         21    1    1    2  502  501 -0.16025221736E+02 -0.35549773653E+02  0.27338820042E+02  0.47623578402E+02  0.00000000000E+00 0.  1.
<scales pt_clust_4="550.00000" pt_clust_5="550.00000" pt_clust_6="38.99480"></scales>
<mgrwt>
<rscale>  0 0.30000000E+03</rscale>
<asrwt>  1 0.38994796E+02</asrwt>
<pdfrwt beam="1">  1        1 0.86410691E+00 0.30000000E+03</pdfrwt>
<pdfrwt beam="2">0</pdfrwt>
<totfact> 0.28632036E-04</totfact>
</mgrwt>
<clustering>
<clus scale="   38.995">  1  6  2 -1</clus>
<clus scale="  458.827">  4  5 -1 -1</clus>
<clus scale="  300.000">  1  4  2 -1</clus>
</clustering>
</event>
<event>
 6    1  0.1029244E-011  0.3000000E+03  0.7818608E-02  0.1093470E+00
          1   -1    0    0  502    0  0.00000000000E+00  0.00000000000E+00  0.25712401432E+03  0.25712401432E+03  0.00000000000E+00 0.  1.
         13   -1    0    0    0    0 -0.00000000000E+00 -0.00000000000E+00 -0.27500000000E+03  0.27500000000E+03  0.00000000000E+00 0.  1.
    9000005    2    1    2  501    0  0.17045551790E+02  0.25998741656E+02 -0.53994685661E+02  0.48446852259E+03  0.48044545778E+03 0.  0.
         13    1    3    3    0    0 -0.49672839051E+02 -0.72789149561E+02  0.19191967179E+03  0.21118430730E+03  0.00000000000E+00 0.  1.
          3    1    3    3  501    0  0.66718390841E+02  0.98787891217E+02 -0.24591435745E+03  0.27328421529E+03  0.00000000000E+00 0.  1.
         21    1    1    2  502  501 -0.17045551790E+02 -0.25998741656E+02  0.36118699981E+02  0.47655491728E+02  0.00000000000E+00 0. -1.
<scales pt_clust_4="550.00000" pt_clust_5="550.00000" pt_clust_6="31.08835"></scales>
<mgrwt>
<rscale>  0 0.30000000E+03</rscale>
<asrwt>  1 0.31088348E+02</asrwt>
<pdfrwt beam="1">  1        1 0.93499642E+00 0.30000000E+03</pdfrwt>
<pdfrwt beam="2">0</pdfrwt>
<totfact> 0.23038156E-05</totfact>
</mgrwt>
<clustering>
<clus scale="   31.088">  1  6  2 -1</clus>
<clus scale="  480.445">  4  5 -1 -1</clus>
<clus scale="  300.000">  1  4  2 -1</clus>
</clustering>
</event>
<event>
 6    1  0.1029244E-011  0.3000000E+03  0.7818608E-02  0.1093470E+00
          1   -1    0    0  502    0  0.00000000000E+00  0.00000000000E+00  0.22357068628E+03  0.22357068628E+03  0.00000000000E+00 0.  1.
         13   -1    0    0    0    0 -0.00000000000E+00 -0.00000000000E+00 -0.27500000000E+03  0.27500000000E+03  0.00000000000E+00 0.  1.
    9000005    2    1    2  501    0 -0.31422260571E+02  0.14499621104E+02 -0.37135256458E+02  0.46112849691E+03  0.45832615670E+03 0.  0.
         13    1    3    3    0    0 -0.16042641712E+03  0.14747703897E+03 -0.13014889941E+03  0.25382050419E+03  0.00000000000E+00 0.  1.
          3    1    3    3  501    0  0.12900415654E+03 -0.13297741786E+03  0.93013642954E+02  0.20730799271E+03  0.00000000000E+00 0.  1.
         21    1    1    2  502  501  0.31422260571E+02 -0.14499621104E+02 -0.14294057266E+02  0.37442189368E+02  0.00000000000E+00 0.  1.
<scales pt_clust_4="550.00000" pt_clust_5="550.00000" pt_clust_6="34.60634"></scales>
<mgrwt>
<rscale>  0 0.30000000E+03</rscale>
<asrwt>  1 0.34606339E+02</asrwt>
<pdfrwt beam="1">  1        1 0.81298431E+00 0.30000000E+03</pdfrwt>
<pdfrwt beam="2">0</pdfrwt>
<totfact> 0.82797128E-04</totfact>
</mgrwt>
<clustering>
<clus scale="   34.606">  1  6  2 -1</clus>
<clus scale="  458.326">  4  5 -1 -1</clus>
<clus scale="  300.000">  1  4  2 -1</clus>
</clustering>
</event>
<event>
 6    1  0.1029244E-011  0.3000000E+03  0.7818608E-02  0.1093470E+00
          1   -1    0    0  502    0  0.00000000000E+00  0.00000000000E+00  0.23272846441E+03  0.23272846441E+03  0.00000000000E+00 0.  1.
         13   -1    0    0    0    0 -0.00000000000E+00 -0.00000000000E+00 -0.27500000000E+03  0.27500000000E+03  0.00000000000E+00 0.  1.
    9000005    2    1    2  501    0  0.22212792752E+02 -0.29915793600E+02 -0.65965421858E+02  0.46357234236E+03  0.45733960778E+03 0.  0.
         13    1    3    3    0    0  0.24252000025E+02 -0.10559031118E+03  0.17786375575E+03  0.20826182783E+03  0.00000000000E+00 0.  1.
          1    1    3    3  501    0 -0.20392072732E+01  0.75674517579E+02 -0.24382917761E+03  0.25531051453E+03  0.00000000000E+00 0.  1.
         21    1    1    2  502  501 -0.22212792752E+02  0.29915793600E+02  0.23693886271E+02  0.44156122058E+02  0.00000000000E+00 0.  1.
<scales pt_clust_4="550.00000" pt_clust_5="550.00000" pt_clust_6="37.26074"></scales>
<mgrwt>
<rscale>  0 0.30000000E+03</rscale>
<asrwt>  1 0.37260742E+02</asrwt>
<pdfrwt beam="1">  1        1 0.84628533E+00 0.30000000E+03</pdfrwt>
<pdfrwt beam="2">0</pdfrwt>
<totfact> 0.43507318E-04</totfact>
</mgrwt>
<clustering>
<clus scale="   37.261">  1  6  2 -1</clus>
<clus scale="  457.340">  4  5 -1 -1</clus>
<clus scale="  300.000">  1  4  2 -1</clus>
</clustering>
</event>
<event>
 6    1  0.1029244E-011  0.3000000E+03  0.7818608E-02  0.1093470E+00
          1   -1    0    0  502    0  0.00000000000E+00  0.00000000000E+00  0.24380000308E+03  0.24380000308E+03  0.00000000000E+00 0.  1.
         13   -1    0    0    0    0 -0.00000000000E+00 -0.00000000000E+00 -0.27500000000E+03  0.27500000000E+03  0.00000000000E+00 0.  1.
    9000005    2    1    2  501    0 -0.33390529380E+02  0.13410243520E+02 -0.17548434662E+02  0.48031458720E+03  0.47864328370E+03 0.  0.
         13    1    3    3    0    0 -0.18025711474E+03 -0.37524587329E+02  0.16028723676E+03  0.24411620253E+03  0.00000000000E+00 0.  1.
          3    1    3    3  501    0  0.14686658536E+03  0.50934830849E+02 -0.17783567143E+03  0.23619838467E+03  0.00000000000E+00 0.  1.
         21    1    1    2  502  501  0.33390529380E+02 -0.13410243520E+02 -0.13651562255E+02  0.38485415882E+02  0.00000000000E+00 0.  1.
<scales pt_clust_4="550.00000" pt_clust_5="550.00000" pt_clust_6="35.98282"></scales>
<mgrwt>
<rscale>  0 0.30000000E+03</rscale>
<asrwt>  1 0.35982821E+02</asrwt>
<pdfrwt beam="1">  1        1 0.88654547E+00 0.30000000E+03</pdfrwt>
<pdfrwt beam="2">0</pdfrwt>
<totfact> 0.16075864E-04</totfact>
</mgrwt>
<clustering>
<clus scale="   35.983">  1  6  2 -1</clus>
<clus scale="  478.643">  4  5 -1 -1</clus>
<clus scale="  300.000">  1  4  2 -1</clus>
</clustering>
</event>
<event>
 6    1  0.1029244E-011  0.3000000E+03  0.7818608E-02  0.1093470E+00
          1   -1    0    0  502    0  0.00000000000E+00  0.00000000000E+00  0.25715268094E+03  0.25715268094E+03  0.00000000000E+00 0.  1.
         13   -1    0    0    0    0 -0.00000000000E+00 -0.00000000000E+00 -0.27500000000E+03  0.27500000000E+03  0.00000000000E+00 0.  1.
    9000005    2    1    2  501    0 -0.22902190517E+02 -0.31469413863E+02 -0.47553459372E+02  0.48319056179E+03  0.47926710002E+03 0.  0.
         13    1    3    3    0    0  0.11695390485E+03  0.15751243913E+03 -0.12852249668E+03  0.23453446760E+03  0.00000000000E+00 0.  1.
          3    1    3    3  501    0 -0.13985609537E+03 -0.18898185299E+03  0.80969037313E+02  0.24865609419E+03  0.00000000000E+00 0.  1.
         21    1    1    2  502  501  0.22902190517E+02  0.31469413863E+02  0.29706140311E+02  0.48962119149E+02  0.00000000000E+00 0.  1.
<scales pt_clust_4="550.00000" pt_clust_5="550.00000" pt_clust_6="38.92087"></scales>
<mgrwt>
<rscale>  0 0.30000000E+03</rscale>
<asrwt>  1 0.38920873E+02</asrwt>
<pdfrwt beam="1">  1        1 0.93510066E+00 0.30000000E+03</pdfrwt>
<pdfrwt beam="2">0</pdfrwt>
<totfact> 0.22024414E-05</totfact>
</mgrwt>
<clustering>
<clus scale="   38.921">  1  6  2 -1</clus>
<clus scale="  479.267">  4  5 -1 -1</clus>
<clus scale="  300.000">  1  4  2 -1</clus>
</clustering>
</event>
<event>
 6    1  0.1029244E-011  0.3000000E+03  0.7818608E-02  0.1093470E+00
          1   -1    0    0  502    0  0.00000000000E+00  0.00000000000E+00  0.22677808583E+03  0.22677808583E+03  0.00000000000E+00 0.  1.
         13   -1    0    0    0    0 -0.00000000000E+00 -0.00000000000E+00 -0.27500000000E+03  0.27500000000E+03  0.00000000000E+00 0.  1.
    9000005    2    1    2  501    0 -0.17351242233E+02 -0.24904279907E+02 -0.65264227495E+02  0.46696818482E+03  0.46138766507E+03 0.  0.
         13    1    3    3    0    0 -0.40048200499E+02 -0.20450264922E+03 -0.15992945492E+03  0.26268350244E+03  0.00000000000E+00 0.  1.
          3    1    3    3  501    0  0.22696958266E+02  0.17959836932E+03  0.94665227421E+02  0.20428468239E+03  0.00000000000E+00 0.  1.
         21    1    1    2  502  501  0.17351242233E+02  0.24904279907E+02  0.17042313328E+02  0.34809901009E+02  0.00000000000E+00 0. -1.
<scales pt_clust_4="550.00000" pt_clust_5="550.00000" pt_clust_6="30.35274"></scales>
<mgrwt>
<rscale>  0 0.30000000E+03</rscale>
<asrwt>  1 0.30352739E+02</asrwt>
<pdfrwt beam="1">  1        1 0.82464758E+00 0.30000000E+03</pdfrwt>
<pdfrwt beam="2">0</pdfrwt>
<totfact> 0.67593208E-04</totfact>
</mgrwt>
<clustering>
<clus scale="   30.353">  1  6  2 -1</clus>
<clus scale="  461.388">  4  5 -1 -1</clus>
<clus scale="  300.000">  1  4  2 -1</clus>
</clustering>
</event>
<event>
 6    1  0.1029244E-011  0.3000000E+03  0.7818608E-02  0.1093470E+00
          1   -1    0    0  502    0  0.00000000000E+00  0.00000000000E+00  0.24019068589E+03  0.24019068589E+03  0.00000000000E+00 0.  1.
         13   -1    0    0    0    0 -0.00000000000E+00 -0.00000000000E+00 -0.27500000000E+03  0.27500000000E+03  0.00000000000E+00 0.  1.
    9000005    2    1    2  501    0  0.22478405457E+02  0.28911298714E+02 -0.29569647331E+02  0.47819614558E+03  0.47587398300E+03 0.  0.
         13    1    3    3    0    0 -0.11140647872E+03 -0.15428046070E+03 -0.12958385310E+03  0.23022996989E+03  0.00000000000E+00 0.  1.
          1    1    3    3  501    0  0.13388488417E+03  0.18319175941E+03  0.10001420577E+03  0.24796617568E+03  0.00000000000E+00 0.  1.
         21    1    1    2  502  501 -0.22478405457E+02 -0.28911298714E+02 -0.52396667774E+01  0.36994540316E+02  0.00000000000E+00 0.  1.
<scales pt_clust_4="550.00000" pt_clust_5="550.00000" pt_clust_6="36.62162"></scales>
<mgrwt>
<rscale>  0 0.30000000E+03</rscale>
<asrwt>  1 0.36621623E+02</asrwt>
<pdfrwt beam="1">  1        1 0.87342068E+00 0.30000000E+03</pdfrwt>
<pdfrwt beam="2">0</pdfrwt>
<totfact> 0.23167229E-04</totfact>
</mgrwt>
<clustering>
<clus scale="   36.622">  1  6  2 -1</clus>
<clus scale="  475.874">  4  5 -1 -1</clus>
<clus scale="  300.000">  1  4  2 -1</clus>
</clustering>
</event>
<event>
 6    1  0.1029244E-011  0.3000000E+03  0.7818608E-02  0.1093470E+00
          1   -1    0    0  502    0  0.00000000000E+00  0.00000000000E+00  0.23290719884E+03  0.23290719884E+03  0.00000000000E+00 0.  1.
         13   -1    0    0    0    0 -0.00000000000E+00 -0.00000000000E+00 -0.27500000000E+03  0.27500000000E+03  0.00000000000E+00 0.  1.
    9000005    2    1    2  501    0 -0.33913050170E+02 -0.29475500771E+02 -0.34194002703E+02  0.46228602904E+03  0.45882484970E+03 0.  0.
         13    1    3    3    0    0 -0.22808571112E+03  0.72740509313E+02 -0.40275105519E+02  0.24276811454E+03  0.00000000000E+00 0.  1.
          1    1    3    3  501    0  0.19417266095E+03 -0.10221601008E+03  0.60811028165E+01  0.21951791450E+03  0.00000000000E+00 0.  1.
         21    1    1    2  502  501  0.33913050170E+02  0.29475500771E+02 -0.78987984530E+01  0.45621169807E+02  0.00000000000E+00 0.  1.
<scales pt_clust_4="550.00000" pt_clust_5="550.00000" pt_clust_6="44.93219"></scales>
<mgrwt>
<rscale>  0 0.30000000E+03</rscale>
<asrwt>  1 0.44932195E+02</asrwt>
<pdfrwt beam="1">  1        1 0.84693527E+00 0.30000000E+03</pdfrwt>
<pdfrwt beam="2">0</pdfrwt>
<totfact> 0.41491308E-04</totfact>
</mgrwt>
<clustering>
<clus scale="   44.932">  1  6  2 -1</clus>
<clus scale="  458.825">  4  5 -1 -1</clus>
<clus scale="  300.000">  1  4  2 -1</clus>
</clustering>
</event>
<event>
 6    1  0.1029244E-011  0.3000000E+03  0.7818608E-02  0.1093470E+00
          1   -1    0    0  502    0  0.00000000000E+00  0.00000000000E+00  0.25338651482E+03  0.25338651482E+03  0.00000000000E+00 0.  1.
         13   -1    0    0    0    0 -0.00000000000E+00 -0.00000000000E+00 -0.27500000000E+03  0.27500000000E+03  0.00000000000E+00 0.  1.
    9000005    2    1    2  501    0  0.42852600971E+02 -0.16239167910E+02 -0.18585955489E+02  0.48246024869E+03  0.47991915761E+03 0.  0.
         13    1    3    3    0    0  0.23247323610E+03 -0.11386162072E+03 -0.58734858136E+02  0.26543936734E+03  0.00000000000E+00 0.  1.
          1    1    3    3  501    0 -0.18962063513E+03  0.97622452807E+02  0.40148902647E+02  0.21702088135E+03  0.00000000000E+00 0.  1.
         21    1    1    2  502  501 -0.42852600971E+02  0.16239167910E+02 -0.30275296951E+01  0.45926266127E+02  0.00000000000E+00 0.  1.
<scales pt_clust_4="550.00000" pt_clust_5="550.00000" pt_clust_6="45.82639"></scales>
<mgrwt>
<rscale>  0 0.30000000E+03</rscale>
<asrwt>  1 0.45826391E+02</asrwt>
<pdfrwt beam="1">  1        1 0.92140551E+00 0.30000000E+03</pdfrwt>
<pdfrwt beam="2">0</pdfrwt>
<totfact> 0.37119135E-05</totfact>
</mgrwt>
<clustering>
<clus scale="   45.826">  1  6  2 -1</clus>
<clus scale="  479.919">  4  5 -1 -1</clus>
<clus scale="  300.000">  1  4  2 -1</clus>
</clustering>
</event>
<event>
 6    1  0.1029244E-011  0.3000000E+03  0.7818608E-02  0.1093470E+00
          1   -1    0    0  502    0  0.00000000000E+00  0.00000000000E+00  0.22782764570E+03  0.22782764570E+03  0.00000000000E+00 0.  1.
         13   -1    0    0    0    0 -0.00000000000E+00 -0.00000000000E+00 -0.27500000000E+03  0.27500000000E+03  0.00000000000E+00 0.  1.
    9000005    2    1    2  501    0 -0.22526138209E+02  0.20507317946E+02 -0.42159402088E+02  0.47195521979E+03  0.46908031008E+03 0.  0.
         13    1    3    3    0    0  0.10192984073E+02  0.24153893274E+03 -0.55761547262E+02  0.24810139682E+03  0.00000000000E+00 0.  1.
          3    1    3    3  501    0 -0.32719122282E+02 -0.22103161479E+03  0.13602145174E+02  0.22385382296E+03  0.00000000000E+00 0.  1.
         21    1    1    2  502  501  0.22526138209E+02 -0.20507317946E+02 -0.50129522120E+01  0.30872425914E+02  0.00000000000E+00 0. -1.
<scales pt_clust_4="550.00000" pt_clust_5="550.00000" pt_clust_6="30.46273"></scales>
<mgrwt>
<rscale>  0 0.30000000E+03</rscale>
<asrwt>  1 0.30462730E+02</asrwt>
<pdfrwt beam="1">  1        1 0.82846417E+00 0.30000000E+03</pdfrwt>
<pdfrwt beam="2">0</pdfrwt>
<totfact> 0.62513916E-04</totfact>
</mgrwt>
<clustering>
<clus scale="   30.463">  1  6  2 -1</clus>
<clus scale="  469.080">  4  5 -1 -1</clus>
<clus scale="  300.000">  1  4  2 -1</clus>
</clustering>
</event>
<event>
 6    1  0.1029244E-011  0.3000000E+03  0.7818608E-02  0.1093470E+00
          1   -1    0    0  502    0  0.00000000000E+00  0.00000000000E+00  0.23918622317E+03  0.23918622317E+03  0.00000000000E+00 0.  1.
         13   -1    0    0    0    0 -0.00000000000E+00 -0.00000000000E+00 -0.27500000000E+03  0.27500000000E+03  0.00000000000E+00 0.  1.
    9000005    2    1    2  501    0  0.54860225705E+01 -0.41681466429E+02 -0.45169111995E+02  0.47111693733E+03  0.46705832491E+03 0.  0.
         13    1    3    3    0    0  0.54734162183E+02  0.19371183828E+03  0.57919792760E+02  0.20946314041E+03  0.00000000000E+00 0.  1.
          1    1    3    3  501    0 -0.49248139613E+02 -0.23539330471E+03 -0.10308890476E+03  0.26165379691E+03  0.00000000000E+00 0.  1.
         21    1    1    2  502  501 -0.54860225705E+01  0.41681466429E+02  0.93553351680E+01  0.43069285848E+02  0.00000000000E+00 0.  1.
<scales pt_clust_4="550.00000" pt_clust_5="550.00000" pt_clust_6="42.04095"></scales>
<mgrwt>
<rscale>  0 0.30000000E+03</rscale>
<asrwt>  1 0.42040945E+02</asrwt>
<pdfrwt beam="1">  1        1 0.86976808E+00 0.30000000E+03</pdfrwt>
<pdfrwt beam="2">0</pdfrwt>
<totfact> 0.24619831E-04</totfact>
</mgrwt>
<clustering>
<clus scale="   42.041">  1  6  2 -1</clus>
<clus scale="  467.058">  4  5 -1 -1</clus>
<clus scale="  300.000">  1  4  2 -1</clus>
</clustering>
</event>
<event>
 6    1  0.1029244E-011  0.3000000E+03  0.7818608E-02  0.1093470E+00
          1   -1    0    0  502    0  0.00000000000E+00  0.00000000000E+00  0.23177681527E+03  0.23177681527E+03  0.00000000000E+00 0.  1.
         13   -1    0    0    0    0 -0.00000000000E+00 -0.00000000000E+00 -0.27500000000E+03  0.27500000000E+03  0.00000000000E+00 0.  1.
    9000005    2    1    2  501    0 -0.21401134425E+01  0.39845127786E+02 -0.55983438931E+02  0.46488363706E+03  0.45977215691E+03 0.  0.
         13    1    3    3    0    0 -0.90682709270E+02 -0.19142459904E+03 -0.47609559766E+02  0.21710228248E+03  0.00000000000E+00 0.  1.
          3    1    3    3  501    0  0.88542595828E+02  0.23126972683E+03 -0.83738791652E+01  0.24778135457E+03  0.00000000000E+00 0.  1.
         21    1    1    2  502  501  0.21401134425E+01 -0.39845127786E+02  0.12760254204E+02  0.41893178218E+02  0.00000000000E+00 0.  1.
<scales pt_clust_4="550.00000" pt_clust_5="550.00000" pt_clust_6="39.90256"></scales>
<mgrwt>
<rscale>  0 0.30000000E+03</rscale>
<asrwt>  1 0.39902560E+02</asrwt>
<pdfrwt beam="1">  1        1 0.84282478E+00 0.30000000E+03</pdfrwt>
<pdfrwt beam="2">0</pdfrwt>
<totfact> 0.46035465E-04</totfact>
</mgrwt>
<clustering>
<clus scale="   39.903">  1  6  2 -1</clus>
<clus scale="  459.772">  4  5 -1 -1</clus>
<clus scale="  300.000">  1  4  2 -1</clus>
</clustering>
</event>
<event>
 6    1  0.1029244E-011  0.3000000E+03  0.7818608E-02  0.1093470E+00
          1   -1    0    0  502    0  0.00000000000E+00  0.00000000000E+00  0.22390996419E+03  0.22390996419E+03  0.00000000000E+00 0.  1.
         13   -1    0    0    0    0 -0.00000000000E+00 -0.00000000000E+00 -0.27500000000E+03  0.27500000000E+03  0.00000000000E+00 0.  1.
    9000005    2    1    2  501    0  0.26558192992E+02  0.15366154385E+02 -0.47767364616E+02  0.46804742282E+03  0.46459144695E+03 0.  0.
         13    1    3    3    0    0  0.16576159020E+03 -0.11752094171E+03  0.98991545794E+02  0.22602522573E+03  0.00000000000E+00 0.  1.
          3    1    3    3  501    0 -0.13920339721E+03  0.13288709610E+03 -0.14675891041E+03  0.24202219710E+03  0.00000000000E+00 0.  1.
         21    1    1    2  502  501 -0.26558192992E+02 -0.15366154385E+02 -0.33226711950E+01  0.30862541364E+02  0.00000000000E+00 0.  1.
<scales pt_clust_4="550.00000" pt_clust_5="550.00000" pt_clust_6="30.68318"></scales>
<mgrwt>
<rscale>  0 0.30000000E+03</rscale>
<asrwt>  1 0.30683175E+02</asrwt>
<pdfrwt beam="1">  1        1 0.81421805E+00 0.30000000E+03</pdfrwt>
<pdfrwt beam="2">0</pdfrwt>
<totfact> 0.82805840E-04</totfact>
</mgrwt>
<clustering>
<clus scale="   30.683">  1  6  2 -1</clus>
<clus scale="  464.591">  4  5 -1 -1</clus>
<clus scale="  300.000">  1  4  2 -1</clus>
</clustering>
</event>
<event>
 6    1  0.1029244E-011  0.3000000E+03  0.7818608E-02  0.1093470E+00
          1   -1    0    0  502    0  0.00000000000E+00  0.00000000000E+00  0.23319231081E+03  0.23319231081E+03  0.00000000000E+00 0.  1.
         13   -1    0    0    0    0 -0.00000000000E+00 -0.00000000000E+00 -0.27500000000E+03  0.27500000000E+03  0.00000000000E+00 0.  1.
    9000005    2    1    2  501    0 -0.32238156574E+02  0.23753469506E+02 -0.51375588617E+02  0.46702107386E+03  0.46245616686E+03 0.  0.
         13    1    3    3    0    0  0.13274603094E+02  0.69299432105E+02 -0.24919223056E+03  0.25898917767E+03  0.00000000000E+00 0.  1.
          3    1    3    3  501    0 -0.45512759668E+02 -0.45545962599E+02  0.19781664194E+03  0.20803189619E+03  0.00000000000E+00 0.  1.
         21    1    1    2  502  501  0.32238156574E+02 -0.23753469506E+02  0.95678994250E+01  0.41171236953E+02  0.00000000000E+00 0.  1.
<scales pt_clust_4="550.00000" pt_clust_5="550.00000" pt_clust_6="40.04405"></scales>
<mgrwt>
<rscale>  0 0.30000000E+03</rscale>
<asrwt>  1 0.40044051E+02</asrwt>
<pdfrwt beam="1">  1        1 0.84797204E+00 0.30000000E+03</pdfrwt>
<pdfrwt beam="2">0</pdfrwt>
<totfact> 0.41454727E-04</totfact>
</mgrwt>
<clustering>
<clus scale="   40.044">  1  6  2 -1</clus>
<clus scale="  462.456">  4  5 -1 -1</clus>
<clus scale="  300.000">  1  4  2 -1</clus>
</clustering>
</event>
<event>
 6    1  0.1029244E-011  0.3000000E+03  0.7818608E-02  0.1093470E+00
          1   -1    0    0  502    0  0.00000000000E+00  0.00000000000E+00  0.23945311156E+03  0.23945311156E+03  0.00000000000E+00 0.  1.
         13   -1    0    0    0    0 -0.00000000000E+00 -0.00000000000E+00 -0.27500000000E+03  0.27500000000E+03  0.00000000000E+00 0.  1.
    9000005    2    1    2  501    0 -0.48323772198E+01  0.35884501623E+02 -0.69008116438E+02  0.46515095029E+03  0.45857631546E+03 0.  0.
         13    1    3    3    0    0 -0.32072984317E+02  0.51386572916E+02  0.19248235432E+03  0.20178878295E+03  0.00000000000E+00 0.  1.
          3    1    3    3  501    0  0.27240607097E+02 -0.15502071294E+02 -0.26149047076E+03  0.26336216734E+03  0.00000000000E+00 0.  1.
         21    1    1    2  502  501  0.48323772198E+01 -0.35884501623E+02  0.33461227994E+02  0.49302161263E+02  0.00000000000E+00 0.  1.
<scales pt_clust_4="550.00000" pt_clust_5="550.00000" pt_clust_6="36.20842"></scales>
<mgrwt>
<rscale>  0 0.30000000E+03</rscale>
<asrwt>  1 0.36208415E+02</asrwt>
<pdfrwt beam="1">  1        1 0.87073859E+00 0.30000000E+03</pdfrwt>
<pdfrwt beam="2">0</pdfrwt>
<totfact> 0.24731933E-04</totfact>
</mgrwt>
<clustering>
<clus scale="   36.208">  1  6  2 -1</clus>
<clus scale="  458.576">  4  5 -1 -1</clus>
<clus scale="  300.000">  1  4  2 -1</clus>
</clustering>
</event>
<event>
 6    1  0.1029244E-011  0.3000000E+03  0.7818608E-02  0.1093470E+00
          1   -1    0    0  502    0  0.00000000000E+00  0.00000000000E+00  0.22872056039E+03  0.22872056039E+03  0.00000000000E+00 0.  1.
         13   -1    0    0    0    0 -0.00000000000E+00 -0.00000000000E+00 -0.27500000000E+03  0.27500000000E+03  0.00000000000E+00 0.  1.
    9000005    2    1    2  501    0 -0.30231531621E+02  0.18948521482E+02 -0.55084893015E+02  0.46697103005E+03  0.46233603093E+03 0.  0.
         13    1    3    3    0    0  0.16890705113E+03 -0.12776325891E+03  0.71814046964E+01  0.21190709007E+03  0.00000000000E+00 0.  1.
          1    1    3    3  501    0 -0.19913858275E+03  0.14671178039E+03 -0.62266297711E+02  0.25506393998E+03  0.00000000000E+00 0.  1.
         21    1    1    2  502  501  0.30231531621E+02 -0.18948521482E+02  0.88054534031E+01  0.36749530339E+02  0.00000000000E+00 0. -1.
<scales pt_clust_4="550.00000" pt_clust_5="550.00000" pt_clust_6="35.67901"></scales>
<mgrwt>
<rscale>  0 0.30000000E+03</rscale>
<asrwt>  1 0.35679013E+02</asrwt>
<pdfrwt beam="1">  1        1 0.83171113E+00 0.30000000E+03</pdfrwt>
<pdfrwt beam="2">0</pdfrwt>
<totfact> 0.57058608E-04</totfact>
</mgrwt>
<clustering>
<clus scale="   35.679">  1  6  2 -1</clus>
<clus scale="  462.336">  4  5 -1 -1</clus>
<clus scale="  300.000">  1  4  2 -1</clus>
</clustering>
</event>
<event>
 6    1  0.1029244E-011  0.3000000E+03  0.7818608E-02  0.1093470E+00
          1   -1    0    0  502    0  0.00000000000E+00  0.00000000000E+00  0.22986527692E+03  0.22986527692E+03  0.00000000000E+00 0.  1.
         13   -1    0    0    0    0 -0.00000000000E+00 -0.00000000000E+00 -0.27500000000E+03  0.27500000000E+03  0.00000000000E+00 0.  1.
    9000005    2    1    2  501    0 -0.89782111784E+01 -0.41304236191E+02 -0.50715241849E+02  0.46222972377E+03  0.45749058304E+03 0.  0.
         13    1    3    3    0    0  0.10892394369E+03  0.13346624551E+03  0.10354743353E+03  0.20099685368E+03  0.00000000000E+00 0.  1.
          3    1    3    3  501    0 -0.11790215486E+03 -0.17477048170E+03 -0.15426267538E+03  0.26123287008E+03  0.00000000000E+00 0.  1.
         21    1    1    2  502  501  0.89782111784E+01  0.41304236191E+02  0.55805187728E+01  0.42635553158E+02  0.00000000000E+00 0. -1.
<scales pt_clust_4="550.00000" pt_clust_5="550.00000" pt_clust_6="42.26876"></scales>
<mgrwt>
<rscale>  0 0.30000000E+03</rscale>
<asrwt>  1 0.42268762E+02</asrwt>
<pdfrwt beam="1">  1        1 0.83587373E+00 0.30000000E+03</pdfrwt>
<pdfrwt beam="2">0</pdfrwt>
<totfact> 0.51495460E-04</totfact>
</mgrwt>
<clustering>
<clus scale="   42.269">  1  6  2 -1</clus>
<clus scale="  457.491">  4  5 -1 -1</clus>
<clus scale="  300.000">  1  4  2 -1</clus>
</clustering>
</event>
<event>
 6    1  0.1029244E-011  0.3000000E+03  0.7818608E-02  0.1093470E+00
          1   -1    0    0  502    0  0.00000000000E+00  0.00000000000E+00  0.23158228962E+03  0.23158228962E+03  0.00000000000E+00 0.  1.
         13   -1    0    0    0    0 -0.00000000000E+00 -0.00000000000E+00 -0.27500000000E+03  0.27500000000E+03  0.00000000000E+00 0.  1.
    9000005    2    1    2  501    0 -0.15641462437E+02  0.30731455165E+02 -0.32622633641E+02  0.47044904502E+03  0.46804806383E+03 0.  0.
         13    1    3    3    0    0  0.22405800179E+02 -0.60539445878E+01 -0.24778712038E+03  0.24887170822E+03  0.00000000000E+00 0.  1.
          1    1    3    3  501    0 -0.38047262616E+02  0.36785399753E+02  0.21516448674E+03  0.22157733680E+03  0.00000000000E+00 0.  1.
         21    1    1    2  502  501  0.15641462437E+02 -0.30731455165E+02 -0.10795076736E+02  0.36133244602E+02  0.00000000000E+00 0.  1.
<scales pt_clust_4="550.00000" pt_clust_5="550.00000" pt_clust_6="34.48302"></scales>
<mgrwt>
<rscale>  0 0.30000000E+03</rscale>
<asrwt>  1 0.34483023E+02</asrwt>
<pdfrwt beam="1">  1        1 0.84211742E+00 0.30000000E+03</pdfrwt>
<pdfrwt beam="2">0</pdfrwt>
<totfact> 0.47942958E-04</totfact>
</mgrwt>
<clustering>
<clus scale="   34.483">  1  6  2 -1</clus>
<clus scale="  468.048">  4  5 -1 -1</clus>
<clus scale="  300.000">  1  4  2 -1</clus>
</clustering>
</event>
<event>
 6    1  0.1029244E-011  0.3000000E+03  0.7818608E-02  0.1093470E+00
          1   -1    0    0  502    0  0.00000000000E+00  0.00000000000E+00  0.23696576682E+03  0.23696576682E+03  0.00000000000E+00 0.  1.
         13   -1    0    0    0    0 -0.00000000000E+00 -0.00000000000E+00 -0.27500000000E+03  0.27500000000E+03  0.00000000000E+00 0.  1.
    9000005    2    1    2  501    0  0.28234799532E+02  0.23307041737E+02 -0.39451777158E+02  0.47532655927E+03  0.47226949206E+03 0.  0.
         13    1    3    3    0    0 -0.10484816710E+03  0.16923787475E+03  0.11018346567E+03  0.22754118858E+03  0.00000000000E+00 0.  1.
          1    1    3    3  501    0  0.13308296663E+03 -0.14593083301E+03 -0.14963524283E+03  0.24778537069E+03  0.00000000000E+00 0.  1.
         21    1    1    2  502  501 -0.28234799532E+02 -0.23307041737E+02  0.14175439791E+01  0.36639207553E+02  0.00000000000E+00 0.  1.
<scales pt_clust_4="550.00000" pt_clust_5="550.00000" pt_clust_6="36.61178"></scales>
<mgrwt>
<rscale>  0 0.30000000E+03</rscale>
<asrwt>  1 0.36611775E+02</asrwt>
<pdfrwt beam="1">  1        1 0.86169370E+00 0.30000000E+03</pdfrwt>
<pdfrwt beam="2">0</pdfrwt>
<totfact> 0.30760977E-04</totfact>
</mgrwt>
<clustering>
<clus scale="   36.612">  1  6  2 -1</clus>
<clus scale="  472.269">  4  5 -1 -1</clus>
<clus scale="  300.000">  1  4  2 -1</clus>
</clustering>
</event>
<event>
 6    1  0.1029244E-011  0.3000000E+03  0.7818608E-02  0.1093470E+00
          1   -1    0    0  502    0  0.00000000000E+00  0.00000000000E+00  0.24703016571E+03  0.24703016571E+03  0.00000000000E+00 0.  1.
         13   -1    0    0    0    0 -0.00000000000E+00 -0.00000000000E+00 -0.27500000000E+03  0.27500000000E+03  0.00000000000E+00 0.  1.
    9000005    2    1    2  501    0  0.30803061881E+02  0.23372063627E+02 -0.48503549153E+02  0.47824985706E+03  0.47421013224E+03 0.  0.
         13    1    3    3    0    0 -0.11480395765E+03 -0.16226770102E+03  0.74381636255E+02  0.21223426514E+03  0.00000000000E+00 0.  1.
          1    1    3    3  501    0  0.14560701953E+03  0.18563976464E+03 -0.12288518541E+03  0.26601559192E+03  0.00000000000E+00 0.  1.
         21    1    1    2  502  501 -0.30803061881E+02 -0.23372063627E+02  0.20533714861E+02  0.43780308649E+02  0.00000000000E+00 0.  1.
<scales pt_clust_4="550.00000" pt_clust_5="550.00000" pt_clust_6="38.66629"></scales>
<mgrwt>
<rscale>  0 0.30000000E+03</rscale>
<asrwt>  1 0.38666290E+02</asrwt>
<pdfrwt beam="1">  1        1 0.89829151E+00 0.30000000E+03</pdfrwt>
<pdfrwt beam="2">0</pdfrwt>
<totfact> 0.11367002E-04</totfact>
</mgrwt>
<clustering>
<clus scale="   38.666">  1  6  2 -1</clus>
<clus scale="  474.210">  4  5 -1 -1</clus>
<clus scale="  300.000">  1  4  2 -1</clus>
</clustering>
</event>
<event>
 6    1  0.1029244E-011  0.3000000E+03  0.7818608E-02  0.1093470E+00
          1   -1    0    0  502    0  0.00000000000E+00  0.00000000000E+00  0.22660900521E+03  0.22660900521E+03  0.00000000000E+00 0.  1.
         13   -1    0    0    0    0 -0.00000000000E+00 -0.00000000000E+00 -0.27500000000E+03  0.27500000000E+03  0.00000000000E+00 0.  1.
    9000005    2    1    2  501    0  0.20509986406E+02 -0.23105040140E+02 -0.68308891060E+02  0.46484999252E+03  0.45876454584E+03 0.  0.
         13    1    3    3    0    0  0.14470156212E+03 -0.11632069019E+03  0.11977992296E+03  0.22094405398E+03  0.00000000000E+00 0.  1.
          3    1    3    3  501    0 -0.12419157572E+03  0.93215650051E+02 -0.18808881402E+03  0.24390593853E+03  0.00000000000E+00 0.  1.
         21    1    1    2  502  501 -0.20509986406E+02  0.23105040140E+02  0.19917896270E+02  0.36759012692E+02  0.00000000000E+00 0.  1.
<scales pt_clust_4="550.00000" pt_clust_5="550.00000" pt_clust_6="30.89502"></scales>
<mgrwt>
<rscale>  0 0.30000000E+03</rscale>
<asrwt>  1 0.30895023E+02</asrwt>
<pdfrwt beam="1">  1        1 0.82403275E+00 0.30000000E+03</pdfrwt>
<pdfrwt beam="2">0</pdfrwt>
<totfact> 0.68221584E-04</totfact>
</mgrwt>
<clustering>
<clus scale="   30.895">  1  6  2 -1</clus>
<clus scale="  458.765">  4  5 -1 -1</clus>
<clus scale="  300.000">  1  4  2 -1</clus>
</clustering>
</event>
<event>
 6    1  0.1029244E-011  0.3000000E+03  0.7818608E-02  0.1093470E+00
          1   -1    0    0  502    0  0.00000000000E+00  0.00000000000E+00  0.24062448963E+03  0.24062448963E+03  0.00000000000E+00 0.  1.
         13   -1    0    0    0    0 -0.00000000000E+00 -0.00000000000E+00 -0.27500000000E+03  0.27500000000E+03  0.00000000000E+00 0.  1.
    9000005    2    1    2  501    0 -0.17959034397E+02  0.41844595316E+02 -0.33506841928E+02  0.47008053659E+03  0.46666851763E+03 0.  0.
         13    1    3    3    0    0 -0.89165687582E+01  0.27577271567E+02 -0.25063054419E+03  0.25230077445E+03  0.00000000000E+00 0.  1.
          1    1    3    3  501    0 -0.90424656386E+01  0.14267323749E+02  0.21712370227E+03  0.21777976214E+03  0.00000000000E+00 0.  1.
         21    1    1    2  502  501  0.17959034397E+02 -0.41844595316E+02 -0.86866844361E+00  0.45543953040E+02  0.00000000000E+00 0. -1.
<scales pt_clust_4="550.00000" pt_clust_5="550.00000" pt_clust_6="45.53567"></scales>
<mgrwt>
<rscale>  0 0.30000000E+03</rscale>
<asrwt>  1 0.45535668E+02</asrwt>
<pdfrwt beam="1">  1        1 0.87499814E+00 0.30000000E+03</pdfrwt>
<pdfrwt beam="2">0</pdfrwt>
<totfact> 0.21438504E-04</totfact>
</mgrwt>
<clustering>
<clus scale="   45.536">  1  6  2 -1</clus>
<clus scale="  466.669">  4  5 -1 -1</clus>
<clus scale="  300.000">  1  4  2 -1</clus>
</clustering>
</event>
<event>
 6    1  0.1029244E-011  0.3000000E+03  0.7818608E-02  0.1093470E+00
          1   -1    0    0  502    0  0.00000000000E+00  0.00000000000E+00  0.23661956210E+03  0.23661956210E+03  0.00000000000E+00 0.  1.
         13   -1    0    0    0    0 -0.00000000000E+00 -0.00000000000E+00 -0.27500000000E+03  0.27500000000E+03  0.00000000000E+00 0.  1.
    9000005    2    1    2  501    0 -0.33814563081E+02  0.10899507367E+02 -0.42703434655E+02  0.47582972782E+03  0.47257604955E+03 0.  0.
         13    1    3    3    0    0  0.12796663969E+03  0.19161285308E+03 -0.35818133962E+02  0.23318208564E+03  0.00000000000E+00 0.  1.
          3    1    3    3  501    0 -0.16178120277E+03 -0.18071334572E+03 -0.68853006931E+01  0.24264764218E+03  0.00000000000E+00 0.  1.
         21    1    1    2  502  501  0.33814563081E+02 -0.10899507367E+02  0.43229967563E+01  0.35789834285E+02  0.00000000000E+00 0.  1.
<scales pt_clust_4="550.00000" pt_clust_5="550.00000" pt_clust_6="35.52779"></scales>
<mgrwt>
<rscale>  0 0.30000000E+03</rscale>
<asrwt>  1 0.35527791E+02</asrwt>
<pdfrwt beam="1">  1        1 0.86043477E+00 0.30000000E+03</pdfrwt>
<pdfrwt beam="2">0</pdfrwt>
<totfact> 0.31912780E-04</totfact>
</mgrwt>
<clustering>
<clus scale="   35.528">  1  6  2 -1</clus>
<clus scale="  472.576">  4  5 -1 -1</clus>
<clus scale="  300.000">  1  4  2 -1</clus>
</clustering>
</event>
<event>
 6    1  0.1029244E-011  0.3000000E+03  0.7818608E-02  0.1093470E+00
          1   -1    0    0  502    0  0.00000000000E+00  0.00000000000E+00  0.24143559324E+03  0.24143559324E+03  0.00000000000E+00 0.  1.
         13   -1    0    0    0    0 -0.00000000000E+00 -0.00000000000E+00 -0.27500000000E+03  0.27500000000E+03  0.00000000000E+00 0.  1.
    9000005    2    1    2  501    0  0.15276813752E+02  0.35585630409E+02 -0.57316648340E+02  0.47100556892E+03  0.46589841129E+03 0.  0.
         13    1    3    3    0    0  0.28145677109E+02 -0.21209622153E+03  0.94360080860E+01  0.21416354633E+03  0.00000000000E+00 0.  1.
          1    1    3    3  501    0 -0.12868863357E+02  0.24768185194E+03 -0.66752656426E+02  0.25684202258E+03  0.00000000000E+00 0.  1.
         21    1    1    2  502  501 -0.15276813752E+02 -0.35585630409E+02  0.23752241580E+02  0.45430024324E+02  0.00000000000E+00 0. -1.
<scales pt_clust_4="550.00000" pt_clust_5="550.00000" pt_clust_6="38.72619"></scales>
<mgrwt>
<rscale>  0 0.30000000E+03</rscale>
<asrwt>  1 0.38726194E+02</asrwt>
<pdfrwt beam="1">  1        1 0.87794761E+00 0.30000000E+03</pdfrwt>
<pdfrwt beam="2">0</pdfrwt>
<totfact> 0.20491167E-04</totfact>
</mgrwt>
<clustering>
<clus scale="   38.726">  1  6  2 -1</clus>
<clus scale="  465.898">  4  5 -1 -1</clus>
<clus scale="  300.000">  1  4  2 -1</clus>
</clustering>
</event>
<event>
 6    1  0.1029244E-011  0.3000000E+03  0.7818608E-02  0.1093470E+00
          1   -1    0    0  502    0  0.00000000000E+00  0.00000000000E+00  0.25289263591E+03  0.25289263591E+03  0.00000000000E+00 0.  1.
         13   -1    0    0    0    0 -0.00000000000E+00 -0.00000000000E+00 -0.27500000000E+03  0.27500000000E+03  0.00000000000E+00 0.  1.
    9000005    2    1    2  501    0  0.25699890801E+02 -0.15645174919E+02 -0.36172890402E+02  0.49467976317E+03  0.49243713731E+03 0.  0.
         13    1    3    3    0    0 -0.11865563152E+03 -0.54235768048E+02 -0.22122616934E+03  0.25683009058E+03  0.00000000000E+00 0.  1.
          3    1    3    3  501    0  0.14435552233E+03  0.38590593129E+02  0.18505327894E+03  0.23784967259E+03  0.00000000000E+00 0.  1.
         21    1    1    2  502  501 -0.25699890801E+02  0.15645174919E+02  0.14065526316E+02  0.33212872745E+02  0.00000000000E+00 0.  1.
<scales pt_clust_4="550.00000" pt_clust_5="550.00000" pt_clust_6="30.08747"></scales>
<mgrwt>
<rscale>  0 0.30000000E+03</rscale>
<asrwt>  1 0.30087471E+02</asrwt>
<pdfrwt beam="1">  1        1 0.91960959E+00 0.30000000E+03</pdfrwt>
<pdfrwt beam="2">0</pdfrwt>
<totfact> 0.43866954E-05</totfact>
</mgrwt>
<clustering>
<clus scale="   30.087">  1  6  2 -1</clus>
<clus scale="  492.437">  4  5 -1 -1</clus>
<clus scale="  300.000">  1  4  2 -1</clus>
</clustering>
</event>
<event>
 6    1  0.1029244E-011  0.3000000E+03  0.7818608E-02  0.1093470E+00
          1   -1    0    0  502    0  0.00000000000E+00  0.00000000000E+00  0.24304727690E+03  0.24304727690E+03  0.00000000000E+00 0.  1.
         13   -1    0    0    0    0 -0.00000000000E+00 -0.00000000000E+00 -0.27500000000E+03  0.27500000000E+03  0.00000000000E+00 0.  1.
    9000005    2    1    2  501    0  0.34669867845E+02 -0.27935338942E+02 -0.40039315436E+02  0.47279491924E+03  0.46898774609E+03 0.  0.
         13    1    3    3    0    0  0.84059367435E+02  0.20720013820E+03 -0.60547686901E+02  0.23165469327E+03  0.00000000000E+00 0.  1.
          3    1    3    3  501    0 -0.49389499590E+02 -0.23513547714E+03  0.20508371465E+02  0.24114022597E+03  0.00000000000E+00 0.  1.
         21    1    1    2  502  501 -0.34669867845E+02  0.27935338942E+02  0.80865923341E+01  0.45252357660E+02  0.00000000000E+00 0.  1.
<scales pt_clust_4="550.00000" pt_clust_5="550.00000" pt_clust_6="44.52396"></scales>
<mgrwt>
<rscale>  0 0.30000000E+03</rscale>
<asrwt>  1 0.44523959E+02</asrwt>
<pdfrwt beam="1">  1        1 0.88380828E+00 0.30000000E+03</pdfrwt>
<pdfrwt beam="2">0</pdfrwt>
<totfact> 0.16857451E-04</totfact>
</mgrwt>
<clustering>
<clus scale="   44.524">  1  6  2 -1</clus>
<clus scale="  468.988">  4  5 -1 -1</clus>
<clus scale="  300.000">  1  4  2 -1</clus>
</clustering>
</event>
<event>
 6    1  0.1029244E-011  0.3000000E+03  0.7818608E-02  0.1093470E+00
          1   -1    0    0  502    0  0.00000000000E+00  0.00000000000E+00  0.22016909567E+03  0.22016909567E+03  0.00000000000E+00 0.  1.
         13   -1    0    0    0    0 -0.00000000000E+00 -0.00000000000E+00 -0.27500000000E+03  0.27500000000E+03  0.00000000000E+00 0.  1.
    9000005    2    1    2  501    0  0.17935047353E+02 -0.26122408785E+02 -0.43107346359E+02  0.46138318181E+03  0.45827082711E+03 0.  0.
         13    1    3    3    0    0 -0.19459658862E+03 -0.32156253946E+02 -0.12503368896E+03  0.23352790057E+03  0.00000000000E+00 0.  1.
          3    1    3    3  501    0  0.21253163597E+03  0.60338451613E+01  0.81926342603E+02  0.22785528124E+03  0.00000000000E+00 0.  1.
         21    1    1    2  502  501 -0.17935047353E+02  0.26122408785E+02 -0.11723557967E+02  0.33785913865E+02  0.00000000000E+00 0. -1.
<scales pt_clust_4="550.00000" pt_clust_5="550.00000" pt_clust_6="31.68670"></scales>
<mgrwt>
<rscale>  0 0.30000000E+03</rscale>
<asrwt>  1 0.31686703E+02</asrwt>
<pdfrwt beam="1">  1        1 0.80061489E+00 0.30000000E+03</pdfrwt>
<pdfrwt beam="2">0</pdfrwt>
<totfact> 0.10459095E-03</totfact>
</mgrwt>
<clustering>
<clus scale="   31.687">  1  6  2 -1</clus>
<clus scale="  458.271">  4  5 -1 -1</clus>
<clus scale="  300.000">  1  4  2 -1</clus>
</clustering>
</event>
<event>
 6    1  0.1029244E-011  0.3000000E+03  0.7818608E-02  0.1093470E+00
          1   -1    0    0  502    0  0.00000000000E+00  0.00000000000E+00  0.23055190195E+03  0.23055190195E+03  0.00000000000E+00 0.  1.
         13   -1    0    0    0    0 -0.00000000000E+00 -0.00000000000E+00 -0.27500000000E+03  0.27500000000E+03  0.00000000000E+00 0.  1.
    9000005    2    1    2  501    0  0.23091760829E+00 -0.30131880804E+02 -0.57311385156E+02  0.47278838994E+03  0.46833351709E+03 0.  0.
         13    1    3    3    0    0  0.16339177434E+03 -0.17209383003E+03  0.30720305981E+02  0.23928413122E+03  0.00000000000E+00 0.  1.
          3    1    3    3  501    0 -0.16316085673E+03  0.14196194922E+03 -0.88031691137E+02  0.23350425872E+03  0.00000000000E+00 0.  1.
         21    1    1    2  502  501 -0.23091760829E+00  0.30131880804E+02  0.12863287103E+02  0.32763512004E+02  0.00000000000E+00 0.  1.
<scales pt_clust_4="550.00000" pt_clust_5="550.00000" pt_clust_6="30.13277"></scales>
<mgrwt>
<rscale>  0 0.30000000E+03</rscale>
<asrwt>  1 0.30132766E+02</asrwt>
<pdfrwt beam="1">  1        1 0.83837055E+00 0.30000000E+03</pdfrwt>
<pdfrwt beam="2">0</pdfrwt>
<totfact> 0.52598079E-04</totfact>
</mgrwt>
<clustering>
<clus scale="   30.133">  1  6  2 -1</clus>
<clus scale="  468.334">  4  5 -1 -1</clus>
<clus scale="  300.000">  1  4  2 -1</clus>
</clustering>
</event>
<event>
 6    1  0.1029244E-011  0.3000000E+03  0.7818608E-02  0.1093470E+00
          1   -1    0    0  502    0  0.00000000000E+00  0.00000000000E+00  0.23353346141E+03  0.23353346141E+03  0.00000000000E+00 0.  1.
         13   -1    0    0    0    0 -0.00000000000E+00 -0.00000000000E+00 -0.27500000000E+03  0.27500000000E+03  0.00000000000E+00 0.  1.
    9000005    2    1    2  501    0 -0.23137344793E+02  0.30443917410E+02 -0.56726366767E+02  0.46736270495E+03  0.46232872338E+03 0.  0.
         13    1    3    3    0    0  0.16323066552E+03  0.58901681025E+02 -0.17367025616E+03  0.24550970667E+03  0.00000000000E+00 0.  1.
          1    1    3    3  501    0 -0.18636801032E+03 -0.28457763615E+02  0.11694388939E+03  0.22185299828E+03  0.00000000000E+00 0.  1.
         21    1    1    2  502  501  0.23137344793E+02 -0.30443917410E+02  0.15259828172E+02  0.41170756457E+02  0.00000000000E+00 0. -1.
<scales pt_clust_4="550.00000" pt_clust_5="550.00000" pt_clust_6="38.23832"></scales>
<mgrwt>
<rscale>  0 0.30000000E+03</rscale>
<asrwt>  1 0.38238316E+02</asrwt>
<pdfrwt beam="1">  1        1 0.84921259E+00 0.30000000E+03</pdfrwt>
<pdfrwt beam="2">0</pdfrwt>
<totfact> 0.40719638E-04</totfact>
</mgrwt>
<clustering>
<clus scale="   38.238">  1  6  2 -1</clus>
<clus scale="  462.329">  4  5 -1 -1</clus>
<clus scale="  300.000">  1  4  2 -1</clus>
</clustering>
</event>
<event>
 6    1  0.1029244E-011  0.3000000E+03  0.7818608E-02  0.1093470E+00
          1   -1    0    0  502    0  0.00000000000E+00  0.00000000000E+00  0.22617233718E+03  0.22617233718E+03  0.00000000000E+00 0.  1.
         13   -1    0    0    0    0 -0.00000000000E+00 -0.00000000000E+00 -0.27500000000E+03  0.27500000000E+03  0.00000000000E+00 0.  1.
    9000005    2    1    2  501    0  0.25359186237E+02  0.24222650076E+02 -0.45976741394E+02  0.46598778295E+03  0.46238612437E+03 0.  0.
         13    1    3    3    0    0  0.24175915138E+03  0.23884313381E+02  0.75960552320E+01  0.24305482459E+03  0.00000000000E+00 0.  1.
          1    1    3    3  501    0 -0.21639996514E+03  0.33833669532E+00 -0.53572796626E+02  0.22293295836E+03  0.00000000000E+00 0.  1.
         21    1    1    2  502  501 -0.25359186237E+02 -0.24222650076E+02 -0.28509214257E+01  0.35184554229E+02  0.00000000000E+00 0. -1.
<scales pt_clust_4="550.00000" pt_clust_5="550.00000" pt_clust_6="35.06886"></scales>
<mgrwt>
<rscale>  0 0.30000000E+03</rscale>
<asrwt>  1 0.35068862E+02</asrwt>
<pdfrwt beam="1">  1        1 0.82244486E+00 0.30000000E+03</pdfrwt>
<pdfrwt beam="2">0</pdfrwt>
<totfact> 0.68813192E-04</totfact>
</mgrwt>
<clustering>
<clus scale="   35.069">  1  6  2 -1</clus>
<clus scale="  462.386">  4  5 -1 -1</clus>
<clus scale="  300.000">  1  4  2 -1</clus>
</clustering>
</event>
<event>
 6    1  0.1029244E-011  0.3000000E+03  0.7818608E-02  0.1093470E+00
          1   -1    0    0  502    0  0.00000000000E+00  0.00000000000E+00  0.22449704837E+03  0.22449704837E+03  0.00000000000E+00 0.  1.
         13   -1    0    0    0    0 -0.00000000000E+00 -0.00000000000E+00 -0.27500000000E+03  0.27500000000E+03  0.00000000000E+00 0.  1.
    9000005    2    1    2  501    0  0.69759700836E+01  0.29735759070E+02 -0.65023261104E+02  0.46567813483E+03  0.46010348971E+03 0.  0.
         13    1    3    3    0    0  0.16172291535E+03 -0.75436987161E+02 -0.17392541745E+03  0.24918886656E+03  0.00000000000E+00 0.  1.
          3    1    3    3  501    0 -0.15474694527E+03  0.10517274623E+03  0.10890215634E+03  0.21648926827E+03  0.00000000000E+00 0.  1.
         21    1    1    2  502  501 -0.69759700836E+01 -0.29735759070E+02  0.14520309475E+02  0.33818913544E+02  0.00000000000E+00 0.  1.
<scales pt_clust_4="550.00000" pt_clust_5="550.00000" pt_clust_6="30.54308"></scales>
<mgrwt>
<rscale>  0 0.30000000E+03</rscale>
<asrwt>  1 0.30543077E+02</asrwt>
<pdfrwt beam="1">  1        1 0.81635290E+00 0.30000000E+03</pdfrwt>
<pdfrwt beam="2">0</pdfrwt>
<totfact> 0.79641998E-04</totfact>
</mgrwt>
<clustering>
<clus scale="   30.543">  1  6  2 -1</clus>
<clus scale="  460.103">  4  5 -1 -1</clus>
<clus scale="  300.000">  1  4  2 -1</clus>
</clustering>
</event>
<event>
 6    1  0.1029244E-011  0.3000000E+03  0.7818608E-02  0.1093470E+00
          1   -1    0    0  502    0  0.00000000000E+00  0.00000000000E+00  0.22660307175E+03  0.22660307175E+03  0.00000000000E+00 0.  1.
         13   -1    0    0    0    0 -0.00000000000E+00 -0.00000000000E+00 -0.27500000000E+03  0.27500000000E+03  0.00000000000E+00 0.  1.
    9000005    2    1    2  501    0 -0.26756425302E+02  0.17003227625E+02 -0.44745534153E+02  0.46969149511E+03  0.46647928326E+03 0.  0.
         13    1    3    3    0    0 -0.10765133945E+03  0.12767156678E+03  0.15472461290E+03  0.22765883617E+03  0.00000000000E+00 0.  1.
          3    1    3    3  501    0  0.80894914153E+02 -0.11066833916E+03 -0.19947014705E+03  0.24203265894E+03  0.00000000000E+00 0.  1.
         21    1    1    2  502  501  0.26756425302E+02 -0.17003227625E+02 -0.36513940986E+01  0.31911576637E+02  0.00000000000E+00 0.  1.
<scales pt_clust_4="550.00000" pt_clust_5="550.00000" pt_clust_6="31.70200"></scales>
<mgrwt>
<rscale>  0 0.30000000E+03</rscale>
<asrwt>  1 0.31702004E+02</asrwt>
<pdfrwt beam="1">  1        1 0.82401117E+00 0.30000000E+03</pdfrwt>
<pdfrwt beam="2">0</pdfrwt>
<totfact> 0.67916489E-04</totfact>
</mgrwt>
<clustering>
<clus scale="   31.702">  1  6  2 -1</clus>
<clus scale="  466.479">  4  5 -1 -1</clus>
<clus scale="  300.000">  1  4  2 -1</clus>
</clustering>
</event>
<event>
 6    1  0.1029244E-011  0.3000000E+03  0.7818608E-02  0.1093470E+00
          1   -1    0    0  502    0  0.00000000000E+00  0.00000000000E+00  0.24669465718E+03  0.24669465718E+03  0.00000000000E+00 0.  1.
         13   -1    0    0    0    0 -0.00000000000E+00 -0.00000000000E+00 -0.27500000000E+03  0.27500000000E+03  0.00000000000E+00 0.  1.
    9000005    2    1    2  501    0 -0.15331123329E-02  0.30782619549E+02 -0.57208128662E+02  0.47946977473E+03  0.47504833988E+03 0.  0.
         13    1    3    3    0    0  0.49324685697E+02 -0.13820719368E+03  0.14846229448E+03  0.20874675060E+03  0.00000000000E+00 0.  1.
          3    1    3    3  501    0 -0.49326218810E+02  0.16898981323E+03 -0.20567042314E+03  0.27072302413E+03  0.00000000000E+00 0.  1.
         21    1    1    2  502  501  0.15331123329E-02 -0.30782619549E+02  0.28902785838E+02  0.42224882449E+02  0.00000000000E+00 0.  1.
<scales pt_clust_4="550.00000" pt_clust_5="550.00000" pt_clust_6="30.78262"></scales>
<mgrwt>
<rscale>  0 0.30000000E+03</rscale>
<asrwt>  1 0.30782620E+02</asrwt>
<pdfrwt beam="1">  1        1 0.89707148E+00 0.30000000E+03</pdfrwt>
<pdfrwt beam="2">0</pdfrwt>
<totfact> 0.12249208E-04</totfact>
</mgrwt>
<clustering>
<clus scale="   30.783">  1  6  2 -1</clus>
<clus scale="  475.048">  4  5 -1 -1</clus>
<clus scale="  300.000">  1  4  2 -1</clus>
</clustering>
</event>
<event>
 6    1  0.1029244E-011  0.3000000E+03  0.7818608E-02  0.1093470E+00
          1   -1    0    0  502    0  0.00000000000E+00  0.00000000000E+00  0.22613163464E+03  0.22613163464E+03  0.00000000000E+00 0.  1.
         13   -1    0    0    0    0 -0.00000000000E+00 -0.00000000000E+00 -0.27500000000E+03  0.27500000000E+03  0.00000000000E+00 0.  1.
    9000005    2    1    2  501    0  0.18176339170E+02  0.33332429426E+02 -0.33308523394E+02  0.46010068487E+03  0.45732018579E+03 0.  0.
         13    1    3    3    0    0  0.56189492610E+02  0.24019351501E+03  0.28259074993E+01  0.24669448613E+03  0.00000000000E+00 0.  1.
          1    1    3    3  501    0 -0.38013153440E+02 -0.20686108559E+03 -0.36134430893E+02  0.21340619874E+03  0.00000000000E+00 0.  1.
         21    1    1    2  502  501 -0.18176339170E+02 -0.33332429426E+02 -0.15559841967E+02  0.41030949771E+02  0.00000000000E+00 0. -1.
<scales pt_clust_4="550.00000" pt_clust_5="550.00000" pt_clust_6="37.96619"></scales>
<mgrwt>
<rscale>  0 0.30000000E+03</rscale>
<asrwt>  1 0.37966190E+02</asrwt>
<pdfrwt beam="1">  1        1 0.82229685E+00 0.30000000E+03</pdfrwt>
<pdfrwt beam="2">0</pdfrwt>
<totfact> 0.68012065E-04</totfact>
</mgrwt>
<clustering>
<clus scale="   37.966">  1  6  2 -1</clus>
<clus scale="  457.320">  4  5 -1 -1</clus>
<clus scale="  300.000">  1  4  2 -1</clus>
</clustering>
</event>
<event>
 6    1  0.1029244E-011  0.3000000E+03  0.7818608E-02  0.1093470E+00
          1   -1    0    0  502    0  0.00000000000E+00  0.00000000000E+00  0.23985125143E+03  0.23985125143E+03  0.00000000000E+00 0.  1.
         13   -1    0    0    0    0 -0.00000000000E+00 -0.00000000000E+00 -0.27500000000E+03  0.27500000000E+03  0.00000000000E+00 0.  1.
    9000005    2    1    2  501    0 -0.30996446727E+02  0.66241297091E+00 -0.63410117466E+02  0.47289980959E+03  0.46760257528E+03 0.  0.
         13    1    3    3    0    0  0.12023220725E+02  0.13462656632E+03  0.15964331617E+03  0.20917662057E+03  0.00000000000E+00 0.  1.
          1    1    3    3  501    0 -0.43019667452E+02 -0.13396415335E+03 -0.22305343364E+03  0.26372318902E+03  0.00000000000E+00 0.  1.
         21    1    1    2  502  501  0.30996446727E+02 -0.66241297091E+00  0.28261368899E+02  0.41951441843E+02  0.00000000000E+00 0. -1.
<scales pt_clust_4="550.00000" pt_clust_5="550.00000" pt_clust_6="31.00352"></scales>
<mgrwt>
<rscale>  0 0.30000000E+03</rscale>
<asrwt>  1 0.31003524E+02</asrwt>
<pdfrwt beam="1">  1        1 0.87218637E+00 0.30000000E+03</pdfrwt>
<pdfrwt beam="2">0</pdfrwt>
<totfact> 0.24614070E-04</totfact>
</mgrwt>
<clustering>
<clus scale="   31.004">  1  6  2 -1</clus>
<clus scale="  467.603">  4  5 -1 -1</clus>
<clus scale="  300.000">  1  4  2 -1</clus>
</clustering>
</event>
<event>
 6    1  0.1029244E-011  0.3000000E+03  0.7818608E-02  0.1093470E+00
          1   -1    0    0  502    0  0.00000000000E+00  0.00000000000E+00  0.23984808121E+03  0.23984808121E+03  0.00000000000E+00 0.  1.
         13   -1    0    0    0    0 -0.00000000000E+00 -0.00000000000E+00 -0.27500000000E+03  0.27500000000E+03  0.00000000000E+00 0.  1.
    9000005    2    1    2  501    0  0.17002773798E+02 -0.29082712728E+02 -0.44735654272E+02  0.47982314035E+03  0.47654387915E+03 0.  0.
         13    1    3    3    0    0 -0.21343290591E+03  0.67790088216E+02 -0.51405516689E+02  0.22976428907E+03  0.00000000000E+00 0.  1.
          3    1    3    3  501    0  0.23043567970E+03 -0.96872800944E+02  0.66698624160E+01  0.25005885129E+03  0.00000000000E+00 0.  1.
         21    1    1    2  502  501 -0.17002773798E+02  0.29082712728E+02  0.95837354874E+01  0.35024940861E+02  0.00000000000E+00 0. -1.
<scales pt_clust_4="550.00000" pt_clust_5="550.00000" pt_clust_6="33.68825"></scales>
<mgrwt>
<rscale>  0 0.30000000E+03</rscale>
<asrwt>  1 0.33688255E+02</asrwt>
<pdfrwt beam="1">  1        1 0.87217484E+00 0.30000000E+03</pdfrwt>
<pdfrwt beam="2">0</pdfrwt>
<totfact> 0.24235626E-04</totfact>
</mgrwt>
<clustering>
<clus scale="   33.688">  1  6  2 -1</clus>
<clus scale="  476.544">  4  5 -1 -1</clus>
<clus scale="  300.000">  1  4  2 -1</clus>
</clustering>
</event>
<event>
 6    1  0.1029244E-011  0.3000000E+03  0.7818608E-02  0.1093470E+00
          1   -1    0    0  502    0  0.00000000000E+00  0.00000000000E+00  0.21932641014E+03  0.21932641014E+03  0.00000000000E+00 0.  1.
         13   -1    0    0    0    0 -0.00000000000E+00 -0.00000000000E+00 -0.27500000000E+03  0.27500000000E+03  0.00000000000E+00 0.  1.
    9000005    2    1    2  501    0  0.10864239589E+02  0.29013767429E+02 -0.60013061173E+02  0.46304284555E+03  0.45809090680E+03 0.  0.
         13    1    3    3    0    0  0.95917182657E+02 -0.97172670478E+02 -0.20928019839E+03  0.24988164249E+03  0.00000000000E+00 0.  1.
          3    1    3    3  501    0 -0.85052943067E+02  0.12618643791E+03  0.14926713721E+03  0.21316120306E+03  0.00000000000E+00 0.  1.
         21    1    1    2  502  501 -0.10864239589E+02 -0.29013767429E+02  0.43394713093E+01  0.31283564591E+02  0.00000000000E+00 0. -1.
<scales pt_clust_4="550.00000" pt_clust_5="550.00000" pt_clust_6="30.98113"></scales>
<mgrwt>
<rscale>  0 0.30000000E+03</rscale>
<asrwt>  1 0.30981130E+02</asrwt>
<pdfrwt beam="1">  1        1 0.79755058E+00 0.30000000E+03</pdfrwt>
<pdfrwt beam="2">0</pdfrwt>
<totfact> 0.11055195E-03</totfact>
</mgrwt>
<clustering>
<clus scale="   30.981">  1  6  2 -1</clus>
<clus scale="  458.091">  4  5 -1 -1</clus>
<clus scale="  300.000">  1  4  2 -1</clus>
</clustering>
</event>
<event>
 6    1  0.1029244E-011  0.3000000E+03  0.7818608E-02  0.1093470E+00
          1   -1    0    0  502    0  0.00000000000E+00  0.00000000000E+00  0.23323823637E+03  0.23323823637E+03  0.00000000000E+00 0.  1.
         13   -1    0    0    0    0 -0.00000000000E+00 -0.00000000000E+00 -0.27500000000E+03  0.27500000000E+03  0.00000000000E+00 0.  1.
    9000005    2    1    2  501    0 -0.37134084974E+02 -0.14928741915E+02 -0.14202887702E+02  0.45964503474E+03  0.45767895772E+03 0.  0.
         13    1    3    3    0    0 -0.27644941422E+02 -0.16225597348E+02 -0.23573580127E+03  0.23790519287E+03  0.00000000000E+00 0.  1.
          3    1    3    3  501    0 -0.94891435515E+01  0.12968554328E+01  0.22153291357E+03  0.22173984187E+03  0.00000000000E+00 0.  1.
         21    1    1    2  502  501  0.37134084974E+02  0.14928741915E+02 -0.27558875927E+02  0.48593201627E+02  0.00000000000E+00 0. -1.
<scales pt_clust_4="550.00000" pt_clust_5="550.00000" pt_clust_6="40.02261"></scales>
<mgrwt>
<rscale>  0 0.30000000E+03</rscale>
<asrwt>  1 0.40022609E+02</asrwt>
<pdfrwt beam="1">  1        1 0.84813904E+00 0.30000000E+03</pdfrwt>
<pdfrwt beam="2">0</pdfrwt>
<totfact> 0.41313044E-04</totfact>
</mgrwt>
<clustering>
<clus scale="   40.023">  1  6  2 -1</clus>
<clus scale="  457.679">  4  5 -1 -1</clus>
<clus scale="  300.000">  1  4  2 -1</clus>
</clustering>
</event>
<event>
 6    1  0.1029244E-011  0.3000000E+03  0.7818608E-02  0.1093470E+00
          1   -1    0    0  502    0  0.00000000000E+00  0.00000000000E+00  0.23848856392E+03  0.23848856392E+03  0.00000000000E+00 0.  1.
         13   -1    0    0    0    0 -0.00000000000E+00 -0.00000000000E+00 -0.27500000000E+03  0.27500000000E+03  0.00000000000E+00 0.  1.
    9000005    2    1    2  501    0 -0.34248830992E+02 -0.54749914310E+00 -0.57435717721E+02  0.47334995730E+03  0.46860221747E+03 0.  0.
         13    1    3    3    0    0  0.15830501894E+03 -0.11349496339E+03 -0.13503151741E+03  0.23701286132E+03  0.00000000000E+00 0.  1.
          1    1    3    3  501    0 -0.19255384993E+03  0.11294746425E+03  0.77595799687E+02  0.23633709597E+03  0.00000000000E+00 0.  1.
         21    1    1    2  502  501  0.34248830992E+02  0.54749914310E+00  0.20924281642E+02  0.40138606625E+02  0.00000000000E+00 0.  1.
<scales pt_clust_4="550.00000" pt_clust_5="550.00000" pt_clust_6="34.25321"></scales>
<mgrwt>
<rscale>  0 0.30000000E+03</rscale>
<asrwt>  1 0.34253207E+02</asrwt>
<pdfrwt beam="1">  1        1 0.86723114E+00 0.30000000E+03</pdfrwt>
<pdfrwt beam="2">0</pdfrwt>
<totfact> 0.27159625E-04</totfact>
</mgrwt>
<clustering>
<clus scale="   34.253">  1  6  2 -1</clus>
<clus scale="  468.602">  4  5 -1 -1</clus>
<clus scale="  300.000">  1  4  2 -1</clus>
</clustering>
</event>
<event>
 6    1  0.1029244E-011  0.3000000E+03  0.7818608E-02  0.1093470E+00
          1   -1    0    0  502    0  0.00000000000E+00  0.00000000000E+00  0.22670802589E+03  0.22670802589E+03  0.00000000000E+00 0.  1.
         13   -1    0    0    0    0 -0.00000000000E+00 -0.00000000000E+00 -0.27500000000E+03  0.27500000000E+03  0.00000000000E+00 0.  1.
    9000005    2    1    2  501    0 -0.23449729358E+02  0.19482939911E+02 -0.41535719963E+02  0.47048108681E+03  0.46765132552E+03 0.  0.
         13    1    3    3    0    0  0.15541464940E+03  0.12307681977E+02  0.14431393967E+03  0.21244224031E+03  0.00000000000E+00 0.  1.
          3    1    3    3  501    0 -0.17886437876E+03  0.71752579336E+01 -0.18584965963E+03  0.25803884650E+03  0.00000000000E+00 0.  1.
         21    1    1    2  502  501  0.23449729358E+02 -0.19482939911E+02 -0.67562541424E+01  0.31226939084E+02  0.00000000000E+00 0. -1.
<scales pt_clust_4="550.00000" pt_clust_5="550.00000" pt_clust_6="30.48730"></scales>
<mgrwt>
<rscale>  0 0.30000000E+03</rscale>
<asrwt>  1 0.30487304E+02</asrwt>
<pdfrwt beam="1">  1        1 0.82439282E+00 0.30000000E+03</pdfrwt>
<pdfrwt beam="2">0</pdfrwt>
<totfact> 0.67890710E-04</totfact>
</mgrwt>
<clustering>
<clus scale="   30.487">  1  6  2 -1</clus>
<clus scale="  467.651">  4  5 -1 -1</clus>
<clus scale="  300.000">  1  4  2 -1</clus>
</clustering>
</event>
<event>
 6    1  0.1029244E-011  0.3000000E+03  0.7818608E-02  0.1093470E+00
          1   -1    0    0  502    0  0.00000000000E+00  0.00000000000E+00  0.23013497188E+03  0.23013497188E+03  0.00000000000E+00 0.  1.
         13   -1    0    0    0    0 -0.00000000000E+00 -0.00000000000E+00 -0.27500000000E+03  0.27500000000E+03  0.00000000000E+00 0.  1.
    9000005    2    1    2  501    0  0.25544940812E+02 -0.20898129491E+02 -0.64906898562E+02  0.46652211925E+03  0.46080441236E+03 0.  0.
         13    1    3    3    0    0  0.15713380509E+03 -0.18782918365E+03 -0.21760796206E+01  0.24489910219E+03  0.00000000000E+00 0.  1.
          1    1    3    3  501    0 -0.13158886428E+03  0.16693105415E+03 -0.62730818942E+02  0.22162301706E+03  0.00000000000E+00 0.  1.
         21    1    1    2  502  501 -0.25544940812E+02  0.20898129491E+02  0.20041870439E+02  0.38612852627E+02  0.00000000000E+00 0.  1.
<scales pt_clust_4="550.00000" pt_clust_5="550.00000" pt_clust_6="33.00418"></scales>
<mgrwt>
<rscale>  0 0.30000000E+03</rscale>
<asrwt>  1 0.33004179E+02</asrwt>
<pdfrwt beam="1">  1        1 0.83685444E+00 0.30000000E+03</pdfrwt>
<pdfrwt beam="2">0</pdfrwt>
<totfact> 0.53028770E-04</totfact>
</mgrwt>
<clustering>
<clus scale="   33.004">  1  6  2 -1</clus>
<clus scale="  460.804">  4  5 -1 -1</clus>
<clus scale="  300.000">  1  4  2 -1</clus>
</clustering>
</event>
<event>
 6    1  0.1029244E-011  0.3000000E+03  0.7818608E-02  0.1093470E+00
          1   -1    0    0  502    0  0.00000000000E+00  0.00000000000E+00  0.22487108564E+03  0.22487108564E+03  0.00000000000E+00 0.  1.
         13   -1    0    0    0    0 -0.00000000000E+00 -0.00000000000E+00 -0.27500000000E+03  0.27500000000E+03  0.00000000000E+00 0.  1.
    9000005    2    1    2  501    0  0.31683937365E+02 -0.15516580578E+02 -0.54975963928E+02  0.46426027199E+03  0.45964182509E+03 0.  0.
         13    1    3    3    0    0  0.26045155199E+02  0.20969547050E+03  0.47792978252E+02  0.21664419962E+03  0.00000000000E+00 0.  1.
          3    1    3    3  501    0  0.56387821656E+01 -0.22521205108E+03 -0.10276894218E+03  0.24761607236E+03  0.00000000000E+00 0.  1.
         21    1    1    2  502  501 -0.31683937365E+02  0.15516580578E+02  0.48470495706E+01  0.35610813657E+02  0.00000000000E+00 0.  1.
<scales pt_clust_4="550.00000" pt_clust_5="550.00000" pt_clust_6="35.27940"></scales>
<mgrwt>
<rscale>  0 0.30000000E+03</rscale>
<asrwt>  1 0.35279401E+02</asrwt>
<pdfrwt beam="1">  1        1 0.81771304E+00 0.30000000E+03</pdfrwt>
<pdfrwt beam="2">0</pdfrwt>
<totfact> 0.75524712E-04</totfact>
</mgrwt>
<clustering>
<clus scale="   35.279">  1  6  2 -1</clus>
<clus scale="  459.642">  4  5 -1 -1</clus>
<clus scale="  300.000">  1  4  2 -1</clus>
</clustering>
</event>
<event>
 6    1  0.1029244E-011  0.3000000E+03  0.7818608E-02  0.1093470E+00
          1   -1    0    0  502    0  0.00000000000E+00  0.00000000000E+00  0.24262183026E+03  0.24262183026E+03  0.00000000000E+00 0.  1.
         13   -1    0    0    0    0 -0.00000000000E+00 -0.00000000000E+00 -0.27500000000E+03  0.27500000000E+03  0.00000000000E+00 0.  1.
    9000005    2    1    2  501    0 -0.39943575347E+02 -0.59358930930E+00 -0.51796736468E+02  0.47320424035E+03  0.46866140189E+03 0.  0.
         13    1    3    3    0    0 -0.63063295860E+02 -0.22062795837E+03 -0.93996860683E+02  0.24796992785E+03  0.00000000000E+00 0.  1.
          3    1    3    3  501    0  0.23119720512E+02  0.22003436906E+03  0.42200124216E+02  0.22523431250E+03  0.00000000000E+00 0.  1.
         21    1    1    2  502  501  0.39943575347E+02  0.59358930930E+00  0.19418566732E+02  0.44417589913E+02  0.00000000000E+00 0.  1.
<scales pt_clust_4="550.00000" pt_clust_5="550.00000" pt_clust_6="39.94799"></scales>
<mgrwt>
<rscale>  0 0.30000000E+03</rscale>
<asrwt>  1 0.39947986E+02</asrwt>
<pdfrwt beam="1">  1        1 0.88226120E+00 0.30000000E+03</pdfrwt>
<pdfrwt beam="2">0</pdfrwt>
<totfact> 0.18025868E-04</totfact>
</mgrwt>
<clustering>
<clus scale="   39.948">  1  6  2 -1</clus>
<clus scale="  468.661">  4  5 -1 -1</clus>
<clus scale="  300.000">  1  4  2 -1</clus>
</clustering>
</event>
<event>
 6    1  0.1029244E-011  0.3000000E+03  0.7818608E-02  0.1093470E+00
          1   -1    0    0  502    0  0.00000000000E+00  0.00000000000E+00  0.22506319174E+03  0.22506319174E+03  0.00000000000E+00 0.  1.
         13   -1    0    0    0    0 -0.00000000000E+00 -0.00000000000E+00 -0.27500000000E+03  0.27500000000E+03  0.00000000000E+00 0.  1.
    9000005    2    1    2  501    0  0.30191864806E+02 -0.22424709877E+01 -0.69853144703E+02  0.46382456823E+03  0.45753381393E+03 0.  0.
         13    1    3    3    0    0  0.85873522046E+02 -0.25263440095E+02  0.18309217375E+03  0.20380198056E+03  0.00000000000E+00 0.  1.
          3    1    3    3  501    0 -0.55681657240E+02  0.23020969107E+02 -0.25294531845E+03  0.26002258767E+03  0.00000000000E+00 0.  1.
         21    1    1    2  502  501 -0.30191864806E+02  0.22424709877E+01  0.19916336446E+02  0.36238623512E+02  0.00000000000E+00 0. -1.
<scales pt_clust_4="550.00000" pt_clust_5="550.00000" pt_clust_6="30.27503"></scales>
<mgrwt>
<rscale>  0 0.30000000E+03</rscale>
<asrwt>  1 0.30275029E+02</asrwt>
<pdfrwt beam="1">  1        1 0.81841161E+00 0.30000000E+03</pdfrwt>
<pdfrwt beam="2">0</pdfrwt>
<totfact> 0.76706488E-04</totfact>
</mgrwt>
<clustering>
<clus scale="   30.275">  1  6  2 -1</clus>
<clus scale="  457.534">  4  5 -1 -1</clus>
<clus scale="  300.000">  1  4  2 -1</clus>
</clustering>
</event>
<event>
 6    1  0.1029244E-011  0.3000000E+03  0.7818608E-02  0.1093470E+00
          1   -1    0    0  502    0  0.00000000000E+00  0.00000000000E+00  0.23236389944E+03  0.23236389944E+03  0.00000000000E+00 0.  1.
         13   -1    0    0    0    0 -0.00000000000E+00 -0.00000000000E+00 -0.27500000000E+03  0.27500000000E+03  0.00000000000E+00 0.  1.
    9000005    2    1    2  501    0 -0.36367739806E+02 -0.11274712884E+02 -0.61969024720E+02  0.46466151537E+03  0.45893401725E+03 0.  0.
         13    1    3    3    0    0 -0.19678032350E+03  0.11270653233E+03 -0.11617823524E+03  0.25479921604E+03  0.00000000000E+00 0.  1.
          3    1    3    3  501    0  0.16041258370E+03 -0.12398124522E+03  0.54209210521E+02  0.20986229933E+03  0.00000000000E+00 0.  1.
         21    1    1    2  502  501  0.36367739806E+02  0.11274712884E+02  0.19332924163E+02  0.42702384077E+02  0.00000000000E+00 0.  1.
<scales pt_clust_4="550.00000" pt_clust_5="550.00000" pt_clust_6="38.07534"></scales>
<mgrwt>
<rscale>  0 0.30000000E+03</rscale>
<asrwt>  1 0.38075342E+02</asrwt>
<pdfrwt beam="1">  1        1 0.84495963E+00 0.30000000E+03</pdfrwt>
<pdfrwt beam="2">0</pdfrwt>
<totfact> 0.44517724E-04</totfact>
</mgrwt>
<clustering>
<clus scale="   38.075">  1  6  2 -1</clus>
<clus scale="  458.934">  4  5 -1 -1</clus>
<clus scale="  300.000">  1  4  2 -1</clus>
</clustering>
</event>
<event>
 6    1  0.1029244E-011  0.3000000E+03  0.7818608E-02  0.1093470E+00
          1   -1    0    0  502    0  0.00000000000E+00  0.00000000000E+00  0.25529372803E+03  0.25529372803E+03  0.00000000000E+00 0.  1.
         13   -1    0    0    0    0 -0.00000000000E+00 -0.00000000000E+00 -0.27500000000E+03  0.27500000000E+03  0.00000000000E+00 0.  1.
    9000005    2    1    2  501    0 -0.16359578612E+00  0.46425702060E+02 -0.42168610835E+02  0.47871922616E+03  0.47459301847E+03 0.  0.
         13    1    3    3    0    0  0.82177407755E+02  0.24678982956E+03 -0.28409133582E+02  0.26165898645E+03  0.00000000000E+00 0.  1.
          1    1    3    3  501    0 -0.82341003541E+02 -0.20036412750E+03 -0.13759477253E+02  0.21706023972E+03  0.00000000000E+00 0.  1.
         21    1    1    2  502  501  0.16359578612E+00 -0.46425702060E+02  0.22462338865E+02  0.51574501865E+02  0.00000000000E+00 0. -1.
<scales pt_clust_4="550.00000" pt_clust_5="550.00000" pt_clust_6="46.42599"></scales>
<mgrwt>
<rscale>  0 0.30000000E+03</rscale>
<asrwt>  1 0.46425990E+02</asrwt>
<pdfrwt beam="1">  1        1 0.92834083E+00 0.30000000E+03</pdfrwt>
<pdfrwt beam="2">0</pdfrwt>
<totfact> 0.26665055E-05</totfact>
</mgrwt>
<clustering>
<clus scale="   46.426">  1  6  2 -1</clus>
<clus scale="  474.593">  4  5 -1 -1</clus>
<clus scale="  300.000">  1  4  2 -1</clus>
</clustering>
</event>
<event>
 6    1  0.1029244E-011  0.3000000E+03  0.7818608E-02  0.1093470E+00
          1   -1    0    0  502    0  0.00000000000E+00  0.00000000000E+00  0.22698524361E+03  0.22698524361E+03  0.00000000000E+00 0.  1.
         13   -1    0    0    0    0 -0.00000000000E+00 -0.00000000000E+00 -0.27500000000E+03  0.27500000000E+03  0.00000000000E+00 0.  1.
    9000005    2    1    2  501    0  0.78751529059E-01 -0.34342145766E+02 -0.54761004428E+02  0.46698665735E+03  0.46249149328E+03 0.  0.
         13    1    3    3    0    0 -0.87755290136E+01  0.14596526448E+03 -0.19119573297E+03  0.24070454223E+03  0.00000000000E+00 0.  1.
          3    1    3    3  501    0  0.88542805427E+01 -0.18030741024E+03  0.13643472854E+03  0.22628211512E+03  0.00000000000E+00 0.  1.
         21    1    1    2  502  501 -0.78751529059E-01  0.34342145766E+02  0.67462480353E+01  0.34998586259E+02  0.00000000000E+00 0. -1.
<scales pt_clust_4="550.00000" pt_clust_5="550.00000" pt_clust_6="34.34224"></scales>
<mgrwt>
<rscale>  0 0.30000000E+03</rscale>
<asrwt>  1 0.34342236E+02</asrwt>
<pdfrwt beam="1">  1        1 0.82540089E+00 0.30000000E+03</pdfrwt>
<pdfrwt beam="2">0</pdfrwt>
<totfact> 0.65012369E-04</totfact>
</mgrwt>
<clustering>
<clus scale="   34.342">  1  6  2 -1</clus>
<clus scale="  462.491">  4  5 -1 -1</clus>
<clus scale="  300.000">  1  4  2 -1</clus>
</clustering>
</event>
<event>
 6    1  0.1029244E-011  0.3000000E+03  0.7818608E-02  0.1093470E+00
          1   -1    0    0  502    0  0.00000000000E+00  0.00000000000E+00  0.23134402843E+03  0.23134402843E+03  0.00000000000E+00 0.  1.
         13   -1    0    0    0    0 -0.00000000000E+00 -0.00000000000E+00 -0.27500000000E+03  0.27500000000E+03  0.00000000000E+00 0.  1.
    9000005    2    1    2  501    0  0.15458212797E+02  0.39295925293E+02 -0.39925487552E+02  0.46395248920E+03  0.46029853529E+03 0.  0.
         13    1    3    3    0    0  0.93273597689E+00 -0.12637266483E+03 -0.19774854044E+03  0.23468149833E+03  0.00000000000E+00 0.  1.
          1    1    3    3  501    0  0.14525476820E+02  0.16566859012E+03  0.15782305289E+03  0.22927099087E+03  0.00000000000E+00 0.  1.
         21    1    1    2  502  501 -0.15458212797E+02 -0.39295925293E+02 -0.37304840192E+01  0.42391539233E+02  0.00000000000E+00 0. -1.
<scales pt_clust_4="550.00000" pt_clust_5="550.00000" pt_clust_6="42.22710"></scales>
<mgrwt>
<rscale>  0 0.30000000E+03</rscale>
<asrwt>  1 0.42227099E+02</asrwt>
<pdfrwt beam="1">  1        1 0.84125101E+00 0.30000000E+03</pdfrwt>
<pdfrwt beam="2">0</pdfrwt>
<totfact> 0.46946448E-04</totfact>
</mgrwt>
<clustering>
<clus scale="   42.227">  1  6  2 -1</clus>
<clus scale="  460.299">  4  5 -1 -1</clus>
<clus scale="  300.000">  1  4  2 -1</clus>
</clustering>
</event>
<event>
 6    1  0.1029244E-011  0.3000000E+03  0.7818608E-02  0.1093470E+00
          1   -1    0    0  502    0  0.00000000000E+00  0.00000000000E+00  0.23427207295E+03  0.23427207295E+03  0.00000000000E+00 0.  1.
         13   -1    0    0    0    0 -0.00000000000E+00 -0.00000000000E+00 -0.27500000000E+03  0.27500000000E+03  0.00000000000E+00 0.  1.
    9000005    2    1    2  501    0  0.28818692845E+02  0.10137578383E+02 -0.46448742420E+02  0.47819128658E+03  0.47494855862E+03 0.  0.
         13    1    3    3    0    0 -0.35638953958E+02  0.13681030824E+03  0.16884283825E+03  0.22021602918E+03  0.00000000000E+00 0.  1.
          1    1    3    3  501    0  0.64457646803E+02 -0.12667272986E+03 -0.21529158067E+03  0.25797525740E+03  0.00000000000E+00 0.  1.
         21    1    1    2  502  501 -0.28818692845E+02 -0.10137578383E+02  0.57208153709E+01  0.31080786368E+02  0.00000000000E+00 0. -1.
<scales pt_clust_4="550.00000" pt_clust_5="550.00000" pt_clust_6="30.54976"></scales>
<mgrwt>
<rscale>  0 0.30000000E+03</rscale>
<asrwt>  1 0.30549755E+02</asrwt>
<pdfrwt beam="1">  1        1 0.85189845E+00 0.30000000E+03</pdfrwt>
<pdfrwt beam="2">0</pdfrwt>
<totfact> 0.40066003E-04</totfact>
</mgrwt>
<clustering>
<clus scale="   30.550">  1  6  2 -1</clus>
<clus scale="  474.949">  4  5 -1 -1</clus>
<clus scale="  300.000">  1  4  2 -1</clus>
</clustering>
</event>
<event>
 6    1  0.1029244E-011  0.3000000E+03  0.7818608E-02  0.1093470E+00
          1   -1    0    0  502    0  0.00000000000E+00  0.00000000000E+00  0.24731482890E+03  0.24731482890E+03  0.00000000000E+00 0.  1.
         13   -1    0    0    0    0 -0.00000000000E+00 -0.00000000000E+00 -0.27500000000E+03  0.27500000000E+03  0.00000000000E+00 0.  1.
    9000005    2    1    2  501    0 -0.46087495359E+02  0.30790930802E+02 -0.42699942228E+02  0.46489025228E+03  0.45959495532E+03 0.  0.
         13    1    3    3    0    0  0.62840890992E+01  0.94275882331E+02  0.19318904948E+03  0.21505683110E+03  0.00000000000E+00 0.  1.
          3    1    3    3  501    0 -0.52371584458E+02 -0.63484951528E+02 -0.23588899171E+03  0.24983342118E+03  0.00000000000E+00 0.  1.
         21    1    1    2  502  501  0.46087495359E+02 -0.30790930802E+02  0.15014771133E+02  0.57424576623E+02  0.00000000000E+00 0.  1.
<scales pt_clust_4="550.00000" pt_clust_5="550.00000" pt_clust_6="55.42688"></scales>
<mgrwt>
<rscale>  0 0.30000000E+03</rscale>
<asrwt>  1 0.55426877E+02</asrwt>
<pdfrwt beam="1">  1        1 0.89932665E+00 0.30000000E+03</pdfrwt>
<pdfrwt beam="2">0</pdfrwt>
<totfact> 0.10365865E-04</totfact>
</mgrwt>
<clustering>
<clus scale="   55.427">  1  6  2 -1</clus>
<clus scale="  459.595">  4  5 -1 -1</clus>
<clus scale="  300.000">  1  4  2 -1</clus>
</clustering>
</event>
<event>
 6    1  0.1029244E-011  0.3000000E+03  0.7818608E-02  0.1093470E+00
          1   -1    0    0  502    0  0.00000000000E+00  0.00000000000E+00  0.23209758920E+03  0.23209758920E+03  0.00000000000E+00 0.  1.
         13   -1    0    0    0    0 -0.00000000000E+00 -0.00000000000E+00 -0.27500000000E+03  0.27500000000E+03  0.00000000000E+00 0.  1.
    9000005    2    1    2  501    0  0.29982256094E+02  0.14642293505E+02 -0.35177766537E+02  0.47284846413E+03  0.47035610162E+03 0.  0.
         13    1    3    3    0    0  0.91915511469E+02  0.33584961419E+02  0.20335693237E+03  0.22567776325E+03  0.00000000000E+00 0.  1.
          1    1    3    3  501    0 -0.61933255375E+02 -0.18942667914E+02 -0.23853469891E+03  0.24717070088E+03  0.00000000000E+00 0.  1.
         21    1    1    2  502  501 -0.29982256094E+02 -0.14642293505E+02 -0.77246442605E+01  0.34249125077E+02  0.00000000000E+00 0. -1.
<scales pt_clust_4="550.00000" pt_clust_5="550.00000" pt_clust_6="33.36665"></scales>
<mgrwt>
<rscale>  0 0.30000000E+03</rscale>
<asrwt>  1 0.33366653E+02</asrwt>
<pdfrwt beam="1">  1        1 0.84399123E+00 0.30000000E+03</pdfrwt>
<pdfrwt beam="2">0</pdfrwt>
<totfact> 0.46516429E-04</totfact>
</mgrwt>
<clustering>
<clus scale="   33.367">  1  6  2 -1</clus>
<clus scale="  470.356">  4  5 -1 -1</clus>
<clus scale="  300.000">  1  4  2 -1</clus>
</clustering>
</event>
<event>
 6    1  0.1029244E-011  0.3000000E+03  0.7818608E-02  0.1093470E+00
          1   -1    0    0  502    0  0.00000000000E+00  0.00000000000E+00  0.24888408490E+03  0.24888408490E+03  0.00000000000E+00 0.  1.
         13   -1    0    0    0    0 -0.00000000000E+00 -0.00000000000E+00 -0.27500000000E+03  0.27500000000E+03  0.00000000000E+00 0.  1.
    9000005    2    1    2  501    0 -0.28170623195E+02  0.20046498618E+02 -0.39118650858E+02  0.48694471221E+03  0.48413782932E+03 0.  0.
         13    1    3    3    0    0  0.16457708890E+03  0.29537451508E+02  0.14418128274E+03  0.22078569139E+03  0.00000000000E+00 0.  1.
          1    1    3    3  501    0 -0.19274771209E+03 -0.94909528906E+01 -0.18329993359E+03  0.26615902081E+03  0.00000000000E+00 0.  1.
         21    1    1    2  502  501  0.28170623195E+02 -0.20046498618E+02  0.13002735762E+02  0.36939372698E+02  0.00000000000E+00 0. -1.
<scales pt_clust_4="550.00000" pt_clust_5="550.00000" pt_clust_6="34.57522"></scales>
<mgrwt>
<rscale>  0 0.30000000E+03</rscale>
<asrwt>  1 0.34575224E+02</asrwt>
<pdfrwt beam="1">  1        1 0.90503304E+00 0.30000000E+03</pdfrwt>
<pdfrwt beam="2">0</pdfrwt>
<totfact> 0.92543271E-05</totfact>
</mgrwt>
<clustering>
<clus scale="   34.575">  1  6  2 -1</clus>
<clus scale="  484.138">  4  5 -1 -1</clus>
<clus scale="  300.000">  1  4  2 -1</clus>
</clustering>
</event>
<event>
 6    1  0.1029244E-011  0.3000000E+03  0.7818608E-02  0.1093470E+00
          1   -1    0    0  502    0  0.00000000000E+00  0.00000000000E+00  0.23346141836E+03  0.23346141836E+03  0.00000000000E+00 0.  1.
         13   -1    0    0    0    0 -0.00000000000E+00 -0.00000000000E+00 -0.27500000000E+03  0.27500000000E+03  0.00000000000E+00 0.  1.
    9000005    2    1    2  501    0 -0.25058216025E+02 -0.19635334267E+02 -0.56809253728E+02  0.47315343105E+03  0.46865063476E+03 0.  0.
         13    1    3    3    0    0 -0.23344804293E+03  0.22007411412E+02  0.42964971874E+02  0.23838687823E+03  0.00000000000E+00 0.  1.
          1    1    3    3  501    0  0.20838982691E+03 -0.41642745679E+02 -0.99774225602E+02  0.23476655281E+03  0.00000000000E+00 0.  1.
         21    1    1    2  502  501  0.25058216025E+02  0.19635334267E+02  0.15270672086E+02  0.35307987313E+02  0.00000000000E+00 0.  1.
<scales pt_clust_4="550.00000" pt_clust_5="550.00000" pt_clust_6="31.83490"></scales>
<mgrwt>
<rscale>  0 0.30000000E+03</rscale>
<asrwt>  1 0.31834895E+02</asrwt>
<pdfrwt beam="1">  1        1 0.84895061E+00 0.30000000E+03</pdfrwt>
<pdfrwt beam="2">0</pdfrwt>
<totfact> 0.42377267E-04</totfact>
</mgrwt>
<clustering>
<clus scale="   31.835">  1  6  2 -1</clus>
<clus scale="  468.651">  4  5 -1 -1</clus>
<clus scale="  300.000">  1  4  2 -1</clus>
</clustering>
</event>
<event>
 6    1  0.1029244E-011  0.3000000E+03  0.7818608E-02  0.1093470E+00
          1   -1    0    0  502    0  0.00000000000E+00  0.00000000000E+00  0.24447965299E+03  0.24447965299E+03  0.00000000000E+00 0.  1.
         13   -1    0    0    0    0 -0.00000000000E+00 -0.00000000000E+00 -0.27500000000E+03  0.27500000000E+03  0.00000000000E+00 0.  1.
    9000005    2    1    2  501    0  0.14049087964E+02  0.28665865041E+02 -0.48387076339E+01  0.47850825697E+03  0.47741766851E+03 0.  0.
         13    1    3    3    0    0 -0.15518754136E+03 -0.27595571152E+02 -0.17254282443E+03  0.23370005306E+03  0.00000000000E+00 0.  1.
          1    1    3    3  501    0  0.16923662933E+03  0.56261436193E+02  0.16770411679E+03  0.24480820390E+03  0.00000000000E+00 0.  1.
         21    1    1    2  502  501 -0.14049087964E+02 -0.28665865041E+02 -0.25681639376E+02  0.40971396025E+02  0.00000000000E+00 0.  1.
<scales pt_clust_4="550.00000" pt_clust_5="550.00000" pt_clust_6="31.92350"></scales>
<mgrwt>
<rscale>  0 0.30000000E+03</rscale>
<asrwt>  1 0.31923498E+02</asrwt>
<pdfrwt beam="1">  1        1 0.88901692E+00 0.30000000E+03</pdfrwt>
<pdfrwt beam="2">0</pdfrwt>
<totfact> 0.15205202E-04</totfact>
</mgrwt>
<clustering>
<clus scale="   31.923">  1  6  2 -1</clus>
<clus scale="  477.418">  4  5 -1 -1</clus>
<clus scale="  300.000">  1  4  2 -1</clus>
</clustering>
</event>
<event>
 6    1  0.1029244E-011  0.3000000E+03  0.7818608E-02  0.1093470E+00
          1   -1    0    0  502    0  0.00000000000E+00  0.00000000000E+00  0.22853258208E+03  0.22853258208E+03  0.00000000000E+00 0.  1.
         13   -1    0    0    0    0 -0.00000000000E+00 -0.00000000000E+00 -0.27500000000E+03  0.27500000000E+03  0.00000000000E+00 0.  1.
    9000005    2    1    2  501    0  0.20258364321E+02 -0.24375535720E+02 -0.45125800845E+02  0.47180927830E+03  0.46857559595E+03 0.  0.
         13    1    3    3    0    0  0.19086570823E+03  0.27294184974E+02  0.12141996899E+03  0.22785411996E+03  0.00000000000E+00 0.  1.
          1    1    3    3  501    0 -0.17060734391E+03 -0.51669720694E+02 -0.16654576984E+03  0.24395515834E+03  0.00000000000E+00 0.  1.
         21    1    1    2  502  501 -0.20258364321E+02  0.24375535720E+02 -0.13416170726E+01  0.31723303784E+02  0.00000000000E+00 0.  1.
<scales pt_clust_4="550.00000" pt_clust_5="550.00000" pt_clust_6="31.69492"></scales>
<mgrwt>
<rscale>  0 0.30000000E+03</rscale>
<asrwt>  1 0.31694922E+02</asrwt>
<pdfrwt beam="1">  1        1 0.83102757E+00 0.30000000E+03</pdfrwt>
<pdfrwt beam="2">0</pdfrwt>
<totfact> 0.59074235E-04</totfact>
</mgrwt>
<clustering>
<clus scale="   31.695">  1  6  2 -1</clus>
<clus scale="  468.576">  4  5 -1 -1</clus>
<clus scale="  300.000">  1  4  2 -1</clus>
</clustering>
</event>
<event>
 6    1  0.1029244E-011  0.3000000E+03  0.7818608E-02  0.1093470E+00
          1   -1    0    0  502    0  0.00000000000E+00  0.00000000000E+00  0.21986821277E+03  0.21986821277E+03  0.00000000000E+00 0.  1.
         13   -1    0    0    0    0 -0.00000000000E+00 -0.00000000000E+00 -0.27500000000E+03  0.27500000000E+03  0.00000000000E+00 0.  1.
    9000005    2    1    2  501    0 -0.29188888599E+02  0.11516352694E+02 -0.42290224211E+02  0.46096359159E+03  0.45794579604E+03 0.  0.
         13    1    3    3    0    0  0.16455885519E+03 -0.66897657418E+02 -0.14385383133E+03  0.22858004764E+03  0.00000000000E+00 0.  1.
          1    1    3    3  501    0 -0.19374774379E+03  0.78414010112E+02  0.10156360712E+03  0.23238354395E+03  0.00000000000E+00 0.  1.
         21    1    1    2  502  501  0.29188888599E+02 -0.11516352694E+02 -0.12841563016E+02  0.33904621185E+02  0.00000000000E+00 0. -1.
<scales pt_clust_4="550.00000" pt_clust_5="550.00000" pt_clust_6="31.37863"></scales>
<mgrwt>
<rscale>  0 0.30000000E+03</rscale>
<asrwt>  1 0.31378633E+02</asrwt>
<pdfrwt beam="1">  1        1 0.79952077E+00 0.30000000E+03</pdfrwt>
<pdfrwt beam="2">0</pdfrwt>
<totfact> 0.10671299E-03</totfact>
</mgrwt>
<clustering>
<clus scale="   31.379">  1  6  2 -1</clus>
<clus scale="  457.946">  4  5 -1 -1</clus>
<clus scale="  300.000">  1  4  2 -1</clus>
</clustering>
</event>
<event>
 6    1  0.1029244E-011  0.3000000E+03  0.7818608E-02  0.1093470E+00
          1   -1    0    0  502    0  0.00000000000E+00  0.00000000000E+00  0.23765498276E+03  0.23765498276E+03  0.00000000000E+00 0.  1.
         13   -1    0    0    0    0 -0.00000000000E+00 -0.00000000000E+00 -0.27500000000E+03  0.27500000000E+03  0.00000000000E+00 0.  1.
    9000005    2    1    2  501    0 -0.52408514812E+00 -0.41692306465E+02 -0.51642534295E+02  0.46857616611E+03  0.46385142989E+03 0.  0.
         13    1    3    3    0    0  0.12342378945E+03  0.78841606845E+02  0.14544224037E+03  0.20640464156E+03  0.00000000000E+00 0.  1.
          3    1    3    3  501    0 -0.12394787460E+03 -0.12053391331E+03 -0.19708477467E+03  0.26217152455E+03  0.00000000000E+00 0.  1.
         21    1    1    2  502  501  0.52408514812E+00  0.41692306465E+02  0.14297517054E+02  0.44078816653E+02  0.00000000000E+00 0.  1.
<scales pt_clust_4="550.00000" pt_clust_5="550.00000" pt_clust_6="41.69560"></scales>
<mgrwt>
<rscale>  0 0.30000000E+03</rscale>
<asrwt>  1 0.41695600E+02</asrwt>
<pdfrwt beam="1">  1        1 0.86419994E+00 0.30000000E+03</pdfrwt>
<pdfrwt beam="2">0</pdfrwt>
<totfact> 0.28219483E-04</totfact>
</mgrwt>
<clustering>
<clus scale="   41.696">  1  6  2 -1</clus>
<clus scale="  463.851">  4  5 -1 -1</clus>
<clus scale="  300.000">  1  4  2 -1</clus>
</clustering>
</event>
<event>
 6    1  0.1029244E-011  0.3000000E+03  0.7818608E-02  0.1093470E+00
          1   -1    0    0  502    0  0.00000000000E+00  0.00000000000E+00  0.22963087076E+03  0.22963087076E+03  0.00000000000E+00 0.  1.
         13   -1    0    0    0    0 -0.00000000000E+00 -0.00000000000E+00 -0.27500000000E+03  0.27500000000E+03  0.00000000000E+00 0.  1.
    9000005    2    1    2  501    0  0.48151898017E+01 -0.36014558170E+02 -0.65264336669E+02  0.46320559186E+03  0.45714303258E+03 0.  0.
         13    1    3    3    0    0 -0.12565814731E+03  0.30016223250E+02  0.15314683872E+03  0.20036191717E+03  0.00000000000E+00 0.  1.
          3    1    3    3  501    0  0.13047333711E+03 -0.66030781420E+02 -0.21841117538E+03  0.26284367469E+03  0.00000000000E+00 0.  1.
         21    1    1    2  502  501 -0.48151898017E+01  0.36014558170E+02  0.19895207426E+02  0.41425278895E+02  0.00000000000E+00 0.  1.
<scales pt_clust_4="550.00000" pt_clust_5="550.00000" pt_clust_6="36.33503"></scales>
<mgrwt>
<rscale>  0 0.30000000E+03</rscale>
<asrwt>  1 0.36335031E+02</asrwt>
<pdfrwt beam="1">  1        1 0.83502135E+00 0.30000000E+03</pdfrwt>
<pdfrwt beam="2">0</pdfrwt>
<totfact> 0.53703566E-04</totfact>
</mgrwt>
<clustering>
<clus scale="   36.335">  1  6  2 -1</clus>
<clus scale="  457.143">  4  5 -1 -1</clus>
<clus scale="  300.000">  1  4  2 -1</clus>
</clustering>
</event>
<event>
 6    1  0.1029244E-011  0.3000000E+03  0.7818608E-02  0.1093470E+00
          1   -1    0    0  502    0  0.00000000000E+00  0.00000000000E+00  0.25749142178E+03  0.25749142178E+03  0.00000000000E+00 0.  1.
         13   -1    0    0    0    0 -0.00000000000E+00 -0.00000000000E+00 -0.27500000000E+03  0.27500000000E+03  0.00000000000E+00 0.  1.
    9000005    2    1    2  501    0 -0.22019388343E+02 -0.20517830124E+02 -0.51543662041E+02  0.48705771462E+03  0.48338662937E+03 0.  0.
         13    1    3    3    0    0  0.76203238862E+02 -0.17265404471E+03 -0.18331673551E+03  0.26309955965E+03  0.00000000000E+00 0.  1.
          3    1    3    3  501    0 -0.98222627204E+02  0.15213621459E+03  0.13177307347E+03  0.22395815497E+03  0.00000000000E+00 0.  1.
         21    1    1    2  502  501  0.22019388343E+02  0.20517830124E+02  0.34035083821E+02  0.45433707165E+02  0.00000000000E+00 0.  1.
<scales pt_clust_4="550.00000" pt_clust_5="550.00000" pt_clust_6="30.09709"></scales>
<mgrwt>
<rscale>  0 0.30000000E+03</rscale>
<asrwt>  1 0.30097090E+02</asrwt>
<pdfrwt beam="1">  1        1 0.93633244E+00 0.30000000E+03</pdfrwt>
<pdfrwt beam="2">0</pdfrwt>
<totfact> 0.22320061E-05</totfact>
</mgrwt>
<clustering>
<clus scale="   30.097">  1  6  2 -1</clus>
<clus scale="  483.387">  4  5 -1 -1</clus>
<clus scale="  300.000">  1  4  2 -1</clus>
</clustering>
</event>
<event>
 6    1  0.1029244E-011  0.3000000E+03  0.7818608E-02  0.1093470E+00
          1   -1    0    0  502    0  0.00000000000E+00  0.00000000000E+00  0.24482486019E+03  0.24482486019E+03  0.00000000000E+00 0.  1.
         13   -1    0    0    0    0 -0.00000000000E+00 -0.00000000000E+00 -0.27500000000E+03  0.27500000000E+03  0.00000000000E+00 0.  1.
    9000005    2    1    2  501    0 -0.66327326782E+01  0.31595518845E+02 -0.92548873138E+01  0.48135504191E+03  0.48018200037E+03 0.  0.
         13    1    3    3    0    0 -0.17606456843E+03 -0.14608216293E+03  0.36338771836E+02  0.23164463500E+03  0.00000000000E+00 0.  1.
          1    1    3    3  501    0  0.16943183575E+03  0.17767768178E+03 -0.45593659150E+02  0.24971040692E+03  0.00000000000E+00 0.  1.
         21    1    1    2  502  501  0.66327326782E+01 -0.31595518845E+02 -0.20920252495E+02  0.38469818277E+02  0.00000000000E+00 0.  1.
<scales pt_clust_4="550.00000" pt_clust_5="550.00000" pt_clust_6="32.28422"></scales>
<mgrwt>
<rscale>  0 0.30000000E+03</rscale>
<asrwt>  1 0.32284222E+02</asrwt>
<pdfrwt beam="1">  1        1 0.89027222E+00 0.30000000E+03</pdfrwt>
<pdfrwt beam="2">0</pdfrwt>
<totfact> 0.14596132E-04</totfact>
</mgrwt>
<clustering>
<clus scale="   32.284">  1  6  2 -1</clus>
<clus scale="  480.182">  4  5 -1 -1</clus>
<clus scale="  300.000">  1  4  2 -1</clus>
</clustering>
</event>
<event>
 6    1  0.1029244E-011  0.3000000E+03  0.7818608E-02  0.1093470E+00
          1   -1    0    0  502    0  0.00000000000E+00  0.00000000000E+00  0.22414363760E+03  0.22414363760E+03  0.00000000000E+00 0.  1.
         13   -1    0    0    0    0 -0.00000000000E+00 -0.00000000000E+00 -0.27500000000E+03  0.27500000000E+03  0.00000000000E+00 0.  1.
    9000005    2    1    2  501    0 -0.20630726750E+02 -0.26074945847E+02 -0.58423009404E+02  0.46504402126E+03  0.46015993307E+03 0.  0.
         13    1    3    3    0    0  0.10088450396E+02  0.20459014306E+03 -0.10115078406E+03  0.22845214944E+03  0.00000000000E+00 0.  1.
          3    1    3    3  501    0 -0.30719177146E+02 -0.23066508891E+03  0.42727774656E+02  0.23659187182E+03  0.00000000000E+00 0.  1.
         21    1    1    2  502  501  0.20630726750E+02  0.26074945847E+02  0.75666470014E+01  0.34099616332E+02  0.00000000000E+00 0.  1.
<scales pt_clust_4="550.00000" pt_clust_5="550.00000" pt_clust_6="33.24951"></scales>
<mgrwt>
<rscale>  0 0.30000000E+03</rscale>
<asrwt>  1 0.33249507E+02</asrwt>
<pdfrwt beam="1">  1        1 0.81506777E+00 0.30000000E+03</pdfrwt>
<pdfrwt beam="2">0</pdfrwt>
<totfact> 0.80274093E-04</totfact>
</mgrwt>
<clustering>
<clus scale="   33.250">  1  6  2 -1</clus>
<clus scale="  460.160">  4  5 -1 -1</clus>
<clus scale="  300.000">  1  4  2 -1</clus>
</clustering>
</event>
<event>
 6    1  0.1029244E-011  0.3000000E+03  0.7818608E-02  0.1093470E+00
          1   -1    0    0  502    0  0.00000000000E+00  0.00000000000E+00  0.22424406832E+03  0.22424406832E+03  0.00000000000E+00 0.  1.
         13   -1    0    0    0    0 -0.00000000000E+00 -0.00000000000E+00 -0.27500000000E+03  0.27500000000E+03  0.00000000000E+00 0.  1.
    9000005    2    1    2  501    0  0.33838470966E+02 -0.64485067623E+01 -0.43642210022E+02  0.46406978237E+03  0.46072713731E+03 0.  0.
         13    1    3    3    0    0 -0.73511938782E+02  0.68582406651E+02 -0.22146691357E+03  0.24321830822E+03  0.00000000000E+00 0.  1.
          3    1    3    3  501    0  0.10735040975E+03 -0.75030913413E+02  0.17782470355E+03  0.22085147415E+03  0.00000000000E+00 0.  1.
         21    1    1    2  502  501 -0.33838470966E+02  0.64485067623E+01 -0.71137216534E+01  0.35174285956E+02  0.00000000000E+00 0.  1.
<scales pt_clust_4="550.00000" pt_clust_5="550.00000" pt_clust_6="34.44745"></scales>
<mgrwt>
<rscale>  0 0.30000000E+03</rscale>
<asrwt>  1 0.34447446E+02</asrwt>
<pdfrwt beam="1">  1        1 0.81543298E+00 0.30000000E+03</pdfrwt>
<pdfrwt beam="2">0</pdfrwt>
<totfact> 0.79199900E-04</totfact>
</mgrwt>
<clustering>
<clus scale="   34.447">  1  6  2 -1</clus>
<clus scale="  460.727">  4  5 -1 -1</clus>
<clus scale="  300.000">  1  4  2 -1</clus>
</clustering>
</event>
<event>
 6    1  0.1029244E-011  0.3000000E+03  0.7818608E-02  0.1093470E+00
          1   -1    0    0  502    0  0.00000000000E+00  0.00000000000E+00  0.24680959159E+03  0.24680959159E+03  0.00000000000E+00 0.  1.
         13   -1    0    0    0    0 -0.00000000000E+00 -0.00000000000E+00 -0.27500000000E+03  0.27500000000E+03  0.00000000000E+00 0.  1.
    9000005    2    1    2  501    0  0.27255817370E+02 -0.13125712986E+02 -0.13740466155E+02  0.48828400803E+03  0.48715224331E+03 0.  0.
         13    1    3    3    0    0  0.64731453923E+02  0.20640556695E+03 -0.11346395487E+03  0.24426929453E+03  0.00000000000E+00 0.  1.
          1    1    3    3  501    0 -0.37475636554E+02 -0.21953127993E+03  0.99723488713E+02  0.24401471350E+03  0.00000000000E+00 0.  1.
         21    1    1    2  502  501 -0.27255817370E+02  0.13125712986E+02 -0.14449942257E+02  0.33525583561E+02  0.00000000000E+00 0. -1.
<scales pt_clust_4="550.00000" pt_clust_5="550.00000" pt_clust_6="30.25169"></scales>
<mgrwt>
<rscale>  0 0.30000000E+03</rscale>
<asrwt>  1 0.30251691E+02</asrwt>
<pdfrwt beam="1">  1        1 0.89748942E+00 0.30000000E+03</pdfrwt>
<pdfrwt beam="2">0</pdfrwt>
<totfact> 0.12157585E-04</totfact>
</mgrwt>
<clustering>
<clus scale="   30.252">  1  6  2 -1</clus>
<clus scale="  487.152">  4  5 -1 -1</clus>
<clus scale="  300.000">  1  4  2 -1</clus>
</clustering>
</event>
<event>
 6    1  0.1029244E-011  0.3000000E+03  0.7818608E-02  0.1093470E+00
          1   -1    0    0  502    0  0.00000000000E+00  0.00000000000E+00  0.22487509246E+03  0.22487509246E+03  0.00000000000E+00 0.  1.
         13   -1    0    0    0    0 -0.00000000000E+00 -0.00000000000E+00 -0.27500000000E+03  0.27500000000E+03  0.00000000000E+00 0.  1.
    9000005    2    1    2  501    0  0.13463960548E+02 -0.31347283818E+02 -0.52131084668E+02  0.46569973316E+03  0.46151344622E+03 0.  0.
         13    1    3    3    0    0  0.88543500354E+02  0.69748588514E+02 -0.22510230545E+03  0.25174563547E+03  0.00000000000E+00 0.  1.
          3    1    3    3  501    0 -0.75079539806E+02 -0.10109587233E+03  0.17297122079E+03  0.21395409770E+03  0.00000000000E+00 0.  1.
         21    1    1    2  502  501 -0.13463960548E+02  0.31347283818E+02  0.20061771260E+01  0.34175359297E+02  0.00000000000E+00 0. -1.
<scales pt_clust_4="550.00000" pt_clust_5="550.00000" pt_clust_6="34.11642"></scales>
<mgrwt>
<rscale>  0 0.30000000E+03</rscale>
<asrwt>  1 0.34116425E+02</asrwt>
<pdfrwt beam="1">  1        1 0.81772761E+00 0.30000000E+03</pdfrwt>
<pdfrwt beam="2">0</pdfrwt>
<totfact> 0.75979259E-04</totfact>
</mgrwt>
<clustering>
<clus scale="   34.116">  1  6  2 -1</clus>
<clus scale="  461.513">  4  5 -1 -1</clus>
<clus scale="  300.000">  1  4  2 -1</clus>
</clustering>
</event>
<event>
 6    1  0.1029244E-011  0.3000000E+03  0.7818608E-02  0.1093470E+00
          1   -1    0    0  502    0  0.00000000000E+00  0.00000000000E+00  0.23279016956E+03  0.23279016956E+03  0.00000000000E+00 0.  1.
         13   -1    0    0    0    0 -0.00000000000E+00 -0.00000000000E+00 -0.27500000000E+03  0.27500000000E+03  0.00000000000E+00 0.  1.
    9000005    2    1    2  501    0  0.29222542098E+02  0.20346302245E+02 -0.64242500790E+02  0.46591693772E+03  0.46009082252E+03 0.  0.
         13    1    3    3    0    0  0.11275881938E+03  0.18791009207E+03  0.76038454575E+02  0.23196249831E+03  0.00000000000E+00 0.  1.
          3    1    3    3  501    0 -0.83536277281E+02 -0.16756378982E+03 -0.14028095537E+03  0.23395443941E+03  0.00000000000E+00 0.  1.
         21    1    1    2  502  501 -0.29222542098E+02 -0.20346302245E+02  0.22032670352E+02  0.41873231838E+02  0.00000000000E+00 0. -1.
<scales pt_clust_4="550.00000" pt_clust_5="550.00000" pt_clust_6="35.60799"></scales>
<mgrwt>
<rscale>  0 0.30000000E+03</rscale>
<asrwt>  1 0.35607990E+02</asrwt>
<pdfrwt beam="1">  1        1 0.84650971E+00 0.30000000E+03</pdfrwt>
<pdfrwt beam="2">0</pdfrwt>
<totfact> 0.43673326E-04</totfact>
</mgrwt>
<clustering>
<clus scale="   35.608">  1  6  2 -1</clus>
<clus scale="  460.091">  4  5 -1 -1</clus>
<clus scale="  300.000">  1  4  2 -1</clus>
</clustering>
</event>
<event>
 6    1  0.1029244E-011  0.3000000E+03  0.7818608E-02  0.1093470E+00
          1   -1    0    0  502    0  0.00000000000E+00  0.00000000000E+00  0.24187486853E+03  0.24187486853E+03  0.00000000000E+00 0.  1.
         13   -1    0    0    0    0 -0.00000000000E+00 -0.00000000000E+00 -0.27500000000E+03  0.27500000000E+03  0.00000000000E+00 0.  1.
    9000005    2    1    2  501    0 -0.47843902266E+02  0.59332887389E+01 -0.71047029852E+01  0.46209069565E+03  0.45951397292E+03 0.  0.
         13    1    3    3    0    0  0.19112580427E+03  0.15094400354E+02 -0.86195719973E+02  0.21020612770E+03  0.00000000000E+00 0.  1.
          1    1    3    3  501    0 -0.23896970653E+03 -0.91611116155E+01  0.79091016988E+02  0.25188456796E+03  0.00000000000E+00 0.  1.
         21    1    1    2  502  501  0.47843902266E+02 -0.59332887389E+01 -0.26020428484E+02  0.54784172877E+02  0.00000000000E+00 0. -1.
<scales pt_clust_4="550.00000" pt_clust_5="550.00000" pt_clust_6="48.21043"></scales>
<mgrwt>
<rscale>  0 0.30000000E+03</rscale>
<asrwt>  1 0.48210427E+02</asrwt>
<pdfrwt beam="1">  1        1 0.87954498E+00 0.30000000E+03</pdfrwt>
<pdfrwt beam="2">0</pdfrwt>
<totfact> 0.18862464E-04</totfact>
</mgrwt>
<clustering>
<clus scale="   48.210">  1  6  2 -1</clus>
<clus scale="  459.514">  4  5 -1 -1</clus>
<clus scale="  300.000">  1  4  2 -1</clus>
</clustering>
</event>
<event>
 6    1  0.1029244E-011  0.3000000E+03  0.7818608E-02  0.1093470E+00
          1   -1    0    0  502    0  0.00000000000E+00  0.00000000000E+00  0.23819122928E+03  0.23819122928E+03  0.00000000000E+00 0.  1.
         13   -1    0    0    0    0 -0.00000000000E+00 -0.00000000000E+00 -0.27500000000E+03  0.27500000000E+03  0.00000000000E+00 0.  1.
    9000005    2    1    2  501    0  0.33656597604E+02 -0.13951179792E+02 -0.48024837348E+02  0.47507034091E+03  0.47123034901E+03 0.  0.
         13    1    3    3    0    0 -0.56473306705E+02 -0.45170662286E+02  0.19821881679E+03  0.21099839438E+03  0.00000000000E+00 0.  1.
          1    1    3    3  501    0  0.90129904310E+02  0.31219482495E+02 -0.24624365414E+03  0.26407194653E+03  0.00000000000E+00 0.  1.
         21    1    1    2  502  501 -0.33656597604E+02  0.13951179792E+02  0.11216066633E+02  0.38120888376E+02  0.00000000000E+00 0.  1.
<scales pt_clust_4="550.00000" pt_clust_5="550.00000" pt_clust_6="36.43353"></scales>
<mgrwt>
<rscale>  0 0.30000000E+03</rscale>
<asrwt>  1 0.36433528E+02</asrwt>
<pdfrwt beam="1">  1        1 0.86614992E+00 0.30000000E+03</pdfrwt>
<pdfrwt beam="2">0</pdfrwt>
<totfact> 0.27564290E-04</totfact>
</mgrwt>
<clustering>
<clus scale="   36.434">  1  6  2 -1</clus>
<clus scale="  471.230">  4  5 -1 -1</clus>
<clus scale="  300.000">  1  4  2 -1</clus>
</clustering>
</event>
<event>
 6    1  0.1029244E-011  0.3000000E+03  0.7818608E-02  0.1093470E+00
          1   -1    0    0  502    0  0.00000000000E+00  0.00000000000E+00  0.22910520215E+03  0.22910520215E+03  0.00000000000E+00 0.  1.
         13   -1    0    0    0    0 -0.00000000000E+00 -0.00000000000E+00 -0.27500000000E+03  0.27500000000E+03  0.00000000000E+00 0.  1.
    9000005    2    1    2  501    0 -0.11099925015E+01 -0.34692504171E+02 -0.48106742851E+02  0.46932453756E+03  0.46556037301E+03 0.  0.
         13    1    3    3    0    0  0.94333430916E+02 -0.29535839885E+02 -0.23746091375E+03  0.25721362247E+03  0.00000000000E+00 0.  1.
          1    1    3    3  501    0 -0.95443423418E+02 -0.51566642858E+01  0.18935417090E+03  0.21211091508E+03  0.00000000000E+00 0.  1.
         21    1    1    2  502  501  0.11099925015E+01  0.34692504171E+02  0.22119450034E+01  0.34780664596E+02  0.00000000000E+00 0. -1.
<scales pt_clust_4="550.00000" pt_clust_5="550.00000" pt_clust_6="34.71026"></scales>
<mgrwt>
<rscale>  0 0.30000000E+03</rscale>
<asrwt>  1 0.34710257E+02</asrwt>
<pdfrwt beam="1">  1        1 0.83310983E+00 0.30000000E+03</pdfrwt>
<pdfrwt beam="2">0</pdfrwt>
<totfact> 0.55956109E-04</totfact>
</mgrwt>
<clustering>
<clus scale="   34.710">  1  6  2 -1</clus>
<clus scale="  465.560">  4  5 -1 -1</clus>
<clus scale="  300.000">  1  4  2 -1</clus>
</clustering>
</event>
<event>
 6    1  0.1029244E-011  0.3000000E+03  0.7818608E-02  0.1093470E+00
          1   -1    0    0  502    0  0.00000000000E+00  0.00000000000E+00  0.23986578771E+03  0.23986578771E+03  0.00000000000E+00 0.  1.
         13   -1    0    0    0    0 -0.00000000000E+00 -0.00000000000E+00 -0.27500000000E+03  0.27500000000E+03  0.00000000000E+00 0.  1.
    9000005    2    1    2  501    0  0.18020446766E+02 -0.42045800758E+02 -0.48361559378E+02  0.46724700388E+03  0.46248063348E+03 0.  0.
         13    1    3    3    0    0 -0.15843028393E+03  0.88537776843E+02 -0.14015843829E+03  0.22931088203E+03  0.00000000000E+00 0.  1.
          1    1    3    3  501    0  0.17645073069E+03 -0.13058357760E+03  0.91796878912E+02  0.23793612185E+03  0.00000000000E+00 0.  1.
         21    1    1    2  502  501 -0.18020446766E+02  0.42045800758E+02  0.13227347092E+02  0.47618783837E+02  0.00000000000E+00 0. -1.
<scales pt_clust_4="550.00000" pt_clust_5="550.00000" pt_clust_6="45.74479"></scales>
<mgrwt>
<rscale>  0 0.30000000E+03</rscale>
<asrwt>  1 0.45744791E+02</asrwt>
<pdfrwt beam="1">  1        1 0.87223923E+00 0.30000000E+03</pdfrwt>
<pdfrwt beam="2">0</pdfrwt>
<totfact> 0.22880193E-04</totfact>
</mgrwt>
<clustering>
<clus scale="   45.745">  1  6  2 -1</clus>
<clus scale="  462.481">  4  5 -1 -1</clus>
<clus scale="  300.000">  1  4  2 -1</clus>
</clustering>
</event>
<event>
 6    1  0.1029244E-011  0.3000000E+03  0.7818608E-02  0.1093470E+00
          1   -1    0    0  502    0  0.00000000000E+00  0.00000000000E+00  0.22531826021E+03  0.22531826021E+03  0.00000000000E+00 0.  1.
         13   -1    0    0    0    0 -0.00000000000E+00 -0.00000000000E+00 -0.27500000000E+03  0.27500000000E+03  0.00000000000E+00 0.  1.
    9000005    2    1    2  501    0 -0.37885826376E+02  0.11684307601E+02 -0.40894316122E+02  0.45970942251E+03  0.45616723816E+03 0.  0.
         13    1    3    3    0    0  0.41154615600E+01  0.19523096773E+03 -0.14622954070E+03  0.24395726338E+03  0.00000000000E+00 0.  1.
          3    1    3    3  501    0 -0.42001287936E+02 -0.18354666013E+03  0.10533522458E+03  0.21575215913E+03  0.00000000000E+00 0.  1.
         21    1    1    2  502  501  0.37885826376E+02 -0.11684307601E+02 -0.87874236671E+01  0.40608837696E+02  0.00000000000E+00 0. -1.
<scales pt_clust_4="550.00000" pt_clust_5="550.00000" pt_clust_6="39.64670"></scales>
<mgrwt>
<rscale>  0 0.30000000E+03</rscale>
<asrwt>  1 0.39646695E+02</asrwt>
<pdfrwt beam="1">  1        1 0.81933913E+00 0.30000000E+03</pdfrwt>
<pdfrwt beam="2">0</pdfrwt>
<totfact> 0.71613587E-04</totfact>
</mgrwt>
<clustering>
<clus scale="   39.647">  1  6  2 -1</clus>
<clus scale="  456.167">  4  5 -1 -1</clus>
<clus scale="  300.000">  1  4  2 -1</clus>
</clustering>
</event>
<event>
 6    1  0.1029244E-011  0.3000000E+03  0.7818608E-02  0.1093470E+00
          1   -1    0    0  502    0  0.00000000000E+00  0.00000000000E+00  0.23134513280E+03  0.23134513280E+03  0.00000000000E+00 0.  1.
         13   -1    0    0    0    0 -0.00000000000E+00 -0.00000000000E+00 -0.27500000000E+03  0.27500000000E+03  0.00000000000E+00 0.  1.
    9000005    2    1    2  501    0 -0.11050742761E+02 -0.32139023469E+02 -0.52900409256E+02  0.47112417607E+03  0.46690952039E+03 0.  0.
         13    1    3    3    0    0  0.82220056493E+02 -0.36746887841E+02  0.19034191186E+03  0.21057187577E+03  0.00000000000E+00 0.  1.
          3    1    3    3  501    0 -0.93270799254E+02  0.46078643720E+01 -0.24324232111E+03  0.26055230029E+03  0.00000000000E+00 0.  1.
         21    1    1    2  502  501  0.11050742761E+02  0.32139023469E+02  0.92455420512E+01  0.35220956730E+02  0.00000000000E+00 0.  1.
<scales pt_clust_4="550.00000" pt_clust_5="550.00000" pt_clust_6="33.98582"></scales>
<mgrwt>
<rscale>  0 0.30000000E+03</rscale>
<asrwt>  1 0.33985817E+02</asrwt>
<pdfrwt beam="1">  1        1 0.84125503E+00 0.30000000E+03</pdfrwt>
<pdfrwt beam="2">0</pdfrwt>
<totfact> 0.48859805E-04</totfact>
</mgrwt>
<clustering>
<clus scale="   33.986">  1  6  2 -1</clus>
<clus scale="  466.910">  4  5 -1 -1</clus>
<clus scale="  300.000">  1  4  2 -1</clus>
</clustering>
</event>
<event>
 6    1  0.1029244E-011  0.3000000E+03  0.7818608E-02  0.1093470E+00
          1   -1    0    0  502    0  0.00000000000E+00  0.00000000000E+00  0.22359399460E+03  0.22359399460E+03  0.00000000000E+00 0.  1.
         13   -1    0    0    0    0 -0.00000000000E+00 -0.00000000000E+00 -0.27500000000E+03  0.27500000000E+03  0.00000000000E+00 0.  1.
    9000005    2    1    2  501    0 -0.29630111237E+02  0.63120980514E+01 -0.60817308004E+02  0.46687083759E+03  0.46190025760E+03 0.  0.
         13    1    3    3    0    0 -0.24597917139E+02 -0.17450986624E+03  0.11833513870E+03  0.21227801580E+03  0.00000000000E+00 0.  1.
          3    1    3    3  501    0 -0.50321940973E+01  0.18082196429E+03 -0.17915244670E+03  0.25459282179E+03  0.00000000000E+00 0.  1.
         21    1    1    2  502  501  0.29630111237E+02 -0.63120980514E+01  0.94113026028E+01  0.31723157005E+02  0.00000000000E+00 0. -1.
<scales pt_clust_4="550.00000" pt_clust_5="550.00000" pt_clust_6="30.29498"></scales>
<mgrwt>
<rscale>  0 0.30000000E+03</rscale>
<asrwt>  1 0.30294984E+02</asrwt>
<pdfrwt beam="1">  1        1 0.81306907E+00 0.30000000E+03</pdfrwt>
<pdfrwt beam="2">0</pdfrwt>
<totfact> 0.84782885E-04</totfact>
</mgrwt>
<clustering>
<clus scale="   30.295">  1  6  2 -1</clus>
<clus scale="  461.900">  4  5 -1 -1</clus>
<clus scale="  300.000">  1  4  2 -1</clus>
</clustering>
</event>
<event>
 6    1  0.1029244E-011  0.3000000E+03  0.7818608E-02  0.1093470E+00
          1   -1    0    0  502    0  0.00000000000E+00  0.00000000000E+00  0.23391987252E+03  0.23391987252E+03  0.00000000000E+00 0.  1.
         13   -1    0    0    0    0 -0.00000000000E+00 -0.00000000000E+00 -0.27500000000E+03  0.27500000000E+03  0.00000000000E+00 0.  1.
    9000005    2    1    2  501    0  0.32439549537E+02 -0.88998025473E+01 -0.57672209372E+02  0.47141216610E+03  0.46666027874E+03 0.  0.
         13    1    3    3    0    0 -0.28283838415E+01 -0.11151970118E+03  0.17907617618E+03  0.21098085312E+03  0.00000000000E+00 0.  1.
          3    1    3    3  501    0  0.35267933378E+02  0.10261989863E+03 -0.23674838555E+03  0.26043131298E+03  0.00000000000E+00 0.  1.
         21    1    1    2  502  501 -0.32439549537E+02  0.88998025473E+01  0.16592081896E+02  0.37507706424E+02  0.00000000000E+00 0. -1.
<scales pt_clust_4="550.00000" pt_clust_5="550.00000" pt_clust_6="33.63824"></scales>
<mgrwt>
<rscale>  0 0.30000000E+03</rscale>
<asrwt>  1 0.33638235E+02</asrwt>
<pdfrwt beam="1">  1        1 0.85061772E+00 0.30000000E+03</pdfrwt>
<pdfrwt beam="2">0</pdfrwt>
<totfact> 0.40457556E-04</totfact>
</mgrwt>
<clustering>
<clus scale="   33.638">  1  6  2 -1</clus>
<clus scale="  466.660">  4  5 -1 -1</clus>
<clus scale="  300.000">  1  4  2 -1</clus>
</clustering>
</event>
<event>
 6    1  0.1029244E-011  0.3000000E+03  0.7818608E-02  0.1093470E+00
          1   -1    0    0  502    0  0.00000000000E+00  0.00000000000E+00  0.23384786011E+03  0.23384786011E+03  0.00000000000E+00 0.  1.
         13   -1    0    0    0    0 -0.00000000000E+00 -0.00000000000E+00 -0.27500000000E+03  0.27500000000E+03  0.00000000000E+00 0.  1.
    9000005    2    1    2  501    0 -0.34442381287E+02  0.32469384808E+02 -0.39076180679E+02  0.46146803123E+03  0.45736774850E+03 0.  0.
         13    1    3    3    0    0  0.56925530833E+02 -0.15631479731E+03  0.11412512287E+03  0.20174086247E+03  0.00000000000E+00 0.  1.
          3    1    3    3  501    0 -0.91367912120E+02  0.18878418212E+03 -0.15320130354E+03  0.25972716876E+03  0.00000000000E+00 0.  1.
         21    1    1    2  502  501  0.34442381287E+02 -0.32469384808E+02 -0.20759592083E+01  0.47379828885E+02  0.00000000000E+00 0.  1.
<scales pt_clust_4="550.00000" pt_clust_5="550.00000" pt_clust_6="47.33433"></scales>
<mgrwt>
<rscale>  0 0.30000000E+03</rscale>
<asrwt>  1 0.47334328E+02</asrwt>
<pdfrwt beam="1">  1        1 0.85035585E+00 0.30000000E+03</pdfrwt>
<pdfrwt beam="2">0</pdfrwt>
<totfact> 0.38227701E-04</totfact>
</mgrwt>
<clustering>
<clus scale="   47.334">  1  6  2 -1</clus>
<clus scale="  457.368">  4  5 -1 -1</clus>
<clus scale="  300.000">  1  4  2 -1</clus>
</clustering>
</event>
<event>
 6    1  0.1029244E-011  0.3000000E+03  0.7818608E-02  0.1093470E+00
          1   -1    0    0  502    0  0.00000000000E+00  0.00000000000E+00  0.22192771525E+03  0.22192771525E+03  0.00000000000E+00 0.  1.
         13   -1    0    0    0    0 -0.00000000000E+00 -0.00000000000E+00 -0.27500000000E+03  0.27500000000E+03  0.00000000000E+00 0.  1.
    9000005    2    1    2  501    0 -0.24942058030E+02 -0.25194244860E+02 -0.55786717839E+02  0.46137178214E+03  0.45661242562E+03 0.  0.
         13    1    3    3    0    0 -0.19904102200E+03 -0.12374295056E+03  0.42955487475E+02  0.23827467377E+03  0.00000000000E+00 0.  1.
          3    1    3    3  501    0  0.17409896398E+03  0.98548705701E+02 -0.98742205313E+02  0.22309710837E+03  0.00000000000E+00 0.  1.
         21    1    1    2  502  501  0.24942058030E+02  0.25194244860E+02  0.27144330921E+01  0.35555933117E+02  0.00000000000E+00 0.  1.
<scales pt_clust_4="550.00000" pt_clust_5="550.00000" pt_clust_6="35.45217"></scales>
<mgrwt>
<rscale>  0 0.30000000E+03</rscale>
<asrwt>  1 0.35452168E+02</asrwt>
<pdfrwt beam="1">  1        1 0.80700987E+00 0.30000000E+03</pdfrwt>
<pdfrwt beam="2">0</pdfrwt>
<totfact> 0.91764490E-04</totfact>
</mgrwt>
<clustering>
<clus scale="   35.452">  1  6  2 -1</clus>
<clus scale="  456.612">  4  5 -1 -1</clus>
<clus scale="  300.000">  1  4  2 -1</clus>
</clustering>
</event>
<event>
 6    1  0.1029244E-011  0.3000000E+03  0.7818608E-02  0.1093470E+00
          1   -1    0    0  502    0  0.00000000000E+00  0.00000000000E+00  0.25321849765E+03  0.25321849765E+03  0.00000000000E+00 0.  1.
         13   -1    0    0    0    0 -0.00000000000E+00 -0.00000000000E+00 -0.27500000000E+03  0.27500000000E+03  0.00000000000E+00 0.  1.
    9000005    2    1    2  501    0  0.37352126653E+02  0.49752125912E+00 -0.53541937307E+02  0.47918632330E+03  0.47471819482E+03 0.  0.
         13    1    3    3    0    0  0.11895961356E+03  0.21341182941E+03  0.26672750149E+01  0.24434220460E+03  0.00000000000E+00 0.  1.
          3    1    3    3  501    0 -0.81607486911E+02 -0.21291430816E+03 -0.56209212322E+02  0.23484411870E+03  0.00000000000E+00 0.  1.
         21    1    1    2  502  501 -0.37352126653E+02 -0.49752125912E+00  0.31760434958E+02  0.49032174351E+02  0.00000000000E+00 0. -1.
<scales pt_clust_4="550.00000" pt_clust_5="550.00000" pt_clust_6="37.35544"></scales>
<mgrwt>
<rscale>  0 0.30000000E+03</rscale>
<asrwt>  1 0.37355440E+02</asrwt>
<pdfrwt beam="1">  1        1 0.92079454E+00 0.30000000E+03</pdfrwt>
<pdfrwt beam="2">0</pdfrwt>
<totfact> 0.39697673E-05</totfact>
</mgrwt>
<clustering>
<clus scale="   37.355">  1  6  2 -1</clus>
<clus scale="  474.718">  4  5 -1 -1</clus>
<clus scale="  300.000">  1  4  2 -1</clus>
</clustering>
</event>
<event>
 6    1  0.1029244E-011  0.3000000E+03  0.7818608E-02  0.1093470E+00
          1   -1    0    0  502    0  0.00000000000E+00  0.00000000000E+00  0.23514862287E+03  0.23514862287E+03  0.00000000000E+00 0.  1.
         13   -1    0    0    0    0 -0.00000000000E+00 -0.00000000000E+00 -0.27500000000E+03  0.27500000000E+03  0.00000000000E+00 0.  1.
    9000005    2    1    2  501    0  0.18080620762E+02 -0.24155938313E+02 -0.42769339078E+02  0.47983472004E+03  0.47697140793E+03 0.  0.
         13    1    3    3    0    0  0.23664241737E+03 -0.74785951404E+02 -0.58347543648E+02  0.25494510796E+03  0.00000000000E+00 0.  1.
          3    1    3    3  501    0 -0.21856179660E+03  0.50630013091E+02  0.15578204570E+02  0.22488961207E+03  0.00000000000E+00 0.  1.
         21    1    1    2  502  501 -0.18080620762E+02  0.24155938313E+02  0.29179619450E+01  0.30313902831E+02  0.00000000000E+00 0.  1.
<scales pt_clust_4="550.00000" pt_clust_5="550.00000" pt_clust_6="30.17314"></scales>
<mgrwt>
<rscale>  0 0.30000000E+03</rscale>
<asrwt>  1 0.30173137E+02</asrwt>
<pdfrwt beam="1">  1        1 0.85508590E+00 0.30000000E+03</pdfrwt>
<pdfrwt beam="2">0</pdfrwt>
<totfact> 0.37400248E-04</totfact>
</mgrwt>
<clustering>
<clus scale="   30.173">  1  6  2 -1</clus>
<clus scale="  476.971">  4  5 -1 -1</clus>
<clus scale="  300.000">  1  4  2 -1</clus>
</clustering>
</event>
<event>
 6    1  0.1029244E-011  0.3000000E+03  0.7818608E-02  0.1093470E+00
          1   -1    0    0  502    0  0.00000000000E+00  0.00000000000E+00  0.24405571989E+03  0.24405571989E+03  0.00000000000E+00 0.  1.
         13   -1    0    0    0    0 -0.00000000000E+00 -0.00000000000E+00 -0.27500000000E+03  0.27500000000E+03  0.00000000000E+00 0.  1.
    9000005    2    1    2  501    0 -0.23492647619E+02  0.29057103822E+02 -0.33935931793E+02  0.48157012593E+03  0.47891744481E+03 0.  0.
         13    1    3    3    0    0 -0.21647448002E+03  0.25166456052E+02  0.10679526013E+03  0.24269276585E+03  0.00000000000E+00 0.  1.
          1    1    3    3  501    0  0.19298183241E+03  0.38906477696E+01 -0.14073119192E+03  0.23887736008E+03  0.00000000000E+00 0.  1.
         21    1    1    2  502  501  0.23492647619E+02 -0.29057103822E+02  0.29916516820E+01  0.37485593958E+02  0.00000000000E+00 0. -1.
<scales pt_clust_4="550.00000" pt_clust_5="550.00000" pt_clust_6="37.36602"></scales>
<mgrwt>
<rscale>  0 0.30000000E+03</rscale>
<asrwt>  1 0.37366024E+02</asrwt>
<pdfrwt beam="1">  1        1 0.88747535E+00 0.30000000E+03</pdfrwt>
<pdfrwt beam="2">0</pdfrwt>
<totfact> 0.15498669E-04</totfact>
</mgrwt>
<clustering>
<clus scale="   37.366">  1  6  2 -1</clus>
<clus scale="  478.917">  4  5 -1 -1</clus>
<clus scale="  300.000">  1  4  2 -1</clus>
</clustering>
</event>
<event>
 6    1  0.1029244E-011  0.3000000E+03  0.7818608E-02  0.1093470E+00
          1   -1    0    0  502    0  0.00000000000E+00  0.00000000000E+00  0.24329112333E+03  0.24329112333E+03  0.00000000000E+00 0.  1.
         13   -1    0    0    0    0 -0.00000000000E+00 -0.00000000000E+00 -0.27500000000E+03  0.27500000000E+03  0.00000000000E+00 0.  1.
    9000005    2    1    2  501    0 -0.17784850605E+02  0.25175630545E+02 -0.43593078658E+02  0.48525557367E+03  0.48230954996E+03 0.  0.
         13    1    3    3    0    0  0.13101119665E+03 -0.17152610709E+03  0.49830809172E+02  0.22151354045E+03  0.00000000000E+00 0.  1.
          1    1    3    3  501    0 -0.14879604725E+03  0.19670173764E+03 -0.93423887830E+02  0.26374203322E+03  0.00000000000E+00 0.  1.
         21    1    1    2  502  501  0.17784850605E+02 -0.25175630545E+02  0.11884201987E+02  0.33035549659E+02  0.00000000000E+00 0.  1.
<scales pt_clust_4="550.00000" pt_clust_5="550.00000" pt_clust_6="30.82391"></scales>
<mgrwt>
<rscale>  0 0.30000000E+03</rscale>
<asrwt>  1 0.30823908E+02</asrwt>
<pdfrwt beam="1">  1        1 0.88469499E+00 0.30000000E+03</pdfrwt>
<pdfrwt beam="2">0</pdfrwt>
<totfact> 0.17551664E-04</totfact>
</mgrwt>
<clustering>
<clus scale="   30.824">  1  6  2 -1</clus>
<clus scale="  482.310">  4  5 -1 -1</clus>
<clus scale="  300.000">  1  4  2 -1</clus>
</clustering>
</event>
<event>
 6    1  0.1029244E-011  0.3000000E+03  0.7818608E-02  0.1093470E+00
          1   -1    0    0  502    0  0.00000000000E+00  0.00000000000E+00  0.22739549954E+03  0.22739549954E+03  0.00000000000E+00 0.  1.
         13   -1    0    0    0    0 -0.00000000000E+00 -0.00000000000E+00 -0.27500000000E+03  0.27500000000E+03  0.00000000000E+00 0.  1.
    9000005    2    1    2  501    0  0.28484280599E+02  0.19709814829E+02 -0.66226695383E+02  0.46306844542E+03  0.45699735111E+03 0.  0.
         13    1    3    3    0    0  0.11809822111E+03 -0.11673478482E+03 -0.19429368128E+03  0.25558606066E+03  0.00000000000E+00 0.  1.
          1    1    3    3  501    0 -0.89613940514E+02  0.13644459965E+03  0.12806698590E+03  0.20748238476E+03  0.00000000000E+00 0.  1.
         21    1    1    2  502  501 -0.28484280599E+02 -0.19709814829E+02  0.18622194920E+02  0.39327054116E+02  0.00000000000E+00 0. -1.
<scales pt_clust_4="550.00000" pt_clust_5="550.00000" pt_clust_6="34.63858"></scales>
<mgrwt>
<rscale>  0 0.30000000E+03</rscale>
<asrwt>  1 0.34638577E+02</asrwt>
<pdfrwt beam="1">  1        1 0.82689273E+00 0.30000000E+03</pdfrwt>
<pdfrwt beam="2">0</pdfrwt>
<totfact> 0.62961072E-04</totfact>
</mgrwt>
<clustering>
<clus scale="   34.639">  1  6  2 -1</clus>
<clus scale="  456.997">  4  5 -1 -1</clus>
<clus scale="  300.000">  1  4  2 -1</clus>
</clustering>
</event>
<event>
 6    1  0.1029244E-011  0.3000000E+03  0.7818608E-02  0.1093470E+00
          1   -1    0    0  502    0  0.00000000000E+00  0.00000000000E+00  0.25150846702E+03  0.25150846702E+03  0.00000000000E+00 0.  1.
         13   -1    0    0    0    0 -0.00000000000E+00 -0.00000000000E+00 -0.27500000000E+03  0.27500000000E+03  0.00000000000E+00 0.  1.
    9000005    2    1    2  501    0 -0.19656488004E+02  0.55941910374E+02 -0.47013911367E+02  0.46271836480E+03  0.45648888530E+03 0.  0.
         13    1    3    3    0    0 -0.49987680209E+02 -0.92882522943E+02  0.16866196002E+03  0.19892910294E+03  0.00000000000E+00 0.  1.
          1    1    3    3  501    0  0.30331192206E+02  0.14882443332E+03 -0.21567587138E+03  0.26378926185E+03  0.00000000000E+00 0.  1.
         21    1    1    2  502  501  0.19656488004E+02 -0.55941910374E+02  0.23522378389E+02  0.63790102226E+02  0.00000000000E+00 0. -1.
<scales pt_clust_4="550.00000" pt_clust_5="550.00000" pt_clust_6="59.29481"></scales>
<mgrwt>
<rscale>  0 0.30000000E+03</rscale>
<asrwt>  1 0.59294813E+02</asrwt>
<pdfrwt beam="1">  1        1 0.91457624E+00 0.30000000E+03</pdfrwt>
<pdfrwt beam="2">0</pdfrwt>
<totfact> 0.50424524E-05</totfact>
</mgrwt>
<clustering>
<clus scale="   59.295">  1  6  2 -1</clus>
<clus scale="  456.489">  4  5 -1 -1</clus>
<clus scale="  300.000">  1  4  2 -1</clus>
</clustering>
</event>
<event>
 6    1  0.1029244E-011  0.3000000E+03  0.7818608E-02  0.1093470E+00
          1   -1    0    0  502    0  0.00000000000E+00  0.00000000000E+00  0.23704179938E+03  0.23704179938E+03  0.00000000000E+00 0.  1.
         13   -1    0    0    0    0 -0.00000000000E+00 -0.00000000000E+00 -0.27500000000E+03  0.27500000000E+03  0.00000000000E+00 0.  1.
    9000005    2    1    2  501    0  0.30973104642E+02 -0.81849478916E+01 -0.61612135554E+02  0.47221925274E+03  0.46708526077E+03 0.  0.
         13    1    3    3    0    0  0.93236719945E+02  0.20316247168E+03  0.44099090476E+02  0.22784381850E+03  0.00000000000E+00 0.  1.
          1    1    3    3  501    0 -0.62263615303E+02 -0.21134741958E+03 -0.10571122603E+03  0.24437543424E+03  0.00000000000E+00 0.  1.
         21    1    1    2  502  501 -0.30973104642E+02  0.81849478916E+01  0.23653934934E+02  0.39822546642E+02  0.00000000000E+00 0. -1.
<scales pt_clust_4="550.00000" pt_clust_5="550.00000" pt_clust_6="32.03633"></scales>
<mgrwt>
<rscale>  0 0.30000000E+03</rscale>
<asrwt>  1 0.32036332E+02</asrwt>
<pdfrwt beam="1">  1        1 0.86197018E+00 0.30000000E+03</pdfrwt>
<pdfrwt beam="2">0</pdfrwt>
<totfact> 0.31325900E-04</totfact>
</mgrwt>
<clustering>
<clus scale="   32.036">  1  6  2 -1</clus>
<clus scale="  467.085">  4  5 -1 -1</clus>
<clus scale="  300.000">  1  4  2 -1</clus>
</clustering>
</event>
<event>
 6    1  0.1029244E-011  0.3000000E+03  0.7818608E-02  0.1093470E+00
          1   -1    0    0  502    0  0.00000000000E+00  0.00000000000E+00  0.22432316420E+03  0.22432316420E+03  0.00000000000E+00 0.  1.
         13   -1    0    0    0    0 -0.00000000000E+00 -0.00000000000E+00 -0.27500000000E+03  0.27500000000E+03  0.00000000000E+00 0.  1.
    9000005    2    1    2  501    0 -0.21591601215E+02  0.21190162727E+02 -0.45197640914E+02  0.46857837901E+03  0.46541127006E+03 0.  0.
         13    1    3    3    0    0  0.73866738240E+02 -0.19732859886E+03 -0.84291450585E+02  0.22693593719E+03  0.00000000000E+00 0.  1.
          1    1    3    3  501    0 -0.95458339454E+02  0.21851876159E+03  0.39093809672E+02  0.24164244183E+03  0.00000000000E+00 0.  1.
         21    1    1    2  502  501  0.21591601215E+02 -0.21190162727E+02 -0.54791948872E+01  0.30744785185E+02  0.00000000000E+00 0.  1.
<scales pt_clust_4="550.00000" pt_clust_5="550.00000" pt_clust_6="30.25262"></scales>
<mgrwt>
<rscale>  0 0.30000000E+03</rscale>
<asrwt>  1 0.30252622E+02</asrwt>
<pdfrwt beam="1">  1        1 0.81572060E+00 0.30000000E+03</pdfrwt>
<pdfrwt beam="2">0</pdfrwt>
<totfact> 0.80741649E-04</totfact>
</mgrwt>
<clustering>
<clus scale="   30.253">  1  6  2 -1</clus>
<clus scale="  465.411">  4  5 -1 -1</clus>
<clus scale="  300.000">  1  4  2 -1</clus>
</clustering>
</event>
<event>
 6    1  0.1029244E-011  0.3000000E+03  0.7818608E-02  0.1093470E+00
          1   -1    0    0  502    0  0.00000000000E+00  0.00000000000E+00  0.23563967356E+03  0.23563967356E+03  0.00000000000E+00 0.  1.
         13   -1    0    0    0    0 -0.00000000000E+00 -0.00000000000E+00 -0.27500000000E+03  0.27500000000E+03  0.00000000000E+00 0.  1.
    9000005    2    1    2  501    0  0.29954087306E+02 -0.20488663359E+02 -0.45959822348E+02  0.47375355125E+03  0.47012029246E+03 0.  0.
         13    1    3    3    0    0 -0.92582684822E+02 -0.21089164712E+03 -0.81993638789E+02  0.24447862311E+03  0.00000000000E+00 0.  1.
          3    1    3    3  501    0  0.12253677213E+03  0.19040298376E+03  0.36033816440E+02  0.22927492815E+03  0.00000000000E+00 0.  1.
         21    1    1    2  502  501 -0.29954087306E+02  0.20488663359E+02  0.65994959086E+01  0.36886122306E+02  0.00000000000E+00 0. -1.
<scales pt_clust_4="550.00000" pt_clust_5="550.00000" pt_clust_6="36.29094"></scales>
<mgrwt>
<rscale>  0 0.30000000E+03</rscale>
<asrwt>  1 0.36290945E+02</asrwt>
<pdfrwt beam="1">  1        1 0.85687154E+00 0.30000000E+03</pdfrwt>
<pdfrwt beam="2">0</pdfrwt>
<totfact> 0.34648447E-04</totfact>
</mgrwt>
<clustering>
<clus scale="   36.291">  1  6  2 -1</clus>
<clus scale="  470.120">  4  5 -1 -1</clus>
<clus scale="  300.000">  1  4  2 -1</clus>
</clustering>
</event>
<event>
 6    1  0.1029244E-011  0.3000000E+03  0.7818608E-02  0.1093470E+00
          1   -1    0    0  502    0  0.00000000000E+00  0.00000000000E+00  0.23472360737E+03  0.23472360737E+03  0.00000000000E+00 0.  1.
         13   -1    0    0    0    0 -0.00000000000E+00 -0.00000000000E+00 -0.27500000000E+03  0.27500000000E+03  0.00000000000E+00 0.  1.
    9000005    2    1    2  501    0  0.39566552789E+02 -0.13855498476E+02 -0.40511986894E+02  0.46780055354E+03  0.46415369209E+03 0.  0.
         13    1    3    3    0    0  0.14367723829E+03 -0.18900510917E+03 -0.96834005179E+02  0.25640379220E+03  0.00000000000E+00 0.  1.
          1    1    3    3  501    0 -0.10411068550E+03  0.17514961070E+03  0.56322018285E+02  0.21139676134E+03  0.00000000000E+00 0.  1.
         21    1    1    2  502  501 -0.39566552789E+02  0.13855498476E+02  0.23559426584E+00  0.41923053828E+02  0.00000000000E+00 0. -1.
<scales pt_clust_4="550.00000" pt_clust_5="550.00000" pt_clust_6="41.92239"></scales>
<mgrwt>
<rscale>  0 0.30000000E+03</rscale>
<asrwt>  1 0.41922392E+02</asrwt>
<pdfrwt beam="1">  1        1 0.85354039E+00 0.30000000E+03</pdfrwt>
<pdfrwt beam="2">0</pdfrwt>
<totfact> 0.36421526E-04</totfact>
</mgrwt>
<clustering>
<clus scale="   41.922">  1  6  2 -1</clus>
<clus scale="  464.154">  4  5 -1 -1</clus>
<clus scale="  300.000">  1  4  2 -1</clus>
</clustering>
</event>
<event>
 6    1  0.1029244E-011  0.3000000E+03  0.7818608E-02  0.1093470E+00
          1   -1    0    0  502    0  0.00000000000E+00  0.00000000000E+00  0.24833429808E+03  0.24833429808E+03  0.00000000000E+00 0.  1.
         13   -1    0    0    0    0 -0.00000000000E+00 -0.00000000000E+00 -0.27500000000E+03  0.27500000000E+03  0.00000000000E+00 0.  1.
    9000005    2    1    2  501    0  0.25145718497E+02 -0.29985915337E+02 -0.51767303488E+02  0.47684179676E+03  0.47240531660E+03 0.  0.
         13    1    3    3    0    0 -0.70141634889E+02  0.15192363844E+03 -0.17110652098E+03  0.23932839861E+03  0.00000000000E+00 0.  1.
          1    1    3    3  501    0  0.95287353386E+02 -0.18190955377E+03  0.11933921750E+03  0.23751339815E+03  0.00000000000E+00 0.  1.
         21    1    1    2  502  501 -0.25145718497E+02  0.29985915337E+02  0.25101601568E+02  0.46492501316E+02  0.00000000000E+00 0. -1.
<scales pt_clust_4="550.00000" pt_clust_5="550.00000" pt_clust_6="39.13390"></scales>
<mgrwt>
<rscale>  0 0.30000000E+03</rscale>
<asrwt>  1 0.39133902E+02</asrwt>
<pdfrwt beam="1">  1        1 0.90303381E+00 0.30000000E+03</pdfrwt>
<pdfrwt beam="2">0</pdfrwt>
<totfact> 0.98040720E-05</totfact>
</mgrwt>
<clustering>
<clus scale="   39.134">  1  6  2 -1</clus>
<clus scale="  472.405">  4  5 -1 -1</clus>
<clus scale="  300.000">  1  4  2 -1</clus>
</clustering>
</event>
<event>
 6    1  0.1029244E-011  0.3000000E+03  0.7818608E-02  0.1093470E+00
          1   -1    0    0  502    0  0.00000000000E+00  0.00000000000E+00  0.23448555226E+03  0.23448555226E+03  0.00000000000E+00 0.  1.
         13   -1    0    0    0    0 -0.00000000000E+00 -0.00000000000E+00 -0.27500000000E+03  0.27500000000E+03  0.00000000000E+00 0.  1.
    9000005    2    1    2  501    0 -0.10147678586E+02 -0.31100334283E+02 -0.38846224985E+02  0.47672903932E+03  0.47401618280E+03 0.  0.
         13    1    3    3    0    0 -0.14652830508E+03 -0.11512948790E+03  0.14262965863E+03  0.23466691862E+03  0.00000000000E+00 0.  1.
          1    1    3    3  501    0  0.13638062649E+03  0.84029153620E+02 -0.18147588362E+03  0.24206212069E+03  0.00000000000E+00 0.  1.
         21    1    1    2  502  501  0.10147678586E+02  0.31100334283E+02 -0.16682227527E+01  0.32756512946E+02  0.00000000000E+00 0.  1.
<scales pt_clust_4="550.00000" pt_clust_5="550.00000" pt_clust_6="32.71401"></scales>
<mgrwt>
<rscale>  0 0.30000000E+03</rscale>
<asrwt>  1 0.32714006E+02</asrwt>
<pdfrwt beam="1">  1        1 0.85267474E+00 0.30000000E+03</pdfrwt>
<pdfrwt beam="2">0</pdfrwt>
<totfact> 0.38873875E-04</totfact>
</mgrwt>
<clustering>
<clus scale="   32.714">  1  6  2 -1</clus>
<clus scale="  474.016">  4  5 -1 -1</clus>
<clus scale="  300.000">  1  4  2 -1</clus>
</clustering>
</event>
<event>
 6    1  0.1029244E-011  0.3000000E+03  0.7818608E-02  0.1093470E+00
          1   -1    0    0  502    0  0.00000000000E+00  0.00000000000E+00  0.27275526191E+03  0.27275526191E+03  0.00000000000E+00 0.  1.
         13   -1    0    0    0    0 -0.00000000000E+00 -0.00000000000E+00 -0.27500000000E+03  0.27500000000E+03  0.00000000000E+00 0.  1.
    9000005    2    1    2  501    0 -0.90937236740E+01  0.39508286891E+02 -0.46523227848E+02  0.48772039539E+03  0.48380075734E+03 0.  0.
         13    1    3    3    0    0  0.51332600323E+02  0.24543612185E+03  0.44393863703E+02  0.25464630549E+03  0.00000000000E+00 0.  1.
          3    1    3    3  501    0 -0.60426323997E+02 -0.20592783496E+03 -0.90917091551E+02  0.23307408989E+03  0.00000000000E+00 0.  1.
         21    1    1    2  502  501  0.90937236740E+01 -0.39508286891E+02  0.44278489757E+02  0.60034866524E+02  0.00000000000E+00 0.  1.
<scales pt_clust_4="550.00000" pt_clust_5="550.00000" pt_clust_6="40.54134"></scales>
<mgrwt>
<rscale>  0 0.30000000E+03</rscale>
<asrwt>  1 0.40541344E+02</asrwt>
<pdfrwt beam="1">  1        1 0.99183732E+00 0.30000000E+03</pdfrwt>
<pdfrwt beam="2">0</pdfrwt>
<totfact> 0.55126965E-07</totfact>
</mgrwt>
<clustering>
<clus scale="   40.541">  1  6  2 -1</clus>
<clus scale="  483.801">  4  5 -1 -1</clus>
<clus scale="  300.000">  1  4  2 -1</clus>
</clustering>
</event>
<event>
 6    1  0.1029244E-011  0.3000000E+03  0.7818608E-02  0.1093470E+00
          1   -1    0    0  502    0  0.00000000000E+00  0.00000000000E+00  0.23199858892E+03  0.23199858892E+03  0.00000000000E+00 0.  1.
         13   -1    0    0    0    0 -0.00000000000E+00 -0.00000000000E+00 -0.27500000000E+03  0.27500000000E+03  0.00000000000E+00 0.  1.
    9000005    2    1    2  501    0  0.30400564885E+02 -0.25393005617E+02 -0.57729653249E+02  0.46473843988E+03  0.45943454981E+03 0.  0.
         13    1    3    3    0    0 -0.12197360716E+03  0.77762682968E+02 -0.18951028190E+03  0.23840877218E+03  0.00000000000E+00 0.  1.
          3    1    3    3  501    0  0.15237417205E+03 -0.10315568859E+03  0.13178062865E+03  0.22632966770E+03  0.00000000000E+00 0.  1.
         21    1    1    2  502  501 -0.30400564885E+02  0.25393005617E+02  0.14728242174E+02  0.42260149043E+02  0.00000000000E+00 0.  1.
<scales pt_clust_4="550.00000" pt_clust_5="550.00000" pt_clust_6="39.61059"></scales>
<mgrwt>
<rscale>  0 0.30000000E+03</rscale>
<asrwt>  1 0.39610593E+02</asrwt>
<pdfrwt beam="1">  1        1 0.84363123E+00 0.30000000E+03</pdfrwt>
<pdfrwt beam="2">0</pdfrwt>
<totfact> 0.45378392E-04</totfact>
</mgrwt>
<clustering>
<clus scale="   39.611">  1  6  2 -1</clus>
<clus scale="  459.435">  4  5 -1 -1</clus>
<clus scale="  300.000">  1  4  2 -1</clus>
</clustering>
</event>
<event>
 6    1  0.1029244E-011  0.3000000E+03  0.7818608E-02  0.1093470E+00
          1   -1    0    0  502    0  0.00000000000E+00  0.00000000000E+00  0.25594785827E+03  0.25594785827E+03  0.00000000000E+00 0.  1.
         13   -1    0    0    0    0 -0.00000000000E+00 -0.00000000000E+00 -0.27500000000E+03  0.27500000000E+03  0.00000000000E+00 0.  1.
    9000005    2    1    2  501    0  0.38673343712E+02  0.12872670020E+02 -0.17567331682E+02  0.49016136776E+03  0.48814774623E+03 0.  0.
         13    1    3    3    0    0  0.25661392966E+03 -0.34165919907E+02  0.34600877303E+02  0.26118047341E+03  0.00000000000E+00 0.  1.
          1    1    3    3  501    0 -0.21794058595E+03  0.47038589927E+02 -0.52168208985E+02  0.22898089435E+03  0.00000000000E+00 0.  1.
         21    1    1    2  502  501 -0.38673343712E+02 -0.12872670020E+02 -0.14848100489E+01  0.40786490511E+02  0.00000000000E+00 0. -1.
<scales pt_clust_4="550.00000" pt_clust_5="550.00000" pt_clust_6="40.75948"></scales>
<mgrwt>
<rscale>  0 0.30000000E+03</rscale>
<asrwt>  1 0.40759475E+02</asrwt>
<pdfrwt beam="1">  1        1 0.93071948E+00 0.30000000E+03</pdfrwt>
<pdfrwt beam="2">0</pdfrwt>
<totfact> 0.24918249E-05</totfact>
</mgrwt>
<clustering>
<clus scale="   40.759">  1  6  2 -1</clus>
<clus scale="  488.148">  4  5 -1 -1</clus>
<clus scale="  300.000">  1  4  2 -1</clus>
</clustering>
</event>
<event>
 6    1  0.1029244E-011  0.3000000E+03  0.7818608E-02  0.1093470E+00
          1   -1    0    0  502    0  0.00000000000E+00  0.00000000000E+00  0.22540387011E+03  0.22540387011E+03  0.00000000000E+00 0.  1.
         13   -1    0    0    0    0 -0.00000000000E+00 -0.00000000000E+00 -0.27500000000E+03  0.27500000000E+03  0.00000000000E+00 0.  1.
    9000005    2    1    2  501    0 -0.30503584541E+02 -0.88449517355E+01 -0.28765907433E+02  0.46242229552E+03  0.46043262279E+03 0.  0.
         13    1    3    3    0    0 -0.97512475465E+02  0.17761032140E+03 -0.12918428192E+03  0.24029708246E+03  0.00000000000E+00 0.  1.
          3    1    3    3  501    0  0.67008890924E+02 -0.18645527314E+03  0.10041837449E+03  0.22212521307E+03  0.00000000000E+00 0.  1.
         21    1    1    2  502  501  0.30503584541E+02  0.88449517355E+01 -0.20830222452E+02  0.37981574591E+02  0.00000000000E+00 0.  1.
<scales pt_clust_4="550.00000" pt_clust_5="550.00000" pt_clust_6="31.76008"></scales>
<mgrwt>
<rscale>  0 0.30000000E+03</rscale>
<asrwt>  1 0.31760083E+02</asrwt>
<pdfrwt beam="1">  1        1 0.81965044E+00 0.30000000E+03</pdfrwt>
<pdfrwt beam="2">0</pdfrwt>
<totfact> 0.74181117E-04</totfact>
</mgrwt>
<clustering>
<clus scale="   31.760">  1  6  2 -1</clus>
<clus scale="  460.433">  4  5 -1 -1</clus>
<clus scale="  300.000">  1  4  2 -1</clus>
</clustering>
</event>
<event>
 6    1  0.1029244E-011  0.3000000E+03  0.7818608E-02  0.1093470E+00
          1   -1    0    0  502    0  0.00000000000E+00  0.00000000000E+00  0.22720605860E+03  0.22720605860E+03  0.00000000000E+00 0.  1.
         13   -1    0    0    0    0 -0.00000000000E+00 -0.00000000000E+00 -0.27500000000E+03  0.27500000000E+03  0.00000000000E+00 0.  1.
    9000005    2    1    2  501    0  0.24786061823E+02 -0.25725998493E+02 -0.49598112336E+02  0.46643692537E+03  0.46241459400E+03 0.  0.
         13    1    3    3    0    0 -0.15159151371E+03 -0.52031072391E+02  0.13516016292E+03  0.20965564424E+03  0.00000000000E+00 0.  1.
          3    1    3    3  501    0  0.17637757553E+03  0.26305073898E+02 -0.18475827525E+03  0.25678128113E+03  0.00000000000E+00 0.  1.
         21    1    1    2  502  501 -0.24786061823E+02  0.25725998493E+02  0.18041709366E+01  0.35769133229E+02  0.00000000000E+00 0.  1.
<scales pt_clust_4="550.00000" pt_clust_5="550.00000" pt_clust_6="35.72360"></scales>
<mgrwt>
<rscale>  0 0.30000000E+03</rscale>
<asrwt>  1 0.35723604E+02</asrwt>
<pdfrwt beam="1">  1        1 0.82620385E+00 0.30000000E+03</pdfrwt>
<pdfrwt beam="2">0</pdfrwt>
<totfact> 0.63482655E-04</totfact>
</mgrwt>
<clustering>
<clus scale="   35.724">  1  6  2 -1</clus>
<clus scale="  462.415">  4  5 -1 -1</clus>
<clus scale="  300.000">  1  4  2 -1</clus>
</clustering>
</event>
<event>
 6    1  0.1029244E-011  0.3000000E+03  0.7818608E-02  0.1093470E+00
          1   -1    0    0  502    0  0.00000000000E+00  0.00000000000E+00  0.24014079886E+03  0.24014079886E+03  0.00000000000E+00 0.  1.
         13   -1    0    0    0    0 -0.00000000000E+00 -0.00000000000E+00 -0.27500000000E+03  0.27500000000E+03  0.00000000000E+00 0.  1.
    9000005    2    1    2  501    0 -0.12639878923E+02 -0.29901523538E+02 -0.65456516513E+02  0.47053067269E+03  0.46482328980E+03 0.  0.
         13    1    3    3    0    0  0.21609317168E+03  0.52991484737E+02 -0.24925292843E+02  0.22388753098E+03  0.00000000000E+00 0.  1.
          1    1    3    3  501    0 -0.22873305061E+03 -0.82893008275E+02 -0.40531223669E+02  0.24664314171E+03  0.00000000000E+00 0.  1.
         21    1    1    2  502  501  0.12639878923E+02  0.29901523538E+02  0.30597315373E+02  0.44610126173E+02  0.00000000000E+00 0.  1.
<scales pt_clust_4="550.00000" pt_clust_5="550.00000" pt_clust_6="32.46333"></scales>
<mgrwt>
<rscale>  0 0.30000000E+03</rscale>
<asrwt>  1 0.32463328E+02</asrwt>
<pdfrwt beam="1">  1        1 0.87323927E+00 0.30000000E+03</pdfrwt>
<pdfrwt beam="2">0</pdfrwt>
<totfact> 0.23799321E-04</totfact>
</mgrwt>
<clustering>
<clus scale="   32.463">  1  6  2 -1</clus>
<clus scale="  464.823">  4  5 -1 -1</clus>
<clus scale="  300.000">  1  4  2 -1</clus>
</clustering>
</event>
<event>
 6    1  0.1029244E-011  0.3000000E+03  0.7818608E-02  0.1093470E+00
          1   -1    0    0  502    0  0.00000000000E+00  0.00000000000E+00  0.24690411767E+03  0.24690411767E+03  0.00000000000E+00 0.  1.
         13   -1    0    0    0    0 -0.00000000000E+00 -0.00000000000E+00 -0.27500000000E+03  0.27500000000E+03  0.00000000000E+00 0.  1.
    9000005    2    1    2  501    0  0.51020098623E+02 -0.13249053939E+02 -0.40527542159E+02  0.46774570134E+03  0.46299564960E+03 0.  0.
         13    1    3    3    0    0  0.18659608216E+03  0.64657392779E+01 -0.18903546352E+03  0.26569589784E+03  0.00000000000E+00 0.  1.
          3    1    3    3  501    0 -0.13557598354E+03 -0.19714793217E+02  0.14850792137E+03  0.20204980349E+03  0.00000000000E+00 0.  1.
         21    1    1    2  502  501 -0.51020098623E+02  0.13249053939E+02  0.12431659833E+02  0.54158416336E+02  0.00000000000E+00 0. -1.
<scales pt_clust_4="550.00000" pt_clust_5="550.00000" pt_clust_6="52.71231"></scales>
<mgrwt>
<rscale>  0 0.30000000E+03</rscale>
<asrwt>  1 0.52712313E+02</asrwt>
<pdfrwt beam="1">  1        1 0.89783316E+00 0.30000000E+03</pdfrwt>
<pdfrwt beam="2">0</pdfrwt>
<totfact> 0.10886357E-04</totfact>
</mgrwt>
<clustering>
<clus scale="   52.712">  1  6  2 -1</clus>
<clus scale="  462.996">  4  5 -1 -1</clus>
<clus scale="  300.000">  1  4  2 -1</clus>
</clustering>
</event>
<event>
 6    1  0.1029244E-011  0.3000000E+03  0.7818608E-02  0.1093470E+00
          1   -1    0    0  502    0  0.00000000000E+00  0.00000000000E+00  0.22214970773E+03  0.22214970773E+03  0.00000000000E+00 0.  1.
         13   -1    0    0    0    0 -0.00000000000E+00 -0.00000000000E+00 -0.27500000000E+03  0.27500000000E+03  0.00000000000E+00 0.  1.
    9000005    2    1    2  501    0 -0.81774910262E+01  0.30767671964E+02 -0.59380294416E+02  0.46465106275E+03  0.45974021985E+03 0.  0.
         13    1    3    3    0    0 -0.78662195770E+02  0.20148317622E+03 -0.14569037903E+03  0.26078515657E+03  0.00000000000E+00 0.  1.
          3    1    3    3  501    0  0.70484704744E+02 -0.17071550426E+03  0.86310084618E+02  0.20386590618E+03  0.00000000000E+00 0.  1.
         21    1    1    2  502  501  0.81774910262E+01 -0.30767671964E+02  0.65300021456E+01  0.32498644981E+02  0.00000000000E+00 0. -1.
<scales pt_clust_4="550.00000" pt_clust_5="550.00000" pt_clust_6="31.83584"></scales>
<mgrwt>
<rscale>  0 0.30000000E+03</rscale>
<asrwt>  1 0.31835845E+02</asrwt>
<pdfrwt beam="1">  1        1 0.80781712E+00 0.30000000E+03</pdfrwt>
<pdfrwt beam="2">0</pdfrwt>
<totfact> 0.92314876E-04</totfact>
</mgrwt>
<clustering>
<clus scale="   31.836">  1  6  2 -1</clus>
<clus scale="  459.740">  4  5 -1 -1</clus>
<clus scale="  300.000">  1  4  2 -1</clus>
</clustering>
</event>
<event>
 6    1  0.1029244E-011  0.3000000E+03  0.7818608E-02  0.1093470E+00
          1   -1    0    0  502    0  0.00000000000E+00  0.00000000000E+00  0.24671964922E+03  0.24671964922E+03  0.00000000000E+00 0.  1.
         13   -1    0    0    0    0 -0.00000000000E+00 -0.00000000000E+00 -0.27500000000E+03  0.27500000000E+03  0.00000000000E+00 0.  1.
    9000005    2    1    2  501    0 -0.27961312021E+02  0.30798891968E+02 -0.37409511333E+02  0.47913152542E+03  0.47585411672E+03 0.  0.
         13    1    3    3    0    0 -0.53203930414E+02  0.45368150838E+01  0.21631372458E+03  0.22280679601E+03  0.00000000000E+00 0.  1.
          3    1    3    3  501    0  0.25242618394E+02  0.26262076884E+02 -0.25372323592E+03  0.25632472942E+03  0.00000000000E+00 0.  1.
         21    1    1    2  502  501  0.27961312021E+02 -0.30798891968E+02  0.91291605549E+01  0.42588123800E+02  0.00000000000E+00 0.  1.
<scales pt_clust_4="550.00000" pt_clust_5="550.00000" pt_clust_6="41.59816"></scales>
<mgrwt>
<rscale>  0 0.30000000E+03</rscale>
<asrwt>  1 0.41598158E+02</asrwt>
<pdfrwt beam="1">  1        1 0.89716236E+00 0.30000000E+03</pdfrwt>
<pdfrwt beam="2">0</pdfrwt>
<totfact> 0.11553766E-04</totfact>
</mgrwt>
<clustering>
<clus scale="   41.598">  1  6  2 -1</clus>
<clus scale="  475.854">  4  5 -1 -1</clus>
<clus scale="  300.000">  1  4  2 -1</clus>
</clustering>
</event>
<event>
 6    1  0.1029244E-011  0.3000000E+03  0.7818608E-02  0.1093470E+00
          1   -1    0    0  502    0  0.00000000000E+00  0.00000000000E+00  0.21954901372E+03  0.21954901372E+03  0.00000000000E+00 0.  1.
         13   -1    0    0    0    0 -0.00000000000E+00 -0.00000000000E+00 -0.27500000000E+03  0.27500000000E+03  0.00000000000E+00 0.  1.
    9000005    2    1    2  501    0  0.16315581828E+02  0.25818368768E+02 -0.48925736152E+02  0.46331817534E+03  0.45971427819E+03 0.  0.
         13    1    3    3    0    0  0.15218969120E+03 -0.14657756320E+03 -0.10617123822E+03  0.23647201941E+03  0.00000000000E+00 0.  1.
          3    1    3    3  501    0 -0.13587410937E+03  0.17239593196E+03  0.57245502069E+02  0.22684615593E+03  0.00000000000E+00 0.  1.
         21    1    1    2  502  501 -0.16315581828E+02 -0.25818368768E+02 -0.65252501320E+01  0.31230838373E+02  0.00000000000E+00 0.  1.
<scales pt_clust_4="550.00000" pt_clust_5="550.00000" pt_clust_6="30.54157"></scales>
<mgrwt>
<rscale>  0 0.30000000E+03</rscale>
<asrwt>  1 0.30541567E+02</asrwt>
<pdfrwt beam="1">  1        1 0.79836005E+00 0.30000000E+03</pdfrwt>
<pdfrwt beam="2">0</pdfrwt>
<totfact> 0.10936312E-03</totfact>
</mgrwt>
<clustering>
<clus scale="   30.542">  1  6  2 -1</clus>
<clus scale="  459.714">  4  5 -1 -1</clus>
<clus scale="  300.000">  1  4  2 -1</clus>
</clustering>
</event>
<event>
 6    1  0.1029244E-011  0.3000000E+03  0.7818608E-02  0.1093470E+00
          1   -1    0    0  502    0  0.00000000000E+00  0.00000000000E+00  0.24561918207E+03  0.24561918207E+03  0.00000000000E+00 0.  1.
         13   -1    0    0    0    0 -0.00000000000E+00 -0.00000000000E+00 -0.27500000000E+03  0.27500000000E+03  0.00000000000E+00 0.  1.
    9000005    2    1    2  501    0  0.25778014060E+02  0.19258713445E+02 -0.39858717668E+02  0.48677851962E+03  0.48407561985E+03 0.  0.
         13    1    3    3    0    0 -0.18744733484E+03 -0.11199355126E+03  0.43961521852E+02  0.22273678247E+03  0.00000000000E+00 0.  1.
          1    1    3    3  501    0  0.21322534890E+03  0.13125226470E+03 -0.83820239520E+02  0.26404173715E+03  0.00000000000E+00 0.  1.
         21    1    1    2  502  501 -0.25778014060E+02 -0.19258713445E+02  0.10477899738E+02  0.33840662454E+02  0.00000000000E+00 0.  1.
<scales pt_clust_4="550.00000" pt_clust_5="550.00000" pt_clust_6="32.17769"></scales>
<mgrwt>
<rscale>  0 0.30000000E+03</rscale>
<asrwt>  1 0.32177695E+02</asrwt>
<pdfrwt beam="1">  1        1 0.89316066E+00 0.30000000E+03</pdfrwt>
<pdfrwt beam="2">0</pdfrwt>
<totfact> 0.13446286E-04</totfact>
</mgrwt>
<clustering>
<clus scale="   32.178">  1  6  2 -1</clus>
<clus scale="  484.076">  4  5 -1 -1</clus>
<clus scale="  300.000">  1  4  2 -1</clus>
</clustering>
</event>
<event>
 6    1  0.1029244E-011  0.3000000E+03  0.7818608E-02  0.1093470E+00
          1   -1    0    0  502    0  0.00000000000E+00  0.00000000000E+00  0.23928451716E+03  0.23928451716E+03  0.00000000000E+00 0.  1.
         13   -1    0    0    0    0 -0.00000000000E+00 -0.00000000000E+00 -0.27500000000E+03  0.27500000000E+03  0.00000000000E+00 0.  1.
    9000005    2    1    2  501    0  0.56197802397E+01  0.34992143760E+02 -0.71635501162E+02  0.46382384167E+03  0.45688606788E+03 0.  0.
         13    1    3    3    0    0 -0.21868686310E+03  0.51694019278E+02 -0.80564215762E+02  0.23871909974E+03  0.00000000000E+00 0.  1.
          3    1    3    3  501    0  0.22430664334E+03 -0.16701875519E+02  0.89287146005E+01  0.22510474192E+03  0.00000000000E+00 0.  1.
         21    1    1    2  502  501 -0.56197802397E+01 -0.34992143760E+02  0.35920018322E+02  0.50460675492E+02  0.00000000000E+00 0. -1.
<scales pt_clust_4="550.00000" pt_clust_5="550.00000" pt_clust_6="35.44054"></scales>
<mgrwt>
<rscale>  0 0.30000000E+03</rscale>
<asrwt>  1 0.35440543E+02</asrwt>
<pdfrwt beam="1">  1        1 0.87012552E+00 0.30000000E+03</pdfrwt>
<pdfrwt beam="2">0</pdfrwt>
<totfact> 0.25191462E-04</totfact>
</mgrwt>
<clustering>
<clus scale="   35.441">  1  6  2 -1</clus>
<clus scale="  456.886">  4  5 -1 -1</clus>
<clus scale="  300.000">  1  4  2 -1</clus>
</clustering>
</event>
<event>
 6    1  0.1029244E-011  0.3000000E+03  0.7818608E-02  0.1093470E+00
          1   -1    0    0  502    0  0.00000000000E+00  0.00000000000E+00  0.23724774943E+03  0.23724774943E+03  0.00000000000E+00 0.  1.
         13   -1    0    0    0    0 -0.00000000000E+00 -0.00000000000E+00 -0.27500000000E+03  0.27500000000E+03  0.00000000000E+00 0.  1.
    9000005    2    1    2  501    0  0.14783112755E+02  0.27426814856E+02 -0.63295486670E+02  0.47195845177E+03  0.46665585924E+03 0.  0.
         13    1    3    3    0    0 -0.14655470764E+03  0.28286396492E+02 -0.20747282900E+03  0.25558438398E+03  0.00000000000E+00 0.  1.
          1    1    3    3  501    0  0.16133782039E+03 -0.85958163577E+00  0.14417734233E+03  0.21637406779E+03  0.00000000000E+00 0.  1.
         21    1    1    2  502  501 -0.14783112755E+02 -0.27426814856E+02  0.25543236102E+02  0.40289297666E+02  0.00000000000E+00 0. -1.
<scales pt_clust_4="550.00000" pt_clust_5="550.00000" pt_clust_6="31.15719"></scales>
<mgrwt>
<rscale>  0 0.30000000E+03</rscale>
<asrwt>  1 0.31157192E+02</asrwt>
<pdfrwt beam="1">  1        1 0.86271909E+00 0.30000000E+03</pdfrwt>
<pdfrwt beam="2">0</pdfrwt>
<totfact> 0.30910824E-04</totfact>
</mgrwt>
<clustering>
<clus scale="   31.157">  1  6  2 -1</clus>
<clus scale="  466.656">  4  5 -1 -1</clus>
<clus scale="  300.000">  1  4  2 -1</clus>
</clustering>
</event>
<event>
 6    1  0.1029244E-011  0.3000000E+03  0.7818608E-02  0.1093470E+00
          1   -1    0    0  502    0  0.00000000000E+00  0.00000000000E+00  0.23732571770E+03  0.23732571770E+03  0.00000000000E+00 0.  1.
         13   -1    0    0    0    0 -0.00000000000E+00 -0.00000000000E+00 -0.27500000000E+03  0.27500000000E+03  0.00000000000E+00 0.  1.
    9000005    2    1    2  501    0 -0.41971301654E+02  0.25147217776E+01 -0.60828305063E+02  0.46432548063E+03  0.45839955855E+03 0.  0.
         13    1    3    3    0    0  0.65982437158E+02  0.11171819971E+02 -0.24318979131E+03  0.25222959020E+03  0.00000000000E+00 0.  1.
          1    1    3    3  501    0 -0.10795373881E+03 -0.86570981934E+01  0.18236148625E+03  0.21209589043E+03  0.00000000000E+00 0.  1.
         21    1    1    2  502  501  0.41971301654E+02 -0.25147217776E+01  0.23154022762E+02  0.48000237064E+02  0.00000000000E+00 0. -1.
<scales pt_clust_4="550.00000" pt_clust_5="550.00000" pt_clust_6="42.04657"></scales>
<mgrwt>
<rscale>  0 0.30000000E+03</rscale>
<asrwt>  1 0.42046569E+02</asrwt>
<pdfrwt beam="1">  1        1 0.86300261E+00 0.30000000E+03</pdfrwt>
<pdfrwt beam="2">0</pdfrwt>
<totfact> 0.29029689E-04</totfact>
</mgrwt>
<clustering>
<clus scale="   42.047">  1  6  2 -1</clus>
<clus scale="  458.400">  4  5 -1 -1</clus>
<clus scale="  300.000">  1  4  2 -1</clus>
</clustering>
</event>
<event>
 6    1  0.1029244E-011  0.3000000E+03  0.7818608E-02  0.1093470E+00
          1   -1    0    0  502    0  0.00000000000E+00  0.00000000000E+00  0.24944784485E+03  0.24944784485E+03  0.00000000000E+00 0.  1.
         13   -1    0    0    0    0 -0.00000000000E+00 -0.00000000000E+00 -0.27500000000E+03  0.27500000000E+03  0.00000000000E+00 0.  1.
    9000005    2    1    2  501    0 -0.25939295983E+02 -0.34509042168E+02  0.92609764301E+01  0.46898907459E+03  0.46690605622E+03 0.  0.
         13    1    3    3    0    0 -0.10328516253E+03  0.14012920513E+03  0.15155686024E+03  0.23081053013E+03  0.00000000000E+00 0.  1.
          1    1    3    3  501    0  0.77345866549E+02 -0.17463824730E+03 -0.14229588381E+03  0.23817854446E+03  0.00000000000E+00 0.  1.
         21    1    1    2  502  501  0.25939295983E+02  0.34509042168E+02 -0.34813131584E+02  0.55458770255E+02  0.00000000000E+00 0.  1.
<scales pt_clust_4="550.00000" pt_clust_5="550.00000" pt_clust_6="43.17086"></scales>
<mgrwt>
<rscale>  0 0.30000000E+03</rscale>
<asrwt>  1 0.43170857E+02</asrwt>
<pdfrwt beam="1">  1        1 0.90708307E+00 0.30000000E+03</pdfrwt>
<pdfrwt beam="2">0</pdfrwt>
<totfact> 0.80729429E-05</totfact>
</mgrwt>
<clustering>
<clus scale="   43.171">  1  6  2 -1</clus>
<clus scale="  466.906">  4  5 -1 -1</clus>
<clus scale="  300.000">  1  4  2 -1</clus>
</clustering>
</event>
<event>
 6    1  0.1029244E-011  0.3000000E+03  0.7818608E-02  0.1093470E+00
          1   -1    0    0  502    0  0.00000000000E+00  0.00000000000E+00  0.24360880958E+03  0.24360880958E+03  0.00000000000E+00 0.  1.
         13   -1    0    0    0    0 -0.00000000000E+00 -0.00000000000E+00 -0.27500000000E+03  0.27500000000E+03  0.00000000000E+00 0.  1.
    9000005    2    1    2  501    0 -0.45886150864E+02  0.59348239403E+01 -0.61271795748E+02  0.46353057839E+03  0.45712755678E+03 0.  0.
         13    1    3    3    0    0 -0.15070424577E+03 -0.27833094393E+02  0.15678499874E+03  0.21924412573E+03  0.00000000000E+00 0.  1.
          1    1    3    3  501    0  0.10481809491E+03  0.33767918334E+02 -0.21805679449E+03  0.24428645266E+03  0.00000000000E+00 0.  1.
         21    1    1    2  502  501  0.45886150864E+02 -0.59348239403E+01  0.29880605330E+02  0.55078231192E+02  0.00000000000E+00 0. -1.
<scales pt_clust_4="550.00000" pt_clust_5="550.00000" pt_clust_6="46.26836"></scales>
<mgrwt>
<rscale>  0 0.30000000E+03</rscale>
<asrwt>  1 0.46268358E+02</asrwt>
<pdfrwt beam="1">  1        1 0.88585022E+00 0.30000000E+03</pdfrwt>
<pdfrwt beam="2">0</pdfrwt>
<totfact> 0.15700487E-04</totfact>
</mgrwt>
<clustering>
<clus scale="   46.268">  1  6  2 -1</clus>
<clus scale="  457.128">  4  5 -1 -1</clus>
<clus scale="  300.000">  1  4  2 -1</clus>
</clustering>
</event>
<event>
 6    1  0.1029244E-011  0.3000000E+03  0.7818608E-02  0.1093470E+00
          1   -1    0    0  502    0  0.00000000000E+00  0.00000000000E+00  0.22262646674E+03  0.22262646674E+03  0.00000000000E+00 0.  1.
         13   -1    0    0    0    0 -0.00000000000E+00 -0.00000000000E+00 -0.27500000000E+03  0.27500000000E+03  0.00000000000E+00 0.  1.
    9000005    2    1    2  501    0  0.21158539792E+02 -0.21442945207E+02 -0.56427246388E+02  0.46723047531E+03  0.46283128591E+03 0.  0.
         13    1    3    3    0    0  0.19206640961E+02  0.11606790684E+03  0.16735462824E+03  0.20456838868E+03  0.00000000000E+00 0.  1.
          1    1    3    3  501    0  0.19518988304E+01 -0.13751085205E+03 -0.22378187462E+03  0.26266208663E+03  0.00000000000E+00 0.  1.
         21    1    1    2  502  501 -0.21158539792E+02  0.21442945207E+02  0.40537131311E+01  0.30395991437E+02  0.00000000000E+00 0.  1.
<scales pt_clust_4="550.00000" pt_clust_5="550.00000" pt_clust_6="30.12447"></scales>
<mgrwt>
<rscale>  0 0.30000000E+03</rscale>
<asrwt>  1 0.30124470E+02</asrwt>
<pdfrwt beam="1">  1        1 0.80955079E+00 0.30000000E+03</pdfrwt>
<pdfrwt beam="2">0</pdfrwt>
<totfact> 0.90457899E-04</totfact>
</mgrwt>
<clustering>
<clus scale="   30.124">  1  6  2 -1</clus>
<clus scale="  462.831">  4  5 -1 -1</clus>
<clus scale="  300.000">  1  4  2 -1</clus>
</clustering>
</event>
<event>
 6    1  0.1029244E-011  0.3000000E+03  0.7818608E-02  0.1093470E+00
          1   -1    0    0  502    0  0.00000000000E+00  0.00000000000E+00  0.22750726059E+03  0.22750726059E+03  0.00000000000E+00 0.  1.
         13   -1    0    0    0    0 -0.00000000000E+00 -0.00000000000E+00 -0.27500000000E+03  0.27500000000E+03  0.00000000000E+00 0.  1.
    9000005    2    1    2  501    0  0.15577530321E+02 -0.29908606784E+02 -0.45034250282E+02  0.46869560018E+03  0.46530667062E+03 0.  0.
         13    1    3    3    0    0  0.18241668627E+03  0.95744791614E+02 -0.12956776437E+03  0.24337361836E+03  0.00000000000E+00 0.  1.
          1    1    3    3  501    0 -0.16683915595E+03 -0.12565339840E+03  0.84533514093E+02  0.22532198182E+03  0.00000000000E+00 0.  1.
         21    1    1    2  502  501 -0.15577530321E+02  0.29908606784E+02 -0.24584891315E+01  0.33811660407E+02  0.00000000000E+00 0.  1.
<scales pt_clust_4="550.00000" pt_clust_5="550.00000" pt_clust_6="33.72216"></scales>
<mgrwt>
<rscale>  0 0.30000000E+03</rscale>
<asrwt>  1 0.33722162E+02</asrwt>
<pdfrwt beam="1">  1        1 0.82729913E+00 0.30000000E+03</pdfrwt>
<pdfrwt beam="2">0</pdfrwt>
<totfact> 0.62761161E-04</totfact>
</mgrwt>
<clustering>
<clus scale="   33.722">  1  6  2 -1</clus>
<clus scale="  465.307">  4  5 -1 -1</clus>
<clus scale="  300.000">  1  4  2 -1</clus>
</clustering>
</event>
<event>
 6    1  0.1029244E-011  0.3000000E+03  0.7818608E-02  0.1093470E+00
          1   -1    0    0  502    0  0.00000000000E+00  0.00000000000E+00  0.22257995982E+03  0.22257995982E+03  0.00000000000E+00 0.  1.
         13   -1    0    0    0    0 -0.00000000000E+00 -0.00000000000E+00 -0.27500000000E+03  0.27500000000E+03  0.00000000000E+00 0.  1.
    9000005    2    1    2  501    0 -0.34813350017E+02  0.98328175861E+00 -0.38874241813E+02  0.46021119164E+03  0.45724194695E+03 0.  0.
         13    1    3    3    0    0  0.37116361458E+02  0.12325323400E+03  0.16659409061E+03  0.21052927351E+03  0.00000000000E+00 0.  1.
          3    1    3    3  501    0 -0.71929711476E+02 -0.12226995224E+03 -0.20546833242E+03  0.24968191813E+03  0.00000000000E+00 0.  1.
         21    1    1    2  502  501  0.34813350017E+02 -0.98328175861E+00 -0.13545798364E+02  0.37368768186E+02  0.00000000000E+00 0. -1.
<scales pt_clust_4="550.00000" pt_clust_5="550.00000" pt_clust_6="34.82725"></scales>
<mgrwt>
<rscale>  0 0.30000000E+03</rscale>
<asrwt>  1 0.34827251E+02</asrwt>
<pdfrwt beam="1">  1        1 0.80938167E+00 0.30000000E+03</pdfrwt>
<pdfrwt beam="2">0</pdfrwt>
<totfact> 0.88268243E-04</totfact>
</mgrwt>
<clustering>
<clus scale="   34.827">  1  6  2 -1</clus>
<clus scale="  457.242">  4  5 -1 -1</clus>
<clus scale="  300.000">  1  4  2 -1</clus>
</clustering>
</event>
<event>
 6    1  0.1029244E-011  0.3000000E+03  0.7818608E-02  0.1093470E+00
          1   -1    0    0  502    0  0.00000000000E+00  0.00000000000E+00  0.23103725929E+03  0.23103725929E+03  0.00000000000E+00 0.  1.
         13   -1    0    0    0    0 -0.00000000000E+00 -0.00000000000E+00 -0.27500000000E+03  0.27500000000E+03  0.00000000000E+00 0.  1.
    9000005    2    1    2  501    0 -0.25393097058E+02 -0.32019909019E+02 -0.52824326500E+02  0.46422085516E+03  0.45939145502E+03 0.  0.
         13    1    3    3    0    0  0.16901962770E+02  0.19391848462E+03 -0.11501412891E+03  0.22609357547E+03  0.00000000000E+00 0.  1.
          1    1    3    3  501    0 -0.42295059827E+02 -0.22593839364E+03  0.62189802406E+02  0.23812727968E+03  0.00000000000E+00 0.  1.
         21    1    1    2  502  501  0.25393097058E+02  0.32019909019E+02  0.88615857878E+01  0.41816404131E+02  0.00000000000E+00 0.  1.
<scales pt_clust_4="550.00000" pt_clust_5="550.00000" pt_clust_6="40.86666"></scales>
<mgrwt>
<rscale>  0 0.30000000E+03</rscale>
<asrwt>  1 0.40866661E+02</asrwt>
<pdfrwt beam="1">  1        1 0.84013549E+00 0.30000000E+03</pdfrwt>
<pdfrwt beam="2">0</pdfrwt>
<totfact> 0.48188405E-04</totfact>
</mgrwt>
<clustering>
<clus scale="   40.867">  1  6  2 -1</clus>
<clus scale="  459.391">  4  5 -1 -1</clus>
<clus scale="  300.000">  1  4  2 -1</clus>
</clustering>
</event>
<event>
 6    1  0.1029244E-011  0.3000000E+03  0.7818608E-02  0.1093470E+00
          1   -1    0    0  502    0  0.00000000000E+00  0.00000000000E+00  0.23958383236E+03  0.23958383236E+03  0.00000000000E+00 0.  1.
         13   -1    0    0    0    0 -0.00000000000E+00 -0.00000000000E+00 -0.27500000000E+03  0.27500000000E+03  0.00000000000E+00 0.  1.
    9000005    2    1    2  501    0 -0.65679179459E+01  0.32782044068E+02 -0.29148693920E+02  0.48056793627E+03  0.47851655672E+03 0.  0.
         13    1    3    3    0    0 -0.50556174868E+02 -0.18295818521E+03  0.11069370607E+03  0.21973329496E+03  0.00000000000E+00 0.  1.
          3    1    3    3  501    0  0.43988256922E+02  0.21574022927E+03 -0.13984239999E+03  0.26083464131E+03  0.00000000000E+00 0.  1.
         21    1    1    2  502  501  0.65679179459E+01 -0.32782044068E+02 -0.62674737240E+01  0.34015896083E+02  0.00000000000E+00 0.  1.
<scales pt_clust_4="550.00000" pt_clust_5="550.00000" pt_clust_6="33.43353"></scales>
<mgrwt>
<rscale>  0 0.30000000E+03</rscale>
<asrwt>  1 0.33433532E+02</asrwt>
<pdfrwt beam="1">  1        1 0.87121394E+00 0.30000000E+03</pdfrwt>
<pdfrwt beam="2">0</pdfrwt>
<totfact> 0.24825093E-04</totfact>
</mgrwt>
<clustering>
<clus scale="   33.434">  1  6  2 -1</clus>
<clus scale="  478.517">  4  5 -1 -1</clus>
<clus scale="  300.000">  1  4  2 -1</clus>
</clustering>
</event>
<event>
 6    1  0.1029244E-011  0.3000000E+03  0.7818608E-02  0.1093470E+00
          1   -1    0    0  502    0  0.00000000000E+00  0.00000000000E+00  0.24141713287E+03  0.24141713287E+03  0.00000000000E+00 0.  1.
         13   -1    0    0    0    0 -0.00000000000E+00 -0.00000000000E+00 -0.27500000000E+03  0.27500000000E+03  0.00000000000E+00 0.  1.
    9000005    2    1    2  501    0 -0.32247767381E+02 -0.14532167063E+02 -0.56962229845E+02  0.47401787602E+03  0.46925169022E+03 0.  0.
         13    1    3    3    0    0 -0.59451415441E+02  0.13283119838E+03 -0.21281109602E+03  0.25781225854E+03  0.00000000000E+00 0.  1.
          1    1    3    3  501    0  0.27203648060E+02 -0.14736336544E+03  0.15584886618E+03  0.21620561748E+03  0.00000000000E+00 0.  1.
         21    1    1    2  502  501  0.32247767381E+02  0.14532167063E+02  0.23379362714E+02  0.42399256851E+02  0.00000000000E+00 0.  1.
<scales pt_clust_4="550.00000" pt_clust_5="550.00000" pt_clust_6="35.37093"></scales>
<mgrwt>
<rscale>  0 0.30000000E+03</rscale>
<asrwt>  1 0.35370926E+02</asrwt>
<pdfrwt beam="1">  1        1 0.87788048E+00 0.30000000E+03</pdfrwt>
<pdfrwt beam="2">0</pdfrwt>
<totfact> 0.20874798E-04</totfact>
</mgrwt>
<clustering>
<clus scale="   35.371">  1  6  2 -1</clus>
<clus scale="  469.252">  4  5 -1 -1</clus>
<clus scale="  300.000">  1  4  2 -1</clus>
</clustering>
</event>
<event>
 6    1  0.1029244E-011  0.3000000E+03  0.7818608E-02  0.1093470E+00
          1   -1    0    0  502    0  0.00000000000E+00  0.00000000000E+00  0.23366997605E+03  0.23366997605E+03  0.00000000000E+00 0.  1.
         13   -1    0    0    0    0 -0.00000000000E+00 -0.00000000000E+00 -0.27500000000E+03  0.27500000000E+03  0.00000000000E+00 0.  1.
    9000005    2    1    2  501    0  0.26044561420E+02 -0.21870573604E+02 -0.42651872859E+02  0.47463486985E+03  0.47148959294E+03 0.  0.
         13    1    3    3    0    0  0.12800675240E+03 -0.67831717404E+02 -0.22092262690E+03  0.26418493073E+03  0.00000000000E+00 0.  1.
          1    1    3    3  501    0 -0.10196219098E+03  0.45961143800E+02  0.17827075404E+03  0.21044993912E+03  0.00000000000E+00 0.  1.
         21    1    1    2  502  501 -0.26044561420E+02  0.21870573604E+02  0.13218489056E+01  0.34035106197E+02  0.00000000000E+00 0.  1.
<scales pt_clust_4="550.00000" pt_clust_5="550.00000" pt_clust_6="34.00943"></scales>
<mgrwt>
<rscale>  0 0.30000000E+03</rscale>
<asrwt>  1 0.34009428E+02</asrwt>
<pdfrwt beam="1">  1        1 0.84970900E+00 0.30000000E+03</pdfrwt>
<pdfrwt beam="2">0</pdfrwt>
<totfact> 0.41176027E-04</totfact>
</mgrwt>
<clustering>
<clus scale="   34.009">  1  6  2 -1</clus>
<clus scale="  471.490">  4  5 -1 -1</clus>
<clus scale="  300.000">  1  4  2 -1</clus>
</clustering>
</event>
<event>
 6    1  0.1029244E-011  0.3000000E+03  0.7818608E-02  0.1093470E+00
          1   -1    0    0  502    0  0.00000000000E+00  0.00000000000E+00  0.24204196811E+03  0.24204196811E+03  0.00000000000E+00 0.  1.
         13   -1    0    0    0    0 -0.00000000000E+00 -0.00000000000E+00 -0.27500000000E+03  0.27500000000E+03  0.00000000000E+00 0.  1.
    9000005    2    1    2  501    0 -0.76456802083E+01 -0.30067416773E+02 -0.72549879575E+02  0.46674266016E+03  0.46002469478E+03 0.  0.
         13    1    3    3    0    0  0.34977635630E+01 -0.13766506707E+03 -0.23452546688E+03  0.27196709297E+03  0.00000000000E+00 0.  1.
          3    1    3    3  501    0 -0.11143443771E+02  0.10759765030E+03  0.16197558731E+03  0.19477556719E+03  0.00000000000E+00 0.  1.
         21    1    1    2  502  501  0.76456802083E+01  0.30067416773E+02  0.39591847684E+02  0.50299307950E+02  0.00000000000E+00 0.  1.
<scales pt_clust_4="550.00000" pt_clust_5="550.00000" pt_clust_6="31.02428"></scales>
<mgrwt>
<rscale>  0 0.30000000E+03</rscale>
<asrwt>  1 0.31024280E+02</asrwt>
<pdfrwt beam="1">  1        1 0.88015261E+00 0.30000000E+03</pdfrwt>
<pdfrwt beam="2">0</pdfrwt>
<totfact> 0.20105597E-04</totfact>
</mgrwt>
<clustering>
<clus scale="   31.024">  1  6  2 -1</clus>
<clus scale="  460.025">  4  5 -1 -1</clus>
<clus scale="  300.000">  1  4  2 -1</clus>
</clustering>
</event>
<event>
 6    1  0.1029244E-011  0.3000000E+03  0.7818608E-02  0.1093470E+00
          1   -1    0    0  502    0  0.00000000000E+00  0.00000000000E+00  0.25238798161E+03  0.25238798161E+03  0.00000000000E+00 0.  1.
         13   -1    0    0    0    0 -0.00000000000E+00 -0.00000000000E+00 -0.27500000000E+03  0.27500000000E+03  0.00000000000E+00 0.  1.
    9000005    2    1    2  501    0  0.12686259130E+02  0.31381916910E+02 -0.63859182386E+02  0.47402981057E+03  0.46848746008E+03 0.  0.
         13    1    3    3    0    0  0.51389939256E+02 -0.13006380824E+03  0.14882413621E+03  0.20422082066E+03  0.00000000000E+00 0.  1.
          1    1    3    3  501    0 -0.38703680127E+02  0.16144572515E+03 -0.21268331860E+03  0.26980898991E+03  0.00000000000E+00 0.  1.
         21    1    1    2  502  501 -0.12686259130E+02 -0.31381916910E+02  0.41247163997E+02  0.53358171046E+02  0.00000000000E+00 0.  1.
<scales pt_clust_4="550.00000" pt_clust_5="550.00000" pt_clust_6="33.84916"></scales>
<mgrwt>
<rscale>  0 0.30000000E+03</rscale>
<asrwt>  1 0.33849164E+02</asrwt>
<pdfrwt beam="1">  1        1 0.91777448E+00 0.30000000E+03</pdfrwt>
<pdfrwt beam="2">0</pdfrwt>
<totfact> 0.47094936E-05</totfact>
</mgrwt>
<clustering>
<clus scale="   33.849">  1  6  2 -1</clus>
<clus scale="  468.487">  4  5 -1 -1</clus>
<clus scale="  300.000">  1  4  2 -1</clus>
</clustering>
</event>
<event>
 6    1  0.1029244E-011  0.3000000E+03  0.7818608E-02  0.1093470E+00
          1   -1    0    0  502    0  0.00000000000E+00  0.00000000000E+00  0.22570505128E+03  0.22570505128E+03  0.00000000000E+00 0.  1.
         13   -1    0    0    0    0 -0.00000000000E+00 -0.00000000000E+00 -0.27500000000E+03  0.27500000000E+03  0.00000000000E+00 0.  1.
    9000005    2    1    2  501    0  0.60058107015E+00 -0.36673484728E+02 -0.59968986120E+02  0.46250504795E+03  0.45713163849E+03 0.  0.
         13    1    3    3    0    0  0.23677274880E+02  0.12233378737E+03  0.15198531753E+03  0.19653423524E+03  0.00000000000E+00 0.  1.
          1    1    3    3  501    0 -0.23076693810E+02 -0.15900727210E+03 -0.21195430365E+03  0.26597081271E+03  0.00000000000E+00 0.  1.
         21    1    1    2  502  501 -0.60058107015E+00  0.36673484728E+02  0.10674037397E+02  0.38200003326E+02  0.00000000000E+00 0.  1.
<scales pt_clust_4="550.00000" pt_clust_5="550.00000" pt_clust_6="36.67840"></scales>
<mgrwt>
<rscale>  0 0.30000000E+03</rscale>
<asrwt>  1 0.36678402E+02</asrwt>
<pdfrwt beam="1">  1        1 0.82074564E+00 0.30000000E+03</pdfrwt>
<pdfrwt beam="2">0</pdfrwt>
<totfact> 0.70637351E-04</totfact>
</mgrwt>
<clustering>
<clus scale="   36.678">  1  6  2 -1</clus>
<clus scale="  457.132">  4  5 -1 -1</clus>
<clus scale="  300.000">  1  4  2 -1</clus>
</clustering>
</event>
<event>
 6    1  0.1029244E-011  0.3000000E+03  0.7818608E-02  0.1093470E+00
          1   -1    0    0  502    0  0.00000000000E+00  0.00000000000E+00  0.23306766467E+03  0.23306766467E+03  0.00000000000E+00 0.  1.
         13   -1    0    0    0    0 -0.00000000000E+00 -0.00000000000E+00 -0.27500000000E+03  0.27500000000E+03  0.00000000000E+00 0.  1.
    9000005    2    1    2  501    0 -0.30365047092E+02  0.90217467624E+01 -0.45389553842E+02  0.47620263117E+03  0.47297495318E+03 0.  0.
         13    1    3    3    0    0 -0.76119916078E+02 -0.19244437935E+02  0.20530390171E+03  0.21980510020E+03  0.00000000000E+00 0.  1.
          3    1    3    3  501    0  0.45754868986E+02  0.28266184698E+02 -0.25069345555E+03  0.25639753098E+03  0.00000000000E+00 0.  1.
         21    1    1    2  502  501  0.30365047092E+02 -0.90217467624E+01  0.34572185074E+01  0.31865033491E+02  0.00000000000E+00 0.  1.
<scales pt_clust_4="550.00000" pt_clust_5="550.00000" pt_clust_6="31.67693"></scales>
<mgrwt>
<rscale>  0 0.30000000E+03</rscale>
<asrwt>  1 0.31676932E+02</asrwt>
<pdfrwt beam="1">  1        1 0.84751878E+00 0.30000000E+03</pdfrwt>
<pdfrwt beam="2">0</pdfrwt>
<totfact> 0.43720691E-04</totfact>
</mgrwt>
<clustering>
<clus scale="   31.677">  1  6  2 -1</clus>
<clus scale="  472.975">  4  5 -1 -1</clus>
<clus scale="  300.000">  1  4  2 -1</clus>
</clustering>
</event>
<event>
 6    1  0.1029244E-011  0.3000000E+03  0.7818608E-02  0.1093470E+00
          1   -1    0    0  502    0  0.00000000000E+00  0.00000000000E+00  0.22168323157E+03  0.22168323157E+03  0.00000000000E+00 0.  1.
         13   -1    0    0    0    0 -0.00000000000E+00 -0.00000000000E+00 -0.27500000000E+03  0.27500000000E+03  0.00000000000E+00 0.  1.
    9000005    2    1    2  501    0 -0.22512126844E+02  0.25867744561E+02 -0.54230659894E+02  0.46237913179E+03  0.45790562453E+03 0.  0.
         13    1    3    3    0    0  0.35578911184E+02  0.55235053098E+02  0.19448686870E+03  0.20528495344E+03  0.00000000000E+00 0.  1.
          3    1    3    3  501    0 -0.58091038029E+02 -0.29367308537E+02 -0.24871752860E+03  0.25709417835E+03  0.00000000000E+00 0.  1.
         21    1    1    2  502  501  0.22512126844E+02 -0.25867744561E+02  0.91389146063E+00  0.34304099774E+02  0.00000000000E+00 0. -1.
<scales pt_clust_4="550.00000" pt_clust_5="550.00000" pt_clust_6="34.29192"></scales>
<mgrwt>
<rscale>  0 0.30000000E+03</rscale>
<asrwt>  1 0.34291924E+02</asrwt>
<pdfrwt beam="1">  1        1 0.80612084E+00 0.30000000E+03</pdfrwt>
<pdfrwt beam="2">0</pdfrwt>
<totfact> 0.93797325E-04</totfact>
</mgrwt>
<clustering>
<clus scale="   34.292">  1  6  2 -1</clus>
<clus scale="  457.906">  4  5 -1 -1</clus>
<clus scale="  300.000">  1  4  2 -1</clus>
</clustering>
</event>
<event>
 6    1  0.1029244E-011  0.3000000E+03  0.7818608E-02  0.1093470E+00
          1   -1    0    0  502    0  0.00000000000E+00  0.00000000000E+00  0.25932430274E+03  0.25932430274E+03  0.00000000000E+00 0.  1.
         13   -1    0    0    0    0 -0.00000000000E+00 -0.00000000000E+00 -0.27500000000E+03  0.27500000000E+03  0.00000000000E+00 0.  1.
    9000005    2    1    2  501    0 -0.30517567526E+02 -0.76385578058E+00 -0.42376134984E+02  0.49376793730E+03  0.49099809947E+03 0.  0.
         13    1    3    3    0    0 -0.21133418411E+03 -0.93422370124E+02 -0.13808439937E+03  0.26917871008E+03  0.00000000000E+00 0.  1.
          1    1    3    3  501    0  0.18081661658E+03  0.92658514344E+02  0.95708264381E+02  0.22458922722E+03  0.00000000000E+00 0.  1.
         21    1    1    2  502  501  0.30517567526E+02  0.76385578058E+00  0.26700437727E+02  0.40556365446E+02  0.00000000000E+00 0. -1.
<scales pt_clust_4="550.00000" pt_clust_5="550.00000" pt_clust_6="30.52713"></scales>
<mgrwt>
<rscale>  0 0.30000000E+03</rscale>
<asrwt>  1 0.30527126E+02</asrwt>
<pdfrwt beam="1">  1        1 0.94299746E+00 0.30000000E+03</pdfrwt>
<pdfrwt beam="2">0</pdfrwt>
<totfact> 0.17405680E-05</totfact>
</mgrwt>
<clustering>
<clus scale="   30.527">  1  6  2 -1</clus>
<clus scale="  490.998">  4  5 -1 -1</clus>
<clus scale="  300.000">  1  4  2 -1</clus>
</clustering>
</event>
<event>
 6    1  0.1029244E-011  0.3000000E+03  0.7818608E-02  0.1093470E+00
          1   -1    0    0  502    0  0.00000000000E+00  0.00000000000E+00  0.22530983563E+03  0.22530983563E+03  0.00000000000E+00 0.  1.
         13   -1    0    0    0    0 -0.00000000000E+00 -0.00000000000E+00 -0.27500000000E+03  0.27500000000E+03  0.00000000000E+00 0.  1.
    9000005    2    1    2  501    0 -0.26846934474E+02 -0.28548879580E+02 -0.53952745779E+02  0.46088945999E+03  0.45603990958E+03 0.  0.
         13    1    3    3    0    0  0.71338017629E+02  0.19684923102E+03 -0.91585675995E+00  0.20937901353E+03  0.00000000000E+00 0.  1.
          1    1    3    3  501    0 -0.98184952103E+02 -0.22539811060E+03 -0.53036889019E+02  0.25151044646E+03  0.00000000000E+00 0.  1.
         21    1    1    2  502  501  0.26846934474E+02  0.28548879580E+02  0.42625814131E+01  0.39420375648E+02  0.00000000000E+00 0.  1.
<scales pt_clust_4="550.00000" pt_clust_5="550.00000" pt_clust_6="39.18924"></scales>
<mgrwt>
<rscale>  0 0.30000000E+03</rscale>
<asrwt>  1 0.39189239E+02</asrwt>
<pdfrwt beam="1">  1        1 0.81930849E+00 0.30000000E+03</pdfrwt>
<pdfrwt beam="2">0</pdfrwt>
<totfact> 0.71809164E-04</totfact>
</mgrwt>
<clustering>
<clus scale="   39.189">  1  6  2 -1</clus>
<clus scale="  456.040">  4  5 -1 -1</clus>
<clus scale="  300.000">  1  4  2 -1</clus>
</clustering>
</event>
<event>
 6    1  0.1029244E-011  0.3000000E+03  0.7818608E-02  0.1093470E+00
          1   -1    0    0  502    0  0.00000000000E+00  0.00000000000E+00  0.22802183702E+03  0.22802183702E+03  0.00000000000E+00 0.  1.
         13   -1    0    0    0    0 -0.00000000000E+00 -0.00000000000E+00 -0.27500000000E+03  0.27500000000E+03  0.00000000000E+00 0.  1.
    9000005    2    1    2  501    0  0.18286931470E+02  0.32703704812E+02 -0.40786587153E+02  0.46504447821E+03  0.46173463900E+03 0.  0.
         13    1    3    3    0    0  0.11583681286E+03  0.45045838207E+02  0.18265187350E+03  0.22092759368E+03  0.00000000000E+00 0.  1.
          1    1    3    3  501    0 -0.97549881394E+02 -0.12342133395E+02 -0.22343846065E+03  0.24411688454E+03  0.00000000000E+00 0.  1.
         21    1    1    2  502  501 -0.18286931470E+02 -0.32703704812E+02 -0.61915758238E+01  0.37977358811E+02  0.00000000000E+00 0. -1.
<scales pt_clust_4="550.00000" pt_clust_5="550.00000" pt_clust_6="37.46926"></scales>
<mgrwt>
<rscale>  0 0.30000000E+03</rscale>
<asrwt>  1 0.37469262E+02</asrwt>
<pdfrwt beam="1">  1        1 0.82917032E+00 0.30000000E+03</pdfrwt>
<pdfrwt beam="2">0</pdfrwt>
<totfact> 0.59296368E-04</totfact>
</mgrwt>
<clustering>
<clus scale="   37.469">  1  6  2 -1</clus>
<clus scale="  461.735">  4  5 -1 -1</clus>
<clus scale="  300.000">  1  4  2 -1</clus>
</clustering>
</event>
<event>
 6    1  0.1029244E-011  0.3000000E+03  0.7818608E-02  0.1093470E+00
          1   -1    0    0  502    0  0.00000000000E+00  0.00000000000E+00  0.23725254709E+03  0.23725254709E+03  0.00000000000E+00 0.  1.
         13   -1    0    0    0    0 -0.00000000000E+00 -0.00000000000E+00 -0.27500000000E+03  0.27500000000E+03  0.00000000000E+00 0.  1.
    9000005    2    1    2  501    0  0.39396137650E+02 -0.69061532518E+01 -0.15248562215E+02  0.46636190864E+03  0.46439332529E+03 0.  0.
         13    1    3    3    0    0 -0.85922801792E+02 -0.19785517810E+03  0.63349687871E+02  0.22481677500E+03  0.00000000000E+00 0.  1.
          1    1    3    3  501    0  0.12531893944E+03  0.19094902484E+03 -0.78598250086E+02  0.24154513365E+03  0.00000000000E+00 0.  1.
         21    1    1    2  502  501 -0.39396137650E+02  0.69061532518E+01 -0.22498890696E+02  0.45890638446E+02  0.00000000000E+00 0. -1.
<scales pt_clust_4="550.00000" pt_clust_5="550.00000" pt_clust_6="39.99690"></scales>
<mgrwt>
<rscale>  0 0.30000000E+03</rscale>
<asrwt>  1 0.39996903E+02</asrwt>
<pdfrwt beam="1">  1        1 0.86273653E+00 0.30000000E+03</pdfrwt>
<pdfrwt beam="2">0</pdfrwt>
<totfact> 0.29489232E-04</totfact>
</mgrwt>
<clustering>
<clus scale="   39.997">  1  6  2 -1</clus>
<clus scale="  464.393">  4  5 -1 -1</clus>
<clus scale="  300.000">  1  4  2 -1</clus>
</clustering>
</event>
<event>
 6    1  0.1029244E-011  0.3000000E+03  0.7818608E-02  0.1093470E+00
          1   -1    0    0  502    0  0.00000000000E+00  0.00000000000E+00  0.23625477446E+03  0.23625477446E+03  0.00000000000E+00 0.  1.
         13   -1    0    0    0    0 -0.00000000000E+00 -0.00000000000E+00 -0.27500000000E+03  0.27500000000E+03  0.00000000000E+00 0.  1.
    9000005    2    1    2  501    0  0.60228195625E+01 -0.30768053616E+02 -0.31439841679E+02  0.47906291039E+03  0.47700090250E+03 0.  0.
         13    1    3    3    0    0  0.11117755348E+03  0.15775308611E+03 -0.13904415923E+03  0.23786500960E+03  0.00000000000E+00 0.  1.
          3    1    3    3  501    0 -0.10515473392E+03 -0.18852113973E+03  0.10760431755E+03  0.24119790079E+03  0.00000000000E+00 0.  1.
         21    1    1    2  502  501 -0.60228195625E+01  0.30768053616E+02 -0.73053838658E+01  0.32191864069E+02  0.00000000000E+00 0. -1.
<scales pt_clust_4="550.00000" pt_clust_5="550.00000" pt_clust_6="31.35201"></scales>
<mgrwt>
<rscale>  0 0.30000000E+03</rscale>
<asrwt>  1 0.31352009E+02</asrwt>
<pdfrwt beam="1">  1        1 0.85910827E+00 0.30000000E+03</pdfrwt>
<pdfrwt beam="2">0</pdfrwt>
<totfact> 0.33754464E-04</totfact>
</mgrwt>
<clustering>
<clus scale="   31.352">  1  6  2 -1</clus>
<clus scale="  477.001">  4  5 -1 -1</clus>
<clus scale="  300.000">  1  4  2 -1</clus>
</clustering>
</event>
<event>
 6    1  0.1029244E-011  0.3000000E+03  0.7818608E-02  0.1093470E+00
          1   -1    0    0  502    0  0.00000000000E+00  0.00000000000E+00  0.22231269913E+03  0.22231269913E+03  0.00000000000E+00 0.  1.
         13   -1    0    0    0    0 -0.00000000000E+00 -0.00000000000E+00 -0.27500000000E+03  0.27500000000E+03  0.00000000000E+00 0.  1.
    9000005    2    1    2  501    0 -0.12488680134E+02  0.29752906057E+02 -0.59635900652E+02  0.46430534254E+03  0.45932756058E+03 0.  0.
         13    1    3    3    0    0  0.78035444337E+02 -0.19023443715E+03  0.34462766772E+02  0.20848586030E+03  0.00000000000E+00 0.  1.
          1    1    3    3  501    0 -0.90524124471E+02  0.21998734321E+03 -0.94098667424E+02  0.25581948224E+03  0.00000000000E+00 0.  1.
         21    1    1    2  502  501  0.12488680134E+02 -0.29752906057E+02  0.69485997786E+01  0.33007356592E+02  0.00000000000E+00 0.  1.
<scales pt_clust_4="550.00000" pt_clust_5="550.00000" pt_clust_6="32.26767"></scales>
<mgrwt>
<rscale>  0 0.30000000E+03</rscale>
<asrwt>  1 0.32267670E+02</asrwt>
<pdfrwt beam="1">  1        1 0.80840982E+00 0.30000000E+03</pdfrwt>
<pdfrwt beam="2">0</pdfrwt>
<totfact> 0.91113988E-04</totfact>
</mgrwt>
<clustering>
<clus scale="   32.268">  1  6  2 -1</clus>
<clus scale="  459.328">  4  5 -1 -1</clus>
<clus scale="  300.000">  1  4  2 -1</clus>
</clustering>
</event>
<event>
 6    1  0.1029244E-011  0.3000000E+03  0.7818608E-02  0.1093470E+00
          1   -1    0    0  502    0  0.00000000000E+00  0.00000000000E+00  0.23592710010E+03  0.23592710010E+03  0.00000000000E+00 0.  1.
         13   -1    0    0    0    0 -0.00000000000E+00 -0.00000000000E+00 -0.27500000000E+03  0.27500000000E+03  0.00000000000E+00 0.  1.
    9000005    2    1    2  501    0  0.36736264763E+02  0.31727112084E+01 -0.28830008568E+02  0.47265784263E+03  0.47033461233E+03 0.  0.
         13    1    3    3    0    0  0.14833599880E+03 -0.18866556016E+03 -0.62944354325E+02  0.24811338915E+03  0.00000000000E+00 0.  1.
          3    1    3    3  501    0 -0.11159973404E+03  0.19183827137E+03  0.34114345756E+02  0.22454445348E+03  0.00000000000E+00 0.  1.
         21    1    1    2  502  501 -0.36736264763E+02 -0.31727112084E+01 -0.10242891328E+02  0.38269257478E+02  0.00000000000E+00 0. -1.
<scales pt_clust_4="550.00000" pt_clust_5="550.00000" pt_clust_6="36.87303"></scales>
<mgrwt>
<rscale>  0 0.30000000E+03</rscale>
<asrwt>  1 0.36873034E+02</asrwt>
<pdfrwt beam="1">  1        1 0.85791673E+00 0.30000000E+03</pdfrwt>
<pdfrwt beam="2">0</pdfrwt>
<totfact> 0.33697209E-04</totfact>
</mgrwt>
<clustering>
<clus scale="   36.873">  1  6  2 -1</clus>
<clus scale="  470.335">  4  5 -1 -1</clus>
<clus scale="  300.000">  1  4  2 -1</clus>
</clustering>
</event>
<event>
 6    1  0.1029244E-011  0.3000000E+03  0.7818608E-02  0.1093470E+00
          1   -1    0    0  502    0  0.00000000000E+00  0.00000000000E+00  0.23804659933E+03  0.23804659933E+03  0.00000000000E+00 0.  1.
         13   -1    0    0    0    0 -0.00000000000E+00 -0.00000000000E+00 -0.27500000000E+03  0.27500000000E+03  0.00000000000E+00 0.  1.
    9000005    2    1    2  501    0 -0.41153323467E+02  0.10831519600E+02 -0.60814118144E+02  0.46425877618E+03  0.45828695862E+03 0.  0.
         13    1    3    3    0    0  0.17976545710E+03  0.11655856201E+03 -0.44368573539E+02  0.21879234050E+03  0.00000000000E+00 0.  1.
          3    1    3    3  501    0 -0.22091878057E+03 -0.10572704241E+03 -0.16445544605E+02  0.24546643568E+03  0.00000000000E+00 0.  1.
         21    1    1    2  502  501  0.41153323467E+02 -0.10831519600E+02  0.23860717472E+02  0.48787823148E+02  0.00000000000E+00 0.  1.
<scales pt_clust_4="550.00000" pt_clust_5="550.00000" pt_clust_6="42.55488"></scales>
<mgrwt>
<rscale>  0 0.30000000E+03</rscale>
<asrwt>  1 0.42554880E+02</asrwt>
<pdfrwt beam="1">  1        1 0.86562400E+00 0.30000000E+03</pdfrwt>
<pdfrwt beam="2">0</pdfrwt>
<totfact> 0.27140700E-04</totfact>
</mgrwt>
<clustering>
<clus scale="   42.555">  1  6  2 -1</clus>
<clus scale="  458.287">  4  5 -1 -1</clus>
<clus scale="  300.000">  1  4  2 -1</clus>
</clustering>
</event>
<event>
 6    1  0.1029244E-011  0.3000000E+03  0.7818608E-02  0.1093470E+00
          1   -1    0    0  502    0  0.00000000000E+00  0.00000000000E+00  0.22636336009E+03  0.22636336009E+03  0.00000000000E+00 0.  1.
         13   -1    0    0    0    0 -0.00000000000E+00 -0.00000000000E+00 -0.27500000000E+03  0.27500000000E+03  0.00000000000E+00 0.  1.
    9000005    2    1    2  501    0  0.22977614165E+02  0.19996425810E+02 -0.67356522860E+02  0.46561057257E+03  0.45970477082E+03 0.  0.
         13    1    3    3    0    0  0.23615196128E+03 -0.63555446622E+01  0.12204004844E+02  0.23655248783E+03  0.00000000000E+00 0.  1.
          1    1    3    3  501    0 -0.21317434711E+03  0.26351970472E+02 -0.79560527704E+02  0.22905808474E+03  0.00000000000E+00 0.  1.
         21    1    1    2  502  501 -0.22977614165E+02 -0.19996425810E+02  0.18719882947E+02  0.35752787520E+02  0.00000000000E+00 0.  1.
<scales pt_clust_4="550.00000" pt_clust_5="550.00000" pt_clust_6="30.46027"></scales>
<mgrwt>
<rscale>  0 0.30000000E+03</rscale>
<asrwt>  1 0.30460266E+02</asrwt>
<pdfrwt beam="1">  1        1 0.82313949E+00 0.30000000E+03</pdfrwt>
<pdfrwt beam="2">0</pdfrwt>
<totfact> 0.69675375E-04</totfact>
</mgrwt>
<clustering>
<clus scale="   30.460">  1  6  2 -1</clus>
<clus scale="  459.705">  4  5 -1 -1</clus>
<clus scale="  300.000">  1  4  2 -1</clus>
</clustering>
</event>
<event>
 6    1  0.1029244E-011  0.3000000E+03  0.7818608E-02  0.1093470E+00
          1   -1    0    0  502    0  0.00000000000E+00  0.00000000000E+00  0.23561396920E+03  0.23561396920E+03  0.00000000000E+00 0.  1.
         13   -1    0    0    0    0 -0.00000000000E+00 -0.00000000000E+00 -0.27500000000E+03  0.27500000000E+03  0.00000000000E+00 0.  1.
    9000005    2    1    2  501    0 -0.20182696560E+02 -0.34075383375E+02 -0.59069651867E+02  0.46638820826E+03  0.46093412115E+03 0.  0.
         13    1    3    3    0    0  0.10777519493E+03 -0.11378799042E+03  0.14443224378E+03  0.21312876964E+03  0.00000000000E+00 0.  1.
          3    1    3    3  501    0 -0.12795789149E+03  0.79712607041E+02 -0.20350189565E+03  0.25325943862E+03  0.00000000000E+00 0.  1.
         21    1    1    2  502  501  0.20182696560E+02  0.34075383375E+02  0.19683621070E+02  0.44225760943E+02  0.00000000000E+00 0. -1.
<scales pt_clust_4="550.00000" pt_clust_5="550.00000" pt_clust_6="39.60395"></scales>
<mgrwt>
<rscale>  0 0.30000000E+03</rscale>
<asrwt>  1 0.39603952E+02</asrwt>
<pdfrwt beam="1">  1        1 0.85677807E+00 0.30000000E+03</pdfrwt>
<pdfrwt beam="2">0</pdfrwt>
<totfact> 0.34170306E-04</totfact>
</mgrwt>
<clustering>
<clus scale="   39.604">  1  6  2 -1</clus>
<clus scale="  460.934">  4  5 -1 -1</clus>
<clus scale="  300.000">  1  4  2 -1</clus>
</clustering>
</event>
<event>
 6    1  0.1029244E-011  0.3000000E+03  0.7818608E-02  0.1093470E+00
          1   -1    0    0  502    0  0.00000000000E+00  0.00000000000E+00  0.21902216978E+03  0.21902216978E+03  0.00000000000E+00 0.  1.
         13   -1    0    0    0    0 -0.00000000000E+00 -0.00000000000E+00 -0.27500000000E+03  0.27500000000E+03  0.00000000000E+00 0.  1.
    9000005    2    1    2  501    0  0.22207331453E+02  0.22017968371E+02 -0.43789568991E+02  0.46045864473E+03  0.45730370724E+03 0.  0.
         13    1    3    3    0    0 -0.11735222052E+03 -0.11340137857E+02 -0.21002829216E+03  0.24085685768E+03  0.00000000000E+00 0.  1.
          3    1    3    3  501    0  0.13955955197E+03  0.33358106228E+02  0.16623872316E+03  0.21960178705E+03  0.00000000000E+00 0.  1.
         21    1    1    2  502  501 -0.22207331453E+02 -0.22017968371E+02 -0.12188261232E+02  0.33563525043E+02  0.00000000000E+00 0.  1.
<scales pt_clust_4="550.00000" pt_clust_5="550.00000" pt_clust_6="31.27231"></scales>
<mgrwt>
<rscale>  0 0.30000000E+03</rscale>
<asrwt>  1 0.31272312E+02</asrwt>
<pdfrwt beam="1">  1        1 0.79644425E+00 0.30000000E+03</pdfrwt>
<pdfrwt beam="2">0</pdfrwt>
<totfact> 0.11243121E-03</totfact>
</mgrwt>
<clustering>
<clus scale="   31.272">  1  6  2 -1</clus>
<clus scale="  457.304">  4  5 -1 -1</clus>
<clus scale="  300.000">  1  4  2 -1</clus>
</clustering>
</event>
<event>
 6    1  0.1029244E-011  0.3000000E+03  0.7818608E-02  0.1093470E+00
          1   -1    0    0  502    0  0.00000000000E+00  0.00000000000E+00  0.23787515356E+03  0.23787515356E+03  0.00000000000E+00 0.  1.
         13   -1    0    0    0    0 -0.00000000000E+00 -0.00000000000E+00 -0.27500000000E+03  0.27500000000E+03  0.00000000000E+00 0.  1.
    9000005    2    1    2  501    0 -0.21708741608E+02 -0.31606498364E+02 -0.62583312602E+02  0.46684935970E+03  0.46104383028E+03 0.  0.
         13    1    3    3    0    0 -0.20130264679E+03  0.82976885315E+02  0.53543534683E+02  0.22422049239E+03  0.00000000000E+00 0.  1.
          1    1    3    3  501    0  0.17959390518E+03 -0.11458338368E+03 -0.11612684728E+03  0.24262886731E+03  0.00000000000E+00 0.  1.
         21    1    1    2  502  501  0.21708741608E+02  0.31606498364E+02  0.25458466160E+02  0.46025793858E+02  0.00000000000E+00 0. -1.
<scales pt_clust_4="550.00000" pt_clust_5="550.00000" pt_clust_6="38.34371"></scales>
<mgrwt>
<rscale>  0 0.30000000E+03</rscale>
<asrwt>  1 0.38343711E+02</asrwt>
<pdfrwt beam="1">  1        1 0.86500056E+00 0.30000000E+03</pdfrwt>
<pdfrwt beam="2">0</pdfrwt>
<totfact> 0.28090275E-04</totfact>
</mgrwt>
<clustering>
<clus scale="   38.344">  1  6  2 -1</clus>
<clus scale="  461.044">  4  5 -1 -1</clus>
<clus scale="  300.000">  1  4  2 -1</clus>
</clustering>
</event>
<event>
 6    1  0.1029244E-011  0.3000000E+03  0.7818608E-02  0.1093470E+00
          1   -1    0    0  502    0  0.00000000000E+00  0.00000000000E+00  0.24130212364E+03  0.24130212364E+03  0.00000000000E+00 0.  1.
         13   -1    0    0    0    0 -0.00000000000E+00 -0.00000000000E+00 -0.27500000000E+03  0.27500000000E+03  0.00000000000E+00 0.  1.
    9000005    2    1    2  501    0 -0.13551234986E+01 -0.30865979361E+02 -0.62192965583E+02  0.47427219203E+03  0.46916052916E+03 0.  0.
         13    1    3    3    0    0 -0.15851691150E+03  0.40624549327E+02  0.13502473615E+03  0.21215476571E+03  0.00000000000E+00 0.  1.
          3    1    3    3  501    0  0.15716178801E+03 -0.71490528688E+02 -0.19721770173E+03  0.26211742632E+03  0.00000000000E+00 0.  1.
         21    1    1    2  502  501  0.13551234986E+01  0.30865979361E+02  0.28495089222E+02  0.42029931613E+02  0.00000000000E+00 0. -1.
<scales pt_clust_4="550.00000" pt_clust_5="550.00000" pt_clust_6="30.89571"></scales>
<mgrwt>
<rscale>  0 0.30000000E+03</rscale>
<asrwt>  1 0.30895712E+02</asrwt>
<pdfrwt beam="1">  1        1 0.87746227E+00 0.30000000E+03</pdfrwt>
<pdfrwt beam="2">0</pdfrwt>
<totfact> 0.21650818E-04</totfact>
</mgrwt>
<clustering>
<clus scale="   30.896">  1  6  2 -1</clus>
<clus scale="  469.161">  4  5 -1 -1</clus>
<clus scale="  300.000">  1  4  2 -1</clus>
</clustering>
</event>
<event>
 6    1  0.1029244E-011  0.3000000E+03  0.7818608E-02  0.1093470E+00
          1   -1    0    0  502    0  0.00000000000E+00  0.00000000000E+00  0.23624143562E+03  0.23624143562E+03  0.00000000000E+00 0.  1.
         13   -1    0    0    0    0 -0.00000000000E+00 -0.00000000000E+00 -0.27500000000E+03  0.27500000000E+03  0.00000000000E+00 0.  1.
    9000005    2    1    2  501    0  0.30608859173E+02 -0.34618419580E+01 -0.67454548852E+02  0.46914219413E+03  0.46324442311E+03 0.  0.
         13    1    3    3    0    0 -0.91636108152E+02  0.18228487745E+03  0.60229844703E+02  0.21272655466E+03  0.00000000000E+00 0.  1.
          1    1    3    3  501    0  0.12224496733E+03 -0.18574671941E+03 -0.12768439355E+03  0.25641563947E+03  0.00000000000E+00 0.  1.
         21    1    1    2  502  501 -0.30608859173E+02  0.34618419580E+01  0.28695984475E+02  0.42099241497E+02  0.00000000000E+00 0.  1.
<scales pt_clust_4="550.00000" pt_clust_5="550.00000" pt_clust_6="30.80400"></scales>
<mgrwt>
<rscale>  0 0.30000000E+03</rscale>
<asrwt>  1 0.30804003E+02</asrwt>
<pdfrwt beam="1">  1        1 0.85905977E+00 0.30000000E+03</pdfrwt>
<pdfrwt beam="2">0</pdfrwt>
<totfact> 0.33908547E-04</totfact>
</mgrwt>
<clustering>
<clus scale="   30.804">  1  6  2 -1</clus>
<clus scale="  463.244">  4  5 -1 -1</clus>
<clus scale="  300.000">  1  4  2 -1</clus>
</clustering>
</event>
<event>
 6    1  0.1029244E-011  0.3000000E+03  0.7818608E-02  0.1093470E+00
          1   -1    0    0  502    0  0.00000000000E+00  0.00000000000E+00  0.25225537021E+03  0.25225537021E+03  0.00000000000E+00 0.  1.
         13   -1    0    0    0    0 -0.00000000000E+00 -0.00000000000E+00 -0.27500000000E+03  0.27500000000E+03  0.00000000000E+00 0.  1.
    9000005    2    1    2  501    0  0.22041478192E+02  0.42374350440E+02 -0.58748143475E+02  0.46744178201E+03  0.46126897020E+03 0.  0.
         13    1    3    3    0    0 -0.11280308777E+03  0.97289979913E+02  0.15100125332E+03  0.21211142191E+03  0.00000000000E+00 0.  1.
          1    1    3    3  501    0  0.13484456596E+03 -0.54915629473E+02 -0.20974939680E+03  0.25533036009E+03  0.00000000000E+00 0.  1.
         21    1    1    2  502  501 -0.22041478192E+02 -0.42374350440E+02  0.36003513684E+02  0.59813588202E+02  0.00000000000E+00 0. -1.
<scales pt_clust_4="550.00000" pt_clust_5="550.00000" pt_clust_6="47.76413"></scales>
<mgrwt>
<rscale>  0 0.30000000E+03</rscale>
<asrwt>  1 0.47764132E+02</asrwt>
<pdfrwt beam="1">  1        1 0.91729226E+00 0.30000000E+03</pdfrwt>
<pdfrwt beam="2">0</pdfrwt>
<totfact> 0.45345694E-05</totfact>
</mgrwt>
<clustering>
<clus scale="   47.764">  1  6  2 -1</clus>
<clus scale="  461.269">  4  5 -1 -1</clus>
<clus scale="  300.000">  1  4  2 -1</clus>
</clustering>
</event>
<event>
 6    1  0.1029244E-011  0.3000000E+03  0.7818608E-02  0.1093470E+00
          1   -1    0    0  502    0  0.00000000000E+00  0.00000000000E+00  0.22351582488E+03  0.22351582488E+03  0.00000000000E+00 0.  1.
         13   -1    0    0    0    0 -0.00000000000E+00 -0.00000000000E+00 -0.27500000000E+03  0.27500000000E+03  0.00000000000E+00 0.  1.
    9000005    2    1    2  501    0 -0.14625619208E+02  0.29180612543E+02 -0.30509539364E+02  0.45971695595E+03  0.45754063285E+03 0.  0.
         13    1    3    3    0    0  0.18407221465E+03  0.13753580186E+03 -0.39815418910E+02  0.23320365474E+03  0.00000000000E+00 0.  1.
          1    1    3    3  501    0 -0.19869783386E+03 -0.10835518932E+03  0.93058795455E+01  0.22651330121E+03  0.00000000000E+00 0.  1.
         21    1    1    2  502  501  0.14625619208E+02 -0.29180612543E+02 -0.20974635753E+02  0.38798868934E+02  0.00000000000E+00 0.  1.
<scales pt_clust_4="550.00000" pt_clust_5="550.00000" pt_clust_6="32.64074"></scales>
<mgrwt>
<rscale>  0 0.30000000E+03</rscale>
<asrwt>  1 0.32640741E+02</asrwt>
<pdfrwt beam="1">  1        1 0.81278482E+00 0.30000000E+03</pdfrwt>
<pdfrwt beam="2">0</pdfrwt>
<totfact> 0.84020623E-04</totfact>
</mgrwt>
<clustering>
<clus scale="   32.641">  1  6  2 -1</clus>
<clus scale="  457.541">  4  5 -1 -1</clus>
<clus scale="  300.000">  1  4  2 -1</clus>
</clustering>
</event>
<event>
 6    1  0.1029244E-011  0.3000000E+03  0.7818608E-02  0.1093470E+00
          1   -1    0    0  502    0  0.00000000000E+00  0.00000000000E+00  0.24183209287E+03  0.24183209287E+03  0.00000000000E+00 0.  1.
         13   -1    0    0    0    0 -0.00000000000E+00 -0.00000000000E+00 -0.27500000000E+03  0.27500000000E+03  0.00000000000E+00 0.  1.
    9000005    2    1    2  501    0 -0.36975274468E+02  0.27500465006E+02 -0.18107655381E+02  0.46835263660E+03  0.46572830978E+03 0.  0.
         13    1    3    3    0    0 -0.89572569622E+02  0.17822356582E+03 -0.15927173241E+03  0.25525353942E+03  0.00000000000E+00 0.  1.
          3    1    3    3  501    0  0.52597295154E+02 -0.15072310081E+03  0.14116407703E+03  0.21309909718E+03  0.00000000000E+00 0.  1.
         21    1    1    2  502  501  0.36975274468E+02 -0.27500465006E+02 -0.15060251745E+02  0.48479456270E+02  0.00000000000E+00 0.  1.
<scales pt_clust_4="550.00000" pt_clust_5="550.00000" pt_clust_6="46.08089"></scales>
<mgrwt>
<rscale>  0 0.30000000E+03</rscale>
<asrwt>  1 0.46080892E+02</asrwt>
<pdfrwt beam="1">  1        1 0.87938943E+00 0.30000000E+03</pdfrwt>
<pdfrwt beam="2">0</pdfrwt>
<totfact> 0.19096677E-04</totfact>
</mgrwt>
<clustering>
<clus scale="   46.081">  1  6  2 -1</clus>
<clus scale="  465.728">  4  5 -1 -1</clus>
<clus scale="  300.000">  1  4  2 -1</clus>
</clustering>
</event>
<event>
 6    1  0.1029244E-011  0.3000000E+03  0.7818608E-02  0.1093470E+00
          1   -1    0    0  502    0  0.00000000000E+00  0.00000000000E+00  0.23626270617E+03  0.23626270617E+03  0.00000000000E+00 0.  1.
         13   -1    0    0    0    0 -0.00000000000E+00 -0.00000000000E+00 -0.27500000000E+03  0.27500000000E+03  0.00000000000E+00 0.  1.
    9000005    2    1    2  501    0 -0.46395185981E+02  0.76737767243E+01 -0.40256567638E+02  0.46421264428E+03  0.46006672096E+03 0.  0.
         13    1    3    3    0    0 -0.13069687274E+03  0.13996893122E+03 -0.17348624827E+03  0.25839979216E+03  0.00000000000E+00 0.  1.
          1    1    3    3  501    0  0.84301686761E+02 -0.13229515450E+03  0.13322968063E+03  0.20581285211E+03  0.00000000000E+00 0.  1.
         21    1    1    2  502  501  0.46395185981E+02 -0.76737767243E+01  0.15192738095E+01  0.47050061895E+02  0.00000000000E+00 0. -1.
<scales pt_clust_4="550.00000" pt_clust_5="550.00000" pt_clust_6="47.02553"></scales>
<mgrwt>
<rscale>  0 0.30000000E+03</rscale>
<asrwt>  1 0.47025526E+02</asrwt>
<pdfrwt beam="1">  1        1 0.85913711E+00 0.30000000E+03</pdfrwt>
<pdfrwt beam="2">0</pdfrwt>
<totfact> 0.31306929E-04</totfact>
</mgrwt>
<clustering>
<clus scale="   47.026">  1  6  2 -1</clus>
<clus scale="  460.067">  4  5 -1 -1</clus>
<clus scale="  300.000">  1  4  2 -1</clus>
</clustering>
</event>
<event>
 6    1  0.1029244E-011  0.3000000E+03  0.7818608E-02  0.1093470E+00
          1   -1    0    0  502    0  0.00000000000E+00  0.00000000000E+00  0.25610846595E+03  0.25610846595E+03  0.00000000000E+00 0.  1.
         13   -1    0    0    0    0 -0.00000000000E+00 -0.00000000000E+00 -0.27500000000E+03  0.27500000000E+03  0.00000000000E+00 0.  1.
    9000005    2    1    2  501    0 -0.40907170932E+02 -0.50726527344E+02 -0.30047533184E+02  0.46499467370E+03  0.45942422129E+03 0.  0.
         13    1    3    3    0    0 -0.46130665776E+02  0.20070888169E+03 -0.52429372683E+02  0.21251101768E+03  0.00000000000E+00 0.  1.
          1    1    3    3  501    0  0.52234948433E+01 -0.25143540904E+03  0.22381839500E+02  0.25248365602E+03  0.00000000000E+00 0.  1.
         21    1    1    2  502  501  0.40907170932E+02  0.50726527344E+02  0.11155999138E+02  0.66113792258E+02  0.00000000000E+00 0.  1.
<scales pt_clust_4="550.00000" pt_clust_5="550.00000" pt_clust_6="65.16577"></scales>
<mgrwt>
<rscale>  0 0.30000000E+03</rscale>
<asrwt>  1 0.65165767E+02</asrwt>
<pdfrwt beam="1">  1        1 0.93130351E+00 0.30000000E+03</pdfrwt>
<pdfrwt beam="2">0</pdfrwt>
<totfact> 0.22512103E-05</totfact>
</mgrwt>
<clustering>
<clus scale="   65.166">  1  6  2 -1</clus>
<clus scale="  459.424">  4  5 -1 -1</clus>
<clus scale="  300.000">  1  4  2 -1</clus>
</clustering>
</event>
<event>
 6    1  0.1029244E-011  0.3000000E+03  0.7818608E-02  0.1093470E+00
          1   -1    0    0  502    0  0.00000000000E+00  0.00000000000E+00  0.22261951011E+03  0.22261951011E+03  0.00000000000E+00 0.  1.
         13   -1    0    0    0    0 -0.00000000000E+00 -0.00000000000E+00 -0.27500000000E+03  0.27500000000E+03  0.00000000000E+00 0.  1.
    9000005    2    1    2  501    0 -0.24678558402E+02 -0.17869042698E+02 -0.65731871219E+02  0.46435401274E+03  0.45866723921E+03 0.  0.
         13    1    3    3    0    0  0.10362279878E+03  0.99346829551E+02  0.13623789190E+03  0.19790967677E+03  0.00000000000E+00 0.  1.
          1    1    3    3  501    0 -0.12830135718E+03 -0.11721587225E+03 -0.20196976312E+03  0.26644433598E+03  0.00000000000E+00 0.  1.
         21    1    1    2  502  501  0.24678558402E+02  0.17869042698E+02  0.13351381333E+02  0.33265497369E+02  0.00000000000E+00 0. -1.
<scales pt_clust_4="550.00000" pt_clust_5="550.00000" pt_clust_6="30.46857"></scales>
<mgrwt>
<rscale>  0 0.30000000E+03</rscale>
<asrwt>  1 0.30468573E+02</asrwt>
<pdfrwt beam="1">  1        1 0.80952549E+00 0.30000000E+03</pdfrwt>
<pdfrwt beam="2">0</pdfrwt>
<totfact> 0.90301407E-04</totfact>
</mgrwt>
<clustering>
<clus scale="   30.469">  1  6  2 -1</clus>
<clus scale="  458.667">  4  5 -1 -1</clus>
<clus scale="  300.000">  1  4  2 -1</clus>
</clustering>
</event>
<event>
 6    1  0.1029244E-011  0.3000000E+03  0.7818608E-02  0.1093470E+00
          1   -1    0    0  502    0  0.00000000000E+00  0.00000000000E+00  0.24936158806E+03  0.24936158806E+03  0.00000000000E+00 0.  1.
         13   -1    0    0    0    0 -0.00000000000E+00 -0.00000000000E+00 -0.27500000000E+03  0.27500000000E+03  0.00000000000E+00 0.  1.
    9000005    2    1    2  501    0 -0.10280097510E+01 -0.41779794175E+02 -0.34879631243E+02  0.48155962386E+03  0.47847306575E+03 0.  0.
         13    1    3    3    0    0  0.22188753727E+03  0.37789488009E+02  0.49166159442E+02  0.23038974767E+03  0.00000000000E+00 0.  1.
          3    1    3    3  501    0 -0.22291554702E+03 -0.79569282184E+02 -0.84045790684E+02  0.25116987618E+03  0.00000000000E+00 0.  1.
         21    1    1    2  502  501  0.10280097510E+01  0.41779794175E+02  0.92412193023E+01  0.42801964202E+02  0.00000000000E+00 0.  1.
<scales pt_clust_4="550.00000" pt_clust_5="550.00000" pt_clust_6="41.79244"></scales>
<mgrwt>
<rscale>  0 0.30000000E+03</rscale>
<asrwt>  1 0.41792440E+02</asrwt>
<pdfrwt beam="1">  1        1 0.90676941E+00 0.30000000E+03</pdfrwt>
<pdfrwt beam="2">0</pdfrwt>
<totfact> 0.82467438E-05</totfact>
</mgrwt>
<clustering>
<clus scale="   41.792">  1  6  2 -1</clus>
<clus scale="  478.473">  4  5 -1 -1</clus>
<clus scale="  300.000">  1  4  2 -1</clus>
</clustering>
</event>
<event>
 6    1  0.1029244E-011  0.3000000E+03  0.7818608E-02  0.1093470E+00
          1   -1    0    0  502    0  0.00000000000E+00  0.00000000000E+00  0.23692613142E+03  0.23692613142E+03  0.00000000000E+00 0.  1.
         13   -1    0    0    0    0 -0.00000000000E+00 -0.00000000000E+00 -0.27500000000E+03  0.27500000000E+03  0.00000000000E+00 0.  1.
    9000005    2    1    2  501    0  0.33824954792E+02 -0.20458925740E+02 -0.66630138522E+02  0.46315979301E+03  0.45663412410E+03 0.  0.
         13    1    3    3    0    0  0.20592332442E+03  0.10535795555E+03 -0.91040311810E+02  0.24858208446E+03  0.00000000000E+00 0.  1.
          1    1    3    3  501    0 -0.17209836963E+03 -0.12581688129E+03  0.24410173288E+02  0.21457770855E+03  0.00000000000E+00 0.  1.
         21    1    1    2  502  501 -0.33824954792E+02  0.20458925740E+02  0.28556269946E+02  0.48766338414E+02  0.00000000000E+00 0. -1.
<scales pt_clust_4="550.00000" pt_clust_5="550.00000" pt_clust_6="39.53094"></scales>
<mgrwt>
<rscale>  0 0.30000000E+03</rscale>
<asrwt>  1 0.39530940E+02</asrwt>
<pdfrwt beam="1">  1        1 0.86154957E+00 0.30000000E+03</pdfrwt>
<pdfrwt beam="2">0</pdfrwt>
<totfact> 0.30438144E-04</totfact>
</mgrwt>
<clustering>
<clus scale="   39.531">  1  6  2 -1</clus>
<clus scale="  456.634">  4  5 -1 -1</clus>
<clus scale="  300.000">  1  4  2 -1</clus>
</clustering>
</event>
<event>
 6    1  0.1029244E-011  0.3000000E+03  0.7818608E-02  0.1093470E+00
          1   -1    0    0  502    0  0.00000000000E+00  0.00000000000E+00  0.24835000956E+03  0.24835000956E+03  0.00000000000E+00 0.  1.
         13   -1    0    0    0    0 -0.00000000000E+00 -0.00000000000E+00 -0.27500000000E+03  0.27500000000E+03  0.00000000000E+00 0.  1.
    9000005    2    1    2  501    0 -0.42365880620E+01  0.40975962116E+02 -0.45591203846E+02  0.47800965540E+03  0.47404397965E+03 0.  0.
         13    1    3    3    0    0  0.96455366763E+02 -0.19098599467E+03  0.25132417767E+02  0.21543195297E+03  0.00000000000E+00 0.  1.
          3    1    3    3  501    0 -0.10069195483E+03  0.23196195678E+03 -0.70723621614E+02  0.26257770244E+03  0.00000000000E+00 0.  1.
         21    1    1    2  502  501  0.42365880620E+01 -0.40975962116E+02  0.18941213407E+02  0.45340354157E+02  0.00000000000E+00 0. -1.
<scales pt_clust_4="550.00000" pt_clust_5="550.00000" pt_clust_6="41.19439"></scales>
<mgrwt>
<rscale>  0 0.30000000E+03</rscale>
<asrwt>  1 0.41194395E+02</asrwt>
<pdfrwt beam="1">  1        1 0.90309094E+00 0.30000000E+03</pdfrwt>
<pdfrwt beam="2">0</pdfrwt>
<totfact> 0.96922471E-05</totfact>
</mgrwt>
<clustering>
<clus scale="   41.194">  1  6  2 -1</clus>
<clus scale="  474.044">  4  5 -1 -1</clus>
<clus scale="  300.000">  1  4  2 -1</clus>
</clustering>
</event>
<event>
 6    1  0.1029244E-011  0.3000000E+03  0.7818608E-02  0.1093470E+00
          1   -1    0    0  502    0  0.00000000000E+00  0.00000000000E+00  0.21995140798E+03  0.21995140798E+03  0.00000000000E+00 0.  1.
         13   -1    0    0    0    0 -0.00000000000E+00 -0.00000000000E+00 -0.27500000000E+03  0.27500000000E+03  0.00000000000E+00 0.  1.
    9000005    2    1    2  501    0  0.66342438255E+01  0.29432579431E+02 -0.51904754105E+02  0.46461704397E+03  0.46072182944E+03 0.  0.
         13    1    3    3    0    0  0.32789056920E+02  0.21500011429E+03  0.83977739593E+02  0.23313608075E+03  0.00000000000E+00 0.  1.
          3    1    3    3  501    0 -0.26154813095E+02 -0.18556753486E+03 -0.13588249370E+03  0.23148096323E+03  0.00000000000E+00 0.  1.
         21    1    1    2  502  501 -0.66342438255E+01 -0.29432579431E+02 -0.31438379132E+01  0.30334364010E+02  0.00000000000E+00 0. -1.
<scales pt_clust_4="550.00000" pt_clust_5="550.00000" pt_clust_6="30.17101"></scales>
<mgrwt>
<rscale>  0 0.30000000E+03</rscale>
<asrwt>  1 0.30171011E+02</asrwt>
<pdfrwt beam="1">  1        1 0.79982330E+00 0.30000000E+03</pdfrwt>
<pdfrwt beam="2">0</pdfrwt>
<totfact> 0.10697866E-03</totfact>
</mgrwt>
<clustering>
<clus scale="   30.171">  1  6  2 -1</clus>
<clus scale="  460.722">  4  5 -1 -1</clus>
<clus scale="  300.000">  1  4  2 -1</clus>
</clustering>
</event>
<event>
 6    1  0.1029244E-011  0.3000000E+03  0.7818608E-02  0.1093470E+00
          1   -1    0    0  502    0  0.00000000000E+00  0.00000000000E+00  0.23806415742E+03  0.23806415742E+03  0.00000000000E+00 0.  1.
         13   -1    0    0    0    0 -0.00000000000E+00 -0.00000000000E+00 -0.27500000000E+03  0.27500000000E+03  0.00000000000E+00 0.  1.
    9000005    2    1    2  501    0 -0.40521668974E+02  0.17516690500E+01 -0.64152479062E+02  0.46421930813E+03  0.45797265363E+03 0.  0.
         13    1    3    3    0    0 -0.11283679186E+03 -0.20103042342E+03 -0.89802099951E+02  0.24740612339E+03  0.00000000000E+00 0.  1.
          1    1    3    3  501    0  0.72315122886E+02  0.20278209247E+03  0.25649620889E+02  0.21681318474E+03  0.00000000000E+00 0.  1.
         21    1    1    2  502  501  0.40521668974E+02 -0.17516690500E+01  0.27216636483E+02  0.48844849292E+02  0.00000000000E+00 0.  1.
<scales pt_clust_4="550.00000" pt_clust_5="550.00000" pt_clust_6="40.55951"></scales>
<mgrwt>
<rscale>  0 0.30000000E+03</rscale>
<asrwt>  1 0.40559512E+02</asrwt>
<pdfrwt beam="1">  1        1 0.86568785E+00 0.30000000E+03</pdfrwt>
<pdfrwt beam="2">0</pdfrwt>
<totfact> 0.27334832E-04</totfact>
</mgrwt>
<clustering>
<clus scale="   40.560">  1  6  2 -1</clus>
<clus scale="  457.973">  4  5 -1 -1</clus>
<clus scale="  300.000">  1  4  2 -1</clus>
</clustering>
</event>
<event>
 6    1  0.1029244E-011  0.3000000E+03  0.7818608E-02  0.1093470E+00
          1   -1    0    0  502    0  0.00000000000E+00  0.00000000000E+00  0.24108801648E+03  0.24108801648E+03  0.00000000000E+00 0.  1.
         13   -1    0    0    0    0 -0.00000000000E+00 -0.00000000000E+00 -0.27500000000E+03  0.27500000000E+03  0.00000000000E+00 0.  1.
    9000005    2    1    2  501    0  0.37757982154E+02  0.86988075370E+01 -0.37401589107E+02  0.47718413729E+03  0.47413551602E+03 0.  0.
         13    1    3    3    0    0 -0.13775033588E+03 -0.65159858376E+02  0.14727546693E+03  0.21192221530E+03  0.00000000000E+00 0.  1.
          3    1    3    3  501    0  0.17550831803E+03  0.73858665913E+02 -0.18467705604E+03  0.26526192199E+03  0.00000000000E+00 0.  1.
         21    1    1    2  502  501 -0.37757982154E+02 -0.86988075370E+01  0.34896055905E+01  0.38903879191E+02  0.00000000000E+00 0. -1.
<scales pt_clust_4="550.00000" pt_clust_5="550.00000" pt_clust_6="38.74706"></scales>
<mgrwt>
<rscale>  0 0.30000000E+03</rscale>
<asrwt>  1 0.38747058E+02</asrwt>
<pdfrwt beam="1">  1        1 0.87668370E+00 0.30000000E+03</pdfrwt>
<pdfrwt beam="2">0</pdfrwt>
<totfact> 0.21169382E-04</totfact>
</mgrwt>
<clustering>
<clus scale="   38.747">  1  6  2 -1</clus>
<clus scale="  474.136">  4  5 -1 -1</clus>
<clus scale="  300.000">  1  4  2 -1</clus>
</clustering>
</event>
<event>
 6    1  0.1029244E-011  0.3000000E+03  0.7818608E-02  0.1093470E+00
          1   -1    0    0  502    0  0.00000000000E+00  0.00000000000E+00  0.23736446486E+03  0.23736446486E+03  0.00000000000E+00 0.  1.
         13   -1    0    0    0    0 -0.00000000000E+00 -0.00000000000E+00 -0.27500000000E+03  0.27500000000E+03  0.00000000000E+00 0.  1.
    9000005    2    1    2  501    0 -0.15821633583E+02  0.38685556354E+02 -0.31730662574E+02  0.47015351983E+03  0.46721579694E+03 0.  0.
         13    1    3    3    0    0  0.12056422844E+03  0.73250349999E+02 -0.20381358462E+03  0.24787360536E+03  0.00000000000E+00 0.  1.
          3    1    3    3  501    0 -0.13638586203E+03 -0.34564793645E+02  0.17208292205E+03  0.22227991448E+03  0.00000000000E+00 0.  1.
         21    1    1    2  502  501  0.15821633583E+02 -0.38685556354E+02 -0.59048725687E+01  0.42210945023E+02  0.00000000000E+00 0.  1.
<scales pt_clust_4="550.00000" pt_clust_5="550.00000" pt_clust_6="41.79591"></scales>
<mgrwt>
<rscale>  0 0.30000000E+03</rscale>
<asrwt>  1 0.41795910E+02</asrwt>
<pdfrwt beam="1">  1        1 0.86314351E+00 0.30000000E+03</pdfrwt>
<pdfrwt beam="2">0</pdfrwt>
<totfact> 0.28959238E-04</totfact>
</mgrwt>
<clustering>
<clus scale="   41.796">  1  6  2 -1</clus>
<clus scale="  467.216">  4  5 -1 -1</clus>
<clus scale="  300.000">  1  4  2 -1</clus>
</clustering>
</event>
<event>
 6    1  0.1029244E-011  0.3000000E+03  0.7818608E-02  0.1093470E+00
          1   -1    0    0  502    0  0.00000000000E+00  0.00000000000E+00  0.22467958819E+03  0.22467958819E+03  0.00000000000E+00 0.  1.
         13   -1    0    0    0    0 -0.00000000000E+00 -0.00000000000E+00 -0.27500000000E+03  0.27500000000E+03  0.00000000000E+00 0.  1.
    9000005    2    1    2  501    0  0.50438886623E+01  0.30004293205E+02 -0.42757679329E+02  0.46832845829E+03  0.46537901466E+03 0.  0.
         13    1    3    3    0    0 -0.86909854330E+02  0.23019233062E+03 -0.24885548916E+02  0.24730774836E+03  0.00000000000E+00 0.  1.
          1    1    3    3  501    0  0.91953742993E+02 -0.20018803741E+03 -0.17872130413E+02  0.22102070993E+03  0.00000000000E+00 0.  1.
         21    1    1    2  502  501 -0.50438886623E+01 -0.30004293205E+02 -0.75627324769E+01  0.31351129901E+02  0.00000000000E+00 0. -1.
<scales pt_clust_4="550.00000" pt_clust_5="550.00000" pt_clust_6="30.42531"></scales>
<mgrwt>
<rscale>  0 0.30000000E+03</rscale>
<asrwt>  1 0.30425308E+02</asrwt>
<pdfrwt beam="1">  1        1 0.81701668E+00 0.30000000E+03</pdfrwt>
<pdfrwt beam="2">0</pdfrwt>
<totfact> 0.78707643E-04</totfact>
</mgrwt>
<clustering>
<clus scale="   30.425">  1  6  2 -1</clus>
<clus scale="  465.379">  4  5 -1 -1</clus>
<clus scale="  300.000">  1  4  2 -1</clus>
</clustering>
</event>
<event>
 6    1  0.1029244E-011  0.3000000E+03  0.7818608E-02  0.1093470E+00
          1   -1    0    0  502    0  0.00000000000E+00  0.00000000000E+00  0.24443985739E+03  0.24443985739E+03  0.00000000000E+00 0.  1.
         13   -1    0    0    0    0 -0.00000000000E+00 -0.00000000000E+00 -0.27500000000E+03  0.27500000000E+03  0.00000000000E+00 0.  1.
    9000005    2    1    2  501    0 -0.18030302787E+02  0.31117643472E+02 -0.38503039097E+02  0.48260931085E+03  0.47972477875E+03 0.  0.
         13    1    3    3    0    0  0.20505690180E+03  0.86983574570E+02 -0.10058549008E+03  0.24440113755E+03  0.00000000000E+00 0.  1.
          1    1    3    3  501    0 -0.22308720459E+03 -0.55865931098E+02  0.62082450980E+02  0.23820817330E+03  0.00000000000E+00 0.  1.
         21    1    1    2  502  501  0.18030302787E+02 -0.31117643472E+02  0.79428964846E+01  0.36830546539E+02  0.00000000000E+00 0.  1.
<scales pt_clust_4="550.00000" pt_clust_5="550.00000" pt_clust_6="35.96386"></scales>
<mgrwt>
<rscale>  0 0.30000000E+03</rscale>
<asrwt>  1 0.35963865E+02</asrwt>
<pdfrwt beam="1">  1        1 0.88887221E+00 0.30000000E+03</pdfrwt>
<pdfrwt beam="2">0</pdfrwt>
<totfact> 0.14935518E-04</totfact>
</mgrwt>
<clustering>
<clus scale="   35.964">  1  6  2 -1</clus>
<clus scale="  479.725">  4  5 -1 -1</clus>
<clus scale="  300.000">  1  4  2 -1</clus>
</clustering>
</event>
<event>
 6    1  0.1029244E-011  0.3000000E+03  0.7818608E-02  0.1093470E+00
          1   -1    0    0  502    0  0.00000000000E+00  0.00000000000E+00  0.24088263061E+03  0.24088263061E+03  0.00000000000E+00 0.  1.
         13   -1    0    0    0    0 -0.00000000000E+00 -0.00000000000E+00 -0.27500000000E+03  0.27500000000E+03  0.00000000000E+00 0.  1.
    9000005    2    1    2  501    0  0.44684424325E+02  0.91559497817E+01 -0.15683069214E+02  0.46668555125E+03  0.46418629438E+03 0.  0.
         13    1    3    3    0    0 -0.94150467750E+02  0.57142565848E+01  0.19369247541E+03  0.21543847924E+03  0.00000000000E+00 0.  1.
          3    1    3    3  501    0  0.13883489208E+03  0.34416931969E+01 -0.20937554462E+03  0.25124707201E+03  0.00000000000E+00 0.  1.
         21    1    1    2  502  501 -0.44684424325E+02 -0.91559497817E+01 -0.18434300181E+02  0.49197079353E+02  0.00000000000E+00 0.  1.
<scales pt_clust_4="550.00000" pt_clust_5="550.00000" pt_clust_6="45.61284"></scales>
<mgrwt>
<rscale>  0 0.30000000E+03</rscale>
<asrwt>  1 0.45612841E+02</asrwt>
<pdfrwt beam="1">  1        1 0.87593684E+00 0.30000000E+03</pdfrwt>
<pdfrwt beam="2">0</pdfrwt>
<totfact> 0.20942821E-04</totfact>
</mgrwt>
<clustering>
<clus scale="   45.613">  1  6  2 -1</clus>
<clus scale="  464.186">  4  5 -1 -1</clus>
<clus scale="  300.000">  1  4  2 -1</clus>
</clustering>
</event>
<event>
 6    1  0.1029244E-011  0.3000000E+03  0.7818608E-02  0.1093470E+00
          1   -1    0    0  502    0  0.00000000000E+00  0.00000000000E+00  0.23969367392E+03  0.23969367392E+03  0.00000000000E+00 0.  1.
         13   -1    0    0    0    0 -0.00000000000E+00 -0.00000000000E+00 -0.27500000000E+03  0.27500000000E+03  0.00000000000E+00 0.  1.
    9000005    2    1    2  501    0  0.79265550415E+01  0.51808063169E+02 -0.20327902901E+02  0.46018441924E+03  0.45673796689E+03 0.  0.
         13    1    3    3    0    0 -0.10347359942E+03 -0.17449531492E+03 -0.41471105269E+02  0.20706340401E+03  0.00000000000E+00 0.  1.
          3    1    3    3  501    0  0.11140015446E+03  0.22630337809E+03  0.21143202368E+02  0.25312101524E+03  0.00000000000E+00 0.  1.
         21    1    1    2  502  501 -0.79265550415E+01 -0.51808063169E+02 -0.14978423181E+02  0.54509254674E+02  0.00000000000E+00 0.  1.
<scales pt_clust_4="550.00000" pt_clust_5="550.00000" pt_clust_6="52.41096"></scales>
<mgrwt>
<rscale>  0 0.30000000E+03</rscale>
<asrwt>  1 0.52410957E+02</asrwt>
<pdfrwt beam="1">  1        1 0.87161336E+00 0.30000000E+03</pdfrwt>
<pdfrwt beam="2">0</pdfrwt>
<totfact> 0.22670485E-04</totfact>
</mgrwt>
<clustering>
<clus scale="   52.411">  1  6  2 -1</clus>
<clus scale="  456.738">  4  5 -1 -1</clus>
<clus scale="  300.000">  1  4  2 -1</clus>
</clustering>
</event>
<event>
 6    1  0.1029244E-011  0.3000000E+03  0.7818608E-02  0.1093470E+00
          1   -1    0    0  502    0  0.00000000000E+00  0.00000000000E+00  0.24459818333E+03  0.24459818333E+03  0.00000000000E+00 0.  1.
         13   -1    0    0    0    0 -0.00000000000E+00 -0.00000000000E+00 -0.27500000000E+03  0.27500000000E+03  0.00000000000E+00 0.  1.
    9000005    2    1    2  501    0 -0.37505891456E+02  0.12170086774E+02 -0.50838024823E+02  0.47518600583E+03  0.47081039970E+03 0.  0.
         13    1    3    3    0    0  0.84086485220E+02  0.26240793540E+00 -0.23758416708E+03  0.25202547947E+03  0.00000000000E+00 0.  1.
          1    1    3    3  501    0 -0.12159237668E+03  0.11907678839E+02  0.18674614226E+03  0.22316052637E+03  0.00000000000E+00 0.  1.
         21    1    1    2  502  501  0.37505891456E+02 -0.12170086774E+02  0.20436208148E+02  0.44412177491E+02  0.00000000000E+00 0.  1.
<scales pt_clust_4="550.00000" pt_clust_5="550.00000" pt_clust_6="39.43099"></scales>
<mgrwt>
<rscale>  0 0.30000000E+03</rscale>
<asrwt>  1 0.39430989E+02</asrwt>
<pdfrwt beam="1">  1        1 0.88944794E+00 0.30000000E+03</pdfrwt>
<pdfrwt beam="2">0</pdfrwt>
<totfact> 0.14422786E-04</totfact>
</mgrwt>
<clustering>
<clus scale="   39.431">  1  6  2 -1</clus>
<clus scale="  470.810">  4  5 -1 -1</clus>
<clus scale="  300.000">  1  4  2 -1</clus>
</clustering>
</event>
<event>
 6    1  0.1029244E-011  0.3000000E+03  0.7818608E-02  0.1093470E+00
          1   -1    0    0  502    0  0.00000000000E+00  0.00000000000E+00  0.22456162201E+03  0.22456162201E+03  0.00000000000E+00 0.  1.
         13   -1    0    0    0    0 -0.00000000000E+00 -0.00000000000E+00 -0.27500000000E+03  0.27500000000E+03  0.00000000000E+00 0.  1.
    9000005    2    1    2  501    0 -0.23944645927E+02 -0.27034349908E+02 -0.59716895701E+02  0.46227498855E+03  0.45697686513E+03 0.  0.
         13    1    3    3    0    0 -0.16786093792E+03  0.24827899418E+02 -0.19469524888E+03  0.25826335204E+03  0.00000000000E+00 0.  1.
          3    1    3    3  501    0  0.14391629200E+03 -0.51862249326E+02  0.13497835318E+03  0.20401163651E+03  0.00000000000E+00 0.  1.
         21    1    1    2  502  501  0.23944645927E+02  0.27034349908E+02  0.92785177068E+01  0.37286633454E+02  0.00000000000E+00 0. -1.
<scales pt_clust_4="550.00000" pt_clust_5="550.00000" pt_clust_6="36.11374"></scales>
<mgrwt>
<rscale>  0 0.30000000E+03</rscale>
<asrwt>  1 0.36113739E+02</asrwt>
<pdfrwt beam="1">  1        1 0.81658772E+00 0.30000000E+03</pdfrwt>
<pdfrwt beam="2">0</pdfrwt>
<totfact> 0.76820167E-04</totfact>
</mgrwt>
<clustering>
<clus scale="   36.114">  1  6  2 -1</clus>
<clus scale="  456.977">  4  5 -1 -1</clus>
<clus scale="  300.000">  1  4  2 -1</clus>
</clustering>
</event>
<event>
 6    1  0.1029244E-011  0.3000000E+03  0.7818608E-02  0.1093470E+00
          1   -1    0    0  502    0  0.00000000000E+00  0.00000000000E+00  0.23190120925E+03  0.23190120925E+03  0.00000000000E+00 0.  1.
         13   -1    0    0    0    0 -0.00000000000E+00 -0.00000000000E+00 -0.27500000000E+03  0.27500000000E+03  0.00000000000E+00 0.  1.
    9000005    2    1    2  501    0  0.29465339267E+02  0.20222928665E+02 -0.68707212781E+02  0.46293571891E+03  0.45641168444E+03 0.  0.
         13    1    3    3    0    0  0.46127805409E+02  0.10192735581E+03 -0.24421710128E+03  0.26862418515E+03  0.00000000000E+00 0.  1.
          3    1    3    3  501    0 -0.16662466142E+02 -0.81704427142E+02  0.17550988849E+03  0.19431153376E+03  0.00000000000E+00 0.  1.
         21    1    1    2  502  501 -0.29465339267E+02 -0.20222928665E+02  0.25608422034E+02  0.43965490342E+02  0.00000000000E+00 0. -1.
<scales pt_clust_4="550.00000" pt_clust_5="550.00000" pt_clust_6="35.73756"></scales>
<mgrwt>
<rscale>  0 0.30000000E+03</rscale>
<asrwt>  1 0.35737558E+02</asrwt>
<pdfrwt beam="1">  1        1 0.84327712E+00 0.30000000E+03</pdfrwt>
<pdfrwt beam="2">0</pdfrwt>
<totfact> 0.46570117E-04</totfact>
</mgrwt>
<clustering>
<clus scale="   35.738">  1  6  2 -1</clus>
<clus scale="  456.412">  4  5 -1 -1</clus>
<clus scale="  300.000">  1  4  2 -1</clus>
</clustering>
</event>
<event>
 6    1  0.1029244E-011  0.3000000E+03  0.7818608E-02  0.1093470E+00
          1   -1    0    0  502    0  0.00000000000E+00  0.00000000000E+00  0.24421796784E+03  0.24421796784E+03  0.00000000000E+00 0.  1.
         13   -1    0    0    0    0 -0.00000000000E+00 -0.00000000000E+00 -0.27500000000E+03  0.27500000000E+03  0.00000000000E+00 0.  1.
    9000005    2    1    2  501    0 -0.40575771425E+02 -0.68404367686E+01 -0.70118051074E+01  0.47169735656E+03  0.46984683246E+03 0.  0.
         13    1    3    3    0    0 -0.24619108984E+02  0.19360756583E+03 -0.13137554385E+03  0.23526479464E+03  0.00000000000E+00 0.  1.
          3    1    3    3  501    0 -0.15956662441E+02 -0.20044800260E+03  0.12436373875E+03  0.23643256192E+03  0.00000000000E+00 0.  1.
         21    1    1    2  502  501  0.40575771425E+02  0.68404367686E+01 -0.23770227056E+02  0.47520611278E+02  0.00000000000E+00 0.  1.
<scales pt_clust_4="550.00000" pt_clust_5="550.00000" pt_clust_6="41.14835"></scales>
<mgrwt>
<rscale>  0 0.30000000E+03</rscale>
<asrwt>  1 0.41148347E+02</asrwt>
<pdfrwt beam="1">  1        1 0.88806534E+00 0.30000000E+03</pdfrwt>
<pdfrwt beam="2">0</pdfrwt>
<totfact> 0.14945281E-04</totfact>
</mgrwt>
<clustering>
<clus scale="   41.148">  1  6  2 -1</clus>
<clus scale="  469.847">  4  5 -1 -1</clus>
<clus scale="  300.000">  1  4  2 -1</clus>
</clustering>
</event>
<event>
 6    1  0.1029244E-011  0.3000000E+03  0.7818608E-02  0.1093470E+00
          1   -1    0    0  502    0  0.00000000000E+00  0.00000000000E+00  0.24643409787E+03  0.24643409787E+03  0.00000000000E+00 0.  1.
         13   -1    0    0    0    0 -0.00000000000E+00 -0.00000000000E+00 -0.27500000000E+03  0.27500000000E+03  0.00000000000E+00 0.  1.
    9000005    2    1    2  501    0 -0.38094656209E+02 -0.83439064110E+01 -0.16429839235E+02  0.48059162454E+03  0.47872491720E+03 0.  0.
         13    1    3    3    0    0  0.11727733033E+03 -0.88679749147E+02 -0.18591989283E+03  0.23703222706E+03  0.00000000000E+00 0.  1.
          3    1    3    3  501    0 -0.15537198654E+03  0.80335842736E+02  0.16949005359E+03  0.24355939747E+03  0.00000000000E+00 0.  1.
         21    1    1    2  502  501  0.38094656209E+02  0.83439064110E+01 -0.12136062891E+02  0.40842473338E+02  0.00000000000E+00 0.  1.
<scales pt_clust_4="550.00000" pt_clust_5="550.00000" pt_clust_6="38.99776"></scales>
<mgrwt>
<rscale>  0 0.30000000E+03</rscale>
<asrwt>  1 0.38997758E+02</asrwt>
<pdfrwt beam="1">  1        1 0.89612399E+00 0.30000000E+03</pdfrwt>
<pdfrwt beam="2">0</pdfrwt>
<totfact> 0.12007175E-04</totfact>
</mgrwt>
<clustering>
<clus scale="   38.998">  1  6  2 -1</clus>
<clus scale="  478.725">  4  5 -1 -1</clus>
<clus scale="  300.000">  1  4  2 -1</clus>
</clustering>
</event>
<event>
 6    1  0.1029244E-011  0.3000000E+03  0.7818608E-02  0.1093470E+00
          1   -1    0    0  502    0  0.00000000000E+00  0.00000000000E+00  0.23739099757E+03  0.23739099757E+03  0.00000000000E+00 0.  1.
         13   -1    0    0    0    0 -0.00000000000E+00 -0.00000000000E+00 -0.27500000000E+03  0.27500000000E+03  0.00000000000E+00 0.  1.
    9000005    2    1    2  501    0 -0.33623875074E+02  0.43395899384E+01 -0.35163310326E+02  0.47840013959E+03  0.47590002958E+03 0.  0.
         13    1    3    3    0    0  0.15448400780E+03  0.15888395609E+03 -0.70157208164E+02  0.23244666921E+03  0.00000000000E+00 0.  1.
          3    1    3    3  501    0 -0.18810788287E+03 -0.15454436615E+03  0.34993897838E+02  0.24595347039E+03  0.00000000000E+00 0.  1.
         21    1    1    2  502  501  0.33623875074E+02 -0.43395899384E+01 -0.24456921072E+01  0.33990857972E+02  0.00000000000E+00 0.  1.
<scales pt_clust_4="550.00000" pt_clust_5="550.00000" pt_clust_6="33.90276"></scales>
<mgrwt>
<rscale>  0 0.30000000E+03</rscale>
<asrwt>  1 0.33902758E+02</asrwt>
<pdfrwt beam="1">  1        1 0.86323999E+00 0.30000000E+03</pdfrwt>
<pdfrwt beam="2">0</pdfrwt>
<totfact> 0.30027413E-04</totfact>
</mgrwt>
<clustering>
<clus scale="   33.903">  1  6  2 -1</clus>
<clus scale="  475.900">  4  5 -1 -1</clus>
<clus scale="  300.000">  1  4  2 -1</clus>
</clustering>
</event>
<event>
 6    1  0.1029244E-011  0.3000000E+03  0.7818608E-02  0.1093470E+00
          1   -1    0    0  502    0  0.00000000000E+00  0.00000000000E+00  0.23457346131E+03  0.23457346131E+03  0.00000000000E+00 0.  1.
         13   -1    0    0    0    0 -0.00000000000E+00 -0.00000000000E+00 -0.27500000000E+03  0.27500000000E+03  0.00000000000E+00 0.  1.
    9000005    2    1    2  501    0  0.30580594979E+02  0.22344302031E+02 -0.55817523579E+02  0.46869164337E+03  0.46381226806E+03 0.  0.
         13    1    3    3    0    0 -0.12025504963E+03  0.17181740837E+03  0.70928862979E+02  0.22138970704E+03  0.00000000000E+00 0.  1.
          3    1    3    3  501    0  0.15083564461E+03 -0.14947310634E+03 -0.12674638656E+03  0.24730193632E+03  0.00000000000E+00 0.  1.
         21    1    1    2  502  501 -0.30580594979E+02 -0.22344302031E+02  0.15390984894E+02  0.40881817946E+02  0.00000000000E+00 0. -1.
<scales pt_clust_4="550.00000" pt_clust_5="550.00000" pt_clust_6="37.87401"></scales>
<mgrwt>
<rscale>  0 0.30000000E+03</rscale>
<asrwt>  1 0.37874010E+02</asrwt>
<pdfrwt beam="1">  1        1 0.85299440E+00 0.30000000E+03</pdfrwt>
<pdfrwt beam="2">0</pdfrwt>
<totfact> 0.37556974E-04</totfact>
</mgrwt>
<clustering>
<clus scale="   37.874">  1  6  2 -1</clus>
<clus scale="  463.812">  4  5 -1 -1</clus>
<clus scale="  300.000">  1  4  2 -1</clus>
</clustering>
</event>
<event>
 6    1  0.1029244E-011  0.3000000E+03  0.7818608E-02  0.1093470E+00
          1   -1    0    0  502    0  0.00000000000E+00  0.00000000000E+00  0.23016261898E+03  0.23016261898E+03  0.00000000000E+00 0.  1.
         13   -1    0    0    0    0 -0.00000000000E+00 -0.00000000000E+00 -0.27500000000E+03  0.27500000000E+03  0.00000000000E+00 0.  1.
    9000005    2    1    2  501    0 -0.39456834864E+02  0.77552949267E+01 -0.50344130235E+02  0.46457554341E+03  0.46008577208E+03 0.  0.
         13    1    3    3    0    0 -0.13659475071E+02  0.11311180891E+03 -0.22888158660E+03  0.25567096678E+03  0.00000000000E+00 0.  1.
          3    1    3    3  501    0 -0.25797359793E+02 -0.10535651398E+03  0.17853745636E+03  0.20890457662E+03  0.00000000000E+00 0.  1.
         21    1    1    2  502  501  0.39456834864E+02 -0.77552949267E+01  0.55067492197E+01  0.40587075576E+02  0.00000000000E+00 0. -1.
<scales pt_clust_4="550.00000" pt_clust_5="550.00000" pt_clust_6="40.21177"></scales>
<mgrwt>
<rscale>  0 0.30000000E+03</rscale>
<asrwt>  1 0.40211770E+02</asrwt>
<pdfrwt beam="1">  1        1 0.83695498E+00 0.30000000E+03</pdfrwt>
<pdfrwt beam="2">0</pdfrwt>
<totfact> 0.51033318E-04</totfact>
</mgrwt>
<clustering>
<clus scale="   40.212">  1  6  2 -1</clus>
<clus scale="  460.086">  4  5 -1 -1</clus>
<clus scale="  300.000">  1  4  2 -1</clus>
</clustering>
</event>
<event>
 6    1  0.1029244E-011  0.3000000E+03  0.7818608E-02  0.1093470E+00
          1   -1    0    0  502    0  0.00000000000E+00  0.00000000000E+00  0.24252152909E+03  0.24252152909E+03  0.00000000000E+00 0.  1.
         13   -1    0    0    0    0 -0.00000000000E+00 -0.00000000000E+00 -0.27500000000E+03  0.27500000000E+03  0.00000000000E+00 0.  1.
    9000005    2    1    2  501    0 -0.45377105512E+02 -0.40340672251E+01 -0.21865468170E+02  0.47074556058E+03  0.46802556416E+03 0.  0.
         13    1    3    3    0    0  0.27313366352E+02 -0.13227140928E+03 -0.19887114572E+03  0.24039858214E+03  0.00000000000E+00 0.  1.
          3    1    3    3  501    0 -0.72690471864E+02  0.12823734205E+03  0.17700567755E+03  0.23034697845E+03  0.00000000000E+00 0.  1.
         21    1    1    2  502  501  0.45377105512E+02  0.40340672251E+01 -0.10613002736E+02  0.46775968510E+02  0.00000000000E+00 0.  1.
<scales pt_clust_4="550.00000" pt_clust_5="550.00000" pt_clust_6="45.55609"></scales>
<mgrwt>
<rscale>  0 0.30000000E+03</rscale>
<asrwt>  1 0.45556092E+02</asrwt>
<pdfrwt beam="1">  1        1 0.88189647E+00 0.30000000E+03</pdfrwt>
<pdfrwt beam="2">0</pdfrwt>
<totfact> 0.17797748E-04</totfact>
</mgrwt>
<clustering>
<clus scale="   45.556">  1  6  2 -1</clus>
<clus scale="  468.026">  4  5 -1 -1</clus>
<clus scale="  300.000">  1  4  2 -1</clus>
</clustering>
</event>
<event>
 6    1  0.1029244E-011  0.3000000E+03  0.7818608E-02  0.1093470E+00
          1   -1    0    0  502    0  0.00000000000E+00  0.00000000000E+00  0.22569928204E+03  0.22569928204E+03  0.00000000000E+00 0.  1.
         13   -1    0    0    0    0 -0.00000000000E+00 -0.00000000000E+00 -0.27500000000E+03  0.27500000000E+03  0.00000000000E+00 0.  1.
    9000005    2    1    2  501    0  0.33471149117E+02  0.10577883477E+02 -0.47446122201E+02  0.46554748312E+03  0.46179120291E+03 0.  0.
         13    1    3    3    0    0  0.23869187055E+03  0.51658289395E+02  0.21572677340E+02  0.24516885678E+03  0.00000000000E+00 0.  1.
          1    1    3    3  501    0 -0.20522072143E+03 -0.41080405918E+02 -0.69018799542E+02  0.22037862633E+03  0.00000000000E+00 0.  1.
         21    1    1    2  502  501 -0.33471149117E+02 -0.10577883477E+02 -0.18545957595E+01  0.35151798923E+02  0.00000000000E+00 0. -1.
<scales pt_clust_4="550.00000" pt_clust_5="550.00000" pt_clust_6="35.10284"></scales>
<mgrwt>
<rscale>  0 0.30000000E+03</rscale>
<asrwt>  1 0.35102841E+02</asrwt>
<pdfrwt beam="1">  1        1 0.82072466E+00 0.30000000E+03</pdfrwt>
<pdfrwt beam="2">0</pdfrwt>
<totfact> 0.71247367E-04</totfact>
</mgrwt>
<clustering>
<clus scale="   35.103">  1  6  2 -1</clus>
<clus scale="  461.791">  4  5 -1 -1</clus>
<clus scale="  300.000">  1  4  2 -1</clus>
</clustering>
</event>
<event>
 6    1  0.1029244E-011  0.3000000E+03  0.7818608E-02  0.1093470E+00
          1   -1    0    0  502    0  0.00000000000E+00  0.00000000000E+00  0.23027582284E+03  0.23027582284E+03  0.00000000000E+00 0.  1.
         13   -1    0    0    0    0 -0.00000000000E+00 -0.00000000000E+00 -0.27500000000E+03  0.27500000000E+03  0.00000000000E+00 0.  1.
    9000005    2    1    2  501    0 -0.40288462784E+02  0.57652912442E+01 -0.57847849827E+02  0.46251334395E+03  0.45707310223E+03 0.  0.
         13    1    3    3    0    0  0.18412862589E+03 -0.82556773803E+02 -0.86690726351E+02  0.21962298105E+03  0.00000000000E+00 0.  1.
          1    1    3    3  501    0 -0.22441708867E+03  0.88322065047E+02  0.28842876524E+02  0.24289036290E+03  0.00000000000E+00 0.  1.
         21    1    1    2  502  501  0.40288462784E+02 -0.57652912442E+01  0.13123672668E+02  0.42762478891E+02  0.00000000000E+00 0. -1.
<scales pt_clust_4="550.00000" pt_clust_5="550.00000" pt_clust_6="40.69888"></scales>
<mgrwt>
<rscale>  0 0.30000000E+03</rscale>
<asrwt>  1 0.40698880E+02</asrwt>
<pdfrwt beam="1">  1        1 0.83736663E+00 0.30000000E+03</pdfrwt>
<pdfrwt beam="2">0</pdfrwt>
<totfact> 0.50571615E-04</totfact>
</mgrwt>
<clustering>
<clus scale="   40.699">  1  6  2 -1</clus>
<clus scale="  457.073">  4  5 -1 -1</clus>
<clus scale="  300.000">  1  4  2 -1</clus>
</clustering>
</event>
<event>
 6    1  0.1029244E-011  0.3000000E+03  0.7818608E-02  0.1093470E+00
          1   -1    0    0  502    0  0.00000000000E+00  0.00000000000E+00  0.22804166671E+03  0.22804166671E+03  0.00000000000E+00 0.  1.
         13   -1    0    0    0    0 -0.00000000000E+00 -0.00000000000E+00 -0.27500000000E+03  0.27500000000E+03  0.00000000000E+00 0.  1.
    9000005    2    1    2  501    0  0.25146203817E+02 -0.28784198826E+02 -0.37934254579E+02  0.46376959438E+03  0.46063257302E+03 0.  0.
         13    1    3    3    0    0  0.17475231815E+03 -0.16946615037E+03 -0.75778563665E+02  0.25495007262E+03  0.00000000000E+00 0.  1.
          3    1    3    3  501    0 -0.14960611433E+03  0.14068195155E+03  0.37844309087E+02  0.20881952175E+03  0.00000000000E+00 0.  1.
         21    1    1    2  502  501 -0.25146203817E+02  0.28784198826E+02 -0.90240787152E+01  0.39272072330E+02  0.00000000000E+00 0. -1.
<scales pt_clust_4="550.00000" pt_clust_5="550.00000" pt_clust_6="38.22124"></scales>
<mgrwt>
<rscale>  0 0.30000000E+03</rscale>
<asrwt>  1 0.38221239E+02</asrwt>
<pdfrwt beam="1">  1        1 0.82924242E+00 0.30000000E+03</pdfrwt>
<pdfrwt beam="2">0</pdfrwt>
<totfact> 0.58996735E-04</totfact>
</mgrwt>
<clustering>
<clus scale="   38.221">  1  6  2 -1</clus>
<clus scale="  460.633">  4  5 -1 -1</clus>
<clus scale="  300.000">  1  4  2 -1</clus>
</clustering>
</event>
<event>
 6    1  0.1029244E-011  0.3000000E+03  0.7818608E-02  0.1093470E+00
          1   -1    0    0  502    0  0.00000000000E+00  0.00000000000E+00  0.24718032575E+03  0.24718032575E+03  0.00000000000E+00 0.  1.
         13   -1    0    0    0    0 -0.00000000000E+00 -0.00000000000E+00 -0.27500000000E+03  0.27500000000E+03  0.00000000000E+00 0.  1.
    9000005    2    1    2  501    0  0.36930493114E+02 -0.12005380727E+02 -0.47225648505E+02  0.47876854941E+03  0.47484847219E+03 0.  0.
         13    1    3    3    0    0 -0.53704396999E+02  0.13700881468E+03  0.15364141994E+03  0.21274694705E+03  0.00000000000E+00 0.  1.
          1    1    3    3  501    0  0.90634890113E+02 -0.14901419540E+03 -0.20086706845E+03  0.26602160236E+03  0.00000000000E+00 0.  1.
         21    1    1    2  502  501 -0.36930493114E+02  0.12005380727E+02  0.19405974257E+02  0.43411776339E+02  0.00000000000E+00 0. -1.
<scales pt_clust_4="550.00000" pt_clust_5="550.00000" pt_clust_6="38.83285"></scales>
<mgrwt>
<rscale>  0 0.30000000E+03</rscale>
<asrwt>  1 0.38832853E+02</asrwt>
<pdfrwt beam="1">  1        1 0.89883755E+00 0.30000000E+03</pdfrwt>
<pdfrwt beam="2">0</pdfrwt>
<totfact> 0.11192224E-04</totfact>
</mgrwt>
<clustering>
<clus scale="   38.833">  1  6  2 -1</clus>
<clus scale="  474.848">  4  5 -1 -1</clus>
<clus scale="  300.000">  1  4  2 -1</clus>
</clustering>
</event>
<event>
 6    1  0.1029244E-011  0.3000000E+03  0.7818608E-02  0.1093470E+00
          1   -1    0    0  502    0  0.00000000000E+00  0.00000000000E+00  0.23096688370E+03  0.23096688370E+03  0.00000000000E+00 0.  1.
         13   -1    0    0    0    0 -0.00000000000E+00 -0.00000000000E+00 -0.27500000000E+03  0.27500000000E+03  0.00000000000E+00 0.  1.
    9000005    2    1    2  501    0 -0.30076989811E+02  0.26011794247E+02 -0.51521662562E+02  0.46550310878E+03  0.46093104019E+03 0.  0.
         13    1    3    3    0    0  0.19615040994E+03 -0.55516178610E+01  0.68033595740E+02  0.20768816512E+03  0.00000000000E+00 0.  1.
          3    1    3    3  501    0 -0.22622739976E+03  0.31563412108E+02 -0.11955525830E+03  0.25781494365E+03  0.00000000000E+00 0.  1.
         21    1    1    2  502  501  0.30076989811E+02 -0.26011794247E+02  0.74885462629E+01  0.40463774925E+02  0.00000000000E+00 0.  1.
<scales pt_clust_4="550.00000" pt_clust_5="550.00000" pt_clust_6="39.76479"></scales>
<mgrwt>
<rscale>  0 0.30000000E+03</rscale>
<asrwt>  1 0.39764793E+02</asrwt>
<pdfrwt beam="1">  1        1 0.83987958E+00 0.30000000E+03</pdfrwt>
<pdfrwt beam="2">0</pdfrwt>
<totfact> 0.48648439E-04</totfact>
</mgrwt>
<clustering>
<clus scale="   39.765">  1  6  2 -1</clus>
<clus scale="  460.931">  4  5 -1 -1</clus>
<clus scale="  300.000">  1  4  2 -1</clus>
</clustering>
</event>
<event>
 6    1  0.1029244E-011  0.3000000E+03  0.7818608E-02  0.1093470E+00
          1   -1    0    0  502    0  0.00000000000E+00  0.00000000000E+00  0.23947433230E+03  0.23947433230E+03  0.00000000000E+00 0.  1.
         13   -1    0    0    0    0 -0.00000000000E+00 -0.00000000000E+00 -0.27500000000E+03  0.27500000000E+03  0.00000000000E+00 0.  1.
    9000005    2    1    2  501    0  0.30496897770E+02 -0.74509834557E+01 -0.41567073722E+02  0.48250440089E+03  0.47968437261E+03 0.  0.
         13    1    3    3    0    0  0.20525163526E+03 -0.13226341677E+03  0.49671160204E+02  0.24917678333E+03  0.00000000000E+00 0.  1.
          1    1    3    3  501    0 -0.17475473749E+03  0.12481243332E+03 -0.91238233926E+02  0.23332761756E+03  0.00000000000E+00 0.  1.
         21    1    1    2  502  501 -0.30496897770E+02  0.74509834557E+01  0.60414060237E+01  0.31969931416E+02  0.00000000000E+00 0. -1.
<scales pt_clust_4="550.00000" pt_clust_5="550.00000" pt_clust_6="31.39392"></scales>
<mgrwt>
<rscale>  0 0.30000000E+03</rscale>
<asrwt>  1 0.31393915E+02</asrwt>
<pdfrwt beam="1">  1        1 0.87081575E+00 0.30000000E+03</pdfrwt>
<pdfrwt beam="2">0</pdfrwt>
<totfact> 0.25359524E-04</totfact>
</mgrwt>
<clustering>
<clus scale="   31.394">  1  6  2 -1</clus>
<clus scale="  479.684">  4  5 -1 -1</clus>
<clus scale="  300.000">  1  4  2 -1</clus>
</clustering>
</event>
<event>
 6    1  0.1029244E-011  0.3000000E+03  0.7818608E-02  0.1093470E+00
          1   -1    0    0  502    0  0.00000000000E+00  0.00000000000E+00  0.22794044558E+03  0.22794044558E+03  0.00000000000E+00 0.  1.
         13   -1    0    0    0    0 -0.00000000000E+00 -0.00000000000E+00 -0.27500000000E+03  0.27500000000E+03  0.00000000000E+00 0.  1.
    9000005    2    1    2  501    0  0.21002965049E+02  0.25673279916E+02 -0.47236300210E+02  0.46977008107E+03  0.46621070255E+03 0.  0.
         13    1    3    3    0    0  0.16403021302E+03  0.12455364026E+03  0.11161032275E+03  0.23425709003E+03  0.00000000000E+00 0.  1.
          3    1    3    3  501    0 -0.14302724797E+03 -0.98880360345E+02 -0.15884662296E+03  0.23551299104E+03  0.00000000000E+00 0.  1.
         21    1    1    2  502  501 -0.21002965049E+02 -0.25673279916E+02  0.17674578896E+00  0.33170364507E+02  0.00000000000E+00 0.  1.
<scales pt_clust_4="550.00000" pt_clust_5="550.00000" pt_clust_6="33.16989"></scales>
<mgrwt>
<rscale>  0 0.30000000E+03</rscale>
<asrwt>  1 0.33169894E+02</asrwt>
<pdfrwt beam="1">  1        1 0.82887435E+00 0.30000000E+03</pdfrwt>
<pdfrwt beam="2">0</pdfrwt>
<totfact> 0.61013637E-04</totfact>
</mgrwt>
<clustering>
<clus scale="   33.170">  1  6  2 -1</clus>
<clus scale="  466.211">  4  5 -1 -1</clus>
<clus scale="  300.000">  1  4  2 -1</clus>
</clustering>
</event>
<event>
 6    1  0.1029244E-011  0.3000000E+03  0.7818608E-02  0.1093470E+00
          1   -1    0    0  502    0  0.00000000000E+00  0.00000000000E+00  0.23657239865E+03  0.23657239865E+03  0.00000000000E+00 0.  1.
         13   -1    0    0    0    0 -0.00000000000E+00 -0.00000000000E+00 -0.27500000000E+03  0.27500000000E+03  0.00000000000E+00 0.  1.
    9000005    2    1    2  501    0 -0.34362326938E+02  0.46874183465E+01 -0.27835514907E+02  0.47531038411E+03  0.47322553180E+03 0.  0.
         13    1    3    3    0    0  0.18090753078E+03 -0.11970123103E+03 -0.58837133101E+02  0.22476149055E+03  0.00000000000E+00 0.  1.
          3    1    3    3  501    0 -0.21526985772E+03  0.12438864938E+03  0.31001618195E+02  0.25054889356E+03  0.00000000000E+00 0.  1.
         21    1    1    2  502  501  0.34362326938E+02 -0.46874183465E+01 -0.10592086441E+02  0.36262014540E+02  0.00000000000E+00 0.  1.
<scales pt_clust_4="550.00000" pt_clust_5="550.00000" pt_clust_6="34.68058"></scales>
<mgrwt>
<rscale>  0 0.30000000E+03</rscale>
<asrwt>  1 0.34680580E+02</asrwt>
<pdfrwt beam="1">  1        1 0.86026327E+00 0.30000000E+03</pdfrwt>
<pdfrwt beam="2">0</pdfrwt>
<totfact> 0.32192828E-04</totfact>
</mgrwt>
<clustering>
<clus scale="   34.681">  1  6  2 -1</clus>
<clus scale="  473.226">  4  5 -1 -1</clus>
<clus scale="  300.000">  1  4  2 -1</clus>
</clustering>
</event>
<event>
 6    1  0.1029244E-011  0.3000000E+03  0.7818608E-02  0.1093470E+00
          1   -1    0    0  502    0  0.00000000000E+00  0.00000000000E+00  0.22460658417E+03  0.22460658417E+03  0.00000000000E+00 0.  1.
         13   -1    0    0    0    0 -0.00000000000E+00 -0.00000000000E+00 -0.27500000000E+03  0.27500000000E+03  0.00000000000E+00 0.  1.
    9000005    2    1    2  501    0  0.13104919774E+02 -0.34539496492E+02 -0.50586586786E+02  0.46266401989E+03  0.45840405408E+03 0.  0.
         13    1    3    3    0    0 -0.42076605877E+02  0.15792117261E+03 -0.16485535768E+03  0.23213536240E+03  0.00000000000E+00 0.  1.
          1    1    3    3  501    0  0.55181525651E+02 -0.19246066911E+03  0.11426877089E+03  0.23052865749E+03  0.00000000000E+00 0.  1.
         21    1    1    2  502  501 -0.13104919774E+02  0.34539496492E+02  0.19317095434E+00  0.36942564275E+02  0.00000000000E+00 0.  1.
<scales pt_clust_4="550.00000" pt_clust_5="550.00000" pt_clust_6="36.94206"></scales>
<mgrwt>
<rscale>  0 0.30000000E+03</rscale>
<asrwt>  1 0.36942059E+02</asrwt>
<pdfrwt beam="1">  1        1 0.81675122E+00 0.30000000E+03</pdfrwt>
<pdfrwt beam="2">0</pdfrwt>
<totfact> 0.76261481E-04</totfact>
</mgrwt>
<clustering>
<clus scale="   36.942">  1  6  2 -1</clus>
<clus scale="  458.404">  4  5 -1 -1</clus>
<clus scale="  300.000">  1  4  2 -1</clus>
</clustering>
</event>
<event>
 6    1  0.1029244E-011  0.3000000E+03  0.7818608E-02  0.1093470E+00
          1   -1    0    0  502    0  0.00000000000E+00  0.00000000000E+00  0.23661562082E+03  0.23661562082E+03  0.00000000000E+00 0.  1.
         13   -1    0    0    0    0 -0.00000000000E+00 -0.00000000000E+00 -0.27500000000E+03  0.27500000000E+03  0.00000000000E+00 0.  1.
    9000005    2    1    2  501    0  0.24880362955E+02 -0.36007685081E+02 -0.49346436348E+02  0.46649630630E+03  0.46180964386E+03 0.  0.
         13    1    3    3    0    0  0.18774421278E+03  0.71647976093E+02  0.96387717082E+02  0.22287196754E+03  0.00000000000E+00 0.  1.
          3    1    3    3  501    0 -0.16286384982E+03 -0.10765566117E+03 -0.14573415343E+03  0.24362433876E+03  0.00000000000E+00 0.  1.
         21    1    1    2  502  501 -0.24880362955E+02  0.36007685081E+02  0.10962057168E+02  0.45119314523E+02  0.00000000000E+00 0.  1.
<scales pt_clust_4="550.00000" pt_clust_5="550.00000" pt_clust_6="43.76741"></scales>
<mgrwt>
<rscale>  0 0.30000000E+03</rscale>
<asrwt>  1 0.43767406E+02</asrwt>
<pdfrwt beam="1">  1        1 0.86042044E+00 0.30000000E+03</pdfrwt>
<pdfrwt beam="2">0</pdfrwt>
<totfact> 0.30728630E-04</totfact>
</mgrwt>
<clustering>
<clus scale="   43.767">  1  6  2 -1</clus>
<clus scale="  461.810">  4  5 -1 -1</clus>
<clus scale="  300.000">  1  4  2 -1</clus>
</clustering>
</event>
<event>
 6    1  0.1029244E-011  0.3000000E+03  0.7818608E-02  0.1093470E+00
          1   -1    0    0  502    0  0.00000000000E+00  0.00000000000E+00  0.23606309130E+03  0.23606309130E+03  0.00000000000E+00 0.  1.
         13   -1    0    0    0    0 -0.00000000000E+00 -0.00000000000E+00 -0.27500000000E+03  0.27500000000E+03  0.00000000000E+00 0.  1.
    9000005    2    1    2  501    0 -0.74527899833E+01 -0.33880215226E+02 -0.62901842194E+02  0.46889994270E+03  0.46336497651E+03 0.  0.
         13    1    3    3    0    0 -0.20755280468E+03 -0.12636878783E+03 -0.49963206721E+02  0.24807974382E+03  0.00000000000E+00 0.  1.
          3    1    3    3  501    0  0.20010001470E+03  0.92488572609E+02 -0.12938635473E+02  0.22082019888E+03  0.00000000000E+00 0.  1.
         21    1    1    2  502  501  0.74527899833E+01  0.33880215226E+02  0.23964933498E+02  0.42163148600E+02  0.00000000000E+00 0.  1.
<scales pt_clust_4="550.00000" pt_clust_5="550.00000" pt_clust_6="34.69024"></scales>
<mgrwt>
<rscale>  0 0.30000000E+03</rscale>
<asrwt>  1 0.34690244E+02</asrwt>
<pdfrwt beam="1">  1        1 0.85841124E+00 0.30000000E+03</pdfrwt>
<pdfrwt beam="2">0</pdfrwt>
<totfact> 0.33679255E-04</totfact>
</mgrwt>
<clustering>
<clus scale="   34.690">  1  6  2 -1</clus>
<clus scale="  463.365">  4  5 -1 -1</clus>
<clus scale="  300.000">  1  4  2 -1</clus>
</clustering>
</event>
<event>
 6    1  0.1029244E-011  0.3000000E+03  0.7818608E-02  0.1093470E+00
          1   -1    0    0  502    0  0.00000000000E+00  0.00000000000E+00  0.23663051375E+03  0.23663051375E+03  0.00000000000E+00 0.  1.
         13   -1    0    0    0    0 -0.00000000000E+00 -0.00000000000E+00 -0.27500000000E+03  0.27500000000E+03  0.00000000000E+00 0.  1.
    9000005    2    1    2  501    0 -0.20473418774E+02 -0.27706111383E+02 -0.68949258848E+02  0.46556629796E+03  0.45914179511E+03 0.  0.
         13    1    3    3    0    0 -0.18973313416E+03  0.93023667087E+02  0.61557700786E+02  0.22009410570E+03  0.00000000000E+00 0.  1.
          1    1    3    3  501    0  0.16925971538E+03 -0.12072977847E+03 -0.13050695963E+03  0.24547219226E+03  0.00000000000E+00 0.  1.
         21    1    1    2  502  501  0.20473418774E+02  0.27706111383E+02  0.30579772600E+02  0.46064215792E+02  0.00000000000E+00 0.  1.
<scales pt_clust_4="550.00000" pt_clust_5="550.00000" pt_clust_6="34.44981"></scales>
<mgrwt>
<rscale>  0 0.30000000E+03</rscale>
<asrwt>  1 0.34449811E+02</asrwt>
<pdfrwt beam="1">  1        1 0.86047460E+00 0.30000000E+03</pdfrwt>
<pdfrwt beam="2">0</pdfrwt>
<totfact> 0.32065725E-04</totfact>
</mgrwt>
<clustering>
<clus scale="   34.450">  1  6  2 -1</clus>
<clus scale="  459.142">  4  5 -1 -1</clus>
<clus scale="  300.000">  1  4  2 -1</clus>
</clustering>
</event>
<event>
 6    1  0.1029244E-011  0.3000000E+03  0.7818608E-02  0.1093470E+00
          1   -1    0    0  502    0  0.00000000000E+00  0.00000000000E+00  0.24273133794E+03  0.24273133794E+03  0.00000000000E+00 0.  1.
         13   -1    0    0    0    0 -0.00000000000E+00 -0.00000000000E+00 -0.27500000000E+03  0.27500000000E+03  0.00000000000E+00 0.  1.
    9000005    2    1    2  501    0 -0.18318927891E+02  0.27097672938E+02 -0.39525606543E+02  0.48422715550E+03  0.48150160701E+03 0.  0.
         13    1    3    3    0    0 -0.15278178679E+03 -0.50631843466E+02 -0.20278198047E+03  0.25889455296E+03  0.00000000000E+00 0.  1.
          1    1    3    3  501    0  0.13446285889E+03  0.77729516405E+02  0.16325637393E+03  0.22533260255E+03  0.00000000000E+00 0.  1.
         21    1    1    2  502  501  0.18318927891E+02 -0.27097672938E+02  0.72569444879E+01  0.33504182441E+02  0.00000000000E+00 0. -1.
<scales pt_clust_4="550.00000" pt_clust_5="550.00000" pt_clust_6="32.70882"></scales>
<mgrwt>
<rscale>  0 0.30000000E+03</rscale>
<asrwt>  1 0.32708821E+02</asrwt>
<pdfrwt beam="1">  1        1 0.88265941E+00 0.30000000E+03</pdfrwt>
<pdfrwt beam="2">0</pdfrwt>
<totfact> 0.18484182E-04</totfact>
</mgrwt>
<clustering>
<clus scale="   32.709">  1  6  2 -1</clus>
<clus scale="  481.502">  4  5 -1 -1</clus>
<clus scale="  300.000">  1  4  2 -1</clus>
</clustering>
</event>
<event>
 6    1  0.1029244E-011  0.3000000E+03  0.7818608E-02  0.1093470E+00
          1   -1    0    0  502    0  0.00000000000E+00  0.00000000000E+00  0.22398594288E+03  0.22398594288E+03  0.00000000000E+00 0.  1.
         13   -1    0    0    0    0 -0.00000000000E+00 -0.00000000000E+00 -0.27500000000E+03  0.27500000000E+03  0.00000000000E+00 0.  1.
    9000005    2    1    2  501    0  0.18044918931E+02  0.26244198280E+02 -0.65514848125E+02  0.46399094349E+03  0.45823686372E+03 0.  0.
         13    1    3    3    0    0 -0.19985520466E+03  0.10051446073E+03  0.32459809591E+01  0.22373152669E+03  0.00000000000E+00 0.  1.
          1    1    3    3  501    0  0.21790012359E+03 -0.74270262447E+02 -0.68760829084E+02  0.24025941680E+03  0.00000000000E+00 0.  1.
         21    1    1    2  502  501 -0.18044918931E+02 -0.26244198280E+02  0.14500791005E+02  0.34994999391E+02  0.00000000000E+00 0. -1.
<scales pt_clust_4="550.00000" pt_clust_5="550.00000" pt_clust_6="31.84929"></scales>
<mgrwt>
<rscale>  0 0.30000000E+03</rscale>
<asrwt>  1 0.31849286E+02</asrwt>
<pdfrwt beam="1">  1        1 0.81449434E+00 0.30000000E+03</pdfrwt>
<pdfrwt beam="2">0</pdfrwt>
<totfact> 0.81798279E-04</totfact>
</mgrwt>
<clustering>
<clus scale="   31.849">  1  6  2 -1</clus>
<clus scale="  458.237">  4  5 -1 -1</clus>
<clus scale="  300.000">  1  4  2 -1</clus>
</clustering>
</event>
<event>
 6    1  0.1029244E-011  0.3000000E+03  0.7818608E-02  0.1093470E+00
          1   -1    0    0  502    0  0.00000000000E+00  0.00000000000E+00  0.24878403263E+03  0.24878403263E+03  0.00000000000E+00 0.  1.
         13   -1    0    0    0    0 -0.00000000000E+00 -0.00000000000E+00 -0.27500000000E+03  0.27500000000E+03  0.00000000000E+00 0.  1.
    9000005    2    1    2  501    0  0.17367460102E+02 -0.44449674391E+02 -0.36477245649E+02  0.47497116490E+03  0.47115773984E+03 0.  0.
         13    1    3    3    0    0  0.64782826539E+02 -0.98840918120E+02  0.19747931565E+03  0.23014000482E+03  0.00000000000E+00 0.  1.
          3    1    3    3  501    0 -0.47415366437E+02  0.54391243728E+02 -0.23395656130E+03  0.24483116008E+03  0.00000000000E+00 0.  1.
         21    1    1    2  502  501 -0.17367460102E+02  0.44449674391E+02  0.10261278275E+02  0.48812867727E+02  0.00000000000E+00 0.  1.
<scales pt_clust_4="550.00000" pt_clust_5="550.00000" pt_clust_6="47.72214"></scales>
<mgrwt>
<rscale>  0 0.30000000E+03</rscale>
<asrwt>  1 0.47722136E+02</asrwt>
<pdfrwt beam="1">  1        1 0.90466921E+00 0.30000000E+03</pdfrwt>
<pdfrwt beam="2">0</pdfrwt>
<totfact> 0.88648339E-05</totfact>
</mgrwt>
<clustering>
<clus scale="   47.722">  1  6  2 -1</clus>
<clus scale="  471.158">  4  5 -1 -1</clus>
<clus scale="  300.000">  1  4  2 -1</clus>
</clustering>
</event>
<event>
 6    1  0.1029244E-011  0.3000000E+03  0.7818608E-02  0.1093470E+00
          1   -1    0    0  502    0  0.00000000000E+00  0.00000000000E+00  0.22950854512E+03  0.22950854512E+03  0.00000000000E+00 0.  1.
         13   -1    0    0    0    0 -0.00000000000E+00 -0.00000000000E+00 -0.27500000000E+03  0.27500000000E+03  0.00000000000E+00 0.  1.
    9000005    2    1    2  501    0 -0.19256756603E+02  0.27034183090E+02 -0.53817692177E+02  0.47028872692E+03  0.46601874742E+03 0.  0.
         13    1    3    3    0    0  0.17938882288E+03 -0.44609648935E+02  0.98934211490E+02  0.20966246387E+03  0.00000000000E+00 0.  1.
          3    1    3    3  501    0 -0.19864557948E+03  0.71643832025E+02 -0.15275190367E+03  0.26062626305E+03  0.00000000000E+00 0.  1.
         21    1    1    2  502  501  0.19256756603E+02 -0.27034183090E+02  0.83262372945E+01  0.34219818200E+02  0.00000000000E+00 0. -1.
<scales pt_clust_4="550.00000" pt_clust_5="550.00000" pt_clust_6="33.19141"></scales>
<mgrwt>
<rscale>  0 0.30000000E+03</rscale>
<asrwt>  1 0.33191410E+02</asrwt>
<pdfrwt beam="1">  1        1 0.83457653E+00 0.30000000E+03</pdfrwt>
<pdfrwt beam="2">0</pdfrwt>
<totfact> 0.55032371E-04</totfact>
</mgrwt>
<clustering>
<clus scale="   33.191">  1  6  2 -1</clus>
<clus scale="  466.019">  4  5 -1 -1</clus>
<clus scale="  300.000">  1  4  2 -1</clus>
</clustering>
</event>
<event>
 6    1  0.1029244E-011  0.3000000E+03  0.7818608E-02  0.1093470E+00
          1   -1    0    0  502    0  0.00000000000E+00  0.00000000000E+00  0.24024051127E+03  0.24024051127E+03  0.00000000000E+00 0.  1.
         13   -1    0    0    0    0 -0.00000000000E+00 -0.00000000000E+00 -0.27500000000E+03  0.27500000000E+03  0.00000000000E+00 0.  1.
    9000005    2    1    2  501    0 -0.42151221591E+01 -0.30632076142E+02 -0.44304847489E+02  0.48287996094E+03  0.47984794031E+03 0.  0.
         13    1    3    3    0    0  0.63999409400E+02  0.19607411618E+02 -0.25085453083E+03  0.25963122045E+03  0.00000000000E+00 0.  1.
          3    1    3    3  501    0 -0.68214531560E+02 -0.50239487760E+02  0.20654968334E+03  0.22324874050E+03  0.00000000000E+00 0.  1.
         21    1    1    2  502  501  0.42151221591E+01  0.30632076142E+02  0.95453587548E+01  0.32360550325E+02  0.00000000000E+00 0.  1.
<scales pt_clust_4="550.00000" pt_clust_5="550.00000" pt_clust_6="30.92073"></scales>
<mgrwt>
<rscale>  0 0.30000000E+03</rscale>
<asrwt>  1 0.30920727E+02</asrwt>
<pdfrwt beam="1">  1        1 0.87360186E+00 0.30000000E+03</pdfrwt>
<pdfrwt beam="2">0</pdfrwt>
<totfact> 0.23814816E-04</totfact>
</mgrwt>
<clustering>
<clus scale="   30.921">  1  6  2 -1</clus>
<clus scale="  479.848">  4  5 -1 -1</clus>
<clus scale="  300.000">  1  4  2 -1</clus>
</clustering>
</event>
<event>
 6    1  0.1029244E-011  0.3000000E+03  0.7818608E-02  0.1093470E+00
          1   -1    0    0  502    0  0.00000000000E+00  0.00000000000E+00  0.24797924882E+03  0.24797924882E+03  0.00000000000E+00 0.  1.
         13   -1    0    0    0    0 -0.00000000000E+00 -0.00000000000E+00 -0.27500000000E+03  0.27500000000E+03  0.00000000000E+00 0.  1.
    9000005    2    1    2  501    0 -0.21325443321E+02 -0.38358454356E+02 -0.31881971797E+02  0.47882296932E+03  0.47574029708E+03 0.  0.
         13    1    3    3    0    0  0.33121366155E+02  0.37769105608E+02  0.21185731474E+03  0.21773160552E+03  0.00000000000E+00 0.  1.
          1    1    3    3  501    0 -0.54446809476E+02 -0.76127559964E+02 -0.24373928654E+03  0.26109136380E+03  0.00000000000E+00 0.  1.
         21    1    1    2  502  501  0.21325443321E+02  0.38358454356E+02  0.48612206150E+01  0.44156279500E+02  0.00000000000E+00 0.  1.
<scales pt_clust_4="550.00000" pt_clust_5="550.00000" pt_clust_6="43.88787"></scales>
<mgrwt>
<rscale>  0 0.30000000E+03</rscale>
<asrwt>  1 0.43887875E+02</asrwt>
<pdfrwt beam="1">  1        1 0.90174272E+00 0.30000000E+03</pdfrwt>
<pdfrwt beam="2">0</pdfrwt>
<totfact> 0.10043530E-04</totfact>
</mgrwt>
<clustering>
<clus scale="   43.888">  1  6  2 -1</clus>
<clus scale="  475.740">  4  5 -1 -1</clus>
<clus scale="  300.000">  1  4  2 -1</clus>
</clustering>
</event>
<event>
 6    1  0.1029244E-011  0.3000000E+03  0.7818608E-02  0.1093470E+00
          1   -1    0    0  502    0  0.00000000000E+00  0.00000000000E+00  0.22264137073E+03  0.22264137073E+03  0.00000000000E+00 0.  1.
         13   -1    0    0    0    0 -0.00000000000E+00 -0.00000000000E+00 -0.27500000000E+03  0.27500000000E+03  0.00000000000E+00 0.  1.
    9000005    2    1    2  501    0 -0.21161861507E+02 -0.22523579173E+02 -0.41739445673E+02  0.46496258463E+03  0.46205290582E+03 0.  0.
         13    1    3    3    0    0  0.12446092935E+03 -0.75739673125E+02  0.15615361280E+03  0.21356725360E+03  0.00000000000E+00 0.  1.
          1    1    3    3  501    0 -0.14562279086E+03  0.53216093952E+02 -0.19789305847E+03  0.25139533103E+03  0.00000000000E+00 0.  1.
         21    1    1    2  502  501  0.21161861507E+02  0.22523579173E+02 -0.10619183594E+02  0.32678786106E+02  0.00000000000E+00 0. -1.
<scales pt_clust_4="550.00000" pt_clust_5="550.00000" pt_clust_6="30.90529"></scales>
<mgrwt>
<rscale>  0 0.30000000E+03</rscale>
<asrwt>  1 0.30905290E+02</asrwt>
<pdfrwt beam="1">  1        1 0.80960498E+00 0.30000000E+03</pdfrwt>
<pdfrwt beam="2">0</pdfrwt>
<totfact> 0.89927114E-04</totfact>
</mgrwt>
<clustering>
<clus scale="   30.905">  1  6  2 -1</clus>
<clus scale="  462.053">  4  5 -1 -1</clus>
<clus scale="  300.000">  1  4  2 -1</clus>
</clustering>
</event>
<event>
 6    1  0.1029244E-011  0.3000000E+03  0.7818608E-02  0.1093470E+00
          1   -1    0    0  502    0  0.00000000000E+00  0.00000000000E+00  0.25139996027E+03  0.25139996027E+03  0.00000000000E+00 0.  1.
         13   -1    0    0    0    0 -0.00000000000E+00 -0.00000000000E+00 -0.27500000000E+03  0.27500000000E+03  0.00000000000E+00 0.  1.
    9000005    2    1    2  501    0 -0.29837031814E+02  0.86889922962E+01 -0.49786832688E+02  0.48576136802E+03  0.48220289391E+03 0.  0.
         13    1    3    3    0    0  0.10596368513E+03 -0.57562914257E+02 -0.22446045308E+03  0.25480244634E+03  0.00000000000E+00 0.  1.
          3    1    3    3  501    0 -0.13580071694E+03  0.66251906554E+02  0.17467362039E+03  0.23095892168E+03  0.00000000000E+00 0.  1.
         21    1    1    2  502  501  0.29837031814E+02 -0.86889922962E+01  0.26186792957E+02  0.40638592249E+02  0.00000000000E+00 0.  1.
<scales pt_clust_4="550.00000" pt_clust_5="550.00000" pt_clust_6="31.07647"></scales>
<mgrwt>
<rscale>  0 0.30000000E+03</rscale>
<asrwt>  1 0.31076471E+02</asrwt>
<pdfrwt beam="1">  1        1 0.91418167E+00 0.30000000E+03</pdfrwt>
<pdfrwt beam="2">0</pdfrwt>
<totfact> 0.57898849E-05</totfact>
</mgrwt>
<clustering>
<clus scale="   31.076">  1  6  2 -1</clus>
<clus scale="  482.203">  4  5 -1 -1</clus>
<clus scale="  300.000">  1  4  2 -1</clus>
</clustering>
</event>
<event>
 6    1  0.1029244E-011  0.3000000E+03  0.7818608E-02  0.1093470E+00
          1   -1    0    0  502    0  0.00000000000E+00  0.00000000000E+00  0.23111042878E+03  0.23111042878E+03  0.00000000000E+00 0.  1.
         13   -1    0    0    0    0 -0.00000000000E+00 -0.00000000000E+00 -0.27500000000E+03  0.27500000000E+03  0.00000000000E+00 0.  1.
    9000005    2    1    2  501    0 -0.39443266898E+02  0.19024380737E+02 -0.47730362296E+02  0.46215078772E+03  0.45758875067E+03 0.  0.
         13    1    3    3    0    0 -0.60388660780E+01  0.10693379753E+03  0.18353248352E+03  0.21249818226E+03  0.00000000000E+00 0.  1.
          3    1    3    3  501    0 -0.33404400820E+02 -0.87909416794E+02 -0.23126284582E+03  0.24965260545E+03  0.00000000000E+00 0.  1.
         21    1    1    2  502  501  0.39443266898E+02 -0.19024380737E+02  0.38407910739E+01  0.43959641060E+02  0.00000000000E+00 0. -1.
<scales pt_clust_4="550.00000" pt_clust_5="550.00000" pt_clust_6="43.79153"></scales>
<mgrwt>
<rscale>  0 0.30000000E+03</rscale>
<asrwt>  1 0.43791533E+02</asrwt>
<pdfrwt beam="1">  1        1 0.84040156E+00 0.30000000E+03</pdfrwt>
<pdfrwt beam="2">0</pdfrwt>
<totfact> 0.47365421E-04</totfact>
</mgrwt>
<clustering>
<clus scale="   43.792">  1  6  2 -1</clus>
<clus scale="  457.589">  4  5 -1 -1</clus>
<clus scale="  300.000">  1  4  2 -1</clus>
</clustering>
</event>
<event>
 6    1  0.1029244E-011  0.3000000E+03  0.7818608E-02  0.1093470E+00
          1   -1    0    0  502    0  0.00000000000E+00  0.00000000000E+00  0.23782375415E+03  0.23782375415E+03  0.00000000000E+00 0.  1.
         13   -1    0    0    0    0 -0.00000000000E+00 -0.00000000000E+00 -0.27500000000E+03  0.27500000000E+03  0.00000000000E+00 0.  1.
    9000005    2    1    2  501    0  0.21954376400E+01 -0.30435015255E+02 -0.71239949526E+02  0.46709142414E+03  0.46061714905E+03 0.  0.
         13    1    3    3    0    0 -0.11307542134E+02 -0.11687695307E+03 -0.24548040241E+03  0.27211892737E+03  0.00000000000E+00 0.  1.
          1    1    3    3  501    0  0.13502979774E+02  0.86441937819E+02  0.17424045288E+03  0.19497249677E+03  0.00000000000E+00 0.  1.
         21    1    1    2  502  501 -0.21954376400E+01  0.30435015255E+02  0.34063703678E+02  0.45732330011E+02  0.00000000000E+00 0.  1.
<scales pt_clust_4="550.00000" pt_clust_5="550.00000" pt_clust_6="30.51410"></scales>
<mgrwt>
<rscale>  0 0.30000000E+03</rscale>
<asrwt>  1 0.30514097E+02</asrwt>
<pdfrwt beam="1">  1        1 0.86481365E+00 0.30000000E+03</pdfrwt>
<pdfrwt beam="2">0</pdfrwt>
<totfact> 0.29458099E-04</totfact>
</mgrwt>
<clustering>
<clus scale="   30.514">  1  6  2 -1</clus>
<clus scale="  460.617">  4  5 -1 -1</clus>
<clus scale="  300.000">  1  4  2 -1</clus>
</clustering>
</event>
<event>
 6    1  0.1029244E-011  0.3000000E+03  0.7818608E-02  0.1093470E+00
          1   -1    0    0  502    0  0.00000000000E+00  0.00000000000E+00  0.22451515460E+03  0.22451515460E+03  0.00000000000E+00 0.  1.
         13   -1    0    0    0    0 -0.00000000000E+00 -0.00000000000E+00 -0.27500000000E+03  0.27500000000E+03  0.00000000000E+00 0.  1.
    9000005    2    1    2  501    0  0.36821341781E+02 -0.89157619810E+01 -0.41437047488E+02  0.46056435654E+03  0.45712929855E+03 0.  0.
         13    1    3    3    0    0  0.49909682969E+02 -0.18913390795E+03  0.11034194273E+03  0.22458396184E+03  0.00000000000E+00 0.  1.
          3    1    3    3  501    0 -0.13088341188E+02  0.18021814597E+03 -0.15177899022E+03  0.23598039470E+03  0.00000000000E+00 0.  1.
         21    1    1    2  502  501 -0.36821341781E+02  0.89157619810E+01 -0.90477979122E+01  0.38950798058E+02  0.00000000000E+00 0. -1.
<scales pt_clust_4="550.00000" pt_clust_5="550.00000" pt_clust_6="37.88540"></scales>
<mgrwt>
<rscale>  0 0.30000000E+03</rscale>
<asrwt>  1 0.37885399E+02</asrwt>
<pdfrwt beam="1">  1        1 0.81641874E+00 0.30000000E+03</pdfrwt>
<pdfrwt beam="2">0</pdfrwt>
<totfact> 0.76384910E-04</totfact>
</mgrwt>
<clustering>
<clus scale="   37.885">  1  6  2 -1</clus>
<clus scale="  457.129">  4  5 -1 -1</clus>
<clus scale="  300.000">  1  4  2 -1</clus>
</clustering>
</event>
<event>
 6    1  0.1029244E-011  0.3000000E+03  0.7818608E-02  0.1093470E+00
          1   -1    0    0  502    0  0.00000000000E+00  0.00000000000E+00  0.23703659440E+03  0.23703659440E+03  0.00000000000E+00 0.  1.
         13   -1    0    0    0    0 -0.00000000000E+00 -0.00000000000E+00 -0.27500000000E+03  0.27500000000E+03  0.00000000000E+00 0.  1.
    9000005    2    1    2  501    0 -0.18426663659E+02 -0.28856568505E+02 -0.46802463945E+02  0.47667598875E+03  0.47313558748E+03 0.  0.
         13    1    3    3    0    0 -0.11359555049E+03 -0.20760740826E+03 -0.11483949873E+03  0.26304542483E+03  0.00000000000E+00 0.  1.
          1    1    3    3  501    0  0.95168886835E+02  0.17875083976E+03  0.68037034783E+02  0.21363056391E+03  0.00000000000E+00 0.  1.
         21    1    1    2  502  501  0.18426663659E+02  0.28856568505E+02  0.88390583403E+01  0.35360605648E+02  0.00000000000E+00 0.  1.
<scales pt_clust_4="550.00000" pt_clust_5="550.00000" pt_clust_6="34.23804"></scales>
<mgrwt>
<rscale>  0 0.30000000E+03</rscale>
<asrwt>  1 0.34238041E+02</asrwt>
<pdfrwt beam="1">  1        1 0.86195125E+00 0.30000000E+03</pdfrwt>
<pdfrwt beam="2">0</pdfrwt>
<totfact> 0.30949520E-04</totfact>
</mgrwt>
<clustering>
<clus scale="   34.238">  1  6  2 -1</clus>
<clus scale="  473.136">  4  5 -1 -1</clus>
<clus scale="  300.000">  1  4  2 -1</clus>
</clustering>
</event>
<event>
 6    1  0.1029244E-011  0.3000000E+03  0.7818608E-02  0.1093470E+00
          1   -1    0    0  502    0  0.00000000000E+00  0.00000000000E+00  0.25387424400E+03  0.25387424400E+03  0.00000000000E+00 0.  1.
         13   -1    0    0    0    0 -0.00000000000E+00 -0.00000000000E+00 -0.27500000000E+03  0.27500000000E+03  0.00000000000E+00 0.  1.
    9000005    2    1    2  501    0 -0.30898616954E+02  0.13019465806E+02 -0.28605442045E+02  0.49452054372E+03  0.49255260209E+03 0.  0.
         13    1    3    3    0    0 -0.86782718158E+02 -0.17704224512E+03 -0.16242209876E+03  0.25545280365E+03  0.00000000000E+00 0.  1.
          1    1    3    3  501    0  0.55884101204E+02  0.19006171092E+03  0.13381665672E+03  0.23906774007E+03  0.00000000000E+00 0.  1.
         21    1    1    2  502  501  0.30898616954E+02 -0.13019465806E+02  0.74796860460E+01  0.34353700280E+02  0.00000000000E+00 0.  1.
<scales pt_clust_4="550.00000" pt_clust_5="550.00000" pt_clust_6="33.52955"></scales>
<mgrwt>
<rscale>  0 0.30000000E+03</rscale>
<asrwt>  1 0.33529554E+02</asrwt>
<pdfrwt beam="1">  1        1 0.92317907E+00 0.30000000E+03</pdfrwt>
<pdfrwt beam="2">0</pdfrwt>
<totfact> 0.36063209E-05</totfact>
</mgrwt>
<clustering>
<clus scale="   33.530">  1  6  2 -1</clus>
<clus scale="  492.553">  4  5 -1 -1</clus>
<clus scale="  300.000">  1  4  2 -1</clus>
</clustering>
</event>
<event>
 6    1  0.1029244E-011  0.3000000E+03  0.7818608E-02  0.1093470E+00
          1   -1    0    0  502    0  0.00000000000E+00  0.00000000000E+00  0.23037725571E+03  0.23037725571E+03  0.00000000000E+00 0.  1.
         13   -1    0    0    0    0 -0.00000000000E+00 -0.00000000000E+00 -0.27500000000E+03  0.27500000000E+03  0.00000000000E+00 0.  1.
    9000005    2    1    2  501    0 -0.41122258689E+02 -0.13960250755E+02 -0.45812807269E+02  0.46193367148E+03  0.45760023468E+03 0.  0.
         13    1    3    3    0    0 -0.10393794600E+03  0.52386228950E+01 -0.23750236342E+03  0.25930274279E+03  0.00000000000E+00 0.  1.
          3    1    3    3  501    0  0.62815687311E+02 -0.19198873650E+02  0.19168955616E+03  0.20263092869E+03  0.00000000000E+00 0.  1.
         21    1    1    2  502  501  0.41122258689E+02  0.13960250755E+02  0.11900629809E+01  0.43443584230E+02  0.00000000000E+00 0.  1.
<scales pt_clust_4="550.00000" pt_clust_5="550.00000" pt_clust_6="43.42728"></scales>
<mgrwt>
<rscale>  0 0.30000000E+03</rscale>
<asrwt>  1 0.43427281E+02</asrwt>
<pdfrwt beam="1">  1        1 0.83773548E+00 0.30000000E+03</pdfrwt>
<pdfrwt beam="2">0</pdfrwt>
<totfact> 0.49672841E-04</totfact>
</mgrwt>
<clustering>
<clus scale="   43.427">  1  6  2 -1</clus>
<clus scale="  457.600">  4  5 -1 -1</clus>
<clus scale="  300.000">  1  4  2 -1</clus>
</clustering>
</event>
<event>
 6    1  0.1029244E-011  0.3000000E+03  0.7818608E-02  0.1093470E+00
          1   -1    0    0  502    0  0.00000000000E+00  0.00000000000E+00  0.23956477321E+03  0.23956477321E+03  0.00000000000E+00 0.  1.
         13   -1    0    0    0    0 -0.00000000000E+00 -0.00000000000E+00 -0.27500000000E+03  0.27500000000E+03  0.00000000000E+00 0.  1.
    9000005    2    1    2  501    0  0.28128814207E+02 -0.22292172195E+02 -0.25636511398E+02  0.47736012359E+03  0.47531808902E+03 0.  0.
         13    1    3    3    0    0  0.12065616321E+03  0.20123369046E+03 -0.17932366318E+02  0.23531782266E+03  0.00000000000E+00 0.  1.
          3    1    3    3  501    0 -0.92527349006E+02 -0.22352586266E+03 -0.77041450795E+01  0.24204230094E+03  0.00000000000E+00 0.  1.
         21    1    1    2  502  501 -0.28128814207E+02  0.22292172195E+02 -0.97987153918E+01  0.37204649618E+02  0.00000000000E+00 0. -1.
<scales pt_clust_4="550.00000" pt_clust_5="550.00000" pt_clust_6="35.89112"></scales>
<mgrwt>
<rscale>  0 0.30000000E+03</rscale>
<asrwt>  1 0.35891119E+02</asrwt>
<pdfrwt beam="1">  1        1 0.87114463E+00 0.30000000E+03</pdfrwt>
<pdfrwt beam="2">0</pdfrwt>
<totfact> 0.24537247E-04</totfact>
</mgrwt>
<clustering>
<clus scale="   35.891">  1  6  2 -1</clus>
<clus scale="  475.318">  4  5 -1 -1</clus>
<clus scale="  300.000">  1  4  2 -1</clus>
</clustering>
</event>
<event>
 6    1  0.1029244E-011  0.3000000E+03  0.7818608E-02  0.1093470E+00
          1   -1    0    0  502    0  0.00000000000E+00  0.00000000000E+00  0.23991487921E+03  0.23991487921E+03  0.00000000000E+00 0.  1.
         13   -1    0    0    0    0 -0.00000000000E+00 -0.00000000000E+00 -0.27500000000E+03  0.27500000000E+03  0.00000000000E+00 0.  1.
    9000005    2    1    2  501    0 -0.69235871246E+01 -0.31889089974E+02 -0.61688572386E+02  0.47281269691E+03  0.46763395543E+03 0.  0.
         13    1    3    3    0    0  0.23016238263E+03 -0.81935351424E+01 -0.23489812780E+02  0.23150297558E+03  0.00000000000E+00 0.  1.
          1    1    3    3  501    0 -0.23708596975E+03 -0.23695554831E+02 -0.38198759606E+02  0.24130972133E+03  0.00000000000E+00 0.  1.
         21    1    1    2  502  501  0.69235871246E+01  0.31889089974E+02  0.26603451598E+02  0.42102182306E+02  0.00000000000E+00 0.  1.
<scales pt_clust_4="550.00000" pt_clust_5="550.00000" pt_clust_6="32.63204"></scales>
<mgrwt>
<rscale>  0 0.30000000E+03</rscale>
<asrwt>  1 0.32632041E+02</asrwt>
<pdfrwt beam="1">  1        1 0.87241774E+00 0.30000000E+03</pdfrwt>
<pdfrwt beam="2">0</pdfrwt>
<totfact> 0.24242673E-04</totfact>
</mgrwt>
<clustering>
<clus scale="   32.632">  1  6  2 -1</clus>
<clus scale="  467.634">  4  5 -1 -1</clus>
<clus scale="  300.000">  1  4  2 -1</clus>
</clustering>
</event>
<event>
 6    1  0.1029244E-011  0.3000000E+03  0.7818608E-02  0.1093470E+00
          1   -1    0    0  502    0  0.00000000000E+00  0.00000000000E+00  0.22531962857E+03  0.22531962857E+03  0.00000000000E+00 0.  1.
         13   -1    0    0    0    0 -0.00000000000E+00 -0.00000000000E+00 -0.27500000000E+03  0.27500000000E+03  0.00000000000E+00 0.  1.
    9000005    2    1    2  501    0  0.25308179623E+02  0.17255654657E+02 -0.70251034338E+02  0.46342228794E+03  0.45704129743E+03 0.  0.
         13    1    3    3    0    0 -0.20596805879E+03 -0.55843720720E+02 -0.55064060558E+02  0.22039376840E+03  0.00000000000E+00 0.  1.
          3    1    3    3  501    0  0.23127623841E+03  0.73099375377E+02 -0.15186973779E+02  0.24302851953E+03  0.00000000000E+00 0.  1.
         21    1    1    2  502  501 -0.25308179623E+02 -0.17255654657E+02  0.20570662912E+02  0.36897340637E+02  0.00000000000E+00 0.  1.
<scales pt_clust_4="550.00000" pt_clust_5="550.00000" pt_clust_6="30.63106"></scales>
<mgrwt>
<rscale>  0 0.30000000E+03</rscale>
<asrwt>  1 0.30631056E+02</asrwt>
<pdfrwt beam="1">  1        1 0.81934410E+00 0.30000000E+03</pdfrwt>
<pdfrwt beam="2">0</pdfrwt>
<totfact> 0.75150278E-04</totfact>
</mgrwt>
<clustering>
<clus scale="   30.631">  1  6  2 -1</clus>
<clus scale="  457.041">  4  5 -1 -1</clus>
<clus scale="  300.000">  1  4  2 -1</clus>
</clustering>
</event>
<event>
 6    1  0.1029244E-011  0.3000000E+03  0.7818608E-02  0.1093470E+00
          1   -1    0    0  502    0  0.00000000000E+00  0.00000000000E+00  0.24408614139E+03  0.24408614139E+03  0.00000000000E+00 0.  1.
         13   -1    0    0    0    0 -0.00000000000E+00 -0.00000000000E+00 -0.27500000000E+03  0.27500000000E+03  0.00000000000E+00 0.  1.
    9000005    2    1    2  501    0 -0.14375949247E+00 -0.33533224484E+02 -0.46774081852E+02  0.48199106769E+03  0.47854265932E+03 0.  0.
         13    1    3    3    0    0 -0.12709233486E+03 -0.20309406298E+03 -0.10609623041E+03  0.26202303354E+03  0.00000000000E+00 0.  1.
          3    1    3    3  501    0  0.12694857536E+03  0.16956083850E+03  0.59322148558E+02  0.21996803415E+03  0.00000000000E+00 0.  1.
         21    1    1    2  502  501  0.14375949247E+00  0.33533224484E+02  0.15860223238E+02  0.37095073692E+02  0.00000000000E+00 0. -1.
<scales pt_clust_4="550.00000" pt_clust_5="550.00000" pt_clust_6="33.53353"></scales>
<mgrwt>
<rscale>  0 0.30000000E+03</rscale>
<asrwt>  1 0.33533533E+02</asrwt>
<pdfrwt beam="1">  1        1 0.88758597E+00 0.30000000E+03</pdfrwt>
<pdfrwt beam="2">0</pdfrwt>
<totfact> 0.15759491E-04</totfact>
</mgrwt>
<clustering>
<clus scale="   33.534">  1  6  2 -1</clus>
<clus scale="  478.543">  4  5 -1 -1</clus>
<clus scale="  300.000">  1  4  2 -1</clus>
</clustering>
</event>
<event>
 6    1  0.1029244E-011  0.3000000E+03  0.7818608E-02  0.1093470E+00
          1   -1    0    0  502    0  0.00000000000E+00  0.00000000000E+00  0.23017457685E+03  0.23017457685E+03  0.00000000000E+00 0.  1.
         13   -1    0    0    0    0 -0.00000000000E+00 -0.00000000000E+00 -0.27500000000E+03  0.27500000000E+03  0.00000000000E+00 0.  1.
    9000005    2    1    2  501    0 -0.12581232059E+02 -0.33817738159E+02 -0.61187058590E+02  0.46555602149E+03  0.46010501648E+03 0.  0.
         13    1    3    3    0    0  0.69906142634E+02 -0.14685605084E+03  0.14397493356E+03  0.21721498553E+03  0.00000000000E+00 0.  1.
          3    1    3    3  501    0 -0.82487374693E+02  0.11303831268E+03 -0.20516199215E+03  0.24834103596E+03  0.00000000000E+00 0.  1.
         21    1    1    2  502  501  0.12581232059E+02  0.33817738159E+02  0.16361635438E+02  0.39618555357E+02  0.00000000000E+00 0. -1.
<scales pt_clust_4="550.00000" pt_clust_5="550.00000" pt_clust_6="36.08222"></scales>
<mgrwt>
<rscale>  0 0.30000000E+03</rscale>
<asrwt>  1 0.36082223E+02</asrwt>
<pdfrwt beam="1">  1        1 0.83699846E+00 0.30000000E+03</pdfrwt>
<pdfrwt beam="2">0</pdfrwt>
<totfact> 0.52024005E-04</totfact>
</mgrwt>
<clustering>
<clus scale="   36.082">  1  6  2 -1</clus>
<clus scale="  460.105">  4  5 -1 -1</clus>
<clus scale="  300.000">  1  4  2 -1</clus>
</clustering>
</event>
<event>
 6    1  0.1029244E-011  0.3000000E+03  0.7818608E-02  0.1093470E+00
          1   -1    0    0  502    0  0.00000000000E+00  0.00000000000E+00  0.22486623972E+03  0.22486623972E+03  0.00000000000E+00 0.  1.
         13   -1    0    0    0    0 -0.00000000000E+00 -0.00000000000E+00 -0.27500000000E+03  0.27500000000E+03  0.00000000000E+00 0.  1.
    9000005    2    1    2  501    0  0.35150107658E+02 -0.11747770631E+02 -0.51408201204E+02  0.46278303081E+03  0.45842315635E+03 0.  0.
         13    1    3    3    0    0  0.22544181936E+03 -0.33999862923E+02 -0.12202778600E+03  0.25859386139E+03  0.00000000000E+00 0.  1.
          3    1    3    3  501    0 -0.19029171170E+03  0.22252092292E+02  0.70619584798E+02  0.20418916942E+03  0.00000000000E+00 0.  1.
         21    1    1    2  502  501 -0.35150107658E+02  0.11747770631E+02  0.12744409252E+01  0.37083208907E+02  0.00000000000E+00 0.  1.
<scales pt_clust_4="550.00000" pt_clust_5="550.00000" pt_clust_6="37.06130"></scales>
<mgrwt>
<rscale>  0 0.30000000E+03</rscale>
<asrwt>  1 0.37061303E+02</asrwt>
<pdfrwt beam="1">  1        1 0.81769542E+00 0.30000000E+03</pdfrwt>
<pdfrwt beam="2">0</pdfrwt>
<totfact> 0.74861010E-04</totfact>
</mgrwt>
<clustering>
<clus scale="   37.061">  1  6  2 -1</clus>
<clus scale="  458.423">  4  5 -1 -1</clus>
<clus scale="  300.000">  1  4  2 -1</clus>
</clustering>
</event>
<event>
 6    1  0.1029244E-011  0.3000000E+03  0.7818608E-02  0.1093470E+00
          1   -1    0    0  502    0  0.00000000000E+00  0.00000000000E+00  0.23874898878E+03  0.23874898878E+03  0.00000000000E+00 0.  1.
         13   -1    0    0    0    0 -0.00000000000E+00 -0.00000000000E+00 -0.27500000000E+03  0.27500000000E+03  0.00000000000E+00 0.  1.
    9000005    2    1    2  501    0  0.11916527204E+02 -0.30462371728E+02 -0.57695370717E+02  0.47463607191E+03  0.46997945194E+03 0.  0.
         13    1    3    3    0    0 -0.21679911097E+03 -0.26757857526E+01 -0.10266035714E+03  0.23989198251E+03  0.00000000000E+00 0.  1.
          3    1    3    3  501    0  0.22871563817E+03 -0.27786585975E+02  0.44964986421E+02  0.23474408940E+03  0.00000000000E+00 0.  1.
         21    1    1    2  502  501 -0.11916527204E+02  0.30462371728E+02  0.21444359497E+02  0.39112916870E+02  0.00000000000E+00 0.  1.
<scales pt_clust_4="550.00000" pt_clust_5="550.00000" pt_clust_6="32.71024"></scales>
<mgrwt>
<rscale>  0 0.30000000E+03</rscale>
<asrwt>  1 0.32710239E+02</asrwt>
<pdfrwt beam="1">  1        1 0.86817814E+00 0.30000000E+03</pdfrwt>
<pdfrwt beam="2">0</pdfrwt>
<totfact> 0.26780883E-04</totfact>
</mgrwt>
<clustering>
<clus scale="   32.710">  1  6  2 -1</clus>
<clus scale="  469.979">  4  5 -1 -1</clus>
<clus scale="  300.000">  1  4  2 -1</clus>
</clustering>
</event>
<event>
 6    1  0.1029244E-011  0.3000000E+03  0.7818608E-02  0.1093470E+00
          1   -1    0    0  502    0  0.00000000000E+00  0.00000000000E+00  0.23280710357E+03  0.23280710357E+03  0.00000000000E+00 0.  1.
         13   -1    0    0    0    0 -0.00000000000E+00 -0.00000000000E+00 -0.27500000000E+03  0.27500000000E+03  0.00000000000E+00 0.  1.
    9000005    2    1    2  501    0  0.39089161529E+02  0.10817992641E+02 -0.62417508021E+02  0.46248573524E+03  0.45645604222E+03 0.  0.
         13    1    3    3    0    0  0.10913955713E+03 -0.11345559707E+03 -0.20654181476E+03  0.25969816457E+03  0.00000000000E+00 0.  1.
          1    1    3    3  501    0 -0.70050395598E+02  0.12427358971E+03  0.14412430674E+03  0.20278757067E+03  0.00000000000E+00 0.  1.
         21    1    1    2  502  501 -0.39089161529E+02 -0.10817992641E+02  0.20224611593E+02  0.45321368337E+02  0.00000000000E+00 0. -1.
<scales pt_clust_4="550.00000" pt_clust_5="550.00000" pt_clust_6="40.55849"></scales>
<mgrwt>
<rscale>  0 0.30000000E+03</rscale>
<asrwt>  1 0.40558495E+02</asrwt>
<pdfrwt beam="1">  1        1 0.84657129E+00 0.30000000E+03</pdfrwt>
<pdfrwt beam="2">0</pdfrwt>
<totfact> 0.42584295E-04</totfact>
</mgrwt>
<clustering>
<clus scale="   40.558">  1  6  2 -1</clus>
<clus scale="  456.456">  4  5 -1 -1</clus>
<clus scale="  300.000">  1  4  2 -1</clus>
</clustering>
</event>
<event>
 6    1  0.1029244E-011  0.3000000E+03  0.7818608E-02  0.1093470E+00
          1   -1    0    0  502    0  0.00000000000E+00  0.00000000000E+00  0.22117083166E+03  0.22117083166E+03  0.00000000000E+00 0.  1.
         13   -1    0    0    0    0 -0.00000000000E+00 -0.00000000000E+00 -0.27500000000E+03  0.27500000000E+03  0.00000000000E+00 0.  1.
    9000005    2    1    2  501    0 -0.20371254636E+02  0.27079864691E+02 -0.49884127030E+02  0.46205528626E+03  0.45810299535E+03 0.  0.
         13    1    3    3    0    0  0.80550710439E+02 -0.13774416205E+01  0.18666459441E+03  0.20330761201E+03  0.00000000000E+00 0.  1.
          1    1    3    3  501    0 -0.10092196508E+03  0.28457306312E+02 -0.23654872144E+03  0.25874767425E+03  0.00000000000E+00 0.  1.
         21    1    1    2  502  501  0.20371254636E+02 -0.27079864691E+02 -0.39450413046E+01  0.34115545401E+02  0.00000000000E+00 0. -1.
<scales pt_clust_4="550.00000" pt_clust_5="550.00000" pt_clust_6="33.88670"></scales>
<mgrwt>
<rscale>  0 0.30000000E+03</rscale>
<asrwt>  1 0.33886697E+02</asrwt>
<pdfrwt beam="1">  1        1 0.80425757E+00 0.30000000E+03</pdfrwt>
<pdfrwt beam="2">0</pdfrwt>
<totfact> 0.97114657E-04</totfact>
</mgrwt>
<clustering>
<clus scale="   33.887">  1  6  2 -1</clus>
<clus scale="  458.103">  4  5 -1 -1</clus>
<clus scale="  300.000">  1  4  2 -1</clus>
</clustering>
</event>
<event>
 6    1  0.1029244E-011  0.3000000E+03  0.7818608E-02  0.1093470E+00
          1   -1    0    0  502    0  0.00000000000E+00  0.00000000000E+00  0.23979123117E+03  0.23979123117E+03  0.00000000000E+00 0.  1.
         13   -1    0    0    0    0 -0.00000000000E+00 -0.00000000000E+00 -0.27500000000E+03  0.27500000000E+03  0.00000000000E+00 0.  1.
    9000005    2    1    2  501    0  0.19205067949E+02 -0.29232954219E+02 -0.58416187163E+02  0.47281523192E+03  0.46788715773E+03 0.  0.
         13    1    3    3    0    0  0.87900108395E+02 -0.22873512174E+03 -0.86702308753E+02  0.25992975073E+03  0.00000000000E+00 0.  1.
          1    1    3    3  501    0 -0.68695040447E+02  0.19950216752E+03  0.28286121590E+02  0.21288548119E+03  0.00000000000E+00 0.  1.
         21    1    1    2  502  501 -0.19205067949E+02  0.29232954219E+02  0.23207418334E+02  0.41975999250E+02  0.00000000000E+00 0.  1.
<scales pt_clust_4="550.00000" pt_clust_5="550.00000" pt_clust_6="34.97714"></scales>
<mgrwt>
<rscale>  0 0.30000000E+03</rscale>
<asrwt>  1 0.34977139E+02</asrwt>
<pdfrwt beam="1">  1        1 0.87196811E+00 0.30000000E+03</pdfrwt>
<pdfrwt beam="2">0</pdfrwt>
<totfact> 0.24182887E-04</totfact>
</mgrwt>
<clustering>
<clus scale="   34.977">  1  6  2 -1</clus>
<clus scale="  467.887">  4  5 -1 -1</clus>
<clus scale="  300.000">  1  4  2 -1</clus>
</clustering>
</event>
<event>
 6    1  0.1029244E-011  0.3000000E+03  0.7818608E-02  0.1093470E+00
          1   -1    0    0  502    0  0.00000000000E+00  0.00000000000E+00  0.24792011949E+03  0.24792011949E+03  0.00000000000E+00 0.  1.
         13   -1    0    0    0    0 -0.00000000000E+00 -0.00000000000E+00 -0.27500000000E+03  0.27500000000E+03  0.00000000000E+00 0.  1.
    9000005    2    1    2  501    0  0.47439558603E+02 -0.32296799614E+02 -0.38886339374E+02  0.46432841823E+03  0.45912431606E+03 0.  0.
         13    1    3    3    0    0  0.70470656701E+01 -0.24464435304E+03 -0.41038362543E+02  0.24816258342E+03  0.00000000000E+00 0.  1.
          1    1    3    3  501    0  0.40392492933E+02  0.21234755343E+03  0.21520231686E+01  0.21616583480E+03  0.00000000000E+00 0.  1.
         21    1    1    2  502  501 -0.47439558603E+02  0.32296799614E+02  0.11806458860E+02  0.58591701260E+02  0.00000000000E+00 0.  1.
<scales pt_clust_4="550.00000" pt_clust_5="550.00000" pt_clust_6="57.38985"></scales>
<mgrwt>
<rscale>  0 0.30000000E+03</rscale>
<asrwt>  1 0.57389851E+02</asrwt>
<pdfrwt beam="1">  1        1 0.90152771E+00 0.30000000E+03</pdfrwt>
<pdfrwt beam="2">0</pdfrwt>
<totfact> 0.96495128E-05</totfact>
</mgrwt>
<clustering>
<clus scale="   57.390">  1  6  2 -1</clus>
<clus scale="  459.124">  4  5 -1 -1</clus>
<clus scale="  300.000">  1  4  2 -1</clus>
</clustering>
</event>
<event>
 6    1  0.1029244E-011  0.3000000E+03  0.7818608E-02  0.1093470E+00
          1   -1    0    0  502    0  0.00000000000E+00  0.00000000000E+00  0.24299892858E+03  0.24299892858E+03  0.00000000000E+00 0.  1.
         13   -1    0    0    0    0 -0.00000000000E+00 -0.00000000000E+00 -0.27500000000E+03  0.27500000000E+03  0.00000000000E+00 0.  1.
    9000005    2    1    2  501    0 -0.46257874268E+02 -0.64101636741E+01 -0.57601479145E+02  0.46474236085E+03  0.45878824140E+03 0.  0.
         13    1    3    3    0    0  0.12655640260E+03 -0.12443254625E+03  0.99127595967E+02  0.20328861721E+03  0.00000000000E+00 0.  1.
          1    1    3    3  501    0 -0.17281427687E+03  0.11802238258E+03 -0.15672907511E+03  0.26145374364E+03  0.00000000000E+00 0.  1.
         21    1    1    2  502  501  0.46257874268E+02  0.64101636741E+01  0.25600407724E+02  0.53256567724E+02  0.00000000000E+00 0. -1.
<scales pt_clust_4="550.00000" pt_clust_5="550.00000" pt_clust_6="46.69991"></scales>
<mgrwt>
<rscale>  0 0.30000000E+03</rscale>
<asrwt>  1 0.46699905E+02</asrwt>
<pdfrwt beam="1">  1        1 0.88363247E+00 0.30000000E+03</pdfrwt>
<pdfrwt beam="2">0</pdfrwt>
<totfact> 0.16806094E-04</totfact>
</mgrwt>
<clustering>
<clus scale="   46.700">  1  6  2 -1</clus>
<clus scale="  458.788">  4  5 -1 -1</clus>
<clus scale="  300.000">  1  4  2 -1</clus>
</clustering>
</event>
<event>
 6    1  0.1029244E-011  0.3000000E+03  0.7818608E-02  0.1093470E+00
          1   -1    0    0  502    0  0.00000000000E+00  0.00000000000E+00  0.23844322459E+03  0.23844322459E+03  0.00000000000E+00 0.  1.
         13   -1    0    0    0    0 -0.00000000000E+00 -0.00000000000E+00 -0.27500000000E+03  0.27500000000E+03  0.00000000000E+00 0.  1.
    9000005    2    1    2  501    0  0.25264198154E+02 -0.19022000940E+02 -0.56118546316E+02  0.47625748661E+03  0.47188111435E+03 0.  0.
         13    1    3    3    0    0  0.21451149400E+03 -0.12406878460E+03  0.15442125862E+02  0.24828754222E+03  0.00000000000E+00 0.  1.
          1    1    3    3  501    0 -0.18924729585E+03  0.10504678366E+03 -0.71560672178E+02  0.22796994439E+03  0.00000000000E+00 0.  1.
         21    1    1    2  502  501 -0.25264198154E+02  0.19022000940E+02  0.19561770904E+02  0.37185737979E+02  0.00000000000E+00 0.  1.
<scales pt_clust_4="550.00000" pt_clust_5="550.00000" pt_clust_6="31.62461"></scales>
<mgrwt>
<rscale>  0 0.30000000E+03</rscale>
<asrwt>  1 0.31624614E+02</asrwt>
<pdfrwt beam="1">  1        1 0.86706627E+00 0.30000000E+03</pdfrwt>
<pdfrwt beam="2">0</pdfrwt>
<totfact> 0.27683089E-04</totfact>
</mgrwt>
<clustering>
<clus scale="   31.625">  1  6  2 -1</clus>
<clus scale="  471.881">  4  5 -1 -1</clus>
<clus scale="  300.000">  1  4  2 -1</clus>
</clustering>
</event>
<event>
 6    1  0.1029244E-011  0.3000000E+03  0.7818608E-02  0.1093470E+00
          1   -1    0    0  502    0  0.00000000000E+00  0.00000000000E+00  0.23055464872E+03  0.23055464872E+03  0.00000000000E+00 0.  1.
         13   -1    0    0    0    0 -0.00000000000E+00 -0.00000000000E+00 -0.27500000000E+03  0.27500000000E+03  0.00000000000E+00 0.  1.
    9000005    2    1    2  501    0 -0.31456018785E+02 -0.40235277971E+01 -0.64793945594E+02  0.46787527526E+03  0.46228059436E+03 0.  0.
         13    1    3    3    0    0  0.91946303385E+02 -0.45761936046E+02 -0.23328804635E+03  0.25489525312E+03  0.00000000000E+00 0.  1.
          3    1    3    3  501    0 -0.12340232217E+03  0.41738408249E+02  0.16849410075E+03  0.21298002213E+03  0.00000000000E+00 0.  1.
         21    1    1    2  502  501  0.31456018785E+02  0.40235277971E+01  0.20348594309E+02  0.37679373457E+02  0.00000000000E+00 0. -1.
<scales pt_clust_4="550.00000" pt_clust_5="550.00000" pt_clust_6="31.71230"></scales>
<mgrwt>
<rscale>  0 0.30000000E+03</rscale>
<asrwt>  1 0.31712299E+02</asrwt>
<pdfrwt beam="1">  1        1 0.83838054E+00 0.30000000E+03</pdfrwt>
<pdfrwt beam="2">0</pdfrwt>
<totfact> 0.52077037E-04</totfact>
</mgrwt>
<clustering>
<clus scale="   31.712">  1  6  2 -1</clus>
<clus scale="  462.281">  4  5 -1 -1</clus>
<clus scale="  300.000">  1  4  2 -1</clus>
</clustering>
</event>
<event>
 6    1  0.1029244E-011  0.3000000E+03  0.7818608E-02  0.1093470E+00
          1   -1    0    0  502    0  0.00000000000E+00  0.00000000000E+00  0.24111415232E+03  0.24111415232E+03  0.00000000000E+00 0.  1.
         13   -1    0    0    0    0 -0.00000000000E+00 -0.00000000000E+00 -0.27500000000E+03  0.27500000000E+03  0.00000000000E+00 0.  1.
    9000005    2    1    2  501    0 -0.39366676881E+02 -0.71012605684E+01 -0.40590741522E+02  0.47555408881E+03  0.47212701674E+03 0.  0.
         13    1    3    3    0    0  0.29948114098E+02  0.20469066903E+02  0.21050716330E+03  0.21360977983E+03  0.00000000000E+00 0.  1.
          3    1    3    3  501    0 -0.69314790979E+02 -0.27570327471E+02 -0.25109790482E+03  0.26194430898E+03  0.00000000000E+00 0.  1.
         21    1    1    2  502  501  0.39366676881E+02  0.71012605684E+01  0.67048938391E+01  0.40560063507E+02  0.00000000000E+00 0.  1.
<scales pt_clust_4="550.00000" pt_clust_5="550.00000" pt_clust_6="40.00204"></scales>
<mgrwt>
<rscale>  0 0.30000000E+03</rscale>
<asrwt>  1 0.40002039E+02</asrwt>
<pdfrwt beam="1">  1        1 0.87677874E+00 0.30000000E+03</pdfrwt>
<pdfrwt beam="2">0</pdfrwt>
<totfact> 0.20995567E-04</totfact>
</mgrwt>
<clustering>
<clus scale="   40.002">  1  6  2 -1</clus>
<clus scale="  472.127">  4  5 -1 -1</clus>
<clus scale="  300.000">  1  4  2 -1</clus>
</clustering>
</event>
<event>
 6    1  0.1029244E-011  0.3000000E+03  0.7818608E-02  0.1093470E+00
          1   -1    0    0  502    0  0.00000000000E+00  0.00000000000E+00  0.23746717784E+03  0.23746717784E+03  0.00000000000E+00 0.  1.
         13   -1    0    0    0    0 -0.00000000000E+00 -0.00000000000E+00 -0.27500000000E+03  0.27500000000E+03  0.00000000000E+00 0.  1.
    9000005    2    1    2  501    0  0.32208073006E+02  0.42511143086E+01 -0.44344354745E+02  0.47927336944E+03  0.47611039573E+03 0.  0.
         13    1    3    3    0    0 -0.50465952207E+02  0.21224858416E+02 -0.25055137345E+03  0.25646305326E+03  0.00000000000E+00 0.  1.
          3    1    3    3  501    0  0.82674025213E+02 -0.16973744108E+02  0.20620701871E+03  0.22281031619E+03  0.00000000000E+00 0.  1.
         21    1    1    2  502  501 -0.32208073006E+02 -0.42511143086E+01  0.68115325834E+01  0.33193808395E+02  0.00000000000E+00 0. -1.
<scales pt_clust_4="550.00000" pt_clust_5="550.00000" pt_clust_6="32.48741"></scales>
<mgrwt>
<rscale>  0 0.30000000E+03</rscale>
<asrwt>  1 0.32487412E+02</asrwt>
<pdfrwt beam="1">  1        1 0.86351701E+00 0.30000000E+03</pdfrwt>
<pdfrwt beam="2">0</pdfrwt>
<totfact> 0.30061988E-04</totfact>
</mgrwt>
<clustering>
<clus scale="   32.487">  1  6  2 -1</clus>
<clus scale="  476.110">  4  5 -1 -1</clus>
<clus scale="  300.000">  1  4  2 -1</clus>
</clustering>
</event>
<event>
 6    1  0.1029244E-011  0.3000000E+03  0.7818608E-02  0.1093470E+00
          1   -1    0    0  502    0  0.00000000000E+00  0.00000000000E+00  0.21904109709E+03  0.21904109709E+03  0.00000000000E+00 0.  1.
         13   -1    0    0    0    0 -0.00000000000E+00 -0.00000000000E+00 -0.27500000000E+03  0.27500000000E+03  0.00000000000E+00 0.  1.
    9000005    2    1    2  501    0 -0.24971019524E+02  0.20452838730E+02 -0.54568554143E+02  0.46173314919E+03  0.45735970912E+03 0.  0.
         13    1    3    3    0    0  0.21199695159E+03  0.50076774078E+02 -0.53233626307E+01  0.21789614263E+03  0.00000000000E+00 0.  1.
          1    1    3    3  501    0 -0.23696797111E+03 -0.29623935348E+02 -0.49245191513E+02  0.24383700656E+03  0.00000000000E+00 0.  1.
         21    1    1    2  502  501  0.24971019524E+02 -0.20452838730E+02 -0.13903487623E+01  0.32307947906E+02  0.00000000000E+00 0. -1.
<scales pt_clust_4="550.00000" pt_clust_5="550.00000" pt_clust_6="32.27802"></scales>
<mgrwt>
<rscale>  0 0.30000000E+03</rscale>
<asrwt>  1 0.32278018E+02</asrwt>
<pdfrwt beam="1">  1        1 0.79651308E+00 0.30000000E+03</pdfrwt>
<pdfrwt beam="2">0</pdfrwt>
<totfact> 0.11162526E-03</totfact>
</mgrwt>
<clustering>
<clus scale="   32.278">  1  6  2 -1</clus>
<clus scale="  457.360">  4  5 -1 -1</clus>
<clus scale="  300.000">  1  4  2 -1</clus>
</clustering>
</event>
<event>
 6    1  0.1029244E-011  0.3000000E+03  0.7818608E-02  0.1093470E+00
          1   -1    0    0  502    0  0.00000000000E+00  0.00000000000E+00  0.24203323647E+03  0.24203323647E+03  0.00000000000E+00 0.  1.
         13   -1    0    0    0    0 -0.00000000000E+00 -0.00000000000E+00 -0.27500000000E+03  0.27500000000E+03  0.00000000000E+00 0.  1.
    9000005    2    1    2  501    0  0.35947690254E+02  0.33952051907E+01 -0.50306688569E+02  0.47697781420E+03  0.47294112580E+03 0.  0.
         13    1    3    3    0    0 -0.15281663342E+03  0.15149520719E+03 -0.90980863992E+02  0.23362628034E+03  0.00000000000E+00 0.  1.
          3    1    3    3  501    0  0.18876432367E+03 -0.14810000200E+03  0.40674175422E+02  0.24335153386E+03  0.00000000000E+00 0.  1.
         21    1    1    2  502  501 -0.35947690254E+02 -0.33952051907E+01  0.17339925038E+02  0.40055422270E+02  0.00000000000E+00 0. -1.
<scales pt_clust_4="550.00000" pt_clust_5="550.00000" pt_clust_6="36.10767"></scales>
<mgrwt>
<rscale>  0 0.30000000E+03</rscale>
<asrwt>  1 0.36107670E+02</asrwt>
<pdfrwt beam="1">  1        1 0.88012086E+00 0.30000000E+03</pdfrwt>
<pdfrwt beam="2">0</pdfrwt>
<totfact> 0.19556050E-04</totfact>
</mgrwt>
<clustering>
<clus scale="   36.108">  1  6  2 -1</clus>
<clus scale="  472.941">  4  5 -1 -1</clus>
<clus scale="  300.000">  1  4  2 -1</clus>
</clustering>
</event>
<event>
 6    1  0.1029244E-011  0.3000000E+03  0.7818608E-02  0.1093470E+00
          1   -1    0    0  502    0  0.00000000000E+00  0.00000000000E+00  0.22915449761E+03  0.22915449761E+03  0.00000000000E+00 0.  1.
         13   -1    0    0    0    0 -0.00000000000E+00 -0.00000000000E+00 -0.27500000000E+03  0.27500000000E+03  0.00000000000E+00 0.  1.
    9000005    2    1    2  501    0 -0.22727737228E+02  0.25242335994E+02 -0.34958237136E+02  0.46848577026E+03  0.46594325087E+03 0.  0.
         13    1    3    3    0    0 -0.17101801666E+01  0.23971772876E+03 -0.70939564523E+02  0.24999987203E+03  0.00000000000E+00 0.  1.
          3    1    3    3  501    0 -0.21017557061E+02 -0.21447539277E+03  0.35981327387E+02  0.21848589824E+03  0.00000000000E+00 0.  1.
         21    1    1    2  502  501  0.22727737228E+02 -0.25242335994E+02 -0.10887265253E+02  0.35668727347E+02  0.00000000000E+00 0.  1.
<scales pt_clust_4="550.00000" pt_clust_5="550.00000" pt_clust_6="33.96655"></scales>
<mgrwt>
<rscale>  0 0.30000000E+03</rscale>
<asrwt>  1 0.33966553E+02</asrwt>
<pdfrwt beam="1">  1        1 0.83328908E+00 0.30000000E+03</pdfrwt>
<pdfrwt beam="2">0</pdfrwt>
<totfact> 0.56010129E-04</totfact>
</mgrwt>
<clustering>
<clus scale="   33.967">  1  6  2 -1</clus>
<clus scale="  465.943">  4  5 -1 -1</clus>
<clus scale="  300.000">  1  4  2 -1</clus>
</clustering>
</event>
<event>
 6    1  0.1029244E-011  0.3000000E+03  0.7818608E-02  0.1093470E+00
          1   -1    0    0  502    0  0.00000000000E+00  0.00000000000E+00  0.23234824322E+03  0.23234824322E+03  0.00000000000E+00 0.  1.
         13   -1    0    0    0    0 -0.00000000000E+00 -0.00000000000E+00 -0.27500000000E+03  0.27500000000E+03  0.00000000000E+00 0.  1.
    9000005    2    1    2  501    0  0.22837583948E+02  0.20441085296E+02 -0.57649071980E+02  0.47322621702E+03  0.46870059075E+03 0.  0.
         13    1    3    3    0    0 -0.19595998816E+03 -0.15430346258E+02 -0.13493491485E+03  0.23842366450E+03  0.00000000000E+00 0.  1.
          3    1    3    3  501    0  0.21879757211E+03  0.35871431553E+02  0.77285842873E+02  0.23480255252E+03  0.00000000000E+00 0.  1.
         21    1    1    2  502  501 -0.22837583948E+02 -0.20441085296E+02  0.14997315202E+02  0.34122026198E+02  0.00000000000E+00 0. -1.
<scales pt_clust_4="550.00000" pt_clust_5="550.00000" pt_clust_6="30.64952"></scales>
<mgrwt>
<rscale>  0 0.30000000E+03</rscale>
<asrwt>  1 0.30649522E+02</asrwt>
<pdfrwt beam="1">  1        1 0.84490270E+00 0.30000000E+03</pdfrwt>
<pdfrwt beam="2">0</pdfrwt>
<totfact> 0.46423273E-04</totfact>
</mgrwt>
<clustering>
<clus scale="   30.650">  1  6  2 -1</clus>
<clus scale="  468.701">  4  5 -1 -1</clus>
<clus scale="  300.000">  1  4  2 -1</clus>
</clustering>
</event>
<event>
 6    1  0.1029244E-011  0.3000000E+03  0.7818608E-02  0.1093470E+00
          1   -1    0    0  502    0  0.00000000000E+00  0.00000000000E+00  0.24814460763E+03  0.24814460763E+03  0.00000000000E+00 0.  1.
         13   -1    0    0    0    0 -0.00000000000E+00 -0.00000000000E+00 -0.27500000000E+03  0.27500000000E+03  0.00000000000E+00 0.  1.
    9000005    2    1    2  501    0 -0.11693865925E+02  0.44003373822E+02 -0.38301048560E+02  0.47619733451E+03  0.47246575290E+03 0.  0.
         13    1    3    3    0    0  0.97829625148E+02 -0.19131532323E+03 -0.24557167354E+02  0.21627584915E+03  0.00000000000E+00 0.  1.
          3    1    3    3  501    0 -0.10952349107E+03  0.23531869705E+03 -0.13743881206E+02  0.25992148535E+03  0.00000000000E+00 0.  1.
         21    1    1    2  502  501  0.11693865925E+02 -0.44003373822E+02  0.11445656187E+02  0.46947273121E+02  0.00000000000E+00 0.  1.
<scales pt_clust_4="550.00000" pt_clust_5="550.00000" pt_clust_6="45.53069"></scales>
<mgrwt>
<rscale>  0 0.30000000E+03</rscale>
<asrwt>  1 0.45530686E+02</asrwt>
<pdfrwt beam="1">  1        1 0.90234403E+00 0.30000000E+03</pdfrwt>
<pdfrwt beam="2">0</pdfrwt>
<totfact> 0.97776459E-05</totfact>
</mgrwt>
<clustering>
<clus scale="   45.531">  1  6  2 -1</clus>
<clus scale="  472.466">  4  5 -1 -1</clus>
<clus scale="  300.000">  1  4  2 -1</clus>
</clustering>
</event>
<event>
 6    1  0.1029244E-011  0.3000000E+03  0.7818608E-02  0.1093470E+00
          1   -1    0    0  502    0  0.00000000000E+00  0.00000000000E+00  0.22486350698E+03  0.22486350698E+03  0.00000000000E+00 0.  1.
         13   -1    0    0    0    0 -0.00000000000E+00 -0.00000000000E+00 -0.27500000000E+03  0.27500000000E+03  0.00000000000E+00 0.  1.
    9000005    2    1    2  501    0  0.24866751546E+02 -0.18590408669E+02 -0.64606124967E+02  0.46560961851E+03  0.46005913406E+03 0.  0.
         13    1    3    3    0    0 -0.15659810315E+03  0.14390010420E+03 -0.63757136863E+02  0.22202517515E+03  0.00000000000E+00 0.  1.
          3    1    3    3  501    0  0.18146485470E+03 -0.16249051287E+03 -0.84898810452E+00  0.24358444336E+03  0.00000000000E+00 0.  1.
         21    1    1    2  502  501 -0.24866751546E+02  0.18590408669E+02  0.14469631951E+02  0.34253888476E+02  0.00000000000E+00 0. -1.
<scales pt_clust_4="550.00000" pt_clust_5="550.00000" pt_clust_6="31.04768"></scales>
<mgrwt>
<rscale>  0 0.30000000E+03</rscale>
<asrwt>  1 0.31047683E+02</asrwt>
<pdfrwt beam="1">  1        1 0.81768548E+00 0.30000000E+03</pdfrwt>
<pdfrwt beam="2">0</pdfrwt>
<totfact> 0.77411500E-04</totfact>
</mgrwt>
<clustering>
<clus scale="   31.048">  1  6  2 -1</clus>
<clus scale="  460.059">  4  5 -1 -1</clus>
<clus scale="  300.000">  1  4  2 -1</clus>
</clustering>
</event>
<event>
 6    1  0.1029244E-011  0.3000000E+03  0.7818608E-02  0.1093470E+00
          1   -1    0    0  502    0  0.00000000000E+00  0.00000000000E+00  0.23705969105E+03  0.23705969105E+03  0.00000000000E+00 0.  1.
         13   -1    0    0    0    0 -0.00000000000E+00 -0.00000000000E+00 -0.27500000000E+03  0.27500000000E+03  0.00000000000E+00 0.  1.
    9000005    2    1    2  501    0 -0.19080027957E+02  0.29766868499E+02 -0.51054486252E+02  0.47434900857E+03  0.47026620911E+03 0.  0.
         13    1    3    3    0    0 -0.27233740561E+02 -0.53764336483E+02  0.20039551491E+03  0.20926213919E+03  0.00000000000E+00 0.  1.
          1    1    3    3  501    0  0.81537126040E+01  0.83531204982E+02 -0.25145000116E+03  0.26508686938E+03  0.00000000000E+00 0.  1.
         21    1    1    2  502  501  0.19080027957E+02 -0.29766868499E+02  0.13114177300E+02  0.37710682483E+02  0.00000000000E+00 0.  1.
<scales pt_clust_4="550.00000" pt_clust_5="550.00000" pt_clust_6="35.35695"></scales>
<mgrwt>
<rscale>  0 0.30000000E+03</rscale>
<asrwt>  1 0.35356950E+02</asrwt>
<pdfrwt beam="1">  1        1 0.86203524E+00 0.30000000E+03</pdfrwt>
<pdfrwt beam="2">0</pdfrwt>
<totfact> 0.30699544E-04</totfact>
</mgrwt>
<clustering>
<clus scale="   35.357">  1  6  2 -1</clus>
<clus scale="  470.266">  4  5 -1 -1</clus>
<clus scale="  300.000">  1  4  2 -1</clus>
</clustering>
</event>
<event>
 6    1  0.1029244E-011  0.3000000E+03  0.7818608E-02  0.1093470E+00
          1   -1    0    0  502    0  0.00000000000E+00  0.00000000000E+00  0.24505898008E+03  0.24505898008E+03  0.00000000000E+00 0.  1.
         13   -1    0    0    0    0 -0.00000000000E+00 -0.00000000000E+00 -0.27500000000E+03  0.27500000000E+03  0.00000000000E+00 0.  1.
    9000005    2    1    2  501    0  0.21707549202E+02 -0.23891855377E+02 -0.58730035239E+02  0.47680570450E+03  0.47207247786E+03 0.  0.
         13    1    3    3    0    0 -0.14596717497E+03 -0.44179780429E+01  0.14934023136E+03  0.20887421910E+03  0.00000000000E+00 0.  1.
          1    1    3    3  501    0  0.16767472417E+03 -0.19473877334E+02 -0.20807026660E+03  0.26793148540E+03  0.00000000000E+00 0.  1.
         21    1    1    2  502  501 -0.21707549202E+02  0.23891855377E+02  0.28789015320E+02  0.43253275585E+02  0.00000000000E+00 0. -1.
<scales pt_clust_4="550.00000" pt_clust_5="550.00000" pt_clust_6="32.28062"></scales>
<mgrwt>
<rscale>  0 0.30000000E+03</rscale>
<asrwt>  1 0.32280620E+02</asrwt>
<pdfrwt beam="1">  1        1 0.89112356E+00 0.30000000E+03</pdfrwt>
<pdfrwt beam="2">0</pdfrwt>
<totfact> 0.14229318E-04</totfact>
</mgrwt>
<clustering>
<clus scale="   32.281">  1  6  2 -1</clus>
<clus scale="  472.072">  4  5 -1 -1</clus>
<clus scale="  300.000">  1  4  2 -1</clus>
</clustering>
</event>
<event>
 6    1  0.1029244E-011  0.3000000E+03  0.7818608E-02  0.1093470E+00
          1   -1    0    0  502    0  0.00000000000E+00  0.00000000000E+00  0.22911806406E+03  0.22911806406E+03  0.00000000000E+00 0.  1.
         13   -1    0    0    0    0 -0.00000000000E+00 -0.00000000000E+00 -0.27500000000E+03  0.27500000000E+03  0.00000000000E+00 0.  1.
    9000005    2    1    2  501    0 -0.13073810809E+02 -0.31041281607E+02 -0.22095309421E+02  0.46288349974E+03  0.46112736412E+03 0.  0.
         13    1    3    3    0    0 -0.15482612473E+02 -0.23600857469E+03  0.56804346592E+02  0.24324163379E+03  0.00000000000E+00 0.  1.
          3    1    3    3  501    0  0.24088016639E+01  0.20496729309E+03 -0.78899656012E+02  0.21964186595E+03  0.00000000000E+00 0.  1.
         21    1    1    2  502  501  0.13073810809E+02  0.31041281607E+02 -0.23786626521E+02  0.41234564313E+02  0.00000000000E+00 0.  1.
<scales pt_clust_4="550.00000" pt_clust_5="550.00000" pt_clust_6="33.68214"></scales>
<mgrwt>
<rscale>  0 0.30000000E+03</rscale>
<asrwt>  1 0.33682144E+02</asrwt>
<pdfrwt beam="1">  1        1 0.83315660E+00 0.30000000E+03</pdfrwt>
<pdfrwt beam="2">0</pdfrwt>
<totfact> 0.56227434E-04</totfact>
</mgrwt>
<clustering>
<clus scale="   33.682">  1  6  2 -1</clus>
<clus scale="  461.127">  4  5 -1 -1</clus>
<clus scale="  300.000">  1  4  2 -1</clus>
</clustering>
</event>
<event>
 6    1  0.1029244E-011  0.3000000E+03  0.7818608E-02  0.1093470E+00
          1   -1    0    0  502    0  0.00000000000E+00  0.00000000000E+00  0.22859077058E+03  0.22859077058E+03  0.00000000000E+00 0.  1.
         13   -1    0    0    0    0 -0.00000000000E+00 -0.00000000000E+00 -0.27500000000E+03  0.27500000000E+03  0.00000000000E+00 0.  1.
    9000005    2    1    2  501    0  0.26583055502E+02 -0.25905539525E+02 -0.44678389071E+02  0.46643230417E+03  0.46280144782E+03 0.  0.
         13    1    3    3    0    0 -0.21285001981E+03 -0.36823747622E+02  0.23384190011E+02  0.21727388169E+03  0.00000000000E+00 0.  1.
          3    1    3    3  501    0  0.23943307531E+03  0.10918208097E+02 -0.68062579083E+02  0.24915842248E+03  0.00000000000E+00 0.  1.
         21    1    1    2  502  501 -0.26583055502E+02  0.25905539525E+02 -0.17308403494E+01  0.37158466414E+02  0.00000000000E+00 0. -1.
<scales pt_clust_4="550.00000" pt_clust_5="550.00000" pt_clust_6="37.11813"></scales>
<mgrwt>
<rscale>  0 0.30000000E+03</rscale>
<asrwt>  1 0.37118133E+02</asrwt>
<pdfrwt beam="1">  1        1 0.83123917E+00 0.30000000E+03</pdfrwt>
<pdfrwt beam="2">0</pdfrwt>
<totfact> 0.57126646E-04</totfact>
</mgrwt>
<clustering>
<clus scale="   37.118">  1  6  2 -1</clus>
<clus scale="  462.801">  4  5 -1 -1</clus>
<clus scale="  300.000">  1  4  2 -1</clus>
</clustering>
</event>
<event>
 6    1  0.1029244E-011  0.3000000E+03  0.7818608E-02  0.1093470E+00
          1   -1    0    0  502    0  0.00000000000E+00  0.00000000000E+00  0.24289848318E+03  0.24289848318E+03  0.00000000000E+00 0.  1.
         13   -1    0    0    0    0 -0.00000000000E+00 -0.00000000000E+00 -0.27500000000E+03  0.27500000000E+03  0.00000000000E+00 0.  1.
    9000005    2    1    2  501    0 -0.24767852047E+02  0.21994207139E+02 -0.38544252341E+02  0.48415384681E+03  0.48147907156E+03 0.  0.
         13    1    3    3    0    0 -0.43172603802E+02 -0.86854949684E+02  0.19946056701E+03  0.22179308780E+03  0.00000000000E+00 0.  1.
          1    1    3    3  501    0  0.18404751755E+02  0.10884915682E+03 -0.23800481936E+03  0.26236075900E+03  0.00000000000E+00 0.  1.
         21    1    1    2  502  501  0.24767852047E+02 -0.21994207139E+02  0.64427355165E+01  0.33744636369E+02  0.00000000000E+00 0.  1.
<scales pt_clust_4="550.00000" pt_clust_5="550.00000" pt_clust_6="33.12388"></scales>
<mgrwt>
<rscale>  0 0.30000000E+03</rscale>
<asrwt>  1 0.33123883E+02</asrwt>
<pdfrwt beam="1">  1        1 0.88326721E+00 0.30000000E+03</pdfrwt>
<pdfrwt beam="2">0</pdfrwt>
<totfact> 0.18100165E-04</totfact>
</mgrwt>
<clustering>
<clus scale="   33.124">  1  6  2 -1</clus>
<clus scale="  481.479">  4  5 -1 -1</clus>
<clus scale="  300.000">  1  4  2 -1</clus>
</clustering>
</event>
<event>
 6    1  0.1029244E-011  0.3000000E+03  0.7818608E-02  0.1093470E+00
          1   -1    0    0  502    0  0.00000000000E+00  0.00000000000E+00  0.24136566066E+03  0.24136566066E+03  0.00000000000E+00 0.  1.
         13   -1    0    0    0    0 -0.00000000000E+00 -0.00000000000E+00 -0.27500000000E+03  0.27500000000E+03  0.00000000000E+00 0.  1.
    9000005    2    1    2  501    0  0.45615702535E+02 -0.17967665267E+02 -0.50204059815E+02  0.46461447758E+03  0.45928480907E+03 0.  0.
         13    1    3    3    0    0 -0.16303992968E+03  0.10508341566E+03 -0.98596698114E+02  0.21759101956E+03  0.00000000000E+00 0.  1.
          1    1    3    3  501    0  0.20865563221E+03 -0.12305108093E+03  0.48392638300E+02  0.24702345802E+03  0.00000000000E+00 0.  1.
         21    1    1    2  502  501 -0.45615702535E+02  0.17967665267E+02  0.16569720471E+02  0.51751183073E+02  0.00000000000E+00 0. -1.
<scales pt_clust_4="550.00000" pt_clust_5="550.00000" pt_clust_6="49.02682"></scales>
<mgrwt>
<rscale>  0 0.30000000E+03</rscale>
<asrwt>  1 0.49026822E+02</asrwt>
<pdfrwt beam="1">  1        1 0.87769331E+00 0.30000000E+03</pdfrwt>
<pdfrwt beam="2">0</pdfrwt>
<totfact> 0.19772479E-04</totfact>
</mgrwt>
<clustering>
<clus scale="   49.027">  1  6  2 -1</clus>
<clus scale="  459.285">  4  5 -1 -1</clus>
<clus scale="  300.000">  1  4  2 -1</clus>
</clustering>
</event>
<event>
 6    1  0.1029244E-011  0.3000000E+03  0.7818608E-02  0.1093470E+00
          1   -1    0    0  502    0  0.00000000000E+00  0.00000000000E+00  0.23625934157E+03  0.23625934157E+03  0.00000000000E+00 0.  1.
         13   -1    0    0    0    0 -0.00000000000E+00 -0.00000000000E+00 -0.27500000000E+03  0.27500000000E+03  0.00000000000E+00 0.  1.
    9000005    2    1    2  501    0 -0.19041308742E+02  0.26182316622E+02 -0.59555561218E+02  0.47277109245E+03  0.46788626379E+03 0.  0.
         13    1    3    3    0    0 -0.17919968260E+03 -0.11988603040E+03 -0.12130078042E+03  0.24738444951E+03  0.00000000000E+00 0.  1.
          1    1    3    3  501    0  0.16015837386E+03  0.14606834702E+03  0.61745219205E+02  0.22538664294E+03  0.00000000000E+00 0.  1.
         21    1    1    2  502  501  0.19041308742E+02 -0.26182316622E+02  0.20814902792E+02  0.38488249123E+02  0.00000000000E+00 0.  1.
<scales pt_clust_4="550.00000" pt_clust_5="550.00000" pt_clust_6="32.37414"></scales>
<mgrwt>
<rscale>  0 0.30000000E+03</rscale>
<asrwt>  1 0.32374143E+02</asrwt>
<pdfrwt beam="1">  1        1 0.85912488E+00 0.30000000E+03</pdfrwt>
<pdfrwt beam="2">0</pdfrwt>
<totfact> 0.33535379E-04</totfact>
</mgrwt>
<clustering>
<clus scale="   32.374">  1  6  2 -1</clus>
<clus scale="  467.886">  4  5 -1 -1</clus>
<clus scale="  300.000">  1  4  2 -1</clus>
</clustering>
</event>
<event>
 6    1  0.1029244E-011  0.3000000E+03  0.7818608E-02  0.1093470E+00
          1   -1    0    0  502    0  0.00000000000E+00  0.00000000000E+00  0.24278366720E+03  0.24278366720E+03  0.00000000000E+00 0.  1.
         13   -1    0    0    0    0 -0.00000000000E+00 -0.00000000000E+00 -0.27500000000E+03  0.27500000000E+03  0.00000000000E+00 0.  1.
    9000005    2    1    2  501    0 -0.28518386296E+02 -0.28115330456E+02 -0.39962448384E+02  0.47699430008E+03  0.47362727420E+03 0.  0.
         13    1    3    3    0    0  0.12817808318E+03  0.11935568631E+03 -0.15421814357E+03  0.23336374326E+03  0.00000000000E+00 0.  1.
          1    1    3    3  501    0 -0.15669646948E+03 -0.14747101677E+03  0.11425569518E+03  0.24363055682E+03  0.00000000000E+00 0.  1.
         21    1    1    2  502  501  0.28518386296E+02  0.28115330456E+02  0.77461155875E+01  0.40789367123E+02  0.00000000000E+00 0.  1.
<scales pt_clust_4="550.00000" pt_clust_5="550.00000" pt_clust_6="40.04710"></scales>
<mgrwt>
<rscale>  0 0.30000000E+03</rscale>
<asrwt>  1 0.40047099E+02</asrwt>
<pdfrwt beam="1">  1        1 0.88284970E+00 0.30000000E+03</pdfrwt>
<pdfrwt beam="2">0</pdfrwt>
<totfact> 0.17698605E-04</totfact>
</mgrwt>
<clustering>
<clus scale="   40.047">  1  6  2 -1</clus>
<clus scale="  473.627">  4  5 -1 -1</clus>
<clus scale="  300.000">  1  4  2 -1</clus>
</clustering>
</event>
<event>
 6    1  0.1029244E-011  0.3000000E+03  0.7818608E-02  0.1093470E+00
          1   -1    0    0  502    0  0.00000000000E+00  0.00000000000E+00  0.24604563951E+03  0.24604563951E+03  0.00000000000E+00 0.  1.
         13   -1    0    0    0    0 -0.00000000000E+00 -0.00000000000E+00 -0.27500000000E+03  0.27500000000E+03  0.00000000000E+00 0.  1.
    9000005    2    1    2  501    0 -0.26263716764E+02 -0.35509277689E+02 -0.28452474720E+02  0.47687615332E+03  0.47397323835E+03 0.  0.
         13    1    3    3    0    0 -0.23074589094E+03 -0.43105845438E+01  0.78809055269E+02  0.24387110225E+03  0.00000000000E+00 0.  1.
          1    1    3    3  501    0  0.20448217417E+03 -0.31198693145E+02 -0.10726152999E+03  0.23300505107E+03  0.00000000000E+00 0.  1.
         21    1    1    2  502  501  0.26263716764E+02  0.35509277689E+02 -0.50188577496E+00  0.44169486182E+02  0.00000000000E+00 0.  1.
<scales pt_clust_4="550.00000" pt_clust_5="550.00000" pt_clust_6="44.16663"></scales>
<mgrwt>
<rscale>  0 0.30000000E+03</rscale>
<asrwt>  1 0.44166635E+02</asrwt>
<pdfrwt beam="1">  1        1 0.89471142E+00 0.30000000E+03</pdfrwt>
<pdfrwt beam="2">0</pdfrwt>
<totfact> 0.12174096E-04</totfact>
</mgrwt>
<clustering>
<clus scale="   44.167">  1  6  2 -1</clus>
<clus scale="  473.973">  4  5 -1 -1</clus>
<clus scale="  300.000">  1  4  2 -1</clus>
</clustering>
</event>
<event>
 6    1  0.1029244E-011  0.3000000E+03  0.7818608E-02  0.1093470E+00
          1   -1    0    0  502    0  0.00000000000E+00  0.00000000000E+00  0.24937733771E+03  0.24937733771E+03  0.00000000000E+00 0.  1.
         13   -1    0    0    0    0 -0.00000000000E+00 -0.00000000000E+00 -0.27500000000E+03  0.27500000000E+03  0.00000000000E+00 0.  1.
    9000005    2    1    2  501    0  0.80497936989E+01  0.31273345950E+02 -0.72569497847E+02  0.46739640481E+03  0.46059770501E+03 0.  0.
         13    1    3    3    0    0  0.13182734511E+03  0.43153034084E+02  0.15504107126E+03  0.20803453330E+03  0.00000000000E+00 0.  1.
          3    1    3    3  501    0 -0.12377755141E+03 -0.11879688134E+02 -0.22761056910E+03  0.25936187151E+03  0.00000000000E+00 0.  1.
         21    1    1    2  502  501 -0.80497936989E+01 -0.31273345950E+02  0.46946835554E+02  0.56980932899E+02  0.00000000000E+00 0. -1.
<scales pt_clust_4="550.00000" pt_clust_5="550.00000" pt_clust_6="32.29274"></scales>
<mgrwt>
<rscale>  0 0.30000000E+03</rscale>
<asrwt>  1 0.32292744E+02</asrwt>
<pdfrwt beam="1">  1        1 0.90682668E+00 0.30000000E+03</pdfrwt>
<pdfrwt beam="2">0</pdfrwt>
<totfact> 0.86263705E-05</totfact>
</mgrwt>
<clustering>
<clus scale="   32.293">  1  6  2 -1</clus>
<clus scale="  460.598">  4  5 -1 -1</clus>
<clus scale="  300.000">  1  4  2 -1</clus>
</clustering>
</event>
<event>
 6    1  0.1029244E-011  0.3000000E+03  0.7818608E-02  0.1093470E+00
          1   -1    0    0  502    0  0.00000000000E+00  0.00000000000E+00  0.22471460304E+03  0.22471460304E+03  0.00000000000E+00 0.  1.
         13   -1    0    0    0    0 -0.00000000000E+00 -0.00000000000E+00 -0.27500000000E+03  0.27500000000E+03  0.00000000000E+00 0.  1.
    9000005    2    1    2  501    0  0.22570771985E+02  0.28018815155E+02 -0.47963132415E+02  0.46366066202E+03  0.45976760834E+03 0.  0.
         13    1    3    3    0    0  0.36505186130E+02 -0.24768099282E+02 -0.25026405702E+03  0.25412238310E+03  0.00000000000E+00 0.  1.
          1    1    3    3  501    0 -0.13934414145E+02  0.52786914437E+02  0.20230092461E+03  0.20953827891E+03  0.00000000000E+00 0.  1.
         21    1    1    2  502  501 -0.22570771985E+02 -0.28018815155E+02 -0.23222645454E+01  0.36053941023E+02  0.00000000000E+00 0. -1.
<scales pt_clust_4="550.00000" pt_clust_5="550.00000" pt_clust_6="35.97907"></scales>
<mgrwt>
<rscale>  0 0.30000000E+03</rscale>
<asrwt>  1 0.35979074E+02</asrwt>
<pdfrwt beam="1">  1        1 0.81714401E+00 0.30000000E+03</pdfrwt>
<pdfrwt beam="2">0</pdfrwt>
<totfact> 0.76068323E-04</totfact>
</mgrwt>
<clustering>
<clus scale="   35.979">  1  6  2 -1</clus>
<clus scale="  459.768">  4  5 -1 -1</clus>
<clus scale="  300.000">  1  4  2 -1</clus>
</clustering>
</event>
<event>
 6    1  0.1029244E-011  0.3000000E+03  0.7818608E-02  0.1093470E+00
          1   -1    0    0  502    0  0.00000000000E+00  0.00000000000E+00  0.26402895280E+03  0.26402895280E+03  0.00000000000E+00 0.  1.
         13   -1    0    0    0    0 -0.00000000000E+00 -0.00000000000E+00 -0.27500000000E+03  0.27500000000E+03  0.00000000000E+00 0.  1.
    9000005    2    1    2  501    0 -0.28714715904E+00  0.35072271942E+02 -0.56422788469E+02  0.48161808713E+03  0.47701394537E+03 0.  0.
         13    1    3    3    0    0  0.12104059006E+03 -0.34401014722E+02 -0.22792219872E+03  0.26035126834E+03  0.00000000000E+00 0.  1.
          1    1    3    3  501    0 -0.12132773722E+03  0.69473286664E+02  0.17149941025E+03  0.22126681879E+03  0.00000000000E+00 0.  1.
         21    1    1    2  502  501  0.28714715904E+00 -0.35072271942E+02  0.45451741264E+02  0.57410865667E+02  0.00000000000E+00 0.  1.
<scales pt_clust_4="550.00000" pt_clust_5="550.00000" pt_clust_6="35.07345"></scales>
<mgrwt>
<rscale>  0 0.30000000E+03</rscale>
<asrwt>  1 0.35073447E+02</asrwt>
<pdfrwt beam="1">  1        1 0.96010528E+00 0.30000000E+03</pdfrwt>
<pdfrwt beam="2">0</pdfrwt>
<totfact> 0.75421545E-06</totfact>
</mgrwt>
<clustering>
<clus scale="   35.073">  1  6  2 -1</clus>
<clus scale="  477.014">  4  5 -1 -1</clus>
<clus scale="  300.000">  1  4  2 -1</clus>
</clustering>
</event>
<event>
 6    1  0.1029244E-011  0.3000000E+03  0.7818608E-02  0.1093470E+00
          1   -1    0    0  502    0  0.00000000000E+00  0.00000000000E+00  0.22753217351E+03  0.22753217351E+03  0.00000000000E+00 0.  1.
         13   -1    0    0    0    0 -0.00000000000E+00 -0.00000000000E+00 -0.27500000000E+03  0.27500000000E+03  0.00000000000E+00 0.  1.
    9000005    2    1    2  501    0 -0.47698260533E+01  0.39249543423E+02 -0.49899008767E+02  0.46291918894E+03  0.45852043195E+03 0.  0.
         13    1    3    3    0    0 -0.93548404833E+02  0.45595365355E+02 -0.23528578031E+03  0.25727347280E+03  0.00000000000E+00 0.  1.
          1    1    3    3  501    0  0.88778578780E+02 -0.63458219325E+01  0.18538677154E+03  0.20564571615E+03  0.00000000000E+00 0.  1.
         21    1    1    2  502  501  0.47698260533E+01 -0.39249543423E+02  0.24311822815E+01  0.39612984573E+02  0.00000000000E+00 0. -1.
<scales pt_clust_4="550.00000" pt_clust_5="550.00000" pt_clust_6="39.53831"></scales>
<mgrwt>
<rscale>  0 0.30000000E+03</rscale>
<asrwt>  1 0.39538309E+02</asrwt>
<pdfrwt beam="1">  1        1 0.82738972E+00 0.30000000E+03</pdfrwt>
<pdfrwt beam="2">0</pdfrwt>
<totfact> 0.60823730E-04</totfact>
</mgrwt>
<clustering>
<clus scale="   39.538">  1  6  2 -1</clus>
<clus scale="  458.520">  4  5 -1 -1</clus>
<clus scale="  300.000">  1  4  2 -1</clus>
</clustering>
</event>
<event>
 6    1  0.1029244E-011  0.3000000E+03  0.7818608E-02  0.1093470E+00
          1   -1    0    0  502    0  0.00000000000E+00  0.00000000000E+00  0.23702586986E+03  0.23702586986E+03  0.00000000000E+00 0.  1.
         13   -1    0    0    0    0 -0.00000000000E+00 -0.00000000000E+00 -0.27500000000E+03  0.27500000000E+03  0.00000000000E+00 0.  1.
    9000005    2    1    2  501    0 -0.34983596634E+02  0.42349844161E+01 -0.46972773061E+02  0.47565606506E+03  0.47201744003E+03 0.  0.
         13    1    3    3    0    0 -0.57910233774E+02  0.22430894886E+03  0.45075513517E+02  0.23600826603E+03  0.00000000000E+00 0.  1.
          1    1    3    3  501    0  0.22926637140E+02 -0.22007396445E+03 -0.92048286578E+02  0.23964779903E+03  0.00000000000E+00 0.  1.
         21    1    1    2  502  501  0.34983596634E+02 -0.42349844161E+01  0.89986429201E+01  0.36369804795E+02  0.00000000000E+00 0. -1.
<scales pt_clust_4="550.00000" pt_clust_5="550.00000" pt_clust_6="35.23900"></scales>
<mgrwt>
<rscale>  0 0.30000000E+03</rscale>
<asrwt>  1 0.35239000E+02</asrwt>
<pdfrwt beam="1">  1        1 0.86191225E+00 0.30000000E+03</pdfrwt>
<pdfrwt beam="2">0</pdfrwt>
<totfact> 0.30812810E-04</totfact>
</mgrwt>
<clustering>
<clus scale="   35.239">  1  6  2 -1</clus>
<clus scale="  472.017">  4  5 -1 -1</clus>
<clus scale="  300.000">  1  4  2 -1</clus>
</clustering>
</event>
<event>
 6    1  0.1029244E-011  0.3000000E+03  0.7818608E-02  0.1093470E+00
          1   -1    0    0  502    0  0.00000000000E+00  0.00000000000E+00  0.23740302366E+03  0.23740302366E+03  0.00000000000E+00 0.  1.
         13   -1    0    0    0    0 -0.00000000000E+00 -0.00000000000E+00 -0.27500000000E+03  0.27500000000E+03  0.00000000000E+00 0.  1.
    9000005    2    1    2  501    0 -0.23328207333E+01 -0.40726165726E+02 -0.39190042051E+02  0.47157900517E+03  0.46817393787E+03 0.  0.
         13    1    3    3    0    0 -0.98594760065E+02  0.13230203509E+03 -0.16791201043E+03  0.23541282558E+03  0.00000000000E+00 0.  1.
          3    1    3    3  501    0  0.96261939332E+02 -0.17302820081E+03  0.12872196838E+03  0.23616617959E+03  0.00000000000E+00 0.  1.
         21    1    1    2  502  501  0.23328207333E+01  0.40726165726E+02  0.15930657153E+01  0.40824018490E+02  0.00000000000E+00 0.  1.
<scales pt_clust_4="550.00000" pt_clust_5="550.00000" pt_clust_6="40.79292"></scales>
<mgrwt>
<rscale>  0 0.30000000E+03</rscale>
<asrwt>  1 0.40792924E+02</asrwt>
<pdfrwt beam="1">  1        1 0.86328372E+00 0.30000000E+03</pdfrwt>
<pdfrwt beam="2">0</pdfrwt>
<totfact> 0.28985642E-04</totfact>
</mgrwt>
<clustering>
<clus scale="   40.793">  1  6  2 -1</clus>
<clus scale="  468.174">  4  5 -1 -1</clus>
<clus scale="  300.000">  1  4  2 -1</clus>
</clustering>
</event>
<event>
 6    1  0.1029244E-011  0.3000000E+03  0.7818608E-02  0.1093470E+00
          1   -1    0    0  502    0  0.00000000000E+00  0.00000000000E+00  0.22857791831E+03  0.22857791831E+03  0.00000000000E+00 0.  1.
         13   -1    0    0    0    0 -0.00000000000E+00 -0.00000000000E+00 -0.27500000000E+03  0.27500000000E+03  0.00000000000E+00 0.  1.
    9000005    2    1    2  501    0  0.17828734042E+02  0.35400423584E+02 -0.29015751583E+02  0.46028780310E+03  0.45765914620E+03 0.  0.
         13    1    3    3    0    0 -0.38676450305E+02 -0.20666869820E+03 -0.24408271699E+02  0.21166856722E+03  0.00000000000E+00 0.  1.
          3    1    3    3  501    0  0.56505184348E+02  0.24206912178E+03 -0.46074798833E+01  0.24861923588E+03  0.00000000000E+00 0.  1.
         21    1    1    2  502  501 -0.17828734042E+02 -0.35400423584E+02 -0.17406330103E+02  0.43290115212E+02  0.00000000000E+00 0.  1.
<scales pt_clust_4="550.00000" pt_clust_5="550.00000" pt_clust_6="39.63654"></scales>
<mgrwt>
<rscale>  0 0.30000000E+03</rscale>
<asrwt>  1 0.39636540E+02</asrwt>
<pdfrwt beam="1">  1        1 0.83119243E+00 0.30000000E+03</pdfrwt>
<pdfrwt beam="2">0</pdfrwt>
<totfact> 0.56489292E-04</totfact>
</mgrwt>
<clustering>
<clus scale="   39.637">  1  6  2 -1</clus>
<clus scale="  457.659">  4  5 -1 -1</clus>
<clus scale="  300.000">  1  4  2 -1</clus>
</clustering>
</event>
<event>
 6    1  0.1029244E-011  0.3000000E+03  0.7818608E-02  0.1093470E+00
          1   -1    0    0  502    0  0.00000000000E+00  0.00000000000E+00  0.24146745363E+03  0.24146745363E+03  0.00000000000E+00 0.  1.
         13   -1    0    0    0    0 -0.00000000000E+00 -0.00000000000E+00 -0.27500000000E+03  0.27500000000E+03  0.00000000000E+00 0.  1.
    9000005    2    1    2  501    0  0.67471273298E+01  0.38230772956E+02 -0.59119935727E+02  0.46997196759E+03  0.46461959471E+03 0.  0.
         13    1    3    3    0    0 -0.52808776307E+02 -0.18693733250E+03 -0.12115808541E+03  0.22894019917E+03  0.00000000000E+00 0.  1.
          3    1    3    3  501    0  0.59555903637E+02  0.22516810545E+03  0.62038149681E+02  0.24103176842E+03  0.00000000000E+00 0.  1.
         21    1    1    2  502  501 -0.67471273298E+01 -0.38230772956E+02  0.25587389359E+02  0.46495486042E+02  0.00000000000E+00 0. -1.
<scales pt_clust_4="550.00000" pt_clust_5="550.00000" pt_clust_6="38.82159"></scales>
<mgrwt>
<rscale>  0 0.30000000E+03</rscale>
<asrwt>  1 0.38821588E+02</asrwt>
<pdfrwt beam="1">  1        1 0.87806347E+00 0.30000000E+03</pdfrwt>
<pdfrwt beam="2">0</pdfrwt>
<totfact> 0.20419288E-04</totfact>
</mgrwt>
<clustering>
<clus scale="   38.822">  1  6  2 -1</clus>
<clus scale="  464.620">  4  5 -1 -1</clus>
<clus scale="  300.000">  1  4  2 -1</clus>
</clustering>
</event>
<event>
 6    1  0.1029244E-011  0.3000000E+03  0.7818608E-02  0.1093470E+00
          1   -1    0    0  502    0  0.00000000000E+00  0.00000000000E+00  0.22144144747E+03  0.22144144747E+03  0.00000000000E+00 0.  1.
         13   -1    0    0    0    0 -0.00000000000E+00 -0.00000000000E+00 -0.27500000000E+03  0.27500000000E+03  0.00000000000E+00 0.  1.
    9000005    2    1    2  501    0 -0.14869871300E+02 -0.26292711451E+02 -0.42242249006E+02  0.46418499892E+03  0.46127094627E+03 0.  0.
         13    1    3    3    0    0 -0.87217900154E+02  0.48067454564E+02 -0.22946220360E+03  0.25014065079E+03  0.00000000000E+00 0.  1.
          3    1    3    3  501    0  0.72348028854E+02 -0.74360166015E+02  0.18721995459E+03  0.21404434813E+03  0.00000000000E+00 0.  1.
         21    1    1    2  502  501  0.14869871300E+02  0.26292711451E+02 -0.11316303522E+02  0.32256448554E+02  0.00000000000E+00 0.  1.
<scales pt_clust_4="550.00000" pt_clust_5="550.00000" pt_clust_6="30.20630"></scales>
<mgrwt>
<rscale>  0 0.30000000E+03</rscale>
<asrwt>  1 0.30206302E+02</asrwt>
<pdfrwt beam="1">  1        1 0.80524163E+00 0.30000000E+03</pdfrwt>
<pdfrwt beam="2">0</pdfrwt>
<totfact> 0.97581770E-04</totfact>
</mgrwt>
<clustering>
<clus scale="   30.206">  1  6  2 -1</clus>
<clus scale="  461.271">  4  5 -1 -1</clus>
<clus scale="  300.000">  1  4  2 -1</clus>
</clustering>
</event>
<event>
 6    1  0.1029244E-011  0.3000000E+03  0.7818608E-02  0.1093470E+00
          1   -1    0    0  502    0  0.00000000000E+00  0.00000000000E+00  0.23399393633E+03  0.23399393633E+03  0.00000000000E+00 0.  1.
         13   -1    0    0    0    0 -0.00000000000E+00 -0.00000000000E+00 -0.27500000000E+03  0.27500000000E+03  0.00000000000E+00 0.  1.
    9000005    2    1    2  501    0 -0.15305548323E+02  0.32375820108E+02 -0.69741117964E+02  0.46307926675E+03  0.45639470881E+03 0.  0.
         13    1    3    3    0    0  0.20324099073E+03 -0.47684097811E+02  0.28020992352E+02  0.21063202394E+03  0.00000000000E+00 0.  1.
          3    1    3    3  501    0 -0.21854653905E+03  0.80059917918E+02 -0.97762110316E+02  0.25244724281E+03  0.00000000000E+00 0.  1.
         21    1    1    2  502  501  0.15305548323E+02 -0.32375820108E+02  0.28735054299E+02  0.45914669580E+02  0.00000000000E+00 0.  1.
<scales pt_clust_4="550.00000" pt_clust_5="550.00000" pt_clust_6="35.81136"></scales>
<mgrwt>
<rscale>  0 0.30000000E+03</rscale>
<asrwt>  1 0.35811360E+02</asrwt>
<pdfrwt beam="1">  1        1 0.85088704E+00 0.30000000E+03</pdfrwt>
<pdfrwt beam="2">0</pdfrwt>
<totfact> 0.39752019E-04</totfact>
</mgrwt>
<clustering>
<clus scale="   35.811">  1  6  2 -1</clus>
<clus scale="  456.395">  4  5 -1 -1</clus>
<clus scale="  300.000">  1  4  2 -1</clus>
</clustering>
</event>
<event>
 6    1  0.1029244E-011  0.3000000E+03  0.7818608E-02  0.1093470E+00
          1   -1    0    0  502    0  0.00000000000E+00  0.00000000000E+00  0.22961026775E+03  0.22961026775E+03  0.00000000000E+00 0.  1.
         13   -1    0    0    0    0 -0.00000000000E+00 -0.00000000000E+00 -0.27500000000E+03  0.27500000000E+03  0.00000000000E+00 0.  1.
    9000005    2    1    2  501    0 -0.21065945723E+02  0.26199627180E+02 -0.49731246002E+02  0.47071272691E+03  0.46686944632E+03 0.  0.
         13    1    3    3    0    0 -0.79562678542E+02  0.16011236540E+03 -0.19507077128E+03  0.26461064827E+03  0.00000000000E+00 0.  1.
          1    1    3    3  501    0  0.58496732820E+02 -0.13391273822E+03  0.14533952528E+03  0.20610207863E+03  0.00000000000E+00 0.  1.
         21    1    1    2  502  501  0.21065945723E+02 -0.26199627180E+02  0.43415137548E+01  0.33897540843E+02  0.00000000000E+00 0.  1.
<scales pt_clust_4="550.00000" pt_clust_5="550.00000" pt_clust_6="33.61837"></scales>
<mgrwt>
<rscale>  0 0.30000000E+03</rscale>
<asrwt>  1 0.33618366E+02</asrwt>
<pdfrwt beam="1">  1        1 0.83494643E+00 0.30000000E+03</pdfrwt>
<pdfrwt beam="2">0</pdfrwt>
<totfact> 0.54558712E-04</totfact>
</mgrwt>
<clustering>
<clus scale="   33.618">  1  6  2 -1</clus>
<clus scale="  466.869">  4  5 -1 -1</clus>
<clus scale="  300.000">  1  4  2 -1</clus>
</clustering>
</event>
<event>
 6    1  0.1029244E-011  0.3000000E+03  0.7818608E-02  0.1093470E+00
          1   -1    0    0  502    0  0.00000000000E+00  0.00000000000E+00  0.24218546043E+03  0.24218546043E+03  0.00000000000E+00 0.  1.
         13   -1    0    0    0    0 -0.00000000000E+00 -0.00000000000E+00 -0.27500000000E+03  0.27500000000E+03  0.00000000000E+00 0.  1.
    9000005    2    1    2  501    0  0.64314887166E+01 -0.31363439666E+02 -0.41189485051E+02  0.48409212112E+03  0.48127287338E+03 0.  0.
         13    1    3    3    0    0 -0.19182161049E+03 -0.11832395910E+03 -0.11797690884E+03  0.25439072422E+03  0.00000000000E+00 0.  1.
          1    1    3    3  501    0  0.19825309921E+03  0.86960519437E+02  0.76787423784E+02  0.22970139690E+03  0.00000000000E+00 0.  1.
         21    1    1    2  502  501 -0.64314887166E+01  0.31363439666E+02  0.83749454766E+01  0.33093339308E+02  0.00000000000E+00 0.  1.
<scales pt_clust_4="550.00000" pt_clust_5="550.00000" pt_clust_6="32.01608"></scales>
<mgrwt>
<rscale>  0 0.30000000E+03</rscale>
<asrwt>  1 0.32016080E+02</asrwt>
<pdfrwt beam="1">  1        1 0.88067440E+00 0.30000000E+03</pdfrwt>
<pdfrwt beam="2">0</pdfrwt>
<totfact> 0.19687799E-04</totfact>
</mgrwt>
<clustering>
<clus scale="   32.016">  1  6  2 -1</clus>
<clus scale="  481.273">  4  5 -1 -1</clus>
<clus scale="  300.000">  1  4  2 -1</clus>
</clustering>
</event>
<event>
 6    1  0.1029244E-011  0.3000000E+03  0.7818608E-02  0.1093470E+00
          1   -1    0    0  502    0  0.00000000000E+00  0.00000000000E+00  0.25348415188E+03  0.25348415188E+03  0.00000000000E+00 0.  1.
         13   -1    0    0    0    0 -0.00000000000E+00 -0.00000000000E+00 -0.27500000000E+03  0.27500000000E+03  0.00000000000E+00 0.  1.
    9000005    2    1    2  501    0 -0.20143684950E+02  0.30451705164E+02 -0.37288208342E+02  0.48871177783E+03  0.48591739722E+03 0.  0.
         13    1    3    3    0    0  0.89430483893E+01  0.19667568552E+03 -0.18071568068E+03  0.26724419663E+03  0.00000000000E+00 0.  1.
          3    1    3    3  501    0 -0.29086733339E+02 -0.16622398035E+03  0.14342747234E+03  0.22146758120E+03  0.00000000000E+00 0.  1.
         21    1    1    2  502  501  0.20143684950E+02 -0.30451705164E+02  0.15772360225E+02  0.39772374053E+02  0.00000000000E+00 0.  1.
<scales pt_clust_4="550.00000" pt_clust_5="550.00000" pt_clust_6="36.51129"></scales>
<mgrwt>
<rscale>  0 0.30000000E+03</rscale>
<asrwt>  1 0.36511291E+02</asrwt>
<pdfrwt beam="1">  1        1 0.92176055E+00 0.30000000E+03</pdfrwt>
<pdfrwt beam="2">0</pdfrwt>
<totfact> 0.38018052E-05</totfact>
</mgrwt>
<clustering>
<clus scale="   36.511">  1  6  2 -1</clus>
<clus scale="  485.917">  4  5 -1 -1</clus>
<clus scale="  300.000">  1  4  2 -1</clus>
</clustering>
</event>
<event>
 6    1  0.1029244E-011  0.3000000E+03  0.7818608E-02  0.1093470E+00
          1   -1    0    0  502    0  0.00000000000E+00  0.00000000000E+00  0.23235678919E+03  0.23235678919E+03  0.00000000000E+00 0.  1.
         13   -1    0    0    0    0 -0.00000000000E+00 -0.00000000000E+00 -0.27500000000E+03  0.27500000000E+03  0.00000000000E+00 0.  1.
    9000005    2    1    2  501    0 -0.26360878045E+02 -0.21141083956E+02 -0.38006963606E+02  0.47324907583E+03  0.47050857290E+03 0.  0.
         13    1    3    3    0    0  0.45354647222E+02 -0.19427376531E+03  0.11592629777E+03  0.23073414665E+03  0.00000000000E+00 0.  1.
          3    1    3    3  501    0 -0.71715525267E+02  0.17313268136E+03 -0.15393326138E+03  0.24251492918E+03  0.00000000000E+00 0.  1.
         21    1    1    2  502  501  0.26360878045E+02  0.21141083956E+02 -0.46362472072E+01  0.34107713355E+02  0.00000000000E+00 0.  1.
<scales pt_clust_4="550.00000" pt_clust_5="550.00000" pt_clust_6="33.79116"></scales>
<mgrwt>
<rscale>  0 0.30000000E+03</rscale>
<asrwt>  1 0.33791160E+02</asrwt>
<pdfrwt beam="1">  1        1 0.84493378E+00 0.30000000E+03</pdfrwt>
<pdfrwt beam="2">0</pdfrwt>
<totfact> 0.45542021E-04</totfact>
</mgrwt>
<clustering>
<clus scale="   33.791">  1  6  2 -1</clus>
<clus scale="  470.509">  4  5 -1 -1</clus>
<clus scale="  300.000">  1  4  2 -1</clus>
</clustering>
</event>
<event>
 6    1  0.1029244E-011  0.3000000E+03  0.7818608E-02  0.1093470E+00
          1   -1    0    0  502    0  0.00000000000E+00  0.00000000000E+00  0.23920065008E+03  0.23920065008E+03  0.00000000000E+00 0.  1.
         13   -1    0    0    0    0 -0.00000000000E+00 -0.00000000000E+00 -0.27500000000E+03  0.27500000000E+03  0.00000000000E+00 0.  1.
    9000005    2    1    2  501    0  0.36316256598E+02  0.22622497095E+00 -0.53090417003E+02  0.47397748919E+03  0.46959253211E+03 0.  0.
         13    1    3    3    0    0 -0.12900954910E+03  0.11374271960E+03  0.11946763511E+03  0.20941200027E+03  0.00000000000E+00 0.  1.
          1    1    3    3  501    0  0.16532580570E+03 -0.11351649463E+03 -0.17255805211E+03  0.26456548892E+03  0.00000000000E+00 0.  1.
         21    1    1    2  502  501 -0.36316256598E+02 -0.22622497095E+00  0.17291067087E+02  0.40223160891E+02  0.00000000000E+00 0.  1.
<scales pt_clust_4="550.00000" pt_clust_5="550.00000" pt_clust_6="36.31696"></scales>
<mgrwt>
<rscale>  0 0.30000000E+03</rscale>
<asrwt>  1 0.36316961E+02</asrwt>
<pdfrwt beam="1">  1        1 0.86982055E+00 0.30000000E+03</pdfrwt>
<pdfrwt beam="2">0</pdfrwt>
<totfact> 0.25257894E-04</totfact>
</mgrwt>
<clustering>
<clus scale="   36.317">  1  6  2 -1</clus>
<clus scale="  469.593">  4  5 -1 -1</clus>
<clus scale="  300.000">  1  4  2 -1</clus>
</clustering>
</event>
<event>
 6    1  0.1029244E-011  0.3000000E+03  0.7818608E-02  0.1093470E+00
          1   -1    0    0  502    0  0.00000000000E+00  0.00000000000E+00  0.24325256490E+03  0.24325256490E+03  0.00000000000E+00 0.  1.
         13   -1    0    0    0    0 -0.00000000000E+00 -0.00000000000E+00 -0.27500000000E+03  0.27500000000E+03  0.00000000000E+00 0.  1.
    9000005    2    1    2  501    0 -0.30331211465E+02  0.50335147711E+01 -0.31094466462E+02  0.48749959711E+03  0.48553441967E+03 0.  0.
         13    1    3    3    0    0  0.19499084585E+03  0.87467640298E+02 -0.10271146965E+03  0.23711107959E+03  0.00000000000E+00 0.  1.
          3    1    3    3  501    0 -0.22532205731E+03 -0.82434125526E+02  0.71617003192E+02  0.25038851753E+03  0.00000000000E+00 0.  1.
         21    1    1    2  502  501  0.30331211465E+02 -0.50335147711E+01 -0.65296863576E+00  0.30752967790E+02  0.00000000000E+00 0. -1.
<scales pt_clust_4="550.00000" pt_clust_5="550.00000" pt_clust_6="30.74603"></scales>
<mgrwt>
<rscale>  0 0.30000000E+03</rscale>
<asrwt>  1 0.30746035E+02</asrwt>
<pdfrwt beam="1">  1        1 0.88455478E+00 0.30000000E+03</pdfrwt>
<pdfrwt beam="2">0</pdfrwt>
<totfact> 0.17637704E-04</totfact>
</mgrwt>
<clustering>
<clus scale="   30.746">  1  6  2 -1</clus>
<clus scale="  485.534">  4  5 -1 -1</clus>
<clus scale="  300.000">  1  4  2 -1</clus>
</clustering>
</event>
<event>
 6    1  0.1029244E-011  0.3000000E+03  0.7818608E-02  0.1093470E+00
          1   -1    0    0  502    0  0.00000000000E+00  0.00000000000E+00  0.23369085646E+03  0.23369085646E+03  0.00000000000E+00 0.  1.
         13   -1    0    0    0    0 -0.00000000000E+00 -0.00000000000E+00 -0.27500000000E+03  0.27500000000E+03  0.00000000000E+00 0.  1.
    9000005    2    1    2  501    0  0.30910166357E+02  0.49878111607E+01 -0.64358823974E+02  0.46981149931E+03  0.46432797677E+03 0.  0.
         13    1    3    3    0    0  0.13539211639E+03 -0.19633702027E+03 -0.36965524014E+02  0.24134146075E+03  0.00000000000E+00 0.  1.
          1    1    3    3  501    0 -0.10448195004E+03  0.20132483144E+03 -0.27393299960E+02  0.22847003856E+03  0.00000000000E+00 0.  1.
         21    1    1    2  502  501 -0.30910166357E+02 -0.49878111607E+01  0.23049680433E+02  0.38879357151E+02  0.00000000000E+00 0.  1.
<scales pt_clust_4="550.00000" pt_clust_5="550.00000" pt_clust_6="31.31001"></scales>
<mgrwt>
<rscale>  0 0.30000000E+03</rscale>
<asrwt>  1 0.31310009E+02</asrwt>
<pdfrwt beam="1">  1        1 0.84978493E+00 0.30000000E+03</pdfrwt>
<pdfrwt beam="2">0</pdfrwt>
<totfact> 0.41757999E-04</totfact>
</mgrwt>
<clustering>
<clus scale="   31.310">  1  6  2 -1</clus>
<clus scale="  464.328">  4  5 -1 -1</clus>
<clus scale="  300.000">  1  4  2 -1</clus>
</clustering>
</event>
<event>
 6    1  0.1029244E-011  0.3000000E+03  0.7818608E-02  0.1093470E+00
          1   -1    0    0  502    0  0.00000000000E+00  0.00000000000E+00  0.22769274372E+03  0.22769274372E+03  0.00000000000E+00 0.  1.
         13   -1    0    0    0    0 -0.00000000000E+00 -0.00000000000E+00 -0.27500000000E+03  0.27500000000E+03  0.00000000000E+00 0.  1.
    9000005    2    1    2  501    0  0.14050313164E+02 -0.31901174552E+02 -0.39520714455E+02  0.46697543039E+03  0.46399253170E+03 0.  0.
         13    1    3    3    0    0  0.15778180781E+03  0.92714721060E+02 -0.15892062322E+03  0.24237756262E+03  0.00000000000E+00 0.  1.
          3    1    3    3  501    0 -0.14373149464E+03 -0.12461589561E+03  0.11939990877E+03  0.22459786777E+03  0.00000000000E+00 0.  1.
         21    1    1    2  502  501 -0.14050313164E+02  0.31901174552E+02 -0.77865418290E+01  0.35717313329E+02  0.00000000000E+00 0. -1.
<scales pt_clust_4="550.00000" pt_clust_5="550.00000" pt_clust_6="34.85825"></scales>
<mgrwt>
<rscale>  0 0.30000000E+03</rscale>
<asrwt>  1 0.34858248E+02</asrwt>
<pdfrwt beam="1">  1        1 0.82797361E+00 0.30000000E+03</pdfrwt>
<pdfrwt beam="2">0</pdfrwt>
<totfact> 0.61533653E-04</totfact>
</mgrwt>
<clustering>
<clus scale="   34.858">  1  6  2 -1</clus>
<clus scale="  463.993">  4  5 -1 -1</clus>
<clus scale="  300.000">  1  4  2 -1</clus>
</clustering>
</event>
<event>
 6    1  0.1029244E-011  0.3000000E+03  0.7818608E-02  0.1093470E+00
          1   -1    0    0  502    0  0.00000000000E+00  0.00000000000E+00  0.22374263490E+03  0.22374263490E+03  0.00000000000E+00 0.  1.
         13   -1    0    0    0    0 -0.00000000000E+00 -0.00000000000E+00 -0.27500000000E+03  0.27500000000E+03  0.00000000000E+00 0.  1.
    9000005    2    1    2  501    0  0.14470230961E+02 -0.27538072515E+02 -0.52631965341E+02  0.46760387211E+03  0.46358982346E+03 0.  0.
         13    1    3    3    0    0 -0.55964296105E+02  0.10173611343E+03  0.16687751116E+03  0.20329865456E+03  0.00000000000E+00 0.  1.
          3    1    3    3  501    0  0.70434527066E+02 -0.12927418594E+03 -0.21950947650E+03  0.26430521756E+03  0.00000000000E+00 0.  1.
         21    1    1    2  502  501 -0.14470230961E+02  0.27538072515E+02  0.13746002384E+01  0.31138762784E+02  0.00000000000E+00 0. -1.
<scales pt_clust_4="550.00000" pt_clust_5="550.00000" pt_clust_6="31.10841"></scales>
<mgrwt>
<rscale>  0 0.30000000E+03</rscale>
<asrwt>  1 0.31108408E+02</asrwt>
<pdfrwt beam="1">  1        1 0.81360958E+00 0.30000000E+03</pdfrwt>
<pdfrwt beam="2">0</pdfrwt>
<totfact> 0.83519983E-04</totfact>
</mgrwt>
<clustering>
<clus scale="   31.108">  1  6  2 -1</clus>
<clus scale="  463.590">  4  5 -1 -1</clus>
<clus scale="  300.000">  1  4  2 -1</clus>
</clustering>
</event>
<event>
 6    1  0.1029244E-011  0.3000000E+03  0.7818608E-02  0.1093470E+00
          1   -1    0    0  502    0  0.00000000000E+00  0.00000000000E+00  0.23745657660E+03  0.23745657660E+03  0.00000000000E+00 0.  1.
         13   -1    0    0    0    0 -0.00000000000E+00 -0.00000000000E+00 -0.27500000000E+03  0.27500000000E+03  0.00000000000E+00 0.  1.
    9000005    2    1    2  501    0  0.54842924328E+01  0.36628790127E+02 -0.66562131817E+02  0.46540520927E+03  0.45912933438E+03 0.  0.
         13    1    3    3    0    0  0.18444336191E+03  0.60637775224E+01  0.10776991146E+03  0.21370652064E+03  0.00000000000E+00 0.  1.
          3    1    3    3  501    0 -0.17895906948E+03  0.30565012604E+02 -0.17433204327E+03  0.25169868862E+03  0.00000000000E+00 0.  1.
         21    1    1    2  502  501 -0.54842924328E+01 -0.36628790127E+02  0.29018708413E+02  0.47051367330E+02  0.00000000000E+00 0.  1.
<scales pt_clust_4="550.00000" pt_clust_5="550.00000" pt_clust_6="37.03709"></scales>
<mgrwt>
<rscale>  0 0.30000000E+03</rscale>
<asrwt>  1 0.37037086E+02</asrwt>
<pdfrwt beam="1">  1        1 0.86347846E+00 0.30000000E+03</pdfrwt>
<pdfrwt beam="2">0</pdfrwt>
<totfact> 0.29360944E-04</totfact>
</mgrwt>
<clustering>
<clus scale="   37.037">  1  6  2 -1</clus>
<clus scale="  459.129">  4  5 -1 -1</clus>
<clus scale="  300.000">  1  4  2 -1</clus>
</clustering>
</event>
<event>
 6    1  0.1029244E-011  0.3000000E+03  0.7818608E-02  0.1093470E+00
          1   -1    0    0  502    0  0.00000000000E+00  0.00000000000E+00  0.23459911310E+03  0.23459911310E+03  0.00000000000E+00 0.  1.
         13   -1    0    0    0    0 -0.00000000000E+00 -0.00000000000E+00 -0.27500000000E+03  0.27500000000E+03  0.00000000000E+00 0.  1.
    9000005    2    1    2  501    0  0.20712072113E+02 -0.32703036976E+02 -0.40651236335E+02  0.47088811681E+03  0.46753033803E+03 0.  0.
         13    1    3    3    0    0  0.14608052355E+03 -0.20106790874E+03  0.27832754005E+02  0.25008495653E+03  0.00000000000E+00 0.  1.
          1    1    3    3  501    0 -0.12536845143E+03  0.16836487177E+03 -0.68483990340E+02  0.22080316029E+03  0.00000000000E+00 0.  1.
         21    1    1    2  502  501 -0.20712072113E+02  0.32703036976E+02  0.25034943639E+00  0.38710996287E+02  0.00000000000E+00 0.  1.
<scales pt_clust_4="550.00000" pt_clust_5="550.00000" pt_clust_6="38.71019"></scales>
<mgrwt>
<rscale>  0 0.30000000E+03</rscale>
<asrwt>  1 0.38710187E+02</asrwt>
<pdfrwt beam="1">  1        1 0.85308768E+00 0.30000000E+03</pdfrwt>
<pdfrwt beam="2">0</pdfrwt>
<totfact> 0.37328921E-04</totfact>
</mgrwt>
<clustering>
<clus scale="   38.710">  1  6  2 -1</clus>
<clus scale="  467.530">  4  5 -1 -1</clus>
<clus scale="  300.000">  1  4  2 -1</clus>
</clustering>
</event>
<event>
 6    1  0.1029244E-011  0.3000000E+03  0.7818608E-02  0.1093470E+00
          1   -1    0    0  502    0  0.00000000000E+00  0.00000000000E+00  0.23625330193E+03  0.23625330193E+03  0.00000000000E+00 0.  1.
         13   -1    0    0    0    0 -0.00000000000E+00 -0.00000000000E+00 -0.27500000000E+03  0.27500000000E+03  0.00000000000E+00 0.  1.
    9000005    2    1    2  501    0 -0.25943022119E+02  0.30403186797E+02 -0.58267807171E+02  0.46677333043E+03  0.46139441965E+03 0.  0.
         13    1    3    3    0    0  0.10962377564E+03 -0.17891799489E+03 -0.56798368323E+02  0.21738232616E+03  0.00000000000E+00 0.  1.
          1    1    3    3  501    0 -0.13556679776E+03  0.20932118169E+03 -0.14694388483E+01  0.24939100427E+03  0.00000000000E+00 0.  1.
         21    1    1    2  502  501  0.25943022119E+02 -0.30403186797E+02  0.19521109100E+02  0.44479971499E+02  0.00000000000E+00 0.  1.
<scales pt_clust_4="550.00000" pt_clust_5="550.00000" pt_clust_6="39.96741"></scales>
<mgrwt>
<rscale>  0 0.30000000E+03</rscale>
<asrwt>  1 0.39967414E+02</asrwt>
<pdfrwt beam="1">  1        1 0.85910292E+00 0.30000000E+03</pdfrwt>
<pdfrwt beam="2">0</pdfrwt>
<totfact> 0.32263037E-04</totfact>
</mgrwt>
<clustering>
<clus scale="   39.967">  1  6  2 -1</clus>
<clus scale="  461.394">  4  5 -1 -1</clus>
<clus scale="  300.000">  1  4  2 -1</clus>
</clustering>
</event>
<event>
 6    1  0.1029244E-011  0.3000000E+03  0.7818608E-02  0.1093470E+00
          1   -1    0    0  502    0  0.00000000000E+00  0.00000000000E+00  0.22338753731E+03  0.22338753731E+03  0.00000000000E+00 0.  1.
         13   -1    0    0    0    0 -0.00000000000E+00 -0.00000000000E+00 -0.27500000000E+03  0.27500000000E+03  0.00000000000E+00 0.  1.
    9000005    2    1    2  501    0  0.15880378929E+02 -0.33576559197E+02 -0.47259925775E+02  0.46099079494E+03  0.45705518340E+03 0.  0.
         13    1    3    3    0    0  0.84876727639E+02  0.10920789445E+03  0.15253790544E+03  0.20590831868E+03  0.00000000000E+00 0.  1.
          3    1    3    3  501    0 -0.68996348710E+02 -0.14278445365E+03 -0.19979783121E+03  0.25508247626E+03  0.00000000000E+00 0.  1.
         21    1    1    2  502  501 -0.15880378929E+02  0.33576559197E+02 -0.43525369158E+01  0.37396742372E+02  0.00000000000E+00 0.  1.
<scales pt_clust_4="550.00000" pt_clust_5="550.00000" pt_clust_6="37.14261"></scales>
<mgrwt>
<rscale>  0 0.30000000E+03</rscale>
<asrwt>  1 0.37142605E+02</asrwt>
<pdfrwt beam="1">  1        1 0.81231832E+00 0.30000000E+03</pdfrwt>
<pdfrwt beam="2">0</pdfrwt>
<totfact> 0.82713954E-04</totfact>
</mgrwt>
<clustering>
<clus scale="   37.143">  1  6  2 -1</clus>
<clus scale="  457.055">  4  5 -1 -1</clus>
<clus scale="  300.000">  1  4  2 -1</clus>
</clustering>
</event>
<event>
 6    1  0.1029244E-011  0.3000000E+03  0.7818608E-02  0.1093470E+00
          1   -1    0    0  502    0  0.00000000000E+00  0.00000000000E+00  0.23716939702E+03  0.23716939702E+03  0.00000000000E+00 0.  1.
         13   -1    0    0    0    0 -0.00000000000E+00 -0.00000000000E+00 -0.27500000000E+03  0.27500000000E+03  0.00000000000E+00 0.  1.
    9000005    2    1    2  501    0  0.26879054227E+02  0.28641544364E+02 -0.63325328814E+02  0.46534202612E+03  0.45933678536E+03 0.  0.
         13    1    3    3    0    0  0.13069378339E+03 -0.79215491255E+02 -0.20736490467E+03  0.25759689974E+03  0.00000000000E+00 0.  1.
          1    1    3    3  501    0 -0.10381472916E+03  0.10785703562E+03  0.14403957585E+03  0.20774512638E+03  0.00000000000E+00 0.  1.
         21    1    1    2  502  501 -0.26879054227E+02 -0.28641544364E+02  0.25494725833E+02  0.46827370896E+02  0.00000000000E+00 0. -1.
<scales pt_clust_4="550.00000" pt_clust_5="550.00000" pt_clust_6="39.27877"></scales>
<mgrwt>
<rscale>  0 0.30000000E+03</rscale>
<asrwt>  1 0.39278768E+02</asrwt>
<pdfrwt beam="1">  1        1 0.86243417E+00 0.30000000E+03</pdfrwt>
<pdfrwt beam="2">0</pdfrwt>
<totfact> 0.29810712E-04</totfact>
</mgrwt>
<clustering>
<clus scale="   39.279">  1  6  2 -1</clus>
<clus scale="  459.337">  4  5 -1 -1</clus>
<clus scale="  300.000">  1  4  2 -1</clus>
</clustering>
</event>
<event>
 6    1  0.1029244E-011  0.3000000E+03  0.7818608E-02  0.1093470E+00
          1   -1    0    0  502    0  0.00000000000E+00  0.00000000000E+00  0.24009616237E+03  0.24009616237E+03  0.00000000000E+00 0.  1.
         13   -1    0    0    0    0 -0.00000000000E+00 -0.00000000000E+00 -0.27500000000E+03  0.27500000000E+03  0.00000000000E+00 0.  1.
    9000005    2    1    2  501    0 -0.15749609925E+01  0.39586090570E+02 -0.65490197843E+02  0.46504554300E+03  0.45870344666E+03 0.  0.
         13    1    3    3    0    0  0.14676827266E+03 -0.10833982276E+03 -0.15291962326E+03  0.23803960644E+03  0.00000000000E+00 0.  1.
          3    1    3    3  501    0 -0.14834323365E+03  0.14792591333E+03  0.87429425421E+02  0.22700593656E+03  0.00000000000E+00 0.  1.
         21    1    1    2  502  501  0.15749609925E+01 -0.39586090570E+02  0.30586360215E+02  0.50050619376E+02  0.00000000000E+00 0.  1.
<scales pt_clust_4="550.00000" pt_clust_5="550.00000" pt_clust_6="39.61741"></scales>
<mgrwt>
<rscale>  0 0.30000000E+03</rscale>
<asrwt>  1 0.39617409E+02</asrwt>
<pdfrwt beam="1">  1        1 0.87307695E+00 0.30000000E+03</pdfrwt>
<pdfrwt beam="2">0</pdfrwt>
<totfact> 0.23021376E-04</totfact>
</mgrwt>
<clustering>
<clus scale="   39.617">  1  6  2 -1</clus>
<clus scale="  458.703">  4  5 -1 -1</clus>
<clus scale="  300.000">  1  4  2 -1</clus>
</clustering>
</event>
<event>
 6    1  0.1029244E-011  0.3000000E+03  0.7818608E-02  0.1093470E+00
          1   -1    0    0  502    0  0.00000000000E+00  0.00000000000E+00  0.22240435900E+03  0.22240435900E+03  0.00000000000E+00 0.  1.
         13   -1    0    0    0    0 -0.00000000000E+00 -0.00000000000E+00 -0.27500000000E+03  0.27500000000E+03  0.00000000000E+00 0.  1.
    9000005    2    1    2  501    0 -0.31972551086E+02 -0.12729160521E+02 -0.54937443748E+02  0.46291146712E+03  0.45834989703E+03 0.  0.
         13    1    3    3    0    0  0.15246890510E+03 -0.69674244026E+02 -0.16954064637E+03  0.23842252007E+03  0.00000000000E+00 0.  1.
          1    1    3    3  501    0 -0.18444145619E+03  0.56945083506E+02  0.11460320262E+03  0.22448894705E+03  0.00000000000E+00 0.  1.
         21    1    1    2  502  501  0.31972551086E+02  0.12729160521E+02  0.23418027488E+01  0.34492891885E+02  0.00000000000E+00 0. -1.
<scales pt_clust_4="550.00000" pt_clust_5="550.00000" pt_clust_6="34.41330"></scales>
<mgrwt>
<rscale>  0 0.30000000E+03</rscale>
<asrwt>  1 0.34413305E+02</asrwt>
<pdfrwt beam="1">  1        1 0.80874312E+00 0.30000000E+03</pdfrwt>
<pdfrwt beam="2">0</pdfrwt>
<totfact> 0.89480868E-04</totfact>
</mgrwt>
<clustering>
<clus scale="   34.413">  1  6  2 -1</clus>
<clus scale="  458.350">  4  5 -1 -1</clus>
<clus scale="  300.000">  1  4  2 -1</clus>
</clustering>
</event>
<event>
 6    1  0.1029244E-011  0.3000000E+03  0.7818608E-02  0.1093470E+00
          1   -1    0    0  502    0  0.00000000000E+00  0.00000000000E+00  0.23238430961E+03  0.23238430961E+03  0.00000000000E+00 0.  1.
         13   -1    0    0    0    0 -0.00000000000E+00 -0.00000000000E+00 -0.27500000000E+03  0.27500000000E+03  0.00000000000E+00 0.  1.
    9000005    2    1    2  501    0  0.16168487880E+02  0.26466264544E+02 -0.58604776986E+02  0.47249112905E+03  0.46781563034E+03 0.  0.
         13    1    3    3    0    0  0.10140143032E+03  0.52317975932E+02  0.18262710917E+03  0.21534177876E+03  0.00000000000E+00 0.  1.
          1    1    3    3  501    0 -0.85232942441E+02 -0.25851711388E+02 -0.24123188615E+03  0.25714935029E+03  0.00000000000E+00 0.  1.
         21    1    1    2  502  501 -0.16168487880E+02 -0.26466264544E+02  0.15989086596E+02  0.34893180558E+02  0.00000000000E+00 0.  1.
<scales pt_clust_4="550.00000" pt_clust_5="550.00000" pt_clust_6="31.01424"></scales>
<mgrwt>
<rscale>  0 0.30000000E+03</rscale>
<asrwt>  1 0.31014241E+02</asrwt>
<pdfrwt beam="1">  1        1 0.84503385E+00 0.30000000E+03</pdfrwt>
<pdfrwt beam="2">0</pdfrwt>
<totfact> 0.46196162E-04</totfact>
</mgrwt>
<clustering>
<clus scale="   31.014">  1  6  2 -1</clus>
<clus scale="  467.816">  4  5 -1 -1</clus>
<clus scale="  300.000">  1  4  2 -1</clus>
</clustering>
</event>
<event>
 6    1  0.1029244E-011  0.3000000E+03  0.7818608E-02  0.1093470E+00
          1   -1    0    0  502    0  0.00000000000E+00  0.00000000000E+00  0.24203345443E+03  0.24203345443E+03  0.00000000000E+00 0.  1.
         13   -1    0    0    0    0 -0.00000000000E+00 -0.00000000000E+00 -0.27500000000E+03  0.27500000000E+03  0.00000000000E+00 0.  1.
    9000005    2    1    2  501    0 -0.23606893412E+02 -0.34179830311E+02 -0.32722696593E+02  0.47549304424E+03  0.47254345200E+03 0.  0.
         13    1    3    3    0    0 -0.20352392848E+03 -0.76796067097E+01  0.12140453883E+03  0.23710762930E+03  0.00000000000E+00 0.  1.
          3    1    3    3  501    0  0.17991703507E+03 -0.26500223601E+02 -0.15412723542E+03  0.23838541494E+03  0.00000000000E+00 0.  1.
         21    1    1    2  502  501  0.23606893412E+02  0.34179830311E+02 -0.24384897532E+00  0.41540410192E+02  0.00000000000E+00 0. -1.
<scales pt_clust_4="550.00000" pt_clust_5="550.00000" pt_clust_6="41.53969"></scales>
<mgrwt>
<rscale>  0 0.30000000E+03</rscale>
<asrwt>  1 0.41539694E+02</asrwt>
<pdfrwt beam="1">  1        1 0.88012165E+00 0.30000000E+03</pdfrwt>
<pdfrwt beam="2">0</pdfrwt>
<totfact> 0.19058922E-04</totfact>
</mgrwt>
<clustering>
<clus scale="   41.540">  1  6  2 -1</clus>
<clus scale="  472.543">  4  5 -1 -1</clus>
<clus scale="  300.000">  1  4  2 -1</clus>
</clustering>
</event>
<event>
 6    1  0.1029244E-011  0.3000000E+03  0.7818608E-02  0.1093470E+00
          1   -1    0    0  502    0  0.00000000000E+00  0.00000000000E+00  0.23163771860E+03  0.23163771860E+03  0.00000000000E+00 0.  1.
         13   -1    0    0    0    0 -0.00000000000E+00 -0.00000000000E+00 -0.27500000000E+03  0.27500000000E+03  0.00000000000E+00 0.  1.
    9000005    2    1    2  501    0  0.34516681241E+02  0.52847197444E+00 -0.42265869289E+02  0.47209958480E+03  0.46893489281E+03 0.  0.
         13    1    3    3    0    0  0.14079223489E+02  0.94493031733E+02  0.19442015942E+03  0.21662492001E+03  0.00000000000E+00 0.  1.
          3    1    3    3  501    0  0.20437457753E+02 -0.93964559759E+02 -0.23668602870E+03  0.25547466480E+03  0.00000000000E+00 0.  1.
         21    1    1    2  502  501 -0.34516681241E+02 -0.52847197444E+00 -0.10964121114E+01  0.34538133795E+02  0.00000000000E+00 0.  1.
<scales pt_clust_4="550.00000" pt_clust_5="550.00000" pt_clust_6="34.52073"></scales>
<mgrwt>
<rscale>  0 0.30000000E+03</rscale>
<asrwt>  1 0.34520727E+02</asrwt>
<pdfrwt beam="1">  1        1 0.84231898E+00 0.30000000E+03</pdfrwt>
<pdfrwt beam="2">0</pdfrwt>
<totfact> 0.47748849E-04</totfact>
</mgrwt>
<clustering>
<clus scale="   34.521">  1  6  2 -1</clus>
<clus scale="  468.935">  4  5 -1 -1</clus>
<clus scale="  300.000">  1  4  2 -1</clus>
</clustering>
</event>
<event>
 6    1  0.1029244E-011  0.3000000E+03  0.7818608E-02  0.1093470E+00
          1   -1    0    0  502    0  0.00000000000E+00  0.00000000000E+00  0.24985380292E+03  0.24985380292E+03  0.00000000000E+00 0.  1.
         13   -1    0    0    0    0 -0.00000000000E+00 -0.00000000000E+00 -0.27500000000E+03  0.27500000000E+03  0.00000000000E+00 0.  1.
    9000005    2    1    2  501    0  0.42490241658E+01 -0.30587024395E+02 -0.36213288446E+02  0.49204982787E+03  0.48974280044E+03 0.  0.
         13    1    3    3    0    0  0.16521989586E+03 -0.19322860221E+03 -0.62243302885E+02  0.26174249837E+03  0.00000000000E+00 0.  1.
          3    1    3    3  501    0 -0.16097087170E+03  0.16264157782E+03  0.26030014440E+02  0.23030732950E+03  0.00000000000E+00 0.  1.
         21    1    1    2  502  501 -0.42490241658E+01  0.30587024395E+02  0.11067091366E+02  0.32803975049E+02  0.00000000000E+00 0. -1.
<scales pt_clust_4="550.00000" pt_clust_5="550.00000" pt_clust_6="30.88074"></scales>
<mgrwt>
<rscale>  0 0.30000000E+03</rscale>
<asrwt>  1 0.30880743E+02</asrwt>
<pdfrwt beam="1">  1        1 0.90855928E+00 0.30000000E+03</pdfrwt>
<pdfrwt beam="2">0</pdfrwt>
<totfact> 0.79616035E-05</totfact>
</mgrwt>
<clustering>
<clus scale="   30.881">  1  6  2 -1</clus>
<clus scale="  489.743">  4  5 -1 -1</clus>
<clus scale="  300.000">  1  4  2 -1</clus>
</clustering>
</event>
<event>
 6    1  0.1029244E-011  0.3000000E+03  0.7818608E-02  0.1093470E+00
          1   -1    0    0  502    0  0.00000000000E+00  0.00000000000E+00  0.24044482454E+03  0.24044482454E+03  0.00000000000E+00 0.  1.
         13   -1    0    0    0    0 -0.00000000000E+00 -0.00000000000E+00 -0.27500000000E+03  0.27500000000E+03  0.00000000000E+00 0.  1.
    9000005    2    1    2  501    0  0.28644697158E+02  0.10554323275E+02 -0.57835187227E+02  0.47705379222E+03  0.47254999669E+03 0.  0.
         13    1    3    3    0    0  0.58426931612E+02 -0.82527626594E+01 -0.26266814891E+03  0.26921435861E+03  0.00000000000E+00 0.  1.
          1    1    3    3  501    0 -0.29782234454E+02  0.18807085934E+02  0.20483296168E+03  0.20783943361E+03  0.00000000000E+00 0.  1.
         21    1    1    2  502  501 -0.28644697158E+02 -0.10554323275E+02  0.23280011769E+02  0.38391032326E+02  0.00000000000E+00 0.  1.
<scales pt_clust_4="550.00000" pt_clust_5="550.00000" pt_clust_6="30.52724"></scales>
<mgrwt>
<rscale>  0 0.30000000E+03</rscale>
<asrwt>  1 0.30527241E+02</asrwt>
<pdfrwt beam="1">  1        1 0.87434482E+00 0.30000000E+03</pdfrwt>
<pdfrwt beam="2">0</pdfrwt>
<totfact> 0.23452187E-04</totfact>
</mgrwt>
<clustering>
<clus scale="   30.527">  1  6  2 -1</clus>
<clus scale="  472.550">  4  5 -1 -1</clus>
<clus scale="  300.000">  1  4  2 -1</clus>
</clustering>
</event>
<event>
 6    1  0.1029244E-011  0.3000000E+03  0.7818608E-02  0.1093470E+00
          1   -1    0    0  502    0  0.00000000000E+00  0.00000000000E+00  0.25417307678E+03  0.25417307678E+03  0.00000000000E+00 0.  1.
         13   -1    0    0    0    0 -0.00000000000E+00 -0.00000000000E+00 -0.27500000000E+03  0.27500000000E+03  0.00000000000E+00 0.  1.
    9000005    2    1    2  501    0  0.22771810161E+02 -0.19910539586E+02 -0.56289086998E+02  0.48256245584E+03  0.47831274032E+03 0.  0.
         13    1    3    3    0    0 -0.21378261656E+03  0.10512206277E+01  0.54331275821E+02  0.22058105027E+03  0.00000000000E+00 0.  1.
          3    1    3    3  501    0  0.23655442672E+03 -0.20961760214E+02 -0.11062036282E+03  0.26198140557E+03  0.00000000000E+00 0.  1.
         21    1    1    2  502  501 -0.22771810161E+02  0.19910539586E+02  0.35462163782E+02  0.46610620943E+02  0.00000000000E+00 0.  1.
<scales pt_clust_4="550.00000" pt_clust_5="550.00000" pt_clust_6="30.24872"></scales>
<mgrwt>
<rscale>  0 0.30000000E+03</rscale>
<asrwt>  1 0.30248718E+02</asrwt>
<pdfrwt beam="1">  1        1 0.92426573E+00 0.30000000E+03</pdfrwt>
<pdfrwt beam="2">0</pdfrwt>
<totfact> 0.34912996E-05</totfact>
</mgrwt>
<clustering>
<clus scale="   30.249">  1  6  2 -1</clus>
<clus scale="  478.313">  4  5 -1 -1</clus>
<clus scale="  300.000">  1  4  2 -1</clus>
</clustering>
</event>
<event>
 6    1  0.1029244E-011  0.3000000E+03  0.7818608E-02  0.1093470E+00
          1   -1    0    0  502    0  0.00000000000E+00  0.00000000000E+00  0.23968414882E+03  0.23968414882E+03  0.00000000000E+00 0.  1.
         13   -1    0    0    0    0 -0.00000000000E+00 -0.00000000000E+00 -0.27500000000E+03  0.27500000000E+03  0.00000000000E+00 0.  1.
    9000005    2    1    2  501    0 -0.34991214839E+02  0.91454624792E+01 -0.39542391869E+02  0.47827140042E+03  0.47525983115E+03 0.  0.
         13    1    3    3    0    0 -0.21400058654E+02 -0.94054662352E+00 -0.25813616115E+03  0.25902340596E+03  0.00000000000E+00 0.  1.
          3    1    3    3  501    0 -0.13591156185E+02  0.10086009103E+02  0.21859376928E+03  0.21924799446E+03  0.00000000000E+00 0.  1.
         21    1    1    2  502  501  0.34991214839E+02 -0.91454624792E+01  0.42265406888E+01  0.36412748401E+02  0.00000000000E+00 0. -1.
<scales pt_clust_4="550.00000" pt_clust_5="550.00000" pt_clust_6="36.16662"></scales>
<mgrwt>
<rscale>  0 0.30000000E+03</rscale>
<asrwt>  1 0.36166623E+02</asrwt>
<pdfrwt beam="1">  1        1 0.87157872E+00 0.30000000E+03</pdfrwt>
<pdfrwt beam="2">0</pdfrwt>
<totfact> 0.24253661E-04</totfact>
</mgrwt>
<clustering>
<clus scale="   36.167">  1  6  2 -1</clus>
<clus scale="  475.260">  4  5 -1 -1</clus>
<clus scale="  300.000">  1  4  2 -1</clus>
</clustering>
</event>
<event>
 6    1  0.1029244E-011  0.3000000E+03  0.7818608E-02  0.1093470E+00
          1   -1    0    0  502    0  0.00000000000E+00  0.00000000000E+00  0.23304979474E+03  0.23304979474E+03  0.00000000000E+00 0.  1.
         13   -1    0    0    0    0 -0.00000000000E+00 -0.00000000000E+00 -0.27500000000E+03  0.27500000000E+03  0.00000000000E+00 0.  1.
    9000005    2    1    2  501    0  0.31940869251E+02 -0.10757305907E+02 -0.70591757016E+02  0.46381997170E+03  0.45717593029E+03 0.  0.
         13    1    3    3    0    0  0.12684680569E+03  0.10653024306E+03  0.13158663512E+03  0.21155105138E+03  0.00000000000E+00 0.  1.
          1    1    3    3  501    0 -0.94905936438E+02 -0.11728754896E+03 -0.20217839214E+03  0.25226892032E+03  0.00000000000E+00 0.  1.
         21    1    1    2  502  501 -0.31940869251E+02  0.10757305907E+02  0.28641551753E+02  0.44229823035E+02  0.00000000000E+00 0. -1.
<scales pt_clust_4="550.00000" pt_clust_5="550.00000" pt_clust_6="33.70369"></scales>
<mgrwt>
<rscale>  0 0.30000000E+03</rscale>
<asrwt>  1 0.33703691E+02</asrwt>
<pdfrwt beam="1">  1        1 0.84745380E+00 0.30000000E+03</pdfrwt>
<pdfrwt beam="2">0</pdfrwt>
<totfact> 0.43268829E-04</totfact>
</mgrwt>
<clustering>
<clus scale="   33.704">  1  6  2 -1</clus>
<clus scale="  457.176">  4  5 -1 -1</clus>
<clus scale="  300.000">  1  4  2 -1</clus>
</clustering>
</event>
<event>
 6    1  0.1029244E-011  0.3000000E+03  0.7818608E-02  0.1093470E+00
          1   -1    0    0  502    0  0.00000000000E+00  0.00000000000E+00  0.22400141741E+03  0.22400141741E+03  0.00000000000E+00 0.  1.
         13   -1    0    0    0    0 -0.00000000000E+00 -0.00000000000E+00 -0.27500000000E+03  0.27500000000E+03  0.00000000000E+00 0.  1.
    9000005    2    1    2  501    0 -0.23144870838E+01 -0.34024437196E+02 -0.55398391370E+02  0.46461570098E+03  0.46003885559E+03 0.  0.
         13    1    3    3    0    0  0.71995026297E+02  0.89351094430E+02 -0.21863916736E+03  0.24692101448E+03  0.00000000000E+00 0.  1.
          1    1    3    3  501    0 -0.74309513381E+02 -0.12337553163E+03  0.16324077599E+03  0.21769468650E+03  0.00000000000E+00 0.  1.
         21    1    1    2  502  501  0.23144870838E+01  0.34024437196E+02  0.43998087794E+01  0.34385716428E+02  0.00000000000E+00 0.  1.
<scales pt_clust_4="550.00000" pt_clust_5="550.00000" pt_clust_6="34.10307"></scales>
<mgrwt>
<rscale>  0 0.30000000E+03</rscale>
<asrwt>  1 0.34103067E+02</asrwt>
<pdfrwt beam="1">  1        1 0.81455061E+00 0.30000000E+03</pdfrwt>
<pdfrwt beam="2">0</pdfrwt>
<totfact> 0.80663204E-04</totfact>
</mgrwt>
<clustering>
<clus scale="   34.103">  1  6  2 -1</clus>
<clus scale="  460.039">  4  5 -1 -1</clus>
<clus scale="  300.000">  1  4  2 -1</clus>
</clustering>
</event>
<event>
 6    1  0.1029244E-011  0.3000000E+03  0.7818608E-02  0.1093470E+00
          1   -1    0    0  502    0  0.00000000000E+00  0.00000000000E+00  0.23424299863E+03  0.23424299863E+03  0.00000000000E+00 0.  1.
         13   -1    0    0    0    0 -0.00000000000E+00 -0.00000000000E+00 -0.27500000000E+03  0.27500000000E+03  0.00000000000E+00 0.  1.
    9000005    2    1    2  501    0 -0.21183588310E+02  0.24729690019E+02 -0.55296530357E+02  0.47358209728E+03  0.46921423104E+03 0.  0.
         13    1    3    3    0    0 -0.12483832178E+03  0.12150114572E+03  0.14603879475E+03  0.22732018073E+03  0.00000000000E+00 0.  1.
          1    1    3    3  501    0  0.10365473347E+03 -0.96771455700E+02 -0.20133532510E+03  0.24626191655E+03  0.00000000000E+00 0.  1.
         21    1    1    2  502  501  0.21183588310E+02 -0.24729690019E+02  0.14539528987E+02  0.35660901353E+02  0.00000000000E+00 0.  1.
<scales pt_clust_4="550.00000" pt_clust_5="550.00000" pt_clust_6="32.56228"></scales>
<mgrwt>
<rscale>  0 0.30000000E+03</rscale>
<asrwt>  1 0.32562279E+02</asrwt>
<pdfrwt beam="1">  1        1 0.85179272E+00 0.30000000E+03</pdfrwt>
<pdfrwt beam="2">0</pdfrwt>
<totfact> 0.39673595E-04</totfact>
</mgrwt>
<clustering>
<clus scale="   32.562">  1  6  2 -1</clus>
<clus scale="  469.214">  4  5 -1 -1</clus>
<clus scale="  300.000">  1  4  2 -1</clus>
</clustering>
</event>
<event>
 6    1  0.1029244E-011  0.3000000E+03  0.7818608E-02  0.1093470E+00
          1   -1    0    0  502    0  0.00000000000E+00  0.00000000000E+00  0.23241052694E+03  0.23241052694E+03  0.00000000000E+00 0.  1.
         13   -1    0    0    0    0 -0.00000000000E+00 -0.00000000000E+00 -0.27500000000E+03  0.27500000000E+03  0.00000000000E+00 0.  1.
    9000005    2    1    2  501    0 -0.15071249950E+02 -0.31874263213E+02 -0.21651974731E+02  0.46640455094E+03  0.46456569600E+03 0.  0.
         13    1    3    3    0    0 -0.69095818877E+02  0.18632354232E+03  0.86765296703E+02  0.21683844521E+03  0.00000000000E+00 0.  1.
          1    1    3    3  501    0  0.54024568927E+02 -0.21819780553E+03 -0.10841727143E+03  0.24956610574E+03  0.00000000000E+00 0.  1.
         21    1    1    2  502  501  0.15071249950E+02  0.31874263213E+02 -0.20937498334E+02  0.41005975990E+02  0.00000000000E+00 0.  1.
<scales pt_clust_4="550.00000" pt_clust_5="550.00000" pt_clust_6="35.25780"></scales>
<mgrwt>
<rscale>  0 0.30000000E+03</rscale>
<asrwt>  1 0.35257800E+02</asrwt>
<pdfrwt beam="1">  1        1 0.84512919E+00 0.30000000E+03</pdfrwt>
<pdfrwt beam="2">0</pdfrwt>
<totfact> 0.45003285E-04</totfact>
</mgrwt>
<clustering>
<clus scale="   35.258">  1  6  2 -1</clus>
<clus scale="  464.566">  4  5 -1 -1</clus>
<clus scale="  300.000">  1  4  2 -1</clus>
</clustering>
</event>
<event>
 6    1  0.1029244E-011  0.3000000E+03  0.7818608E-02  0.1093470E+00
          1   -1    0    0  502    0  0.00000000000E+00  0.00000000000E+00  0.23574028615E+03  0.23574028615E+03  0.00000000000E+00 0.  1.
         13   -1    0    0    0    0 -0.00000000000E+00 -0.00000000000E+00 -0.27500000000E+03  0.27500000000E+03  0.00000000000E+00 0.  1.
    9000005    2    1    2  501    0  0.35426367482E+02 -0.14302020554E+02 -0.44396232929E+02  0.47219214569E+03  0.46854543178E+03 0.  0.
         13    1    3    3    0    0 -0.13218207046E+03  0.13214313930E+03 -0.13636744897E+03  0.23136549041E+03  0.00000000000E+00 0.  1.
          1    1    3    3  501    0  0.16760843794E+03 -0.14644515985E+03  0.91971216038E+02  0.24082665528E+03  0.00000000000E+00 0.  1.
         21    1    1    2  502  501 -0.35426367482E+02  0.14302020554E+02  0.51365190793E+01  0.38548140463E+02  0.00000000000E+00 0.  1.
<scales pt_clust_4="550.00000" pt_clust_5="550.00000" pt_clust_6="38.20439"></scales>
<mgrwt>
<rscale>  0 0.30000000E+03</rscale>
<asrwt>  1 0.38204389E+02</asrwt>
<pdfrwt beam="1">  1        1 0.85723740E+00 0.30000000E+03</pdfrwt>
<pdfrwt beam="2">0</pdfrwt>
<totfact> 0.34024578E-04</totfact>
</mgrwt>
<clustering>
<clus scale="   38.204">  1  6  2 -1</clus>
<clus scale="  468.545">  4  5 -1 -1</clus>
<clus scale="  300.000">  1  4  2 -1</clus>
</clustering>
</event>
<event>
 6    1  0.1029244E-011  0.3000000E+03  0.7818608E-02  0.1093470E+00
          1   -1    0    0  502    0  0.00000000000E+00  0.00000000000E+00  0.23484626113E+03  0.23484626113E+03  0.00000000000E+00 0.  1.
         13   -1    0    0    0    0 -0.00000000000E+00 -0.00000000000E+00 -0.27500000000E+03  0.27500000000E+03  0.00000000000E+00 0.  1.
    9000005    2    1    2  501    0  0.40631588611E+01  0.31604557388E+02 -0.46869902554E+02  0.47728149240E+03  0.47390450295E+03 0.  0.
         13    1    3    3    0    0  0.13363284391E+03  0.20448227520E+03  0.33932528129E+02  0.24662147982E+03  0.00000000000E+00 0.  1.
          3    1    3    3  501    0 -0.12956968505E+03 -0.17287771781E+03 -0.80802430683E+02  0.23066001258E+03  0.00000000000E+00 0.  1.
         21    1    1    2  502  501 -0.40631588611E+01 -0.31604557388E+02  0.67161636821E+01  0.32564768727E+02  0.00000000000E+00 0. -1.
<scales pt_clust_4="550.00000" pt_clust_5="550.00000" pt_clust_6="31.86467"></scales>
<mgrwt>
<rscale>  0 0.30000000E+03</rscale>
<asrwt>  1 0.31864672E+02</asrwt>
<pdfrwt beam="1">  1        1 0.85398640E+00 0.30000000E+03</pdfrwt>
<pdfrwt beam="2">0</pdfrwt>
<totfact> 0.37943548E-04</totfact>
</mgrwt>
<clustering>
<clus scale="   31.865">  1  6  2 -1</clus>
<clus scale="  473.905">  4  5 -1 -1</clus>
<clus scale="  300.000">  1  4  2 -1</clus>
</clustering>
</event>
<event>
 6    1  0.1029244E-011  0.3000000E+03  0.7818608E-02  0.1093470E+00
          1   -1    0    0  502    0  0.00000000000E+00  0.00000000000E+00  0.23382790419E+03  0.23382790419E+03  0.00000000000E+00 0.  1.
         13   -1    0    0    0    0 -0.00000000000E+00 -0.00000000000E+00 -0.27500000000E+03  0.27500000000E+03  0.00000000000E+00 0.  1.
    9000005    2    1    2  501    0 -0.29474882247E+02 -0.19999493658E+02 -0.21144352007E+02  0.46796399650E+03  0.46612709637E+03 0.  0.
         13    1    3    3    0    0  0.12334570899E+03 -0.15474299565E+03 -0.13019419086E+03  0.23687567618E+03  0.00000000000E+00 0.  1.
          3    1    3    3  501    0 -0.15282059124E+03  0.13474350200E+03  0.10904983886E+03  0.23108832032E+03  0.00000000000E+00 0.  1.
         21    1    1    2  502  501  0.29474882247E+02  0.19999493658E+02 -0.20027743801E+02  0.40863907691E+02  0.00000000000E+00 0. -1.
<scales pt_clust_4="550.00000" pt_clust_5="550.00000" pt_clust_6="35.61951"></scales>
<mgrwt>
<rscale>  0 0.30000000E+03</rscale>
<asrwt>  1 0.35619513E+02</asrwt>
<pdfrwt beam="1">  1        1 0.85028329E+00 0.30000000E+03</pdfrwt>
<pdfrwt beam="2">0</pdfrwt>
<totfact> 0.40317664E-04</totfact>
</mgrwt>
<clustering>
<clus scale="   35.620">  1  6  2 -1</clus>
<clus scale="  466.127">  4  5 -1 -1</clus>
<clus scale="  300.000">  1  4  2 -1</clus>
</clustering>
</event>
<event>
 6    1  0.1029244E-011  0.3000000E+03  0.7818608E-02  0.1093470E+00
          1   -1    0    0  502    0  0.00000000000E+00  0.00000000000E+00  0.25405318781E+03  0.25405318781E+03  0.00000000000E+00 0.  1.
         13   -1    0    0    0    0 -0.00000000000E+00 -0.00000000000E+00 -0.27500000000E+03  0.27500000000E+03  0.00000000000E+00 0.  1.
    9000005    2    1    2  501    0  0.22289730271E+02  0.29147264780E+02 -0.70324810305E+02  0.46753423286E+03  0.46075620976E+03 0.  0.
         13    1    3    3    0    0 -0.61012387226E+02  0.12559210609E+03  0.15503138143E+03  0.20863992364E+03  0.00000000000E+00 0.  1.
          3    1    3    3  501    0  0.83302117497E+02 -0.96444841306E+02 -0.22535619174E+03  0.25889430923E+03  0.00000000000E+00 0.  1.
         21    1    1    2  502  501 -0.22289730271E+02 -0.29147264780E+02  0.49377998111E+02  0.61518954942E+02  0.00000000000E+00 0. -1.
<scales pt_clust_4="550.00000" pt_clust_5="550.00000" pt_clust_6="36.69326"></scales>
<mgrwt>
<rscale>  0 0.30000000E+03</rscale>
<asrwt>  1 0.36693257E+02</asrwt>
<pdfrwt beam="1">  1        1 0.92382977E+00 0.30000000E+03</pdfrwt>
<pdfrwt beam="2">0</pdfrwt>
<totfact> 0.34370937E-05</totfact>
</mgrwt>
<clustering>
<clus scale="   36.693">  1  6  2 -1</clus>
<clus scale="  460.756">  4  5 -1 -1</clus>
<clus scale="  300.000">  1  4  2 -1</clus>
</clustering>
</event>
<event>
 6    1  0.1029244E-011  0.3000000E+03  0.7818608E-02  0.1093470E+00
          1   -1    0    0  502    0  0.00000000000E+00  0.00000000000E+00  0.23431578046E+03  0.23431578046E+03  0.00000000000E+00 0.  1.
         13   -1    0    0    0    0 -0.00000000000E+00 -0.00000000000E+00 -0.27500000000E+03  0.27500000000E+03  0.00000000000E+00 0.  1.
    9000005    2    1    2  501    0 -0.33611014806E+02 -0.68654081237E+01 -0.64674609523E+02  0.46745442648E+03  0.46168604222E+03 0.  0.
         13    1    3    3    0    0  0.18430879851E+03 -0.11560367474E+03 -0.51384571211E+02  0.22354936139E+03  0.00000000000E+00 0.  1.
          3    1    3    3  501    0 -0.21791981331E+03  0.10873826662E+03 -0.13290038313E+02  0.24390506509E+03  0.00000000000E+00 0.  1.
         21    1    1    2  502  501  0.33611014806E+02  0.68654081237E+01  0.23990389981E+02  0.41861353973E+02  0.00000000000E+00 0.  1.
<scales pt_clust_4="550.00000" pt_clust_5="550.00000" pt_clust_6="34.30502"></scales>
<mgrwt>
<rscale>  0 0.30000000E+03</rscale>
<asrwt>  1 0.34305016E+02</asrwt>
<pdfrwt beam="1">  1        1 0.85205738E+00 0.30000000E+03</pdfrwt>
<pdfrwt beam="2">0</pdfrwt>
<totfact> 0.39056973E-04</totfact>
</mgrwt>
<clustering>
<clus scale="   34.305">  1  6  2 -1</clus>
<clus scale="  461.686">  4  5 -1 -1</clus>
<clus scale="  300.000">  1  4  2 -1</clus>
</clustering>
</event>
<event>
 6    1  0.1029244E-011  0.3000000E+03  0.7818608E-02  0.1093470E+00
          1   -1    0    0  502    0  0.00000000000E+00  0.00000000000E+00  0.23490153840E+03  0.23490153840E+03  0.00000000000E+00 0.  1.
         13   -1    0    0    0    0 -0.00000000000E+00 -0.00000000000E+00 -0.27500000000E+03  0.27500000000E+03  0.00000000000E+00 0.  1.
    9000005    2    1    2  501    0 -0.16126053649E+02  0.31593913116E+02 -0.40333010037E+02  0.47442929622E+03  0.47137901996E+03 0.  0.
         13    1    3    3    0    0 -0.10489039552E+02 -0.14685750283E+03  0.15226542615E+03  0.21180629379E+03  0.00000000000E+00 0.  1.
          3    1    3    3  501    0 -0.56370140966E+01  0.17845141595E+03 -0.19259843619E+03  0.26262300243E+03  0.00000000000E+00 0.  1.
         21    1    1    2  502  501  0.16126053649E+02 -0.31593913116E+02  0.23454843283E+00  0.35472242179E+02  0.00000000000E+00 0.  1.
<scales pt_clust_4="550.00000" pt_clust_5="550.00000" pt_clust_6="35.47147"></scales>
<mgrwt>
<rscale>  0 0.30000000E+03</rscale>
<asrwt>  1 0.35471467E+02</asrwt>
<pdfrwt beam="1">  1        1 0.85418741E+00 0.30000000E+03</pdfrwt>
<pdfrwt beam="2">0</pdfrwt>
<totfact> 0.37017538E-04</totfact>
</mgrwt>
<clustering>
<clus scale="   35.471">  1  6  2 -1</clus>
<clus scale="  471.379">  4  5 -1 -1</clus>
<clus scale="  300.000">  1  4  2 -1</clus>
</clustering>
</event>
<event>
 6    1  0.1029244E-011  0.3000000E+03  0.7818608E-02  0.1093470E+00
          1   -1    0    0  502    0  0.00000000000E+00  0.00000000000E+00  0.23976801865E+03  0.23976801865E+03  0.00000000000E+00 0.  1.
         13   -1    0    0    0    0 -0.00000000000E+00 -0.00000000000E+00 -0.27500000000E+03  0.27500000000E+03  0.00000000000E+00 0.  1.
    9000005    2    1    2  501    0 -0.21267057994E+02 -0.32636576196E+02 -0.27969295090E+02  0.47514251584E+03  0.47271629444E+03 0.  0.
         13    1    3    3    0    0 -0.15398968816E+03 -0.99338745181E+02  0.15461726203E+03  0.23976552728E+03  0.00000000000E+00 0.  1.
          3    1    3    3  501    0  0.13272263016E+03  0.66702168985E+02 -0.18258655712E+03  0.23537698856E+03  0.00000000000E+00 0.  1.
         21    1    1    2  502  501  0.21267057994E+02  0.32636576196E+02 -0.72626862588E+01  0.39625502814E+02  0.00000000000E+00 0. -1.
<scales pt_clust_4="550.00000" pt_clust_5="550.00000" pt_clust_6="38.95427"></scales>
<mgrwt>
<rscale>  0 0.30000000E+03</rscale>
<asrwt>  1 0.38954273E+02</asrwt>
<pdfrwt beam="1">  1        1 0.87188370E+00 0.30000000E+03</pdfrwt>
<pdfrwt beam="2">0</pdfrwt>
<totfact> 0.23752377E-04</totfact>
</mgrwt>
<clustering>
<clus scale="   38.954">  1  6  2 -1</clus>
<clus scale="  472.716">  4  5 -1 -1</clus>
<clus scale="  300.000">  1  4  2 -1</clus>
</clustering>
</event>
<event>
 6    1  0.1029244E-011  0.3000000E+03  0.7818608E-02  0.1093470E+00
          1   -1    0    0  502    0  0.00000000000E+00  0.00000000000E+00  0.23565381411E+03  0.23565381411E+03  0.00000000000E+00 0.  1.
         13   -1    0    0    0    0 -0.00000000000E+00 -0.00000000000E+00 -0.27500000000E+03  0.27500000000E+03  0.00000000000E+00 0.  1.
    9000005    2    1    2  501    0 -0.71687374624E+01  0.40348126927E+02 -0.59972027944E+02  0.46477585095E+03  0.45906490320E+03 0.  0.
         13    1    3    3    0    0  0.16385109152E+03  0.11318054163E+03  0.96974275629E+02  0.22149723549E+03  0.00000000000E+00 0.  1.
          1    1    3    3  501    0 -0.17101982898E+03 -0.72832414702E+02 -0.15694630357E+03  0.24327861546E+03  0.00000000000E+00 0.  1.
         21    1    1    2  502  501  0.71687374624E+01 -0.40348126927E+02  0.20625842056E+02  0.45877963161E+02  0.00000000000E+00 0. -1.
<scales pt_clust_4="550.00000" pt_clust_5="550.00000" pt_clust_6="40.98002"></scales>
<mgrwt>
<rscale>  0 0.30000000E+03</rscale>
<asrwt>  1 0.40980021E+02</asrwt>
<pdfrwt beam="1">  1        1 0.85692296E+00 0.30000000E+03</pdfrwt>
<pdfrwt beam="2">0</pdfrwt>
<totfact> 0.33842361E-04</totfact>
</mgrwt>
<clustering>
<clus scale="   40.980">  1  6  2 -1</clus>
<clus scale="  459.065">  4  5 -1 -1</clus>
<clus scale="  300.000">  1  4  2 -1</clus>
</clustering>
</event>
<event>
 6    1  0.1029244E-011  0.3000000E+03  0.7818608E-02  0.1093470E+00
          1   -1    0    0  502    0  0.00000000000E+00  0.00000000000E+00  0.24308299342E+03  0.24308299342E+03  0.00000000000E+00 0.  1.
         13   -1    0    0    0    0 -0.00000000000E+00 -0.00000000000E+00 -0.27500000000E+03  0.27500000000E+03  0.00000000000E+00 0.  1.
    9000005    2    1    2  501    0 -0.23915365635E+02 -0.19982703656E+02 -0.68065991911E+02  0.47035457108E+03  0.46435890227E+03 0.  0.
         13    1    3    3    0    0 -0.12767548015E+02  0.20466191983E+03  0.57220373669E+02  0.21289359520E+03  0.00000000000E+00 0.  1.
          3    1    3    3  501    0 -0.11147817620E+02 -0.22464462349E+03 -0.12528636558E+03  0.25746097588E+03  0.00000000000E+00 0.  1.
         21    1    1    2  502  501  0.23915365635E+02  0.19982703656E+02  0.36148985328E+02  0.47728422341E+02  0.00000000000E+00 0. -1.
<scales pt_clust_4="550.00000" pt_clust_5="550.00000" pt_clust_6="31.16493"></scales>
<mgrwt>
<rscale>  0 0.30000000E+03</rscale>
<asrwt>  1 0.31164935E+02</asrwt>
<pdfrwt beam="1">  1        1 0.88393816E+00 0.30000000E+03</pdfrwt>
<pdfrwt beam="2">0</pdfrwt>
<totfact> 0.17934540E-04</totfact>
</mgrwt>
<clustering>
<clus scale="   31.165">  1  6  2 -1</clus>
<clus scale="  464.359">  4  5 -1 -1</clus>
<clus scale="  300.000">  1  4  2 -1</clus>
</clustering>
</event>
<event>
 6    1  0.1029244E-011  0.3000000E+03  0.7818608E-02  0.1093470E+00
          1   -1    0    0  502    0  0.00000000000E+00  0.00000000000E+00  0.23000088016E+03  0.23000088016E+03  0.00000000000E+00 0.  1.
         13   -1    0    0    0    0 -0.00000000000E+00 -0.00000000000E+00 -0.27500000000E+03  0.27500000000E+03  0.00000000000E+00 0.  1.
    9000005    2    1    2  501    0 -0.30600213456E+02 -0.18543374151E+02 -0.62342986375E+02  0.46523859282E+03  0.45965211901E+03 0.  0.
         13    1    3    3    0    0 -0.17483527211E+03 -0.15418867156E+03  0.48818647431E+02  0.23816964363E+03  0.00000000000E+00 0.  1.
          1    1    3    3  501    0  0.14423505865E+03  0.13564529741E+03 -0.11116163381E+03  0.22706894919E+03  0.00000000000E+00 0.  1.
         21    1    1    2  502  501  0.30600213456E+02  0.18543374151E+02  0.17343866537E+02  0.39762287345E+02  0.00000000000E+00 0. -1.
<scales pt_clust_4="550.00000" pt_clust_5="550.00000" pt_clust_6="35.78030"></scales>
<mgrwt>
<rscale>  0 0.30000000E+03</rscale>
<asrwt>  1 0.35780299E+02</asrwt>
<pdfrwt beam="1">  1        1 0.83636684E+00 0.30000000E+03</pdfrwt>
<pdfrwt beam="2">0</pdfrwt>
<totfact> 0.52658437E-04</totfact>
</mgrwt>
<clustering>
<clus scale="   35.780">  1  6  2 -1</clus>
<clus scale="  459.652">  4  5 -1 -1</clus>
<clus scale="  300.000">  1  4  2 -1</clus>
</clustering>
</event>
<event>
 6    1  0.1029244E-011  0.3000000E+03  0.7818608E-02  0.1093470E+00
          1   -1    0    0  502    0  0.00000000000E+00  0.00000000000E+00  0.24276639143E+03  0.24276639143E+03  0.00000000000E+00 0.  1.
         13   -1    0    0    0    0 -0.00000000000E+00 -0.00000000000E+00 -0.27500000000E+03  0.27500000000E+03  0.00000000000E+00 0.  1.
    9000005    2    1    2  501    0  0.33964265485E+02 -0.13492583358E+02 -0.15064388436E+02  0.47738813917E+03  0.47574875563E+03 0.  0.
         13    1    3    3    0    0  0.10433409582E+03 -0.13015667071E+03  0.17614957748E+03  0.24260056910E+03  0.00000000000E+00 0.  1.
          3    1    3    3  501    0 -0.70369830331E+02  0.11666408735E+03 -0.19121396592E+03  0.23478757007E+03  0.00000000000E+00 0.  1.
         21    1    1    2  502  501 -0.33964265485E+02  0.13492583358E+02 -0.17169220132E+02  0.40378252260E+02  0.00000000000E+00 0. -1.
<scales pt_clust_4="550.00000" pt_clust_5="550.00000" pt_clust_6="36.54617"></scales>
<mgrwt>
<rscale>  0 0.30000000E+03</rscale>
<asrwt>  1 0.36546169E+02</asrwt>
<pdfrwt beam="1">  1        1 0.88278688E+00 0.30000000E+03</pdfrwt>
<pdfrwt beam="2">0</pdfrwt>
<totfact> 0.18033578E-04</totfact>
</mgrwt>
<clustering>
<clus scale="   36.546">  1  6  2 -1</clus>
<clus scale="  475.749">  4  5 -1 -1</clus>
<clus scale="  300.000">  1  4  2 -1</clus>
</clustering>
</event>
<event>
 6    1  0.1029244E-011  0.3000000E+03  0.7818608E-02  0.1093470E+00
          1   -1    0    0  502    0  0.00000000000E+00  0.00000000000E+00  0.23521872521E+03  0.23521872521E+03  0.00000000000E+00 0.  1.
         13   -1    0    0    0    0 -0.00000000000E+00 -0.00000000000E+00 -0.27500000000E+03  0.27500000000E+03  0.00000000000E+00 0.  1.
    9000005    2    1    2  501    0 -0.26266134985E+02 -0.25225361027E+02 -0.19785351578E+02  0.46867277919E+03  0.46683667929E+03 0.  0.
         13    1    3    3    0    0 -0.16593332617E+03 -0.66446770759E+02 -0.17896068127E+03  0.25293471000E+03  0.00000000000E+00 0.  1.
          1    1    3    3  501    0  0.13966719119E+03  0.41221409732E+02  0.15917532970E+03  0.21573806919E+03  0.00000000000E+00 0.  1.
         21    1    1    2  502  501  0.26266134985E+02  0.25225361027E+02 -0.19995923211E+02  0.41545946024E+02  0.00000000000E+00 0.  1.
<scales pt_clust_4="550.00000" pt_clust_5="550.00000" pt_clust_6="36.41744"></scales>
<mgrwt>
<rscale>  0 0.30000000E+03</rscale>
<asrwt>  1 0.36417441E+02</asrwt>
<pdfrwt beam="1">  1        1 0.85534082E+00 0.30000000E+03</pdfrwt>
<pdfrwt beam="2">0</pdfrwt>
<totfact> 0.35883840E-04</totfact>
</mgrwt>
<clustering>
<clus scale="   36.417">  1  6  2 -1</clus>
<clus scale="  466.837">  4  5 -1 -1</clus>
<clus scale="  300.000">  1  4  2 -1</clus>
</clustering>
</event>
<event>
 6    1  0.1029244E-011  0.3000000E+03  0.7818608E-02  0.1093470E+00
          1   -1    0    0  502    0  0.00000000000E+00  0.00000000000E+00  0.23231676465E+03  0.23231676465E+03  0.00000000000E+00 0.  1.
         13   -1    0    0    0    0 -0.00000000000E+00 -0.00000000000E+00 -0.27500000000E+03  0.27500000000E+03  0.00000000000E+00 0.  1.
    9000005    2    1    2  501    0 -0.19988785420E+02 -0.27177652028E+02 -0.56057260526E+02  0.47102570705E+03  0.46645967021E+03 0.  0.
         13    1    3    3    0    0 -0.43535086665E+02  0.39027703302E+02 -0.25417647183E+03  0.26081438655E+03  0.00000000000E+00 0.  1.
          3    1    3    3  501    0  0.23546301245E+02 -0.66205355330E+02  0.19811921131E+03  0.21021132050E+03  0.00000000000E+00 0.  1.
         21    1    1    2  502  501  0.19988785420E+02  0.27177652028E+02  0.13374025171E+02  0.36291057598E+02  0.00000000000E+00 0. -1.
<scales pt_clust_4="550.00000" pt_clust_5="550.00000" pt_clust_6="33.73687"></scales>
<mgrwt>
<rscale>  0 0.30000000E+03</rscale>
<asrwt>  1 0.33736869E+02</asrwt>
<pdfrwt beam="1">  1        1 0.84478824E+00 0.30000000E+03</pdfrwt>
<pdfrwt beam="2">0</pdfrwt>
<totfact> 0.45689088E-04</totfact>
</mgrwt>
<clustering>
<clus scale="   33.737">  1  6  2 -1</clus>
<clus scale="  466.460">  4  5 -1 -1</clus>
<clus scale="  300.000">  1  4  2 -1</clus>
</clustering>
</event>
<event>
 6    1  0.1029244E-011  0.3000000E+03  0.7818608E-02  0.1093470E+00
          1   -1    0    0  502    0  0.00000000000E+00  0.00000000000E+00  0.22941954780E+03  0.22941954780E+03  0.00000000000E+00 0.  1.
         13   -1    0    0    0    0 -0.00000000000E+00 -0.00000000000E+00 -0.27500000000E+03  0.27500000000E+03  0.00000000000E+00 0.  1.
    9000005    2    1    2  501    0  0.35279282854E+02 -0.41496620786E+01 -0.62702760004E+02  0.46498579426E+03  0.45936728797E+03 0.  0.
         13    1    3    3    0    0  0.69525048349E+02 -0.21675143573E+03 -0.96074015746E+02  0.24707313440E+03  0.00000000000E+00 0.  1.
          1    1    3    3  501    0 -0.34245765495E+02  0.21260177366E+03  0.33371255742E+02  0.21791265986E+03  0.00000000000E+00 0.  1.
         21    1    1    2  502  501 -0.35279282854E+02  0.41496620786E+01  0.17122307807E+02  0.39433753546E+02  0.00000000000E+00 0.  1.
<scales pt_clust_4="550.00000" pt_clust_5="550.00000" pt_clust_6="35.52249"></scales>
<mgrwt>
<rscale>  0 0.30000000E+03</rscale>
<asrwt>  1 0.35522493E+02</asrwt>
<pdfrwt beam="1">  1        1 0.83425290E+00 0.30000000E+03</pdfrwt>
<pdfrwt beam="2">0</pdfrwt>
<totfact> 0.54634205E-04</totfact>
</mgrwt>
<clustering>
<clus scale="   35.522">  1  6  2 -1</clus>
<clus scale="  459.367">  4  5 -1 -1</clus>
<clus scale="  300.000">  1  4  2 -1</clus>
</clustering>
</event>
<event>
 6    1  0.1029244E-011  0.3000000E+03  0.7818608E-02  0.1093470E+00
          1   -1    0    0  502    0  0.00000000000E+00  0.00000000000E+00  0.23233074569E+03  0.23233074569E+03  0.00000000000E+00 0.  1.
         13   -1    0    0    0    0 -0.00000000000E+00 -0.00000000000E+00 -0.27500000000E+03  0.27500000000E+03  0.00000000000E+00 0.  1.
    9000005    2    1    2  501    0 -0.74089317803E+01 -0.36474826787E+02 -0.65500706085E+02  0.46366633857E+03  0.45750500081E+03 0.  0.
         13    1    3    3    0    0 -0.10701179894E+03  0.18626310796E+03 -0.23707961584E+02  0.21611926786E+03  0.00000000000E+00 0.  1.
          3    1    3    3  501    0  0.99602867158E+02 -0.22273793475E+03 -0.41792744501E+02  0.24754707070E+03  0.00000000000E+00 0.  1.
         21    1    1    2  502  501  0.74089317803E+01  0.36474826787E+02  0.22831451771E+02  0.43664407121E+02  0.00000000000E+00 0.  1.
<scales pt_clust_4="550.00000" pt_clust_5="550.00000" pt_clust_6="37.21969"></scales>
<mgrwt>
<rscale>  0 0.30000000E+03</rscale>
<asrwt>  1 0.37219689E+02</asrwt>
<pdfrwt beam="1">  1        1 0.84483908E+00 0.30000000E+03</pdfrwt>
<pdfrwt beam="2">0</pdfrwt>
<totfact> 0.44813244E-04</totfact>
</mgrwt>
<clustering>
<clus scale="   37.220">  1  6  2 -1</clus>
<clus scale="  457.505">  4  5 -1 -1</clus>
<clus scale="  300.000">  1  4  2 -1</clus>
</clustering>
</event>
<event>
 6    1  0.1029244E-011  0.3000000E+03  0.7818608E-02  0.1093470E+00
          1   -1    0    0  502    0  0.00000000000E+00  0.00000000000E+00  0.22308433096E+03  0.22308433096E+03  0.00000000000E+00 0.  1.
         13   -1    0    0    0    0 -0.00000000000E+00 -0.00000000000E+00 -0.27500000000E+03  0.27500000000E+03  0.00000000000E+00 0.  1.
    9000005    2    1    2  501    0 -0.22040403915E+02  0.21228233523E+02 -0.66792994589E+02  0.46405857426E+03  0.45820589140E+03 0.  0.
         13    1    3    3    0    0 -0.15576971902E+03  0.18522826873E+03  0.44813466329E+00  0.24202049030E+03  0.00000000000E+00 0.  1.
          1    1    3    3  501    0  0.13372931511E+03 -0.16400003520E+03 -0.67241129252E+02  0.22203808396E+03  0.00000000000E+00 0.  1.
         21    1    1    2  502  501  0.22040403915E+02 -0.21228233523E+02  0.14877325544E+02  0.34025756694E+02  0.00000000000E+00 0.  1.
<scales pt_clust_4="550.00000" pt_clust_5="550.00000" pt_clust_6="30.60094"></scales>
<mgrwt>
<rscale>  0 0.30000000E+03</rscale>
<asrwt>  1 0.30600936E+02</asrwt>
<pdfrwt beam="1">  1        1 0.81121575E+00 0.30000000E+03</pdfrwt>
<pdfrwt beam="2">0</pdfrwt>
<totfact> 0.87523170E-04</totfact>
</mgrwt>
<clustering>
<clus scale="   30.601">  1  6  2 -1</clus>
<clus scale="  458.206">  4  5 -1 -1</clus>
<clus scale="  300.000">  1  4  2 -1</clus>
</clustering>
</event>
<event>
 6    1  0.1029244E-011  0.3000000E+03  0.7818608E-02  0.1093470E+00
          1   -1    0    0  502    0  0.00000000000E+00  0.00000000000E+00  0.23717247178E+03  0.23717247178E+03  0.00000000000E+00 0.  1.
         13   -1    0    0    0    0 -0.00000000000E+00 -0.00000000000E+00 -0.27500000000E+03  0.27500000000E+03  0.00000000000E+00 0.  1.
    9000005    2    1    2  501    0 -0.22706796772E+02  0.20128143035E+02 -0.53423530432E+02  0.47805537861E+03  0.47409084641E+03 0.  0.
         13    1    3    3    0    0 -0.82885034997E+02 -0.91135468252E+02 -0.22995997636E+03  0.26087773636E+03  0.00000000000E+00 0.  1.
          1    1    3    3  501    0  0.60178238226E+02  0.11126361129E+03  0.17653644593E+03  0.21717764225E+03  0.00000000000E+00 0.  1.
         21    1    1    2  502  501  0.22706796772E+02 -0.20128143035E+02  0.15596002214E+02  0.34117093175E+02  0.00000000000E+00 0. -1.
<scales pt_clust_4="550.00000" pt_clust_5="550.00000" pt_clust_6="30.34371"></scales>
<mgrwt>
<rscale>  0 0.30000000E+03</rscale>
<asrwt>  1 0.30343710E+02</asrwt>
<pdfrwt beam="1">  1        1 0.86244535E+00 0.30000000E+03</pdfrwt>
<pdfrwt beam="2">0</pdfrwt>
<totfact> 0.31280588E-04</totfact>
</mgrwt>
<clustering>
<clus scale="   30.344">  1  6  2 -1</clus>
<clus scale="  474.091">  4  5 -1 -1</clus>
<clus scale="  300.000">  1  4  2 -1</clus>
</clustering>
</event>
<event>
 6    1  0.1029244E-011  0.3000000E+03  0.7818608E-02  0.1093470E+00
          1   -1    0    0  502    0  0.00000000000E+00  0.00000000000E+00  0.24962359852E+03  0.24962359852E+03  0.00000000000E+00 0.  1.
         13   -1    0    0    0    0 -0.00000000000E+00 -0.00000000000E+00 -0.27500000000E+03  0.27500000000E+03  0.00000000000E+00 0.  1.
    9000005    2    1    2  501    0 -0.98013788284E+01  0.41097418008E+02 -0.29356771218E+02  0.48218649050E+03  0.47943396501E+03 0.  0.
         13    1    3    3    0    0 -0.10786448245E+03  0.22829630443E+03  0.48239285486E+02  0.25706220619E+03  0.00000000000E+00 0.  1.
          1    1    3    3  501    0  0.98063103623E+02 -0.18719888642E+03 -0.77596056704E+02  0.22512428431E+03  0.00000000000E+00 0.  1.
         21    1    1    2  502  501  0.98013788284E+01 -0.41097418008E+02  0.39803697375E+01  0.42437108020E+02  0.00000000000E+00 0. -1.
<scales pt_clust_4="550.00000" pt_clust_5="550.00000" pt_clust_6="42.25003"></scales>
<mgrwt>
<rscale>  0 0.30000000E+03</rscale>
<asrwt>  1 0.42250027E+02</asrwt>
<pdfrwt beam="1">  1        1 0.90772218E+00 0.30000000E+03</pdfrwt>
<pdfrwt beam="2">0</pdfrwt>
<totfact> 0.78469888E-05</totfact>
</mgrwt>
<clustering>
<clus scale="   42.250">  1  6  2 -1</clus>
<clus scale="  479.434">  4  5 -1 -1</clus>
<clus scale="  300.000">  1  4  2 -1</clus>
</clustering>
</event>
<event>
 6    1  0.1029244E-011  0.3000000E+03  0.7818608E-02  0.1093470E+00
          1   -1    0    0  502    0  0.00000000000E+00  0.00000000000E+00  0.25485318238E+03  0.25485318238E+03  0.00000000000E+00 0.  1.
         13   -1    0    0    0    0 -0.00000000000E+00 -0.00000000000E+00 -0.27500000000E+03  0.27500000000E+03  0.00000000000E+00 0.  1.
    9000005    2    1    2  501    0 -0.53083392589E+02  0.12097071202E+02 -0.54486616995E+02  0.46548387664E+03  0.45906672966E+03 0.  0.
         13    1    3    3    0    0 -0.40430939741E+01  0.11061473302E+03 -0.23175652357E+03  0.25683273153E+03  0.00000000000E+00 0.  1.
          1    1    3    3  501    0 -0.49040298615E+02 -0.98517661817E+02  0.17726990657E+03  0.20865114511E+03  0.00000000000E+00 0.  1.
         21    1    1    2  502  501  0.53083392589E+02 -0.12097071202E+02  0.34339799375E+02  0.64369305741E+02  0.00000000000E+00 0. -1.
<scales pt_clust_4="550.00000" pt_clust_5="550.00000" pt_clust_6="54.44434"></scales>
<mgrwt>
<rscale>  0 0.30000000E+03</rscale>
<asrwt>  1 0.54444336E+02</asrwt>
<pdfrwt beam="1">  1        1 0.92673885E+00 0.30000000E+03</pdfrwt>
<pdfrwt beam="2">0</pdfrwt>
<totfact> 0.27891523E-05</totfact>
</mgrwt>
<clustering>
<clus scale="   54.444">  1  6  2 -1</clus>
<clus scale="  459.067">  4  5 -1 -1</clus>
<clus scale="  300.000">  1  4  2 -1</clus>
</clustering>
</event>
<event>
 6    1  0.1029244E-011  0.3000000E+03  0.7818608E-02  0.1093470E+00
          1   -1    0    0  502    0  0.00000000000E+00  0.00000000000E+00  0.24685379229E+03  0.24685379229E+03  0.00000000000E+00 0.  1.
         13   -1    0    0    0    0 -0.00000000000E+00 -0.00000000000E+00 -0.27500000000E+03  0.27500000000E+03  0.00000000000E+00 0.  1.
    9000005    2    1    2  501    0 -0.19685247069E+02 -0.34432570747E+02  0.37385664447E+01  0.47096420885E+03  0.46927624941E+03 0.  0.
         13    1    3    3    0    0 -0.22571558428E+03 -0.82409061078E+02  0.68267891216E+02  0.24979848539E+03  0.00000000000E+00 0.  1.
          3    1    3    3  501    0  0.20603033721E+03  0.47976490331E+02 -0.64529324771E+02  0.22116572345E+03  0.00000000000E+00 0.  1.
         21    1    1    2  502  501  0.19685247069E+02  0.34432570747E+02 -0.31884774151E+02  0.50889583444E+02  0.00000000000E+00 0. -1.
<scales pt_clust_4="550.00000" pt_clust_5="550.00000" pt_clust_6="39.66248"></scales>
<mgrwt>
<rscale>  0 0.30000000E+03</rscale>
<asrwt>  1 0.39662482E+02</asrwt>
<pdfrwt beam="1">  1        1 0.89765015E+00 0.30000000E+03</pdfrwt>
<pdfrwt beam="2">0</pdfrwt>
<totfact> 0.11507346E-04</totfact>
</mgrwt>
<clustering>
<clus scale="   39.662">  1  6  2 -1</clus>
<clus scale="  469.276">  4  5 -1 -1</clus>
<clus scale="  300.000">  1  4  2 -1</clus>
</clustering>
</event>
<event>
 6    1  0.1029244E-011  0.3000000E+03  0.7818608E-02  0.1093470E+00
          1   -1    0    0  502    0  0.00000000000E+00  0.00000000000E+00  0.24678258054E+03  0.24678258054E+03  0.00000000000E+00 0.  1.
         13   -1    0    0    0    0 -0.00000000000E+00 -0.00000000000E+00 -0.27500000000E+03  0.27500000000E+03  0.00000000000E+00 0.  1.
    9000005    2    1    2  501    0  0.33169887432E+02  0.57767606953E+01 -0.37738737601E+02  0.48679304074E+03  0.48415869279E+03 0.  0.
         13    1    3    3    0    0  0.20630250033E+03  0.83432114514E+02 -0.14807291980E+03  0.26729614466E+03  0.00000000000E+00 0.  1.
          1    1    3    3  501    0 -0.17313261289E+03 -0.77655353819E+02  0.11033418220E+03  0.21949689607E+03  0.00000000000E+00 0.  1.
         21    1    1    2  502  501 -0.33169887432E+02 -0.57767606953E+01  0.95213181420E+01  0.34989539802E+02  0.00000000000E+00 0. -1.
<scales pt_clust_4="550.00000" pt_clust_5="550.00000" pt_clust_6="33.66916"></scales>
<mgrwt>
<rscale>  0 0.30000000E+03</rscale>
<asrwt>  1 0.33669161E+02</asrwt>
<pdfrwt beam="1">  1        1 0.89739120E+00 0.30000000E+03</pdfrwt>
<pdfrwt beam="2">0</pdfrwt>
<totfact> 0.11942943E-04</totfact>
</mgrwt>
<clustering>
<clus scale="   33.669">  1  6  2 -1</clus>
<clus scale="  484.159">  4  5 -1 -1</clus>
<clus scale="  300.000">  1  4  2 -1</clus>
</clustering>
</event>
<event>
 6    1  0.1029244E-011  0.3000000E+03  0.7818608E-02  0.1093470E+00
          1   -1    0    0  502    0  0.00000000000E+00  0.00000000000E+00  0.21980073200E+03  0.21980073200E+03  0.00000000000E+00 0.  1.
         13   -1    0    0    0    0 -0.00000000000E+00 -0.00000000000E+00 -0.27500000000E+03  0.27500000000E+03  0.00000000000E+00 0.  1.
    9000005    2    1    2  501    0  0.89822270944E+01  0.30246130230E+02 -0.54474693556E+02  0.46324072874E+03  0.45894332082E+03 0.  0.
         13    1    3    3    0    0  0.20647269771E+03  0.53944848146E+02 -0.13067854949E+03  0.25023569857E+03  0.00000000000E+00 0.  1.
          1    1    3    3  501    0 -0.19749047062E+03 -0.23698717917E+02  0.76203855935E+02  0.21300503017E+03  0.00000000000E+00 0.  1.
         21    1    1    2  502  501 -0.89822270944E+01 -0.30246130230E+02 -0.72457444744E+00  0.31560003257E+02  0.00000000000E+00 0.  1.
<scales pt_clust_4="550.00000" pt_clust_5="550.00000" pt_clust_6="31.55168"></scales>
<mgrwt>
<rscale>  0 0.30000000E+03</rscale>
<asrwt>  1 0.31551685E+02</asrwt>
<pdfrwt beam="1">  1        1 0.79927539E+00 0.30000000E+03</pdfrwt>
<pdfrwt beam="2">0</pdfrwt>
<totfact> 0.10703762E-03</totfact>
</mgrwt>
<clustering>
<clus scale="   31.552">  1  6  2 -1</clus>
<clus scale="  458.943">  4  5 -1 -1</clus>
<clus scale="  300.000">  1  4  2 -1</clus>
</clustering>
</event>
<event>
 6    1  0.1029244E-011  0.3000000E+03  0.7818608E-02  0.1093470E+00
          1   -1    0    0  502    0  0.00000000000E+00  0.00000000000E+00  0.23854715680E+03  0.23854715680E+03  0.00000000000E+00 0.  1.
         13   -1    0    0    0    0 -0.00000000000E+00 -0.00000000000E+00 -0.27500000000E+03  0.27500000000E+03  0.00000000000E+00 0.  1.
    9000005    2    1    2  501    0 -0.34382617925E+02  0.24291070027E+01 -0.41134070382E+02  0.47876240634E+03  0.47574506304E+03 0.  0.
         13    1    3    3    0    0  0.30701513036E+02 -0.15056477237E+03  0.15728833262E+03  0.21989077553E+03  0.00000000000E+00 0.  1.
          3    1    3    3  501    0 -0.65084130961E+02  0.15299387937E+03 -0.19842240300E+03  0.25887163082E+03  0.00000000000E+00 0.  1.
         21    1    1    2  502  501  0.34382617925E+02 -0.24291070027E+01  0.46812271794E+01  0.34784750454E+02  0.00000000000E+00 0. -1.
<scales pt_clust_4="550.00000" pt_clust_5="550.00000" pt_clust_6="34.46832"></scales>
<mgrwt>
<rscale>  0 0.30000000E+03</rscale>
<asrwt>  1 0.34468318E+02</asrwt>
<pdfrwt beam="1">  1        1 0.86744421E+00 0.30000000E+03</pdfrwt>
<pdfrwt beam="2">0</pdfrwt>
<totfact> 0.26988713E-04</totfact>
</mgrwt>
<clustering>
<clus scale="   34.468">  1  6  2 -1</clus>
<clus scale="  475.745">  4  5 -1 -1</clus>
<clus scale="  300.000">  1  4  2 -1</clus>
</clustering>
</event>
<event>
 6    1  0.1029244E-011  0.3000000E+03  0.7818608E-02  0.1093470E+00
          1   -1    0    0  502    0  0.00000000000E+00  0.00000000000E+00  0.23606488013E+03  0.23606488013E+03  0.00000000000E+00 0.  1.
         13   -1    0    0    0    0 -0.00000000000E+00 -0.00000000000E+00 -0.27500000000E+03  0.27500000000E+03  0.00000000000E+00 0.  1.
    9000005    2    1    2  501    0  0.30604893590E+02 -0.18565513285E+02 -0.36413552496E+02  0.47518039745E+03  0.47242896347E+03 0.  0.
         13    1    3    3    0    0  0.12010467689E+02  0.53989852448E+02  0.21024603054E+03  0.21739951439E+03  0.00000000000E+00 0.  1.
          3    1    3    3  501    0  0.18594425901E+02 -0.72555365733E+02 -0.24665958303E+03  0.25778088306E+03  0.00000000000E+00 0.  1.
         21    1    1    2  502  501 -0.30604893590E+02  0.18565513285E+02 -0.25215673701E+01  0.35884482680E+02  0.00000000000E+00 0.  1.
<scales pt_clust_4="550.00000" pt_clust_5="550.00000" pt_clust_6="35.79578"></scales>
<mgrwt>
<rscale>  0 0.30000000E+03</rscale>
<asrwt>  1 0.35795779E+02</asrwt>
<pdfrwt beam="1">  1        1 0.85841775E+00 0.30000000E+03</pdfrwt>
<pdfrwt beam="2">0</pdfrwt>
<totfact> 0.33477200E-04</totfact>
</mgrwt>
<clustering>
<clus scale="   35.796">  1  6  2 -1</clus>
<clus scale="  472.429">  4  5 -1 -1</clus>
<clus scale="  300.000">  1  4  2 -1</clus>
</clustering>
</event>
<event>
 6    1  0.1029244E-011  0.3000000E+03  0.7818608E-02  0.1093470E+00
          1   -1    0    0  502    0  0.00000000000E+00  0.00000000000E+00  0.22918589752E+03  0.22918589752E+03  0.00000000000E+00 0.  1.
         13   -1    0    0    0    0 -0.00000000000E+00 -0.00000000000E+00 -0.27500000000E+03  0.27500000000E+03  0.00000000000E+00 0.  1.
    9000005    2    1    2  501    0 -0.27613100528E+02  0.13444196000E+02 -0.64058005788E+02  0.46846377924E+03  0.46304606102E+03 0.  0.
         13    1    3    3    0    0  0.78779838782E+02  0.19015677638E+03  0.75698021478E+02  0.21930812356E+03  0.00000000000E+00 0.  1.
          3    1    3    3  501    0 -0.10639293931E+03 -0.17671258038E+03 -0.13975602727E+03  0.24915565568E+03  0.00000000000E+00 0.  1.
         21    1    1    2  502  501  0.27613100528E+02 -0.13444196000E+02  0.18243903311E+02  0.35722118287E+02  0.00000000000E+00 0.  1.
<scales pt_clust_4="550.00000" pt_clust_5="550.00000" pt_clust_6="30.71205"></scales>
<mgrwt>
<rscale>  0 0.30000000E+03</rscale>
<asrwt>  1 0.30712045E+02</asrwt>
<pdfrwt beam="1">  1        1 0.83340326E+00 0.30000000E+03</pdfrwt>
<pdfrwt beam="2">0</pdfrwt>
<totfact> 0.56979315E-04</totfact>
</mgrwt>
<clustering>
<clus scale="   30.712">  1  6  2 -1</clus>
<clus scale="  463.046">  4  5 -1 -1</clus>
<clus scale="  300.000">  1  4  2 -1</clus>
</clustering>
</event>
<event>
 6    1  0.1029244E-011  0.3000000E+03  0.7818608E-02  0.1093470E+00
          1   -1    0    0  502    0  0.00000000000E+00  0.00000000000E+00  0.24207070940E+03  0.24207070940E+03  0.00000000000E+00 0.  1.
         13   -1    0    0    0    0 -0.00000000000E+00 -0.00000000000E+00 -0.27500000000E+03  0.27500000000E+03  0.00000000000E+00 0.  1.
    9000005    2    1    2  501    0 -0.20092975295E+02 -0.30069228050E+02 -0.63011369981E+02  0.47003011383E+03  0.46438129703E+03 0.  0.
         13    1    3    3    0    0  0.17267544808E+03 -0.37532202270E+02  0.11228897252E+03  0.20936640114E+03  0.00000000000E+00 0.  1.
          3    1    3    3  501    0 -0.19276842337E+03  0.74629742194E+01 -0.17530034250E+03  0.26066371269E+03  0.00000000000E+00 0.  1.
         21    1    1    2  502  501  0.20092975295E+02  0.30069228050E+02  0.30082079380E+02  0.47040595570E+02  0.00000000000E+00 0.  1.
<scales pt_clust_4="550.00000" pt_clust_5="550.00000" pt_clust_6="36.16471"></scales>
<mgrwt>
<rscale>  0 0.30000000E+03</rscale>
<asrwt>  1 0.36164708E+02</asrwt>
<pdfrwt beam="1">  1        1 0.88025713E+00 0.30000000E+03</pdfrwt>
<pdfrwt beam="2">0</pdfrwt>
<totfact> 0.19474418E-04</totfact>
</mgrwt>
<clustering>
<clus scale="   36.165">  1  6  2 -1</clus>
<clus scale="  464.381">  4  5 -1 -1</clus>
<clus scale="  300.000">  1  4  2 -1</clus>
</clustering>
</event>
<event>
 6    1  0.1029244E-011  0.3000000E+03  0.7818608E-02  0.1093470E+00
          1   -1    0    0  502    0  0.00000000000E+00  0.00000000000E+00  0.25215243285E+03  0.25215243285E+03  0.00000000000E+00 0.  1.
         13   -1    0    0    0    0 -0.00000000000E+00 -0.00000000000E+00 -0.27500000000E+03  0.27500000000E+03  0.00000000000E+00 0.  1.
    9000005    2    1    2  501    0 -0.42937167187E+02  0.39549862367E+02 -0.25976473275E+02  0.46869234396E+03  0.46431664215E+03 0.  0.
         13    1    3    3    0    0  0.39074758246E+02  0.18567919616E+03  0.13770275494E+03  0.23444754069E+03  0.00000000000E+00 0.  1.
          3    1    3    3  501    0 -0.82011925433E+02 -0.14612933380E+03 -0.16367922821E+03  0.23424480327E+03  0.00000000000E+00 0.  1.
         21    1    1    2  502  501  0.42937167187E+02 -0.39549862367E+02  0.31289061208E+01  0.58460088888E+02  0.00000000000E+00 0. -1.
<scales pt_clust_4="550.00000" pt_clust_5="550.00000" pt_clust_6="58.37630"></scales>
<mgrwt>
<rscale>  0 0.30000000E+03</rscale>
<asrwt>  1 0.58376296E+02</asrwt>
<pdfrwt beam="1">  1        1 0.91691794E+00 0.30000000E+03</pdfrwt>
<pdfrwt beam="2">0</pdfrwt>
<totfact> 0.44654240E-05</totfact>
</mgrwt>
<clustering>
<clus scale="   58.376">  1  6  2 -1</clus>
<clus scale="  464.317">  4  5 -1 -1</clus>
<clus scale="  300.000">  1  4  2 -1</clus>
</clustering>
</event>
<event>
 6    1  0.1029244E-011  0.3000000E+03  0.7818608E-02  0.1093470E+00
          1   -1    0    0  502    0  0.00000000000E+00  0.00000000000E+00  0.25568392349E+03  0.25568392349E+03  0.00000000000E+00 0.  1.
         13   -1    0    0    0    0 -0.00000000000E+00 -0.00000000000E+00 -0.27500000000E+03  0.27500000000E+03  0.00000000000E+00 0.  1.
    9000005    2    1    2  501    0  0.10551096454E+01  0.49740672645E+02 -0.38377960912E+02  0.47740537988E+03  0.47325234398E+03 0.  0.
         13    1    3    3    0    0 -0.13261340260E+03  0.11306351013E+03  0.15549329054E+03  0.23355478003E+03  0.00000000000E+00 0.  1.
          3    1    3    3  501    0  0.13366851224E+03 -0.63322837483E+02 -0.19387125145E+03  0.24385059986E+03  0.00000000000E+00 0.  1.
         21    1    1    2  502  501 -0.10551096454E+01 -0.49740672645E+02  0.19061884398E+02  0.53278543602E+02  0.00000000000E+00 0. -1.
<scales pt_clust_4="550.00000" pt_clust_5="550.00000" pt_clust_6="49.75186"></scales>
<mgrwt>
<rscale>  0 0.30000000E+03</rscale>
<asrwt>  1 0.49751862E+02</asrwt>
<pdfrwt beam="1">  1        1 0.92975972E+00 0.30000000E+03</pdfrwt>
<pdfrwt beam="2">0</pdfrwt>
<totfact> 0.24890260E-05</totfact>
</mgrwt>
<clustering>
<clus scale="   49.752">  1  6  2 -1</clus>
<clus scale="  473.252">  4  5 -1 -1</clus>
<clus scale="  300.000">  1  4  2 -1</clus>
</clustering>
</event>
<event>
 6    1  0.1029244E-011  0.3000000E+03  0.7818608E-02  0.1093470E+00
          1   -1    0    0  502    0  0.00000000000E+00  0.00000000000E+00  0.24005240162E+03  0.24005240162E+03  0.00000000000E+00 0.  1.
         13   -1    0    0    0    0 -0.00000000000E+00 -0.00000000000E+00 -0.27500000000E+03  0.27500000000E+03  0.00000000000E+00 0.  1.
    9000005    2    1    2  501    0 -0.26938543919E+02 -0.23897951106E+02 -0.71087120055E+02  0.46403414761E+03  0.45714058482E+03 0.  0.
         13    1    3    3    0    0  0.19922770099E+03  0.48869581181E+02 -0.93416062506E+02  0.22540291378E+03  0.00000000000E+00 0.  1.
          3    1    3    3  501    0 -0.22616624490E+03 -0.72767532287E+02  0.22328942451E+02  0.23863123383E+03  0.00000000000E+00 0.  1.
         21    1    1    2  502  501  0.26938543919E+02  0.23897951106E+02  0.36139521678E+02  0.51018254014E+02  0.00000000000E+00 0. -1.
<scales pt_clust_4="550.00000" pt_clust_5="550.00000" pt_clust_6="36.01107"></scales>
<mgrwt>
<rscale>  0 0.30000000E+03</rscale>
<asrwt>  1 0.36011071E+02</asrwt>
<pdfrwt beam="1">  1        1 0.87291782E+00 0.30000000E+03</pdfrwt>
<pdfrwt beam="2">0</pdfrwt>
<totfact> 0.23518735E-04</totfact>
</mgrwt>
<clustering>
<clus scale="   36.011">  1  6  2 -1</clus>
<clus scale="  457.141">  4  5 -1 -1</clus>
<clus scale="  300.000">  1  4  2 -1</clus>
</clustering>
</event>
<event>
 6    1  0.1029244E-011  0.3000000E+03  0.7818608E-02  0.1093470E+00
          1   -1    0    0  502    0  0.00000000000E+00  0.00000000000E+00  0.22926682212E+03  0.22926682212E+03  0.00000000000E+00 0.  1.
         13   -1    0    0    0    0 -0.00000000000E+00 -0.00000000000E+00 -0.27500000000E+03  0.27500000000E+03  0.00000000000E+00 0.  1.
    9000005    2    1    2  501    0 -0.34002287705E+02  0.48707233733E+01 -0.58202206891E+02  0.46772429621E+03  0.46281599029E+03 0.  0.
         13    1    3    3    0    0  0.11402840410E+03  0.17448559739E+03  0.55230909434E+02  0.21563430616E+03  0.00000000000E+00 0.  1.
          3    1    3    3  501    0 -0.14803069181E+03 -0.16961487401E+03 -0.11343311633E+03  0.25208999005E+03  0.00000000000E+00 0.  1.
         21    1    1    2  502  501  0.34002287705E+02 -0.48707233733E+01  0.12469029015E+02  0.36542525911E+02  0.00000000000E+00 0. -1.
<scales pt_clust_4="550.00000" pt_clust_5="550.00000" pt_clust_6="34.34937"></scales>
<mgrwt>
<rscale>  0 0.30000000E+03</rscale>
<asrwt>  1 0.34349374E+02</asrwt>
<pdfrwt beam="1">  1        1 0.83369754E+00 0.30000000E+03</pdfrwt>
<pdfrwt beam="2">0</pdfrwt>
<totfact> 0.55501296E-04</totfact>
</mgrwt>
<clustering>
<clus scale="   34.349">  1  6  2 -1</clus>
<clus scale="  462.816">  4  5 -1 -1</clus>
<clus scale="  300.000">  1  4  2 -1</clus>
</clustering>
</event>
<event>
 6    1  0.1029244E-011  0.3000000E+03  0.7818608E-02  0.1093470E+00
          1   -1    0    0  502    0  0.00000000000E+00  0.00000000000E+00  0.24971135620E+03  0.24971135620E+03  0.00000000000E+00 0.  1.
         13   -1    0    0    0    0 -0.00000000000E+00 -0.00000000000E+00 -0.27500000000E+03  0.27500000000E+03  0.00000000000E+00 0.  1.
    9000005    2    1    2  501    0  0.89875956820E+01 -0.30097136455E+02 -0.72584654360E+02  0.46793524226E+03  0.46120304032E+03 0.  0.
         13    1    3    3    0    0 -0.12663648323E+03  0.36658804215E+02  0.14947520950E+03  0.19930756399E+03  0.00000000000E+00 0.  1.
          1    1    3    3  501    0  0.13562407891E+03 -0.66755940670E+02 -0.22205986386E+03  0.26862767827E+03  0.00000000000E+00 0.  1.
         21    1    1    2  502  501 -0.89875956820E+01  0.30097136455E+02  0.47296010558E+02  0.56776113936E+02  0.00000000000E+00 0.  1.
<scales pt_clust_4="550.00000" pt_clust_5="550.00000" pt_clust_6="31.41042"></scales>
<mgrwt>
<rscale>  0 0.30000000E+03</rscale>
<asrwt>  1 0.31410420E+02</asrwt>
<pdfrwt beam="1">  1        1 0.90804130E+00 0.30000000E+03</pdfrwt>
<pdfrwt beam="2">0</pdfrwt>
<totfact> 0.81553635E-05</totfact>
</mgrwt>
<clustering>
<clus scale="   31.410">  1  6  2 -1</clus>
<clus scale="  461.203">  4  5 -1 -1</clus>
<clus scale="  300.000">  1  4  2 -1</clus>
</clustering>
</event>
<event>
 6    1  0.1029244E-011  0.3000000E+03  0.7818608E-02  0.1093470E+00
          1   -1    0    0  502    0  0.00000000000E+00  0.00000000000E+00  0.25940892360E+03  0.25940892360E+03  0.00000000000E+00 0.  1.
         13   -1    0    0    0    0 -0.00000000000E+00 -0.00000000000E+00 -0.27500000000E+03  0.27500000000E+03  0.00000000000E+00 0.  1.
    9000005    2    1    2  501    0  0.27754225234E+02 -0.31622469582E+02 -0.56901278612E+02  0.47544443931E+03  0.47014825509E+03 0.  0.
         13    1    3    3    0    0 -0.13584261678E+03 -0.13323875723E+03 -0.16737878438E+03  0.25341949496E+03  0.00000000000E+00 0.  1.
          3    1    3    3  501    0  0.16359684202E+03  0.10161628765E+03  0.11047750577E+03  0.22202494435E+03  0.00000000000E+00 0.  1.
         21    1    1    2  502  501 -0.27754225234E+02  0.31622469582E+02  0.41310202208E+02  0.58964484287E+02  0.00000000000E+00 0.  1.
<scales pt_clust_4="550.00000" pt_clust_5="550.00000" pt_clust_6="42.07467"></scales>
<mgrwt>
<rscale>  0 0.30000000E+03</rscale>
<asrwt>  1 0.42074667E+02</asrwt>
<pdfrwt beam="1">  1        1 0.94330518E+00 0.30000000E+03</pdfrwt>
<pdfrwt beam="2">0</pdfrwt>
<totfact> 0.16182794E-05</totfact>
</mgrwt>
<clustering>
<clus scale="   42.075">  1  6  2 -1</clus>
<clus scale="  470.148">  4  5 -1 -1</clus>
<clus scale="  300.000">  1  4  2 -1</clus>
</clustering>
</event>
<event>
 6    1  0.1029244E-011  0.3000000E+03  0.7818608E-02  0.1093470E+00
          1   -1    0    0  502    0  0.00000000000E+00  0.00000000000E+00  0.22033400977E+03  0.22033400977E+03  0.00000000000E+00 0.  1.
         13   -1    0    0    0    0 -0.00000000000E+00 -0.00000000000E+00 -0.27500000000E+03  0.27500000000E+03  0.00000000000E+00 0.  1.
    9000005    2    1    2  501    0 -0.60668407371E+01 -0.31110319274E+02 -0.65171385990E+02  0.46194206670E+03  0.45622199083E+03 0.  0.
         13    1    3    3    0    0 -0.53780209103E+02 -0.23847531661E+03 -0.30698736424E+02  0.24638425262E+03  0.00000000000E+00 0.  1.
          1    1    3    3  501    0  0.47713368366E+02  0.20736499734E+03 -0.34472649567E+02  0.21555781408E+03  0.00000000000E+00 0.  1.
         21    1    1    2  502  501  0.60668407371E+01  0.31110319274E+02  0.10505395759E+02  0.33391943069E+02  0.00000000000E+00 0. -1.
<scales pt_clust_4="550.00000" pt_clust_5="550.00000" pt_clust_6="31.69635"></scales>
<mgrwt>
<rscale>  0 0.30000000E+03</rscale>
<asrwt>  1 0.31696349E+02</asrwt>
<pdfrwt beam="1">  1        1 0.80121458E+00 0.30000000E+03</pdfrwt>
<pdfrwt beam="2">0</pdfrwt>
<totfact> 0.10354379E-03</totfact>
</mgrwt>
<clustering>
<clus scale="   31.696">  1  6  2 -1</clus>
<clus scale="  456.222">  4  5 -1 -1</clus>
<clus scale="  300.000">  1  4  2 -1</clus>
</clustering>
</event>
<event>
 6    1  0.1029244E-011  0.3000000E+03  0.7818608E-02  0.1093470E+00
          1   -1    0    0  502    0  0.00000000000E+00  0.00000000000E+00  0.23175422719E+03  0.23175422719E+03  0.00000000000E+00 0.  1.
         13   -1    0    0    0    0 -0.00000000000E+00 -0.00000000000E+00 -0.27500000000E+03  0.27500000000E+03  0.00000000000E+00 0.  1.
    9000005    2    1    2  501    0  0.28437456290E+02  0.14550776850E+02 -0.67005444362E+02  0.46694297225E+03  0.46100498450E+03 0.  0.
         13    1    3    3    0    0  0.16602478941E+03  0.27190488826E+02  0.13945188478E+03  0.21851860688E+03  0.00000000000E+00 0.  1.
          3    1    3    3  501    0 -0.13758733312E+03 -0.12639711976E+02 -0.20645732915E+03  0.24842436538E+03  0.00000000000E+00 0.  1.
         21    1    1    2  502  501 -0.28437456290E+02 -0.14550776850E+02  0.23759671550E+02  0.39811254933E+02  0.00000000000E+00 0.  1.
<scales pt_clust_4="550.00000" pt_clust_5="550.00000" pt_clust_6="31.94392"></scales>
<mgrwt>
<rscale>  0 0.30000000E+03</rscale>
<asrwt>  1 0.31943920E+02</asrwt>
<pdfrwt beam="1">  1        1 0.84274264E+00 0.30000000E+03</pdfrwt>
<pdfrwt beam="2">0</pdfrwt>
<totfact> 0.48060403E-04</totfact>
</mgrwt>
<clustering>
<clus scale="   31.944">  1  6  2 -1</clus>
<clus scale="  461.005">  4  5 -1 -1</clus>
<clus scale="  300.000">  1  4  2 -1</clus>
</clustering>
</event>
<event>
 6    1  0.1029244E-011  0.3000000E+03  0.7818608E-02  0.1093470E+00
          1   -1    0    0  502    0  0.00000000000E+00  0.00000000000E+00  0.23901210160E+03  0.23901210160E+03  0.00000000000E+00 0.  1.
         13   -1    0    0    0    0 -0.00000000000E+00 -0.00000000000E+00 -0.27500000000E+03  0.27500000000E+03  0.00000000000E+00 0.  1.
    9000005    2    1    2  501    0 -0.30751836700E+02  0.54383070532E+01 -0.60765839985E+02  0.47414736740E+03  0.46919930526E+03 0.  0.
         13    1    3    3    0    0  0.68176094762E+02 -0.19981291867E+03  0.55574527375E+02  0.21831562120E+03  0.00000000000E+00 0.  1.
          1    1    3    3  501    0 -0.98927931462E+02  0.20525122573E+03 -0.11634036736E+03  0.25583174620E+03  0.00000000000E+00 0.  1.
         21    1    1    2  502  501  0.30751836700E+02 -0.54383070532E+01  0.24777941587E+02  0.39864734206E+02  0.00000000000E+00 0.  1.
<scales pt_clust_4="550.00000" pt_clust_5="550.00000" pt_clust_6="31.22900"></scales>
<mgrwt>
<rscale>  0 0.30000000E+03</rscale>
<asrwt>  1 0.31229003E+02</asrwt>
<pdfrwt beam="1">  1        1 0.86913491E+00 0.30000000E+03</pdfrwt>
<pdfrwt beam="2">0</pdfrwt>
<totfact> 0.26410602E-04</totfact>
</mgrwt>
<clustering>
<clus scale="   31.229">  1  6  2 -1</clus>
<clus scale="  469.199">  4  5 -1 -1</clus>
<clus scale="  300.000">  1  4  2 -1</clus>
</clustering>
</event>
<event>
 6    1  0.1029244E-011  0.3000000E+03  0.7818608E-02  0.1093470E+00
          1   -1    0    0  502    0  0.00000000000E+00  0.00000000000E+00  0.23619199989E+03  0.23619199989E+03  0.00000000000E+00 0.  1.
         13   -1    0    0    0    0 -0.00000000000E+00 -0.00000000000E+00 -0.27500000000E+03  0.27500000000E+03  0.00000000000E+00 0.  1.
    9000005    2    1    2  501    0  0.25581891551E+02  0.22635646740E+02 -0.50752369641E+02  0.47500534984E+03  0.47104933252E+03 0.  0.
         13    1    3    3    0    0 -0.70385118690E+02 -0.20906197707E+03 -0.38448913865E+02  0.22391805235E+03  0.00000000000E+00 0.  1.
          1    1    3    3  501    0  0.95967010241E+02  0.23169762381E+03 -0.12303455775E+02  0.25108729749E+03  0.00000000000E+00 0.  1.
         21    1    1    2  502  501 -0.25581891551E+02 -0.22635646740E+02  0.11944369533E+02  0.36186650055E+02  0.00000000000E+00 0.  1.
<scales pt_clust_4="550.00000" pt_clust_5="550.00000" pt_clust_6="34.15854"></scales>
<mgrwt>
<rscale>  0 0.30000000E+03</rscale>
<asrwt>  1 0.34158537E+02</asrwt>
<pdfrwt beam="1">  1        1 0.85888000E+00 0.30000000E+03</pdfrwt>
<pdfrwt beam="2">0</pdfrwt>
<totfact> 0.33395699E-04</totfact>
</mgrwt>
<clustering>
<clus scale="   34.159">  1  6  2 -1</clus>
<clus scale="  471.049">  4  5 -1 -1</clus>
<clus scale="  300.000">  1  4  2 -1</clus>
</clustering>
</event>
<event>
 6    1  0.1029244E-011  0.3000000E+03  0.7818608E-02  0.1093470E+00
          1   -1    0    0  502    0  0.00000000000E+00  0.00000000000E+00  0.22960518666E+03  0.22960518666E+03  0.00000000000E+00 0.  1.
         13   -1    0    0    0    0 -0.00000000000E+00 -0.00000000000E+00 -0.27500000000E+03  0.27500000000E+03  0.00000000000E+00 0.  1.
    9000005    2    1    2  501    0 -0.26847968003E+02 -0.13944133189E+02 -0.39095110685E+02  0.47370310761E+03  0.47111670979E+03 0.  0.
         13    1    3    3    0    0 -0.22834347535E+03 -0.34836686600E+02 -0.11417312962E+03  0.25766226149E+03  0.00000000000E+00 0.  1.
          3    1    3    3  501    0  0.20149550734E+03  0.20892553411E+02  0.75078018937E+02  0.21604084613E+03  0.00000000000E+00 0.  1.
         21    1    1    2  502  501  0.26847968003E+02  0.13944133189E+02 -0.62997026508E+01  0.30902079053E+02  0.00000000000E+00 0.  1.
<scales pt_clust_4="550.00000" pt_clust_5="550.00000" pt_clust_6="30.25315"></scales>
<mgrwt>
<rscale>  0 0.30000000E+03</rscale>
<asrwt>  1 0.30253151E+02</asrwt>
<pdfrwt beam="1">  1        1 0.83492795E+00 0.30000000E+03</pdfrwt>
<pdfrwt beam="2">0</pdfrwt>
<totfact> 0.55682431E-04</totfact>
</mgrwt>
<clustering>
<clus scale="   30.253">  1  6  2 -1</clus>
<clus scale="  471.117">  4  5 -1 -1</clus>
<clus scale="  300.000">  1  4  2 -1</clus>
</clustering>
</event>
<event>
 6    1  0.1029244E-011  0.3000000E+03  0.7818608E-02  0.1093470E+00
          1   -1    0    0  502    0  0.00000000000E+00  0.00000000000E+00  0.25160196643E+03  0.25160196643E+03  0.00000000000E+00 0.  1.
         13   -1    0    0    0    0 -0.00000000000E+00 -0.00000000000E+00 -0.27500000000E+03  0.27500000000E+03  0.00000000000E+00 0.  1.
    9000005    2    1    2  501    0 -0.19000543787E+02 -0.32859790457E+02 -0.29571739546E+02  0.48814548273E+03  0.48576819372E+03 0.  0.
         13    1    3    3    0    0  0.73323443610E+02 -0.21138198657E+03 -0.13487567839E+03  0.26124723970E+03  0.00000000000E+00 0.  1.
          1    1    3    3  501    0 -0.92323987397E+02  0.17852219611E+03  0.10530393884E+03  0.22689824303E+03  0.00000000000E+00 0.  1.
         21    1    1    2  502  501  0.19000543787E+02  0.32859790457E+02  0.61737059706E+01  0.38456483699E+02  0.00000000000E+00 0. -1.
<scales pt_clust_4="550.00000" pt_clust_5="550.00000" pt_clust_6="37.95769"></scales>
<mgrwt>
<rscale>  0 0.30000000E+03</rscale>
<asrwt>  1 0.37957693E+02</asrwt>
<pdfrwt beam="1">  1        1 0.91491624E+00 0.30000000E+03</pdfrwt>
<pdfrwt beam="2">0</pdfrwt>
<totfact> 0.53576506E-05</totfact>
</mgrwt>
<clustering>
<clus scale="   37.958">  1  6  2 -1</clus>
<clus scale="  485.768">  4  5 -1 -1</clus>
<clus scale="  300.000">  1  4  2 -1</clus>
</clustering>
</event>
<event>
 6    1  0.1029244E-011  0.3000000E+03  0.7818608E-02  0.1093470E+00
          1   -1    0    0  502    0  0.00000000000E+00  0.00000000000E+00  0.24870606945E+03  0.24870606945E+03  0.00000000000E+00 0.  1.
         13   -1    0    0    0    0 -0.00000000000E+00 -0.00000000000E+00 -0.27500000000E+03  0.27500000000E+03  0.00000000000E+00 0.  1.
    9000005    2    1    2  501    0  0.35808185436E+02  0.31196877496E+02 -0.50713700641E+02  0.47030385525E+03  0.46514338168E+03 0.  0.
         13    1    3    3    0    0 -0.21840119138E+02  0.13773683706E+03 -0.22100246471E+03  0.26132454247E+03  0.00000000000E+00 0.  1.
          3    1    3    3  501    0  0.57648304574E+02 -0.10653995956E+03  0.17028876407E+03  0.20897931279E+03  0.00000000000E+00 0.  1.
         21    1    1    2  502  501 -0.35808185436E+02 -0.31196877496E+02  0.24419770092E+02  0.53402214197E+02  0.00000000000E+00 0.  1.
<scales pt_clust_4="550.00000" pt_clust_5="550.00000" pt_clust_6="47.49180"></scales>
<mgrwt>
<rscale>  0 0.30000000E+03</rscale>
<asrwt>  1 0.47491803E+02</asrwt>
<pdfrwt beam="1">  1        1 0.90438571E+00 0.30000000E+03</pdfrwt>
<pdfrwt beam="2">0</pdfrwt>
<totfact> 0.89787124E-05</totfact>
</mgrwt>
<clustering>
<clus scale="   47.492">  1  6  2 -1</clus>
<clus scale="  465.143">  4  5 -1 -1</clus>
<clus scale="  300.000">  1  4  2 -1</clus>
</clustering>
</event>
<event>
 6    1  0.1029244E-011  0.3000000E+03  0.7818608E-02  0.1093470E+00
          1   -1    0    0  502    0  0.00000000000E+00  0.00000000000E+00  0.23835905069E+03  0.23835905069E+03  0.00000000000E+00 0.  1.
         13   -1    0    0    0    0 -0.00000000000E+00 -0.00000000000E+00 -0.27500000000E+03  0.27500000000E+03  0.00000000000E+00 0.  1.
    9000005    2    1    2  501    0  0.34946579126E+02  0.59923841756E+01 -0.42459522562E+02  0.47742817462E+03  0.47421269363E+03 0.  0.
         13    1    3    3    0    0 -0.14702618070E+02 -0.21472504970E+03 -0.10948629176E+03  0.24147517891E+03  0.00000000000E+00 0.  1.
          1    1    3    3  501    0  0.49649197195E+02  0.22071743387E+03  0.67026769198E+02  0.23595299571E+03  0.00000000000E+00 0.  1.
         21    1    1    2  502  501 -0.34946579126E+02 -0.59923841756E+01  0.58185732558E+01  0.35930876074E+02  0.00000000000E+00 0.  1.
<scales pt_clust_4="550.00000" pt_clust_5="550.00000" pt_clust_6="35.45662"></scales>
<mgrwt>
<rscale>  0 0.30000000E+03</rscale>
<asrwt>  1 0.35456622E+02</asrwt>
<pdfrwt beam="1">  1        1 0.86676018E+00 0.30000000E+03</pdfrwt>
<pdfrwt beam="2">0</pdfrwt>
<totfact> 0.27294315E-04</totfact>
</mgrwt>
<clustering>
<clus scale="   35.457">  1  6  2 -1</clus>
<clus scale="  474.213">  4  5 -1 -1</clus>
<clus scale="  300.000">  1  4  2 -1</clus>
</clustering>
</event>
<event>
 6    1  0.1029244E-011  0.3000000E+03  0.7818608E-02  0.1093470E+00
          1   -1    0    0  502    0  0.00000000000E+00  0.00000000000E+00  0.24277301127E+03  0.24277301127E+03  0.00000000000E+00 0.  1.
         13   -1    0    0    0    0 -0.00000000000E+00 -0.00000000000E+00 -0.27500000000E+03  0.27500000000E+03  0.00000000000E+00 0.  1.
    9000005    2    1    2  501    0  0.94564152233E+01 -0.32100753988E+02 -0.46088196566E+02  0.48155125982E+03  0.47817111140E+03 0.  0.
         13    1    3    3    0    0  0.74126124088E+02  0.14924749743E+03  0.13710149630E+03  0.21579230304E+03  0.00000000000E+00 0.  1.
          1    1    3    3  501    0 -0.64669708864E+02 -0.18134825142E+03 -0.18318969286E+03  0.26575895678E+03  0.00000000000E+00 0.  1.
         21    1    1    2  502  501 -0.94564152233E+01  0.32100753988E+02  0.13861207837E+02  0.36221751451E+02  0.00000000000E+00 0. -1.
<scales pt_clust_4="550.00000" pt_clust_5="550.00000" pt_clust_6="33.46464"></scales>
<mgrwt>
<rscale>  0 0.30000000E+03</rscale>
<asrwt>  1 0.33464641E+02</asrwt>
<pdfrwt beam="1">  1        1 0.88281095E+00 0.30000000E+03</pdfrwt>
<pdfrwt beam="2">0</pdfrwt>
<totfact> 0.18319743E-04</totfact>
</mgrwt>
<clustering>
<clus scale="   33.465">  1  6  2 -1</clus>
<clus scale="  478.171">  4  5 -1 -1</clus>
<clus scale="  300.000">  1  4  2 -1</clus>
</clustering>
</event>
<event>
 6    1  0.1029244E-011  0.3000000E+03  0.7818608E-02  0.1093470E+00
          1   -1    0    0  502    0  0.00000000000E+00  0.00000000000E+00  0.22392796172E+03  0.22392796172E+03  0.00000000000E+00 0.  1.
         13   -1    0    0    0    0 -0.00000000000E+00 -0.00000000000E+00 -0.27500000000E+03  0.27500000000E+03  0.00000000000E+00 0.  1.
    9000005    2    1    2  501    0 -0.21587932618E+02 -0.23608840633E+02 -0.35269686453E+02  0.46324700721E+03  0.46079325377E+03 0.  0.
         13    1    3    3    0    0  0.81003626827E+01 -0.21351513545E+03 -0.12879906932E+03  0.24948653110E+03  0.00000000000E+00 0.  1.
          1    1    3    3  501    0 -0.29688295300E+02  0.18990629482E+03  0.93529382869E+02  0.21376047611E+03  0.00000000000E+00 0.  1.
         21    1    1    2  502  501  0.21587932618E+02  0.23608840633E+02 -0.15802351832E+02  0.35680954502E+02  0.00000000000E+00 0. -1.
<scales pt_clust_4="550.00000" pt_clust_5="550.00000" pt_clust_6="31.99089"></scales>
<mgrwt>
<rscale>  0 0.30000000E+03</rscale>
<asrwt>  1 0.31990893E+02</asrwt>
<pdfrwt beam="1">  1        1 0.81428350E+00 0.30000000E+03</pdfrwt>
<pdfrwt beam="2">0</pdfrwt>
<totfact> 0.82048952E-04</totfact>
</mgrwt>
<clustering>
<clus scale="   31.991">  1  6  2 -1</clus>
<clus scale="  460.793">  4  5 -1 -1</clus>
<clus scale="  300.000">  1  4  2 -1</clus>
</clustering>
</event>
<event>
 6    1  0.1029244E-011  0.3000000E+03  0.7818608E-02  0.1093470E+00
          1   -1    0    0  502    0  0.00000000000E+00  0.00000000000E+00  0.24051834620E+03  0.24051834620E+03  0.00000000000E+00 0.  1.
         13   -1    0    0    0    0 -0.00000000000E+00 -0.00000000000E+00 -0.27500000000E+03  0.27500000000E+03  0.00000000000E+00 0.  1.
    9000005    2    1    2  501    0 -0.29168329000E+02  0.35773426336E+02 -0.27224021838E+02  0.46879359183E+03  0.46572068338E+03 0.  0.
         13    1    3    3    0    0 -0.35147075719E+02  0.86090805531E+02 -0.23615631691E+03  0.25380455029E+03  0.00000000000E+00 0.  1.
          1    1    3    3  501    0  0.59787467192E+01 -0.50317379195E+02  0.20893229507E+03  0.21498904155E+03  0.00000000000E+00 0.  1.
         21    1    1    2  502  501  0.29168329000E+02 -0.35773426336E+02 -0.72576319652E+01  0.46724754363E+02  0.00000000000E+00 0.  1.
<scales pt_clust_4="550.00000" pt_clust_5="550.00000" pt_clust_6="46.15768"></scales>
<mgrwt>
<rscale>  0 0.30000000E+03</rscale>
<asrwt>  1 0.46157682E+02</asrwt>
<pdfrwt beam="1">  1        1 0.87461217E+00 0.30000000E+03</pdfrwt>
<pdfrwt beam="2">0</pdfrwt>
<totfact> 0.21588087E-04</totfact>
</mgrwt>
<clustering>
<clus scale="   46.158">  1  6  2 -1</clus>
<clus scale="  465.721">  4  5 -1 -1</clus>
<clus scale="  300.000">  1  4  2 -1</clus>
</clustering>
</event>
<event>
 6    1  0.1029244E-011  0.3000000E+03  0.7818608E-02  0.1093470E+00
          1   -1    0    0  502    0  0.00000000000E+00  0.00000000000E+00  0.22859686537E+03  0.22859686537E+03  0.00000000000E+00 0.  1.
         13   -1    0    0    0    0 -0.00000000000E+00 -0.00000000000E+00 -0.27500000000E+03  0.27500000000E+03  0.00000000000E+00 0.  1.
    9000005    2    1    2  501    0 -0.75682021376E+01  0.30392750412E+02 -0.55990442639E+02  0.47084150800E+03  0.46645021067E+03 0.  0.
         13    1    3    3    0    0  0.10601710666E+03 -0.16764404599E+03 -0.12240128382E+03  0.23307987331E+03  0.00000000000E+00 0.  1.
          1    1    3    3  501    0 -0.11358530880E+03  0.19803679641E+03  0.66410841182E+02  0.23776163469E+03  0.00000000000E+00 0.  1.
         21    1    1    2  502  501  0.75682021376E+01 -0.30392750412E+02  0.95873080064E+01  0.32755357363E+02  0.00000000000E+00 0.  1.
<scales pt_clust_4="550.00000" pt_clust_5="550.00000" pt_clust_6="31.32087"></scales>
<mgrwt>
<rscale>  0 0.30000000E+03</rscale>
<asrwt>  1 0.31320871E+02</asrwt>
<pdfrwt beam="1">  1        1 0.83126133E+00 0.30000000E+03</pdfrwt>
<pdfrwt beam="2">0</pdfrwt>
<totfact> 0.58955796E-04</totfact>
</mgrwt>
<clustering>
<clus scale="   31.321">  1  6  2 -1</clus>
<clus scale="  466.450">  4  5 -1 -1</clus>
<clus scale="  300.000">  1  4  2 -1</clus>
</clustering>
</event>
<event>
 6    1  0.1029244E-011  0.3000000E+03  0.7818608E-02  0.1093470E+00
          1   -1    0    0  502    0  0.00000000000E+00  0.00000000000E+00  0.25562307553E+03  0.25562307553E+03  0.00000000000E+00 0.  1.
         13   -1    0    0    0    0 -0.00000000000E+00 -0.00000000000E+00 -0.27500000000E+03  0.27500000000E+03  0.00000000000E+00 0.  1.
    9000005    2    1    2  501    0 -0.57925668539E+02 -0.21195429746E+02 -0.24764996027E+02  0.46870651367E+03  0.46396967746E+03 0.  0.
         13    1    3    3    0    0  0.10809770050E+03 -0.17083807875E+03 -0.10920886701E+03  0.22977671474E+03  0.00000000000E+00 0.  1.
          1    1    3    3  501    0 -0.16602336904E+03  0.14964264900E+03  0.84443870986E+02  0.23892979892E+03  0.00000000000E+00 0.  1.
         21    1    1    2  502  501  0.57925668539E+02  0.21195429746E+02  0.53880715545E+01  0.61916561862E+02  0.00000000000E+00 0.  1.
<scales pt_clust_4="550.00000" pt_clust_5="550.00000" pt_clust_6="61.68168"></scales>
<mgrwt>
<rscale>  0 0.30000000E+03</rscale>
<asrwt>  1 0.61681677E+02</asrwt>
<pdfrwt beam="1">  1        1 0.92953846E+00 0.30000000E+03</pdfrwt>
<pdfrwt beam="2">0</pdfrwt>
<totfact> 0.24187142E-05</totfact>
</mgrwt>
<clustering>
<clus scale="   61.682">  1  6  2 -1</clus>
<clus scale="  463.970">  4  5 -1 -1</clus>
<clus scale="  300.000">  1  4  2 -1</clus>
</clustering>
</event>
<event>
 6    1  0.1029244E-011  0.3000000E+03  0.7818608E-02  0.1093470E+00
          1   -1    0    0  502    0  0.00000000000E+00  0.00000000000E+00  0.22912251026E+03  0.22912251026E+03  0.00000000000E+00 0.  1.
         13   -1    0    0    0    0 -0.00000000000E+00 -0.00000000000E+00 -0.27500000000E+03  0.27500000000E+03  0.00000000000E+00 0.  1.
    9000005    2    1    2  501    0  0.31300984062E+02 -0.32754297828E+01 -0.22540780876E+02  0.46494238743E+03  0.46332802288E+03 0.  0.
         13    1    3    3    0    0 -0.24070674028E+01 -0.23192531741E+03 -0.28915553636E+02  0.23373330116E+03  0.00000000000E+00 0.  1.
          3    1    3    3  501    0  0.33708051465E+02  0.22864988763E+03  0.63747727599E+01  0.23120908627E+03  0.00000000000E+00 0.  1.
         21    1    1    2  502  501 -0.31300984062E+02  0.32754297828E+01 -0.23336708867E+02  0.39180122821E+02  0.00000000000E+00 0. -1.
<scales pt_clust_4="550.00000" pt_clust_5="550.00000" pt_clust_6="31.47191"></scales>
<mgrwt>
<rscale>  0 0.30000000E+03</rscale>
<asrwt>  1 0.31471909E+02</asrwt>
<pdfrwt beam="1">  1        1 0.83317276E+00 0.30000000E+03</pdfrwt>
<pdfrwt beam="2">0</pdfrwt>
<totfact> 0.56939608E-04</totfact>
</mgrwt>
<clustering>
<clus scale="   31.472">  1  6  2 -1</clus>
<clus scale="  463.328">  4  5 -1 -1</clus>
<clus scale="  300.000">  1  4  2 -1</clus>
</clustering>
</event>
<event>
 6    1  0.1029244E-011  0.3000000E+03  0.7818608E-02  0.1093470E+00
          1   -1    0    0  502    0  0.00000000000E+00  0.00000000000E+00  0.22521821687E+03  0.22521821687E+03  0.00000000000E+00 0.  1.
         13   -1    0    0    0    0 -0.00000000000E+00 -0.00000000000E+00 -0.27500000000E+03  0.27500000000E+03  0.00000000000E+00 0.  1.
    9000005    2    1    2  501    0 -0.30499457868E+02  0.14823185833E+02 -0.62724422173E+02  0.46392144465E+03  0.45840899849E+03 0.  0.
         13    1    3    3    0    0 -0.20306521882E+03  0.98734400246E+02 -0.13004660461E+03  0.26056877069E+03  0.00000000000E+00 0.  1.
          1    1    3    3  501    0  0.17256576096E+03 -0.83911214413E+02  0.67322182436E+02  0.20335267396E+03  0.00000000000E+00 0.  1.
         21    1    1    2  502  501  0.30499457868E+02 -0.14823185833E+02  0.12942639048E+02  0.36296772226E+02  0.00000000000E+00 0.  1.
<scales pt_clust_4="550.00000" pt_clust_5="550.00000" pt_clust_6="33.91082"></scales>
<mgrwt>
<rscale>  0 0.30000000E+03</rscale>
<asrwt>  1 0.33910821E+02</asrwt>
<pdfrwt beam="1">  1        1 0.81897533E+00 0.30000000E+03</pdfrwt>
<pdfrwt beam="2">0</pdfrwt>
<totfact> 0.74248837E-04</totfact>
</mgrwt>
<clustering>
<clus scale="   33.911">  1  6  2 -1</clus>
<clus scale="  458.409">  4  5 -1 -1</clus>
<clus scale="  300.000">  1  4  2 -1</clus>
</clustering>
</event>
<event>
 6    1  0.1029244E-011  0.3000000E+03  0.7818608E-02  0.1093470E+00
          1   -1    0    0  502    0  0.00000000000E+00  0.00000000000E+00  0.24856312994E+03  0.24856312994E+03  0.00000000000E+00 0.  1.
         13   -1    0    0    0    0 -0.00000000000E+00 -0.00000000000E+00 -0.27500000000E+03  0.27500000000E+03  0.00000000000E+00 0.  1.
    9000005    2    1    2  501    0  0.24934387543E+02 -0.24345615282E+02 -0.42160661041E+02  0.48533133338E+03  0.48223909957E+03 0.  0.
         13    1    3    3    0    0  0.22048521322E+03 -0.21447237279E+02 -0.14461176173E+03  0.26454919177E+03  0.00000000000E+00 0.  1.
          3    1    3    3  501    0 -0.19555082568E+03 -0.28983780031E+01  0.10245110069E+03  0.22078214160E+03  0.00000000000E+00 0.  1.
         21    1    1    2  502  501 -0.24934387543E+02  0.24345615282E+02  0.15723790977E+02  0.38231796561E+02  0.00000000000E+00 0.  1.
<scales pt_clust_4="550.00000" pt_clust_5="550.00000" pt_clust_6="34.84871"></scales>
<mgrwt>
<rscale>  0 0.30000000E+03</rscale>
<asrwt>  1 0.34848711E+02</asrwt>
<pdfrwt beam="1">  1        1 0.90386593E+00 0.30000000E+03</pdfrwt>
<pdfrwt beam="2">0</pdfrwt>
<totfact> 0.97020043E-05</totfact>
</mgrwt>
<clustering>
<clus scale="   34.849">  1  6  2 -1</clus>
<clus scale="  482.239">  4  5 -1 -1</clus>
<clus scale="  300.000">  1  4  2 -1</clus>
</clustering>
</event>
<event>
 6    1  0.1029244E-011  0.3000000E+03  0.7818608E-02  0.1093470E+00
          1   -1    0    0  502    0  0.00000000000E+00  0.00000000000E+00  0.23345232489E+03  0.23345232489E+03  0.00000000000E+00 0.  1.
         13   -1    0    0    0    0 -0.00000000000E+00 -0.00000000000E+00 -0.27500000000E+03  0.27500000000E+03  0.00000000000E+00 0.  1.
    9000005    2    1    2  501    0 -0.16143629954E+02  0.34427488180E+02 -0.36004495076E+02  0.47002582915E+03  0.46709965496E+03 0.  0.
         13    1    3    3    0    0 -0.37579807563E+02 -0.67560678508E+02  0.19870762278E+03  0.21321680648E+03  0.00000000000E+00 0.  1.
          3    1    3    3  501    0  0.21436177610E+02  0.10198816669E+03 -0.23471211785E+03  0.25680902266E+03  0.00000000000E+00 0.  1.
         21    1    1    2  502  501  0.16143629954E+02 -0.34427488180E+02 -0.55431800316E+01  0.38426495746E+02  0.00000000000E+00 0. -1.
<scales pt_clust_4="550.00000" pt_clust_5="550.00000" pt_clust_6="38.02460"></scales>
<mgrwt>
<rscale>  0 0.30000000E+03</rscale>
<asrwt>  1 0.38024600E+02</asrwt>
<pdfrwt beam="1">  1        1 0.84891755E+00 0.30000000E+03</pdfrwt>
<pdfrwt beam="2">0</pdfrwt>
<totfact> 0.41019435E-04</totfact>
</mgrwt>
<clustering>
<clus scale="   38.025">  1  6  2 -1</clus>
<clus scale="  467.100">  4  5 -1 -1</clus>
<clus scale="  300.000">  1  4  2 -1</clus>
</clustering>
</event>
<event>
 6    1  0.1029244E-011  0.3000000E+03  0.7818608E-02  0.1093470E+00
          1   -1    0    0  502    0  0.00000000000E+00  0.00000000000E+00  0.25167012334E+03  0.25167012334E+03  0.00000000000E+00 0.  1.
         13   -1    0    0    0    0 -0.00000000000E+00 -0.00000000000E+00 -0.27500000000E+03  0.27500000000E+03  0.00000000000E+00 0.  1.
    9000005    2    1    2  501    0 -0.41604846195E+02  0.21118557082E+02  0.24121287036E+02  0.46012262439E+03  0.45711490493E+03 0.  0.
         13    1    3    3    0    0 -0.12640824643E+03  0.21332221592E+03 -0.51284540615E+01  0.24801555115E+03  0.00000000000E+00 0.  1.
          3    1    3    3  501    0  0.84803400234E+02 -0.19220365884E+03  0.29249741098E+02  0.21210707324E+03  0.00000000000E+00 0.  1.
         21    1    1    2  502  501  0.41604846195E+02 -0.21118557082E+02 -0.47451163698E+02  0.66547498949E+02  0.00000000000E+00 0.  1.
<scales pt_clust_4="550.00000" pt_clust_5="550.00000" pt_clust_6="46.65789"></scales>
<mgrwt>
<rscale>  0 0.30000000E+03</rscale>
<asrwt>  1 0.46657892E+02</asrwt>
<pdfrwt beam="1">  1        1 0.91516408E+00 0.30000000E+03</pdfrwt>
<pdfrwt beam="2">0</pdfrwt>
<totfact> 0.50934575E-05</totfact>
</mgrwt>
<clustering>
<clus scale="   46.658">  1  6  2 -1</clus>
<clus scale="  457.115">  4  5 -1 -1</clus>
<clus scale="  300.000">  1  4  2 -1</clus>
</clustering>
</event>
<event>
 6    1  0.1029244E-011  0.3000000E+03  0.7818608E-02  0.1093470E+00
          1   -1    0    0  502    0  0.00000000000E+00  0.00000000000E+00  0.22543195541E+03  0.22543195541E+03  0.00000000000E+00 0.  1.
         13   -1    0    0    0    0 -0.00000000000E+00 -0.00000000000E+00 -0.27500000000E+03  0.27500000000E+03  0.00000000000E+00 0.  1.
    9000005    2    1    2  501    0  0.31307073617E+02  0.11857409696E+01 -0.64552372960E+02  0.46570345218E+03  0.46014254061E+03 0.  0.
         13    1    3    3    0    0 -0.12668447330E+01 -0.95275010213E+02  0.17841637688E+03  0.20226550869E+03  0.00000000000E+00 0.  1.
          1    1    3    3  501    0  0.32573918350E+02  0.96460751183E+02 -0.24296874984E+03  0.26343794349E+03  0.00000000000E+00 0.  1.
         21    1    1    2  502  501 -0.31307073617E+02 -0.11857409696E+01  0.14984328374E+02  0.34728503235E+02  0.00000000000E+00 0.  1.
<scales pt_clust_4="550.00000" pt_clust_5="550.00000" pt_clust_6="31.32952"></scales>
<mgrwt>
<rscale>  0 0.30000000E+03</rscale>
<asrwt>  1 0.31329520E+02</asrwt>
<pdfrwt beam="1">  1        1 0.81975257E+00 0.30000000E+03</pdfrwt>
<pdfrwt beam="2">0</pdfrwt>
<totfact> 0.74223898E-04</totfact>
</mgrwt>
<clustering>
<clus scale="   31.330">  1  6  2 -1</clus>
<clus scale="  460.143">  4  5 -1 -1</clus>
<clus scale="  300.000">  1  4  2 -1</clus>
</clustering>
</event>
<event>
 6    1  0.1029244E-011  0.3000000E+03  0.7818608E-02  0.1093470E+00
          1   -1    0    0  502    0  0.00000000000E+00  0.00000000000E+00  0.23599285096E+03  0.23599285096E+03  0.00000000000E+00 0.  1.
         13   -1    0    0    0    0 -0.00000000000E+00 -0.00000000000E+00 -0.27500000000E+03  0.27500000000E+03  0.00000000000E+00 0.  1.
    9000005    2    1    2  501    0 -0.17313960851E+02 -0.31571652270E+02 -0.42171423691E+02  0.47484654961E+03  0.47159757658E+03 0.  0.
         13    1    3    3    0    0  0.62819134615E+01 -0.23352970667E+03 -0.11303046391E+03  0.25952162165E+03  0.00000000000E+00 0.  1.
          1    1    3    3  501    0 -0.23595874313E+02  0.20195805440E+03  0.70859040216E+02  0.21532492796E+03  0.00000000000E+00 0.  1.
         21    1    1    2  502  501  0.17313960851E+02  0.31571652270E+02  0.31642746538E+01  0.36146301353E+02  0.00000000000E+00 0.  1.
<scales pt_clust_4="550.00000" pt_clust_5="550.00000" pt_clust_6="36.00753"></scales>
<mgrwt>
<rscale>  0 0.30000000E+03</rscale>
<asrwt>  1 0.36007533E+02</asrwt>
<pdfrwt beam="1">  1        1 0.85815582E+00 0.30000000E+03</pdfrwt>
<pdfrwt beam="2">0</pdfrwt>
<totfact> 0.33652294E-04</totfact>
</mgrwt>
<clustering>
<clus scale="   36.008">  1  6  2 -1</clus>
<clus scale="  471.598">  4  5 -1 -1</clus>
<clus scale="  300.000">  1  4  2 -1</clus>
</clustering>
</event>
<event>
 6    1  0.1029244E-011  0.3000000E+03  0.7818608E-02  0.1093470E+00
          1   -1    0    0  502    0  0.00000000000E+00  0.00000000000E+00  0.25062856152E+03  0.25062856152E+03  0.00000000000E+00 0.  1.
         13   -1    0    0    0    0 -0.00000000000E+00 -0.00000000000E+00 -0.27500000000E+03  0.27500000000E+03  0.00000000000E+00 0.  1.
    9000005    2    1    2  501    0 -0.59533066384E+01 -0.38082410132E+02 -0.40969263978E+02  0.48366191247E+03  0.48037969686E+03 0.  0.
         13    1    3    3    0    0 -0.16852598760E+03 -0.12656466373E+03  0.11635274931E+03  0.24074381586E+03  0.00000000000E+00 0.  1.
          1    1    3    3  501    0  0.16257268096E+03  0.88482253596E+02 -0.15732201329E+03  0.24291809661E+03  0.00000000000E+00 0.  1.
         21    1    1    2  502  501  0.59533066384E+01  0.38082410132E+02  0.16597825498E+02  0.41966649052E+02  0.00000000000E+00 0. -1.
<scales pt_clust_4="550.00000" pt_clust_5="550.00000" pt_clust_6="38.54493"></scales>
<mgrwt>
<rscale>  0 0.30000000E+03</rscale>
<asrwt>  1 0.38544932E+02</asrwt>
<pdfrwt beam="1">  1        1 0.91137659E+00 0.30000000E+03</pdfrwt>
<pdfrwt beam="2">0</pdfrwt>
<totfact> 0.65273910E-05</totfact>
</mgrwt>
<clustering>
<clus scale="   38.545">  1  6  2 -1</clus>
<clus scale="  480.380">  4  5 -1 -1</clus>
<clus scale="  300.000">  1  4  2 -1</clus>
</clustering>
</event>
<event>
 6    1  0.1029244E-011  0.3000000E+03  0.7818608E-02  0.1093470E+00
          1   -1    0    0  502    0  0.00000000000E+00  0.00000000000E+00  0.22881243777E+03  0.22881243777E+03  0.00000000000E+00 0.  1.
         13   -1    0    0    0    0 -0.00000000000E+00 -0.00000000000E+00 -0.27500000000E+03  0.27500000000E+03  0.00000000000E+00 0.  1.
    9000005    2    1    2  501    0  0.14876483398E+02 -0.31839976245E+02 -0.41000377149E+02  0.46828778810E+03  0.46516376440E+03 0.  0.
         13    1    3    3    0    0  0.63973774363E+01  0.70814066267E+02 -0.23669317086E+03  0.24714209587E+03  0.00000000000E+00 0.  1.
          3    1    3    3  501    0  0.84791059621E+01 -0.10265404251E+03  0.19569279371E+03  0.22114569223E+03  0.00000000000E+00 0.  1.
         21    1    1    2  502  501 -0.14876483398E+02  0.31839976245E+02 -0.51871850790E+01  0.35524649677E+02  0.00000000000E+00 0.  1.
<scales pt_clust_4="550.00000" pt_clust_5="550.00000" pt_clust_6="35.14392"></scales>
<mgrwt>
<rscale>  0 0.30000000E+03</rscale>
<asrwt>  1 0.35143920E+02</asrwt>
<pdfrwt beam="1">  1        1 0.83204523E+00 0.30000000E+03</pdfrwt>
<pdfrwt beam="2">0</pdfrwt>
<totfact> 0.56879052E-04</totfact>
</mgrwt>
<clustering>
<clus scale="   35.144">  1  6  2 -1</clus>
<clus scale="  465.164">  4  5 -1 -1</clus>
<clus scale="  300.000">  1  4  2 -1</clus>
</clustering>
</event>
<event>
 6    1  0.1029244E-011  0.3000000E+03  0.7818608E-02  0.1093470E+00
          1   -1    0    0  502    0  0.00000000000E+00  0.00000000000E+00  0.24628135253E+03  0.24628135253E+03  0.00000000000E+00 0.  1.
         13   -1    0    0    0    0 -0.00000000000E+00 -0.00000000000E+00 -0.27500000000E+03  0.27500000000E+03  0.00000000000E+00 0.  1.
    9000005    2    1    2  501    0 -0.44438077304E+02  0.82419380751E+01 -0.60412970927E+02  0.46607988156E+03  0.45993266538E+03 0.  0.
         13    1    3    3    0    0 -0.26184616632E+02 -0.15470209821E+03  0.13781163987E+03  0.20883108347E+03  0.00000000000E+00 0.  1.
          1    1    3    3  501    0 -0.18253460673E+02  0.16294403629E+03 -0.19822461080E+03  0.25724879809E+03  0.00000000000E+00 0.  1.
         21    1    1    2  502  501  0.44438077304E+02 -0.82419380751E+01  0.31694323455E+02  0.55201470968E+02  0.00000000000E+00 0. -1.
<scales pt_clust_4="550.00000" pt_clust_5="550.00000" pt_clust_6="45.19593"></scales>
<mgrwt>
<rscale>  0 0.30000000E+03</rscale>
<asrwt>  1 0.45195932E+02</asrwt>
<pdfrwt beam="1">  1        1 0.89556855E+00 0.30000000E+03</pdfrwt>
<pdfrwt beam="2">0</pdfrwt>
<totfact> 0.11858877E-04</totfact>
</mgrwt>
<clustering>
<clus scale="   45.196">  1  6  2 -1</clus>
<clus scale="  459.933">  4  5 -1 -1</clus>
<clus scale="  300.000">  1  4  2 -1</clus>
</clustering>
</event>
<event>
 6    1  0.1029244E-011  0.3000000E+03  0.7818608E-02  0.1093470E+00
          1   -1    0    0  502    0  0.00000000000E+00  0.00000000000E+00  0.22622189433E+03  0.22622189433E+03  0.00000000000E+00 0.  1.
         13   -1    0    0    0    0 -0.00000000000E+00 -0.00000000000E+00 -0.27500000000E+03  0.27500000000E+03  0.00000000000E+00 0.  1.
    9000005    2    1    2  501    0 -0.13540560199E+02  0.33416462778E+02 -0.39845620251E+02  0.46407628825E+03  0.46095457597E+03 0.  0.
         13    1    3    3    0    0 -0.19145598494E+03  0.56657859289E+01  0.11770425419E+03  0.22481500563E+03  0.00000000000E+00 0.  1.
          3    1    3    3  501    0  0.17791542474E+03  0.27750676849E+02 -0.15754987444E+03  0.23926128263E+03  0.00000000000E+00 0.  1.
         21    1    1    2  502  501  0.13540560199E+02 -0.33416462778E+02 -0.89324854202E+01  0.37145606077E+02  0.00000000000E+00 0.  1.
<scales pt_clust_4="550.00000" pt_clust_5="550.00000" pt_clust_6="36.05562"></scales>
<mgrwt>
<rscale>  0 0.30000000E+03</rscale>
<asrwt>  1 0.36055624E+02</asrwt>
<pdfrwt beam="1">  1        1 0.82262507E+00 0.30000000E+03</pdfrwt>
<pdfrwt beam="2">0</pdfrwt>
<totfact> 0.68205863E-04</totfact>
</mgrwt>
<clustering>
<clus scale="   36.056">  1  6  2 -1</clus>
<clus scale="  460.955">  4  5 -1 -1</clus>
<clus scale="  300.000">  1  4  2 -1</clus>
</clustering>
</event>
<event>
 6    1  0.1029244E-011  0.3000000E+03  0.7818608E-02  0.1093470E+00
          1   -1    0    0  502    0  0.00000000000E+00  0.00000000000E+00  0.22699812594E+03  0.22699812594E+03  0.00000000000E+00 0.  1.
         13   -1    0    0    0    0 -0.00000000000E+00 -0.00000000000E+00 -0.27500000000E+03  0.27500000000E+03  0.00000000000E+00 0.  1.
    9000005    2    1    2  501    0 -0.35705851461E+01  0.30184840603E+02 -0.50910301099E+02  0.47146400358E+03  0.46772061558E+03 0.  0.
         13    1    3    3    0    0  0.25142178857E+02  0.80736361312E+02 -0.25007645017E+03  0.26398621200E+03  0.00000000000E+00 0.  1.
          1    1    3    3  501    0 -0.28712764004E+02 -0.50551520709E+02  0.19916614907E+03  0.20747779158E+03  0.00000000000E+00 0.  1.
         21    1    1    2  502  501  0.35705851461E+01 -0.30184840603E+02  0.29084270439E+01  0.30534122361E+02  0.00000000000E+00 0. -1.
<scales pt_clust_4="550.00000" pt_clust_5="550.00000" pt_clust_6="30.39529"></scales>
<mgrwt>
<rscale>  0 0.30000000E+03</rscale>
<asrwt>  1 0.30395290E+02</asrwt>
<pdfrwt beam="1">  1        1 0.82544773E+00 0.30000000E+03</pdfrwt>
<pdfrwt beam="2">0</pdfrwt>
<totfact> 0.66473098E-04</totfact>
</mgrwt>
<clustering>
<clus scale="   30.395">  1  6  2 -1</clus>
<clus scale="  467.721">  4  5 -1 -1</clus>
<clus scale="  300.000">  1  4  2 -1</clus>
</clustering>
</event>
<event>
 6    1  0.1029244E-011  0.3000000E+03  0.7818608E-02  0.1093470E+00
          1   -1    0    0  502    0  0.00000000000E+00  0.00000000000E+00  0.26217021061E+03  0.26217021061E+03  0.00000000000E+00 0.  1.
         13   -1    0    0    0    0 -0.00000000000E+00 -0.00000000000E+00 -0.27500000000E+03  0.27500000000E+03  0.00000000000E+00 0.  1.
    9000005    2    1    2  501    0  0.39639625691E+02  0.10669514250E+02 -0.59962878744E+02  0.47466687813E+03  0.46907138039E+03 0.  0.
         13    1    3    3    0    0 -0.14015765505E+03  0.15322187574E+02 -0.20140794785E+03  0.24585381665E+03  0.00000000000E+00 0.  1.
          3    1    3    3  501    0  0.17979728074E+03 -0.46526733233E+01  0.14144506911E+03  0.22881306148E+03  0.00000000000E+00 0.  1.
         21    1    1    2  502  501 -0.39639625691E+02 -0.10669514250E+02  0.47133089356E+02  0.62503332483E+02  0.00000000000E+00 0.  1.
<scales pt_clust_4="550.00000" pt_clust_5="550.00000" pt_clust_6="41.05044"></scales>
<mgrwt>
<rscale>  0 0.30000000E+03</rscale>
<asrwt>  1 0.41050438E+02</asrwt>
<pdfrwt beam="1">  1        1 0.95334622E+00 0.30000000E+03</pdfrwt>
<pdfrwt beam="2">0</pdfrwt>
<totfact> 0.10213503E-05</totfact>
</mgrwt>
<clustering>
<clus scale="   41.050">  1  6  2 -1</clus>
<clus scale="  469.071">  4  5 -1 -1</clus>
<clus scale="  300.000">  1  4  2 -1</clus>
</clustering>
</event>
<event>
 6    1  0.1029244E-011  0.3000000E+03  0.7818608E-02  0.1093470E+00
          1   -1    0    0  502    0  0.00000000000E+00  0.00000000000E+00  0.23945358159E+03  0.23945358159E+03  0.00000000000E+00 0.  1.
         13   -1    0    0    0    0 -0.00000000000E+00 -0.00000000000E+00 -0.27500000000E+03  0.27500000000E+03  0.00000000000E+00 0.  1.
    9000005    2    1    2  501    0  0.88647924047E+01 -0.32061730136E+02 -0.62214918669E+02  0.47181852571E+03  0.46651418630E+03 0.  0.
         13    1    3    3    0    0 -0.82001866675E+01 -0.22662210099E+03  0.68398957177E+02  0.23686121899E+03  0.00000000000E+00 0.  1.
          1    1    3    3  501    0  0.17064979072E+02  0.19456037086E+03 -0.13061387585E+03  0.23495730672E+03  0.00000000000E+00 0.  1.
         21    1    1    2  502  501 -0.88647924047E+01  0.32061730136E+02  0.26668500263E+02  0.42635055881E+02  0.00000000000E+00 0. -1.
<scales pt_clust_4="550.00000" pt_clust_5="550.00000" pt_clust_6="33.26468"></scales>
<mgrwt>
<rscale>  0 0.30000000E+03</rscale>
<asrwt>  1 0.33264682E+02</asrwt>
<pdfrwt beam="1">  1        1 0.87074030E+00 0.30000000E+03</pdfrwt>
<pdfrwt beam="2">0</pdfrwt>
<totfact> 0.25126909E-04</totfact>
</mgrwt>
<clustering>
<clus scale="   33.265">  1  6  2 -1</clus>
<clus scale="  466.514">  4  5 -1 -1</clus>
<clus scale="  300.000">  1  4  2 -1</clus>
</clustering>
</event>
<event>
 6    1  0.1029244E-011  0.3000000E+03  0.7818608E-02  0.1093470E+00
          1   -1    0    0  502    0  0.00000000000E+00  0.00000000000E+00  0.22174509065E+03  0.22174509065E+03  0.00000000000E+00 0.  1.
         13   -1    0    0    0    0 -0.00000000000E+00 -0.00000000000E+00 -0.27500000000E+03  0.27500000000E+03  0.00000000000E+00 0.  1.
    9000005    2    1    2  501    0  0.12331811600E+02  0.30685323010E+02 -0.62407200046E+02  0.46243143374E+03  0.45700602804E+03 0.  0.
         13    1    3    3    0    0  0.12333693906E+02 -0.11656434675E+03 -0.21843156528E+03  0.24789456559E+03  0.00000000000E+00 0.  1.
          3    1    3    3  501    0 -0.18823058467E-02  0.14724966976E+03  0.15602436524E+03  0.21453686815E+03  0.00000000000E+00 0.  1.
         21    1    1    2  502  501 -0.12331811600E+02 -0.30685323010E+02  0.91522906959E+01  0.34313656910E+02  0.00000000000E+00 0.  1.
<scales pt_clust_4="550.00000" pt_clust_5="550.00000" pt_clust_6="33.07057"></scales>
<mgrwt>
<rscale>  0 0.30000000E+03</rscale>
<asrwt>  1 0.33070570E+02</asrwt>
<pdfrwt beam="1">  1        1 0.80634578E+00 0.30000000E+03</pdfrwt>
<pdfrwt beam="2">0</pdfrwt>
<totfact> 0.94066727E-04</totfact>
</mgrwt>
<clustering>
<clus scale="   33.071">  1  6  2 -1</clus>
<clus scale="  457.006">  4  5 -1 -1</clus>
<clus scale="  300.000">  1  4  2 -1</clus>
</clustering>
</event>
<event>
 6    1  0.1029244E-011  0.3000000E+03  0.7818608E-02  0.1093470E+00
          1   -1    0    0  502    0  0.00000000000E+00  0.00000000000E+00  0.23580315534E+03  0.23580315534E+03  0.00000000000E+00 0.  1.
         13   -1    0    0    0    0 -0.00000000000E+00 -0.00000000000E+00 -0.27500000000E+03  0.27500000000E+03  0.00000000000E+00 0.  1.
    9000005    2    1    2  501    0 -0.31874753126E+02  0.39836311720E+00 -0.36432123152E+02  0.47880624510E+03  0.47635277071E+03 0.  0.
         13    1    3    3    0    0  0.50023287507E+02 -0.21483776670E+03  0.60830290796E+02  0.22881852979E+03  0.00000000000E+00 0.  1.
          3    1    3    3  501    0 -0.81898040632E+02  0.21523612982E+03 -0.97262413947E+02  0.24998771531E+03  0.00000000000E+00 0.  1.
         21    1    1    2  502  501  0.31874753126E+02 -0.39836311720E+00 -0.27647215102E+01  0.31996910242E+02  0.00000000000E+00 0.  1.
<scales pt_clust_4="550.00000" pt_clust_5="550.00000" pt_clust_6="31.87726"></scales>
<mgrwt>
<rscale>  0 0.30000000E+03</rscale>
<asrwt>  1 0.31877258E+02</asrwt>
<pdfrwt beam="1">  1        1 0.85746602E+00 0.30000000E+03</pdfrwt>
<pdfrwt beam="2">0</pdfrwt>
<totfact> 0.35006363E-04</totfact>
</mgrwt>
<clustering>
<clus scale="   31.877">  1  6  2 -1</clus>
<clus scale="  476.353">  4  5 -1 -1</clus>
<clus scale="  300.000">  1  4  2 -1</clus>
</clustering>
</event>
<event>
 6    1  0.1029244E-011  0.3000000E+03  0.7818608E-02  0.1093470E+00
          1   -1    0    0  502    0  0.00000000000E+00  0.00000000000E+00  0.23770975658E+03  0.23770975658E+03  0.00000000000E+00 0.  1.
         13   -1    0    0    0    0 -0.00000000000E+00 -0.00000000000E+00 -0.27500000000E+03  0.27500000000E+03  0.00000000000E+00 0.  1.
    9000005    2    1    2  501    0 -0.30347565245E+02 -0.14052995223E+02 -0.69218116323E+02  0.46647286158E+03  0.46009490496E+03 0.  0.
         13    1    3    3    0    0  0.12232659455E+03 -0.15011458765E+03  0.83859199568E+02  0.21102263033E+03  0.00000000000E+00 0.  1.
          3    1    3    3  501    0 -0.15267415980E+03  0.13606159243E+03 -0.15307731589E+03  0.25545023125E+03  0.00000000000E+00 0.  1.
         21    1    1    2  502  501  0.30347565245E+02  0.14052995223E+02  0.31927872906E+02  0.46236895001E+02  0.00000000000E+00 0.  1.
<scales pt_clust_4="550.00000" pt_clust_5="550.00000" pt_clust_6="33.44341"></scales>
<mgrwt>
<rscale>  0 0.30000000E+03</rscale>
<asrwt>  1 0.33443406E+02</asrwt>
<pdfrwt beam="1">  1        1 0.86439911E+00 0.30000000E+03</pdfrwt>
<pdfrwt beam="2">0</pdfrwt>
<totfact> 0.29248265E-04</totfact>
</mgrwt>
<clustering>
<clus scale="   33.443">  1  6  2 -1</clus>
<clus scale="  460.095">  4  5 -1 -1</clus>
<clus scale="  300.000">  1  4  2 -1</clus>
</clustering>
</event>
<event>
 6    1  0.1029244E-011  0.3000000E+03  0.7818608E-02  0.1093470E+00
          1   -1    0    0  502    0  0.00000000000E+00  0.00000000000E+00  0.23092691590E+03  0.23092691590E+03  0.00000000000E+00 0.  1.
         13   -1    0    0    0    0 -0.00000000000E+00 -0.00000000000E+00 -0.27500000000E+03  0.27500000000E+03  0.00000000000E+00 0.  1.
    9000005    2    1    2  501    0 -0.30769650181E+02  0.13323822388E+02 -0.49466043428E+02  0.47196547268E+03  0.46816687445E+03 0.  0.
         13    1    3    3    0    0  0.12541447907E+03  0.13479136498E+03  0.11293725205E+03  0.21599149644E+03  0.00000000000E+00 0.  1.
          1    1    3    3  501    0 -0.15618412925E+03 -0.12146754259E+03 -0.16240329547E+03  0.25597397624E+03  0.00000000000E+00 0.  1.
         21    1    1    2  502  501  0.30769650181E+02 -0.13323822388E+02  0.53929593279E+01  0.33961443221E+02  0.00000000000E+00 0. -1.
<scales pt_clust_4="550.00000" pt_clust_5="550.00000" pt_clust_6="33.53052"></scales>
<mgrwt>
<rscale>  0 0.30000000E+03</rscale>
<asrwt>  1 0.33530518E+02</asrwt>
<pdfrwt beam="1">  1        1 0.83973424E+00 0.30000000E+03</pdfrwt>
<pdfrwt beam="2">0</pdfrwt>
<totfact> 0.50341053E-04</totfact>
</mgrwt>
<clustering>
<clus scale="   33.531">  1  6  2 -1</clus>
<clus scale="  468.167">  4  5 -1 -1</clus>
<clus scale="  300.000">  1  4  2 -1</clus>
</clustering>
</event>
<event>
 6    1  0.1029244E-011  0.3000000E+03  0.7818608E-02  0.1093470E+00
          1   -1    0    0  502    0  0.00000000000E+00  0.00000000000E+00  0.23970116644E+03  0.23970116644E+03  0.00000000000E+00 0.  1.
         13   -1    0    0    0    0 -0.00000000000E+00 -0.00000000000E+00 -0.27500000000E+03  0.27500000000E+03  0.00000000000E+00 0.  1.
    9000005    2    1    2  501    0  0.34412489287E+00 -0.32933534375E+02 -0.21942616793E+02  0.47916070169E+03  0.47752357377E+03 0.  0.
         13    1    3    3    0    0 -0.23055733495E+03 -0.74142630392E+02 -0.32594494036E+02  0.24436901478E+03  0.00000000000E+00 0.  1.
          3    1    3    3  501    0  0.23090145985E+03  0.41209096017E+02  0.10651877243E+02  0.23479168691E+03  0.00000000000E+00 0.  1.
         21    1    1    2  502  501 -0.34412489287E+00  0.32933534375E+02 -0.13356216767E+02  0.35540464751E+02  0.00000000000E+00 0.  1.
<scales pt_clust_4="550.00000" pt_clust_5="550.00000" pt_clust_6="32.93535"></scales>
<mgrwt>
<rscale>  0 0.30000000E+03</rscale>
<asrwt>  1 0.32935349E+02</asrwt>
<pdfrwt beam="1">  1        1 0.87164061E+00 0.30000000E+03</pdfrwt>
<pdfrwt beam="2">0</pdfrwt>
<totfact> 0.24647172E-04</totfact>
</mgrwt>
<clustering>
<clus scale="   32.935">  1  6  2 -1</clus>
<clus scale="  477.524">  4  5 -1 -1</clus>
<clus scale="  300.000">  1  4  2 -1</clus>
</clustering>
</event>
<event>
 6    1  0.1029244E-011  0.3000000E+03  0.7818608E-02  0.1093470E+00
          1   -1    0    0  502    0  0.00000000000E+00  0.00000000000E+00  0.23502566556E+03  0.23502566556E+03  0.00000000000E+00 0.  1.
         13   -1    0    0    0    0 -0.00000000000E+00 -0.00000000000E+00 -0.27500000000E+03  0.27500000000E+03  0.00000000000E+00 0.  1.
    9000005    2    1    2  501    0 -0.70122633655E+01  0.34273952227E+02 -0.59774954426E+02  0.46982690699E+03  0.46469387958E+03 0.  0.
         13    1    3    3    0    0  0.49061310783E+02  0.68163485187E+02  0.19205421398E+03  0.20961415514E+03  0.00000000000E+00 0.  1.
          3    1    3    3  501    0 -0.56073574148E+02 -0.33889532960E+02 -0.25182916841E+03  0.26021275184E+03  0.00000000000E+00 0.  1.
         21    1    1    2  502  501  0.70122633655E+01 -0.34273952227E+02  0.19800619984E+02  0.40198758569E+02  0.00000000000E+00 0.  1.
<scales pt_clust_4="550.00000" pt_clust_5="550.00000" pt_clust_6="34.98393"></scales>
<mgrwt>
<rscale>  0 0.30000000E+03</rscale>
<asrwt>  1 0.34983934E+02</asrwt>
<pdfrwt beam="1">  1        1 0.85463878E+00 0.30000000E+03</pdfrwt>
<pdfrwt beam="2">0</pdfrwt>
<totfact> 0.36737447E-04</totfact>
</mgrwt>
<clustering>
<clus scale="   34.984">  1  6  2 -1</clus>
<clus scale="  464.694">  4  5 -1 -1</clus>
<clus scale="  300.000">  1  4  2 -1</clus>
</clustering>
</event>
<event>
 6    1  0.1029244E-011  0.3000000E+03  0.7818608E-02  0.1093470E+00
          1   -1    0    0  502    0  0.00000000000E+00  0.00000000000E+00  0.22685747283E+03  0.22685747283E+03  0.00000000000E+00 0.  1.
         13   -1    0    0    0    0 -0.00000000000E+00 -0.00000000000E+00 -0.27500000000E+03  0.27500000000E+03  0.00000000000E+00 0.  1.
    9000005    2    1    2  501    0 -0.26841578097E+01  0.30736911624E+02 -0.52961062479E+02  0.47062958910E+03  0.46662123137E+03 0.  0.
         13    1    3    3    0    0  0.71333411404E+02 -0.20528278894E+03 -0.51183487177E+02  0.22326940762E+03  0.00000000000E+00 0.  1.
          1    1    3    3  501    0 -0.74017569214E+02  0.23601970057E+03 -0.17775753020E+01  0.24736018148E+03  0.00000000000E+00 0.  1.
         21    1    1    2  502  501  0.26841578097E+01 -0.30736911624E+02  0.48185353049E+01  0.31227883723E+02  0.00000000000E+00 0.  1.
<scales pt_clust_4="550.00000" pt_clust_5="550.00000" pt_clust_6="30.85389"></scales>
<mgrwt>
<rscale>  0 0.30000000E+03</rscale>
<asrwt>  1 0.30853889E+02</asrwt>
<pdfrwt beam="1">  1        1 0.82493626E+00 0.30000000E+03</pdfrwt>
<pdfrwt beam="2">0</pdfrwt>
<totfact> 0.66982266E-04</totfact>
</mgrwt>
<clustering>
<clus scale="   30.854">  1  6  2 -1</clus>
<clus scale="  466.621">  4  5 -1 -1</clus>
<clus scale="  300.000">  1  4  2 -1</clus>
</clustering>
</event>
<event>
 6    1  0.1029244E-011  0.3000000E+03  0.7818608E-02  0.1093470E+00
          1   -1    0    0  502    0  0.00000000000E+00  0.00000000000E+00  0.23981260953E+03  0.23981260953E+03  0.00000000000E+00 0.  1.
         13   -1    0    0    0    0 -0.00000000000E+00 -0.00000000000E+00 -0.27500000000E+03  0.27500000000E+03  0.00000000000E+00 0.  1.
    9000005    2    1    2  501    0 -0.15284956112E+02 -0.31459575316E+02 -0.43158923255E+02  0.47893949847E+03  0.47570685908E+03 0.  0.
         13    1    3    3    0    0  0.38381640539E+02 -0.22904174199E+03  0.73131198336E+02  0.24347780612E+03  0.00000000000E+00 0.  1.
          1    1    3    3  501    0 -0.53666596651E+02  0.19758216667E+03 -0.11629012159E+03  0.23546169235E+03  0.00000000000E+00 0.  1.
         21    1    1    2  502  501  0.15284956112E+02  0.31459575316E+02  0.79715327836E+01  0.35873111063E+02  0.00000000000E+00 0. -1.
<scales pt_clust_4="550.00000" pt_clust_5="550.00000" pt_clust_6="34.97620"></scales>
<mgrwt>
<rscale>  0 0.30000000E+03</rscale>
<asrwt>  1 0.34976203E+02</asrwt>
<pdfrwt beam="1">  1        1 0.87204585E+00 0.30000000E+03</pdfrwt>
<pdfrwt beam="2">0</pdfrwt>
<totfact> 0.24138791E-04</totfact>
</mgrwt>
<clustering>
<clus scale="   34.976">  1  6  2 -1</clus>
<clus scale="  475.707">  4  5 -1 -1</clus>
<clus scale="  300.000">  1  4  2 -1</clus>
</clustering>
</event>
<event>
 6    1  0.1029244E-011  0.3000000E+03  0.7818608E-02  0.1093470E+00
          1   -1    0    0  502    0  0.00000000000E+00  0.00000000000E+00  0.22933979179E+03  0.22933979179E+03  0.00000000000E+00 0.  1.
         13   -1    0    0    0    0 -0.00000000000E+00 -0.00000000000E+00 -0.27500000000E+03  0.27500000000E+03  0.00000000000E+00 0.  1.
    9000005    2    1    2  501    0  0.20949021142E+02  0.25028927719E+02 -0.57758999385E+02  0.46953046176E+03  0.46481979712E+03 0.  0.
         13    1    3    3    0    0 -0.21898688287E+03  0.50314648895E+02 -0.26565708871E+02  0.22625771954E+03  0.00000000000E+00 0.  1.
          1    1    3    3  501    0  0.23993590402E+03 -0.25285721177E+02 -0.31193290515E+02  0.24327274221E+03  0.00000000000E+00 0.  1.
         21    1    1    2  502  501 -0.20949021142E+02 -0.25028927719E+02  0.12098791178E+02  0.34809330035E+02  0.00000000000E+00 0.  1.
<scales pt_clust_4="550.00000" pt_clust_5="550.00000" pt_clust_6="32.63907"></scales>
<mgrwt>
<rscale>  0 0.30000000E+03</rscale>
<asrwt>  1 0.32639067E+02</asrwt>
<pdfrwt beam="1">  1        1 0.83396288E+00 0.30000000E+03</pdfrwt>
<pdfrwt beam="2">0</pdfrwt>
<totfact> 0.55784945E-04</totfact>
</mgrwt>
<clustering>
<clus scale="   32.639">  1  6  2 -1</clus>
<clus scale="  464.820">  4  5 -1 -1</clus>
<clus scale="  300.000">  1  4  2 -1</clus>
</clustering>
</event>
<event>
 6    1  0.1029244E-011  0.3000000E+03  0.7818608E-02  0.1093470E+00
          1   -1    0    0  502    0  0.00000000000E+00  0.00000000000E+00  0.24252160991E+03  0.24252160991E+03  0.00000000000E+00 0.  1.
         13   -1    0    0    0    0 -0.00000000000E+00 -0.00000000000E+00 -0.27500000000E+03  0.27500000000E+03  0.00000000000E+00 0.  1.
    9000005    2    1    2  501    0  0.28045061887E+02  0.18133583804E+02 -0.65034081158E+02  0.47088229839E+03  0.46517239263E+03 0.  0.
         13    1    3    3    0    0  0.12909233929E+03 -0.14995585743E+03 -0.15859727994E+03  0.25358369120E+03  0.00000000000E+00 0.  1.
          3    1    3    3  501    0 -0.10104727740E+03  0.16808944123E+03  0.93563198778E+02  0.21729860719E+03  0.00000000000E+00 0.  1.
         21    1    1    2  502  501 -0.28045061887E+02 -0.18133583804E+02  0.32555691064E+02  0.46639311514E+02  0.00000000000E+00 0.  1.
<scales pt_clust_4="550.00000" pt_clust_5="550.00000" pt_clust_6="33.39689"></scales>
<mgrwt>
<rscale>  0 0.30000000E+03</rscale>
<asrwt>  1 0.33396891E+02</asrwt>
<pdfrwt beam="1">  1        1 0.88189676E+00 0.30000000E+03</pdfrwt>
<pdfrwt beam="2">0</pdfrwt>
<totfact> 0.18840306E-04</totfact>
</mgrwt>
<clustering>
<clus scale="   33.397">  1  6  2 -1</clus>
<clus scale="  465.172">  4  5 -1 -1</clus>
<clus scale="  300.000">  1  4  2 -1</clus>
</clustering>
</event>
<event>
 6    1  0.1029244E-011  0.3000000E+03  0.7818608E-02  0.1093470E+00
          1   -1    0    0  502    0  0.00000000000E+00  0.00000000000E+00  0.24282417368E+03  0.24282417368E+03  0.00000000000E+00 0.  1.
         13   -1    0    0    0    0 -0.00000000000E+00 -0.00000000000E+00 -0.27500000000E+03  0.27500000000E+03  0.00000000000E+00 0.  1.
    9000005    2    1    2  501    0  0.29815557373E+02  0.91665291452E+01 -0.48358260816E+02  0.48268354329E+03  0.47924095073E+03 0.  0.
         13    1    3    3    0    0 -0.22216216846E+03 -0.18794700985E+02  0.74866795066E+01  0.22308142068E+03  0.00000000000E+00 0.  1.
          1    1    3    3  501    0  0.25197772583E+03  0.27961230130E+02 -0.55844940322E+02  0.25960212262E+03  0.00000000000E+00 0.  1.
         21    1    1    2  502  501 -0.29815557373E+02 -0.91665291452E+01  0.16182434496E+02  0.35140630390E+02  0.00000000000E+00 0.  1.
<scales pt_clust_4="550.00000" pt_clust_5="550.00000" pt_clust_6="31.19283"></scales>
<mgrwt>
<rscale>  0 0.30000000E+03</rscale>
<asrwt>  1 0.31192831E+02</asrwt>
<pdfrwt beam="1">  1        1 0.88299700E+00 0.30000000E+03</pdfrwt>
<pdfrwt beam="2">0</pdfrwt>
<totfact> 0.18460550E-04</totfact>
</mgrwt>
<clustering>
<clus scale="   31.193">  1  6  2 -1</clus>
<clus scale="  479.241">  4  5 -1 -1</clus>
<clus scale="  300.000">  1  4  2 -1</clus>
</clustering>
</event>
<event>
 6    1  0.1029244E-011  0.3000000E+03  0.7818608E-02  0.1093470E+00
          1   -1    0    0  502    0  0.00000000000E+00  0.00000000000E+00  0.24703739540E+03  0.24703739540E+03  0.00000000000E+00 0.  1.
         13   -1    0    0    0    0 -0.00000000000E+00 -0.00000000000E+00 -0.27500000000E+03  0.27500000000E+03  0.00000000000E+00 0.  1.
    9000005    2    1    2  501    0  0.33678239836E+02 -0.26865776772E+02 -0.12035088162E+02  0.47610614700E+03  0.47400023847E+03 0.  0.
         13    1    3    3    0    0  0.22405923001E+03 -0.11367182314E+03 -0.66500330383E+02  0.25989635602E+03  0.00000000000E+00 0.  1.
          1    1    3    3  501    0 -0.19038099018E+03  0.86806046366E+02  0.54465242221E+02  0.21620979098E+03  0.00000000000E+00 0.  1.
         21    1    1    2  502  501 -0.33678239836E+02  0.26865776772E+02 -0.15927516434E+02  0.45931248402E+02  0.00000000000E+00 0. -1.
<scales pt_clust_4="550.00000" pt_clust_5="550.00000" pt_clust_6="43.08127"></scales>
<mgrwt>
<rscale>  0 0.30000000E+03</rscale>
<asrwt>  1 0.43081268E+02</asrwt>
<pdfrwt beam="1">  1        1 0.89831780E+00 0.30000000E+03</pdfrwt>
<pdfrwt beam="2">0</pdfrwt>
<totfact> 0.11137963E-04</totfact>
</mgrwt>
<clustering>
<clus scale="   43.081">  1  6  2 -1</clus>
<clus scale="  474.000">  4  5 -1 -1</clus>
<clus scale="  300.000">  1  4  2 -1</clus>
</clustering>
</event>
<event>
 6    1  0.1029244E-011  0.3000000E+03  0.7818608E-02  0.1093470E+00
          1   -1    0    0  502    0  0.00000000000E+00  0.00000000000E+00  0.22452959846E+03  0.22452959846E+03  0.00000000000E+00 0.  1.
         13   -1    0    0    0    0 -0.00000000000E+00 -0.00000000000E+00 -0.27500000000E+03  0.27500000000E+03  0.00000000000E+00 0.  1.
    9000005    2    1    2  501    0 -0.25478630527E+02  0.16125242540E+02 -0.67690725184E+02  0.46480606743E+03  0.45886104867E+03 0.  0.
         13    1    3    3    0    0 -0.14920196047E+03 -0.12116617034E+03  0.98753145878E+02  0.21608944829E+03  0.00000000000E+00 0.  1.
          1    1    3    3  501    0  0.12372332994E+03  0.13729141288E+03 -0.16644387106E+03  0.24871661914E+03  0.00000000000E+00 0.  1.
         21    1    1    2  502  501  0.25478630527E+02 -0.16125242540E+02  0.17220323642E+02  0.34723531025E+02  0.00000000000E+00 0.  1.
<scales pt_clust_4="550.00000" pt_clust_5="550.00000" pt_clust_6="30.15268"></scales>
<mgrwt>
<rscale>  0 0.30000000E+03</rscale>
<asrwt>  1 0.30152679E+02</asrwt>
<pdfrwt beam="1">  1        1 0.81647127E+00 0.30000000E+03</pdfrwt>
<pdfrwt beam="2">0</pdfrwt>
<totfact> 0.79661304E-04</totfact>
</mgrwt>
<clustering>
<clus scale="   30.153">  1  6  2 -1</clus>
<clus scale="  458.861">  4  5 -1 -1</clus>
<clus scale="  300.000">  1  4  2 -1</clus>
</clustering>
</event>
<event>
 6    1  0.1029244E-011  0.3000000E+03  0.7818608E-02  0.1093470E+00
          1   -1    0    0  502    0  0.00000000000E+00  0.00000000000E+00  0.23334193430E+03  0.23334193430E+03  0.00000000000E+00 0.  1.
         13   -1    0    0    0    0 -0.00000000000E+00 -0.00000000000E+00 -0.27500000000E+03  0.27500000000E+03  0.00000000000E+00 0.  1.
    9000005    2    1    2  501    0  0.15067517757E+02  0.36038778168E+02 -0.46618158167E+02  0.46896648331E+03  0.46500589908E+03 0.  0.
         13    1    3    3    0    0  0.11553190944E+03 -0.18719513597E+03 -0.43006332454E+02  0.22414099505E+03  0.00000000000E+00 0.  1.
          3    1    3    3  501    0 -0.10046439168E+03  0.22323391414E+03 -0.36118257133E+01  0.24482548826E+03  0.00000000000E+00 0.  1.
         21    1    1    2  502  501 -0.15067517757E+02 -0.36038778168E+02  0.49600924698E+01  0.39375450988E+02  0.00000000000E+00 0.  1.
<scales pt_clust_4="550.00000" pt_clust_5="550.00000" pt_clust_6="39.06179"></scales>
<mgrwt>
<rscale>  0 0.30000000E+03</rscale>
<asrwt>  1 0.39061792E+02</asrwt>
<pdfrwt beam="1">  1        1 0.84851612E+00 0.30000000E+03</pdfrwt>
<pdfrwt beam="2">0</pdfrwt>
<totfact> 0.41167151E-04</totfact>
</mgrwt>
<clustering>
<clus scale="   39.062">  1  6  2 -1</clus>
<clus scale="  465.006">  4  5 -1 -1</clus>
<clus scale="  300.000">  1  4  2 -1</clus>
</clustering>
</event>
<event>
 6    1  0.1029244E-011  0.3000000E+03  0.7818608E-02  0.1093470E+00
          1   -1    0    0  502    0  0.00000000000E+00  0.00000000000E+00  0.22425180396E+03  0.22425180396E+03  0.00000000000E+00 0.  1.
         13   -1    0    0    0    0 -0.00000000000E+00 -0.00000000000E+00 -0.27500000000E+03  0.27500000000E+03  0.00000000000E+00 0.  1.
    9000005    2    1    2  501    0 -0.27168064349E+02 -0.17664995886E+02 -0.63982767922E+02  0.46424738005E+03  0.45867382691E+03 0.  0.
         13    1    3    3    0    0 -0.16260607953E+03  0.13821215993E+03 -0.12701165936E+03  0.24834512250E+03  0.00000000000E+00 0.  1.
          1    1    3    3  501    0  0.13543801519E+03 -0.15587715582E+03  0.63028891436E+02  0.21590225756E+03  0.00000000000E+00 0.  1.
         21    1    1    2  502  501  0.27168064349E+02  0.17664995886E+02  0.13234571882E+02  0.35004423907E+02  0.00000000000E+00 0.  1.
<scales pt_clust_4="550.00000" pt_clust_5="550.00000" pt_clust_6="32.40611"></scales>
<mgrwt>
<rscale>  0 0.30000000E+03</rscale>
<asrwt>  1 0.32406107E+02</asrwt>
<pdfrwt beam="1">  1        1 0.81546111E+00 0.30000000E+03</pdfrwt>
<pdfrwt beam="2">0</pdfrwt>
<totfact> 0.80075695E-04</totfact>
</mgrwt>
<clustering>
<clus scale="   32.406">  1  6  2 -1</clus>
<clus scale="  458.674">  4  5 -1 -1</clus>
<clus scale="  300.000">  1  4  2 -1</clus>
</clustering>
</event>
<event>
 6    1  0.1029244E-011  0.3000000E+03  0.7818608E-02  0.1093470E+00
          1   -1    0    0  502    0  0.00000000000E+00  0.00000000000E+00  0.24835492510E+03  0.24835492510E+03  0.00000000000E+00 0.  1.
         13   -1    0    0    0    0 -0.00000000000E+00 -0.00000000000E+00 -0.27500000000E+03  0.27500000000E+03  0.00000000000E+00 0.  1.
    9000005    2    1    2  501    0  0.37391463005E+02  0.36752946151E+00 -0.56864750725E+02  0.47527701551E+03  0.47037898020E+03 0.  0.
         13    1    3    3    0    0  0.24700746265E+03 -0.53030253005E+02 -0.43047793640E+01  0.25267256571E+03  0.00000000000E+00 0.  1.
          3    1    3    3  501    0 -0.20961599965E+03  0.53397782466E+02 -0.52559971361E+02  0.22260444980E+03  0.00000000000E+00 0.  1.
         21    1    1    2  502  501 -0.37391463005E+02 -0.36752946151E+00  0.30219675822E+02  0.48077909588E+02  0.00000000000E+00 0.  1.
<scales pt_clust_4="550.00000" pt_clust_5="550.00000" pt_clust_6="37.39327"></scales>
<mgrwt>
<rscale>  0 0.30000000E+03</rscale>
<asrwt>  1 0.37393269E+02</asrwt>
<pdfrwt beam="1">  1        1 0.90310882E+00 0.30000000E+03</pdfrwt>
<pdfrwt beam="2">0</pdfrwt>
<totfact> 0.98590254E-05</totfact>
</mgrwt>
<clustering>
<clus scale="   37.393">  1  6  2 -1</clus>
<clus scale="  470.379">  4  5 -1 -1</clus>
<clus scale="  300.000">  1  4  2 -1</clus>
</clustering>
</event>
<event>
 6    1  0.1029244E-011  0.3000000E+03  0.7818608E-02  0.1093470E+00
          1   -1    0    0  502    0  0.00000000000E+00  0.00000000000E+00  0.23164871736E+03  0.23164871736E+03  0.00000000000E+00 0.  1.
         13   -1    0    0    0    0 -0.00000000000E+00 -0.00000000000E+00 -0.27500000000E+03  0.27500000000E+03  0.00000000000E+00 0.  1.
    9000005    2    1    2  501    0 -0.32573541828E+02  0.18113707707E+01 -0.56352205160E+02  0.47152976695E+03  0.46701224117E+03 0.  0.
         13    1    3    3    0    0  0.64648462395E+02  0.21987388192E+03 -0.34751731144E+02  0.23180084223E+03  0.00000000000E+00 0.  1.
          3    1    3    3  501    0 -0.97222004223E+02 -0.21806251115E+03 -0.21600474016E+02  0.23972892473E+03  0.00000000000E+00 0.  1.
         21    1    1    2  502  501  0.32573541828E+02 -0.18113707707E+01  0.13000922517E+02  0.35118950405E+02  0.00000000000E+00 0. -1.
<scales pt_clust_4="550.00000" pt_clust_5="550.00000" pt_clust_6="32.62387"></scales>
<mgrwt>
<rscale>  0 0.30000000E+03</rscale>
<asrwt>  1 0.32623867E+02</asrwt>
<pdfrwt beam="1">  1        1 0.84235897E+00 0.30000000E+03</pdfrwt>
<pdfrwt beam="2">0</pdfrwt>
<totfact> 0.48223206E-04</totfact>
</mgrwt>
<clustering>
<clus scale="   32.624">  1  6  2 -1</clus>
<clus scale="  467.012">  4  5 -1 -1</clus>
<clus scale="  300.000">  1  4  2 -1</clus>
</clustering>
</event>
<event>
 6    1  0.1029244E-011  0.3000000E+03  0.7818608E-02  0.1093470E+00
          1   -1    0    0  502    0  0.00000000000E+00  0.00000000000E+00  0.23992584531E+03  0.23992584531E+03  0.00000000000E+00 0.  1.
         13   -1    0    0    0    0 -0.00000000000E+00 -0.00000000000E+00 -0.27500000000E+03  0.27500000000E+03  0.00000000000E+00 0.  1.
    9000005    2    1    2  501    0 -0.27978229252E+02  0.11541062717E+02 -0.48759523974E+02  0.48171038546E+03  0.47827965338E+03 0.  0.
         13    1    3    3    0    0 -0.37921168856E+02 -0.10193570179E+03 -0.23752289986E+03  0.26123941185E+03  0.00000000000E+00 0.  1.
          3    1    3    3  501    0  0.99429396038E+01  0.11347676450E+03  0.18876337588E+03  0.22047097361E+03  0.00000000000E+00 0.  1.
         21    1    1    2  502  501  0.27978229252E+02 -0.11541062717E+02  0.13685369284E+02  0.33215459851E+02  0.00000000000E+00 0. -1.
<scales pt_clust_4="550.00000" pt_clust_5="550.00000" pt_clust_6="30.26512"></scales>
<mgrwt>
<rscale>  0 0.30000000E+03</rscale>
<asrwt>  1 0.30265119E+02</asrwt>
<pdfrwt beam="1">  1        1 0.87245762E+00 0.30000000E+03</pdfrwt>
<pdfrwt beam="2">0</pdfrwt>
<totfact> 0.24570536E-04</totfact>
</mgrwt>
<clustering>
<clus scale="   30.265">  1  6  2 -1</clus>
<clus scale="  478.280">  4  5 -1 -1</clus>
<clus scale="  300.000">  1  4  2 -1</clus>
</clustering>
</event>
<event>
 6    1  0.1029244E-011  0.3000000E+03  0.7818608E-02  0.1093470E+00
          1   -1    0    0  502    0  0.00000000000E+00  0.00000000000E+00  0.23728431945E+03  0.23728431945E+03  0.00000000000E+00 0.  1.
         13   -1    0    0    0    0 -0.00000000000E+00 -0.00000000000E+00 -0.27500000000E+03  0.27500000000E+03  0.00000000000E+00 0.  1.
    9000005    2    1    2  501    0  0.47782212932E+01 -0.41587248747E+02 -0.44540974363E+02  0.46987069790E+03  0.46587792788E+03 0.  0.
         13    1    3    3    0    0 -0.14638632532E+03 -0.10612099485E+03  0.13560717334E+03  0.22600868844E+03  0.00000000000E+00 0.  1.
          1    1    3    3  501    0  0.15116454662E+03  0.64533746102E+02 -0.18014814770E+03  0.24386200946E+03  0.00000000000E+00 0.  1.
         21    1    1    2  502  501 -0.47782212932E+01  0.41587248747E+02  0.68252938085E+01  0.42413621546E+02  0.00000000000E+00 0.  1.
<scales pt_clust_4="550.00000" pt_clust_5="550.00000" pt_clust_6="41.86085"></scales>
<mgrwt>
<rscale>  0 0.30000000E+03</rscale>
<asrwt>  1 0.41860849E+02</asrwt>
<pdfrwt beam="1">  1        1 0.86285207E+00 0.30000000E+03</pdfrwt>
<pdfrwt beam="2">0</pdfrwt>
<totfact> 0.29162136E-04</totfact>
</mgrwt>
<clustering>
<clus scale="   41.861">  1  6  2 -1</clus>
<clus scale="  465.878">  4  5 -1 -1</clus>
<clus scale="  300.000">  1  4  2 -1</clus>
</clustering>
</event>
<event>
 6    1  0.1029244E-011  0.3000000E+03  0.7818608E-02  0.1093470E+00
          1   -1    0    0  502    0  0.00000000000E+00  0.00000000000E+00  0.23543647290E+03  0.23543647290E+03  0.00000000000E+00 0.  1.
         13   -1    0    0    0    0 -0.00000000000E+00 -0.00000000000E+00 -0.27500000000E+03  0.27500000000E+03  0.00000000000E+00 0.  1.
    9000005    2    1    2  501    0  0.43225770778E+02 -0.93013052449E-01 -0.33378374401E+02  0.46677033012E+03  0.46356439606E+03 0.  0.
         13    1    3    3    0    0 -0.13045491922E+03  0.15018361977E+03 -0.10662405051E+03  0.22570399585E+03  0.00000000000E+00 0.  1.
          3    1    3    3  501    0  0.17368069000E+03 -0.15027663282E+03  0.73245676112E+02  0.24106633427E+03  0.00000000000E+00 0.  1.
         21    1    1    2  502  501 -0.43225770778E+02  0.93013052449E-01 -0.61851527012E+01  0.43666142774E+02  0.00000000000E+00 0.  1.
<scales pt_clust_4="550.00000" pt_clust_5="550.00000" pt_clust_6="43.22589"></scales>
<mgrwt>
<rscale>  0 0.30000000E+03</rscale>
<asrwt>  1 0.43225892E+02</asrwt>
<pdfrwt beam="1">  1        1 0.85613263E+00 0.30000000E+03</pdfrwt>
<pdfrwt beam="2">0</pdfrwt>
<totfact> 0.34145400E-04</totfact>
</mgrwt>
<clustering>
<clus scale="   43.226">  1  6  2 -1</clus>
<clus scale="  463.564">  4  5 -1 -1</clus>
<clus scale="  300.000">  1  4  2 -1</clus>
</clustering>
</event>
<event>
 6    1  0.1029244E-011  0.3000000E+03  0.7818608E-02  0.1093470E+00
          1   -1    0    0  502    0  0.00000000000E+00  0.00000000000E+00  0.23906290257E+03  0.23906290257E+03  0.00000000000E+00 0.  1.
         13   -1    0    0    0    0 -0.00000000000E+00 -0.00000000000E+00 -0.27500000000E+03  0.27500000000E+03  0.00000000000E+00 0.  1.
    9000005    2    1    2  501    0  0.59931901715E+01  0.40812099574E+02 -0.66063096499E+02  0.46298334091E+03  0.45638546804E+03 0.  0.
         13    1    3    3    0    0  0.64897029315E+02  0.24024414624E+03 -0.54245739866E+02  0.25469879174E+03  0.00000000000E+00 0.  1.
          1    1    3    3  501    0 -0.58903839143E+02 -0.19943204667E+03 -0.11817356633E+02  0.20828454917E+03  0.00000000000E+00 0.  1.
         21    1    1    2  502  501 -0.59931901715E+01 -0.40812099574E+02  0.30125999071E+02  0.51079561666E+02  0.00000000000E+00 0.  1.
<scales pt_clust_4="550.00000" pt_clust_5="550.00000" pt_clust_6="41.24980"></scales>
<mgrwt>
<rscale>  0 0.30000000E+03</rscale>
<asrwt>  1 0.41249798E+02</asrwt>
<pdfrwt beam="1">  1        1 0.86931965E+00 0.30000000E+03</pdfrwt>
<pdfrwt beam="2">0</pdfrwt>
<totfact> 0.24967586E-04</totfact>
</mgrwt>
<clustering>
<clus scale="   41.250">  1  6  2 -1</clus>
<clus scale="  456.385">  4  5 -1 -1</clus>
<clus scale="  300.000">  1  4  2 -1</clus>
</clustering>
</event>
<event>
 6    1  0.1029244E-011  0.3000000E+03  0.7818608E-02  0.1093470E+00
          1   -1    0    0  502    0  0.00000000000E+00  0.00000000000E+00  0.22298368684E+03  0.22298368684E+03  0.00000000000E+00 0.  1.
         13   -1    0    0    0    0 -0.00000000000E+00 -0.00000000000E+00 -0.27500000000E+03  0.27500000000E+03  0.00000000000E+00 0.  1.
    9000005    2    1    2  501    0  0.29235592567E+02  0.91901923238E+01 -0.61942443667E+02  0.46577021801E+03  0.46061464387E+03 0.  0.
         13    1    3    3    0    0  0.23532653630E+03 -0.75428315603E-01  0.34849593814E+02  0.23789299814E+03  0.00000000000E+00 0.  1.
          1    1    3    3  501    0 -0.20609094373E+03  0.92656206394E+01 -0.96792037481E+02  0.22787721986E+03  0.00000000000E+00 0.  1.
         21    1    1    2  502  501 -0.29235592567E+02 -0.91901923238E+01  0.99261305098E+01  0.32213468838E+02  0.00000000000E+00 0. -1.
<scales pt_clust_4="550.00000" pt_clust_5="550.00000" pt_clust_6="30.64604"></scales>
<mgrwt>
<rscale>  0 0.30000000E+03</rscale>
<asrwt>  1 0.30646036E+02</asrwt>
<pdfrwt beam="1">  1        1 0.81084977E+00 0.30000000E+03</pdfrwt>
<pdfrwt beam="2">0</pdfrwt>
<totfact> 0.88078977E-04</totfact>
</mgrwt>
<clustering>
<clus scale="   30.646">  1  6  2 -1</clus>
<clus scale="  460.615">  4  5 -1 -1</clus>
<clus scale="  300.000">  1  4  2 -1</clus>
</clustering>
</event>
<event>
 6    1  0.1029244E-011  0.3000000E+03  0.7818608E-02  0.1093470E+00
          1   -1    0    0  502    0  0.00000000000E+00  0.00000000000E+00  0.22969217652E+03  0.22969217652E+03  0.00000000000E+00 0.  1.
         13   -1    0    0    0    0 -0.00000000000E+00 -0.00000000000E+00 -0.27500000000E+03  0.27500000000E+03  0.00000000000E+00 0.  1.
    9000005    2    1    2  501    0  0.23550554046E+02 -0.30334505298E+02 -0.60725384625E+02  0.46330966815E+03  0.45770456132E+03 0.  0.
         13    1    3    3    0    0 -0.37311639973E+02 -0.11334088274E+03  0.17171259612E+03  0.20910172128E+03  0.00000000000E+00 0.  1.
          3    1    3    3  501    0  0.60862194019E+02  0.83006377446E+02 -0.23243798074E+03  0.25420794686E+03  0.00000000000E+00 0.  1.
         21    1    1    2  502  501 -0.23550554046E+02  0.30334505298E+02  0.15417561140E+02  0.41382508370E+02  0.00000000000E+00 0. -1.
<scales pt_clust_4="550.00000" pt_clust_5="550.00000" pt_clust_6="38.40327"></scales>
<mgrwt>
<rscale>  0 0.30000000E+03</rscale>
<asrwt>  1 0.38403266E+02</asrwt>
<pdfrwt beam="1">  1        1 0.83524428E+00 0.30000000E+03</pdfrwt>
<pdfrwt beam="2">0</pdfrwt>
<totfact> 0.52958251E-04</totfact>
</mgrwt>
<clustering>
<clus scale="   38.403">  1  6  2 -1</clus>
<clus scale="  457.705">  4  5 -1 -1</clus>
<clus scale="  300.000">  1  4  2 -1</clus>
</clustering>
</event>
<event>
 6    1  0.1029244E-011  0.3000000E+03  0.7818608E-02  0.1093470E+00
          1   -1    0    0  502    0  0.00000000000E+00  0.00000000000E+00  0.23098497694E+03  0.23098497694E+03  0.00000000000E+00 0.  1.
         13   -1    0    0    0    0 -0.00000000000E+00 -0.00000000000E+00 -0.27500000000E+03  0.27500000000E+03  0.00000000000E+00 0.  1.
    9000005    2    1    2  501    0  0.20298504681E+02  0.22606796923E+02 -0.42915644120E+02  0.47558258898E+03  0.47266684871E+03 0.  0.
         13    1    3    3    0    0  0.21341807869E+03  0.23170162419E+02 -0.14312647109E+03  0.25801030883E+03  0.00000000000E+00 0.  1.
          1    1    3    3  501    0 -0.19311957401E+03 -0.56336549584E+00  0.10021082697E+03  0.21757228015E+03  0.00000000000E+00 0.  1.
         21    1    1    2  502  501 -0.20298504681E+02 -0.22606796923E+02 -0.10993789420E+01  0.30402387956E+02  0.00000000000E+00 0.  1.
<scales pt_clust_4="550.00000" pt_clust_5="550.00000" pt_clust_6="30.38250"></scales>
<mgrwt>
<rscale>  0 0.30000000E+03</rscale>
<asrwt>  1 0.30382504E+02</asrwt>
<pdfrwt beam="1">  1        1 0.83994537E+00 0.30000000E+03</pdfrwt>
<pdfrwt beam="2">0</pdfrwt>
<totfact> 0.51104457E-04</totfact>
</mgrwt>
<clustering>
<clus scale="   30.383">  1  6  2 -1</clus>
<clus scale="  472.667">  4  5 -1 -1</clus>
<clus scale="  300.000">  1  4  2 -1</clus>
</clustering>
</event>
<event>
 6    1  0.1029244E-011  0.3000000E+03  0.7818608E-02  0.1093470E+00
          1   -1    0    0  502    0  0.00000000000E+00  0.00000000000E+00  0.24507965779E+03  0.24507965779E+03  0.00000000000E+00 0.  1.
         13   -1    0    0    0    0 -0.00000000000E+00 -0.00000000000E+00 -0.27500000000E+03  0.27500000000E+03  0.00000000000E+00 0.  1.
    9000005    2    1    2  501    0  0.31576659002E+02 -0.14413531214E+02 -0.45419453737E+02  0.48206574279E+03  0.47866441096E+03 0.  0.
         13    1    3    3    0    0 -0.11791778501E+03 -0.16366242404E+03 -0.14510143160E+03  0.24848424199E+03  0.00000000000E+00 0.  1.
          1    1    3    3  501    0  0.14949444402E+03  0.14924889283E+03  0.99681977866E+02  0.23358150079E+03  0.00000000000E+00 0.  1.
         21    1    1    2  502  501 -0.31576659002E+02  0.14413531214E+02  0.15499111530E+02  0.38013915005E+02  0.00000000000E+00 0.  1.
<scales pt_clust_4="550.00000" pt_clust_5="550.00000" pt_clust_6="34.71074"></scales>
<mgrwt>
<rscale>  0 0.30000000E+03</rscale>
<asrwt>  1 0.34710737E+02</asrwt>
<pdfrwt beam="1">  1        1 0.89119876E+00 0.30000000E+03</pdfrwt>
<pdfrwt beam="2">0</pdfrwt>
<totfact> 0.14005024E-04</totfact>
</mgrwt>
<clustering>
<clus scale="   34.711">  1  6  2 -1</clus>
<clus scale="  478.664">  4  5 -1 -1</clus>
<clus scale="  300.000">  1  4  2 -1</clus>
</clustering>
</event>
<event>
 6    1  0.1029244E-011  0.3000000E+03  0.7818608E-02  0.1093470E+00
          1   -1    0    0  502    0  0.00000000000E+00  0.00000000000E+00  0.24415870156E+03  0.24415870156E+03  0.00000000000E+00 0.  1.
         13   -1    0    0    0    0 -0.00000000000E+00 -0.00000000000E+00 -0.27500000000E+03  0.27500000000E+03  0.00000000000E+00 0.  1.
    9000005    2    1    2  501    0  0.18435895444E+02  0.24882505732E+02 -0.63734863475E+02  0.47398118555E+03  0.46865446770E+03 0.  0.
         13    1    3    3    0    0 -0.40056046683E+02  0.14450485360E+03 -0.22153025838E+03  0.26751036423E+03  0.00000000000E+00 0.  1.
          3    1    3    3  501    0  0.58491942127E+02 -0.11962234787E+03  0.15779539491E+03  0.20647082132E+03  0.00000000000E+00 0.  1.
         21    1    1    2  502  501 -0.18435895444E+02 -0.24882505732E+02  0.32893565037E+02  0.45177516014E+02  0.00000000000E+00 0.  1.
<scales pt_clust_4="550.00000" pt_clust_5="550.00000" pt_clust_6="30.96807"></scales>
<mgrwt>
<rscale>  0 0.30000000E+03</rscale>
<asrwt>  1 0.30968070E+02</asrwt>
<pdfrwt beam="1">  1        1 0.88784982E+00 0.30000000E+03</pdfrwt>
<pdfrwt beam="2">0</pdfrwt>
<totfact> 0.15866240E-04</totfact>
</mgrwt>
<clustering>
<clus scale="   30.968">  1  6  2 -1</clus>
<clus scale="  468.654">  4  5 -1 -1</clus>
<clus scale="  300.000">  1  4  2 -1</clus>
</clustering>
</event>
<event>
 6    1  0.1029244E-011  0.3000000E+03  0.7818608E-02  0.1093470E+00
          1   -1    0    0  502    0  0.00000000000E+00  0.00000000000E+00  0.24459446713E+03  0.24459446713E+03  0.00000000000E+00 0.  1.
         13   -1    0    0    0    0 -0.00000000000E+00 -0.00000000000E+00 -0.27500000000E+03  0.27500000000E+03  0.00000000000E+00 0.  1.
    9000005    2    1    2  501    0  0.10682249630E+02  0.48919660537E+02 -0.31431504083E+02  0.46951157323E+03  0.46577455309E+03 0.  0.
         13    1    3    3    0    0  0.20216465720E+03  0.82640598861E+01 -0.13964151903E+03  0.24584262678E+03  0.00000000000E+00 0.  1.
          1    1    3    3  501    0 -0.19148240757E+03  0.40655600651E+02  0.10821001495E+03  0.22366894645E+03  0.00000000000E+00 0.  1.
         21    1    1    2  502  501 -0.10682249630E+02 -0.48919660537E+02  0.10259712150E+01  0.50082893898E+02  0.00000000000E+00 0.  1.
<scales pt_clust_4="550.00000" pt_clust_5="550.00000" pt_clust_6="50.07238"></scales>
<mgrwt>
<rscale>  0 0.30000000E+03</rscale>
<asrwt>  1 0.50072384E+02</asrwt>
<pdfrwt beam="1">  1        1 0.88943443E+00 0.30000000E+03</pdfrwt>
<pdfrwt beam="2">0</pdfrwt>
<totfact> 0.13824556E-04</totfact>
</mgrwt>
<clustering>
<clus scale="   50.072">  1  6  2 -1</clus>
<clus scale="  465.775">  4  5 -1 -1</clus>
<clus scale="  300.000">  1  4  2 -1</clus>
</clustering>
</event>
<event>
 6    1  0.1029244E-011  0.3000000E+03  0.7818608E-02  0.1093470E+00
          1   -1    0    0  502    0  0.00000000000E+00  0.00000000000E+00  0.24628228933E+03  0.24628228933E+03  0.00000000000E+00 0.  1.
         13   -1    0    0    0    0 -0.00000000000E+00 -0.00000000000E+00 -0.27500000000E+03  0.27500000000E+03  0.00000000000E+00 0.  1.
    9000005    2    1    2  501    0 -0.45425082804E+02  0.29971558171E+01 -0.43082978149E+02  0.47354569959E+03  0.46937934073E+03 0.  0.
         13    1    3    3    0    0 -0.24976061167E+03 -0.15164222601E+02 -0.84812359511E+02  0.26420343130E+03  0.00000000000E+00 0.  1.
          1    1    3    3  501    0  0.20433552886E+03  0.18161378418E+02  0.41729381362E+02  0.20934226828E+03  0.00000000000E+00 0.  1.
         21    1    1    2  502  501  0.45425082804E+02 -0.29971558171E+01  0.14365267481E+02  0.47736589745E+02  0.00000000000E+00 0.  1.
<scales pt_clust_4="550.00000" pt_clust_5="550.00000" pt_clust_6="45.52385"></scales>
<mgrwt>
<rscale>  0 0.30000000E+03</rscale>
<asrwt>  1 0.45523852E+02</asrwt>
<pdfrwt beam="1">  1        1 0.89557196E+00 0.30000000E+03</pdfrwt>
<pdfrwt beam="2">0</pdfrwt>
<totfact> 0.11842551E-04</totfact>
</mgrwt>
<clustering>
<clus scale="   45.524">  1  6  2 -1</clus>
<clus scale="  469.379">  4  5 -1 -1</clus>
<clus scale="  300.000">  1  4  2 -1</clus>
</clustering>
</event>
<event>
 6    1  0.1029244E-011  0.3000000E+03  0.7818608E-02  0.1093470E+00
          1   -1    0    0  502    0  0.00000000000E+00  0.00000000000E+00  0.22899919957E+03  0.22899919957E+03  0.00000000000E+00 0.  1.
         13   -1    0    0    0    0 -0.00000000000E+00 -0.00000000000E+00 -0.27500000000E+03  0.27500000000E+03  0.00000000000E+00 0.  1.
    9000005    2    1    2  501    0 -0.27923165755E+02 -0.12359478972E+02 -0.40520523451E+02  0.47297512276E+03  0.47024578044E+03 0.  0.
         13    1    3    3    0    0 -0.16130648243E+02 -0.18157521438E+03  0.13655360492E+03  0.22776444698E+03  0.00000000000E+00 0.  1.
          1    1    3    3  501    0 -0.11792517511E+02  0.16921573541E+03 -0.17707412837E+03  0.24521067578E+03  0.00000000000E+00 0.  1.
         21    1    1    2  502  501  0.27923165755E+02  0.12359478972E+02 -0.54802769760E+01  0.31024076811E+02  0.00000000000E+00 0.  1.
<scales pt_clust_4="550.00000" pt_clust_5="550.00000" pt_clust_6="30.53622"></scales>
<mgrwt>
<rscale>  0 0.30000000E+03</rscale>
<asrwt>  1 0.30536222E+02</asrwt>
<pdfrwt beam="1">  1        1 0.83272436E+00 0.30000000E+03</pdfrwt>
<pdfrwt beam="2">0</pdfrwt>
<totfact> 0.57717834E-04</totfact>
</mgrwt>
<clustering>
<clus scale="   30.536">  1  6  2 -1</clus>
<clus scale="  470.246">  4  5 -1 -1</clus>
<clus scale="  300.000">  1  4  2 -1</clus>
</clustering>
</event>
<event>
 6    1  0.1029244E-011  0.3000000E+03  0.7818608E-02  0.1093470E+00
          1   -1    0    0  502    0  0.00000000000E+00  0.00000000000E+00  0.23694608597E+03  0.23694608597E+03  0.00000000000E+00 0.  1.
         13   -1    0    0    0    0 -0.00000000000E+00 -0.00000000000E+00 -0.27500000000E+03  0.27500000000E+03  0.00000000000E+00 0.  1.
    9000005    2    1    2  501    0  0.51391460416E+01  0.31938585522E+02 -0.45252111010E+02  0.47880550500E+03  0.47556332281E+03 0.  0.
         13    1    3    3    0    0  0.22150193432E+03 -0.24692985662E+02  0.61182847432E+02  0.23111943074E+03  0.00000000000E+00 0.  1.
          1    1    3    3  501    0 -0.21636278828E+03  0.56631571184E+02 -0.10643495844E+03  0.24768607426E+03  0.00000000000E+00 0.  1.
         21    1    1    2  502  501 -0.51391460416E+01 -0.31938585522E+02  0.71981969845E+01  0.33140580970E+02  0.00000000000E+00 0.  1.
<scales pt_clust_4="550.00000" pt_clust_5="550.00000" pt_clust_6="32.34941"></scales>
<mgrwt>
<rscale>  0 0.30000000E+03</rscale>
<asrwt>  1 0.32349406E+02</asrwt>
<pdfrwt beam="1">  1        1 0.86162213E+00 0.30000000E+03</pdfrwt>
<pdfrwt beam="2">0</pdfrwt>
<totfact> 0.31539724E-04</totfact>
</mgrwt>
<clustering>
<clus scale="   32.349">  1  6  2 -1</clus>
<clus scale="  475.563">  4  5 -1 -1</clus>
<clus scale="  300.000">  1  4  2 -1</clus>
</clustering>
</event>
<event>
 6    1  0.1029244E-011  0.3000000E+03  0.7818608E-02  0.1093470E+00
          1   -1    0    0  502    0  0.00000000000E+00  0.00000000000E+00  0.24781857241E+03  0.24781857241E+03  0.00000000000E+00 0.  1.
         13   -1    0    0    0    0 -0.00000000000E+00 -0.00000000000E+00 -0.27500000000E+03  0.27500000000E+03  0.00000000000E+00 0.  1.
    9000005    2    1    2  501    0  0.21072828986E+02 -0.21384440620E+02 -0.38765251701E+02  0.49063871220E+03  0.48818259161E+03 0.  0.
         13    1    3    3    0    0  0.15950609652E+03 -0.10837877907E+03  0.14750755380E+03  0.24278927696E+03  0.00000000000E+00 0.  1.
          1    1    3    3  501    0 -0.13843326753E+03  0.86994338448E+02 -0.18627280550E+03  0.24784943524E+03  0.00000000000E+00 0.  1.
         21    1    1    2  502  501 -0.21072828986E+02  0.21384440620E+02  0.11583824110E+02  0.32179860210E+02  0.00000000000E+00 0. -1.
<scales pt_clust_4="550.00000" pt_clust_5="550.00000" pt_clust_6="30.02263"></scales>
<mgrwt>
<rscale>  0 0.30000000E+03</rscale>
<asrwt>  1 0.30022632E+02</asrwt>
<pdfrwt beam="1">  1        1 0.90115845E+00 0.30000000E+03</pdfrwt>
<pdfrwt beam="2">0</pdfrwt>
<totfact> 0.10981503E-04</totfact>
</mgrwt>
<clustering>
<clus scale="   30.023">  1  6  2 -1</clus>
<clus scale="  488.183">  4  5 -1 -1</clus>
<clus scale="  300.000">  1  4  2 -1</clus>
</clustering>
</event>
<event>
 6    1  0.1029244E-011  0.3000000E+03  0.7818608E-02  0.1093470E+00
          1   -1    0    0  502    0  0.00000000000E+00  0.00000000000E+00  0.24178852303E+03  0.24178852303E+03  0.00000000000E+00 0.  1.
         13   -1    0    0    0    0 -0.00000000000E+00 -0.00000000000E+00 -0.27500000000E+03  0.27500000000E+03  0.00000000000E+00 0.  1.
    9000005    2    1    2  501    0  0.30089630149E+02  0.94486566479E+01 -0.38141459407E+02  0.48486724985E+03  0.48233475522E+03 0.  0.
         13    1    3    3    0    0 -0.19190734022E+03  0.12669026765E+03  0.56443610988E+01  0.23002328134E+03  0.00000000000E+00 0.  1.
          1    1    3    3  501    0  0.22199697037E+03 -0.11724161100E+03 -0.43785820506E+02  0.25484396850E+03  0.00000000000E+00 0.  1.
         21    1    1    2  502  501 -0.30089630149E+02 -0.94486566479E+01  0.49299824379E+01  0.31921273185E+02  0.00000000000E+00 0.  1.
<scales pt_clust_4="550.00000" pt_clust_5="550.00000" pt_clust_6="31.53828"></scales>
<mgrwt>
<rscale>  0 0.30000000E+03</rscale>
<asrwt>  1 0.31538278E+02</asrwt>
<pdfrwt beam="1">  1        1 0.87923099E+00 0.30000000E+03</pdfrwt>
<pdfrwt beam="2">0</pdfrwt>
<totfact> 0.20568159E-04</totfact>
</mgrwt>
<clustering>
<clus scale="   31.538">  1  6  2 -1</clus>
<clus scale="  482.335">  4  5 -1 -1</clus>
<clus scale="  300.000">  1  4  2 -1</clus>
</clustering>
</event>
<event>
 6    1  0.1029244E-011  0.3000000E+03  0.7818608E-02  0.1093470E+00
          1   -1    0    0  502    0  0.00000000000E+00  0.00000000000E+00  0.23434683958E+03  0.23434683958E+03  0.00000000000E+00 0.  1.
         13   -1    0    0    0    0 -0.00000000000E+00 -0.00000000000E+00 -0.27500000000E+03  0.27500000000E+03  0.00000000000E+00 0.  1.
    9000005    2    1    2  501    0  0.32701195077E+02 -0.62131362153E+01 -0.58571053941E+02  0.47154443054E+03  0.46670719985E+03 0.  0.
         13    1    3    3    0    0  0.17279458668E+03 -0.12806863361E+03 -0.15231080057E+03  0.26354909233E+03  0.00000000000E+00 0.  1.
          1    1    3    3  501    0 -0.14009339161E+03  0.12185549739E+03  0.93739746626E+02  0.20799533820E+03  0.00000000000E+00 0.  1.
         21    1    1    2  502  501 -0.32701195077E+02  0.62131362153E+01  0.17917893516E+02  0.37802409038E+02  0.00000000000E+00 0.  1.
<scales pt_clust_4="550.00000" pt_clust_5="550.00000" pt_clust_6="33.28620"></scales>
<mgrwt>
<rscale>  0 0.30000000E+03</rscale>
<asrwt>  1 0.33286202E+02</asrwt>
<pdfrwt beam="1">  1        1 0.85217033E+00 0.30000000E+03</pdfrwt>
<pdfrwt beam="2">0</pdfrwt>
<totfact> 0.39181465E-04</totfact>
</mgrwt>
<clustering>
<clus scale="   33.286">  1  6  2 -1</clus>
<clus scale="  466.707">  4  5 -1 -1</clus>
<clus scale="  300.000">  1  4  2 -1</clus>
</clustering>
</event>
<event>
 6    1  0.1029244E-011  0.3000000E+03  0.7818608E-02  0.1093470E+00
          1   -1    0    0  502    0  0.00000000000E+00  0.00000000000E+00  0.23095644601E+03  0.23095644601E+03  0.00000000000E+00 0.  1.
         13   -1    0    0    0    0 -0.00000000000E+00 -0.00000000000E+00 -0.27500000000E+03  0.27500000000E+03  0.00000000000E+00 0.  1.
    9000005    2    1    2  501    0  0.33639111590E+02  0.11590667299E+01 -0.59536852140E+02  0.46890276128E+03  0.46388816487E+03 0.  0.
         13    1    3    3    0    0 -0.17327983350E+03  0.13111479895E+02 -0.16210680416E+03  0.23764769631E+03  0.00000000000E+00 0.  1.
          3    1    3    3  501    0  0.20691894509E+03 -0.11952413165E+02  0.10256995202E+03  0.23125506498E+03  0.00000000000E+00 0.  1.
         21    1    1    2  502  501 -0.33639111590E+02 -0.11590667299E+01  0.15493298145E+02  0.37053684724E+02  0.00000000000E+00 0.  1.
<scales pt_clust_4="550.00000" pt_clust_5="550.00000" pt_clust_6="33.65907"></scales>
<mgrwt>
<rscale>  0 0.30000000E+03</rscale>
<asrwt>  1 0.33659074E+02</asrwt>
<pdfrwt beam="1">  1        1 0.83984162E+00 0.30000000E+03</pdfrwt>
<pdfrwt beam="2">0</pdfrwt>
<totfact> 0.50210024E-04</totfact>
</mgrwt>
<clustering>
<clus scale="   33.659">  1  6  2 -1</clus>
<clus scale="  463.888">  4  5 -1 -1</clus>
<clus scale="  300.000">  1  4  2 -1</clus>
</clustering>
</event>
<event>
 6    1  0.1029244E-011  0.3000000E+03  0.7818608E-02  0.1093470E+00
          1   -1    0    0  502    0  0.00000000000E+00  0.00000000000E+00  0.23088231247E+03  0.23088231247E+03  0.00000000000E+00 0.  1.
         13   -1    0    0    0    0 -0.00000000000E+00 -0.00000000000E+00 -0.27500000000E+03  0.27500000000E+03  0.00000000000E+00 0.  1.
    9000005    2    1    2  501    0  0.21103613601E+02 -0.27625939280E+02 -0.45260879045E+02  0.47109924310E+03  0.46762954852E+03 0.  0.
         13    1    3    3    0    0  0.95703979010E+02  0.16255869091E+03 -0.15047647796E+03  0.24130426853E+03  0.00000000000E+00 0.  1.
          1    1    3    3  501    0 -0.74600365409E+02 -0.19018463019E+03  0.10521559892E+03  0.22979497457E+03  0.00000000000E+00 0.  1.
         21    1    1    2  502  501 -0.21103613601E+02  0.27625939280E+02  0.11431915133E+01  0.34783069372E+02  0.00000000000E+00 0.  1.
<scales pt_clust_4="550.00000" pt_clust_5="550.00000" pt_clust_6="34.76428"></scales>
<mgrwt>
<rscale>  0 0.30000000E+03</rscale>
<asrwt>  1 0.34764278E+02</asrwt>
<pdfrwt beam="1">  1        1 0.83957205E+00 0.30000000E+03</pdfrwt>
<pdfrwt beam="2">0</pdfrwt>
<totfact> 0.50142506E-04</totfact>
</mgrwt>
<clustering>
<clus scale="   34.764">  1  6  2 -1</clus>
<clus scale="  467.630">  4  5 -1 -1</clus>
<clus scale="  300.000">  1  4  2 -1</clus>
</clustering>
</event>
<event>
 6    1  0.1029244E-011  0.3000000E+03  0.7818608E-02  0.1093470E+00
          1   -1    0    0  502    0  0.00000000000E+00  0.00000000000E+00  0.23423008003E+03  0.23423008003E+03  0.00000000000E+00 0.  1.
         13   -1    0    0    0    0 -0.00000000000E+00 -0.00000000000E+00 -0.27500000000E+03  0.27500000000E+03  0.00000000000E+00 0.  1.
    9000005    2    1    2  501    0  0.32401003768E+02 -0.23814997967E+01 -0.62152507820E+02  0.47033648609E+03  0.46507846578E+03 0.  0.
         13    1    3    3    0    0 -0.50622069669E+02  0.12982982736E+03  0.15142365576E+03  0.20578508579E+03  0.00000000000E+00 0.  1.
          1    1    3    3  501    0  0.83023073437E+02 -0.13221132716E+03 -0.21357616358E+03  0.26455140030E+03  0.00000000000E+00 0.  1.
         21    1    1    2  502  501 -0.32401003768E+02  0.23814997967E+01  0.21382587850E+02  0.38893593941E+02  0.00000000000E+00 0. -1.
<scales pt_clust_4="550.00000" pt_clust_5="550.00000" pt_clust_6="32.48841"></scales>
<mgrwt>
<rscale>  0 0.30000000E+03</rscale>
<asrwt>  1 0.32488407E+02</asrwt>
<pdfrwt beam="1">  1        1 0.85174575E+00 0.30000000E+03</pdfrwt>
<pdfrwt beam="2">0</pdfrwt>
<totfact> 0.39731723E-04</totfact>
</mgrwt>
<clustering>
<clus scale="   32.488">  1  6  2 -1</clus>
<clus scale="  465.078">  4  5 -1 -1</clus>
<clus scale="  300.000">  1  4  2 -1</clus>
</clustering>
</event>
<event>
 6    1  0.1029244E-011  0.3000000E+03  0.7818608E-02  0.1093470E+00
          1   -1    0    0  502    0  0.00000000000E+00  0.00000000000E+00  0.23533737730E+03  0.23533737730E+03  0.00000000000E+00 0.  1.
         13   -1    0    0    0    0 -0.00000000000E+00 -0.00000000000E+00 -0.27500000000E+03  0.27500000000E+03  0.00000000000E+00 0.  1.
    9000005    2    1    2  501    0 -0.14541980900E+02  0.40275132957E+02 -0.54448551199E+02  0.46503639249E+03  0.45984850339E+03 0.  0.
         13    1    3    3    0    0  0.32378179108E+02  0.15298450619E+03 -0.21343147524E+03  0.26458571435E+03  0.00000000000E+00 0.  1.
          3    1    3    3  501    0 -0.46920160008E+02 -0.11270937323E+03  0.15898292404E+03  0.20045067814E+03  0.00000000000E+00 0.  1.
         21    1    1    2  502  501  0.14541980900E+02 -0.40275132957E+02  0.14785928498E+02  0.45300984810E+02  0.00000000000E+00 0. -1.
<scales pt_clust_4="550.00000" pt_clust_5="550.00000" pt_clust_6="42.82004"></scales>
<mgrwt>
<rscale>  0 0.30000000E+03</rscale>
<asrwt>  1 0.42820037E+02</asrwt>
<pdfrwt beam="1">  1        1 0.85577228E+00 0.30000000E+03</pdfrwt>
<pdfrwt beam="2">0</pdfrwt>
<totfact> 0.34491214E-04</totfact>
</mgrwt>
<clustering>
<clus scale="   42.820">  1  6  2 -1</clus>
<clus scale="  459.849">  4  5 -1 -1</clus>
<clus scale="  300.000">  1  4  2 -1</clus>
</clustering>
</event>
<event>
 6    1  0.1029244E-011  0.3000000E+03  0.7818608E-02  0.1093470E+00
          1   -1    0    0  502    0  0.00000000000E+00  0.00000000000E+00  0.24487493523E+03  0.24487493523E+03  0.00000000000E+00 0.  1.
         13   -1    0    0    0    0 -0.00000000000E+00 -0.00000000000E+00 -0.27500000000E+03  0.27500000000E+03  0.00000000000E+00 0.  1.
    9000005    2    1    2  501    0  0.36068647359E+02  0.14360554695E+02 -0.45107668678E+02  0.47826182103E+03  0.47454451301E+03 0.  0.
         13    1    3    3    0    0  0.17033874787E+03  0.12114765185E+03  0.11927447532E+03  0.24066250858E+03  0.00000000000E+00 0.  1.
          1    1    3    3  501    0 -0.13427010051E+03 -0.10678709715E+03 -0.16438214400E+03  0.23759931245E+03  0.00000000000E+00 0.  1.
         21    1    1    2  502  501 -0.36068647359E+02 -0.14360554695E+02  0.14982603909E+02  0.41613114200E+02  0.00000000000E+00 0. -1.
<scales pt_clust_4="550.00000" pt_clust_5="550.00000" pt_clust_6="38.82232"></scales>
<mgrwt>
<rscale>  0 0.30000000E+03</rscale>
<asrwt>  1 0.38822324E+02</asrwt>
<pdfrwt beam="1">  1        1 0.89045431E+00 0.30000000E+03</pdfrwt>
<pdfrwt beam="2">0</pdfrwt>
<totfact> 0.14024562E-04</totfact>
</mgrwt>
<clustering>
<clus scale="   38.822">  1  6  2 -1</clus>
<clus scale="  474.545">  4  5 -1 -1</clus>
<clus scale="  300.000">  1  4  2 -1</clus>
</clustering>
</event>
<event>
 6    1  0.1029244E-011  0.3000000E+03  0.7818608E-02  0.1093470E+00
          1   -1    0    0  502    0  0.00000000000E+00  0.00000000000E+00  0.24007076816E+03  0.24007076816E+03  0.00000000000E+00 0.  1.
         13   -1    0    0    0    0 -0.00000000000E+00 -0.00000000000E+00 -0.27500000000E+03  0.27500000000E+03  0.00000000000E+00 0.  1.
    9000005    2    1    2  501    0  0.15547281957E+02 -0.27785667859E+02 -0.58241364744E+02  0.47560918108E+03  0.47095464245E+03 0.  0.
         13    1    3    3    0    0  0.13936800862E+02 -0.19031024070E+02  0.20794269598E+03  0.20927632238E+03  0.00000000000E+00 0.  1.
          1    1    3    3  501    0  0.16104810951E+01 -0.87546437897E+01 -0.26618406073E+03  0.26633285870E+03  0.00000000000E+00 0.  1.
         21    1    1    2  502  501 -0.15547281957E+02  0.27785667859E+02  0.23312132907E+02  0.39461587086E+02  0.00000000000E+00 0. -1.
<scales pt_clust_4="550.00000" pt_clust_5="550.00000" pt_clust_6="31.83962"></scales>
<mgrwt>
<rscale>  0 0.30000000E+03</rscale>
<asrwt>  1 0.31839619E+02</asrwt>
<pdfrwt beam="1">  1        1 0.87298461E+00 0.30000000E+03</pdfrwt>
<pdfrwt beam="2">0</pdfrwt>
<totfact> 0.24031937E-04</totfact>
</mgrwt>
<clustering>
<clus scale="   31.840">  1  6  2 -1</clus>
<clus scale="  470.955">  4  5 -1 -1</clus>
<clus scale="  300.000">  1  4  2 -1</clus>
</clustering>
</event>
<event>
 6    1  0.1029244E-011  0.3000000E+03  0.7818608E-02  0.1093470E+00
          1   -1    0    0  502    0  0.00000000000E+00  0.00000000000E+00  0.23706335018E+03  0.23706335018E+03  0.00000000000E+00 0.  1.
         13   -1    0    0    0    0 -0.00000000000E+00 -0.00000000000E+00 -0.27500000000E+03  0.27500000000E+03  0.00000000000E+00 0.  1.
    9000005    2    1    2  501    0 -0.19758747490E+02 -0.32774045482E+02 -0.67177098081E+02  0.46390164367E+03  0.45741384580E+03 0.  0.
         13    1    3    3    0    0 -0.57524603973E+01  0.19236913012E+03  0.64168031148E+02  0.20287067123E+03  0.00000000000E+00 0.  1.
          1    1    3    3  501    0 -0.14006287092E+02 -0.22514317560E+03 -0.13134512923E+03  0.26103097244E+03  0.00000000000E+00 0.  1.
         21    1    1    2  502  501  0.19758747490E+02  0.32774045482E+02  0.29240448256E+02  0.48161706509E+02  0.00000000000E+00 0.  1.
<scales pt_clust_4="550.00000" pt_clust_5="550.00000" pt_clust_6="38.26939"></scales>
<mgrwt>
<rscale>  0 0.30000000E+03</rscale>
<asrwt>  1 0.38269389E+02</asrwt>
<pdfrwt beam="1">  1        1 0.86204855E+00 0.30000000E+03</pdfrwt>
<pdfrwt beam="2">0</pdfrwt>
<totfact> 0.30242358E-04</totfact>
</mgrwt>
<clustering>
<clus scale="   38.269">  1  6  2 -1</clus>
<clus scale="  457.414">  4  5 -1 -1</clus>
<clus scale="  300.000">  1  4  2 -1</clus>
</clustering>
</event>
<event>
 6    1  0.1029244E-011  0.3000000E+03  0.7818608E-02  0.1093470E+00
          1   -1    0    0  502    0  0.00000000000E+00  0.00000000000E+00  0.24090456034E+03  0.24090456034E+03  0.00000000000E+00 0.  1.
         13   -1    0    0    0    0 -0.00000000000E+00 -0.00000000000E+00 -0.27500000000E+03  0.27500000000E+03  0.00000000000E+00 0.  1.
    9000005    2    1    2  501    0 -0.34074576547E+02 -0.16052623796E+02 -0.33109593176E+02  0.47822518414E+03  0.47558839145E+03 0.  0.
         13    1    3    3    0    0 -0.95040451642E+02 -0.22724598715E+03  0.33383099745E+02  0.24857163449E+03  0.00000000000E+00 0.  1.
          1    1    3    3  501    0  0.60965875095E+02  0.21119336336E+03 -0.66492692920E+02  0.22965354964E+03  0.00000000000E+00 0.  1.
         21    1    1    2  502  501  0.34074576547E+02  0.16052623796E+02 -0.98584648848E+00  0.37679376201E+02  0.00000000000E+00 0.  1.
<scales pt_clust_4="550.00000" pt_clust_5="550.00000" pt_clust_6="37.66648"></scales>
<mgrwt>
<rscale>  0 0.30000000E+03</rscale>
<asrwt>  1 0.37666477E+02</asrwt>
<pdfrwt beam="1">  1        1 0.87601658E+00 0.30000000E+03</pdfrwt>
<pdfrwt beam="2">0</pdfrwt>
<totfact> 0.21639482E-04</totfact>
</mgrwt>
<clustering>
<clus scale="   37.666">  1  6  2 -1</clus>
<clus scale="  475.588">  4  5 -1 -1</clus>
<clus scale="  300.000">  1  4  2 -1</clus>
</clustering>
</event>
<event>
 6    1  0.1029244E-011  0.3000000E+03  0.7818608E-02  0.1093470E+00
          1   -1    0    0  502    0  0.00000000000E+00  0.00000000000E+00  0.26410054363E+03  0.26410054363E+03  0.00000000000E+00 0.  1.
         13   -1    0    0    0    0 -0.00000000000E+00 -0.00000000000E+00 -0.27500000000E+03  0.27500000000E+03  0.00000000000E+00 0.  1.
    9000005    2    1    2  501    0 -0.39256497673E+02 -0.74762975987E+01 -0.18850392461E+02  0.49835517555E+03  0.49639256246E+03 0.  0.
         13    1    3    3    0    0 -0.12401772323E+03  0.20145454208E+03 -0.10256660357E+03  0.25784537298E+03  0.00000000000E+00 0.  1.
          3    1    3    3  501    0  0.84761225557E+02 -0.20893083968E+03  0.83716211105E+02  0.24050980257E+03  0.00000000000E+00 0.  1.
         21    1    1    2  502  501  0.39256497673E+02  0.74762975987E+01  0.79509360892E+01  0.40745368081E+02  0.00000000000E+00 0.  1.
<scales pt_clust_4="550.00000" pt_clust_5="550.00000" pt_clust_6="39.96208"></scales>
<mgrwt>
<rscale>  0 0.30000000E+03</rscale>
<asrwt>  1 0.39962077E+02</asrwt>
<pdfrwt beam="1">  1        1 0.96036561E+00 0.30000000E+03</pdfrwt>
<pdfrwt beam="2">0</pdfrwt>
<totfact> 0.72679907E-06</totfact>
</mgrwt>
<clustering>
<clus scale="   39.962">  1  6  2 -1</clus>
<clus scale="  496.393">  4  5 -1 -1</clus>
<clus scale="  300.000">  1  4  2 -1</clus>
</clustering>
</event>
<event>
 6    1  0.1029244E-011  0.3000000E+03  0.7818608E-02  0.1093470E+00
          1   -1    0    0  502    0  0.00000000000E+00  0.00000000000E+00  0.24388084341E+03  0.24388084341E+03  0.00000000000E+00 0.  1.
         13   -1    0    0    0    0 -0.00000000000E+00 -0.00000000000E+00 -0.27500000000E+03  0.27500000000E+03  0.00000000000E+00 0.  1.
    9000005    2    1    2  501    0  0.30504198810E+02 -0.20277350476E+02 -0.41293402699E+02  0.48086515755E+03  0.47768658925E+03 0.  0.
         13    1    3    3    0    0  0.16041229385E+03  0.12740992090E+03  0.11018248379E+03  0.23260604398E+03  0.00000000000E+00 0.  1.
          1    1    3    3  501    0 -0.12990809504E+03 -0.14768727137E+03 -0.15147588649E+03  0.24825911357E+03  0.00000000000E+00 0.  1.
         21    1    1    2  502  501 -0.30504198810E+02  0.20277350476E+02  0.10174246109E+02  0.38015685858E+02  0.00000000000E+00 0. -1.
<scales pt_clust_4="550.00000" pt_clust_5="550.00000" pt_clust_6="36.62891"></scales>
<mgrwt>
<rscale>  0 0.30000000E+03</rscale>
<asrwt>  1 0.36628911E+02</asrwt>
<pdfrwt beam="1">  1        1 0.88683943E+00 0.30000000E+03</pdfrwt>
<pdfrwt beam="2">0</pdfrwt>
<totfact> 0.15873641E-04</totfact>
</mgrwt>
<clustering>
<clus scale="   36.629">  1  6  2 -1</clus>
<clus scale="  477.687">  4  5 -1 -1</clus>
<clus scale="  300.000">  1  4  2 -1</clus>
</clustering>
</event>
<event>
 6    1  0.1029244E-011  0.3000000E+03  0.7818608E-02  0.1093470E+00
          1   -1    0    0  502    0  0.00000000000E+00  0.00000000000E+00  0.23300103392E+03  0.23300103392E+03  0.00000000000E+00 0.  1.
         13   -1    0    0    0    0 -0.00000000000E+00 -0.00000000000E+00 -0.27500000000E+03  0.27500000000E+03  0.00000000000E+00 0.  1.
    9000005    2    1    2  501    0  0.14359032286E+02  0.33011285448E+02 -0.62286803075E+02  0.46667884732E+03  0.46110039463E+03 0.  0.
         13    1    3    3    0    0 -0.40633495809E+02 -0.15509904656E+03  0.11902873304E+03  0.19968634033E+03  0.00000000000E+00 0.  1.
          1    1    3    3  501    0  0.54992528095E+02  0.18811033201E+03 -0.18131553611E+03  0.26699250699E+03  0.00000000000E+00 0.  1.
         21    1    1    2  502  501 -0.14359032286E+02 -0.33011285448E+02  0.20287836997E+02  0.41322186597E+02  0.00000000000E+00 0.  1.
<scales pt_clust_4="550.00000" pt_clust_5="550.00000" pt_clust_6="35.99898"></scales>
<mgrwt>
<rscale>  0 0.30000000E+03</rscale>
<asrwt>  1 0.35998983E+02</asrwt>
<pdfrwt beam="1">  1        1 0.84727649E+00 0.30000000E+03</pdfrwt>
<pdfrwt beam="2">0</pdfrwt>
<totfact> 0.42897006E-04</totfact>
</mgrwt>
<clustering>
<clus scale="   35.999">  1  6  2 -1</clus>
<clus scale="  461.100">  4  5 -1 -1</clus>
<clus scale="  300.000">  1  4  2 -1</clus>
</clustering>
</event>
<event>
 6    1  0.1029244E-011  0.3000000E+03  0.7818608E-02  0.1093470E+00
          1   -1    0    0  502    0  0.00000000000E+00  0.00000000000E+00  0.23715030534E+03  0.23715030534E+03  0.00000000000E+00 0.  1.
         13   -1    0    0    0    0 -0.00000000000E+00 -0.00000000000E+00 -0.27500000000E+03  0.27500000000E+03  0.00000000000E+00 0.  1.
    9000005    2    1    2  501    0  0.32739634056E+02  0.13576288416E+02 -0.39148591635E+02  0.47668361141E+03  0.47374935769E+03 0.  0.
         13    1    3    3    0    0  0.66718386192E+02 -0.31163018189E+02  0.20934505402E+03  0.22191851748E+03  0.00000000000E+00 0.  1.
          3    1    3    3  501    0 -0.33978752136E+02  0.44739306605E+02 -0.24849364565E+03  0.25476509392E+03  0.00000000000E+00 0.  1.
         21    1    1    2  502  501 -0.32739634056E+02 -0.13576288416E+02  0.12988969748E+01  0.35466693934E+02  0.00000000000E+00 0.  1.
<scales pt_clust_4="550.00000" pt_clust_5="550.00000" pt_clust_6="35.44290"></scales>
<mgrwt>
<rscale>  0 0.30000000E+03</rscale>
<asrwt>  1 0.35442901E+02</asrwt>
<pdfrwt beam="1">  1        1 0.86236475E+00 0.30000000E+03</pdfrwt>
<pdfrwt beam="2">0</pdfrwt>
<totfact> 0.30435020E-04</totfact>
</mgrwt>
<clustering>
<clus scale="   35.443">  1  6  2 -1</clus>
<clus scale="  473.749">  4  5 -1 -1</clus>
<clus scale="  300.000">  1  4  2 -1</clus>
</clustering>
</event>
<event>
 6    1  0.1029244E-011  0.3000000E+03  0.7818608E-02  0.1093470E+00
          1   -1    0    0  502    0  0.00000000000E+00  0.00000000000E+00  0.24037766519E+03  0.24037766519E+03  0.00000000000E+00 0.  1.
         13   -1    0    0    0    0 -0.00000000000E+00 -0.00000000000E+00 -0.27500000000E+03  0.27500000000E+03  0.00000000000E+00 0.  1.
    9000005    2    1    2  501    0  0.55579215913E+00  0.47182923548E+02 -0.58717550541E+02  0.46239543609E+03  0.45621842509E+03 0.  0.
         13    1    3    3    0    0 -0.40461518745E+02 -0.19391694393E+03  0.33724715543E+02  0.20094345493E+03  0.00000000000E+00 0.  1.
          1    1    3    3  501    0  0.41017310904E+02  0.24109986748E+03 -0.92442266083E+02  0.26145198115E+03  0.00000000000E+00 0.  1.
         21    1    1    2  502  501 -0.55579215913E+00 -0.47182923548E+02  0.24095215729E+02  0.52982229101E+02  0.00000000000E+00 0. -1.
<scales pt_clust_4="550.00000" pt_clust_5="550.00000" pt_clust_6="47.18620"></scales>
<mgrwt>
<rscale>  0 0.30000000E+03</rscale>
<asrwt>  1 0.47186197E+02</asrwt>
<pdfrwt beam="1">  1        1 0.87410060E+00 0.30000000E+03</pdfrwt>
<pdfrwt beam="2">0</pdfrwt>
<totfact> 0.21770477E-04</totfact>
</mgrwt>
<clustering>
<clus scale="   47.186">  1  6  2 -1</clus>
<clus scale="  456.218">  4  5 -1 -1</clus>
<clus scale="  300.000">  1  4  2 -1</clus>
</clustering>
</event>
<event>
 6    1  0.1029244E-011  0.3000000E+03  0.7818608E-02  0.1093470E+00
          1   -1    0    0  502    0  0.00000000000E+00  0.00000000000E+00  0.24330704292E+03  0.24330704292E+03  0.00000000000E+00 0.  1.
         13   -1    0    0    0    0 -0.00000000000E+00 -0.00000000000E+00 -0.27500000000E+03  0.27500000000E+03  0.00000000000E+00 0.  1.
    9000005    2    1    2  501    0 -0.25235847890E+02  0.19811099418E+02 -0.48110368744E+02  0.48226735529E+03  0.47878791413E+03 0.  0.
         13    1    3    3    0    0 -0.21565449354E+03 -0.10654828425E+03  0.26192284789E+02  0.24196163589E+03  0.00000000000E+00 0.  1.
          1    1    3    3  501    0  0.19041864565E+03  0.12635938367E+03 -0.74302653533E+02  0.24030571940E+03  0.00000000000E+00 0.  1.
         21    1    1    2  502  501  0.25235847890E+02 -0.19811099418E+02  0.16417411666E+02  0.36039687633E+02  0.00000000000E+00 0. -1.
<scales pt_clust_4="550.00000" pt_clust_5="550.00000" pt_clust_6="32.08314"></scales>
<mgrwt>
<rscale>  0 0.30000000E+03</rscale>
<asrwt>  1 0.32083137E+02</asrwt>
<pdfrwt beam="1">  1        1 0.88475288E+00 0.30000000E+03</pdfrwt>
<pdfrwt beam="2">0</pdfrwt>
<totfact> 0.17386355E-04</totfact>
</mgrwt>
<clustering>
<clus scale="   32.083">  1  6  2 -1</clus>
<clus scale="  478.788">  4  5 -1 -1</clus>
<clus scale="  300.000">  1  4  2 -1</clus>
</clustering>
</event>
<event>
 6    1  0.1029244E-011  0.3000000E+03  0.7818608E-02  0.1093470E+00
          1   -1    0    0  502    0  0.00000000000E+00  0.00000000000E+00  0.22737425838E+03  0.22737425838E+03  0.00000000000E+00 0.  1.
         13   -1    0    0    0    0 -0.00000000000E+00 -0.00000000000E+00 -0.27500000000E+03  0.27500000000E+03  0.00000000000E+00 0.  1.
    9000005    2    1    2  501    0  0.14172024490E+02 -0.27304619706E+02 -0.49091990200E+02  0.47157590744E+03  0.46800365858E+03 0.  0.
         13    1    3    3    0    0 -0.11565653896E+03  0.41089321146E+02  0.16890506052E+03  0.20879101222E+03  0.00000000000E+00 0.  1.
          1    1    3    3  501    0  0.12982856345E+03 -0.68393940852E+02 -0.21799705072E+03  0.26278489522E+03  0.00000000000E+00 0.  1.
         21    1    1    2  502  501 -0.14172024490E+02  0.27304619706E+02  0.14662485789E+01  0.30798350935E+02  0.00000000000E+00 0. -1.
<scales pt_clust_4="550.00000" pt_clust_5="550.00000" pt_clust_6="30.76343"></scales>
<mgrwt>
<rscale>  0 0.30000000E+03</rscale>
<asrwt>  1 0.30763429E+02</asrwt>
<pdfrwt beam="1">  1        1 0.82681549E+00 0.30000000E+03</pdfrwt>
<pdfrwt beam="2">0</pdfrwt>
<totfact> 0.64493470E-04</totfact>
</mgrwt>
<clustering>
<clus scale="   30.763">  1  6  2 -1</clus>
<clus scale="  468.004">  4  5 -1 -1</clus>
<clus scale="  300.000">  1  4  2 -1</clus>
</clustering>
</event>
<event>
 6    1  0.1029244E-011  0.3000000E+03  0.7818608E-02  0.1093470E+00
          1   -1    0    0  502    0  0.00000000000E+00  0.00000000000E+00  0.23196920849E+03  0.23196920849E+03  0.00000000000E+00 0.  1.
         13   -1    0    0    0    0 -0.00000000000E+00 -0.00000000000E+00 -0.27500000000E+03  0.27500000000E+03  0.00000000000E+00 0.  1.
    9000005    2    1    2  501    0 -0.23958395649E+02 -0.18677531520E+02 -0.18035385122E+02  0.46762934008E+03  0.46629290117E+03 0.  0.
         13    1    3    3    0    0  0.11699128211E+03 -0.15565594738E+03  0.11884002360E+03  0.22811989228E+03  0.00000000000E+00 0.  1.
          3    1    3    3  501    0 -0.14094967776E+03  0.13697841586E+03 -0.13687540872E+03  0.23950944780E+03  0.00000000000E+00 0.  1.
         21    1    1    2  502  501  0.23958395649E+02  0.18677531520E+02 -0.24995406389E+02  0.39339868408E+02  0.00000000000E+00 0. -1.
<scales pt_clust_4="550.00000" pt_clust_5="550.00000" pt_clust_6="30.37854"></scales>
<mgrwt>
<rscale>  0 0.30000000E+03</rscale>
<asrwt>  1 0.30378542E+02</asrwt>
<pdfrwt beam="1">  1        1 0.84352439E+00 0.30000000E+03</pdfrwt>
<pdfrwt beam="2">0</pdfrwt>
<totfact> 0.47792010E-04</totfact>
</mgrwt>
<clustering>
<clus scale="   30.379">  1  6  2 -1</clus>
<clus scale="  466.293">  4  5 -1 -1</clus>
<clus scale="  300.000">  1  4  2 -1</clus>
</clustering>
</event>
<event>
 6    1  0.1029244E-011  0.3000000E+03  0.7818608E-02  0.1093470E+00
          1   -1    0    0  502    0  0.00000000000E+00  0.00000000000E+00  0.23412564755E+03  0.23412564755E+03  0.00000000000E+00 0.  1.
         13   -1    0    0    0    0 -0.00000000000E+00 -0.00000000000E+00 -0.27500000000E+03  0.27500000000E+03  0.00000000000E+00 0.  1.
    9000005    2    1    2  501    0 -0.21000524784E+02 -0.25377875342E+02 -0.43348067558E+02  0.47609266609E+03  0.47296946322E+03 0.  0.
         13    1    3    3    0    0 -0.22889664141E+03  0.45921919798E+02  0.47556448574E+02  0.23825220034E+03  0.00000000000E+00 0.  1.
          3    1    3    3  501    0  0.20789611662E+03 -0.71299795140E+02 -0.90904516132E+02  0.23784046575E+03  0.00000000000E+00 0.  1.
         21    1    1    2  502  501  0.21000524784E+02  0.25377875342E+02  0.24737151086E+01  0.33032981465E+02  0.00000000000E+00 0.  1.
<scales pt_clust_4="550.00000" pt_clust_5="550.00000" pt_clust_6="32.94023"></scales>
<mgrwt>
<rscale>  0 0.30000000E+03</rscale>
<asrwt>  1 0.32940228E+02</asrwt>
<pdfrwt beam="1">  1        1 0.85136599E+00 0.30000000E+03</pdfrwt>
<pdfrwt beam="2">0</pdfrwt>
<totfact> 0.39959737E-04</totfact>
</mgrwt>
<clustering>
<clus scale="   32.940">  1  6  2 -1</clus>
<clus scale="  472.969">  4  5 -1 -1</clus>
<clus scale="  300.000">  1  4  2 -1</clus>
</clustering>
</event>
<event>
 6    1  0.1029244E-011  0.3000000E+03  0.7818608E-02  0.1093470E+00
          1   -1    0    0  502    0  0.00000000000E+00  0.00000000000E+00  0.22207647361E+03  0.22207647361E+03  0.00000000000E+00 0.  1.
         13   -1    0    0    0    0 -0.00000000000E+00 -0.00000000000E+00 -0.27500000000E+03  0.27500000000E+03  0.00000000000E+00 0.  1.
    9000005    2    1    2  501    0 -0.28892359233E+02 -0.14593150003E+02 -0.62021482507E+02  0.46345354610E+03  0.45814276885E+03 0.  0.
         13    1    3    3    0    0 -0.12623476503E+03 -0.75748789402E+02  0.15753838910E+03  0.21561873536E+03  0.00000000000E+00 0.  1.
          3    1    3    3  501    0  0.97342405796E+02  0.61155639399E+02 -0.21955987160E+03  0.24783481074E+03  0.00000000000E+00 0.  1.
         21    1    1    2  502  501  0.28892359233E+02  0.14593150003E+02  0.90979561196E+01  0.33622927514E+02  0.00000000000E+00 0. -1.
<scales pt_clust_4="550.00000" pt_clust_5="550.00000" pt_clust_6="32.36863"></scales>
<mgrwt>
<rscale>  0 0.30000000E+03</rscale>
<asrwt>  1 0.32368634E+02</asrwt>
<pdfrwt beam="1">  1        1 0.80755081E+00 0.30000000E+03</pdfrwt>
<pdfrwt beam="2">0</pdfrwt>
<totfact> 0.92459685E-04</totfact>
</mgrwt>
<clustering>
<clus scale="   32.369">  1  6  2 -1</clus>
<clus scale="  458.143">  4  5 -1 -1</clus>
<clus scale="  300.000">  1  4  2 -1</clus>
</clustering>
</event>
<event>
 6    1  0.1029244E-011  0.3000000E+03  0.7818608E-02  0.1093470E+00
          1   -1    0    0  502    0  0.00000000000E+00  0.00000000000E+00  0.23330523864E+03  0.23330523864E+03  0.00000000000E+00 0.  1.
         13   -1    0    0    0    0 -0.00000000000E+00 -0.00000000000E+00 -0.27500000000E+03  0.27500000000E+03  0.00000000000E+00 0.  1.
    9000005    2    1    2  501    0  0.88238825850E+01 -0.40500412590E+02 -0.55226582078E+02  0.46470186152E+03  0.45954292554E+03 0.  0.
         13    1    3    3    0    0  0.18925315343E+03 -0.56130139719E+02 -0.16121029623E+03  0.25486488239E+03  0.00000000000E+00 0.  1.
          1    1    3    3  501    0 -0.18042927084E+03  0.15629727129E+02  0.10598371415E+03  0.20983697913E+03  0.00000000000E+00 0.  1.
         21    1    1    2  502  501 -0.88238825850E+01  0.40500412590E+02  0.13531820716E+02  0.43603377114E+02  0.00000000000E+00 0.  1.
<scales pt_clust_4="550.00000" pt_clust_5="550.00000" pt_clust_6="41.45050"></scales>
<mgrwt>
<rscale>  0 0.30000000E+03</rscale>
<asrwt>  1 0.41450505E+02</asrwt>
<pdfrwt beam="1">  1        1 0.84838269E+00 0.30000000E+03</pdfrwt>
<pdfrwt beam="2">0</pdfrwt>
<totfact> 0.40839616E-04</totfact>
</mgrwt>
<clustering>
<clus scale="   41.451">  1  6  2 -1</clus>
<clus scale="  459.543">  4  5 -1 -1</clus>
<clus scale="  300.000">  1  4  2 -1</clus>
</clustering>
</event>
<event>
 6    1  0.1029244E-011  0.3000000E+03  0.7818608E-02  0.1093470E+00
          1   -1    0    0  502    0  0.00000000000E+00  0.00000000000E+00  0.23220456551E+03  0.23220456551E+03  0.00000000000E+00 0.  1.
         13   -1    0    0    0    0 -0.00000000000E+00 -0.00000000000E+00 -0.27500000000E+03  0.27500000000E+03  0.00000000000E+00 0.  1.
    9000005    2    1    2  501    0  0.37760427071E+02  0.36005713216E+01 -0.44543035850E+02  0.46923262749E+03  0.46557100715E+03 0.  0.
         13    1    3    3    0    0 -0.18378931243E+03  0.11601259117E+03 -0.38481178588E+02  0.22072207361E+03  0.00000000000E+00 0.  1.
          1    1    3    3  501    0  0.22154973950E+03 -0.11241201985E+03 -0.60618572625E+01  0.24851055388E+03  0.00000000000E+00 0.  1.
         21    1    1    2  502  501 -0.37760427071E+02 -0.36005713216E+01  0.17476013634E+01  0.37971938019E+02  0.00000000000E+00 0. -1.
<scales pt_clust_4="550.00000" pt_clust_5="550.00000" pt_clust_6="37.93170"></scales>
<mgrwt>
<rscale>  0 0.30000000E+03</rscale>
<asrwt>  1 0.37931701E+02</asrwt>
<pdfrwt beam="1">  1        1 0.84438024E+00 0.30000000E+03</pdfrwt>
<pdfrwt beam="2">0</pdfrwt>
<totfact> 0.45068111E-04</totfact>
</mgrwt>
<clustering>
<clus scale="   37.932">  1  6  2 -1</clus>
<clus scale="  465.571">  4  5 -1 -1</clus>
<clus scale="  300.000">  1  4  2 -1</clus>
</clustering>
</event>
<event>
 6    1  0.1029244E-011  0.3000000E+03  0.7818608E-02  0.1093470E+00
          1   -1    0    0  502    0  0.00000000000E+00  0.00000000000E+00  0.24844981764E+03  0.24844981764E+03  0.00000000000E+00 0.  1.
         13   -1    0    0    0    0 -0.00000000000E+00 -0.00000000000E+00 -0.27500000000E+03  0.27500000000E+03  0.00000000000E+00 0.  1.
    9000005    2    1    2  501    0 -0.21572267762E+02 -0.27974279927E+02 -0.63264799328E+02  0.47249997787E+03  0.46691098849E+03 0.  0.
         13    1    3    3    0    0  0.52955774191E+02  0.17069852477E+03  0.99971998914E+02  0.20478452321E+03  0.00000000000E+00 0.  1.
          3    1    3    3  501    0 -0.74528041954E+02 -0.19867280470E+03 -0.16323679824E+03  0.26771545466E+03  0.00000000000E+00 0.  1.
         21    1    1    2  502  501  0.21572267762E+02  0.27974279927E+02  0.36714616971E+02  0.50949839776E+02  0.00000000000E+00 0.  1.
<scales pt_clust_4="550.00000" pt_clust_5="550.00000" pt_clust_6="35.32595"></scales>
<mgrwt>
<rscale>  0 0.30000000E+03</rscale>
<asrwt>  1 0.35325955E+02</asrwt>
<pdfrwt beam="1">  1        1 0.90345388E+00 0.30000000E+03</pdfrwt>
<pdfrwt beam="2">0</pdfrwt>
<totfact> 0.98345938E-05</totfact>
</mgrwt>
<clustering>
<clus scale="   35.326">  1  6  2 -1</clus>
<clus scale="  466.911">  4  5 -1 -1</clus>
<clus scale="  300.000">  1  4  2 -1</clus>
</clustering>
</event>
<event>
 6    1  0.1029244E-011  0.3000000E+03  0.7818608E-02  0.1093470E+00
          1   -1    0    0  502    0  0.00000000000E+00  0.00000000000E+00  0.22882866038E+03  0.22882866038E+03  0.00000000000E+00 0.  1.
         13   -1    0    0    0    0 -0.00000000000E+00 -0.00000000000E+00 -0.27500000000E+03  0.27500000000E+03  0.00000000000E+00 0.  1.
    9000005    2    1    2  501    0  0.30605920691E+02  0.15606224387E+02 -0.32808380091E+02  0.46696614137E+03  0.46454355098E+03 0.  0.
         13    1    3    3    0    0  0.12017675327E+03  0.19275423274E+03 -0.11198455717E+03  0.25325320790E+03  0.00000000000E+00 0.  1.
          3    1    3    3  501    0 -0.89570832583E+02 -0.17714800835E+03  0.79176177078E+02  0.21371293347E+03  0.00000000000E+00 0.  1.
         21    1    1    2  502  501 -0.30605920691E+02 -0.15606224387E+02 -0.13362959527E+02  0.36862519017E+02  0.00000000000E+00 0.  1.
<scales pt_clust_4="550.00000" pt_clust_5="550.00000" pt_clust_6="34.35517"></scales>
<mgrwt>
<rscale>  0 0.30000000E+03</rscale>
<asrwt>  1 0.34355171E+02</asrwt>
<pdfrwt beam="1">  1        1 0.83210422E+00 0.30000000E+03</pdfrwt>
<pdfrwt beam="2">0</pdfrwt>
<totfact> 0.57061479E-04</totfact>
</mgrwt>
<clustering>
<clus scale="   34.355">  1  6  2 -1</clus>
<clus scale="  464.544">  4  5 -1 -1</clus>
<clus scale="  300.000">  1  4  2 -1</clus>
</clustering>
</event>
<event>
 6    1  0.1029244E-011  0.3000000E+03  0.7818608E-02  0.1093470E+00
          1   -1    0    0  502    0  0.00000000000E+00  0.00000000000E+00  0.22366621486E+03  0.22366621486E+03  0.00000000000E+00 0.  1.
         13   -1    0    0    0    0 -0.00000000000E+00 -0.00000000000E+00 -0.27500000000E+03  0.27500000000E+03  0.00000000000E+00 0.  1.
    9000005    2    1    2  501    0 -0.14532121981E+01 -0.32515466504E+02 -0.65747649196E+02  0.46306948939E+03  0.45722120602E+03 0.  0.
         13    1    3    3    0    0 -0.44963068329E+01 -0.24146967116E+03  0.75000921300E+01  0.24162795833E+03  0.00000000000E+00 0.  1.
          3    1    3    3  501    0  0.30430946348E+01  0.20895420465E+03 -0.73247741326E+02  0.22144153106E+03  0.00000000000E+00 0.  1.
         21    1    1    2  502  501  0.14532121981E+01  0.32515466504E+02  0.14413864061E+02  0.35596725479E+02  0.00000000000E+00 0.  1.
<scales pt_clust_4="550.00000" pt_clust_5="550.00000" pt_clust_6="32.54792"></scales>
<mgrwt>
<rscale>  0 0.30000000E+03</rscale>
<asrwt>  1 0.32547924E+02</asrwt>
<pdfrwt beam="1">  1        1 0.81333169E+00 0.30000000E+03</pdfrwt>
<pdfrwt beam="2">0</pdfrwt>
<totfact> 0.83227731E-04</totfact>
</mgrwt>
<clustering>
<clus scale="   32.548">  1  6  2 -1</clus>
<clus scale="  457.221">  4  5 -1 -1</clus>
<clus scale="  300.000">  1  4  2 -1</clus>
</clustering>
</event>
<event>
 6    1  0.1029244E-011  0.3000000E+03  0.7818608E-02  0.1093470E+00
          1   -1    0    0  502    0  0.00000000000E+00  0.00000000000E+00  0.22703345622E+03  0.22703345622E+03  0.00000000000E+00 0.  1.
         13   -1    0    0    0    0 -0.00000000000E+00 -0.00000000000E+00 -0.27500000000E+03  0.27500000000E+03  0.00000000000E+00 0.  1.
    9000005    2    1    2  501    0 -0.14204753100E+02  0.27338125905E+02 -0.66061223975E+02  0.46630439816E+03  0.46057199034E+03 0.  0.
         13    1    3    3    0    0  0.10847911894E+03  0.20708273883E+03  0.14559994279E+02  0.23422846411E+03  0.00000000000E+00 0.  1.
          3    1    3    3  501    0 -0.12268387204E+03 -0.17974461292E+03 -0.80621218253E+02  0.23207593405E+03  0.00000000000E+00 0.  1.
         21    1    1    2  502  501  0.14204753100E+02 -0.27338125905E+02  0.18094680192E+02  0.35729058060E+02  0.00000000000E+00 0. -1.
<scales pt_clust_4="550.00000" pt_clust_5="550.00000" pt_clust_6="30.80825"></scales>
<mgrwt>
<rscale>  0 0.30000000E+03</rscale>
<asrwt>  1 0.30808248E+02</asrwt>
<pdfrwt beam="1">  1        1 0.82557620E+00 0.30000000E+03</pdfrwt>
<pdfrwt beam="2">0</pdfrwt>
<totfact> 0.66126701E-04</totfact>
</mgrwt>
<clustering>
<clus scale="   30.808">  1  6  2 -1</clus>
<clus scale="  460.572">  4  5 -1 -1</clus>
<clus scale="  300.000">  1  4  2 -1</clus>
</clustering>
</event>
<event>
 6    1  0.1029244E-011  0.3000000E+03  0.7818608E-02  0.1093470E+00
          1   -1    0    0  502    0  0.00000000000E+00  0.00000000000E+00  0.22852284229E+03  0.22852284229E+03  0.00000000000E+00 0.  1.
         13   -1    0    0    0    0 -0.00000000000E+00 -0.00000000000E+00 -0.27500000000E+03  0.27500000000E+03  0.00000000000E+00 0.  1.
    9000005    2    1    2  501    0  0.27103619439E+02  0.26529951984E+02 -0.22675627742E+02  0.45874609199E+03  0.45661290858E+03 0.  0.
         13    1    3    3    0    0 -0.11951113459E+03 -0.46794579754E+02  0.16533606359E+03  0.20930517888E+03  0.00000000000E+00 0.  1.
          1    1    3    3  501    0  0.14661475403E+03  0.73324531738E+02 -0.18801169133E+03  0.24944091310E+03  0.00000000000E+00 0.  1.
         21    1    1    2  502  501 -0.27103619439E+02 -0.26529951984E+02 -0.23801529968E+02  0.44776750304E+02  0.00000000000E+00 0.  1.
<scales pt_clust_4="550.00000" pt_clust_5="550.00000" pt_clust_6="37.92685"></scales>
<mgrwt>
<rscale>  0 0.30000000E+03</rscale>
<asrwt>  1 0.37926850E+02</asrwt>
<pdfrwt beam="1">  1        1 0.83099215E+00 0.30000000E+03</pdfrwt>
<pdfrwt beam="2">0</pdfrwt>
<totfact> 0.57157373E-04</totfact>
</mgrwt>
<clustering>
<clus scale="   37.927">  1  6  2 -1</clus>
<clus scale="  456.613">  4  5 -1 -1</clus>
<clus scale="  300.000">  1  4  2 -1</clus>
</clustering>
</event>
<event>
 6    1  0.1029244E-011  0.3000000E+03  0.7818608E-02  0.1093470E+00
          1   -1    0    0  502    0  0.00000000000E+00  0.00000000000E+00  0.22068019441E+03  0.22068019441E+03  0.00000000000E+00 0.  1.
         13   -1    0    0    0    0 -0.00000000000E+00 -0.00000000000E+00 -0.27500000000E+03  0.27500000000E+03  0.00000000000E+00 0.  1.
    9000005    2    1    2  501    0  0.30463668243E+02  0.92092394749E+01 -0.52950335404E+02  0.46382551464E+03  0.45969285924E+03 0.  0.
         13    1    3    3    0    0  0.55340596692E+02 -0.75901125592E+02  0.18631664552E+03  0.20865630809E+03  0.00000000000E+00 0.  1.
          3    1    3    3  501    0 -0.24876928449E+02  0.85110365067E+02 -0.23926698092E+03  0.25516920655E+03  0.00000000000E+00 0.  1.
         21    1    1    2  502  501 -0.30463668243E+02 -0.92092394749E+01 -0.13694701911E+01  0.31854679768E+02  0.00000000000E+00 0. -1.
<scales pt_clust_4="550.00000" pt_clust_5="550.00000" pt_clust_6="31.82523"></scales>
<mgrwt>
<rscale>  0 0.30000000E+03</rscale>
<asrwt>  1 0.31825229E+02</asrwt>
<pdfrwt beam="1">  1        1 0.80247343E+00 0.30000000E+03</pdfrwt>
<pdfrwt beam="2">0</pdfrwt>
<totfact> 0.10130311E-03</totfact>
</mgrwt>
<clustering>
<clus scale="   31.825">  1  6  2 -1</clus>
<clus scale="  459.693">  4  5 -1 -1</clus>
<clus scale="  300.000">  1  4  2 -1</clus>
</clustering>
</event>
<event>
 6    1  0.1029244E-011  0.3000000E+03  0.7818608E-02  0.1093470E+00
          1   -1    0    0  502    0  0.00000000000E+00  0.00000000000E+00  0.25067849664E+03  0.25067849664E+03  0.00000000000E+00 0.  1.
         13   -1    0    0    0    0 -0.00000000000E+00 -0.00000000000E+00 -0.27500000000E+03  0.27500000000E+03  0.00000000000E+00 0.  1.
    9000005    2    1    2  501    0  0.27193512554E+02  0.45114666525E+02 -0.32031915740E+02  0.47244062741E+03  0.46840077129E+03 0.  0.
         13    1    3    3    0    0  0.17823671949E+03  0.12540475909E+03  0.11541385042E+03  0.24660705311E+03  0.00000000000E+00 0.  1.
          1    1    3    3  501    0 -0.15104320693E+03 -0.80290092561E+02 -0.14744576616E+03  0.22583357430E+03  0.00000000000E+00 0.  1.
         21    1    1    2  502  501 -0.27193512554E+02 -0.45114666525E+02  0.77104123795E+01  0.53237869227E+02  0.00000000000E+00 0. -1.
<scales pt_clust_4="550.00000" pt_clust_5="550.00000" pt_clust_6="52.67656"></scales>
<mgrwt>
<rscale>  0 0.30000000E+03</rscale>
<asrwt>  1 0.52676563E+02</asrwt>
<pdfrwt beam="1">  1        1 0.91155817E+00 0.30000000E+03</pdfrwt>
<pdfrwt beam="2">0</pdfrwt>
<totfact> 0.61090427E-05</totfact>
</mgrwt>
<clustering>
<clus scale="   52.677">  1  6  2 -1</clus>
<clus scale="  468.401">  4  5 -1 -1</clus>
<clus scale="  300.000">  1  4  2 -1</clus>
</clustering>
</event>
<event>
 6    1  0.1029244E-011  0.3000000E+03  0.7818608E-02  0.1093470E+00
          1   -1    0    0  502    0  0.00000000000E+00  0.00000000000E+00  0.23687762914E+03  0.23687762914E+03  0.00000000000E+00 0.  1.
         13   -1    0    0    0    0 -0.00000000000E+00 -0.00000000000E+00 -0.27500000000E+03  0.27500000000E+03  0.00000000000E+00 0.  1.
    9000005    2    1    2  501    0 -0.27477278901E+02  0.15815885517E+02 -0.20172128044E+01  0.46382843010E+03  0.46273923578E+03 0.  0.
         13    1    3    3    0    0 -0.10126283064E+03 -0.37069086489E+02 -0.21045859230E+03  0.23647641978E+03  0.00000000000E+00 0.  1.
          1    1    3    3  501    0  0.73785551739E+02  0.52884972006E+02  0.20844137949E+03  0.22735201032E+03  0.00000000000E+00 0.  1.
         21    1    1    2  502  501  0.27477278901E+02 -0.15815885517E+02 -0.36105158053E+02  0.48049199042E+02  0.00000000000E+00 0.  1.
<scales pt_clust_4="550.00000" pt_clust_5="550.00000" pt_clust_6="31.70401"></scales>
<mgrwt>
<rscale>  0 0.30000000E+03</rscale>
<asrwt>  1 0.31704008E+02</asrwt>
<pdfrwt beam="1">  1        1 0.86137320E+00 0.30000000E+03</pdfrwt>
<pdfrwt beam="2">0</pdfrwt>
<totfact> 0.31857054E-04</totfact>
</mgrwt>
<clustering>
<clus scale="   31.704">  1  6  2 -1</clus>
<clus scale="  462.739">  4  5 -1 -1</clus>
<clus scale="  300.000">  1  4  2 -1</clus>
</clustering>
</event>
<event>
 6    1  0.1029244E-011  0.3000000E+03  0.7818608E-02  0.1093470E+00
          1   -1    0    0  502    0  0.00000000000E+00  0.00000000000E+00  0.23808739454E+03  0.23808739454E+03  0.00000000000E+00 0.  1.
         13   -1    0    0    0    0 -0.00000000000E+00 -0.00000000000E+00 -0.27500000000E+03  0.27500000000E+03  0.00000000000E+00 0.  1.
    9000005    2    1    2  501    0 -0.19192553687E+02  0.24092972712E+02 -0.69753183363E+02  0.46806152411E+03  0.46180868150E+03 0.  0.
         13    1    3    3    0    0  0.21062263361E+03  0.16211413349E+02 -0.10419754692E+03  0.23554581825E+03  0.00000000000E+00 0.  1.
          1    1    3    3  501    0 -0.22981518730E+03  0.78815593629E+01  0.34444363553E+02  0.23251570586E+03  0.00000000000E+00 0.  1.
         21    1    1    2  502  501  0.19192553687E+02 -0.24092972712E+02  0.32840577901E+02  0.45025870430E+02  0.00000000000E+00 0. -1.
<scales pt_clust_4="550.00000" pt_clust_5="550.00000" pt_clust_6="30.80301"></scales>
<mgrwt>
<rscale>  0 0.30000000E+03</rscale>
<asrwt>  1 0.30803010E+02</asrwt>
<pdfrwt beam="1">  1        1 0.86577234E+00 0.30000000E+03</pdfrwt>
<pdfrwt beam="2">0</pdfrwt>
<totfact> 0.28716173E-04</totfact>
</mgrwt>
<clustering>
<clus scale="   30.803">  1  6  2 -1</clus>
<clus scale="  461.809">  4  5 -1 -1</clus>
<clus scale="  300.000">  1  4  2 -1</clus>
</clustering>
</event>
<event>
 6    1  0.1029244E-011  0.3000000E+03  0.7818608E-02  0.1093470E+00
          1   -1    0    0  502    0  0.00000000000E+00  0.00000000000E+00  0.23074242370E+03  0.23074242370E+03  0.00000000000E+00 0.  1.
         13   -1    0    0    0    0 -0.00000000000E+00 -0.00000000000E+00 -0.27500000000E+03  0.27500000000E+03  0.00000000000E+00 0.  1.
    9000005    2    1    2  501    0 -0.23664518106E+02 -0.32438330950E+02 -0.20346143614E+02  0.45900901653E+03  0.45679651593E+03 0.  0.
         13    1    3    3    0    0 -0.14861325465E+03  0.56515314878E+02  0.15774660324E+03  0.22397292494E+03  0.00000000000E+00 0.  1.
          3    1    3    3  501    0  0.12494873655E+03 -0.88953645828E+02 -0.17809274685E+03  0.23503609159E+03  0.00000000000E+00 0.  1.
         21    1    1    2  502  501  0.23664518106E+02  0.32438330950E+02 -0.23911432688E+02  0.46733407164E+02  0.00000000000E+00 0. -1.
<scales pt_clust_4="550.00000" pt_clust_5="550.00000" pt_clust_6="40.15291"></scales>
<mgrwt>
<rscale>  0 0.30000000E+03</rscale>
<asrwt>  1 0.40152912E+02</asrwt>
<pdfrwt beam="1">  1        1 0.83906336E+00 0.30000000E+03</pdfrwt>
<pdfrwt beam="2">0</pdfrwt>
<totfact> 0.49257233E-04</totfact>
</mgrwt>
<clustering>
<clus scale="   40.153">  1  6  2 -1</clus>
<clus scale="  456.797">  4  5 -1 -1</clus>
<clus scale="  300.000">  1  4  2 -1</clus>
</clustering>
</event>
<event>
 6    1  0.1029244E-011  0.3000000E+03  0.7818608E-02  0.1093470E+00
          1   -1    0    0  502    0  0.00000000000E+00  0.00000000000E+00  0.24458902799E+03  0.24458902799E+03  0.00000000000E+00 0.  1.
         13   -1    0    0    0    0 -0.00000000000E+00 -0.00000000000E+00 -0.27500000000E+03  0.27500000000E+03  0.00000000000E+00 0.  1.
    9000005    2    1    2  501    0 -0.24084381808E+02  0.28950578395E+02 -0.42333910264E+02  0.48008776354E+03  0.47673253225E+03 0.  0.
         13    1    3    3    0    0  0.11656458705E+03 -0.10708346159E+03 -0.18086145541E+03  0.24034358063E+03  0.00000000000E+00 0.  1.
          3    1    3    3  501    0 -0.14064896886E+03  0.13603403998E+03  0.13852754514E+03  0.23974418291E+03  0.00000000000E+00 0.  1.
         21    1    1    2  502  501  0.24084381808E+02 -0.28950578395E+02  0.11922938256E+02  0.39501264450E+02  0.00000000000E+00 0. -1.
<scales pt_clust_4="550.00000" pt_clust_5="550.00000" pt_clust_6="37.65891"></scales>
<mgrwt>
<rscale>  0 0.30000000E+03</rscale>
<asrwt>  1 0.37658909E+02</asrwt>
<pdfrwt beam="1">  1        1 0.88941465E+00 0.30000000E+03</pdfrwt>
<pdfrwt beam="2">0</pdfrwt>
<totfact> 0.14560175E-04</totfact>
</mgrwt>
<clustering>
<clus scale="   37.659">  1  6  2 -1</clus>
<clus scale="  476.733">  4  5 -1 -1</clus>
<clus scale="  300.000">  1  4  2 -1</clus>
</clustering>
</event>
<event>
 6    1  0.1029244E-011  0.3000000E+03  0.7818608E-02  0.1093470E+00
          1   -1    0    0  502    0  0.00000000000E+00  0.00000000000E+00  0.23576556434E+03  0.23576556434E+03  0.00000000000E+00 0.  1.
         13   -1    0    0    0    0 -0.00000000000E+00 -0.00000000000E+00 -0.27500000000E+03  0.27500000000E+03  0.00000000000E+00 0.  1.
    9000005    2    1    2  501    0  0.16969692952E+02  0.32495064649E+02 -0.35696795207E+02  0.47393602992E+03  0.47116578777E+03 0.  0.
         13    1    3    3    0    0 -0.78549214331E+02  0.19285239340E+03 -0.14857712437E+03  0.25580693227E+03  0.00000000000E+00 0.  1.
          3    1    3    3  501    0  0.95518907283E+02 -0.16035732875E+03  0.11288032916E+03  0.21812909765E+03  0.00000000000E+00 0.  1.
         21    1    1    2  502  501 -0.16969692952E+02 -0.32495064649E+02 -0.35376404524E+01  0.36829534418E+02  0.00000000000E+00 0. -1.
<scales pt_clust_4="550.00000" pt_clust_5="550.00000" pt_clust_6="36.65926"></scales>
<mgrwt>
<rscale>  0 0.30000000E+03</rscale>
<asrwt>  1 0.36659256E+02</asrwt>
<pdfrwt beam="1">  1        1 0.85732932E+00 0.30000000E+03</pdfrwt>
<pdfrwt beam="2">0</pdfrwt>
<totfact> 0.34210292E-04</totfact>
</mgrwt>
<clustering>
<clus scale="   36.659">  1  6  2 -1</clus>
<clus scale="  471.166">  4  5 -1 -1</clus>
<clus scale="  300.000">  1  4  2 -1</clus>
</clustering>
</event>
<event>
 6    1  0.1029244E-011  0.3000000E+03  0.7818608E-02  0.1093470E+00
          1   -1    0    0  502    0  0.00000000000E+00  0.00000000000E+00  0.22847627868E+03  0.22847627868E+03  0.00000000000E+00 0.  1.
         13   -1    0    0    0    0 -0.00000000000E+00 -0.00000000000E+00 -0.27500000000E+03  0.27500000000E+03  0.00000000000E+00 0.  1.
    9000005    2    1    2  501    0 -0.29905024282E+02  0.10695259544E+02 -0.41054020851E+02  0.47124870234E+03  0.46838147676E+03 0.  0.
         13    1    3    3    0    0 -0.58365179386E+02  0.10058626543E+03 -0.23131647271E+03  0.25890423230E+03  0.00000000000E+00 0.  1.
          1    1    3    3  501    0  0.28460155104E+02 -0.89891005886E+02  0.19026245186E+03  0.21234447004E+03  0.00000000000E+00 0.  1.
         21    1    1    2  502  501  0.29905024282E+02 -0.10695259544E+02 -0.54697004644E+01  0.32227576347E+02  0.00000000000E+00 0. -1.
<scales pt_clust_4="550.00000" pt_clust_5="550.00000" pt_clust_6="31.76004"></scales>
<mgrwt>
<rscale>  0 0.30000000E+03</rscale>
<asrwt>  1 0.31760039E+02</asrwt>
<pdfrwt beam="1">  1        1 0.83082283E+00 0.30000000E+03</pdfrwt>
<pdfrwt beam="2">0</pdfrwt>
<totfact> 0.59274070E-04</totfact>
</mgrwt>
<clustering>
<clus scale="   31.760">  1  6  2 -1</clus>
<clus scale="  468.381">  4  5 -1 -1</clus>
<clus scale="  300.000">  1  4  2 -1</clus>
</clustering>
</event>
<event>
 6    1  0.1029244E-011  0.3000000E+03  0.7818608E-02  0.1093470E+00
          1   -1    0    0  502    0  0.00000000000E+00  0.00000000000E+00  0.26063758867E+03  0.26063758867E+03  0.00000000000E+00 0.  1.
         13   -1    0    0    0    0 -0.00000000000E+00 -0.00000000000E+00 -0.27500000000E+03  0.27500000000E+03  0.00000000000E+00 0.  1.
    9000005    2    1    2  501    0 -0.32099960885E+02  0.13066758241E+02 -0.46239694596E+02  0.48854927963E+03  0.48511971884E+03 0.  0.
         13    1    3    3    0    0 -0.10057891631E+03 -0.19378431664E+03 -0.13115489389E+03  0.25469606587E+03  0.00000000000E+00 0.  1.
          1    1    3    3  501    0  0.68478955422E+02  0.20685107488E+03  0.84915199293E+02  0.23385321376E+03  0.00000000000E+00 0.  1.
         21    1    1    2  502  501  0.32099960885E+02 -0.13066758241E+02  0.31877283267E+02  0.47088309040E+02  0.00000000000E+00 0. -1.
<scales pt_clust_4="550.00000" pt_clust_5="550.00000" pt_clust_6="34.65758"></scales>
<mgrwt>
<rscale>  0 0.30000000E+03</rscale>
<asrwt>  1 0.34657577E+02</asrwt>
<pdfrwt beam="1">  1        1 0.94777305E+00 0.30000000E+03</pdfrwt>
<pdfrwt beam="2">0</pdfrwt>
<totfact> 0.13726007E-05</totfact>
</mgrwt>
<clustering>
<clus scale="   34.658">  1  6  2 -1</clus>
<clus scale="  485.120">  4  5 -1 -1</clus>
<clus scale="  300.000">  1  4  2 -1</clus>
</clustering>
</event>
<event>
 6    1  0.1029244E-011  0.3000000E+03  0.7818608E-02  0.1093470E+00
          1   -1    0    0  502    0  0.00000000000E+00  0.00000000000E+00  0.24724977649E+03  0.24724977649E+03  0.00000000000E+00 0.  1.
         13   -1    0    0    0    0 -0.00000000000E+00 -0.00000000000E+00 -0.27500000000E+03  0.27500000000E+03  0.00000000000E+00 0.  1.
    9000005    2    1    2  501    0  0.33897368467E+01 -0.36179120105E+02 -0.48712582919E+02  0.48029933478E+03  0.47643899527E+03 0.  0.
         13    1    3    3    0    0 -0.17750363596E+03 -0.11972009005E+03 -0.14541906477E+03  0.25881874959E+03  0.00000000000E+00 0.  1.
          3    1    3    3  501    0  0.18089337281E+03  0.83540969941E+02  0.96706481852E+02  0.22148058519E+03  0.00000000000E+00 0.  1.
         21    1    1    2  502  501 -0.33897368467E+01  0.36179120105E+02  0.20962359407E+02  0.41950441706E+02  0.00000000000E+00 0.  1.
<scales pt_clust_4="550.00000" pt_clust_5="550.00000" pt_clust_6="36.33757"></scales>
<mgrwt>
<rscale>  0 0.30000000E+03</rscale>
<asrwt>  1 0.36337571E+02</asrwt>
<pdfrwt beam="1">  1        1 0.89909010E+00 0.30000000E+03</pdfrwt>
<pdfrwt beam="2">0</pdfrwt>
<totfact> 0.11252241E-04</totfact>
</mgrwt>
<clustering>
<clus scale="   36.338">  1  6  2 -1</clus>
<clus scale="  476.439">  4  5 -1 -1</clus>
<clus scale="  300.000">  1  4  2 -1</clus>
</clustering>
</event>
<event>
 6    1  0.1029244E-011  0.3000000E+03  0.7818608E-02  0.1093470E+00
          1   -1    0    0  502    0  0.00000000000E+00  0.00000000000E+00  0.23628016698E+03  0.23628016698E+03  0.00000000000E+00 0.  1.
         13   -1    0    0    0    0 -0.00000000000E+00 -0.00000000000E+00 -0.27500000000E+03  0.27500000000E+03  0.00000000000E+00 0.  1.
    9000005    2    1    2  501    0 -0.41029958623E+02  0.66448667450E+01 -0.63532162435E+02  0.46287290048E+03  0.45660417714E+03 0.  0.
         13    1    3    3    0    0 -0.63127777674E+02 -0.10646003450E+03 -0.22954135329E+03  0.26078360403E+03  0.00000000000E+00 0.  1.
          3    1    3    3  501    0  0.22097819051E+02  0.11310490124E+03  0.16600919086E+03  0.20208929645E+03  0.00000000000E+00 0.  1.
         21    1    1    2  502  501  0.41029958623E+02 -0.66448667450E+01  0.24812329417E+02  0.48407266498E+02  0.00000000000E+00 0.  1.
<scales pt_clust_4="550.00000" pt_clust_5="550.00000" pt_clust_6="41.56455"></scales>
<mgrwt>
<rscale>  0 0.30000000E+03</rscale>
<asrwt>  1 0.41564549E+02</asrwt>
<pdfrwt beam="1">  1        1 0.85920061E+00 0.30000000E+03</pdfrwt>
<pdfrwt beam="2">0</pdfrwt>
<totfact> 0.31957880E-04</totfact>
</mgrwt>
<clustering>
<clus scale="   41.565">  1  6  2 -1</clus>
<clus scale="  456.604">  4  5 -1 -1</clus>
<clus scale="  300.000">  1  4  2 -1</clus>
</clustering>
</event>
<event>
 6    1  0.1029244E-011  0.3000000E+03  0.7818608E-02  0.1093470E+00
          1   -1    0    0  502    0  0.00000000000E+00  0.00000000000E+00  0.23099307428E+03  0.23099307428E+03  0.00000000000E+00 0.  1.
         13   -1    0    0    0    0 -0.00000000000E+00 -0.00000000000E+00 -0.27500000000E+03  0.27500000000E+03  0.00000000000E+00 0.  1.
    9000005    2    1    2  501    0 -0.36660650531E+01 -0.30446114522E+02 -0.58371495382E+02  0.47212942439E+03  0.46750246628E+03 0.  0.
         13    1    3    3    0    0  0.17561007500E+03  0.13693172710E+03 -0.16305965674E+02  0.22328251352E+03  0.00000000000E+00 0.  1.
          1    1    3    3  501    0 -0.17927614005E+03 -0.16737784162E+03 -0.42065529708E+02  0.24884691087E+03  0.00000000000E+00 0.  1.
         21    1    1    2  502  501  0.36660650531E+01  0.30446114522E+02  0.14364569660E+02  0.33863649891E+02  0.00000000000E+00 0.  1.
<scales pt_clust_4="550.00000" pt_clust_5="550.00000" pt_clust_6="30.66604"></scales>
<mgrwt>
<rscale>  0 0.30000000E+03</rscale>
<asrwt>  1 0.30666039E+02</asrwt>
<pdfrwt beam="1">  1        1 0.83997482E+00 0.30000000E+03</pdfrwt>
<pdfrwt beam="2">0</pdfrwt>
<totfact> 0.50986884E-04</totfact>
</mgrwt>
<clustering>
<clus scale="   30.666">  1  6  2 -1</clus>
<clus scale="  467.502">  4  5 -1 -1</clus>
<clus scale="  300.000">  1  4  2 -1</clus>
</clustering>
</event>
<event>
 6    1  0.1029244E-011  0.3000000E+03  0.7818608E-02  0.1093470E+00
          1   -1    0    0  502    0  0.00000000000E+00  0.00000000000E+00  0.23701906493E+03  0.23701906493E+03  0.00000000000E+00 0.  1.
         13   -1    0    0    0    0 -0.00000000000E+00 -0.00000000000E+00 -0.27500000000E+03  0.27500000000E+03  0.00000000000E+00 0.  1.
    9000005    2    1    2  501    0 -0.27067954430E+00  0.34059931457E+02 -0.69923634453E+02  0.46532336660E+03  0.45877703588E+03 0.  0.
         13    1    3    3    0    0 -0.69944125866E+02 -0.20146012518E+03 -0.49075865779E+02  0.21883053576E+03  0.00000000000E+00 0.  1.
          3    1    3    3  501    0  0.69673446322E+02  0.23552005663E+03 -0.20847768674E+02  0.24649283084E+03  0.00000000000E+00 0.  1.
         21    1    1    2  502  501  0.27067954430E+00 -0.34059931457E+02  0.31942699382E+02  0.46695698325E+02  0.00000000000E+00 0.  1.
<scales pt_clust_4="550.00000" pt_clust_5="550.00000" pt_clust_6="34.06101"></scales>
<mgrwt>
<rscale>  0 0.30000000E+03</rscale>
<asrwt>  1 0.34061007E+02</asrwt>
<pdfrwt beam="1">  1        1 0.86188751E+00 0.30000000E+03</pdfrwt>
<pdfrwt beam="2">0</pdfrwt>
<totfact> 0.31028817E-04</totfact>
</mgrwt>
<clustering>
<clus scale="   34.061">  1  6  2 -1</clus>
<clus scale="  458.777">  4  5 -1 -1</clus>
<clus scale="  300.000">  1  4  2 -1</clus>
</clustering>
</event>
<event>
 6    1  0.1029244E-011  0.3000000E+03  0.7818608E-02  0.1093470E+00
          1   -1    0    0  502    0  0.00000000000E+00  0.00000000000E+00  0.24893243842E+03  0.24893243842E+03  0.00000000000E+00 0.  1.
         13   -1    0    0    0    0 -0.00000000000E+00 -0.00000000000E+00 -0.27500000000E+03  0.27500000000E+03  0.00000000000E+00 0.  1.
    9000005    2    1    2  501    0 -0.27931923862E+02 -0.15941976845E+02 -0.59948009181E+02  0.47721816088E+03  0.47234422858E+03 0.  0.
         13    1    3    3    0    0 -0.15428365726E+03  0.58035812850E+00 -0.22244701080E+03  0.27071471391E+03  0.00000000000E+00 0.  1.
          3    1    3    3  501    0  0.12635173340E+03 -0.16522334974E+02  0.16249900162E+03  0.20650344697E+03  0.00000000000E+00 0.  1.
         21    1    1    2  502  501  0.27931923862E+02  0.15941976845E+02  0.33880447604E+02  0.46714277541E+02  0.00000000000E+00 0.  1.
<scales pt_clust_4="550.00000" pt_clust_5="550.00000" pt_clust_6="32.16114"></scales>
<mgrwt>
<rscale>  0 0.30000000E+03</rscale>
<asrwt>  1 0.32161141E+02</asrwt>
<pdfrwt beam="1">  1        1 0.90520887E+00 0.30000000E+03</pdfrwt>
<pdfrwt beam="2">0</pdfrwt>
<totfact> 0.93094382E-05</totfact>
</mgrwt>
<clustering>
<clus scale="   32.161">  1  6  2 -1</clus>
<clus scale="  472.344">  4  5 -1 -1</clus>
<clus scale="  300.000">  1  4  2 -1</clus>
</clustering>
</event>
<event>
 6    1  0.1029244E-011  0.3000000E+03  0.7818608E-02  0.1093470E+00
          1   -1    0    0  502    0  0.00000000000E+00  0.00000000000E+00  0.25126540288E+03  0.25126540288E+03  0.00000000000E+00 0.  1.
         13   -1    0    0    0    0 -0.00000000000E+00 -0.00000000000E+00 -0.27500000000E+03  0.27500000000E+03  0.00000000000E+00 0.  1.
    9000005    2    1    2  501    0 -0.32347169580E+02  0.34471364123E+02 -0.21544391022E+02  0.47894298401E+03  0.47611721963E+03 0.  0.
         13    1    3    3    0    0  0.20551373036E+03  0.57300843608E+02  0.67748068276E+02  0.22385057695E+03  0.00000000000E+00 0.  1.
          1    1    3    3  501    0 -0.23786089994E+03 -0.22829479485E+02 -0.89292459298E+02  0.25509240706E+03  0.00000000000E+00 0.  1.
         21    1    1    2  502  501  0.32347169580E+02 -0.34471364123E+02 -0.21902061003E+01  0.47322418864E+02  0.00000000000E+00 0. -1.
<scales pt_clust_4="550.00000" pt_clust_5="550.00000" pt_clust_6="47.27173"></scales>
<mgrwt>
<rscale>  0 0.30000000E+03</rscale>
<asrwt>  1 0.47271731E+02</asrwt>
<pdfrwt beam="1">  1        1 0.91369237E+00 0.30000000E+03</pdfrwt>
<pdfrwt beam="2">0</pdfrwt>
<totfact> 0.55086304E-05</totfact>
</mgrwt>
<clustering>
<clus scale="   47.272">  1  6  2 -1</clus>
<clus scale="  476.117">  4  5 -1 -1</clus>
<clus scale="  300.000">  1  4  2 -1</clus>
</clustering>
</event>
<event>
 6    1  0.1029244E-011  0.3000000E+03  0.7818608E-02  0.1093470E+00
          1   -1    0    0  502    0  0.00000000000E+00  0.00000000000E+00  0.25069711642E+03  0.25069711642E+03  0.00000000000E+00 0.  1.
         13   -1    0    0    0    0 -0.00000000000E+00 -0.00000000000E+00 -0.27500000000E+03  0.27500000000E+03  0.00000000000E+00 0.  1.
    9000005    2    1    2  501    0  0.19621969421E+02 -0.31467696528E+02 -0.37329016089E+02  0.48639167485E+03  0.48353714264E+03 0.  0.
         13    1    3    3    0    0  0.75123135723E+02 -0.92812934536E+02  0.20117805948E+03  0.23394516015E+03  0.00000000000E+00 0.  1.
          3    1    3    3  501    0 -0.55501166302E+02  0.61345238007E+02 -0.23850707557E+03  0.25244651470E+03  0.00000000000E+00 0.  1.
         21    1    1    2  502  501 -0.19621969421E+02  0.31467696528E+02  0.13026132506E+02  0.39305441568E+02  0.00000000000E+00 0.  1.
<scales pt_clust_4="550.00000" pt_clust_5="550.00000" pt_clust_6="37.08420"></scales>
<mgrwt>
<rscale>  0 0.30000000E+03</rscale>
<asrwt>  1 0.37084196E+02</asrwt>
<pdfrwt beam="1">  1        1 0.91162588E+00 0.30000000E+03</pdfrwt>
<pdfrwt beam="2">0</pdfrwt>
<totfact> 0.64804573E-05</totfact>
</mgrwt>
<clustering>
<clus scale="   37.084">  1  6  2 -1</clus>
<clus scale="  483.537">  4  5 -1 -1</clus>
<clus scale="  300.000">  1  4  2 -1</clus>
</clustering>
</event>
<event>
 6    1  0.1029244E-011  0.3000000E+03  0.7818608E-02  0.1093470E+00
          1   -1    0    0  502    0  0.00000000000E+00  0.00000000000E+00  0.22408103127E+03  0.22408103127E+03  0.00000000000E+00 0.  1.
         13   -1    0    0    0    0 -0.00000000000E+00 -0.00000000000E+00 -0.27500000000E+03  0.27500000000E+03  0.00000000000E+00 0.  1.
    9000005    2    1    2  501    0  0.28784715667E+02  0.11165562019E+02 -0.62461902464E+02  0.46611940281E+03  0.46088239149E+03 0.  0.
         13    1    3    3    0    0 -0.19938319378E+03  0.29016174663E+02  0.55022152836E+02  0.20886127850E+03  0.00000000000E+00 0.  1.
          3    1    3    3  501    0  0.22816790945E+03 -0.17850612645E+02 -0.11748405530E+03  0.25725812431E+03  0.00000000000E+00 0.  1.
         21    1    1    2  502  501 -0.28784715667E+02 -0.11165562019E+02  0.11542933733E+02  0.32961628455E+02  0.00000000000E+00 0. -1.
<scales pt_clust_4="550.00000" pt_clust_5="550.00000" pt_clust_6="30.87442"></scales>
<mgrwt>
<rscale>  0 0.30000000E+03</rscale>
<asrwt>  1 0.30874417E+02</asrwt>
<pdfrwt beam="1">  1        1 0.81484011E+00 0.30000000E+03</pdfrwt>
<pdfrwt beam="2">0</pdfrwt>
<totfact> 0.81758981E-04</totfact>
</mgrwt>
<clustering>
<clus scale="   30.874">  1  6  2 -1</clus>
<clus scale="  460.882">  4  5 -1 -1</clus>
<clus scale="  300.000">  1  4  2 -1</clus>
</clustering>
</event>
<event>
 6    1  0.1029244E-011  0.3000000E+03  0.7818608E-02  0.1093470E+00
          1   -1    0    0  502    0  0.00000000000E+00  0.00000000000E+00  0.23003244512E+03  0.23003244512E+03  0.00000000000E+00 0.  1.
         13   -1    0    0    0    0 -0.00000000000E+00 -0.00000000000E+00 -0.27500000000E+03  0.27500000000E+03  0.00000000000E+00 0.  1.
    9000005    2    1    2  501    0 -0.36083780700E+02 -0.32439323549E+01 -0.47045188760E+02  0.46874361916E+03  0.46496749176E+03 0.  0.
         13    1    3    3    0    0 -0.51882170978E+02 -0.20407575014E+03 -0.13371774066E+03  0.24943757861E+03  0.00000000000E+00 0.  1.
          1    1    3    3  501    0  0.15798390278E+02  0.20083181778E+03  0.86672551897E+02  0.21930604055E+03  0.00000000000E+00 0.  1.
         21    1    1    2  502  501  0.36083780700E+02  0.32439323549E+01  0.20776338775E+01  0.36288825956E+02  0.00000000000E+00 0. -1.
<scales pt_clust_4="550.00000" pt_clust_5="550.00000" pt_clust_6="36.22930"></scales>
<mgrwt>
<rscale>  0 0.30000000E+03</rscale>
<asrwt>  1 0.36229302E+02</asrwt>
<pdfrwt beam="1">  1        1 0.83648162E+00 0.30000000E+03</pdfrwt>
<pdfrwt beam="2">0</pdfrwt>
<totfact> 0.52435735E-04</totfact>
</mgrwt>
<clustering>
<clus scale="   36.229">  1  6  2 -1</clus>
<clus scale="  464.967">  4  5 -1 -1</clus>
<clus scale="  300.000">  1  4  2 -1</clus>
</clustering>
</event>
<event>
 6    1  0.1029244E-011  0.3000000E+03  0.7818608E-02  0.1093470E+00
          1   -1    0    0  502    0  0.00000000000E+00  0.00000000000E+00  0.25079078399E+03  0.25079078399E+03  0.00000000000E+00 0.  1.
         13   -1    0    0    0    0 -0.00000000000E+00 -0.00000000000E+00 -0.27500000000E+03  0.27500000000E+03  0.00000000000E+00 0.  1.
    9000005    2    1    2  501    0 -0.73947258446E+01 -0.37609487697E+02 -0.41021358635E+02  0.48393623018E+03  0.48066866704E+03 0.  0.
         13    1    3    3    0    0  0.22968394486E+03 -0.59643896807E+02 -0.60947470048E+02  0.24500347561E+03  0.00000000000E+00 0.  1.
          3    1    3    3  501    0 -0.23707867071E+03  0.22034409109E+02  0.19926111413E+02  0.23893275457E+03  0.00000000000E+00 0.  1.
         21    1    1    2  502  501  0.73947258446E+01  0.37609487697E+02  0.16812142623E+02  0.41854553811E+02  0.00000000000E+00 0. -1.
<scales pt_clust_4="550.00000" pt_clust_5="550.00000" pt_clust_6="38.32956"></scales>
<mgrwt>
<rscale>  0 0.30000000E+03</rscale>
<asrwt>  1 0.38329565E+02</asrwt>
<pdfrwt beam="1">  1        1 0.91196649E+00 0.30000000E+03</pdfrwt>
<pdfrwt beam="2">0</pdfrwt>
<totfact> 0.63158654E-05</totfact>
</mgrwt>
<clustering>
<clus scale="   38.330">  1  6  2 -1</clus>
<clus scale="  480.669">  4  5 -1 -1</clus>
<clus scale="  300.000">  1  4  2 -1</clus>
</clustering>
</event>
<event>
 6    1  0.1029244E-011  0.3000000E+03  0.7818608E-02  0.1093470E+00
          1   -1    0    0  502    0  0.00000000000E+00  0.00000000000E+00  0.25260686440E+03  0.25260686440E+03  0.00000000000E+00 0.  1.
         13   -1    0    0    0    0 -0.00000000000E+00 -0.00000000000E+00 -0.27500000000E+03  0.27500000000E+03  0.00000000000E+00 0.  1.
    9000005    2    1    2  501    0 -0.92755521848E+01 -0.33316210185E+02 -0.25457590150E+02  0.49288804225E+03  0.49101377534E+03 0.  0.
         13    1    3    3    0    0 -0.17855755582E+03  0.14883337011E+03 -0.64358634554E+02  0.24119744327E+03  0.00000000000E+00 0.  1.
          1    1    3    3  501    0  0.16928200364E+03 -0.18214958030E+03  0.38901044403E+02  0.25169059898E+03  0.00000000000E+00 0.  1.
         21    1    1    2  502  501  0.92755521848E+01  0.33316210185E+02  0.30644545475E+01  0.34718822144E+02  0.00000000000E+00 0.  1.
<scales pt_clust_4="550.00000" pt_clust_5="550.00000" pt_clust_6="34.58332"></scales>
<mgrwt>
<rscale>  0 0.30000000E+03</rscale>
<asrwt>  1 0.34583316E+02</asrwt>
<pdfrwt beam="1">  1        1 0.91857042E+00 0.30000000E+03</pdfrwt>
<pdfrwt beam="2">0</pdfrwt>
<totfact> 0.45029456E-05</totfact>
</mgrwt>
<clustering>
<clus scale="   34.583">  1  6  2 -1</clus>
<clus scale="  491.014">  4  5 -1 -1</clus>
<clus scale="  300.000">  1  4  2 -1</clus>
</clustering>
</event>
<event>
 6    1  0.1029244E-011  0.3000000E+03  0.7818608E-02  0.1093470E+00
          1   -1    0    0  502    0  0.00000000000E+00  0.00000000000E+00  0.22250925160E+03  0.22250925160E+03  0.00000000000E+00 0.  1.
         13   -1    0    0    0    0 -0.00000000000E+00 -0.00000000000E+00 -0.27500000000E+03  0.27500000000E+03  0.00000000000E+00 0.  1.
    9000005    2    1    2  501    0 -0.31941647206E+02  0.96530701368E+01 -0.54309126218E+02  0.46409133594E+03  0.45969319803E+03 0.  0.
         13    1    3    3    0    0 -0.18939479332E+03 -0.11253939897E+02 -0.18000943264E+03  0.26153476774E+03  0.00000000000E+00 0.  1.
          3    1    3    3  501    0  0.15745314611E+03  0.20907010034E+02  0.12570030642E+03  0.20255656820E+03  0.00000000000E+00 0.  1.
         21    1    1    2  502  501  0.31941647206E+02 -0.96530701368E+01  0.18183778220E+01  0.33417915662E+02  0.00000000000E+00 0. -1.
<scales pt_clust_4="550.00000" pt_clust_5="550.00000" pt_clust_6="33.36841"></scales>
<mgrwt>
<rscale>  0 0.30000000E+03</rscale>
<asrwt>  1 0.33368407E+02</asrwt>
<pdfrwt beam="1">  1        1 0.80912455E+00 0.30000000E+03</pdfrwt>
<pdfrwt beam="2">0</pdfrwt>
<totfact> 0.89390852E-04</totfact>
</mgrwt>
<clustering>
<clus scale="   33.368">  1  6  2 -1</clus>
<clus scale="  459.693">  4  5 -1 -1</clus>
<clus scale="  300.000">  1  4  2 -1</clus>
</clustering>
</event>
<event>
 6    1  0.1029244E-011  0.3000000E+03  0.7818608E-02  0.1093470E+00
          1   -1    0    0  502    0  0.00000000000E+00  0.00000000000E+00  0.22161237927E+03  0.22161237927E+03  0.00000000000E+00 0.  1.
         13   -1    0    0    0    0 -0.00000000000E+00 -0.00000000000E+00 -0.27500000000E+03  0.27500000000E+03  0.00000000000E+00 0.  1.
    9000005    2    1    2  501    0 -0.23220812343E+02  0.25930459523E+02 -0.56172160464E+02  0.46169320805E+03  0.45693950572E+03 0.  0.
         13    1    3    3    0    0  0.12416773253E+03 -0.72039550533E+01  0.15707750767E+03  0.20035684711E+03  0.00000000000E+00 0.  1.
          3    1    3    3  501    0 -0.14738854487E+03  0.33134414576E+02 -0.21324966813E+03  0.26133636094E+03  0.00000000000E+00 0.  1.
         21    1    1    2  502  501  0.23220812343E+02 -0.25930459523E+02  0.27845397298E+01  0.34919171216E+02  0.00000000000E+00 0.  1.
<scales pt_clust_4="550.00000" pt_clust_5="550.00000" pt_clust_6="34.80797"></scales>
<mgrwt>
<rscale>  0 0.30000000E+03</rscale>
<asrwt>  1 0.34807971E+02</asrwt>
<pdfrwt beam="1">  1        1 0.80586320E+00 0.30000000E+03</pdfrwt>
<pdfrwt beam="2">0</pdfrwt>
<totfact> 0.93960104E-04</totfact>
</mgrwt>
<clustering>
<clus scale="   34.808">  1  6  2 -1</clus>
<clus scale="  456.940">  4  5 -1 -1</clus>
<clus scale="  300.000">  1  4  2 -1</clus>
</clustering>
</event>
<event>
 6    1  0.1029244E-011  0.3000000E+03  0.7818608E-02  0.1093470E+00
          1   -1    0    0  502    0  0.00000000000E+00  0.00000000000E+00  0.24115004938E+03  0.24115004938E+03  0.00000000000E+00 0.  1.
         13   -1    0    0    0    0 -0.00000000000E+00 -0.00000000000E+00 -0.27500000000E+03  0.27500000000E+03  0.00000000000E+00 0.  1.
    9000005    2    1    2  501    0 -0.39253828494E+02 -0.72760509169E+01 -0.50647164740E+02  0.47283780665E+03  0.46841931229E+03 0.  0.
         13    1    3    3    0    0  0.17089684791E+03  0.38694831558E+01 -0.16133959172E+03  0.23505567294E+03  0.00000000000E+00 0.  1.
          1    1    3    3  501    0 -0.21015067640E+03 -0.11145534073E+02  0.11069242698E+03  0.23778213371E+03  0.00000000000E+00 0.  1.
         21    1    1    2  502  501  0.39253828494E+02  0.72760509169E+01  0.16797214118E+02  0.43312242733E+02  0.00000000000E+00 0.  1.
<scales pt_clust_4="550.00000" pt_clust_5="550.00000" pt_clust_6="39.92247"></scales>
<mgrwt>
<rscale>  0 0.30000000E+03</rscale>
<asrwt>  1 0.39922474E+02</asrwt>
<pdfrwt beam="1">  1        1 0.87690927E+00 0.30000000E+03</pdfrwt>
<pdfrwt beam="2">0</pdfrwt>
<totfact> 0.20933500E-04</totfact>
</mgrwt>
<clustering>
<clus scale="   39.922">  1  6  2 -1</clus>
<clus scale="  468.419">  4  5 -1 -1</clus>
<clus scale="  300.000">  1  4  2 -1</clus>
</clustering>
</event>
<event>
 6    1  0.1029244E-011  0.3000000E+03  0.7818608E-02  0.1093470E+00
          1   -1    0    0  502    0  0.00000000000E+00  0.00000000000E+00  0.22459104014E+03  0.22459104014E+03  0.00000000000E+00 0.  1.
         13   -1    0    0    0    0 -0.00000000000E+00 -0.00000000000E+00 -0.27500000000E+03  0.27500000000E+03  0.00000000000E+00 0.  1.
    9000005    2    1    2  501    0  0.20065556629E+00  0.36583308163E+02 -0.41636986295E+02  0.46197021852E+03  0.45863325814E+03 0.  0.
         13    1    3    3    0    0 -0.95950900011E+02 -0.16673694894E+03 -0.11653425102E+03  0.22491780058E+03  0.00000000000E+00 0.  1.
          1    1    3    3  501    0  0.96151555577E+02  0.20332025711E+03  0.74897264727E+02  0.23705241794E+03  0.00000000000E+00 0.  1.
         21    1    1    2  502  501 -0.20065556629E+00 -0.36583308163E+02 -0.87719735662E+01  0.37620821616E+02  0.00000000000E+00 0. -1.
<scales pt_clust_4="550.00000" pt_clust_5="550.00000" pt_clust_6="36.58388"></scales>
<mgrwt>
<rscale>  0 0.30000000E+03</rscale>
<asrwt>  1 0.36583877E+02</asrwt>
<pdfrwt beam="1">  1        1 0.81669469E+00 0.30000000E+03</pdfrwt>
<pdfrwt beam="2">0</pdfrwt>
<totfact> 0.76481064E-04</totfact>
</mgrwt>
<clustering>
<clus scale="   36.584">  1  6  2 -1</clus>
<clus scale="  458.633">  4  5 -1 -1</clus>
<clus scale="  300.000">  1  4  2 -1</clus>
</clustering>
</event>
<event>
 6    1  0.1029244E-011  0.3000000E+03  0.7818608E-02  0.1093470E+00
          1   -1    0    0  502    0  0.00000000000E+00  0.00000000000E+00  0.21965136444E+03  0.21965136444E+03  0.00000000000E+00 0.  1.
         13   -1    0    0    0    0 -0.00000000000E+00 -0.00000000000E+00 -0.27500000000E+03  0.27500000000E+03  0.00000000000E+00 0.  1.
    9000005    2    1    2  501    0 -0.28052134935E+02  0.11892899371E+02 -0.65344053566E+02  0.46258468842E+03  0.45693148862E+03 0.  0.
         13    1    3    3    0    0 -0.33409452323E+02 -0.17362782406E+03  0.10919167297E+03  0.20781153538E+03  0.00000000000E+00 0.  1.
          3    1    3    3  501    0  0.53573173871E+01  0.18552072343E+03 -0.17453572653E+03  0.25477315304E+03  0.00000000000E+00 0.  1.
         21    1    1    2  502  501  0.28052134935E+02 -0.11892899371E+02  0.99954180059E+01  0.32066676021E+02  0.00000000000E+00 0.  1.
<scales pt_clust_4="550.00000" pt_clust_5="550.00000" pt_clust_6="30.46906"></scales>
<mgrwt>
<rscale>  0 0.30000000E+03</rscale>
<asrwt>  1 0.30469055E+02</asrwt>
<pdfrwt beam="1">  1        1 0.79873223E+00 0.30000000E+03</pdfrwt>
<pdfrwt beam="2">0</pdfrwt>
<totfact> 0.10873539E-03</totfact>
</mgrwt>
<clustering>
<clus scale="   30.469">  1  6  2 -1</clus>
<clus scale="  456.931">  4  5 -1 -1</clus>
<clus scale="  300.000">  1  4  2 -1</clus>
</clustering>
</event>
<event>
 6    1  0.1029244E-011  0.3000000E+03  0.7818608E-02  0.1093470E+00
          1   -1    0    0  502    0  0.00000000000E+00  0.00000000000E+00  0.23103777135E+03  0.23103777135E+03  0.00000000000E+00 0.  1.
         13   -1    0    0    0    0 -0.00000000000E+00 -0.00000000000E+00 -0.27500000000E+03  0.27500000000E+03  0.00000000000E+00 0.  1.
    9000005    2    1    2  501    0  0.22234874475E+02 -0.29733016493E+02 -0.31592515285E+02  0.46690400433E+03  0.46435204352E+03 0.  0.
         13    1    3    3    0    0 -0.10553620452E+03  0.15336065368E+03  0.96302949619E+02  0.20959875636E+03  0.00000000000E+00 0.  1.
          3    1    3    3  501    0  0.12777107900E+03 -0.18309367018E+03 -0.12789546490E+03  0.25730524796E+03  0.00000000000E+00 0.  1.
         21    1    1    2  502  501 -0.22234874475E+02  0.29733016493E+02 -0.12369713365E+02  0.39133767023E+02  0.00000000000E+00 0.  1.
<scales pt_clust_4="550.00000" pt_clust_5="550.00000" pt_clust_6="37.12739"></scales>
<mgrwt>
<rscale>  0 0.30000000E+03</rscale>
<asrwt>  1 0.37127393E+02</asrwt>
<pdfrwt beam="1">  1        1 0.84013735E+00 0.30000000E+03</pdfrwt>
<pdfrwt beam="2">0</pdfrwt>
<totfact> 0.49042157E-04</totfact>
</mgrwt>
<clustering>
<clus scale="   37.127">  1  6  2 -1</clus>
<clus scale="  464.352">  4  5 -1 -1</clus>
<clus scale="  300.000">  1  4  2 -1</clus>
</clustering>
</event>
<event>
 6    1  0.1029244E-011  0.3000000E+03  0.7818608E-02  0.1093470E+00
          1   -1    0    0  502    0  0.00000000000E+00  0.00000000000E+00  0.22832285708E+03  0.22832285708E+03  0.00000000000E+00 0.  1.
         13   -1    0    0    0    0 -0.00000000000E+00 -0.00000000000E+00 -0.27500000000E+03  0.27500000000E+03  0.00000000000E+00 0.  1.
    9000005    2    1    2  501    0 -0.24105122486E+02 -0.32322198661E+02 -0.53562752131E+02  0.46241817433E+03  0.45753231370E+03 0.  0.
         13    1    3    3    0    0 -0.17095097384E+03 -0.17493643775E+03 -0.76880160253E+02  0.25639335356E+03  0.00000000000E+00 0.  1.
          1    1    3    3  501    0  0.14684585135E+03  0.14261423909E+03  0.23317408122E+02  0.20602482077E+03  0.00000000000E+00 0.  1.
         21    1    1    2  502  501  0.24105122486E+02  0.32322198661E+02  0.68856092099E+01  0.40904682746E+02  0.00000000000E+00 0.  1.
<scales pt_clust_4="550.00000" pt_clust_5="550.00000" pt_clust_6="40.32098"></scales>
<mgrwt>
<rscale>  0 0.30000000E+03</rscale>
<asrwt>  1 0.40320980E+02</asrwt>
<pdfrwt beam="1">  1        1 0.83026493E+00 0.30000000E+03</pdfrwt>
<pdfrwt beam="2">0</pdfrwt>
<totfact> 0.57289157E-04</totfact>
</mgrwt>
<clustering>
<clus scale="   40.321">  1  6  2 -1</clus>
<clus scale="  457.532">  4  5 -1 -1</clus>
<clus scale="  300.000">  1  4  2 -1</clus>
</clustering>
</event>
<event>
 6    1  0.1029244E-011  0.3000000E+03  0.7818608E-02  0.1093470E+00
          1   -1    0    0  502    0  0.00000000000E+00  0.00000000000E+00  0.23868536041E+03  0.23868536041E+03  0.00000000000E+00 0.  1.
         13   -1    0    0    0    0 -0.00000000000E+00 -0.00000000000E+00 -0.27500000000E+03  0.27500000000E+03  0.00000000000E+00 0.  1.
    9000005    2    1    2  501    0 -0.37598229901E+02 -0.24039252932E+02 -0.35960050663E+02  0.46905758536E+03  0.46554310280E+03 0.  0.
         13    1    3    3    0    0 -0.13040135781E+03 -0.12537928471E+03 -0.19019730396E+03  0.26248713032E+03  0.00000000000E+00 0.  1.
          1    1    3    3  501    0  0.92803127912E+02  0.10134003177E+03  0.15423725329E+03  0.20657045504E+03  0.00000000000E+00 0.  1.
         21    1    1    2  502  501  0.37598229901E+02  0.24039252932E+02 -0.35458892179E+00  0.44627775057E+02  0.00000000000E+00 0.  1.
<scales pt_clust_4="550.00000" pt_clust_5="550.00000" pt_clust_6="44.62637"></scales>
<mgrwt>
<rscale>  0 0.30000000E+03</rscale>
<asrwt>  1 0.44626366E+02</asrwt>
<pdfrwt beam="1">  1        1 0.86794677E+00 0.30000000E+03</pdfrwt>
<pdfrwt beam="2">0</pdfrwt>
<totfact> 0.25432848E-04</totfact>
</mgrwt>
<clustering>
<clus scale="   44.626">  1  6  2 -1</clus>
<clus scale="  465.543">  4  5 -1 -1</clus>
<clus scale="  300.000">  1  4  2 -1</clus>
</clustering>
</event>
<event>
 6    1  0.1029244E-011  0.3000000E+03  0.7818608E-02  0.1093470E+00
          1   -1    0    0  502    0  0.00000000000E+00  0.00000000000E+00  0.24144208709E+03  0.24144208709E+03  0.00000000000E+00 0.  1.
         13   -1    0    0    0    0 -0.00000000000E+00 -0.00000000000E+00 -0.27500000000E+03  0.27500000000E+03  0.00000000000E+00 0.  1.
    9000005    2    1    2  501    0  0.17608597932E+02 -0.30398181490E+02 -0.42989483510E+02  0.48006810349E+03  0.47684712030E+03 0.  0.
         13    1    3    3    0    0  0.37644952796E+01  0.16212981410E+03  0.13988631796E+03  0.21416916211E+03  0.00000000000E+00 0.  1.
          1    1    3    3  501    0  0.13844102653E+02 -0.19252799559E+03 -0.18287580147E+03  0.26589894138E+03  0.00000000000E+00 0.  1.
         21    1    1    2  502  501 -0.17608597932E+02  0.30398181490E+02  0.94315705990E+01  0.36373983601E+02  0.00000000000E+00 0. -1.
<scales pt_clust_4="550.00000" pt_clust_5="550.00000" pt_clust_6="35.12993"></scales>
<mgrwt>
<rscale>  0 0.30000000E+03</rscale>
<asrwt>  1 0.35129933E+02</asrwt>
<pdfrwt beam="1">  1        1 0.87797123E+00 0.30000000E+03</pdfrwt>
<pdfrwt beam="2">0</pdfrwt>
<totfact> 0.20851537E-04</totfact>
</mgrwt>
<clustering>
<clus scale="   35.130">  1  6  2 -1</clus>
<clus scale="  476.847">  4  5 -1 -1</clus>
<clus scale="  300.000">  1  4  2 -1</clus>
</clustering>
</event>
<event>
 6    1  0.1029244E-011  0.3000000E+03  0.7818608E-02  0.1093470E+00
          1   -1    0    0  502    0  0.00000000000E+00  0.00000000000E+00  0.25426390846E+03  0.25426390846E+03  0.00000000000E+00 0.  1.
         13   -1    0    0    0    0 -0.00000000000E+00 -0.00000000000E+00 -0.27500000000E+03  0.27500000000E+03  0.00000000000E+00 0.  1.
    9000005    2    1    2  501    0  0.17234581078E+02 -0.34852498189E+02 -0.35375091909E+02  0.48771841837E+03  0.48487743923E+03 0.  0.
         13    1    3    3    0    0  0.42741918735E+02 -0.14735164543E+03 -0.22108035260E+03  0.26910202774E+03  0.00000000000E+00 0.  1.
          3    1    3    3  501    0 -0.25507337657E+02  0.11249914724E+03  0.18570526069E+03  0.21861639063E+03  0.00000000000E+00 0.  1.
         21    1    1    2  502  501 -0.17234581078E+02  0.34852498189E+02  0.14639000365E+02  0.41545490088E+02  0.00000000000E+00 0.  1.
<scales pt_clust_4="550.00000" pt_clust_5="550.00000" pt_clust_6="38.88094"></scales>
<mgrwt>
<rscale>  0 0.30000000E+03</rscale>
<asrwt>  1 0.38880939E+02</asrwt>
<pdfrwt beam="1">  1        1 0.92459603E+00 0.30000000E+03</pdfrwt>
<pdfrwt beam="2">0</pdfrwt>
<totfact> 0.32785282E-05</totfact>
</mgrwt>
<clustering>
<clus scale="   38.881">  1  6  2 -1</clus>
<clus scale="  484.877">  4  5 -1 -1</clus>
<clus scale="  300.000">  1  4  2 -1</clus>
</clustering>
</event>
<event>
 6    1  0.1029244E-011  0.3000000E+03  0.7818608E-02  0.1093470E+00
          1   -1    0    0  502    0  0.00000000000E+00  0.00000000000E+00  0.25190896685E+03  0.25190896685E+03  0.00000000000E+00 0.  1.
         13   -1    0    0    0    0 -0.00000000000E+00 -0.00000000000E+00 -0.27500000000E+03  0.27500000000E+03  0.00000000000E+00 0.  1.
    9000005    2    1    2  501    0 -0.11225573906E+02  0.31928565089E+02 -0.37771249433E+02  0.49001783610E+03  0.48738625917E+03 0.  0.
         13    1    3    3    0    0 -0.62414525198E+01  0.55689566498E+02  0.22207685707E+03  0.22903801866E+03  0.00000000000E+00 0.  1.
          1    1    3    3  501    0 -0.49841213866E+01 -0.23761001409E+02 -0.25984810650E+03  0.26097981743E+03  0.00000000000E+00 0.  1.
         21    1    1    2  502  501  0.11225573906E+02 -0.31928565089E+02  0.14680216283E+02  0.36891130754E+02  0.00000000000E+00 0. -1.
<scales pt_clust_4="550.00000" pt_clust_5="550.00000" pt_clust_6="33.84445"></scales>
<mgrwt>
<rscale>  0 0.30000000E+03</rscale>
<asrwt>  1 0.33844450E+02</asrwt>
<pdfrwt beam="1">  1        1 0.91603261E+00 0.30000000E+03</pdfrwt>
<pdfrwt beam="2">0</pdfrwt>
<totfact> 0.51578490E-05</totfact>
</mgrwt>
<clustering>
<clus scale="   33.844">  1  6  2 -1</clus>
<clus scale="  487.386">  4  5 -1 -1</clus>
<clus scale="  300.000">  1  4  2 -1</clus>
</clustering>
</event>
<event>
 6    1  0.1029244E-011  0.3000000E+03  0.7818608E-02  0.1093470E+00
          1   -1    0    0  502    0  0.00000000000E+00  0.00000000000E+00  0.23038246898E+03  0.23038246898E+03  0.00000000000E+00 0.  1.
         13   -1    0    0    0    0 -0.00000000000E+00 -0.00000000000E+00 -0.27500000000E+03  0.27500000000E+03  0.00000000000E+00 0.  1.
    9000005    2    1    2  501    0  0.13235466566E+01  0.39117188945E+02 -0.53847427937E+02  0.46516932133E+03  0.46038141336E+03 0.  0.
         13    1    3    3    0    0  0.18656243046E+03 -0.10923982018E+03 -0.70141269668E+02  0.22728545154E+03  0.00000000000E+00 0.  1.
          3    1    3    3  501    0 -0.18523888380E+03  0.14835700912E+03  0.16293841731E+02  0.23788386979E+03  0.00000000000E+00 0.  1.
         21    1    1    2  502  501 -0.13235466566E+01 -0.39117188945E+02  0.92298969195E+01  0.40213147649E+02  0.00000000000E+00 0. -1.
<scales pt_clust_4="550.00000" pt_clust_5="550.00000" pt_clust_6="39.13957"></scales>
<mgrwt>
<rscale>  0 0.30000000E+03</rscale>
<asrwt>  1 0.39139574E+02</asrwt>
<pdfrwt beam="1">  1        1 0.83775443E+00 0.30000000E+03</pdfrwt>
<pdfrwt beam="2">0</pdfrwt>
<totfact> 0.50602512E-04</totfact>
</mgrwt>
<clustering>
<clus scale="   39.140">  1  6  2 -1</clus>
<clus scale="  460.381">  4  5 -1 -1</clus>
<clus scale="  300.000">  1  4  2 -1</clus>
</clustering>
</event>
<event>
 6    1  0.1029244E-011  0.3000000E+03  0.7818608E-02  0.1093470E+00
          1   -1    0    0  502    0  0.00000000000E+00  0.00000000000E+00  0.22090656150E+03  0.22090656150E+03  0.00000000000E+00 0.  1.
         13   -1    0    0    0    0 -0.00000000000E+00 -0.00000000000E+00 -0.27500000000E+03  0.27500000000E+03  0.00000000000E+00 0.  1.
    9000005    2    1    2  501    0  0.12922414534E+01  0.30129227297E+02 -0.68156817014E+02  0.46263166344E+03  0.45658872532E+03 0.  0.
         13    1    3    3    0    0 -0.23734044233E+02  0.14703291306E+03  0.15156263207E+03  0.21249285592E+03  0.00000000000E+00 0.  1.
          3    1    3    3  501    0  0.25026285687E+02 -0.11690368576E+03 -0.21971944909E+03  0.25013880752E+03  0.00000000000E+00 0.  1.
         21    1    1    2  502  501 -0.12922414534E+01 -0.30129227297E+02  0.14063378509E+02  0.33274898056E+02  0.00000000000E+00 0.  1.
<scales pt_clust_4="550.00000" pt_clust_5="550.00000" pt_clust_6="30.15693"></scales>
<mgrwt>
<rscale>  0 0.30000000E+03</rscale>
<asrwt>  1 0.30156927E+02</asrwt>
<pdfrwt beam="1">  1        1 0.80329659E+00 0.30000000E+03</pdfrwt>
<pdfrwt beam="2">0</pdfrwt>
<totfact> 0.10093783E-03</totfact>
</mgrwt>
<clustering>
<clus scale="   30.157">  1  6  2 -1</clus>
<clus scale="  456.589">  4  5 -1 -1</clus>
<clus scale="  300.000">  1  4  2 -1</clus>
</clustering>
</event>
<event>
 6    1  0.1029244E-011  0.3000000E+03  0.7818608E-02  0.1093470E+00
          1   -1    0    0  502    0  0.00000000000E+00  0.00000000000E+00  0.22636723075E+03  0.22636723075E+03  0.00000000000E+00 0.  1.
         13   -1    0    0    0    0 -0.00000000000E+00 -0.00000000000E+00 -0.27500000000E+03  0.27500000000E+03  0.00000000000E+00 0.  1.
    9000005    2    1    2  501    0  0.95011494853E+01  0.32734300131E+02 -0.29412290825E+02  0.46223625789E+03  0.46003855166E+03 0.  0.
         13    1    3    3    0    0  0.23122966747E+03  0.23642358142E+02 -0.54992267789E+02  0.23885198289E+03  0.00000000000E+00 0.  1.
          1    1    3    3  501    0 -0.22172851798E+03  0.90919419893E+01  0.25579976965E+02  0.22338427500E+03  0.00000000000E+00 0.  1.
         21    1    1    2  502  501 -0.95011494853E+01 -0.32734300131E+02 -0.19220478421E+02  0.39130972865E+02  0.00000000000E+00 0.  1.
<scales pt_clust_4="550.00000" pt_clust_5="550.00000" pt_clust_6="34.08530"></scales>
<mgrwt>
<rscale>  0 0.30000000E+03</rscale>
<asrwt>  1 0.34085296E+02</asrwt>
<pdfrwt beam="1">  1        1 0.82315357E+00 0.30000000E+03</pdfrwt>
<pdfrwt beam="2">0</pdfrwt>
<totfact> 0.68183161E-04</totfact>
</mgrwt>
<clustering>
<clus scale="   34.085">  1  6  2 -1</clus>
<clus scale="  460.039">  4  5 -1 -1</clus>
<clus scale="  300.000">  1  4  2 -1</clus>
</clustering>
</event>
<event>
 6    1  0.1029244E-011  0.3000000E+03  0.7818608E-02  0.1093470E+00
          1   -1    0    0  502    0  0.00000000000E+00  0.00000000000E+00  0.23755032533E+03  0.23755032533E+03  0.00000000000E+00 0.  1.
         13   -1    0    0    0    0 -0.00000000000E+00 -0.00000000000E+00 -0.27500000000E+03  0.27500000000E+03  0.00000000000E+00 0.  1.
    9000005    2    1    2  501    0 -0.32447177087E+02 -0.26718198741E+01 -0.46258449090E+02  0.47882270417E+03  0.47546964151E+03 0.  0.
         13    1    3    3    0    0 -0.15462192147E+03 -0.13671911498E+03 -0.16311066880E+03  0.26306870828E+03  0.00000000000E+00 0.  1.
          1    1    3    3  501    0  0.12217474438E+03  0.13404729511E+03  0.11685221971E+03  0.21575399589E+03  0.00000000000E+00 0.  1.
         21    1    1    2  502  501  0.32447177087E+02  0.26718198741E+01  0.88087744193E+01  0.33727621160E+02  0.00000000000E+00 0. -1.
<scales pt_clust_4="550.00000" pt_clust_5="550.00000" pt_clust_6="32.55699"></scales>
<mgrwt>
<rscale>  0 0.30000000E+03</rscale>
<asrwt>  1 0.32556995E+02</asrwt>
<pdfrwt beam="1">  1        1 0.86381936E+00 0.30000000E+03</pdfrwt>
<pdfrwt beam="2">0</pdfrwt>
<totfact> 0.29824322E-04</totfact>
</mgrwt>
<clustering>
<clus scale="   32.557">  1  6  2 -1</clus>
<clus scale="  475.470">  4  5 -1 -1</clus>
<clus scale="  300.000">  1  4  2 -1</clus>
</clustering>
</event>
<event>
 6    1  0.1029244E-011  0.3000000E+03  0.7818608E-02  0.1093470E+00
          1   -1    0    0  502    0  0.00000000000E+00  0.00000000000E+00  0.24344089993E+03  0.24344089993E+03  0.00000000000E+00 0.  1.
         13   -1    0    0    0    0 -0.00000000000E+00 -0.00000000000E+00 -0.27500000000E+03  0.27500000000E+03  0.00000000000E+00 0.  1.
    9000005    2    1    2  501    0 -0.28341541263E+02 -0.16812015099E+02 -0.51778110589E+02  0.47977961181E+03  0.47583780468E+03 0.  0.
         13    1    3    3    0    0  0.62000569599E+02  0.21725658675E+03 -0.18543322851E+02  0.22668998641E+03  0.00000000000E+00 0.  1.
          3    1    3    3  501    0 -0.90342110862E+02 -0.23406860185E+03 -0.33234787738E+02  0.25308962540E+03  0.00000000000E+00 0.  1.
         21    1    1    2  502  501  0.28341541263E+02  0.16812015099E+02  0.20219010520E+02  0.38661288122E+02  0.00000000000E+00 0.  1.
<scales pt_clust_4="550.00000" pt_clust_5="550.00000" pt_clust_6="32.95280"></scales>
<mgrwt>
<rscale>  0 0.30000000E+03</rscale>
<asrwt>  1 0.32952797E+02</asrwt>
<pdfrwt beam="1">  1        1 0.88523964E+00 0.30000000E+03</pdfrwt>
<pdfrwt beam="2">0</pdfrwt>
<totfact> 0.17034865E-04</totfact>
</mgrwt>
<clustering>
<clus scale="   32.953">  1  6  2 -1</clus>
<clus scale="  475.838">  4  5 -1 -1</clus>
<clus scale="  300.000">  1  4  2 -1</clus>
</clustering>
</event>
<event>
 6    1  0.1029244E-011  0.3000000E+03  0.7818608E-02  0.1093470E+00
          1   -1    0    0  502    0  0.00000000000E+00  0.00000000000E+00  0.23990915290E+03  0.23990915290E+03  0.00000000000E+00 0.  1.
         13   -1    0    0    0    0 -0.00000000000E+00 -0.00000000000E+00 -0.27500000000E+03  0.27500000000E+03  0.00000000000E+00 0.  1.
    9000005    2    1    2  501    0  0.17245977603E+02  0.24971262353E+02 -0.66106696867E+02  0.47151594348E+03  0.46587144353E+03 0.  0.
         13    1    3    3    0    0 -0.20342003183E+03  0.71306554000E+02 -0.10969652858E+03  0.24186289996E+03  0.00000000000E+00 0.  1.
          3    1    3    3  501    0  0.22066600943E+03 -0.46335291647E+02  0.43589831717E+02  0.22965304352E+03  0.00000000000E+00 0.  1.
         21    1    1    2  502  501 -0.17245977603E+02 -0.24971262353E+02  0.31015849770E+02  0.43393209422E+02  0.00000000000E+00 0. -1.
<scales pt_clust_4="550.00000" pt_clust_5="550.00000" pt_clust_6="30.34778"></scales>
<mgrwt>
<rscale>  0 0.30000000E+03</rscale>
<asrwt>  1 0.30347779E+02</asrwt>
<pdfrwt beam="1">  1        1 0.87239692E+00 0.30000000E+03</pdfrwt>
<pdfrwt beam="2">0</pdfrwt>
<totfact> 0.24592845E-04</totfact>
</mgrwt>
<clustering>
<clus scale="   30.348">  1  6  2 -1</clus>
<clus scale="  465.871">  4  5 -1 -1</clus>
<clus scale="  300.000">  1  4  2 -1</clus>
</clustering>
</event>
<event>
 6    1  0.1029244E-011  0.3000000E+03  0.7818608E-02  0.1093470E+00
          1   -1    0    0  502    0  0.00000000000E+00  0.00000000000E+00  0.24046483476E+03  0.24046483476E+03  0.00000000000E+00 0.  1.
         13   -1    0    0    0    0 -0.00000000000E+00 -0.00000000000E+00 -0.27500000000E+03  0.27500000000E+03  0.00000000000E+00 0.  1.
    9000005    2    1    2  501    0 -0.23790075812E+02 -0.21894731726E+02 -0.62901583977E+02  0.47245320033E+03  0.46712960755E+03 0.  0.
         13    1    3    3    0    0 -0.20069036966E+03  0.84938718004E+02  0.67444961288E+02  0.22812284649E+03  0.00000000000E+00 0.  1.
          3    1    3    3  501    0  0.17690029384E+03 -0.10683344973E+03 -0.13034654527E+03  0.24433035384E+03  0.00000000000E+00 0.  1.
         21    1    1    2  502  501  0.23790075812E+02  0.21894731726E+02  0.28366418736E+02  0.43011634431E+02  0.00000000000E+00 0.  1.
<scales pt_clust_4="550.00000" pt_clust_5="550.00000" pt_clust_6="32.33183"></scales>
<mgrwt>
<rscale>  0 0.30000000E+03</rscale>
<asrwt>  1 0.32331826E+02</asrwt>
<pdfrwt beam="1">  1        1 0.87441758E+00 0.30000000E+03</pdfrwt>
<pdfrwt beam="2">0</pdfrwt>
<totfact> 0.23155814E-04</totfact>
</mgrwt>
<clustering>
<clus scale="   32.332">  1  6  2 -1</clus>
<clus scale="  467.130">  4  5 -1 -1</clus>
<clus scale="  300.000">  1  4  2 -1</clus>
</clustering>
</event>
<event>
 6    1  0.1029244E-011  0.3000000E+03  0.7818608E-02  0.1093470E+00
          1   -1    0    0  502    0  0.00000000000E+00  0.00000000000E+00  0.23308877253E+03  0.23308877253E+03  0.00000000000E+00 0.  1.
         13   -1    0    0    0    0 -0.00000000000E+00 -0.00000000000E+00 -0.27500000000E+03  0.27500000000E+03  0.00000000000E+00 0.  1.
    9000005    2    1    2  501    0  0.33627936054E+02  0.21514611477E+02 -0.64088618004E+02  0.46242091467E+03  0.45621489978E+03 0.  0.
         13    1    3    3    0    0 -0.10382338138E+03  0.19221394917E+03 -0.10013283607E+03  0.24031662788E+03  0.00000000000E+00 0.  1.
          3    1    3    3  501    0  0.13745131743E+03 -0.17069933770E+03  0.36044218066E+02  0.22210428679E+03  0.00000000000E+00 0.  1.
         21    1    1    2  502  501 -0.33627936054E+02 -0.21514611477E+02  0.22177390535E+02  0.45667857856E+02  0.00000000000E+00 0.  1.
<scales pt_clust_4="550.00000" pt_clust_5="550.00000" pt_clust_6="39.92138"></scales>
<mgrwt>
<rscale>  0 0.30000000E+03</rscale>
<asrwt>  1 0.39921380E+02</asrwt>
<pdfrwt beam="1">  1        1 0.84759554E+00 0.30000000E+03</pdfrwt>
<pdfrwt beam="2">0</pdfrwt>
<totfact> 0.41807289E-04</totfact>
</mgrwt>
<clustering>
<clus scale="   39.921">  1  6  2 -1</clus>
<clus scale="  456.215">  4  5 -1 -1</clus>
<clus scale="  300.000">  1  4  2 -1</clus>
</clustering>
</event>
<event>
 6    1  0.1029244E-011  0.3000000E+03  0.7818608E-02  0.1093470E+00
          1   -1    0    0  502    0  0.00000000000E+00  0.00000000000E+00  0.24067599729E+03  0.24067599729E+03  0.00000000000E+00 0.  1.
         13   -1    0    0    0    0 -0.00000000000E+00 -0.00000000000E+00 -0.27500000000E+03  0.27500000000E+03  0.00000000000E+00 0.  1.
    9000005    2    1    2  501    0  0.16097086657E+02 -0.29625091496E+02 -0.13557291590E+02  0.47607778350E+03  0.47468883865E+03 0.  0.
         13    1    3    3    0    0  0.66855670835E+02 -0.24531955242E+03 -0.44910143521E+01  0.25430598249E+03  0.00000000000E+00 0.  1.
          3    1    3    3  501    0 -0.50758584178E+02  0.21569446092E+03 -0.90662772381E+01  0.22177180101E+03  0.00000000000E+00 0.  1.
         21    1    1    2  502  501 -0.16097086657E+02  0.29625091496E+02 -0.20766711116E+02  0.39598213793E+02  0.00000000000E+00 0. -1.
<scales pt_clust_4="550.00000" pt_clust_5="550.00000" pt_clust_6="33.71592"></scales>
<mgrwt>
<rscale>  0 0.30000000E+03</rscale>
<asrwt>  1 0.33715922E+02</asrwt>
<pdfrwt beam="1">  1        1 0.87518544E+00 0.30000000E+03</pdfrwt>
<pdfrwt beam="2">0</pdfrwt>
<totfact> 0.22548783E-04</totfact>
</mgrwt>
<clustering>
<clus scale="   33.716">  1  6  2 -1</clus>
<clus scale="  474.689">  4  5 -1 -1</clus>
<clus scale="  300.000">  1  4  2 -1</clus>
</clustering>
</event>
<event>
 6    1  0.1029244E-011  0.3000000E+03  0.7818608E-02  0.1093470E+00
          1   -1    0    0  502    0  0.00000000000E+00  0.00000000000E+00  0.23772309295E+03  0.23772309295E+03  0.00000000000E+00 0.  1.
         13   -1    0    0    0    0 -0.00000000000E+00 -0.00000000000E+00 -0.27500000000E+03  0.27500000000E+03  0.00000000000E+00 0.  1.
    9000005    2    1    2  501    0 -0.35266461783E+02 -0.68703798199E+01 -0.36963586921E+02  0.47679227588E+03  0.47399751280E+03 0.  0.
         13    1    3    3    0    0 -0.10268947582E+03  0.17988305664E+03 -0.14300183996E+03  0.25169936182E+03  0.00000000000E+00 0.  1.
          1    1    3    3  501    0  0.67423014036E+02 -0.18675343646E+03  0.10603825304E+03  0.22509291406E+03  0.00000000000E+00 0.  1.
         21    1    1    2  502  501  0.35266461783E+02  0.68703798199E+01 -0.31332013146E+00  0.35930817067E+02  0.00000000000E+00 0.  1.
<scales pt_clust_4="550.00000" pt_clust_5="550.00000" pt_clust_6="35.92945"></scales>
<mgrwt>
<rscale>  0 0.30000000E+03</rscale>
<asrwt>  1 0.35929451E+02</asrwt>
<pdfrwt beam="1">  1        1 0.86444761E+00 0.30000000E+03</pdfrwt>
<pdfrwt beam="2">0</pdfrwt>
<totfact> 0.28823204E-04</totfact>
</mgrwt>
<clustering>
<clus scale="   35.929">  1  6  2 -1</clus>
<clus scale="  473.998">  4  5 -1 -1</clus>
<clus scale="  300.000">  1  4  2 -1</clus>
</clustering>
</event>
<event>
 6    1  0.1029244E-011  0.3000000E+03  0.7818608E-02  0.1093470E+00
          1   -1    0    0  502    0  0.00000000000E+00  0.00000000000E+00  0.22165343216E+03  0.22165343216E+03  0.00000000000E+00 0.  1.
         13   -1    0    0    0    0 -0.00000000000E+00 -0.00000000000E+00 -0.27500000000E+03  0.27500000000E+03  0.00000000000E+00 0.  1.
    9000005    2    1    2  501    0  0.26979564151E+02  0.17844858684E+02 -0.60148296780E+02  0.46359894109E+03  0.45854097386E+03 0.  0.
         13    1    3    3    0    0  0.60821632070E+02 -0.49045942625E+02 -0.24870368517E+03  0.26068812484E+03  0.00000000000E+00 0.  1.
          3    1    3    3  501    0 -0.33842067919E+02  0.66890801309E+02  0.18855538839E+03  0.20291081625E+03  0.00000000000E+00 0.  1.
         21    1    1    2  502  501 -0.26979564151E+02 -0.17844858684E+02  0.68017289401E+01  0.33054491069E+02  0.00000000000E+00 0.  1.
<scales pt_clust_4="550.00000" pt_clust_5="550.00000" pt_clust_6="32.34712"></scales>
<mgrwt>
<rscale>  0 0.30000000E+03</rscale>
<asrwt>  1 0.32347115E+02</asrwt>
<pdfrwt beam="1">  1        1 0.80601248E+00 0.30000000E+03</pdfrwt>
<pdfrwt beam="2">0</pdfrwt>
<totfact> 0.95017724E-04</totfact>
</mgrwt>
<clustering>
<clus scale="   32.347">  1  6  2 -1</clus>
<clus scale="  458.541">  4  5 -1 -1</clus>
<clus scale="  300.000">  1  4  2 -1</clus>
</clustering>
</event>
<event>
 6    1  0.1029244E-011  0.3000000E+03  0.7818608E-02  0.1093470E+00
          1   -1    0    0  502    0  0.00000000000E+00  0.00000000000E+00  0.23453868423E+03  0.23453868423E+03  0.00000000000E+00 0.  1.
         13   -1    0    0    0    0 -0.00000000000E+00 -0.00000000000E+00 -0.27500000000E+03  0.27500000000E+03  0.00000000000E+00 0.  1.
    9000005    2    1    2  501    0 -0.24314891715E+02 -0.28719135037E+02 -0.35768912115E+02  0.47161743256E+03  0.46875109060E+03 0.  0.
         13    1    3    3    0    0  0.15640106427E+03  0.48886335038E+02 -0.16795519220E+03  0.23464891486E+03  0.00000000000E+00 0.  1.
          3    1    3    3  501    0 -0.18071595599E+03 -0.77605470075E+02  0.13218628009E+03  0.23696851769E+03  0.00000000000E+00 0.  1.
         21    1    1    2  502  501  0.24314891715E+02  0.28719135037E+02 -0.46924036531E+01  0.37921251673E+02  0.00000000000E+00 0.  1.
<scales pt_clust_4="550.00000" pt_clust_5="550.00000" pt_clust_6="37.62983"></scales>
<mgrwt>
<rscale>  0 0.30000000E+03</rscale>
<asrwt>  1 0.37629830E+02</asrwt>
<pdfrwt beam="1">  1        1 0.85286794E+00 0.30000000E+03</pdfrwt>
<pdfrwt beam="2">0</pdfrwt>
<totfact> 0.37707585E-04</totfact>
</mgrwt>
<clustering>
<clus scale="   37.630">  1  6  2 -1</clus>
<clus scale="  468.751">  4  5 -1 -1</clus>
<clus scale="  300.000">  1  4  2 -1</clus>
</clustering>
</event>
<event>
 6    1  0.1029244E-011  0.3000000E+03  0.7818608E-02  0.1093470E+00
          1   -1    0    0  502    0  0.00000000000E+00  0.00000000000E+00  0.23254746812E+03  0.23254746812E+03  0.00000000000E+00 0.  1.
         13   -1    0    0    0    0 -0.00000000000E+00 -0.00000000000E+00 -0.27500000000E+03  0.27500000000E+03  0.00000000000E+00 0.  1.
    9000005    2    1    2  501    0  0.33879262647E+02  0.14190051430E+01 -0.45976435647E+02  0.47345588689E+03  0.46999662358E+03 0.  0.
         13    1    3    3    0    0  0.11335930270E+03  0.20878105128E+03 -0.75845179663E+02  0.24938394127E+03  0.00000000000E+00 0.  1.
          3    1    3    3  501    0 -0.79480040052E+02 -0.20736204614E+03  0.29868744017E+02  0.22407194562E+03  0.00000000000E+00 0.  1.
         21    1    1    2  502  501 -0.33879262647E+02 -0.14190051430E+01  0.35239037646E+01  0.34091581231E+02  0.00000000000E+00 0. -1.
<scales pt_clust_4="550.00000" pt_clust_5="550.00000" pt_clust_6="33.90897"></scales>
<mgrwt>
<rscale>  0 0.30000000E+03</rscale>
<asrwt>  1 0.33908967E+02</asrwt>
<pdfrwt beam="1">  1        1 0.84562716E+00 0.30000000E+03</pdfrwt>
<pdfrwt beam="2">0</pdfrwt>
<totfact> 0.44878737E-04</totfact>
</mgrwt>
<clustering>
<clus scale="   33.909">  1  6  2 -1</clus>
<clus scale="  469.997">  4  5 -1 -1</clus>
<clus scale="  300.000">  1  4  2 -1</clus>
</clustering>
</event>
<event>
 6    1  0.1029244E-011  0.3000000E+03  0.7818608E-02  0.1093470E+00
          1   -1    0    0  502    0  0.00000000000E+00  0.00000000000E+00  0.23288575299E+03  0.23288575299E+03  0.00000000000E+00 0.  1.
         13   -1    0    0    0    0 -0.00000000000E+00 -0.00000000000E+00 -0.27500000000E+03  0.27500000000E+03  0.00000000000E+00 0.  1.
    9000005    2    1    2  501    0 -0.21084775278E+01 -0.30812523232E+02 -0.58032574398E+02  0.47314024375E+03  0.46855101462E+03 0.  0.
         13    1    3    3    0    0  0.17165958646E+03  0.13744026426E+03  0.15182580861E+02  0.22042538562E+03  0.00000000000E+00 0.  1.
          3    1    3    3  501    0 -0.17376806399E+03 -0.16825278749E+03 -0.73215155258E+02  0.25271485813E+03  0.00000000000E+00 0.  1.
         21    1    1    2  502  501  0.21084775278E+01  0.30812523232E+02  0.15918327384E+02  0.34745509237E+02  0.00000000000E+00 0. -1.
<scales pt_clust_4="550.00000" pt_clust_5="550.00000" pt_clust_6="30.88458"></scales>
<mgrwt>
<rscale>  0 0.30000000E+03</rscale>
<asrwt>  1 0.30884580E+02</asrwt>
<pdfrwt beam="1">  1        1 0.84685728E+00 0.30000000E+03</pdfrwt>
<pdfrwt beam="2">0</pdfrwt>
<totfact> 0.44542305E-04</totfact>
</mgrwt>
<clustering>
<clus scale="   30.885">  1  6  2 -1</clus>
<clus scale="  468.551">  4  5 -1 -1</clus>
<clus scale="  300.000">  1  4  2 -1</clus>
</clustering>
</event>
<event>
 6    1  0.1029244E-011  0.3000000E+03  0.7818608E-02  0.1093470E+00
          1   -1    0    0  502    0  0.00000000000E+00  0.00000000000E+00  0.22220795404E+03  0.22220795404E+03  0.00000000000E+00 0.  1.
         13   -1    0    0    0    0 -0.00000000000E+00 -0.00000000000E+00 -0.27500000000E+03  0.27500000000E+03  0.00000000000E+00 0.  1.
    9000005    2    1    2  501    0 -0.24851764726E+02  0.16882296746E+02 -0.50919962392E+02  0.46710601307E+03  0.46334928803E+03 0.  0.
         13    1    3    3    0    0 -0.38464142783E+01 -0.43089994155E+02  0.20186909140E+03  0.20645259156E+03  0.00000000000E+00 0.  1.
          3    1    3    3  501    0 -0.21005350447E+02  0.59972290901E+02 -0.25278905380E+03  0.26065342151E+03  0.00000000000E+00 0.  1.
         21    1    1    2  502  501  0.24851764726E+02 -0.16882296746E+02 -0.18720835657E+01  0.30101940972E+02  0.00000000000E+00 0. -1.
<scales pt_clust_4="550.00000" pt_clust_5="550.00000" pt_clust_6="30.04367"></scales>
<mgrwt>
<rscale>  0 0.30000000E+03</rscale>
<asrwt>  1 0.30043671E+02</asrwt>
<pdfrwt beam="1">  1        1 0.80802892E+00 0.30000000E+03</pdfrwt>
<pdfrwt beam="2">0</pdfrwt>
<totfact> 0.92994628E-04</totfact>
</mgrwt>
<clustering>
<clus scale="   30.044">  1  6  2 -1</clus>
<clus scale="  463.349">  4  5 -1 -1</clus>
<clus scale="  300.000">  1  4  2 -1</clus>
</clustering>
</event>
<event>
 6    1  0.1029244E-011  0.3000000E+03  0.7818608E-02  0.1093470E+00
          1   -1    0    0  502    0  0.00000000000E+00  0.00000000000E+00  0.22629480240E+03  0.22629480240E+03  0.00000000000E+00 0.  1.
         13   -1    0    0    0    0 -0.00000000000E+00 -0.00000000000E+00 -0.27500000000E+03  0.27500000000E+03  0.00000000000E+00 0.  1.
    9000005    2    1    2  501    0 -0.24200041236E+00 -0.37984382472E+02 -0.52220693226E+02  0.46314731774E+03  0.45862355506E+03 0.  0.
         13    1    3    3    0    0  0.28647510988E+02 -0.81918082317E+02 -0.24678713332E+03  0.26160111098E+03  0.00000000000E+00 0.  1.
          3    1    3    3  501    0 -0.28889511400E+02  0.43933699845E+02  0.19456644009E+03  0.20154620676E+03  0.00000000000E+00 0.  1.
         21    1    1    2  502  501  0.24200041236E+00  0.37984382472E+02  0.35154956239E+01  0.38147484655E+02  0.00000000000E+00 0. -1.
<scales pt_clust_4="550.00000" pt_clust_5="550.00000" pt_clust_6="37.98515"></scales>
<mgrwt>
<rscale>  0 0.30000000E+03</rscale>
<asrwt>  1 0.37985153E+02</asrwt>
<pdfrwt beam="1">  1        1 0.82289019E+00 0.30000000E+03</pdfrwt>
<pdfrwt beam="2">0</pdfrwt>
<totfact> 0.67184466E-04</totfact>
</mgrwt>
<clustering>
<clus scale="   37.985">  1  6  2 -1</clus>
<clus scale="  458.624">  4  5 -1 -1</clus>
<clus scale="  300.000">  1  4  2 -1</clus>
</clustering>
</event>
<event>
 6    1  0.1029244E-011  0.3000000E+03  0.7818608E-02  0.1093470E+00
          1   -1    0    0  502    0  0.00000000000E+00  0.00000000000E+00  0.23629440220E+03  0.23629440220E+03  0.00000000000E+00 0.  1.
         13   -1    0    0    0    0 -0.00000000000E+00 -0.00000000000E+00 -0.27500000000E+03  0.27500000000E+03  0.00000000000E+00 0.  1.
    9000005    2    1    2  501    0  0.21742562866E+01  0.37157088910E+02 -0.35118781318E+02  0.47390132932E+03  0.47113030521E+03 0.  0.
         13    1    3    3    0    0  0.13084101932E+03 -0.57076955922E+02 -0.19921050190E+03  0.24507544818E+03  0.00000000000E+00 0.  1.
          1    1    3    3  501    0 -0.12866676304E+03  0.94234044832E+02  0.16409172058E+03  0.22882588114E+03  0.00000000000E+00 0.  1.
         21    1    1    2  502  501 -0.21742562866E+01 -0.37157088910E+02 -0.35868164816E+01  0.37393072876E+02  0.00000000000E+00 0. -1.
<scales pt_clust_4="550.00000" pt_clust_5="550.00000" pt_clust_6="37.22067"></scales>
<mgrwt>
<rscale>  0 0.30000000E+03</rscale>
<asrwt>  1 0.37220667E+02</asrwt>
<pdfrwt beam="1">  1        1 0.85925237E+00 0.30000000E+03</pdfrwt>
<pdfrwt beam="2">0</pdfrwt>
<totfact> 0.32568960E-04</totfact>
</mgrwt>
<clustering>
<clus scale="   37.221">  1  6  2 -1</clus>
<clus scale="  471.130">  4  5 -1 -1</clus>
<clus scale="  300.000">  1  4  2 -1</clus>
</clustering>
</event>
<event>
 6    1  0.1029244E-011  0.3000000E+03  0.7818608E-02  0.1093470E+00
          1   -1    0    0  502    0  0.00000000000E+00  0.00000000000E+00  0.23037754164E+03  0.23037754164E+03  0.00000000000E+00 0.  1.
         13   -1    0    0    0    0 -0.00000000000E+00 -0.00000000000E+00 -0.27500000000E+03  0.27500000000E+03  0.00000000000E+00 0.  1.
    9000005    2    1    2  501    0  0.32479545733E+02  0.80842423036E+01 -0.46682930798E+02  0.47184365712E+03  0.46833413806E+03 0.  0.
         13    1    3    3    0    0  0.60842554046E+02 -0.81221527798E+02 -0.23804383627E+03  0.25877330030E+03  0.00000000000E+00 0.  1.
          3    1    3    3  501    0 -0.28363008313E+02  0.89305770102E+02  0.19136090547E+03  0.21307035682E+03  0.00000000000E+00 0.  1.
         21    1    1    2  502  501 -0.32479545733E+02 -0.80842423036E+01  0.20604724407E+01  0.33533884525E+02  0.00000000000E+00 0.  1.
<scales pt_clust_4="550.00000" pt_clust_5="550.00000" pt_clust_6="33.47052"></scales>
<mgrwt>
<rscale>  0 0.30000000E+03</rscale>
<asrwt>  1 0.33470522E+02</asrwt>
<pdfrwt beam="1">  1        1 0.83773652E+00 0.30000000E+03</pdfrwt>
<pdfrwt beam="2">0</pdfrwt>
<totfact> 0.52111745E-04</totfact>
</mgrwt>
<clustering>
<clus scale="   33.471">  1  6  2 -1</clus>
<clus scale="  468.334">  4  5 -1 -1</clus>
<clus scale="  300.000">  1  4  2 -1</clus>
</clustering>
</event>
<event>
 6    1  0.1029244E-011  0.3000000E+03  0.7818608E-02  0.1093470E+00
          1   -1    0    0  502    0  0.00000000000E+00  0.00000000000E+00  0.24470127275E+03  0.24470127275E+03  0.00000000000E+00 0.  1.
         13   -1    0    0    0    0 -0.00000000000E+00 -0.00000000000E+00 -0.27500000000E+03  0.27500000000E+03  0.00000000000E+00 0.  1.
    9000005    2    1    2  501    0  0.32900894019E+02  0.29447087824E+01 -0.22453703270E+02  0.48575006454E+03  0.48410517068E+03 0.  0.
         13    1    3    3    0    0  0.18397511162E+03  0.15068495840E+03  0.80015026378E+02  0.25090875400E+03  0.00000000000E+00 0.  1.
          1    1    3    3  501    0 -0.15107421760E+03 -0.14774024962E+03 -0.10246872965E+03  0.23484131055E+03  0.00000000000E+00 0.  1.
         21    1    1    2  502  501 -0.32900894019E+02 -0.29447087824E+01 -0.78450239842E+01  0.33951208202E+02  0.00000000000E+00 0. -1.
<scales pt_clust_4="550.00000" pt_clust_5="550.00000" pt_clust_6="33.03243"></scales>
<mgrwt>
<rscale>  0 0.30000000E+03</rscale>
<asrwt>  1 0.33032427E+02</asrwt>
<pdfrwt beam="1">  1        1 0.88982281E+00 0.30000000E+03</pdfrwt>
<pdfrwt beam="2">0</pdfrwt>
<totfact> 0.14734079E-04</totfact>
</mgrwt>
<clustering>
<clus scale="   33.032">  1  6  2 -1</clus>
<clus scale="  484.105">  4  5 -1 -1</clus>
<clus scale="  300.000">  1  4  2 -1</clus>
</clustering>
</event>
<event>
 6    1  0.1029244E-011  0.3000000E+03  0.7818608E-02  0.1093470E+00
          1   -1    0    0  502    0  0.00000000000E+00  0.00000000000E+00  0.22515918870E+03  0.22515918870E+03  0.00000000000E+00 0.  1.
         13   -1    0    0    0    0 -0.00000000000E+00 -0.00000000000E+00 -0.27500000000E+03  0.27500000000E+03  0.00000000000E+00 0.  1.
    9000005    2    1    2  501    0  0.33839751414E+01  0.34396476809E+02 -0.62698179363E+02  0.46328262679E+03  0.45771733820E+03 0.  0.
         13    1    3    3    0    0  0.22973844771E+03  0.18643581917E+02 -0.51065557441E+02  0.23608267336E+03  0.00000000000E+00 0.  1.
          1    1    3    3  501    0 -0.22635447257E+03  0.15752894892E+02 -0.11632621922E+02  0.22719995344E+03  0.00000000000E+00 0.  1.
         21    1    1    2  502  501 -0.33839751414E+01 -0.34396476809E+02  0.12857368060E+02  0.36876561906E+02  0.00000000000E+00 0.  1.
<scales pt_clust_4="550.00000" pt_clust_5="550.00000" pt_clust_6="34.56254"></scales>
<mgrwt>
<rscale>  0 0.30000000E+03</rscale>
<asrwt>  1 0.34562536E+02</asrwt>
<pdfrwt beam="1">  1        1 0.81876069E+00 0.30000000E+03</pdfrwt>
<pdfrwt beam="2">0</pdfrwt>
<totfact> 0.74295345E-04</totfact>
</mgrwt>
<clustering>
<clus scale="   34.563">  1  6  2 -1</clus>
<clus scale="  457.717">  4  5 -1 -1</clus>
<clus scale="  300.000">  1  4  2 -1</clus>
</clustering>
</event>
<event>
 6    1  0.1029244E-011  0.3000000E+03  0.7818608E-02  0.1093470E+00
          1   -1    0    0  502    0  0.00000000000E+00  0.00000000000E+00  0.23994239170E+03  0.23994239170E+03  0.00000000000E+00 0.  1.
         13   -1    0    0    0    0 -0.00000000000E+00 -0.00000000000E+00 -0.27500000000E+03  0.27500000000E+03  0.00000000000E+00 0.  1.
    9000005    2    1    2  501    0  0.32464853348E+02  0.20312202901E+01 -0.46642983334E+02  0.48041249924E+03  0.47703512341E+03 0.  0.
         13    1    3    3    0    0 -0.19360937362E+03 -0.12457326383E+02 -0.13595553825E+03  0.23690437504E+03  0.00000000000E+00 0.  1.
          1    1    3    3  501    0  0.22607422697E+03  0.14488546673E+02  0.89312554913E+02  0.24350812420E+03  0.00000000000E+00 0.  1.
         21    1    1    2  502  501 -0.32464853348E+02 -0.20312202901E+01  0.11585375034E+02  0.34529892462E+02  0.00000000000E+00 0. -1.
<scales pt_clust_4="550.00000" pt_clust_5="550.00000" pt_clust_6="32.52833"></scales>
<mgrwt>
<rscale>  0 0.30000000E+03</rscale>
<asrwt>  1 0.32528335E+02</asrwt>
<pdfrwt beam="1">  1        1 0.87251779E+00 0.30000000E+03</pdfrwt>
<pdfrwt beam="2">0</pdfrwt>
<totfact> 0.24200100E-04</totfact>
</mgrwt>
<clustering>
<clus scale="   32.528">  1  6  2 -1</clus>
<clus scale="  477.035">  4  5 -1 -1</clus>
<clus scale="  300.000">  1  4  2 -1</clus>
</clustering>
</event>
<event>
 6    1  0.1029244E-011  0.3000000E+03  0.7818608E-02  0.1093470E+00
          1   -1    0    0  502    0  0.00000000000E+00  0.00000000000E+00  0.23169706143E+03  0.23169706143E+03  0.00000000000E+00 0.  1.
         13   -1    0    0    0    0 -0.00000000000E+00 -0.00000000000E+00 -0.27500000000E+03  0.27500000000E+03  0.00000000000E+00 0.  1.
    9000005    2    1    2  501    0  0.19029279596E+02 -0.33396248165E+02 -0.35026553359E+02  0.46737885412E+03  0.46447681424E+03 0.  0.
         13    1    3    3    0    0  0.12685141158E+03 -0.21761263952E+03 -0.31964092185E+02  0.25390597608E+03  0.00000000000E+00 0.  1.
          3    1    3    3  501    0 -0.10782213199E+03  0.18421639136E+03 -0.30624611744E+01  0.21347287804E+03  0.00000000000E+00 0.  1.
         21    1    1    2  502  501 -0.19029279596E+02  0.33396248165E+02 -0.82763852125E+01  0.39318207304E+02  0.00000000000E+00 0.  1.
<scales pt_clust_4="550.00000" pt_clust_5="550.00000" pt_clust_6="38.43728"></scales>
<mgrwt>
<rscale>  0 0.30000000E+03</rscale>
<asrwt>  1 0.38437278E+02</asrwt>
<pdfrwt beam="1">  1        1 0.84253477E+00 0.30000000E+03</pdfrwt>
<pdfrwt beam="2">0</pdfrwt>
<totfact> 0.46611980E-04</totfact>
</mgrwt>
<clustering>
<clus scale="   38.437">  1  6  2 -1</clus>
<clus scale="  464.477">  4  5 -1 -1</clus>
<clus scale="  300.000">  1  4  2 -1</clus>
</clustering>
</event>
<event>
 6    1  0.1029244E-011  0.3000000E+03  0.7818608E-02  0.1093470E+00
          1   -1    0    0  502    0  0.00000000000E+00  0.00000000000E+00  0.24744920596E+03  0.24744920596E+03  0.00000000000E+00 0.  1.
         13   -1    0    0    0    0 -0.00000000000E+00 -0.00000000000E+00 -0.27500000000E+03  0.27500000000E+03  0.00000000000E+00 0.  1.
    9000005    2    1    2  501    0 -0.32408709266E+02 -0.32048988897E+02 -0.44487014129E+02  0.47382516174E+03  0.46952500183E+03 0.  0.
         13    1    3    3    0    0  0.19166749746E+03  0.91304487979E+02 -0.49469147978E+02  0.21799113677E+03  0.00000000000E+00 0.  1.
          1    1    3    3  501    0 -0.22407620672E+03 -0.12335347688E+03  0.49821338492E+01  0.25583402497E+03  0.00000000000E+00 0.  1.
         21    1    1    2  502  501  0.32408709266E+02  0.32048988897E+02  0.16936220093E+02  0.48624044224E+02  0.00000000000E+00 0.  1.
<scales pt_clust_4="550.00000" pt_clust_5="550.00000" pt_clust_6="45.57919"></scales>
<mgrwt>
<rscale>  0 0.30000000E+03</rscale>
<asrwt>  1 0.45579185E+02</asrwt>
<pdfrwt beam="1">  1        1 0.89981529E+00 0.30000000E+03</pdfrwt>
<pdfrwt beam="2">0</pdfrwt>
<totfact> 0.10580365E-04</totfact>
</mgrwt>
<clustering>
<clus scale="   45.579">  1  6  2 -1</clus>
<clus scale="  469.525">  4  5 -1 -1</clus>
<clus scale="  300.000">  1  4  2 -1</clus>
</clustering>
</event>
<event>
 6    1  0.1029244E-011  0.3000000E+03  0.7818608E-02  0.1093470E+00
          1   -1    0    0  502    0  0.00000000000E+00  0.00000000000E+00  0.24009759787E+03  0.24009759787E+03  0.00000000000E+00 0.  1.
         13   -1    0    0    0    0 -0.00000000000E+00 -0.00000000000E+00 -0.27500000000E+03  0.27500000000E+03  0.00000000000E+00 0.  1.
    9000005    2    1    2  501    0  0.87578230306E+01  0.40350468839E+02 -0.43988932410E+02  0.47281965052E+03  0.46895472696E+03 0.  0.
         13    1    3    3    0    0 -0.51266283037E+02 -0.18519748892E+03 -0.12095266283E+03  0.22705921766E+03  0.00000000000E+00 0.  1.
          3    1    3    3  501    0  0.60024106068E+02  0.22554795776E+03  0.76963730423E+02  0.24576043286E+03  0.00000000000E+00 0.  1.
         21    1    1    2  502  501 -0.87578230306E+01 -0.40350468839E+02  0.90865302807E+01  0.42277947352E+02  0.00000000000E+00 0.  1.
<scales pt_clust_4="550.00000" pt_clust_5="550.00000" pt_clust_6="41.28995"></scales>
<mgrwt>
<rscale>  0 0.30000000E+03</rscale>
<asrwt>  1 0.41289948E+02</asrwt>
<pdfrwt beam="1">  1        1 0.87308217E+00 0.30000000E+03</pdfrwt>
<pdfrwt beam="2">0</pdfrwt>
<totfact> 0.22845887E-04</totfact>
</mgrwt>
<clustering>
<clus scale="   41.290">  1  6  2 -1</clus>
<clus scale="  468.955">  4  5 -1 -1</clus>
<clus scale="  300.000">  1  4  2 -1</clus>
</clustering>
</event>
<event>
 6    1  0.1029244E-011  0.3000000E+03  0.7818608E-02  0.1093470E+00
          1   -1    0    0  502    0  0.00000000000E+00  0.00000000000E+00  0.23274280024E+03  0.23274280024E+03  0.00000000000E+00 0.  1.
         13   -1    0    0    0    0 -0.00000000000E+00 -0.00000000000E+00 -0.27500000000E+03  0.27500000000E+03  0.00000000000E+00 0.  1.
    9000005    2    1    2  501    0 -0.12118149436E+02 -0.31861428428E+02 -0.47903096849E+02  0.47319028483E+03  0.46952352316E+03 0.  0.
         13    1    3    3    0    0 -0.15545608513E+03  0.27730592433E+02  0.15261548757E+03  0.21960661923E+03  0.00000000000E+00 0.  1.
          3    1    3    3  501    0  0.14333793570E+03 -0.59592020861E+02 -0.20051858442E+03  0.25358366560E+03  0.00000000000E+00 0.  1.
         21    1    1    2  502  501  0.12118149436E+02  0.31861428428E+02  0.56458970879E+01  0.34552515410E+02  0.00000000000E+00 0. -1.
<scales pt_clust_4="550.00000" pt_clust_5="550.00000" pt_clust_6="34.08812"></scales>
<mgrwt>
<rscale>  0 0.30000000E+03</rscale>
<asrwt>  1 0.34088124E+02</asrwt>
<pdfrwt beam="1">  1        1 0.84633746E+00 0.30000000E+03</pdfrwt>
<pdfrwt beam="2">0</pdfrwt>
<totfact> 0.44187829E-04</totfact>
</mgrwt>
<clustering>
<clus scale="   34.088">  1  6  2 -1</clus>
<clus scale="  469.524">  4  5 -1 -1</clus>
<clus scale="  300.000">  1  4  2 -1</clus>
</clustering>
</event>
<event>
 6    1  0.1029244E-011  0.3000000E+03  0.7818608E-02  0.1093470E+00
          1   -1    0    0  502    0  0.00000000000E+00  0.00000000000E+00  0.23137363173E+03  0.23137363173E+03  0.00000000000E+00 0.  1.
         13   -1    0    0    0    0 -0.00000000000E+00 -0.00000000000E+00 -0.27500000000E+03  0.27500000000E+03  0.00000000000E+00 0.  1.
    9000005    2    1    2  501    0  0.11617257208E+02  0.35647902645E+02 -0.24366844858E+02  0.46422315285E+03  0.46206456138E+03 0.  0.
         13    1    3    3    0    0 -0.36278378992E+02 -0.30139367856E+02  0.21046841671E+03  0.21568833234E+03  0.00000000000E+00 0.  1.
          1    1    3    3  501    0  0.47895636200E+02  0.65787270501E+02 -0.23483526157E+03  0.24853482050E+03  0.00000000000E+00 0.  1.
         21    1    1    2  502  501 -0.11617257208E+02 -0.35647902645E+02 -0.19259523413E+02  0.42150478884E+02  0.00000000000E+00 0. -1.
<scales pt_clust_4="550.00000" pt_clust_5="550.00000" pt_clust_6="37.49313"></scales>
<mgrwt>
<rscale>  0 0.30000000E+03</rscale>
<asrwt>  1 0.37493133E+02</asrwt>
<pdfrwt beam="1">  1        1 0.84135866E+00 0.30000000E+03</pdfrwt>
<pdfrwt beam="2">0</pdfrwt>
<totfact> 0.47881574E-04</totfact>
</mgrwt>
<clustering>
<clus scale="   37.493">  1  6  2 -1</clus>
<clus scale="  462.065">  4  5 -1 -1</clus>
<clus scale="  300.000">  1  4  2 -1</clus>
</clustering>
</event>
<event>
 6    1  0.1029244E-011  0.3000000E+03  0.7818608E-02  0.1093470E+00
          1   -1    0    0  502    0  0.00000000000E+00  0.00000000000E+00  0.24388876525E+03  0.24388876525E+03  0.00000000000E+00 0.  1.
         13   -1    0    0    0    0 -0.00000000000E+00 -0.00000000000E+00 -0.27500000000E+03  0.27500000000E+03  0.00000000000E+00 0.  1.
    9000005    2    1    2  501    0  0.23530600205E+02 -0.19219776720E+02 -0.42702048872E+02  0.48637052521E+03  0.48353876148E+03 0.  0.
         13    1    3    3    0    0 -0.76407368236E+02 -0.22689288227E+02 -0.24665967171E+03  0.25921782996E+03  0.00000000000E+00 0.  1.
          3    1    3    3  501    0  0.99937968441E+02  0.34695115067E+01  0.20395762284E+03  0.22715269525E+03  0.00000000000E+00 0.  1.
         21    1    1    2  502  501 -0.23530600205E+02  0.19219776720E+02  0.11590814119E+02  0.32518240037E+02  0.00000000000E+00 0.  1.
<scales pt_clust_4="550.00000" pt_clust_5="550.00000" pt_clust_6="30.38238"></scales>
<mgrwt>
<rscale>  0 0.30000000E+03</rscale>
<asrwt>  1 0.30382379E+02</asrwt>
<pdfrwt beam="1">  1        1 0.88686824E+00 0.30000000E+03</pdfrwt>
<pdfrwt beam="2">0</pdfrwt>
<totfact> 0.16428783E-04</totfact>
</mgrwt>
<clustering>
<clus scale="   30.382">  1  6  2 -1</clus>
<clus scale="  483.539">  4  5 -1 -1</clus>
<clus scale="  300.000">  1  4  2 -1</clus>
</clustering>
</event>
<event>
 6    1  0.1029244E-011  0.3000000E+03  0.7818608E-02  0.1093470E+00
          1   -1    0    0  502    0  0.00000000000E+00  0.00000000000E+00  0.22122300049E+03  0.22122300049E+03  0.00000000000E+00 0.  1.
         13   -1    0    0    0    0 -0.00000000000E+00 -0.00000000000E+00 -0.27500000000E+03  0.27500000000E+03  0.00000000000E+00 0.  1.
    9000005    2    1    2  501    0  0.43503680704E+01  0.30551571100E+02 -0.55994553249E+02  0.46528367691E+03  0.46087003136E+03 0.  0.
         13    1    3    3    0    0 -0.11195435304E+03  0.18592295411E+03 -0.13516491681E+03  0.25567689917E+03  0.00000000000E+00 0.  1.
          1    1    3    3  501    0  0.11630472111E+03 -0.15537138301E+03  0.79170363560E+02  0.20960677775E+03  0.00000000000E+00 0.  1.
         21    1    1    2  502  501 -0.43503680704E+01 -0.30551571100E+02  0.22175537438E+01  0.30939323581E+02  0.00000000000E+00 0. -1.
<scales pt_clust_4="550.00000" pt_clust_5="550.00000" pt_clust_6="30.85975"></scales>
<mgrwt>
<rscale>  0 0.30000000E+03</rscale>
<asrwt>  1 0.30859750E+02</asrwt>
<pdfrwt beam="1">  1        1 0.80444727E+00 0.30000000E+03</pdfrwt>
<pdfrwt beam="2">0</pdfrwt>
<totfact> 0.98532316E-04</totfact>
</mgrwt>
<clustering>
<clus scale="   30.860">  1  6  2 -1</clus>
<clus scale="  460.870">  4  5 -1 -1</clus>
<clus scale="  300.000">  1  4  2 -1</clus>
</clustering>
</event>
<event>
 6    1  0.1029244E-011  0.3000000E+03  0.7818608E-02  0.1093470E+00
          1   -1    0    0  502    0  0.00000000000E+00  0.00000000000E+00  0.25503756994E+03  0.25503756994E+03  0.00000000000E+00 0.  1.
         13   -1    0    0    0    0 -0.00000000000E+00 -0.00000000000E+00 -0.27500000000E+03  0.27500000000E+03  0.00000000000E+00 0.  1.
    9000005    2    1    2  501    0 -0.32437505960E+02  0.18396126470E+02 -0.48753769403E+02  0.48292546445E+03  0.47900883596E+03 0.  0.
         13    1    3    3    0    0  0.12453061384E+03 -0.16862918225E+03  0.56394048924E+02  0.21708054644E+03  0.00000000000E+00 0.  1.
          1    1    3    3  501    0 -0.15696811980E+03  0.18702530872E+03 -0.10514781833E+03  0.26584491801E+03  0.00000000000E+00 0.  1.
         21    1    1    2  502  501  0.32437505960E+02 -0.18396126470E+02  0.28791339340E+02  0.47112105482E+02  0.00000000000E+00 0.  1.
<scales pt_clust_4="550.00000" pt_clust_5="550.00000" pt_clust_6="37.29087"></scales>
<mgrwt>
<rscale>  0 0.30000000E+03</rscale>
<asrwt>  1 0.37290874E+02</asrwt>
<pdfrwt beam="1">  1        1 0.92740935E+00 0.30000000E+03</pdfrwt>
<pdfrwt beam="2">0</pdfrwt>
<totfact> 0.28913668E-05</totfact>
</mgrwt>
<clustering>
<clus scale="   37.291">  1  6  2 -1</clus>
<clus scale="  479.009">  4  5 -1 -1</clus>
<clus scale="  300.000">  1  4  2 -1</clus>
</clustering>
</event>
<event>
 6    1  0.1029244E-011  0.3000000E+03  0.7818608E-02  0.1093470E+00
          1   -1    0    0  502    0  0.00000000000E+00  0.00000000000E+00  0.23626386067E+03  0.23626386067E+03  0.00000000000E+00 0.  1.
         13   -1    0    0    0    0 -0.00000000000E+00 -0.00000000000E+00 -0.27500000000E+03  0.27500000000E+03  0.00000000000E+00 0.  1.
    9000005    2    1    2  501    0 -0.27946970759E+02  0.15447051506E+02 -0.72122717977E+02  0.46506528700E+03  0.45832781953E+03 0.  0.
         13    1    3    3    0    0  0.23672594587E+02  0.18013141104E+03  0.11142097925E+03  0.21312520168E+03  0.00000000000E+00 0.  1.
          3    1    3    3  501    0 -0.51619565346E+02 -0.16468435953E+03 -0.18354369722E+03  0.25194008532E+03  0.00000000000E+00 0.  1.
         21    1    1    2  502  501  0.27946970759E+02 -0.15447051506E+02  0.33386578642E+02  0.46198573661E+02  0.00000000000E+00 0. -1.
<scales pt_clust_4="550.00000" pt_clust_5="550.00000" pt_clust_6="31.93187"></scales>
<mgrwt>
<rscale>  0 0.30000000E+03</rscale>
<asrwt>  1 0.31931874E+02</asrwt>
<pdfrwt beam="1">  1        1 0.85914131E+00 0.30000000E+03</pdfrwt>
<pdfrwt beam="2">0</pdfrwt>
<totfact> 0.33609694E-04</totfact>
</mgrwt>
<clustering>
<clus scale="   31.932">  1  6  2 -1</clus>
<clus scale="  458.328">  4  5 -1 -1</clus>
<clus scale="  300.000">  1  4  2 -1</clus>
</clustering>
</event>
<event>
 6    1  0.1029244E-011  0.3000000E+03  0.7818608E-02  0.1093470E+00
          1   -1    0    0  502    0  0.00000000000E+00  0.00000000000E+00  0.23773683803E+03  0.23773683803E+03  0.00000000000E+00 0.  1.
         13   -1    0    0    0    0 -0.00000000000E+00 -0.00000000000E+00 -0.27500000000E+03  0.27500000000E+03  0.00000000000E+00 0.  1.
    9000005    2    1    2  501    0 -0.35012690040E+02 -0.65207863846E+01 -0.39038578544E+02  0.47707788091E+03  0.47414226211E+03 0.  0.
         13    1    3    3    0    0 -0.63744752184E+01  0.23172788484E+03  0.10503607092E+02  0.23205338245E+03  0.00000000000E+00 0.  1.
          1    1    3    3  501    0 -0.28638214821E+02 -0.23824867122E+03 -0.49542185636E+02  0.24502449846E+03  0.00000000000E+00 0.  1.
         21    1    1    2  502  501  0.35012690040E+02  0.65207863846E+01  0.17754165715E+01  0.35658957120E+02  0.00000000000E+00 0.  1.
<scales pt_clust_4="550.00000" pt_clust_5="550.00000" pt_clust_6="35.61473"></scales>
<mgrwt>
<rscale>  0 0.30000000E+03</rscale>
<asrwt>  1 0.35614732E+02</asrwt>
<pdfrwt beam="1">  1        1 0.86449759E+00 0.30000000E+03</pdfrwt>
<pdfrwt beam="2">0</pdfrwt>
<totfact> 0.28834657E-04</totfact>
</mgrwt>
<clustering>
<clus scale="   35.615">  1  6  2 -1</clus>
<clus scale="  474.142">  4  5 -1 -1</clus>
<clus scale="  300.000">  1  4  2 -1</clus>
</clustering>
</event>
<event>
 6    1  0.1029244E-011  0.3000000E+03  0.7818608E-02  0.1093470E+00
          1   -1    0    0  502    0  0.00000000000E+00  0.00000000000E+00  0.26038503086E+03  0.26038503086E+03  0.00000000000E+00 0.  1.
         13   -1    0    0    0    0 -0.00000000000E+00 -0.00000000000E+00 -0.27500000000E+03  0.27500000000E+03  0.00000000000E+00 0.  1.
    9000005    2    1    2  501    0 -0.32710549300E+02  0.24144155337E+02 -0.33762540909E+02  0.49044562970E+03  0.48759008014E+03 0.  0.
         13    1    3    3    0    0  0.90627135539E+02 -0.12203133350E+03  0.15825399726E+03  0.21942937748E+03  0.00000000000E+00 0.  1.
          3    1    3    3  501    0 -0.12333768484E+03  0.14617548884E+03 -0.19201653817E+03  0.27101625222E+03  0.00000000000E+00 0.  1.
         21    1    1    2  502  501  0.32710549300E+02 -0.24144155337E+02  0.19147571774E+02  0.44939401167E+02  0.00000000000E+00 0.  1.
<scales pt_clust_4="550.00000" pt_clust_5="550.00000" pt_clust_6="40.65612"></scales>
<mgrwt>
<rscale>  0 0.30000000E+03</rscale>
<asrwt>  1 0.40656122E+02</asrwt>
<pdfrwt beam="1">  1        1 0.94685466E+00 0.30000000E+03</pdfrwt>
<pdfrwt beam="2">0</pdfrwt>
<totfact> 0.13906483E-05</totfact>
</mgrwt>
<clustering>
<clus scale="   40.656">  1  6  2 -1</clus>
<clus scale="  487.590">  4  5 -1 -1</clus>
<clus scale="  300.000">  1  4  2 -1</clus>
</clustering>
</event>
<event>
 6    1  0.1029244E-011  0.3000000E+03  0.7818608E-02  0.1093470E+00
          1   -1    0    0  502    0  0.00000000000E+00  0.00000000000E+00  0.24047901756E+03  0.24047901756E+03  0.00000000000E+00 0.  1.
         13   -1    0    0    0    0 -0.00000000000E+00 -0.00000000000E+00 -0.27500000000E+03  0.27500000000E+03  0.00000000000E+00 0.  1.
    9000005    2    1    2  501    0 -0.31477267914E+02  0.92744006682E+01 -0.44650805725E+02  0.48113595097E+03  0.47793438457E+03 0.  0.
         13    1    3    3    0    0  0.20347483758E+03 -0.91865020276E+02 -0.19106976819E+02  0.22406755241E+03  0.00000000000E+00 0.  1.
          3    1    3    3  501    0 -0.23495210549E+03  0.10113942094E+03 -0.25543828906E+02  0.25706839856E+03  0.00000000000E+00 0.  1.
         21    1    1    2  502  501  0.31477267914E+02 -0.92744006682E+01  0.10129823282E+02  0.34343066590E+02  0.00000000000E+00 0.  1.
<scales pt_clust_4="550.00000" pt_clust_5="550.00000" pt_clust_6="32.81513"></scales>
<mgrwt>
<rscale>  0 0.30000000E+03</rscale>
<asrwt>  1 0.32815132E+02</asrwt>
<pdfrwt beam="1">  1        1 0.87446915E+00 0.30000000E+03</pdfrwt>
<pdfrwt beam="2">0</pdfrwt>
<totfact> 0.23062072E-04</totfact>
</mgrwt>
<clustering>
<clus scale="   32.815">  1  6  2 -1</clus>
<clus scale="  477.934">  4  5 -1 -1</clus>
<clus scale="  300.000">  1  4  2 -1</clus>
</clustering>
</event>
<event>
 6    1  0.1029244E-011  0.3000000E+03  0.7818608E-02  0.1093470E+00
          1   -1    0    0  502    0  0.00000000000E+00  0.00000000000E+00  0.23537058797E+03  0.23537058797E+03  0.00000000000E+00 0.  1.
         13   -1    0    0    0    0 -0.00000000000E+00 -0.00000000000E+00 -0.27500000000E+03  0.27500000000E+03  0.00000000000E+00 0.  1.
    9000005    2    1    2  501    0 -0.24982951604E+02 -0.30964694106E+02 -0.41241723382E+02  0.47055150084E+03  0.46704911417E+03 0.  0.
         13    1    3    3    0    0 -0.21923370981E+03  0.59027924419E+02  0.58374769569E+02  0.23442552997E+03  0.00000000000E+00 0.  1.
          3    1    3    3  501    0  0.19425075821E+03 -0.89992618525E+02 -0.99616492951E+02  0.23612597087E+03  0.00000000000E+00 0.  1.
         21    1    1    2  502  501  0.24982951604E+02  0.30964694106E+02  0.16123113535E+01  0.39819087130E+02  0.00000000000E+00 0.  1.
<scales pt_clust_4="550.00000" pt_clust_5="550.00000" pt_clust_6="39.78643"></scales>
<mgrwt>
<rscale>  0 0.30000000E+03</rscale>
<asrwt>  1 0.39786432E+02</asrwt>
<pdfrwt beam="1">  1        1 0.85589305E+00 0.30000000E+03</pdfrwt>
<pdfrwt beam="2">0</pdfrwt>
<totfact> 0.34856245E-04</totfact>
</mgrwt>
<clustering>
<clus scale="   39.786">  1  6  2 -1</clus>
<clus scale="  467.049">  4  5 -1 -1</clus>
<clus scale="  300.000">  1  4  2 -1</clus>
</clustering>
</event>
<event>
 6    1  0.1029244E-011  0.3000000E+03  0.7818608E-02  0.1093470E+00
          1   -1    0    0  502    0  0.00000000000E+00  0.00000000000E+00  0.22264698218E+03  0.22264698218E+03  0.00000000000E+00 0.  1.
         13   -1    0    0    0    0 -0.00000000000E+00 -0.00000000000E+00 -0.27500000000E+03  0.27500000000E+03  0.00000000000E+00 0.  1.
    9000005    2    1    2  501    0 -0.22459782748E+02  0.21767705274E+02 -0.52662711946E+02  0.46636806365E+03  0.46232838408E+03 0.  0.
         13    1    3    3    0    0 -0.22063927218E+03 -0.73366778865E+02  0.23535446609E+02  0.23370556244E+03  0.00000000000E+00 0.  1.
          3    1    3    3  501    0  0.19817948943E+03  0.95134484139E+02 -0.76198158555E+02  0.23266250121E+03  0.00000000000E+00 0.  1.
         21    1    1    2  502  501  0.22459782748E+02 -0.21767705274E+02  0.30969412752E+00  0.31278918531E+02  0.00000000000E+00 0.  1.
<scales pt_clust_4="550.00000" pt_clust_5="550.00000" pt_clust_6="31.27739"></scales>
<mgrwt>
<rscale>  0 0.30000000E+03</rscale>
<asrwt>  1 0.31277385E+02</asrwt>
<pdfrwt beam="1">  1        1 0.80962539E+00 0.30000000E+03</pdfrwt>
<pdfrwt beam="2">0</pdfrwt>
<totfact> 0.89688669E-04</totfact>
</mgrwt>
<clustering>
<clus scale="   31.277">  1  6  2 -1</clus>
<clus scale="  462.328">  4  5 -1 -1</clus>
<clus scale="  300.000">  1  4  2 -1</clus>
</clustering>
</event>
<event>
 6    1  0.1029244E-011  0.3000000E+03  0.7818608E-02  0.1093470E+00
          1   -1    0    0  502    0  0.00000000000E+00  0.00000000000E+00  0.22269105301E+03  0.22269105301E+03  0.00000000000E+00 0.  1.
         13   -1    0    0    0    0 -0.00000000000E+00 -0.00000000000E+00 -0.27500000000E+03  0.27500000000E+03  0.00000000000E+00 0.  1.
    9000005    2    1    2  501    0 -0.28159168189E+02  0.13338436669E+02 -0.38724113575E+02  0.46369987261E+03  0.46102837466E+03 0.  0.
         13    1    3    3    0    0  0.16447009722E+03 -0.12649821084E+03 -0.79498452743E+02  0.22219859184E+03  0.00000000000E+00 0.  1.
          1    1    3    3  501    0 -0.19262926541E+03  0.13983664751E+03  0.40774339168E+02  0.24150128077E+03  0.00000000000E+00 0.  1.
         21    1    1    2  502  501  0.28159168189E+02 -0.13338436669E+02 -0.13584833418E+02  0.33991180398E+02  0.00000000000E+00 0.  1.
<scales pt_clust_4="550.00000" pt_clust_5="550.00000" pt_clust_6="31.15852"></scales>
<mgrwt>
<rscale>  0 0.30000000E+03</rscale>
<asrwt>  1 0.31158524E+02</asrwt>
<pdfrwt beam="1">  1        1 0.80978565E+00 0.30000000E+03</pdfrwt>
<pdfrwt beam="2">0</pdfrwt>
<totfact> 0.89496528E-04</totfact>
</mgrwt>
<clustering>
<clus scale="   31.159">  1  6  2 -1</clus>
<clus scale="  461.028">  4  5 -1 -1</clus>
<clus scale="  300.000">  1  4  2 -1</clus>
</clustering>
</event>
<event>
 6    1  0.1029244E-011  0.3000000E+03  0.7818608E-02  0.1093470E+00
          1   -1    0    0  502    0  0.00000000000E+00  0.00000000000E+00  0.22366750198E+03  0.22366750198E+03  0.00000000000E+00 0.  1.
         13   -1    0    0    0    0 -0.00000000000E+00 -0.00000000000E+00 -0.27500000000E+03  0.27500000000E+03  0.00000000000E+00 0.  1.
    9000005    2    1    2  501    0 -0.36170442618E+02 -0.82428157699E+01 -0.45588826863E+02  0.46112772722E+03  0.45736658683E+03 0.  0.
         13    1    3    3    0    0 -0.68678112839E+02  0.11981739150E+03 -0.20929715801E+03  0.25075524091E+03  0.00000000000E+00 0.  1.
          3    1    3    3  501    0  0.32507670220E+02 -0.12806020727E+03  0.16370833115E+03  0.21037248631E+03  0.00000000000E+00 0.  1.
         21    1    1    2  502  501  0.36170442618E+02  0.82428157699E+01 -0.57436711533E+01  0.37539774764E+02  0.00000000000E+00 0.  1.
<scales pt_clust_4="550.00000" pt_clust_5="550.00000" pt_clust_6="37.09779"></scales>
<mgrwt>
<rscale>  0 0.30000000E+03</rscale>
<asrwt>  1 0.37097794E+02</asrwt>
<pdfrwt beam="1">  1        1 0.81333637E+00 0.30000000E+03</pdfrwt>
<pdfrwt beam="2">0</pdfrwt>
<totfact> 0.81205876E-04</totfact>
</mgrwt>
<clustering>
<clus scale="   37.098">  1  6  2 -1</clus>
<clus scale="  457.367">  4  5 -1 -1</clus>
<clus scale="  300.000">  1  4  2 -1</clus>
</clustering>
</event>
<event>
 6    1  0.1029244E-011  0.3000000E+03  0.7818608E-02  0.1093470E+00
          1   -1    0    0  502    0  0.00000000000E+00  0.00000000000E+00  0.24093289580E+03  0.24093289580E+03  0.00000000000E+00 0.  1.
         13   -1    0    0    0    0 -0.00000000000E+00 -0.00000000000E+00 -0.27500000000E+03  0.27500000000E+03  0.00000000000E+00 0.  1.
    9000005    2    1    2  501    0  0.95956486327E+01  0.35994487579E+02 -0.49506020328E+02  0.47560871274E+03  0.47155606451E+03 0.  0.
         13    1    3    3    0    0 -0.45024422200E+02 -0.21146179540E+03  0.55968301593E+01  0.21627439519E+03  0.00000000000E+00 0.  1.
          3    1    3    3  501    0  0.54620070832E+02  0.24745628298E+03 -0.55102850487E+02  0.25933431754E+03  0.00000000000E+00 0.  1.
         21    1    1    2  502  501 -0.95956486327E+01 -0.35994487579E+02  0.15438916130E+02  0.40324183067E+02  0.00000000000E+00 0.  1.
<scales pt_clust_4="550.00000" pt_clust_5="550.00000" pt_clust_6="37.25157"></scales>
<mgrwt>
<rscale>  0 0.30000000E+03</rscale>
<asrwt>  1 0.37251572E+02</asrwt>
<pdfrwt beam="1">  1        1 0.87611962E+00 0.30000000E+03</pdfrwt>
<pdfrwt beam="2">0</pdfrwt>
<totfact> 0.21628161E-04</totfact>
</mgrwt>
<clustering>
<clus scale="   37.252">  1  6  2 -1</clus>
<clus scale="  471.556">  4  5 -1 -1</clus>
<clus scale="  300.000">  1  4  2 -1</clus>
</clustering>
</event>
<event>
 6    1  0.1029244E-011  0.3000000E+03  0.7818608E-02  0.1093470E+00
          1   -1    0    0  502    0  0.00000000000E+00  0.00000000000E+00  0.23871651060E+03  0.23871651060E+03  0.00000000000E+00 0.  1.
         13   -1    0    0    0    0 -0.00000000000E+00 -0.00000000000E+00 -0.27500000000E+03  0.27500000000E+03  0.00000000000E+00 0.  1.
    9000005    2    1    2  501    0  0.21324328699E+02  0.38043106126E+02 -0.31125076028E+02  0.46980052096E+03  0.46673520782E+03 0.  0.
         13    1    3    3    0    0 -0.20521628987E+03  0.40459660544E+02 -0.10160276289E+03  0.23253780593E+03  0.00000000000E+00 0.  1.
          1    1    3    3  501    0  0.22654061857E+03 -0.24165544184E+01  0.70477686866E+02  0.23726271503E+03  0.00000000000E+00 0.  1.
         21    1    1    2  502  501 -0.21324328699E+02 -0.38043106126E+02 -0.51584133676E+01  0.43915989646E+02  0.00000000000E+00 0. -1.
<scales pt_clust_4="550.00000" pt_clust_5="550.00000" pt_clust_6="43.61200"></scales>
<mgrwt>
<rscale>  0 0.30000000E+03</rscale>
<asrwt>  1 0.43612003E+02</asrwt>
<pdfrwt beam="1">  1        1 0.86806004E+00 0.30000000E+03</pdfrwt>
<pdfrwt beam="2">0</pdfrwt>
<totfact> 0.25468833E-04</totfact>
</mgrwt>
<clustering>
<clus scale="   43.612">  1  6  2 -1</clus>
<clus scale="  466.735">  4  5 -1 -1</clus>
<clus scale="  300.000">  1  4  2 -1</clus>
</clustering>
</event>
<event>
 6    1  0.1029244E-011  0.3000000E+03  0.7818608E-02  0.1093470E+00
          1   -1    0    0  502    0  0.00000000000E+00  0.00000000000E+00  0.24281052376E+03  0.24281052376E+03  0.00000000000E+00 0.  1.
         13   -1    0    0    0    0 -0.00000000000E+00 -0.00000000000E+00 -0.27500000000E+03  0.27500000000E+03  0.00000000000E+00 0.  1.
    9000005    2    1    2  501    0 -0.34784680274E-01  0.30268484866E+02 -0.62242456652E+02  0.47515652022E+03  0.47008872877E+03 0.  0.
         13    1    3    3    0    0 -0.19996309099E+03  0.75907036009E+02  0.76951565264E+02  0.22730741139E+03  0.00000000000E+00 0.  1.
          1    1    3    3  501    0  0.19992830631E+03 -0.45638551143E+02 -0.13919402192E+03  0.24784910884E+03  0.00000000000E+00 0.  1.
         21    1    1    2  502  501  0.34784680274E-01 -0.30268484866E+02  0.30052980414E+02  0.42654003538E+02  0.00000000000E+00 0. -1.
<scales pt_clust_4="550.00000" pt_clust_5="550.00000" pt_clust_6="30.26850"></scales>
<mgrwt>
<rscale>  0 0.30000000E+03</rscale>
<asrwt>  1 0.30268505E+02</asrwt>
<pdfrwt beam="1">  1        1 0.88294736E+00 0.30000000E+03</pdfrwt>
<pdfrwt beam="2">0</pdfrwt>
<totfact> 0.18595592E-04</totfact>
</mgrwt>
<clustering>
<clus scale="   30.269">  1  6  2 -1</clus>
<clus scale="  470.089">  4  5 -1 -1</clus>
<clus scale="  300.000">  1  4  2 -1</clus>
</clustering>
</event>
<event>
 6    1  0.1029244E-011  0.3000000E+03  0.7818608E-02  0.1093470E+00
          1   -1    0    0  502    0  0.00000000000E+00  0.00000000000E+00  0.24292683041E+03  0.24292683041E+03  0.00000000000E+00 0.  1.
         13   -1    0    0    0    0 -0.00000000000E+00 -0.00000000000E+00 -0.27500000000E+03  0.27500000000E+03  0.00000000000E+00 0.  1.
    9000005    2    1    2  501    0 -0.31801395997E+02  0.36812904357E+02 -0.41083681168E+02  0.46845251350E+03  0.46410491253E+03 0.  0.
         13    1    3    3    0    0  0.15679387599E+03 -0.98698535296E+01 -0.17294168815E+03  0.23364623057E+03  0.00000000000E+00 0.  1.
          3    1    3    3  501    0 -0.18859527199E+03  0.46682757887E+02  0.13185800698E+03  0.23480628294E+03  0.00000000000E+00 0.  1.
         21    1    1    2  502  501  0.31801395997E+02 -0.36812904357E+02  0.90105115782E+01  0.49474316907E+02  0.00000000000E+00 0.  1.
<scales pt_clust_4="550.00000" pt_clust_5="550.00000" pt_clust_6="48.64688"></scales>
<mgrwt>
<rscale>  0 0.30000000E+03</rscale>
<asrwt>  1 0.48646878E+02</asrwt>
<pdfrwt beam="1">  1        1 0.88337029E+00 0.30000000E+03</pdfrwt>
<pdfrwt beam="2">0</pdfrwt>
<totfact> 0.16820967E-04</totfact>
</mgrwt>
<clustering>
<clus scale="   48.647">  1  6  2 -1</clus>
<clus scale="  464.105">  4  5 -1 -1</clus>
<clus scale="  300.000">  1  4  2 -1</clus>
</clustering>
</event>
<event>
 6    1  0.1029244E-011  0.3000000E+03  0.7818608E-02  0.1093470E+00
          1   -1    0    0  502    0  0.00000000000E+00  0.00000000000E+00  0.22583491407E+03  0.22583491407E+03  0.00000000000E+00 0.  1.
         13   -1    0    0    0    0 -0.00000000000E+00 -0.00000000000E+00 -0.27500000000E+03  0.27500000000E+03  0.00000000000E+00 0.  1.
    9000005    2    1    2  501    0  0.28305392857E+02  0.23771421184E+02 -0.48688826487E+02  0.46386867876E+03  0.45982308944E+03 0.  0.
         13    1    3    3    0    0  0.20536412343E+03  0.28367656711E+01 -0.15408159621E+03  0.25675593221E+03  0.00000000000E+00 0.  1.
          1    1    3    3  501    0 -0.17705873058E+03  0.20934655513E+02  0.10539276972E+03  0.20711274655E+03  0.00000000000E+00 0.  1.
         21    1    1    2  502  501 -0.28305392857E+02 -0.23771421184E+02 -0.47625944174E+00  0.36966235310E+02  0.00000000000E+00 0. -1.
<scales pt_clust_4="550.00000" pt_clust_5="550.00000" pt_clust_6="36.96317"></scales>
<mgrwt>
<rscale>  0 0.30000000E+03</rscale>
<asrwt>  1 0.36963167E+02</asrwt>
<pdfrwt beam="1">  1        1 0.82121787E+00 0.30000000E+03</pdfrwt>
<pdfrwt beam="2">0</pdfrwt>
<totfact> 0.69866713E-04</totfact>
</mgrwt>
<clustering>
<clus scale="   36.963">  1  6  2 -1</clus>
<clus scale="  459.823">  4  5 -1 -1</clus>
<clus scale="  300.000">  1  4  2 -1</clus>
</clustering>
</event>
<event>
 6    1  0.1029244E-011  0.3000000E+03  0.7818608E-02  0.1093470E+00
          1   -1    0    0  502    0  0.00000000000E+00  0.00000000000E+00  0.22740404389E+03  0.22740404389E+03  0.00000000000E+00 0.  1.
         13   -1    0    0    0    0 -0.00000000000E+00 -0.00000000000E+00 -0.27500000000E+03  0.27500000000E+03  0.00000000000E+00 0.  1.
    9000005    2    1    2  501    0 -0.46906454609E+01 -0.32117266779E+02 -0.70448470018E+02  0.46270822078E+03  0.45616048675E+03 0.  0.
         13    1    3    3    0    0 -0.47714120927E+02 -0.13487872773E+03  0.15518439422E+03  0.21107132619E+03  0.00000000000E+00 0.  1.
          3    1    3    3  501    0  0.43023475466E+02  0.10276146095E+03 -0.22563286424E+03  0.25163689460E+03  0.00000000000E+00 0.  1.
         21    1    1    2  502  501  0.46906454609E+01  0.32117266779E+02  0.22852513909E+02  0.39695823108E+02  0.00000000000E+00 0. -1.
<scales pt_clust_4="550.00000" pt_clust_5="550.00000" pt_clust_6="32.45799"></scales>
<mgrwt>
<rscale>  0 0.30000000E+03</rscale>
<asrwt>  1 0.32457988E+02</asrwt>
<pdfrwt beam="1">  1        1 0.82692380E+00 0.30000000E+03</pdfrwt>
<pdfrwt beam="2">0</pdfrwt>
<totfact> 0.63697399E-04</totfact>
</mgrwt>
<clustering>
<clus scale="   32.458">  1  6  2 -1</clus>
<clus scale="  456.160">  4  5 -1 -1</clus>
<clus scale="  300.000">  1  4  2 -1</clus>
</clustering>
</event>
<event>
 6    1  0.1029244E-011  0.3000000E+03  0.7818608E-02  0.1093470E+00
          1   -1    0    0  502    0  0.00000000000E+00  0.00000000000E+00  0.24420992339E+03  0.24420992339E+03  0.00000000000E+00 0.  1.
         13   -1    0    0    0    0 -0.00000000000E+00 -0.00000000000E+00 -0.27500000000E+03  0.27500000000E+03  0.00000000000E+00 0.  1.
    9000005    2    1    2  501    0 -0.28638646036E+02 -0.23501997112E+02 -0.43223642501E+02  0.48013167527E+03  0.47674482316E+03 0.  0.
         13    1    3    3    0    0  0.97269597170E+02  0.19929685171E+03 -0.31024515335E+02  0.22392661786E+03  0.00000000000E+00 0.  1.
          1    1    3    3  501    0 -0.12590824321E+03 -0.22279884882E+03 -0.12199127166E+02  0.25620505742E+03  0.00000000000E+00 0.  1.
         21    1    1    2  502  501  0.28638646036E+02  0.23501997112E+02  0.12433565891E+02  0.39078248116E+02  0.00000000000E+00 0.  1.
<scales pt_clust_4="550.00000" pt_clust_5="550.00000" pt_clust_6="37.04748"></scales>
<mgrwt>
<rscale>  0 0.30000000E+03</rscale>
<asrwt>  1 0.37047482E+02</asrwt>
<pdfrwt beam="1">  1        1 0.88803609E+00 0.30000000E+03</pdfrwt>
<pdfrwt beam="2">0</pdfrwt>
<totfact> 0.15249734E-04</totfact>
</mgrwt>
<clustering>
<clus scale="   37.047">  1  6  2 -1</clus>
<clus scale="  476.745">  4  5 -1 -1</clus>
<clus scale="  300.000">  1  4  2 -1</clus>
</clustering>
</event>
<event>
 6    1  0.1029244E-011  0.3000000E+03  0.7818608E-02  0.1093470E+00
          1   -1    0    0  502    0  0.00000000000E+00  0.00000000000E+00  0.23132552950E+03  0.23132552950E+03  0.00000000000E+00 0.  1.
         13   -1    0    0    0    0 -0.00000000000E+00 -0.00000000000E+00 -0.27500000000E+03  0.27500000000E+03  0.00000000000E+00 0.  1.
    9000005    2    1    2  501    0  0.14190457830E+02 -0.32453678800E+02 -0.61285475605E+02  0.46676850911E+03  0.46137004803E+03 0.  0.
         13    1    3    3    0    0  0.11995885159E+02 -0.11533859371E+03  0.17860824468E+03  0.21295022312E+03  0.00000000000E+00 0.  1.
          3    1    3    3  501    0  0.21945726708E+01  0.82884914913E+02 -0.23989372029E+03  0.25381828599E+03  0.00000000000E+00 0.  1.
         21    1    1    2  502  501 -0.14190457830E+02  0.32453678800E+02  0.17611005102E+02  0.39557020386E+02  0.00000000000E+00 0.  1.
<scales pt_clust_4="550.00000" pt_clust_5="550.00000" pt_clust_6="35.42048"></scales>
<mgrwt>
<rscale>  0 0.30000000E+03</rscale>
<asrwt>  1 0.35420479E+02</asrwt>
<pdfrwt beam="1">  1        1 0.84118374E+00 0.30000000E+03</pdfrwt>
<pdfrwt beam="2">0</pdfrwt>
<totfact> 0.48546633E-04</totfact>
</mgrwt>
<clustering>
<clus scale="   35.420">  1  6  2 -1</clus>
<clus scale="  461.370">  4  5 -1 -1</clus>
<clus scale="  300.000">  1  4  2 -1</clus>
</clustering>
</event>
<event>
 6    1  0.1029244E-011  0.3000000E+03  0.7818608E-02  0.1093470E+00
          1   -1    0    0  502    0  0.00000000000E+00  0.00000000000E+00  0.23478875401E+03  0.23478875401E+03  0.00000000000E+00 0.  1.
         13   -1    0    0    0    0 -0.00000000000E+00 -0.00000000000E+00 -0.27500000000E+03  0.27500000000E+03  0.00000000000E+00 0.  1.
    9000005    2    1    2  501    0 -0.16069920130E+02  0.38146330228E+02 -0.40976438783E+02  0.46838862885E+03  0.46475311108E+03 0.  0.
         13    1    3    3    0    0  0.58361539325E+02 -0.19952769925E+03 -0.65913682648E+02  0.21808710553E+03  0.00000000000E+00 0.  1.
          1    1    3    3  501    0 -0.74431459455E+02  0.23767402948E+03  0.24937243865E+02  0.25030152332E+03  0.00000000000E+00 0.  1.
         21    1    1    2  502  501  0.16069920130E+02 -0.38146330228E+02  0.76519278923E+00  0.41400125155E+02  0.00000000000E+00 0. -1.
<scales pt_clust_4="550.00000" pt_clust_5="550.00000" pt_clust_6="41.39305"></scales>
<mgrwt>
<rscale>  0 0.30000000E+03</rscale>
<asrwt>  1 0.41393053E+02</asrwt>
<pdfrwt beam="1">  1        1 0.85377729E+00 0.30000000E+03</pdfrwt>
<pdfrwt beam="2">0</pdfrwt>
<totfact> 0.36312867E-04</totfact>
</mgrwt>
<clustering>
<clus scale="   41.393">  1  6  2 -1</clus>
<clus scale="  464.753">  4  5 -1 -1</clus>
<clus scale="  300.000">  1  4  2 -1</clus>
</clustering>
</event>
<event>
 6    1  0.1029244E-011  0.3000000E+03  0.7818608E-02  0.1093470E+00
          1   -1    0    0  502    0  0.00000000000E+00  0.00000000000E+00  0.23570211438E+03  0.23570211438E+03  0.00000000000E+00 0.  1.
         13   -1    0    0    0    0 -0.00000000000E+00 -0.00000000000E+00 -0.27500000000E+03  0.27500000000E+03  0.00000000000E+00 0.  1.
    9000005    2    1    2  501    0 -0.17624410223E+01 -0.32459269786E+02 -0.39021666438E+02  0.47819385866E+03  0.47548918559E+03 0.  0.
         13    1    3    3    0    0 -0.35509823372E+02 -0.13830334736E+03  0.18169911953E+03  0.23109161275E+03  0.00000000000E+00 0.  1.
          1    1    3    3  501    0  0.33747382350E+02  0.10584407757E+03 -0.22072078597E+03  0.24710224590E+03  0.00000000000E+00 0.  1.
         21    1    1    2  502  501  0.17624410223E+01  0.32459269786E+02 -0.27621917681E+00  0.32508255728E+02  0.00000000000E+00 0.  1.
<scales pt_clust_4="550.00000" pt_clust_5="550.00000" pt_clust_6="32.50708"></scales>
<mgrwt>
<rscale>  0 0.30000000E+03</rscale>
<asrwt>  1 0.32507082E+02</asrwt>
<pdfrwt beam="1">  1        1 0.85709860E+00 0.30000000E+03</pdfrwt>
<pdfrwt beam="2">0</pdfrwt>
<totfact> 0.35182425E-04</totfact>
</mgrwt>
<clustering>
<clus scale="   32.507">  1  6  2 -1</clus>
<clus scale="  475.489">  4  5 -1 -1</clus>
<clus scale="  300.000">  1  4  2 -1</clus>
</clustering>
</event>
<event>
 6    1  0.1029244E-011  0.3000000E+03  0.7818608E-02  0.1093470E+00
          1   -1    0    0  502    0  0.00000000000E+00  0.00000000000E+00  0.23020927531E+03  0.23020927531E+03  0.00000000000E+00 0.  1.
         13   -1    0    0    0    0 -0.00000000000E+00 -0.00000000000E+00 -0.27500000000E+03  0.27500000000E+03  0.00000000000E+00 0.  1.
    9000005    2    1    2  501    0  0.71446999463E+01 -0.29172798376E+02 -0.51175137996E+02  0.47450325577E+03  0.47077844692E+03 0.  0.
         13    1    3    3    0    0 -0.14143356017E+03 -0.19498847069E+03  0.17477967371E+02  0.24151487529E+03  0.00000000000E+00 0.  1.
          1    1    3    3  501    0  0.14857826011E+03  0.16581567231E+03 -0.68653105367E+02  0.23298838048E+03  0.00000000000E+00 0.  1.
         21    1    1    2  502  501 -0.71446999463E+01  0.29172798376E+02  0.63844133034E+01  0.30706019534E+02  0.00000000000E+00 0. -1.
<scales pt_clust_4="550.00000" pt_clust_5="550.00000" pt_clust_6="30.03496"></scales>
<mgrwt>
<rscale>  0 0.30000000E+03</rscale>
<asrwt>  1 0.30034961E+02</asrwt>
<pdfrwt beam="1">  1        1 0.83712464E+00 0.30000000E+03</pdfrwt>
<pdfrwt beam="2">0</pdfrwt>
<totfact> 0.53747833E-04</totfact>
</mgrwt>
<clustering>
<clus scale="   30.035">  1  6  2 -1</clus>
<clus scale="  470.778">  4  5 -1 -1</clus>
<clus scale="  300.000">  1  4  2 -1</clus>
</clustering>
</event>
<event>
 6    1  0.1029244E-011  0.3000000E+03  0.7818608E-02  0.1093470E+00
          1   -1    0    0  502    0  0.00000000000E+00  0.00000000000E+00  0.23991016376E+03  0.23991016376E+03  0.00000000000E+00 0.  1.
         13   -1    0    0    0    0 -0.00000000000E+00 -0.00000000000E+00 -0.27500000000E+03  0.27500000000E+03  0.00000000000E+00 0.  1.
    9000005    2    1    2  501    0 -0.10865449500E+02 -0.28925438719E+02 -0.69991923386E+02  0.46829584531E+03  0.46200366924E+03 0.  0.
         13    1    3    3    0    0  0.16264505545E+02 -0.21568977335E+03  0.76454199418E+02  0.22941634004E+03  0.00000000000E+00 0.  1.
          3    1    3    3  501    0 -0.27129955046E+02  0.18676433463E+03 -0.14644612280E+03  0.23887950527E+03  0.00000000000E+00 0.  1.
         21    1    1    2  502  501  0.10865449500E+02  0.28925438719E+02  0.34902087149E+02  0.46614318458E+02  0.00000000000E+00 0.  1.
<scales pt_clust_4="550.00000" pt_clust_5="550.00000" pt_clust_6="30.89885"></scales>
<mgrwt>
<rscale>  0 0.30000000E+03</rscale>
<asrwt>  1 0.30898851E+02</asrwt>
<pdfrwt beam="1">  1        1 0.87240060E+00 0.30000000E+03</pdfrwt>
<pdfrwt beam="2">0</pdfrwt>
<totfact> 0.24505937E-04</totfact>
</mgrwt>
<clustering>
<clus scale="   30.899">  1  6  2 -1</clus>
<clus scale="  462.004">  4  5 -1 -1</clus>
<clus scale="  300.000">  1  4  2 -1</clus>
</clustering>
</event>
<event>
 6    1  0.1029244E-011  0.3000000E+03  0.7818608E-02  0.1093470E+00
          1   -1    0    0  502    0  0.00000000000E+00  0.00000000000E+00  0.24532812146E+03  0.24532812146E+03  0.00000000000E+00 0.  1.
         13   -1    0    0    0    0 -0.00000000000E+00 -0.00000000000E+00 -0.27500000000E+03  0.27500000000E+03  0.00000000000E+00 0.  1.
    9000005    2    1    2  501    0  0.39082298229E+02  0.11761378294E+01 -0.19734082043E+02  0.47998497912E+03  0.47798256961E+03 0.  0.
         13    1    3    3    0    0  0.56159328582E+02  0.10728490175E+03 -0.22089736964E+03  0.25191182633E+03  0.00000000000E+00 0.  1.
          1    1    3    3  501    0 -0.17077030352E+02 -0.10610876393E+03  0.20116328759E+03  0.22807315279E+03  0.00000000000E+00 0.  1.
         21    1    1    2  502  501 -0.39082298229E+02 -0.11761378294E+01 -0.99377964952E+01  0.40343142345E+02  0.00000000000E+00 0.  1.
<scales pt_clust_4="550.00000" pt_clust_5="550.00000" pt_clust_6="39.10001"></scales>
<mgrwt>
<rscale>  0 0.30000000E+03</rscale>
<asrwt>  1 0.39100011E+02</asrwt>
<pdfrwt beam="1">  1        1 0.89210226E+00 0.30000000E+03</pdfrwt>
<pdfrwt beam="2">0</pdfrwt>
<totfact> 0.13349378E-04</totfact>
</mgrwt>
<clustering>
<clus scale="   39.100">  1  6  2 -1</clus>
<clus scale="  477.983">  4  5 -1 -1</clus>
<clus scale="  300.000">  1  4  2 -1</clus>
</clustering>
</event>
<event>
 6    1  0.1029244E-011  0.3000000E+03  0.7818608E-02  0.1093470E+00
          1   -1    0    0  502    0  0.00000000000E+00  0.00000000000E+00  0.22606315981E+03  0.22606315981E+03  0.00000000000E+00 0.  1.
         13   -1    0    0    0    0 -0.00000000000E+00 -0.00000000000E+00 -0.27500000000E+03  0.27500000000E+03  0.00000000000E+00 0.  1.
    9000005    2    1    2  501    0 -0.23885934688E+02  0.20735360089E+02 -0.63091968590E+02  0.46640972284E+03  0.46103897885E+03 0.  0.
         13    1    3    3    0    0  0.63420108943E+02 -0.49976482374E+02  0.18073047726E+03  0.19794763050E+03  0.00000000000E+00 0.  1.
          1    1    3    3  501    0 -0.87306043631E+02  0.70711842463E+02 -0.24382244585E+03  0.26846209234E+03  0.00000000000E+00 0.  1.
         21    1    1    2  502  501  0.23885934688E+02 -0.20735360089E+02  0.14155128398E+02  0.34653436971E+02  0.00000000000E+00 0.  1.
<scales pt_clust_4="550.00000" pt_clust_5="550.00000" pt_clust_6="31.63057"></scales>
<mgrwt>
<rscale>  0 0.30000000E+03</rscale>
<asrwt>  1 0.31630571E+02</asrwt>
<pdfrwt beam="1">  1        1 0.82204785E+00 0.30000000E+03</pdfrwt>
<pdfrwt beam="2">0</pdfrwt>
<totfact> 0.70738164E-04</totfact>
</mgrwt>
<clustering>
<clus scale="   31.631">  1  6  2 -1</clus>
<clus scale="  461.039">  4  5 -1 -1</clus>
<clus scale="  300.000">  1  4  2 -1</clus>
</clustering>
</event>
<event>
 6    1  0.1029244E-011  0.3000000E+03  0.7818608E-02  0.1093470E+00
          1   -1    0    0  502    0  0.00000000000E+00  0.00000000000E+00  0.24869028792E+03  0.24869028792E+03  0.00000000000E+00 0.  1.
         13   -1    0    0    0    0 -0.00000000000E+00 -0.00000000000E+00 -0.27500000000E+03  0.27500000000E+03  0.00000000000E+00 0.  1.
    9000005    2    1    2  501    0 -0.17682318596E+02 -0.30548245142E+02 -0.32589518841E+02  0.48783926778E+03  0.48546803682E+03 0.  0.
         13    1    3    3    0    0 -0.80545358449E+01  0.19900181158E+03 -0.13048258793E+03  0.23810145383E+03  0.00000000000E+00 0.  1.
          3    1    3    3  501    0 -0.96277827513E+01 -0.22955005672E+03  0.97893069093E+02  0.24973781395E+03  0.00000000000E+00 0.  1.
         21    1    1    2  502  501  0.17682318596E+02  0.30548245142E+02  0.62798067604E+01  0.35851020141E+02  0.00000000000E+00 0. -1.
<scales pt_clust_4="550.00000" pt_clust_5="550.00000" pt_clust_6="35.29674"></scales>
<mgrwt>
<rscale>  0 0.30000000E+03</rscale>
<asrwt>  1 0.35296737E+02</asrwt>
<pdfrwt beam="1">  1        1 0.90432832E+00 0.30000000E+03</pdfrwt>
<pdfrwt beam="2">0</pdfrwt>
<totfact> 0.94989134E-05</totfact>
</mgrwt>
<clustering>
<clus scale="   35.297">  1  6  2 -1</clus>
<clus scale="  485.468">  4  5 -1 -1</clus>
<clus scale="  300.000">  1  4  2 -1</clus>
</clustering>
</event>
<event>
 6    1  0.1029244E-011  0.3000000E+03  0.7818608E-02  0.1093470E+00
          1   -1    0    0  502    0  0.00000000000E+00  0.00000000000E+00  0.22673827252E+03  0.22673827252E+03  0.00000000000E+00 0.  1.
         13   -1    0    0    0    0 -0.00000000000E+00 -0.00000000000E+00 -0.27500000000E+03  0.27500000000E+03  0.00000000000E+00 0.  1.
    9000005    2    1    2  501    0  0.70064881715E+01 -0.32741880696E+02 -0.64839035240E+02  0.46437614248E+03  0.45860656296E+03 0.  0.
         13    1    3    3    0    0  0.12713829586E+03 -0.86362678746E+02  0.14851248506E+03  0.21372556416E+03  0.00000000000E+00 0.  1.
          3    1    3    3  501    0 -0.12013180769E+03  0.53620798050E+02 -0.21335152030E+03  0.25065057833E+03  0.00000000000E+00 0.  1.
         21    1    1    2  502  501 -0.70064881715E+01  0.32741880696E+02  0.16577307756E+02  0.37362130031E+02  0.00000000000E+00 0. -1.
<scales pt_clust_4="550.00000" pt_clust_5="550.00000" pt_clust_6="33.48315"></scales>
<mgrwt>
<rscale>  0 0.30000000E+03</rscale>
<asrwt>  1 0.33483154E+02</asrwt>
<pdfrwt beam="1">  1        1 0.82450281E+00 0.30000000E+03</pdfrwt>
<pdfrwt beam="2">0</pdfrwt>
<totfact> 0.66539858E-04</totfact>
</mgrwt>
<clustering>
<clus scale="   33.483">  1  6  2 -1</clus>
<clus scale="  458.607">  4  5 -1 -1</clus>
<clus scale="  300.000">  1  4  2 -1</clus>
</clustering>
</event>
<event>
 6    1  0.1029244E-011  0.3000000E+03  0.7818608E-02  0.1093470E+00
          1   -1    0    0  502    0  0.00000000000E+00  0.00000000000E+00  0.22009650440E+03  0.22009650440E+03  0.00000000000E+00 0.  1.
         13   -1    0    0    0    0 -0.00000000000E+00 -0.00000000000E+00 -0.27500000000E+03  0.27500000000E+03  0.00000000000E+00 0.  1.
    9000005    2    1    2  501    0 -0.19828117050E+02  0.26651852388E+02 -0.54324922184E+02  0.46187286509E+03  0.45746242564E+03 0.  0.
         13    1    3    3    0    0  0.10860372227E+03 -0.13699734875E+03  0.10132155503E+03  0.20206211810E+03  0.00000000000E+00 0.  1.
          1    1    3    3  501    0 -0.12843183933E+03  0.16364920113E+03 -0.15564647722E+03  0.25981074699E+03  0.00000000000E+00 0.  1.
         21    1    1    2  502  501  0.19828117050E+02 -0.26651852388E+02 -0.57857342012E+00  0.33223639305E+02  0.00000000000E+00 0. -1.
<scales pt_clust_4="550.00000" pt_clust_5="550.00000" pt_clust_6="33.21860"></scales>
<mgrwt>
<rscale>  0 0.30000000E+03</rscale>
<asrwt>  1 0.33218601E+02</asrwt>
<pdfrwt beam="1">  1        1 0.80035093E+00 0.30000000E+03</pdfrwt>
<pdfrwt beam="2">0</pdfrwt>
<totfact> 0.10411536E-03</totfact>
</mgrwt>
<clustering>
<clus scale="   33.219">  1  6  2 -1</clus>
<clus scale="  457.462">  4  5 -1 -1</clus>
<clus scale="  300.000">  1  4  2 -1</clus>
</clustering>
</event>
<event>
 6    1  0.1029244E-011  0.3000000E+03  0.7818608E-02  0.1093470E+00
          1   -1    0    0  502    0  0.00000000000E+00  0.00000000000E+00  0.22779622200E+03  0.22779622200E+03  0.00000000000E+00 0.  1.
         13   -1    0    0    0    0 -0.00000000000E+00 -0.00000000000E+00 -0.27500000000E+03  0.27500000000E+03  0.00000000000E+00 0.  1.
    9000005    2    1    2  501    0  0.13980649360E+02  0.31878858551E+02 -0.50206563844E+02  0.46785717648E+03  0.46385118126E+03 0.  0.
         13    1    3    3    0    0  0.85314276461E+02  0.17372293711E+03  0.12579012253E+03  0.23082751043E+03  0.00000000000E+00 0.  1.
          3    1    3    3  501    0 -0.71333627101E+02 -0.14184407855E+03 -0.17599668637E+03  0.23702966606E+03  0.00000000000E+00 0.  1.
         21    1    1    2  502  501 -0.13980649360E+02 -0.31878858551E+02  0.30027858483E+01  0.34939045520E+02  0.00000000000E+00 0. -1.
<scales pt_clust_4="550.00000" pt_clust_5="550.00000" pt_clust_6="34.80977"></scales>
<mgrwt>
<rscale>  0 0.30000000E+03</rscale>
<asrwt>  1 0.34809771E+02</asrwt>
<pdfrwt beam="1">  1        1 0.82834990E+00 0.30000000E+03</pdfrwt>
<pdfrwt beam="2">0</pdfrwt>
<totfact> 0.61090817E-04</totfact>
</mgrwt>
<clustering>
<clus scale="   34.810">  1  6  2 -1</clus>
<clus scale="  463.851">  4  5 -1 -1</clus>
<clus scale="  300.000">  1  4  2 -1</clus>
</clustering>
</event>
<event>
 6    1  0.1029244E-011  0.3000000E+03  0.7818608E-02  0.1093470E+00
          1   -1    0    0  502    0  0.00000000000E+00  0.00000000000E+00  0.23501919042E+03  0.23501919042E+03  0.00000000000E+00 0.  1.
         13   -1    0    0    0    0 -0.00000000000E+00 -0.00000000000E+00 -0.27500000000E+03  0.27500000000E+03  0.00000000000E+00 0.  1.
    9000005    2    1    2  501    0  0.63941997421E+01  0.32077638675E+02 -0.41854883194E+02  0.47725682108E+03  0.47429145188E+03 0.  0.
         13    1    3    3    0    0 -0.22994101868E+03 -0.12665366414E+02 -0.53570649958E+02  0.23643836007E+03  0.00000000000E+00 0.  1.
          3    1    3    3  501    0  0.23633521842E+03  0.44743005089E+02  0.11715766764E+02  0.24081846100E+03  0.00000000000E+00 0.  1.
         21    1    1    2  502  501 -0.63941997421E+01 -0.32077638675E+02  0.18740736178E+01  0.32762369347E+02  0.00000000000E+00 0.  1.
<scales pt_clust_4="550.00000" pt_clust_5="550.00000" pt_clust_6="32.70873"></scales>
<mgrwt>
<rscale>  0 0.30000000E+03</rscale>
<asrwt>  1 0.32708725E+02</asrwt>
<pdfrwt beam="1">  1        1 0.85461524E+00 0.30000000E+03</pdfrwt>
<pdfrwt beam="2">0</pdfrwt>
<totfact> 0.37225187E-04</totfact>
</mgrwt>
<clustering>
<clus scale="   32.709">  1  6  2 -1</clus>
<clus scale="  474.291">  4  5 -1 -1</clus>
<clus scale="  300.000">  1  4  2 -1</clus>
</clustering>
</event>
<event>
 6    1  0.1029244E-011  0.3000000E+03  0.7818608E-02  0.1093470E+00
          1   -1    0    0  502    0  0.00000000000E+00  0.00000000000E+00  0.24070064966E+03  0.24070064966E+03  0.00000000000E+00 0.  1.
         13   -1    0    0    0    0 -0.00000000000E+00 -0.00000000000E+00 -0.27500000000E+03  0.27500000000E+03  0.00000000000E+00 0.  1.
    9000005    2    1    2  501    0  0.13516599358E+02 -0.28214532847E+02 -0.50739853212E+02  0.48035877001E+03  0.47664584012E+03 0.  0.
         13    1    3    3    0    0 -0.16496411599E+03 -0.32097282752E+02 -0.19020783132E+03  0.25381570917E+03  0.00000000000E+00 0.  1.
          1    1    3    3  501    0  0.17848071535E+03  0.38827499048E+01  0.13946797811E+03  0.22654306084E+03  0.00000000000E+00 0.  1.
         21    1    1    2  502  501 -0.13516599358E+02  0.28214532847E+02  0.16440502868E+02  0.35341879640E+02  0.00000000000E+00 0.  1.
<scales pt_clust_4="550.00000" pt_clust_5="550.00000" pt_clust_6="31.28511"></scales>
<mgrwt>
<rscale>  0 0.30000000E+03</rscale>
<asrwt>  1 0.31285113E+02</asrwt>
<pdfrwt beam="1">  1        1 0.87527509E+00 0.30000000E+03</pdfrwt>
<pdfrwt beam="2">0</pdfrwt>
<totfact> 0.22820950E-04</totfact>
</mgrwt>
<clustering>
<clus scale="   31.285">  1  6  2 -1</clus>
<clus scale="  476.646">  4  5 -1 -1</clus>
<clus scale="  300.000">  1  4  2 -1</clus>
</clustering>
</event>
<event>
 6    1  0.1029244E-011  0.3000000E+03  0.7818608E-02  0.1093470E+00
          1   -1    0    0  502    0  0.00000000000E+00  0.00000000000E+00  0.23750653669E+03  0.23750653669E+03  0.00000000000E+00 0.  1.
         13   -1    0    0    0    0 -0.00000000000E+00 -0.00000000000E+00 -0.27500000000E+03  0.27500000000E+03  0.00000000000E+00 0.  1.
    9000005    2    1    2  501    0 -0.12954590846E+02 -0.47109121034E+02 -0.18719587430E+02  0.46016583432E+03  0.45718167222E+03 0.  0.
         13    1    3    3    0    0 -0.13512908495E+03 -0.18547719796E+03 -0.10972478607E+03  0.25436428452E+03  0.00000000000E+00 0.  1.
          3    1    3    3  501    0  0.12217449410E+03  0.13836807693E+03  0.91005198637E+02  0.20580154980E+03  0.00000000000E+00 0.  1.
         21    1    1    2  502  501  0.12954590846E+02  0.47109121034E+02 -0.18773875880E+02  0.52340702366E+02  0.00000000000E+00 0. -1.
<scales pt_clust_4="550.00000" pt_clust_5="550.00000" pt_clust_6="48.85789"></scales>
<mgrwt>
<rscale>  0 0.30000000E+03</rscale>
<asrwt>  1 0.48857887E+02</asrwt>
<pdfrwt beam="1">  1        1 0.86366013E+00 0.30000000E+03</pdfrwt>
<pdfrwt beam="2">0</pdfrwt>
<totfact> 0.27802989E-04</totfact>
</mgrwt>
<clustering>
<clus scale="   48.858">  1  6  2 -1</clus>
<clus scale="  457.182">  4  5 -1 -1</clus>
<clus scale="  300.000">  1  4  2 -1</clus>
</clustering>
</event>
<event>
 6    1  0.1029244E-011  0.3000000E+03  0.7818608E-02  0.1093470E+00
          1   -1    0    0  502    0  0.00000000000E+00  0.00000000000E+00  0.24171385925E+03  0.24171385925E+03  0.00000000000E+00 0.  1.
         13   -1    0    0    0    0 -0.00000000000E+00 -0.00000000000E+00 -0.27500000000E+03  0.27500000000E+03  0.00000000000E+00 0.  1.
    9000005    2    1    2  501    0  0.35308715233E+02  0.68911754507E+01 -0.67436520347E+02  0.46711101561E+03  0.46081538924E+03 0.  0.
         13    1    3    3    0    0 -0.15170948284E+02 -0.22387334470E+03 -0.13390632710E+02  0.22478598974E+03  0.00000000000E+00 0.  1.
          1    1    3    3  501    0  0.50479663517E+02  0.23076452015E+03 -0.54045887637E+02  0.24232502587E+03  0.00000000000E+00 0.  1.
         21    1    1    2  502  501 -0.35308715233E+02 -0.68911754507E+01  0.34150379599E+02  0.49602843641E+02  0.00000000000E+00 0.  1.
<scales pt_clust_4="550.00000" pt_clust_5="550.00000" pt_clust_6="35.97490"></scales>
<mgrwt>
<rscale>  0 0.30000000E+03</rscale>
<asrwt>  1 0.35974903E+02</asrwt>
<pdfrwt beam="1">  1        1 0.87895949E+00 0.30000000E+03</pdfrwt>
<pdfrwt beam="2">0</pdfrwt>
<totfact> 0.20214949E-04</totfact>
</mgrwt>
<clustering>
<clus scale="   35.975">  1  6  2 -1</clus>
<clus scale="  460.815">  4  5 -1 -1</clus>
<clus scale="  300.000">  1  4  2 -1</clus>
</clustering>
</event>
<event>
 6    1  0.1029244E-011  0.3000000E+03  0.7818608E-02  0.1093470E+00
          1   -1    0    0  502    0  0.00000000000E+00  0.00000000000E+00  0.25160850006E+03  0.25160850006E+03  0.00000000000E+00 0.  1.
         13   -1    0    0    0    0 -0.00000000000E+00 -0.00000000000E+00 -0.27500000000E+03  0.27500000000E+03  0.00000000000E+00 0.  1.
    9000005    2    1    2  501    0  0.15387867920E+02  0.35804299824E+02 -0.11266083745E+02  0.48579477587E+03  0.48409803269E+03 0.  0.
         13    1    3    3    0    0  0.23416328429E+03 -0.68917963266E+01  0.76199173485E+02  0.24634580290E+03  0.00000000000E+00 0.  1.
          3    1    3    3  501    0 -0.21877541637E+03  0.42696096150E+02 -0.87465257230E+02  0.23944897297E+03  0.00000000000E+00 0.  1.
         21    1    1    2  502  501 -0.15387867920E+02 -0.35804299824E+02 -0.12125416191E+02  0.40813724196E+02  0.00000000000E+00 0. -1.
<scales pt_clust_4="550.00000" pt_clust_5="550.00000" pt_clust_6="38.97096"></scales>
<mgrwt>
<rscale>  0 0.30000000E+03</rscale>
<asrwt>  1 0.38970962E+02</asrwt>
<pdfrwt beam="1">  1        1 0.91494000E+00 0.30000000E+03</pdfrwt>
<pdfrwt beam="2">0</pdfrwt>
<totfact> 0.53249945E-05</totfact>
</mgrwt>
<clustering>
<clus scale="   38.971">  1  6  2 -1</clus>
<clus scale="  484.098">  4  5 -1 -1</clus>
<clus scale="  300.000">  1  4  2 -1</clus>
</clustering>
</event>
<event>
 6    1  0.1029244E-011  0.3000000E+03  0.7818608E-02  0.1093470E+00
          1   -1    0    0  502    0  0.00000000000E+00  0.00000000000E+00  0.23126361358E+03  0.23126361358E+03  0.00000000000E+00 0.  1.
         13   -1    0    0    0    0 -0.00000000000E+00 -0.00000000000E+00 -0.27500000000E+03  0.27500000000E+03  0.00000000000E+00 0.  1.
    9000005    2    1    2  501    0 -0.29741482603E+02 -0.16011972652E+02 -0.42053252829E+02  0.47244391526E+03  0.46935470376E+03 0.  0.
         13    1    3    3    0    0  0.17676932601E+03 -0.47291123636E+02  0.11053293242E+03  0.21377879722E+03  0.00000000000E+00 0.  1.
          3    1    3    3  501    0 -0.20651080861E+03  0.31279150984E+02 -0.15258618525E+03  0.25866511804E+03  0.00000000000E+00 0.  1.
         21    1    1    2  502  501  0.29741482603E+02  0.16011972652E+02 -0.16831335919E+01  0.33819698318E+02  0.00000000000E+00 0. -1.
<scales pt_clust_4="550.00000" pt_clust_5="550.00000" pt_clust_6="33.77779"></scales>
<mgrwt>
<rscale>  0 0.30000000E+03</rscale>
<asrwt>  1 0.33777789E+02</asrwt>
<pdfrwt beam="1">  1        1 0.84095859E+00 0.30000000E+03</pdfrwt>
<pdfrwt beam="2">0</pdfrwt>
<totfact> 0.49183293E-04</totfact>
</mgrwt>
<clustering>
<clus scale="   33.778">  1  6  2 -1</clus>
<clus scale="  469.355">  4  5 -1 -1</clus>
<clus scale="  300.000">  1  4  2 -1</clus>
</clustering>
</event>
<event>
 6    1  0.1029244E-011  0.3000000E+03  0.7818608E-02  0.1093470E+00
          1   -1    0    0  502    0  0.00000000000E+00  0.00000000000E+00  0.23303906923E+03  0.23303906923E+03  0.00000000000E+00 0.  1.
         13   -1    0    0    0    0 -0.00000000000E+00 -0.00000000000E+00 -0.27500000000E+03  0.27500000000E+03  0.00000000000E+00 0.  1.
    9000005    2    1    2  501    0  0.30351220674E+02 -0.17654008050E+02 -0.11186366896E+02  0.46134930185E+03  0.45987518189E+03 0.  0.
         13    1    3    3    0    0 -0.88511755276E+02 -0.60414435054E+02 -0.20423598813E+03  0.23064382418E+03  0.00000000000E+00 0.  1.
          3    1    3    3  501    0  0.11886297595E+03  0.42760427004E+02  0.19304962123E+03  0.23070547767E+03  0.00000000000E+00 0.  1.
         21    1    1    2  502  501 -0.30351220674E+02  0.17654008050E+02 -0.30774563873E+02  0.46689767382E+02  0.00000000000E+00 0.  1.
<scales pt_clust_4="550.00000" pt_clust_5="550.00000" pt_clust_6="35.11213"></scales>
<mgrwt>
<rscale>  0 0.30000000E+03</rscale>
<asrwt>  1 0.35112132E+02</asrwt>
<pdfrwt beam="1">  1        1 0.84741480E+00 0.30000000E+03</pdfrwt>
<pdfrwt beam="2">0</pdfrwt>
<totfact> 0.42972789E-04</totfact>
</mgrwt>
<clustering>
<clus scale="   35.112">  1  6  2 -1</clus>
<clus scale="  459.875">  4  5 -1 -1</clus>
<clus scale="  300.000">  1  4  2 -1</clus>
</clustering>
</event>
<event>
 6    1  0.1029244E-011  0.3000000E+03  0.7818608E-02  0.1093470E+00
          1   -1    0    0  502    0  0.00000000000E+00  0.00000000000E+00  0.22877216968E+03  0.22877216968E+03  0.00000000000E+00 0.  1.
         13   -1    0    0    0    0 -0.00000000000E+00 -0.00000000000E+00 -0.27500000000E+03  0.27500000000E+03  0.00000000000E+00 0.  1.
    9000005    2    1    2  501    0 -0.18099478085E+02  0.32676937648E+02 -0.64157383233E+02  0.46233737478E+03  0.45633792844E+03 0.  0.
         13    1    3    3    0    0 -0.15633274316E+03 -0.11361843336E+03  0.85694595108E+02  0.21140633532E+03  0.00000000000E+00 0.  1.
          1    1    3    3  501    0  0.13823326507E+03  0.14629537101E+03 -0.14985197834E+03  0.25093103946E+03  0.00000000000E+00 0.  1.
         21    1    1    2  502  501  0.18099478085E+02 -0.32676937648E+02  0.17929552917E+02  0.41434794905E+02  0.00000000000E+00 0. -1.
<scales pt_clust_4="550.00000" pt_clust_5="550.00000" pt_clust_6="37.35470"></scales>
<mgrwt>
<rscale>  0 0.30000000E+03</rscale>
<asrwt>  1 0.37354697E+02</asrwt>
<pdfrwt beam="1">  1        1 0.83189880E+00 0.30000000E+03</pdfrwt>
<pdfrwt beam="2">0</pdfrwt>
<totfact> 0.56384625E-04</totfact>
</mgrwt>
<clustering>
<clus scale="   37.355">  1  6  2 -1</clus>
<clus scale="  456.338">  4  5 -1 -1</clus>
<clus scale="  300.000">  1  4  2 -1</clus>
</clustering>
</event>
<event>
 6    1  0.1029244E-011  0.3000000E+03  0.7818608E-02  0.1093470E+00
          1   -1    0    0  502    0  0.00000000000E+00  0.00000000000E+00  0.22105699742E+03  0.22105699742E+03  0.00000000000E+00 0.  1.
         13   -1    0    0    0    0 -0.00000000000E+00 -0.00000000000E+00 -0.27500000000E+03  0.27500000000E+03  0.00000000000E+00 0.  1.
    9000005    2    1    2  501    0 -0.30282777251E+02  0.23750634678E+01 -0.65294405251E+02  0.46362951113E+03  0.45800248549E+03 0.  0.
         13    1    3    3    0    0 -0.11185322954E+03  0.51800285988E+02 -0.23704189444E+03  0.26717648532E+03  0.00000000000E+00 0.  1.
          1    1    3    3  501    0  0.81570452294E+02 -0.49425222521E+02  0.17174748919E+03  0.19645302581E+03  0.00000000000E+00 0.  1.
         21    1    1    2  502  501  0.30282777251E+02 -0.23750634678E+01  0.11351402676E+02  0.32427486292E+02  0.00000000000E+00 0.  1.
<scales pt_clust_4="550.00000" pt_clust_5="550.00000" pt_clust_6="30.37577"></scales>
<mgrwt>
<rscale>  0 0.30000000E+03</rscale>
<asrwt>  1 0.30375772E+02</asrwt>
<pdfrwt beam="1">  1        1 0.80384363E+00 0.30000000E+03</pdfrwt>
<pdfrwt beam="2">0</pdfrwt>
<totfact> 0.99862035E-04</totfact>
</mgrwt>
<clustering>
<clus scale="   30.376">  1  6  2 -1</clus>
<clus scale="  458.002">  4  5 -1 -1</clus>
<clus scale="  300.000">  1  4  2 -1</clus>
</clustering>
</event>
<event>
 6    1  0.1029244E-011  0.3000000E+03  0.7818608E-02  0.1093470E+00
          1   -1    0    0  502    0  0.00000000000E+00  0.00000000000E+00  0.23790420897E+03  0.23790420897E+03  0.00000000000E+00 0.  1.
         13   -1    0    0    0    0 -0.00000000000E+00 -0.00000000000E+00 -0.27500000000E+03  0.27500000000E+03  0.00000000000E+00 0.  1.
    9000005    2    1    2  501    0 -0.13496034326E+02  0.37948686493E+02 -0.59734602416E+02  0.46670072934E+03  0.46110638934E+03 0.  0.
         13    1    3    3    0    0  0.19180709192E+03  0.58335716419E+02  0.81777720669E+02  0.21651931073E+03  0.00000000000E+00 0.  1.
          3    1    3    3  501    0 -0.20530312624E+03 -0.20387029926E+02 -0.14151232308E+03  0.25018141861E+03  0.00000000000E+00 0.  1.
         21    1    1    2  502  501  0.13496034326E+02 -0.37948686493E+02  0.22638811391E+02  0.46203479634E+02  0.00000000000E+00 0.  1.
<scales pt_clust_4="550.00000" pt_clust_5="550.00000" pt_clust_6="40.27711"></scales>
<mgrwt>
<rscale>  0 0.30000000E+03</rscale>
<asrwt>  1 0.40277112E+02</asrwt>
<pdfrwt beam="1">  1        1 0.86510621E+00 0.30000000E+03</pdfrwt>
<pdfrwt beam="2">0</pdfrwt>
<totfact> 0.27765729E-04</totfact>
</mgrwt>
<clustering>
<clus scale="   40.277">  1  6  2 -1</clus>
<clus scale="  461.106">  4  5 -1 -1</clus>
<clus scale="  300.000">  1  4  2 -1</clus>
</clustering>
</event>
<event>
 6    1  0.1029244E-011  0.3000000E+03  0.7818608E-02  0.1093470E+00
          1   -1    0    0  502    0  0.00000000000E+00  0.00000000000E+00  0.24573487026E+03  0.24573487026E+03  0.00000000000E+00 0.  1.
         13   -1    0    0    0    0 -0.00000000000E+00 -0.00000000000E+00 -0.27500000000E+03  0.27500000000E+03  0.00000000000E+00 0.  1.
    9000005    2    1    2  501    0 -0.30931402897E+02  0.29213628409E+02 -0.66174455898E+02  0.46441004334E+03  0.45769798118E+03 0.  0.
         13    1    3    3    0    0 -0.16342791453E+03 -0.69546371876E+02  0.12085810589E+03  0.21483031175E+03  0.00000000000E+00 0.  1.
          3    1    3    3  501    0  0.13249651164E+03  0.98760000285E+02 -0.18703256178E+03  0.24957973159E+03  0.00000000000E+00 0.  1.
         21    1    1    2  502  501  0.30931402897E+02 -0.29213628409E+02  0.36909326159E+02  0.56324826920E+02  0.00000000000E+00 0. -1.
<scales pt_clust_4="550.00000" pt_clust_5="550.00000" pt_clust_6="42.54630"></scales>
<mgrwt>
<rscale>  0 0.30000000E+03</rscale>
<asrwt>  1 0.42546301E+02</asrwt>
<pdfrwt beam="1">  1        1 0.89358135E+00 0.30000000E+03</pdfrwt>
<pdfrwt beam="2">0</pdfrwt>
<totfact> 0.12625386E-04</totfact>
</mgrwt>
<clustering>
<clus scale="   42.546">  1  6  2 -1</clus>
<clus scale="  457.698">  4  5 -1 -1</clus>
<clus scale="  300.000">  1  4  2 -1</clus>
</clustering>
</event>
<event>
 6    1  0.1029244E-011  0.3000000E+03  0.7818608E-02  0.1093470E+00
          1   -1    0    0  502    0  0.00000000000E+00  0.00000000000E+00  0.23200257427E+03  0.23200257427E+03  0.00000000000E+00 0.  1.
         13   -1    0    0    0    0 -0.00000000000E+00 -0.00000000000E+00 -0.27500000000E+03  0.27500000000E+03  0.00000000000E+00 0.  1.
    9000005    2    1    2  501    0 -0.26781376790E+02 -0.15406850324E+02 -0.65817654543E+02  0.46859195044E+03  0.46291666549E+03 0.  0.
         13    1    3    3    0    0  0.20136105098E+03  0.73425313093E+02  0.27380731541E+01  0.21434795660E+03  0.00000000000E+00 0.  1.
          3    1    3    3  501    0 -0.22814242777E+03 -0.88832163417E+02 -0.68555727697E+02  0.25424399384E+03  0.00000000000E+00 0.  1.
         21    1    1    2  502  501  0.26781376790E+02  0.15406850324E+02  0.22820228815E+02  0.38410623828E+02  0.00000000000E+00 0. -1.
<scales pt_clust_4="550.00000" pt_clust_5="550.00000" pt_clust_6="30.89682"></scales>
<mgrwt>
<rscale>  0 0.30000000E+03</rscale>
<asrwt>  1 0.30896815E+02</asrwt>
<pdfrwt beam="1">  1        1 0.84364572E+00 0.30000000E+03</pdfrwt>
<pdfrwt beam="2">0</pdfrwt>
<totfact> 0.47523861E-04</totfact>
</mgrwt>
<clustering>
<clus scale="   30.897">  1  6  2 -1</clus>
<clus scale="  462.917">  4  5 -1 -1</clus>
<clus scale="  300.000">  1  4  2 -1</clus>
</clustering>
</event>
<event>
 6    1  0.1029244E-011  0.3000000E+03  0.7818608E-02  0.1093470E+00
          1   -1    0    0  502    0  0.00000000000E+00  0.00000000000E+00  0.25052816369E+03  0.25052816369E+03  0.00000000000E+00 0.  1.
         13   -1    0    0    0    0 -0.00000000000E+00 -0.00000000000E+00 -0.27500000000E+03  0.27500000000E+03  0.00000000000E+00 0.  1.
    9000005    2    1    2  501    0 -0.32516877995E+02  0.19380124906E+02 -0.23909825376E+02  0.48766984291E+03  0.48561019279E+03 0.  0.
         13    1    3    3    0    0  0.16339542357E+03 -0.31223483377E+02 -0.17019229855E+03  0.23798821156E+03  0.00000000000E+00 0.  1.
          1    1    3    3  501    0 -0.19591230157E+03  0.50603608283E+02  0.14628247317E+03  0.24968163135E+03  0.00000000000E+00 0.  1.
         21    1    1    2  502  501  0.32516877995E+02 -0.19380124906E+02 -0.56201093170E+00  0.37858320779E+02  0.00000000000E+00 0. -1.
<scales pt_clust_4="550.00000" pt_clust_5="550.00000" pt_clust_6="37.85415"></scales>
<mgrwt>
<rscale>  0 0.30000000E+03</rscale>
<asrwt>  1 0.37854149E+02</asrwt>
<pdfrwt beam="1">  1        1 0.91101150E+00 0.30000000E+03</pdfrwt>
<pdfrwt beam="2">0</pdfrwt>
<totfact> 0.66876741E-05</totfact>
</mgrwt>
<clustering>
<clus scale="   37.854">  1  6  2 -1</clus>
<clus scale="  485.610">  4  5 -1 -1</clus>
<clus scale="  300.000">  1  4  2 -1</clus>
</clustering>
</event>
<event>
 6    1  0.1029244E-011  0.3000000E+03  0.7818608E-02  0.1093470E+00
          1   -1    0    0  502    0  0.00000000000E+00  0.00000000000E+00  0.24261694398E+03  0.24261694398E+03  0.00000000000E+00 0.  1.
         13   -1    0    0    0    0 -0.00000000000E+00 -0.00000000000E+00 -0.27500000000E+03  0.27500000000E+03  0.00000000000E+00 0.  1.
    9000005    2    1    2  501    0  0.18606057554E+02 -0.34125560815E+02 -0.44051926059E+02  0.47703490600E+03  0.47340362280E+03 0.  0.
         13    1    3    3    0    0  0.12725228128E+03 -0.20094048491E+03 -0.11693627764E+03  0.26503644012E+03  0.00000000000E+00 0.  1.
          3    1    3    3  501    0 -0.10864622372E+03  0.16681492409E+03  0.72884351577E+02  0.21199846588E+03  0.00000000000E+00 0.  1.
         21    1    1    2  502  501 -0.18606057554E+02  0.34125560815E+02  0.11668870041E+02  0.40582037981E+02  0.00000000000E+00 0. -1.
<scales pt_clust_4="550.00000" pt_clust_5="550.00000" pt_clust_6="38.86823"></scales>
<mgrwt>
<rscale>  0 0.30000000E+03</rscale>
<asrwt>  1 0.38868230E+02</asrwt>
<pdfrwt beam="1">  1        1 0.88224343E+00 0.30000000E+03</pdfrwt>
<pdfrwt beam="2">0</pdfrwt>
<totfact> 0.18126168E-04</totfact>
</mgrwt>
<clustering>
<clus scale="   38.868">  1  6  2 -1</clus>
<clus scale="  473.404">  4  5 -1 -1</clus>
<clus scale="  300.000">  1  4  2 -1</clus>
</clustering>
</event>
<event>
 6    1  0.1029244E-011  0.3000000E+03  0.7818608E-02  0.1093470E+00
          1   -1    0    0  502    0  0.00000000000E+00  0.00000000000E+00  0.23802375119E+03  0.23802375119E+03  0.00000000000E+00 0.  1.
         13   -1    0    0    0    0 -0.00000000000E+00 -0.00000000000E+00 -0.27500000000E+03  0.27500000000E+03  0.00000000000E+00 0.  1.
    9000005    2    1    2  501    0 -0.20871657841E+02 -0.33806058920E+02 -0.47263088060E+02  0.47198359058E+03  0.46792759543E+03 0.  0.
         13    1    3    3    0    0  0.48885167567E+02 -0.11296895623E+02  0.20408698404E+03  0.21016392771E+03  0.00000000000E+00 0.  1.
          3    1    3    3  501    0 -0.69756825408E+02 -0.22509163298E+02 -0.25135007209E+03  0.26181966287E+03  0.00000000000E+00 0.  1.
         21    1    1    2  502  501  0.20871657841E+02  0.33806058920E+02  0.10286839246E+02  0.41040160604E+02  0.00000000000E+00 0. -1.
<scales pt_clust_4="550.00000" pt_clust_5="550.00000" pt_clust_6="39.73004"></scales>
<mgrwt>
<rscale>  0 0.30000000E+03</rscale>
<asrwt>  1 0.39730035E+02</asrwt>
<pdfrwt beam="1">  1        1 0.86554091E+00 0.30000000E+03</pdfrwt>
<pdfrwt beam="2">0</pdfrwt>
<totfact> 0.27537594E-04</totfact>
</mgrwt>
<clustering>
<clus scale="   39.730">  1  6  2 -1</clus>
<clus scale="  467.928">  4  5 -1 -1</clus>
<clus scale="  300.000">  1  4  2 -1</clus>
</clustering>
</event>
<event>
 6    1  0.1029244E-011  0.3000000E+03  0.7818608E-02  0.1093470E+00
          1   -1    0    0  502    0  0.00000000000E+00  0.00000000000E+00  0.23249637426E+03  0.23249637426E+03  0.00000000000E+00 0.  1.
         13   -1    0    0    0    0 -0.00000000000E+00 -0.00000000000E+00 -0.27500000000E+03  0.27500000000E+03  0.00000000000E+00 0.  1.
    9000005    2    1    2  501    0 -0.30589081247E+02 -0.17433389574E+02 -0.30829044761E+02  0.47040310258E+03  0.46806947556E+03 0.  0.
         13    1    3    3    0    0 -0.19972900319E+03  0.12081957255E+03  0.47719270676E+02  0.23825652692E+03  0.00000000000E+00 0.  1.
          1    1    3    3  501    0  0.16913992194E+03 -0.13825296213E+03 -0.78548315437E+02  0.23214657566E+03  0.00000000000E+00 0.  1.
         21    1    1    2  502  501  0.30589081247E+02  0.17433389574E+02 -0.11674580974E+02  0.37093271688E+02  0.00000000000E+00 0. -1.
<scales pt_clust_4="550.00000" pt_clust_5="550.00000" pt_clust_6="35.20818"></scales>
<mgrwt>
<rscale>  0 0.30000000E+03</rscale>
<asrwt>  1 0.35208184E+02</asrwt>
<pdfrwt beam="1">  1        1 0.84544136E+00 0.30000000E+03</pdfrwt>
<pdfrwt beam="2">0</pdfrwt>
<totfact> 0.44731926E-04</totfact>
</mgrwt>
<clustering>
<clus scale="   35.208">  1  6  2 -1</clus>
<clus scale="  468.069">  4  5 -1 -1</clus>
<clus scale="  300.000">  1  4  2 -1</clus>
</clustering>
</event>
<event>
 6    1  0.1029244E-011  0.3000000E+03  0.7818608E-02  0.1093470E+00
          1   -1    0    0  502    0  0.00000000000E+00  0.00000000000E+00  0.22947720381E+03  0.22947720381E+03  0.00000000000E+00 0.  1.
         13   -1    0    0    0    0 -0.00000000000E+00 -0.00000000000E+00 -0.27500000000E+03  0.27500000000E+03  0.00000000000E+00 0.  1.
    9000005    2    1    2  501    0 -0.34681767062E+02  0.21426318117E+02 -0.48743910045E+02  0.46358359002E+03  0.45920786589E+03 0.  0.
         13    1    3    3    0    0 -0.11765735389E+03 -0.19113523467E+03 -0.68184505184E+02  0.23457420490E+03  0.00000000000E+00 0.  1.
          1    1    3    3  501    0  0.82975586825E+02  0.21256155279E+03  0.19440595139E+02  0.22900938512E+03  0.00000000000E+00 0.  1.
         21    1    1    2  502  501  0.34681767062E+02 -0.21426318117E+02  0.32211138597E+01  0.40893613794E+02  0.00000000000E+00 0. -1.
<scales pt_clust_4="550.00000" pt_clust_5="550.00000" pt_clust_6="40.76656"></scales>
<mgrwt>
<rscale>  0 0.30000000E+03</rscale>
<asrwt>  1 0.40766556E+02</asrwt>
<pdfrwt beam="1">  1        1 0.83446256E+00 0.30000000E+03</pdfrwt>
<pdfrwt beam="2">0</pdfrwt>
<totfact> 0.53077239E-04</totfact>
</mgrwt>
<clustering>
<clus scale="   40.767">  1  6  2 -1</clus>
<clus scale="  459.208">  4  5 -1 -1</clus>
<clus scale="  300.000">  1  4  2 -1</clus>
</clustering>
</event>
<event>
 6    1  0.1029244E-011  0.3000000E+03  0.7818608E-02  0.1093470E+00
          1   -1    0    0  502    0  0.00000000000E+00  0.00000000000E+00  0.24542887851E+03  0.24542887851E+03  0.00000000000E+00 0.  1.
         13   -1    0    0    0    0 -0.00000000000E+00 -0.00000000000E+00 -0.27500000000E+03  0.27500000000E+03  0.00000000000E+00 0.  1.
    9000005    2    1    2  501    0  0.40563815087E+02 -0.78526255272E+01 -0.56203497097E+02  0.47127228940E+03  0.46608116337E+03 0.  0.
         13    1    3    3    0    0 -0.12389851029E+03  0.15631858294E+03  0.64213801026E+02  0.20954654010E+03  0.00000000000E+00 0.  1.
          1    1    3    3  501    0  0.16446232538E+03 -0.16417120847E+03 -0.12041729812E+03  0.26172574930E+03  0.00000000000E+00 0.  1.
         21    1    1    2  502  501 -0.40563815087E+02  0.78526255272E+01  0.26632375604E+02  0.49156589105E+02  0.00000000000E+00 0.  1.
<scales pt_clust_4="550.00000" pt_clust_5="550.00000" pt_clust_6="41.31691"></scales>
<mgrwt>
<rscale>  0 0.30000000E+03</rscale>
<asrwt>  1 0.41316907E+02</asrwt>
<pdfrwt beam="1">  1        1 0.89246865E+00 0.30000000E+03</pdfrwt>
<pdfrwt beam="2">0</pdfrwt>
<totfact> 0.13081548E-04</totfact>
</mgrwt>
<clustering>
<clus scale="   41.317">  1  6  2 -1</clus>
<clus scale="  466.081">  4  5 -1 -1</clus>
<clus scale="  300.000">  1  4  2 -1</clus>
</clustering>
</event>
<event>
 6    1  0.1029244E-011  0.3000000E+03  0.7818608E-02  0.1093470E+00
          1   -1    0    0  502    0  0.00000000000E+00  0.00000000000E+00  0.22354366209E+03  0.22354366209E+03  0.00000000000E+00 0.  1.
         13   -1    0    0    0    0 -0.00000000000E+00 -0.00000000000E+00 -0.27500000000E+03  0.27500000000E+03  0.00000000000E+00 0.  1.
    9000005    2    1    2  501    0 -0.29210748080E+02  0.80842351088E+01 -0.38117780992E+02  0.46542962033E+03  0.46287486818E+03 0.  0.
         13    1    3    3    0    0  0.18098972709E+03 -0.39003657708E+02  0.99128745823E+02  0.21001208269E+03  0.00000000000E+00 0.  1.
          1    1    3    3  501    0 -0.21020047517E+03  0.47087892817E+02 -0.13724652681E+03  0.25541753764E+03  0.00000000000E+00 0.  1.
         21    1    1    2  502  501  0.29210748080E+02 -0.80842351088E+01 -0.13338556923E+02  0.33114041757E+02  0.00000000000E+00 0.  1.
<scales pt_clust_4="550.00000" pt_clust_5="550.00000" pt_clust_6="30.30880"></scales>
<mgrwt>
<rscale>  0 0.30000000E+03</rscale>
<asrwt>  1 0.30308804E+02</asrwt>
<pdfrwt beam="1">  1        1 0.81288604E+00 0.30000000E+03</pdfrwt>
<pdfrwt beam="2">0</pdfrwt>
<totfact> 0.85060085E-04</totfact>
</mgrwt>
<clustering>
<clus scale="   30.309">  1  6  2 -1</clus>
<clus scale="  462.875">  4  5 -1 -1</clus>
<clus scale="  300.000">  1  4  2 -1</clus>
</clustering>
</event>
<event>
 6    1  0.1029244E-011  0.3000000E+03  0.7818608E-02  0.1093470E+00
          1   -1    0    0  502    0  0.00000000000E+00  0.00000000000E+00  0.22059240161E+03  0.22059240161E+03  0.00000000000E+00 0.  1.
         13   -1    0    0    0    0 -0.00000000000E+00 -0.00000000000E+00 -0.27500000000E+03  0.27500000000E+03  0.00000000000E+00 0.  1.
    9000005    2    1    2  501    0 -0.29376427703E+02  0.10767643892E+02 -0.62639808514E+02  0.46323987554E+03  0.45791759087E+03 0.  0.
         13    1    3    3    0    0  0.72762184502E+02 -0.14367480486E+03  0.12177782514E+03  0.20190746331E+03  0.00000000000E+00 0.  1.
          1    1    3    3  501    0 -0.10213861220E+03  0.15444244875E+03 -0.18441763366E+03  0.26133241223E+03  0.00000000000E+00 0.  1.
         21    1    1    2  502  501  0.29376427703E+02 -0.10767643892E+02  0.82322101291E+01  0.32352526071E+02  0.00000000000E+00 0. -1.
<scales pt_clust_4="550.00000" pt_clust_5="550.00000" pt_clust_6="31.28764"></scales>
<mgrwt>
<rscale>  0 0.30000000E+03</rscale>
<asrwt>  1 0.31287644E+02</asrwt>
<pdfrwt beam="1">  1        1 0.80215419E+00 0.30000000E+03</pdfrwt>
<pdfrwt beam="2">0</pdfrwt>
<totfact> 0.10218003E-03</totfact>
</mgrwt>
<clustering>
<clus scale="   31.288">  1  6  2 -1</clus>
<clus scale="  457.918">  4  5 -1 -1</clus>
<clus scale="  300.000">  1  4  2 -1</clus>
</clustering>
</event>
<event>
 6    1  0.1029244E-011  0.3000000E+03  0.7818608E-02  0.1093470E+00
          1   -1    0    0  502    0  0.00000000000E+00  0.00000000000E+00  0.23499631058E+03  0.23499631058E+03  0.00000000000E+00 0.  1.
         13   -1    0    0    0    0 -0.00000000000E+00 -0.00000000000E+00 -0.27500000000E+03  0.27500000000E+03  0.00000000000E+00 0.  1.
    9000005    2    1    2  501    0 -0.25411972226E+02  0.17294852078E+02 -0.64379162505E+02  0.47076566020E+03  0.46532864732E+03 0.  0.
         13    1    3    3    0    0 -0.16119647991E+03 -0.27720900842E+01 -0.21386304737E+03  0.26782343559E+03  0.00000000000E+00 0.  1.
          3    1    3    3  501    0  0.13578450769E+03  0.20066942162E+02  0.14948388487E+03  0.20294222461E+03  0.00000000000E+00 0.  1.
         21    1    1    2  502  501  0.25411972226E+02 -0.17294852078E+02  0.24375473083E+02  0.39230650375E+02  0.00000000000E+00 0. -1.
<scales pt_clust_4="550.00000" pt_clust_5="550.00000" pt_clust_6="30.73890"></scales>
<mgrwt>
<rscale>  0 0.30000000E+03</rscale>
<asrwt>  1 0.30738904E+02</asrwt>
<pdfrwt beam="1">  1        1 0.85453204E+00 0.30000000E+03</pdfrwt>
<pdfrwt beam="2">0</pdfrwt>
<totfact> 0.37739388E-04</totfact>
</mgrwt>
<clustering>
<clus scale="   30.739">  1  6  2 -1</clus>
<clus scale="  465.329">  4  5 -1 -1</clus>
<clus scale="  300.000">  1  4  2 -1</clus>
</clustering>
</event>
<event>
 6    1  0.1029244E-011  0.3000000E+03  0.7818608E-02  0.1093470E+00
          1   -1    0    0  502    0  0.00000000000E+00  0.00000000000E+00  0.21969489230E+03  0.21969489230E+03  0.00000000000E+00 0.  1.
         13   -1    0    0    0    0 -0.00000000000E+00 -0.00000000000E+00 -0.27500000000E+03  0.27500000000E+03  0.00000000000E+00 0.  1.
    9000005    2    1    2  501    0 -0.30346403916E+02 -0.10108210674E+02 -0.55236960724E+02  0.46270919553E+03  0.45828549796E+03 0.  0.
         13    1    3    3    0    0  0.76813942452E+02 -0.17940762590E+03 -0.14502658005E+03  0.24314643100E+03  0.00000000000E+00 0.  1.
          1    1    3    3  501    0 -0.10716034637E+03  0.16929941522E+03  0.89789619329E+02  0.21956276453E+03  0.00000000000E+00 0.  1.
         21    1    1    2  502  501  0.30346403916E+02  0.10108210674E+02 -0.68146980394E-01  0.31985696767E+02  0.00000000000E+00 0.  1.
<scales pt_clust_4="550.00000" pt_clust_5="550.00000" pt_clust_6="31.98562"></scales>
<mgrwt>
<rscale>  0 0.30000000E+03</rscale>
<asrwt>  1 0.31985624E+02</asrwt>
<pdfrwt beam="1">  1        1 0.79889052E+00 0.30000000E+03</pdfrwt>
<pdfrwt beam="2">0</pdfrwt>
<totfact> 0.10744645E-03</totfact>
</mgrwt>
<clustering>
<clus scale="   31.986">  1  6  2 -1</clus>
<clus scale="  458.285">  4  5 -1 -1</clus>
<clus scale="  300.000">  1  4  2 -1</clus>
</clustering>
</event>
<event>
 6    1  0.1029244E-011  0.3000000E+03  0.7818608E-02  0.1093470E+00
          1   -1    0    0  502    0  0.00000000000E+00  0.00000000000E+00  0.24494837266E+03  0.24494837266E+03  0.00000000000E+00 0.  1.
         13   -1    0    0    0    0 -0.00000000000E+00 -0.00000000000E+00 -0.27500000000E+03  0.27500000000E+03  0.00000000000E+00 0.  1.
    9000005    2    1    2  501    0 -0.22756404602E+02 -0.34721475780E+02 -0.44658779525E+02  0.47593924036E+03  0.47201728686E+03 0.  0.
         13    1    3    3    0    0  0.79656979650E+02 -0.11889555346E+03 -0.21611904028E+03  0.25920807590E+03  0.00000000000E+00 0.  1.
          3    1    3    3  501    0 -0.10241338425E+03  0.84174077681E+02  0.17146026076E+03  0.21673116446E+03  0.00000000000E+00 0.  1.
         21    1    1    2  502  501  0.22756404602E+02  0.34721475780E+02  0.14607152184E+02  0.44009132298E+02  0.00000000000E+00 0.  1.
<scales pt_clust_4="550.00000" pt_clust_5="550.00000" pt_clust_6="41.51427"></scales>
<mgrwt>
<rscale>  0 0.30000000E+03</rscale>
<asrwt>  1 0.41514273E+02</asrwt>
<pdfrwt beam="1">  1        1 0.89072136E+00 0.30000000E+03</pdfrwt>
<pdfrwt beam="2">0</pdfrwt>
<totfact> 0.13743288E-04</totfact>
</mgrwt>
<clustering>
<clus scale="   41.514">  1  6  2 -1</clus>
<clus scale="  472.017">  4  5 -1 -1</clus>
<clus scale="  300.000">  1  4  2 -1</clus>
</clustering>
</event>
<event>
 6    1  0.1029244E-011  0.3000000E+03  0.7818608E-02  0.1093470E+00
          1   -1    0    0  502    0  0.00000000000E+00  0.00000000000E+00  0.23745434072E+03  0.23745434072E+03  0.00000000000E+00 0.  1.
         13   -1    0    0    0    0 -0.00000000000E+00 -0.00000000000E+00 -0.27500000000E+03  0.27500000000E+03  0.00000000000E+00 0.  1.
    9000005    2    1    2  501    0  0.12352907776E+01 -0.41505657805E+02 -0.51899380425E+02  0.46851944703E+03  0.46378085448E+03 0.  0.
         13    1    3    3    0    0 -0.22017171349E+03  0.12081429175E+02 -0.88872229103E+02  0.23773896916E+03  0.00000000000E+00 0.  1.
          1    1    3    3  501    0  0.22140700426E+03 -0.53587086980E+02  0.36972848678E+02  0.23078047787E+03  0.00000000000E+00 0.  1.
         21    1    1    2  502  501 -0.12352907776E+01  0.41505657805E+02  0.14353721148E+02  0.43934893694E+02  0.00000000000E+00 0. -1.
<scales pt_clust_4="550.00000" pt_clust_5="550.00000" pt_clust_6="41.52404"></scales>
<mgrwt>
<rscale>  0 0.30000000E+03</rscale>
<asrwt>  1 0.41524036E+02</asrwt>
<pdfrwt beam="1">  1        1 0.86347033E+00 0.30000000E+03</pdfrwt>
<pdfrwt beam="2">0</pdfrwt>
<totfact> 0.28758306E-04</totfact>
</mgrwt>
<clustering>
<clus scale="   41.524">  1  6  2 -1</clus>
<clus scale="  463.781">  4  5 -1 -1</clus>
<clus scale="  300.000">  1  4  2 -1</clus>
</clustering>
</event>
<event>
 6    1  0.1029244E-011  0.3000000E+03  0.7818608E-02  0.1093470E+00
          1   -1    0    0  502    0  0.00000000000E+00  0.00000000000E+00  0.24309153838E+03  0.24309153838E+03  0.00000000000E+00 0.  1.
         13   -1    0    0    0    0 -0.00000000000E+00 -0.00000000000E+00 -0.27500000000E+03  0.27500000000E+03  0.00000000000E+00 0.  1.
    9000005    2    1    2  501    0 -0.15809943642E+02  0.26829034285E+02 -0.73477328868E+02  0.46615193766E+03  0.45927002921E+03 0.  0.
         13    1    3    3    0    0 -0.17650247708E+03  0.26202561910E+02 -0.19527014632E+03  0.26451867365E+03  0.00000000000E+00 0.  1.
          1    1    3    3  501    0  0.16069253344E+03  0.62647237508E+00  0.12179281745E+03  0.20163326401E+03  0.00000000000E+00 0.  1.
         21    1    1    2  502  501  0.15809943642E+02 -0.26829034285E+02  0.41568867248E+02  0.51939600720E+02  0.00000000000E+00 0. -1.
<scales pt_clust_4="550.00000" pt_clust_5="550.00000" pt_clust_6="31.14083"></scales>
<mgrwt>
<rscale>  0 0.30000000E+03</rscale>
<asrwt>  1 0.31140832E+02</asrwt>
<pdfrwt beam="1">  1        1 0.88396923E+00 0.30000000E+03</pdfrwt>
<pdfrwt beam="2">0</pdfrwt>
<totfact> 0.17919845E-04</totfact>
</mgrwt>
<clustering>
<clus scale="   31.141">  1  6  2 -1</clus>
<clus scale="  459.270">  4  5 -1 -1</clus>
<clus scale="  300.000">  1  4  2 -1</clus>
</clustering>
</event>
<event>
 6    1  0.1029244E-011  0.3000000E+03  0.7818608E-02  0.1093470E+00
          1   -1    0    0  502    0  0.00000000000E+00  0.00000000000E+00  0.23913638043E+03  0.23913638043E+03  0.00000000000E+00 0.  1.
         13   -1    0    0    0    0 -0.00000000000E+00 -0.00000000000E+00 -0.27500000000E+03  0.27500000000E+03  0.00000000000E+00 0.  1.
    9000005    2    1    2  501    0  0.10061431420E+02 -0.30198046133E+02 -0.50572913725E+02  0.47907190087E+03  0.47533052943E+03 0.  0.
         13    1    3    3    0    0  0.15704580186E+03  0.15456376184E+03 -0.93042291515E+02  0.23918655557E+03  0.00000000000E+00 0.  1.
          3    1    3    3  501    0 -0.14698437044E+03 -0.18476180797E+03  0.42469377789E+02  0.23988534530E+03  0.00000000000E+00 0.  1.
         21    1    1    2  502  501 -0.10061431420E+02  0.30198046133E+02  0.14709294156E+02  0.35064479564E+02  0.00000000000E+00 0. -1.
<scales pt_clust_4="550.00000" pt_clust_5="550.00000" pt_clust_6="31.83009"></scales>
<mgrwt>
<rscale>  0 0.30000000E+03</rscale>
<asrwt>  1 0.31830086E+02</asrwt>
<pdfrwt beam="1">  1        1 0.86958684E+00 0.30000000E+03</pdfrwt>
<pdfrwt beam="2">0</pdfrwt>
<totfact> 0.26035176E-04</totfact>
</mgrwt>
<clustering>
<clus scale="   31.830">  1  6  2 -1</clus>
<clus scale="  475.331">  4  5 -1 -1</clus>
<clus scale="  300.000">  1  4  2 -1</clus>
</clustering>
</event>
<event>
 6    1  0.1029244E-011  0.3000000E+03  0.7818608E-02  0.1093470E+00
          1   -1    0    0  502    0  0.00000000000E+00  0.00000000000E+00  0.25502518611E+03  0.25502518611E+03  0.00000000000E+00 0.  1.
         13   -1    0    0    0    0 -0.00000000000E+00 -0.00000000000E+00 -0.27500000000E+03  0.27500000000E+03  0.00000000000E+00 0.  1.
    9000005    2    1    2  501    0  0.29246107652E+02  0.98109691031E+01 -0.43772479141E+02  0.49106470871E+03  0.48813617801E+03 0.  0.
         13    1    3    3    0    0  0.64991162827E+02  0.20908134533E+03  0.10205024519E+03  0.24156388959E+03  0.00000000000E+00 0.  1.
          1    1    3    3  501    0 -0.35745055176E+02 -0.19927037623E+03 -0.14582272433E+03  0.24950081912E+03  0.00000000000E+00 0.  1.
         21    1    1    2  502  501 -0.29246107652E+02 -0.98109691031E+01  0.23797665247E+02  0.38960477393E+02  0.00000000000E+00 0. -1.
<scales pt_clust_4="550.00000" pt_clust_5="550.00000" pt_clust_6="30.84785"></scales>
<mgrwt>
<rscale>  0 0.30000000E+03</rscale>
<asrwt>  1 0.30847851E+02</asrwt>
<pdfrwt beam="1">  1        1 0.92736431E+00 0.30000000E+03</pdfrwt>
<pdfrwt beam="2">0</pdfrwt>
<totfact> 0.30026653E-05</totfact>
</mgrwt>
<clustering>
<clus scale="   30.848">  1  6  2 -1</clus>
<clus scale="  488.136">  4  5 -1 -1</clus>
<clus scale="  300.000">  1  4  2 -1</clus>
</clustering>
</event>
<event>
 6    1  0.1029244E-011  0.3000000E+03  0.7818608E-02  0.1093470E+00
          1   -1    0    0  502    0  0.00000000000E+00  0.00000000000E+00  0.24332288510E+03  0.24332288510E+03  0.00000000000E+00 0.  1.
         13   -1    0    0    0    0 -0.00000000000E+00 -0.00000000000E+00 -0.27500000000E+03  0.27500000000E+03  0.00000000000E+00 0.  1.
    9000005    2    1    2  501    0  0.10933634096E+02 -0.36406507368E+02 -0.46309339055E+02  0.47759107791E+03  0.47381821903E+03 0.  0.
         13    1    3    3    0    0 -0.66989506996E+02  0.15406345906E+03  0.12534526199E+03  0.20960576845E+03  0.00000000000E+00 0.  1.
          3    1    3    3  501    0  0.77923141093E+02 -0.19046996643E+03 -0.17165460104E+03  0.26798530946E+03  0.00000000000E+00 0.  1.
         21    1    1    2  502  501 -0.10933634096E+02  0.36406507368E+02  0.14632224159E+02  0.40731807192E+02  0.00000000000E+00 0.  1.
<scales pt_clust_4="550.00000" pt_clust_5="550.00000" pt_clust_6="38.01287"></scales>
<mgrwt>
<rscale>  0 0.30000000E+03</rscale>
<asrwt>  1 0.38012868E+02</asrwt>
<pdfrwt beam="1">  1        1 0.88481049E+00 0.30000000E+03</pdfrwt>
<pdfrwt beam="2">0</pdfrwt>
<totfact> 0.16812721E-04</totfact>
</mgrwt>
<clustering>
<clus scale="   38.013">  1  6  2 -1</clus>
<clus scale="  473.818">  4  5 -1 -1</clus>
<clus scale="  300.000">  1  4  2 -1</clus>
</clustering>
</event>
<event>
 6    1  0.1029244E-011  0.3000000E+03  0.7818608E-02  0.1093470E+00
          1   -1    0    0  502    0  0.00000000000E+00  0.00000000000E+00  0.22645920702E+03  0.22645920702E+03  0.00000000000E+00 0.  1.
         13   -1    0    0    0    0 -0.00000000000E+00 -0.00000000000E+00 -0.27500000000E+03  0.27500000000E+03  0.00000000000E+00 0.  1.
    9000005    2    1    2  501    0 -0.19832307286E+02  0.29161860658E+02 -0.65959477553E+02  0.46212544161E+03  0.45603238544E+03 0.  0.
         13    1    3    3    0    0 -0.29640449237E+02 -0.19048464057E+03 -0.13072377643E+03  0.23291985799E+03  0.00000000000E+00 0.  1.
          1    1    3    3  501    0  0.98081419511E+01  0.21964650123E+03  0.64764298874E+02  0.22920558361E+03  0.00000000000E+00 0.  1.
         21    1    1    2  502  501  0.19832307286E+02 -0.29161860658E+02  0.17418684572E+02  0.39333765412E+02  0.00000000000E+00 0.  1.
<scales pt_clust_4="550.00000" pt_clust_5="550.00000" pt_clust_6="35.26662"></scales>
<mgrwt>
<rscale>  0 0.30000000E+03</rscale>
<asrwt>  1 0.35266621E+02</asrwt>
<pdfrwt beam="1">  1        1 0.82348803E+00 0.30000000E+03</pdfrwt>
<pdfrwt beam="2">0</pdfrwt>
<totfact> 0.67285302E-04</totfact>
</mgrwt>
<clustering>
<clus scale="   35.267">  1  6  2 -1</clus>
<clus scale="  456.032">  4  5 -1 -1</clus>
<clus scale="  300.000">  1  4  2 -1</clus>
</clustering>
</event>
<event>
 6    1  0.1029244E-011  0.3000000E+03  0.7818608E-02  0.1093470E+00
          1   -1    0    0  502    0  0.00000000000E+00  0.00000000000E+00  0.23510089208E+03  0.23510089208E+03  0.00000000000E+00 0.  1.
         13   -1    0    0    0    0 -0.00000000000E+00 -0.00000000000E+00 -0.27500000000E+03  0.27500000000E+03  0.00000000000E+00 0.  1.
    9000005    2    1    2  501    0 -0.28012303729E+02 -0.20970662714E+02 -0.20974244815E+02  0.47031888235E+03  0.46854612825E+03 0.  0.
         13    1    3    3    0    0 -0.17885042349E+03 -0.12509116850E+03 -0.13292661096E+03  0.25554795699E+03  0.00000000000E+00 0.  1.
          1    1    3    3  501    0  0.15083811976E+03  0.10412050578E+03  0.11195236615E+03  0.21477092537E+03  0.00000000000E+00 0.  1.
         21    1    1    2  502  501  0.28012303729E+02  0.20970662714E+02 -0.18924863100E+02  0.39782009731E+02  0.00000000000E+00 0. -1.
<scales pt_clust_4="550.00000" pt_clust_5="550.00000" pt_clust_6="34.99227"></scales>
<mgrwt>
<rscale>  0 0.30000000E+03</rscale>
<asrwt>  1 0.34992272E+02</asrwt>
<pdfrwt beam="1">  1        1 0.85491233E+00 0.30000000E+03</pdfrwt>
<pdfrwt beam="2">0</pdfrwt>
<totfact> 0.36508133E-04</totfact>
</mgrwt>
<clustering>
<clus scale="   34.992">  1  6  2 -1</clus>
<clus scale="  468.546">  4  5 -1 -1</clus>
<clus scale="  300.000">  1  4  2 -1</clus>
</clustering>
</event>
<event>
 6    1  0.1029244E-011  0.3000000E+03  0.7818608E-02  0.1093470E+00
          1   -1    0    0  502    0  0.00000000000E+00  0.00000000000E+00  0.23220236446E+03  0.23220236446E+03  0.00000000000E+00 0.  1.
         13   -1    0    0    0    0 -0.00000000000E+00 -0.00000000000E+00 -0.27500000000E+03  0.27500000000E+03  0.00000000000E+00 0.  1.
    9000005    2    1    2  501    0  0.18679873527E+02  0.27239291789E+02 -0.60612370074E+02  0.46967528812E+03  0.46457518247E+03 0.  0.
         13    1    3    3    0    0  0.13792723039E+03  0.18606802751E+03 -0.12201624382E+03  0.26178845563E+03  0.00000000000E+00 0.  1.
          3    1    3    3  501    0 -0.11924735687E+03 -0.15882873572E+03  0.61403873749E+02  0.20788683249E+03  0.00000000000E+00 0.  1.
         21    1    1    2  502  501 -0.18679873527E+02 -0.27239291789E+02  0.17814734533E+02  0.37527076341E+02  0.00000000000E+00 0.  1.
<scales pt_clust_4="550.00000" pt_clust_5="550.00000" pt_clust_6="33.02903"></scales>
<mgrwt>
<rscale>  0 0.30000000E+03</rscale>
<asrwt>  1 0.33029028E+02</asrwt>
<pdfrwt beam="1">  1        1 0.84437223E+00 0.30000000E+03</pdfrwt>
<pdfrwt beam="2">0</pdfrwt>
<totfact> 0.46254984E-04</totfact>
</mgrwt>
<clustering>
<clus scale="   33.029">  1  6  2 -1</clus>
<clus scale="  464.575">  4  5 -1 -1</clus>
<clus scale="  300.000">  1  4  2 -1</clus>
</clustering>
</event>
<event>
 6    1  0.1029244E-011  0.3000000E+03  0.7818608E-02  0.1093470E+00
          1   -1    0    0  502    0  0.00000000000E+00  0.00000000000E+00  0.23834737967E+03  0.23834737967E+03  0.00000000000E+00 0.  1.
         13   -1    0    0    0    0 -0.00000000000E+00 -0.00000000000E+00 -0.27500000000E+03  0.27500000000E+03  0.00000000000E+00 0.  1.
    9000005    2    1    2  501    0 -0.21117898195E+02  0.27513976255E+02 -0.51369962218E+02  0.47567000362E+03  0.47161434967E+03 0.  0.
         13    1    3    3    0    0 -0.89265318977E+02 -0.20003354021E+03 -0.86588237589E+02  0.23554030923E+03  0.00000000000E+00 0.  1.
          1    1    3    3  501    0  0.68147420782E+02  0.22754751647E+03  0.35218275371E+02  0.24012969439E+03  0.00000000000E+00 0.  1.
         21    1    1    2  502  501  0.21117898195E+02 -0.27513976255E+02  0.14717341887E+02  0.37677376047E+02  0.00000000000E+00 0.  1.
<scales pt_clust_4="550.00000" pt_clust_5="550.00000" pt_clust_6="34.68407"></scales>
<mgrwt>
<rscale>  0 0.30000000E+03</rscale>
<asrwt>  1 0.34684067E+02</asrwt>
<pdfrwt beam="1">  1        1 0.86671774E+00 0.30000000E+03</pdfrwt>
<pdfrwt beam="2">0</pdfrwt>
<totfact> 0.27435263E-04</totfact>
</mgrwt>
<clustering>
<clus scale="   34.684">  1  6  2 -1</clus>
<clus scale="  471.614">  4  5 -1 -1</clus>
<clus scale="  300.000">  1  4  2 -1</clus>
</clustering>
</event>
<event>
 6    1  0.1029244E-011  0.3000000E+03  0.7818608E-02  0.1093470E+00
          1   -1    0    0  502    0  0.00000000000E+00  0.00000000000E+00  0.23469988013E+03  0.23469988013E+03  0.00000000000E+00 0.  1.
         13   -1    0    0    0    0 -0.00000000000E+00 -0.00000000000E+00 -0.27500000000E+03  0.27500000000E+03  0.00000000000E+00 0.  1.
    9000005    2    1    2  501    0 -0.12292867321E+02  0.28599836314E+02 -0.60099232251E+02  0.47280719691E+03  0.46793766947E+03 0.  0.
         13    1    3    3    0    0 -0.18937788810E+03 -0.50423667053E+02  0.10121073774E+03  0.22056777674E+03  0.00000000000E+00 0.  1.
          3    1    3    3  501    0  0.17708502078E+03  0.79023503367E+02 -0.16130996999E+03  0.25223942017E+03  0.00000000000E+00 0.  1.
         21    1    1    2  502  501  0.12292867321E+02 -0.28599836314E+02  0.19799112384E+02  0.36892683222E+02  0.00000000000E+00 0. -1.
<scales pt_clust_4="550.00000" pt_clust_5="550.00000" pt_clust_6="31.12981"></scales>
<mgrwt>
<rscale>  0 0.30000000E+03</rscale>
<asrwt>  1 0.31129812E+02</asrwt>
<pdfrwt beam="1">  1        1 0.85345411E+00 0.30000000E+03</pdfrwt>
<pdfrwt beam="2">0</pdfrwt>
<totfact> 0.38568656E-04</totfact>
</mgrwt>
<clustering>
<clus scale="   31.130">  1  6  2 -1</clus>
<clus scale="  467.938">  4  5 -1 -1</clus>
<clus scale="  300.000">  1  4  2 -1</clus>
</clustering>
</event>
<event>
 6    1  0.1029244E-011  0.3000000E+03  0.7818608E-02  0.1093470E+00
          1   -1    0    0  502    0  0.00000000000E+00  0.00000000000E+00  0.23810304336E+03  0.23810304336E+03  0.00000000000E+00 0.  1.
         13   -1    0    0    0    0 -0.00000000000E+00 -0.00000000000E+00 -0.27500000000E+03  0.27500000000E+03  0.00000000000E+00 0.  1.
    9000005    2    1    2  501    0 -0.14218523357E+02  0.30535365762E+02 -0.72291661969E+02  0.46424242390E+03  0.45734053919E+03 0.  0.
         13    1    3    3    0    0 -0.11530764477E+03 -0.18240745818E+03 -0.75143426003E+02  0.22850572906E+03  0.00000000000E+00 0.  1.
          1    1    3    3  501    0  0.10108912141E+03  0.21294282394E+03  0.28517640341E+01  0.23573669484E+03  0.00000000000E+00 0.  1.
         21    1    1    2  502  501  0.14218523357E+02 -0.30535365762E+02  0.35394705328E+02  0.48860619459E+02  0.00000000000E+00 0.  1.
<scales pt_clust_4="550.00000" pt_clust_5="550.00000" pt_clust_6="33.68345"></scales>
<mgrwt>
<rscale>  0 0.30000000E+03</rscale>
<asrwt>  1 0.33683452E+02</asrwt>
<pdfrwt beam="1">  1        1 0.86582925E+00 0.30000000E+03</pdfrwt>
<pdfrwt beam="2">0</pdfrwt>
<totfact> 0.28193107E-04</totfact>
</mgrwt>
<clustering>
<clus scale="   33.683">  1  6  2 -1</clus>
<clus scale="  457.341">  4  5 -1 -1</clus>
<clus scale="  300.000">  1  4  2 -1</clus>
</clustering>
</event>
<event>
 6    1  0.1029244E-011  0.3000000E+03  0.7818608E-02  0.1093470E+00
          1   -1    0    0  502    0  0.00000000000E+00  0.00000000000E+00  0.23970746898E+03  0.23970746898E+03  0.00000000000E+00 0.  1.
         13   -1    0    0    0    0 -0.00000000000E+00 -0.00000000000E+00 -0.27500000000E+03  0.27500000000E+03  0.00000000000E+00 0.  1.
    9000005    2    1    2  501    0  0.89296222946E+01 -0.30790133025E+02 -0.73480958974E+02  0.46484639723E+03  0.45788093566E+03 0.  0.
         13    1    3    3    0    0  0.20876074940E+03  0.84456478071E+02 -0.92435389656E+01  0.22538720059E+03  0.00000000000E+00 0.  1.
          1    1    3    3  501    0 -0.19983112710E+03 -0.11524661110E+03 -0.64237420008E+02  0.23945919664E+03  0.00000000000E+00 0.  1.
         21    1    1    2  502  501 -0.89296222946E+01  0.30790133025E+02  0.38188427954E+02  0.49861071746E+02  0.00000000000E+00 0. -1.
<scales pt_clust_4="550.00000" pt_clust_5="550.00000" pt_clust_6="32.05886"></scales>
<mgrwt>
<rscale>  0 0.30000000E+03</rscale>
<asrwt>  1 0.32058859E+02</asrwt>
<pdfrwt beam="1">  1        1 0.87166352E+00 0.30000000E+03</pdfrwt>
<pdfrwt beam="2">0</pdfrwt>
<totfact> 0.24760215E-04</totfact>
</mgrwt>
<clustering>
<clus scale="   32.059">  1  6  2 -1</clus>
<clus scale="  457.881">  4  5 -1 -1</clus>
<clus scale="  300.000">  1  4  2 -1</clus>
</clustering>
</event>
<event>
 6    1  0.1029244E-011  0.3000000E+03  0.7818608E-02  0.1093470E+00
          1   -1    0    0  502    0  0.00000000000E+00  0.00000000000E+00  0.23827395007E+03  0.23827395007E+03  0.00000000000E+00 0.  1.
         13   -1    0    0    0    0 -0.00000000000E+00 -0.00000000000E+00 -0.27500000000E+03  0.27500000000E+03  0.00000000000E+00 0.  1.
    9000005    2    1    2  501    0  0.97494501523E+01 -0.35098934754E+02 -0.44346895095E+02  0.47605749833E+03  0.47258555587E+03 0.  0.
         13    1    3    3    0    0  0.16907805404E+03  0.13655167746E+03 -0.93770567875E+02  0.23669953184E+03  0.00000000000E+00 0.  1.
          1    1    3    3  501    0 -0.15932860389E+03 -0.17165061221E+03  0.49423672780E+02  0.23935796649E+03  0.00000000000E+00 0.  1.
         21    1    1    2  502  501 -0.97494501523E+01  0.35098934754E+02  0.76208451679E+01  0.37216451742E+02  0.00000000000E+00 0.  1.
<scales pt_clust_4="550.00000" pt_clust_5="550.00000" pt_clust_6="36.42783"></scales>
<mgrwt>
<rscale>  0 0.30000000E+03</rscale>
<asrwt>  1 0.36427833E+02</asrwt>
<pdfrwt beam="1">  1        1 0.86645073E+00 0.30000000E+03</pdfrwt>
<pdfrwt beam="2">0</pdfrwt>
<totfact> 0.27362875E-04</totfact>
</mgrwt>
<clustering>
<clus scale="   36.428">  1  6  2 -1</clus>
<clus scale="  472.586">  4  5 -1 -1</clus>
<clus scale="  300.000">  1  4  2 -1</clus>
</clustering>
</event>
<event>
 6    1  0.1029244E-011  0.3000000E+03  0.7818608E-02  0.1093470E+00
          1   -1    0    0  502    0  0.00000000000E+00  0.00000000000E+00  0.23878659861E+03  0.23878659861E+03  0.00000000000E+00 0.  1.
         13   -1    0    0    0    0 -0.00000000000E+00 -0.00000000000E+00 -0.27500000000E+03  0.27500000000E+03  0.00000000000E+00 0.  1.
    9000005    2    1    2  501    0 -0.44550358708E+01 -0.30861778483E+02 -0.70132459199E+02  0.46771275355E+03  0.46137225890E+03 0.  0.
         13    1    3    3    0    0 -0.12698158419E+03  0.10943523821E+03  0.11641624811E+03  0.20409100154E+03  0.00000000000E+00 0.  1.
          3    1    3    3  501    0  0.12252654832E+03 -0.14029701669E+03 -0.18654870730E+03  0.26362175201E+03  0.00000000000E+00 0.  1.
         21    1    1    2  502  501  0.44550358708E+01  0.30861778483E+02  0.33919057804E+02  0.46073845054E+02  0.00000000000E+00 0. -1.
<scales pt_clust_4="550.00000" pt_clust_5="550.00000" pt_clust_6="31.18167"></scales>
<mgrwt>
<rscale>  0 0.30000000E+03</rscale>
<asrwt>  1 0.31181673E+02</asrwt>
<pdfrwt beam="1">  1        1 0.86831490E+00 0.30000000E+03</pdfrwt>
<pdfrwt beam="2">0</pdfrwt>
<totfact> 0.26937829E-04</totfact>
</mgrwt>
<clustering>
<clus scale="   31.182">  1  6  2 -1</clus>
<clus scale="  461.372">  4  5 -1 -1</clus>
<clus scale="  300.000">  1  4  2 -1</clus>
</clustering>
</event>
<event>
 6    1  0.1029244E-011  0.3000000E+03  0.7818608E-02  0.1093470E+00
          1   -1    0    0  502    0  0.00000000000E+00  0.00000000000E+00  0.24407345507E+03  0.24407345507E+03  0.00000000000E+00 0.  1.
         13   -1    0    0    0    0 -0.00000000000E+00 -0.00000000000E+00 -0.27500000000E+03  0.27500000000E+03  0.00000000000E+00 0.  1.
    9000005    2    1    2  501    0 -0.18884014233E+01  0.40697564335E+02 -0.20629791775E+02  0.47705106903E+03  0.47486027034E+03 0.  0.
         13    1    3    3    0    0  0.12657385305E+03 -0.64492724839E+02 -0.19173745325E+03  0.23862837805E+03  0.00000000000E+00 0.  1.
          1    1    3    3  501    0 -0.12846225447E+03  0.10519028917E+03  0.17110766147E+03  0.23842269098E+03  0.00000000000E+00 0.  1.
         21    1    1    2  502  501  0.18884014233E+01 -0.40697564335E+02 -0.10296753156E+02  0.42022386038E+02  0.00000000000E+00 0. -1.
<scales pt_clust_4="550.00000" pt_clust_5="550.00000" pt_clust_6="40.74137"></scales>
<mgrwt>
<rscale>  0 0.30000000E+03</rscale>
<asrwt>  1 0.40741373E+02</asrwt>
<pdfrwt beam="1">  1        1 0.88753984E+00 0.30000000E+03</pdfrwt>
<pdfrwt beam="2">0</pdfrwt>
<totfact> 0.15223719E-04</totfact>
</mgrwt>
<clustering>
<clus scale="   40.741">  1  6  2 -1</clus>
<clus scale="  474.860">  4  5 -1 -1</clus>
<clus scale="  300.000">  1  4  2 -1</clus>
</clustering>
</event>
<event>
 6    1  0.1029244E-011  0.3000000E+03  0.7818608E-02  0.1093470E+00
          1   -1    0    0  502    0  0.00000000000E+00  0.00000000000E+00  0.23121537490E+03  0.23121537490E+03  0.00000000000E+00 0.  1.
         13   -1    0    0    0    0 -0.00000000000E+00 -0.00000000000E+00 -0.27500000000E+03  0.27500000000E+03  0.00000000000E+00 0.  1.
    9000005    2    1    2  501    0  0.16764657261E+02 -0.34708114237E+02 -0.53844424596E+02  0.46637937996E+03  0.46165441303E+03 0.  0.
         13    1    3    3    0    0 -0.71749208705E+02  0.93260420535E+02  0.16204577804E+03  0.20026055320E+03  0.00000000000E+00 0.  1.
          3    1    3    3  501    0  0.88513865966E+02 -0.12796853477E+03 -0.21589020264E+03  0.26611882676E+03  0.00000000000E+00 0.  1.
         21    1    1    2  502  501 -0.16764657261E+02  0.34708114237E+02  0.10059799500E+02  0.39835994941E+02  0.00000000000E+00 0. -1.
<scales pt_clust_4="550.00000" pt_clust_5="550.00000" pt_clust_6="38.54487"></scales>
<mgrwt>
<rscale>  0 0.30000000E+03</rscale>
<asrwt>  1 0.38544869E+02</asrwt>
<pdfrwt beam="1">  1        1 0.84078318E+00 0.30000000E+03</pdfrwt>
<pdfrwt beam="2">0</pdfrwt>
<totfact> 0.48143645E-04</totfact>
</mgrwt>
<clustering>
<clus scale="   38.545">  1  6  2 -1</clus>
<clus scale="  461.654">  4  5 -1 -1</clus>
<clus scale="  300.000">  1  4  2 -1</clus>
</clustering>
</event>
<event>
 6    1  0.1029244E-011  0.3000000E+03  0.7818608E-02  0.1093470E+00
          1   -1    0    0  502    0  0.00000000000E+00  0.00000000000E+00  0.24459464152E+03  0.24459464152E+03  0.00000000000E+00 0.  1.
         13   -1    0    0    0    0 -0.00000000000E+00 -0.00000000000E+00 -0.27500000000E+03  0.27500000000E+03  0.00000000000E+00 0.  1.
    9000005    2    1    2  501    0 -0.18641481252E+02 -0.29456264964E+02 -0.20586439126E+02  0.48337879490E+03  0.48168047658E+03 0.  0.
         13    1    3    3    0    0  0.11309410983E+03 -0.59961147758E+02  0.19240087201E+03  0.23109243274E+03  0.00000000000E+00 0.  1.
          1    1    3    3  501    0 -0.13173559108E+03  0.30504882794E+02 -0.21298731113E+03  0.25228636217E+03  0.00000000000E+00 0.  1.
         21    1    1    2  502  501  0.18641481252E+02  0.29456264964E+02 -0.98189193531E+01  0.36215846617E+02  0.00000000000E+00 0.  1.
<scales pt_clust_4="550.00000" pt_clust_5="550.00000" pt_clust_6="34.85940"></scales>
<mgrwt>
<rscale>  0 0.30000000E+03</rscale>
<asrwt>  1 0.34859397E+02</asrwt>
<pdfrwt beam="1">  1        1 0.88943506E+00 0.30000000E+03</pdfrwt>
<pdfrwt beam="2">0</pdfrwt>
<totfact> 0.14761409E-04</totfact>
</mgrwt>
<clustering>
<clus scale="   34.859">  1  6  2 -1</clus>
<clus scale="  481.680">  4  5 -1 -1</clus>
<clus scale="  300.000">  1  4  2 -1</clus>
</clustering>
</event>
<event>
 6    1  0.1029244E-011  0.3000000E+03  0.7818608E-02  0.1093470E+00
          1   -1    0    0  502    0  0.00000000000E+00  0.00000000000E+00  0.24151276956E+03  0.24151276956E+03  0.00000000000E+00 0.  1.
         13   -1    0    0    0    0 -0.00000000000E+00 -0.00000000000E+00 -0.27500000000E+03  0.27500000000E+03  0.00000000000E+00 0.  1.
    9000005    2    1    2  501    0  0.30585107030E+02  0.77983147065E+01 -0.41418761811E+02  0.48396785177E+03  0.48115808756E+03 0.  0.
         13    1    3    3    0    0  0.20989174695E+02  0.23068173519E+03 -0.10154878159E+03  0.25291651478E+03  0.00000000000E+00 0.  1.
          1    1    3    3  501    0  0.95959323351E+01 -0.22288342048E+03  0.60130019780E+02  0.23105133699E+03  0.00000000000E+00 0.  1.
         21    1    1    2  502  501 -0.30585107030E+02 -0.77983147065E+01  0.79315313703E+01  0.32544917794E+02  0.00000000000E+00 0.  1.
<scales pt_clust_4="550.00000" pt_clust_5="550.00000" pt_clust_6="31.56363"></scales>
<mgrwt>
<rscale>  0 0.30000000E+03</rscale>
<asrwt>  1 0.31563626E+02</asrwt>
<pdfrwt beam="1">  1        1 0.87822825E+00 0.30000000E+03</pdfrwt>
<pdfrwt beam="2">0</pdfrwt>
<totfact> 0.21132610E-04</totfact>
</mgrwt>
<clustering>
<clus scale="   31.564">  1  6  2 -1</clus>
<clus scale="  481.158">  4  5 -1 -1</clus>
<clus scale="  300.000">  1  4  2 -1</clus>
</clustering>
</event>
<event>
 6    1  0.1029244E-011  0.3000000E+03  0.7818608E-02  0.1093470E+00
          1   -1    0    0  502    0  0.00000000000E+00  0.00000000000E+00  0.26758529661E+03  0.26758529661E+03  0.00000000000E+00 0.  1.
         13   -1    0    0    0    0 -0.00000000000E+00 -0.00000000000E+00 -0.27500000000E+03  0.27500000000E+03  0.00000000000E+00 0.  1.
    9000005    2    1    2  501    0  0.24701124137E+02 -0.47620473123E+02 -0.45746061234E+02  0.47665239141E+03  0.47140953016E+03 0.  0.
         13    1    3    3    0    0 -0.48522949990E+02  0.96152721392E+02 -0.21644953908E+03  0.24176481438E+03  0.00000000000E+00 0.  1.
          3    1    3    3  501    0  0.73224074126E+02 -0.14377319452E+03  0.17070347784E+03  0.23488757703E+03  0.00000000000E+00 0.  1.
         21    1    1    2  502  501 -0.24701124137E+02  0.47620473123E+02  0.38331357846E+02  0.65932905202E+02  0.00000000000E+00 0.  1.
<scales pt_clust_4="550.00000" pt_clust_5="550.00000" pt_clust_6="53.64564"></scales>
<mgrwt>
<rscale>  0 0.30000000E+03</rscale>
<asrwt>  1 0.53645643E+02</asrwt>
<pdfrwt beam="1">  1        1 0.97303744E+00 0.30000000E+03</pdfrwt>
<pdfrwt beam="2">0</pdfrwt>
<totfact> 0.41200745E-06</totfact>
</mgrwt>
<clustering>
<clus scale="   53.646">  1  6  2 -1</clus>
<clus scale="  471.410">  4  5 -1 -1</clus>
<clus scale="  300.000">  1  4  2 -1</clus>
</clustering>
</event>
<event>
 6    1  0.1029244E-011  0.3000000E+03  0.7818608E-02  0.1093470E+00
          1   -1    0    0  502    0  0.00000000000E+00  0.00000000000E+00  0.22591067924E+03  0.22591067924E+03  0.00000000000E+00 0.  1.
         13   -1    0    0    0    0 -0.00000000000E+00 -0.00000000000E+00 -0.27500000000E+03  0.27500000000E+03  0.00000000000E+00 0.  1.
    9000005    2    1    2  501    0 -0.18099499233E+02 -0.28285309630E+02 -0.33386950199E+02  0.46384027252E+03  0.46141679570E+03 0.  0.
         13    1    3    3    0    0  0.90259371952E+02 -0.21998662789E+03  0.15444105660E+02  0.23828426527E+03  0.00000000000E+00 0.  1.
          3    1    3    3  501    0 -0.10835887118E+03  0.19170131826E+03 -0.48831055859E+02  0.22555600725E+03  0.00000000000E+00 0.  1.
         21    1    1    2  502  501  0.18099499233E+02  0.28285309630E+02 -0.15702370559E+02  0.37070406721E+02  0.00000000000E+00 0.  1.
<scales pt_clust_4="550.00000" pt_clust_5="550.00000" pt_clust_6="33.58053"></scales>
<mgrwt>
<rscale>  0 0.30000000E+03</rscale>
<asrwt>  1 0.33580526E+02</asrwt>
<pdfrwt beam="1">  1        1 0.82149338E+00 0.30000000E+03</pdfrwt>
<pdfrwt beam="2">0</pdfrwt>
<totfact> 0.70734538E-04</totfact>
</mgrwt>
<clustering>
<clus scale="   33.581">  1  6  2 -1</clus>
<clus scale="  461.417">  4  5 -1 -1</clus>
<clus scale="  300.000">  1  4  2 -1</clus>
</clustering>
</event>
<event>
 6    1  0.1029244E-011  0.3000000E+03  0.7818608E-02  0.1093470E+00
          1   -1    0    0  502    0  0.00000000000E+00  0.00000000000E+00  0.22995833010E+03  0.22995833010E+03  0.00000000000E+00 0.  1.
         13   -1    0    0    0    0 -0.00000000000E+00 -0.00000000000E+00 -0.27500000000E+03  0.27500000000E+03  0.00000000000E+00 0.  1.
    9000005    2    1    2  501    0  0.20879640055E+02  0.35597384298E+02 -0.45581625165E+02  0.46368576428E+03  0.45959076395E+03 0.  0.
         13    1    3    3    0    0  0.37166622501E+02 -0.54935518092E+02 -0.23979006807E+03  0.24879418346E+03  0.00000000000E+00 0.  1.
          3    1    3    3  501    0 -0.16286982446E+02  0.90532902389E+02  0.19420844291E+03  0.21489158082E+03  0.00000000000E+00 0.  1.
         21    1    1    2  502  501 -0.20879640055E+02 -0.35597384298E+02  0.53995526619E+00  0.41272565820E+02  0.00000000000E+00 0. -1.
<scales pt_clust_4="550.00000" pt_clust_5="550.00000" pt_clust_6="41.26903"></scales>
<mgrwt>
<rscale>  0 0.30000000E+03</rscale>
<asrwt>  1 0.41269034E+02</asrwt>
<pdfrwt beam="1">  1        1 0.83621211E+00 0.30000000E+03</pdfrwt>
<pdfrwt beam="2">0</pdfrwt>
<totfact> 0.51427518E-04</totfact>
</mgrwt>
<clustering>
<clus scale="   41.269">  1  6  2 -1</clus>
<clus scale="  459.591">  4  5 -1 -1</clus>
<clus scale="  300.000">  1  4  2 -1</clus>
</clustering>
</event>
<event>
 6    1  0.1029244E-011  0.3000000E+03  0.7818608E-02  0.1093470E+00
          1   -1    0    0  502    0  0.00000000000E+00  0.00000000000E+00  0.24876209508E+03  0.24876209508E+03  0.00000000000E+00 0.  1.
         13   -1    0    0    0    0 -0.00000000000E+00 -0.00000000000E+00 -0.27500000000E+03  0.27500000000E+03  0.00000000000E+00 0.  1.
    9000005    2    1    2  501    0 -0.39384257239E+02 -0.32601358876E+02 -0.33993073540E+02  0.47205028831E+03  0.46804057231E+03 0.  0.
         13    1    3    3    0    0  0.50161369536E+02  0.18772750199E+03  0.77732217773E+02  0.20928467617E+03  0.00000000000E+00 0.  1.
          3    1    3    3  501    0 -0.89545626775E+02 -0.22032886087E+03 -0.11172529131E+03  0.26276561214E+03  0.00000000000E+00 0.  1.
         21    1    1    2  502  501  0.39384257239E+02  0.32601358876E+02  0.77551686178E+01  0.51711806768E+02  0.00000000000E+00 0. -1.
<scales pt_clust_4="550.00000" pt_clust_5="550.00000" pt_clust_6="51.12698"></scales>
<mgrwt>
<rscale>  0 0.30000000E+03</rscale>
<asrwt>  1 0.51126982E+02</asrwt>
<pdfrwt beam="1">  1        1 0.90458944E+00 0.30000000E+03</pdfrwt>
<pdfrwt beam="2">0</pdfrwt>
<totfact> 0.87877868E-05</totfact>
</mgrwt>
<clustering>
<clus scale="   51.127">  1  6  2 -1</clus>
<clus scale="  468.041">  4  5 -1 -1</clus>
<clus scale="  300.000">  1  4  2 -1</clus>
</clustering>
</event>
<event>
 6    1  0.1029244E-011  0.3000000E+03  0.7818608E-02  0.1093470E+00
          1   -1    0    0  502    0  0.00000000000E+00  0.00000000000E+00  0.25172031089E+03  0.25172031089E+03  0.00000000000E+00 0.  1.
         13   -1    0    0    0    0 -0.00000000000E+00 -0.00000000000E+00 -0.27500000000E+03  0.27500000000E+03  0.00000000000E+00 0.  1.
    9000005    2    1    2  501    0 -0.40509979534E+02  0.33367542881E+02 -0.59251957037E+02  0.46309283711E+03  0.45627812791E+03 0.  0.
         13    1    3    3    0    0 -0.23547879442E+03  0.57772878526E+02 -0.10025147896E+03  0.26237059124E+03  0.00000000000E+00 0.  1.
          1    1    3    3  501    0  0.19496881489E+03 -0.24405335645E+02  0.40999521918E+02  0.20072224587E+03  0.00000000000E+00 0.  1.
         21    1    1    2  502  501  0.40509979534E+02 -0.33367542881E+02  0.35972267925E+02  0.63627473779E+02  0.00000000000E+00 0.  1.
<scales pt_clust_4="550.00000" pt_clust_5="550.00000" pt_clust_6="52.48287"></scales>
<mgrwt>
<rscale>  0 0.30000000E+03</rscale>
<asrwt>  1 0.52482867E+02</asrwt>
<pdfrwt beam="1">  1        1 0.91534659E+00 0.30000000E+03</pdfrwt>
<pdfrwt beam="2">0</pdfrwt>
<totfact> 0.49409763E-05</totfact>
</mgrwt>
<clustering>
<clus scale="   52.483">  1  6  2 -1</clus>
<clus scale="  456.278">  4  5 -1 -1</clus>
<clus scale="  300.000">  1  4  2 -1</clus>
</clustering>
</event>
<event>
 6    1  0.1029244E-011  0.3000000E+03  0.7818608E-02  0.1093470E+00
          1   -1    0    0  502    0  0.00000000000E+00  0.00000000000E+00  0.24567089475E+03  0.24567089475E+03  0.00000000000E+00 0.  1.
         13   -1    0    0    0    0 -0.00000000000E+00 -0.00000000000E+00 -0.27500000000E+03  0.27500000000E+03  0.00000000000E+00 0.  1.
    9000005    2    1    2  501    0  0.31337465023E+02  0.34872902124E+01 -0.61790451493E+02  0.47541675785E+03  0.47032843401E+03 0.  0.
         13    1    3    3    0    0  0.12406455081E+03  0.14301840989E+03 -0.18711759948E+03  0.26619405397E+03  0.00000000000E+00 0.  1.
          1    1    3    3  501    0 -0.92727085787E+02 -0.13953111968E+03  0.12532714798E+03  0.20922270388E+03  0.00000000000E+00 0.  1.
         21    1    1    2  502  501 -0.31337465023E+02 -0.34872902124E+01  0.32461346245E+02  0.45254136906E+02  0.00000000000E+00 0. -1.
<scales pt_clust_4="550.00000" pt_clust_5="550.00000" pt_clust_6="31.53090"></scales>
<mgrwt>
<rscale>  0 0.30000000E+03</rscale>
<asrwt>  1 0.31530904E+02</asrwt>
<pdfrwt beam="1">  1        1 0.89334871E+00 0.30000000E+03</pdfrwt>
<pdfrwt beam="2">0</pdfrwt>
<totfact> 0.13430229E-04</totfact>
</mgrwt>
<clustering>
<clus scale="   31.531">  1  6  2 -1</clus>
<clus scale="  470.328">  4  5 -1 -1</clus>
<clus scale="  300.000">  1  4  2 -1</clus>
</clustering>
</event>
<event>
 6    1  0.1029244E-011  0.3000000E+03  0.7818608E-02  0.1093470E+00
          1   -1    0    0  502    0  0.00000000000E+00  0.00000000000E+00  0.25229694536E+03  0.25229694536E+03  0.00000000000E+00 0.  1.
         13   -1    0    0    0    0 -0.00000000000E+00 -0.00000000000E+00 -0.27500000000E+03  0.27500000000E+03  0.00000000000E+00 0.  1.
    9000005    2    1    2  501    0 -0.14321156236E+02  0.32780884954E+02 -0.41203996049E+02  0.48702329681E+03  0.48395685801E+03 0.  0.
         13    1    3    3    0    0  0.75238018552E+02  0.18524122302E+03  0.13194030636E+03  0.23954814669E+03  0.00000000000E+00 0.  1.
          1    1    3    3  501    0 -0.89559174789E+02 -0.15246033806E+03 -0.17314430241E+03  0.24747515012E+03  0.00000000000E+00 0.  1.
         21    1    1    2  502  501  0.14321156236E+02 -0.32780884954E+02  0.18500941411E+02  0.40273648549E+02  0.00000000000E+00 0.  1.
<scales pt_clust_4="550.00000" pt_clust_5="550.00000" pt_clust_6="35.77264"></scales>
<mgrwt>
<rscale>  0 0.30000000E+03</rscale>
<asrwt>  1 0.35772642E+02</asrwt>
<pdfrwt beam="1">  1        1 0.91744344E+00 0.30000000E+03</pdfrwt>
<pdfrwt beam="2">0</pdfrwt>
<totfact> 0.47414564E-05</totfact>
</mgrwt>
<clustering>
<clus scale="   35.773">  1  6  2 -1</clus>
<clus scale="  483.957">  4  5 -1 -1</clus>
<clus scale="  300.000">  1  4  2 -1</clus>
</clustering>
</event>
<event>
 6    1  0.1029244E-011  0.3000000E+03  0.7818608E-02  0.1093470E+00
          1   -1    0    0  502    0  0.00000000000E+00  0.00000000000E+00  0.22999221527E+03  0.22999221527E+03  0.00000000000E+00 0.  1.
         13   -1    0    0    0    0 -0.00000000000E+00 -0.00000000000E+00 -0.27500000000E+03  0.27500000000E+03  0.00000000000E+00 0.  1.
    9000005    2    1    2  501    0 -0.40396443278E+01  0.30507547205E+02 -0.49055623611E+02  0.47395330159E+03  0.47040222015E+03 0.  0.
         13    1    3    3    0    0 -0.14776345392E+03  0.24842587440E+02  0.16063670064E+03  0.21967098592E+03  0.00000000000E+00 0.  1.
          3    1    3    3  501    0  0.14372380960E+03  0.56649597654E+01 -0.20969232425E+03  0.25428231567E+03  0.00000000000E+00 0.  1.
         21    1    1    2  502  501  0.40396443278E+01 -0.30507547205E+02  0.40478388822E+01  0.31038913679E+02  0.00000000000E+00 0. -1.
<scales pt_clust_4="550.00000" pt_clust_5="550.00000" pt_clust_6="30.77384"></scales>
<mgrwt>
<rscale>  0 0.30000000E+03</rscale>
<asrwt>  1 0.30773839E+02</asrwt>
<pdfrwt beam="1">  1        1 0.83633533E+00 0.30000000E+03</pdfrwt>
<pdfrwt beam="2">0</pdfrwt>
<totfact> 0.54207973E-04</totfact>
</mgrwt>
<clustering>
<clus scale="   30.774">  1  6  2 -1</clus>
<clus scale="  470.402">  4  5 -1 -1</clus>
<clus scale="  300.000">  1  4  2 -1</clus>
</clustering>
</event>
<event>
 6    1  0.1029244E-011  0.3000000E+03  0.7818608E-02  0.1093470E+00
          1   -1    0    0  502    0  0.00000000000E+00  0.00000000000E+00  0.23498915935E+03  0.23498915935E+03  0.00000000000E+00 0.  1.
         13   -1    0    0    0    0 -0.00000000000E+00 -0.00000000000E+00 -0.27500000000E+03  0.27500000000E+03  0.00000000000E+00 0.  1.
    9000005    2    1    2  501    0 -0.19349701796E+01  0.30761818899E+02 -0.74143943563E+02  0.46399891771E+03  0.45699850947E+03 0.  0.
         13    1    3    3    0    0 -0.21858279163E+03  0.46741569270E+02  0.25548090703E+02  0.22497981250E+03  0.00000000000E+00 0.  1.
          3    1    3    3  501    0  0.21664782145E+03 -0.15979750371E+02 -0.99692034266E+02  0.23901910521E+03  0.00000000000E+00 0.  1.
         21    1    1    2  502  501  0.19349701796E+01 -0.30761818899E+02  0.34133102913E+02  0.45990241639E+02  0.00000000000E+00 0.  1.
<scales pt_clust_4="550.00000" pt_clust_5="550.00000" pt_clust_6="30.82262"></scales>
<mgrwt>
<rscale>  0 0.30000000E+03</rscale>
<asrwt>  1 0.30822615E+02</asrwt>
<pdfrwt beam="1">  1        1 0.85450603E+00 0.30000000E+03</pdfrwt>
<pdfrwt beam="2">0</pdfrwt>
<totfact> 0.37741898E-04</totfact>
</mgrwt>
<clustering>
<clus scale="   30.823">  1  6  2 -1</clus>
<clus scale="  456.999">  4  5 -1 -1</clus>
<clus scale="  300.000">  1  4  2 -1</clus>
</clustering>
</event>
<event>
 6    1  0.1029244E-011  0.3000000E+03  0.7818608E-02  0.1093470E+00
          1   -1    0    0  502    0  0.00000000000E+00  0.00000000000E+00  0.22545343458E+03  0.22545343458E+03  0.00000000000E+00 0.  1.
         13   -1    0    0    0    0 -0.00000000000E+00 -0.00000000000E+00 -0.27500000000E+03  0.27500000000E+03  0.00000000000E+00 0.  1.
    9000005    2    1    2  501    0  0.10439910675E+02  0.32418112914E+02 -0.56417508069E+02  0.46570957710E+03  0.46102337165E+03 0.  0.
         13    1    3    3    0    0 -0.10716232279E+03 -0.10613361042E+03 -0.18823331460E+03  0.24120507335E+03  0.00000000000E+00 0.  1.
          3    1    3    3  501    0  0.11760223346E+03  0.13855172333E+03  0.13181580653E+03  0.22450450375E+03  0.00000000000E+00 0.  1.
         21    1    1    2  502  501 -0.10439910675E+02 -0.32418112914E+02  0.68709426490E+01  0.34743857482E+02  0.00000000000E+00 0. -1.
<scales pt_clust_4="550.00000" pt_clust_5="550.00000" pt_clust_6="34.05768"></scales>
<mgrwt>
<rscale>  0 0.30000000E+03</rscale>
<asrwt>  1 0.34057683E+02</asrwt>
<pdfrwt beam="1">  1        1 0.81983067E+00 0.30000000E+03</pdfrwt>
<pdfrwt beam="2">0</pdfrwt>
<totfact> 0.72945733E-04</totfact>
</mgrwt>
<clustering>
<clus scale="   34.058">  1  6  2 -1</clus>
<clus scale="  461.023">  4  5 -1 -1</clus>
<clus scale="  300.000">  1  4  2 -1</clus>
</clustering>
</event>
<event>
 6    1  0.1029244E-011  0.3000000E+03  0.7818608E-02  0.1093470E+00
          1   -1    0    0  502    0  0.00000000000E+00  0.00000000000E+00  0.24018133755E+03  0.24018133755E+03  0.00000000000E+00 0.  1.
         13   -1    0    0    0    0 -0.00000000000E+00 -0.00000000000E+00 -0.27500000000E+03  0.27500000000E+03  0.00000000000E+00 0.  1.
    9000005    2    1    2  501    0 -0.31257534456E+02 -0.10636222422E+02 -0.31534972337E+02  0.48200084164E+03  0.47983350673E+03 0.  0.
         13    1    3    3    0    0 -0.23669950593E+02  0.22973733560E+03 -0.63167611349E+02  0.23943612311E+03  0.00000000000E+00 0.  1.
          1    1    3    3  501    0 -0.75875838637E+01 -0.24037355802E+03  0.31632639012E+02  0.24256471853E+03  0.00000000000E+00 0.  1.
         21    1    1    2  502  501  0.31257534456E+02  0.10636222422E+02 -0.32836901154E+01  0.33180495905E+02  0.00000000000E+00 0.  1.
<scales pt_clust_4="550.00000" pt_clust_5="550.00000" pt_clust_6="33.01763"></scales>
<mgrwt>
<rscale>  0 0.30000000E+03</rscale>
<asrwt>  1 0.33017628E+02</asrwt>
<pdfrwt beam="1">  1        1 0.87338668E+00 0.30000000E+03</pdfrwt>
<pdfrwt beam="2">0</pdfrwt>
<totfact> 0.23640179E-04</totfact>
</mgrwt>
<clustering>
<clus scale="   33.018">  1  6  2 -1</clus>
<clus scale="  479.834">  4  5 -1 -1</clus>
<clus scale="  300.000">  1  4  2 -1</clus>
</clustering>
</event>
<event>
 6    1  0.1029244E-011  0.3000000E+03  0.7818608E-02  0.1093470E+00
          1   -1    0    0  502    0  0.00000000000E+00  0.00000000000E+00  0.22368639037E+03  0.22368639037E+03  0.00000000000E+00 0.  1.
         13   -1    0    0    0    0 -0.00000000000E+00 -0.00000000000E+00 -0.27500000000E+03  0.27500000000E+03  0.00000000000E+00 0.  1.
    9000005    2    1    2  501    0 -0.18439280395E+02 -0.26796643461E+02 -0.67387981505E+02  0.46240343854E+03  0.45630881293E+03 0.  0.
         13    1    3    3    0    0 -0.20468184737E+03  0.99615342446E+02 -0.67073622798E+02  0.23731149565E+03  0.00000000000E+00 0.  1.
          1    1    3    3  501    0  0.18624256697E+03 -0.12641198591E+03 -0.31435870661E+00  0.22509194289E+03  0.00000000000E+00 0.  1.
         21    1    1    2  502  501  0.18439280395E+02  0.26796643461E+02  0.16074371872E+02  0.36282951828E+02  0.00000000000E+00 0. -1.
<scales pt_clust_4="550.00000" pt_clust_5="550.00000" pt_clust_6="32.52794"></scales>
<mgrwt>
<rscale>  0 0.30000000E+03</rscale>
<asrwt>  1 0.32527944E+02</asrwt>
<pdfrwt beam="1">  1        1 0.81340506E+00 0.30000000E+03</pdfrwt>
<pdfrwt beam="2">0</pdfrwt>
<totfact> 0.83125329E-04</totfact>
</mgrwt>
<clustering>
<clus scale="   32.528">  1  6  2 -1</clus>
<clus scale="  456.309">  4  5 -1 -1</clus>
<clus scale="  300.000">  1  4  2 -1</clus>
</clustering>
</event>
<event>
 6    1  0.1029244E-011  0.3000000E+03  0.7818608E-02  0.1093470E+00
          1   -1    0    0  502    0  0.00000000000E+00  0.00000000000E+00  0.22498920614E+03  0.22498920614E+03  0.00000000000E+00 0.  1.
         13   -1    0    0    0    0 -0.00000000000E+00 -0.00000000000E+00 -0.27500000000E+03  0.27500000000E+03  0.00000000000E+00 0.  1.
    9000005    2    1    2  501    0 -0.31097225513E+02  0.99434950641E+01 -0.64797824314E+02  0.46414835238E+03  0.45844195320E+03 0.  0.
         13    1    3    3    0    0  0.13257464791E+03 -0.15254428953E+03 -0.10854072477E+03  0.22940550663E+03  0.00000000000E+00 0.  1.
          1    1    3    3  501    0 -0.16367187342E+03  0.16248778459E+03  0.43742900459E+02  0.23474284575E+03  0.00000000000E+00 0.  1.
         21    1    1    2  502  501  0.31097225513E+02 -0.99434950641E+01  0.14787030455E+02  0.35840853762E+02  0.00000000000E+00 0.  1.
<scales pt_clust_4="550.00000" pt_clust_5="550.00000" pt_clust_6="32.64829"></scales>
<mgrwt>
<rscale>  0 0.30000000E+03</rscale>
<asrwt>  1 0.32648285E+02</asrwt>
<pdfrwt beam="1">  1        1 0.81814257E+00 0.30000000E+03</pdfrwt>
<pdfrwt beam="2">0</pdfrwt>
<totfact> 0.76004027E-04</totfact>
</mgrwt>
<clustering>
<clus scale="   32.648">  1  6  2 -1</clus>
<clus scale="  458.442">  4  5 -1 -1</clus>
<clus scale="  300.000">  1  4  2 -1</clus>
</clustering>
</event>
<event>
 6    1  0.1029244E-011  0.3000000E+03  0.7818608E-02  0.1093470E+00
          1   -1    0    0  502    0  0.00000000000E+00  0.00000000000E+00  0.23899704066E+03  0.23899704066E+03  0.00000000000E+00 0.  1.
         13   -1    0    0    0    0 -0.00000000000E+00 -0.00000000000E+00 -0.27500000000E+03  0.27500000000E+03  0.00000000000E+00 0.  1.
    9000005    2    1    2  501    0 -0.10896036754E+02 -0.40631011222E+02 -0.46297608702E+02  0.47068904492E+03  0.46651377873E+03 0.  0.
         13    1    3    3    0    0  0.17978640510E+03 -0.24996939376E+02  0.11966789370E+03  0.21741297850E+03  0.00000000000E+00 0.  1.
          3    1    3    3  501    0 -0.19068244185E+03 -0.15634071845E+02 -0.16596550240E+03  0.25327606642E+03  0.00000000000E+00 0.  1.
         21    1    1    2  502  501  0.10896036754E+02  0.40631011222E+02  0.10294649360E+02  0.43307995743E+02  0.00000000000E+00 0.  1.
<scales pt_clust_4="550.00000" pt_clust_5="550.00000" pt_clust_6="42.06665"></scales>
<mgrwt>
<rscale>  0 0.30000000E+03</rscale>
<asrwt>  1 0.42066646E+02</asrwt>
<pdfrwt beam="1">  1        1 0.86908015E+00 0.30000000E+03</pdfrwt>
<pdfrwt beam="2">0</pdfrwt>
<totfact> 0.25020450E-04</totfact>
</mgrwt>
<clustering>
<clus scale="   42.067">  1  6  2 -1</clus>
<clus scale="  466.514">  4  5 -1 -1</clus>
<clus scale="  300.000">  1  4  2 -1</clus>
</clustering>
</event>
<event>
 6    1  0.1029244E-011  0.3000000E+03  0.7818608E-02  0.1093470E+00
          1   -1    0    0  502    0  0.00000000000E+00  0.00000000000E+00  0.23877777680E+03  0.23877777680E+03  0.00000000000E+00 0.  1.
         13   -1    0    0    0    0 -0.00000000000E+00 -0.00000000000E+00 -0.27500000000E+03  0.27500000000E+03  0.00000000000E+00 0.  1.
    9000005    2    1    2  501    0 -0.31095700926E+02  0.21750972162E+02 -0.66226790364E+02  0.46540090777E+03  0.45909908493E+03 0.  0.
         13    1    3    3    0    0  0.81648885036E+02  0.16701215797E+03  0.10554224534E+03  0.21377269912E+03  0.00000000000E+00 0.  1.
          1    1    3    3  501    0 -0.11274458596E+03 -0.14526118581E+03 -0.17176903570E+03  0.25162820866E+03  0.00000000000E+00 0.  1.
         21    1    1    2  502  501  0.31095700926E+02 -0.21750972162E+02  0.30004567163E+02  0.48376869025E+02  0.00000000000E+00 0.  1.
<scales pt_clust_4="550.00000" pt_clust_5="550.00000" pt_clust_6="37.94796"></scales>
<mgrwt>
<rscale>  0 0.30000000E+03</rscale>
<asrwt>  1 0.37947957E+02</asrwt>
<pdfrwt beam="1">  1        1 0.86828282E+00 0.30000000E+03</pdfrwt>
<pdfrwt beam="2">0</pdfrwt>
<totfact> 0.25982969E-04</totfact>
</mgrwt>
<clustering>
<clus scale="   37.948">  1  6  2 -1</clus>
<clus scale="  459.099">  4  5 -1 -1</clus>
<clus scale="  300.000">  1  4  2 -1</clus>
</clustering>
</event>
<event>
 6    1  0.1029244E-011  0.3000000E+03  0.7818608E-02  0.1093470E+00
          1   -1    0    0  502    0  0.00000000000E+00  0.00000000000E+00  0.23338984349E+03  0.23338984349E+03  0.00000000000E+00 0.  1.
         13   -1    0    0    0    0 -0.00000000000E+00 -0.00000000000E+00 -0.27500000000E+03  0.27500000000E+03  0.00000000000E+00 0.  1.
    9000005    2    1    2  501    0  0.30083135710E+02 -0.48827772134E+01 -0.55357399903E+02  0.47495597940E+03  0.47073336834E+03 0.  0.
         13    1    3    3    0    0 -0.14001090585E+03  0.84530332710E+02 -0.18209750685E+03  0.24476097096E+03  0.00000000000E+00 0.  1.
          3    1    3    3  501    0  0.17009404156E+03 -0.89413109923E+02  0.12674010695E+03  0.23019500843E+03  0.00000000000E+00 0.  1.
         21    1    1    2  502  501 -0.30083135710E+02  0.48827772134E+01  0.13747243395E+02  0.33433864097E+02  0.00000000000E+00 0. -1.
<scales pt_clust_4="550.00000" pt_clust_5="550.00000" pt_clust_6="30.47682"></scales>
<mgrwt>
<rscale>  0 0.30000000E+03</rscale>
<asrwt>  1 0.30476820E+02</asrwt>
<pdfrwt beam="1">  1        1 0.84869034E+00 0.30000000E+03</pdfrwt>
<pdfrwt beam="2">0</pdfrwt>
<totfact> 0.42969602E-04</totfact>
</mgrwt>
<clustering>
<clus scale="   30.477">  1  6  2 -1</clus>
<clus scale="  470.733">  4  5 -1 -1</clus>
<clus scale="  300.000">  1  4  2 -1</clus>
</clustering>
</event>
<event>
 6    1  0.1029244E-011  0.3000000E+03  0.7818608E-02  0.1093470E+00
          1   -1    0    0  502    0  0.00000000000E+00  0.00000000000E+00  0.23551406110E+03  0.23551406110E+03  0.00000000000E+00 0.  1.
         13   -1    0    0    0    0 -0.00000000000E+00 -0.00000000000E+00 -0.27500000000E+03  0.27500000000E+03  0.00000000000E+00 0.  1.
    9000005    2    1    2  501    0  0.37475734695E+01  0.31697099557E+02 -0.66692762982E+02  0.46857408371E+03  0.46270400567E+03 0.  0.
         13    1    3    3    0    0 -0.10483962410E+03  0.48006604968E+02  0.17128722440E+03  0.20648315705E+03  0.00000000000E+00 0.  1.
          1    1    3    3  501    0  0.10858719757E+03 -0.16309505411E+02 -0.23797998738E+03  0.26209092666E+03  0.00000000000E+00 0.  1.
         21    1    1    2  502  501 -0.37475734695E+01 -0.31697099557E+02  0.27206824085E+02  0.41939977397E+02  0.00000000000E+00 0.  1.
<scales pt_clust_4="550.00000" pt_clust_5="550.00000" pt_clust_6="31.91787"></scales>
<mgrwt>
<rscale>  0 0.30000000E+03</rscale>
<asrwt>  1 0.31917870E+02</asrwt>
<pdfrwt beam="1">  1        1 0.85641477E+00 0.30000000E+03</pdfrwt>
<pdfrwt beam="2">0</pdfrwt>
<totfact> 0.35878612E-04</totfact>
</mgrwt>
<clustering>
<clus scale="   31.918">  1  6  2 -1</clus>
<clus scale="  462.704">  4  5 -1 -1</clus>
<clus scale="  300.000">  1  4  2 -1</clus>
</clustering>
</event>
<event>
 6    1  0.1029244E-011  0.3000000E+03  0.7818608E-02  0.1093470E+00
          1   -1    0    0  502    0  0.00000000000E+00  0.00000000000E+00  0.23879918450E+03  0.23879918450E+03  0.00000000000E+00 0.  1.
         13   -1    0    0    0    0 -0.00000000000E+00 -0.00000000000E+00 -0.27500000000E+03  0.27500000000E+03  0.00000000000E+00 0.  1.
    9000005    2    1    2  501    0  0.22560533974E+02 -0.35201965776E+02 -0.90534029180E+01  0.46394802506E+03  0.46197148155E+03 0.  0.
         13    1    3    3    0    0 -0.86534210419E+02  0.10091130006E+03 -0.17729609868E+03  0.22159685616E+03  0.00000000000E+00 0.  1.
          1    1    3    3  501    0  0.10909474439E+03 -0.13611326583E+03  0.16824269576E+03  0.24235116890E+03  0.00000000000E+00 0.  1.
         21    1    1    2  502  501 -0.22560533974E+02  0.35201965776E+02 -0.27147412584E+02  0.49851159441E+02  0.00000000000E+00 0.  1.
<scales pt_clust_4="550.00000" pt_clust_5="550.00000" pt_clust_6="41.81098"></scales>
<mgrwt>
<rscale>  0 0.30000000E+03</rscale>
<asrwt>  1 0.41810977E+02</asrwt>
<pdfrwt beam="1">  1        1 0.86836067E+00 0.30000000E+03</pdfrwt>
<pdfrwt beam="2">0</pdfrwt>
<totfact> 0.25479770E-04</totfact>
</mgrwt>
<clustering>
<clus scale="   41.811">  1  6  2 -1</clus>
<clus scale="  461.971">  4  5 -1 -1</clus>
<clus scale="  300.000">  1  4  2 -1</clus>
</clustering>
</event>
<event>
 6    1  0.1029244E-011  0.3000000E+03  0.7818608E-02  0.1093470E+00
          1   -1    0    0  502    0  0.00000000000E+00  0.00000000000E+00  0.22392712672E+03  0.22392712672E+03  0.00000000000E+00 0.  1.
         13   -1    0    0    0    0 -0.00000000000E+00 -0.00000000000E+00 -0.27500000000E+03  0.27500000000E+03  0.00000000000E+00 0.  1.
    9000005    2    1    2  501    0 -0.94701389583E+01 -0.34868793176E+02 -0.57904873750E+02  0.46215495654E+03  0.45708720523E+03 0.  0.
         13    1    3    3    0    0 -0.10937299853E+03  0.18216417822E+03  0.13172151813E+02  0.21288434940E+03  0.00000000000E+00 0.  1.
          3    1    3    3  501    0  0.99902859576E+02 -0.21703297139E+03 -0.71077025563E+02  0.24927060714E+03  0.00000000000E+00 0.  1.
         21    1    1    2  502  501  0.94701389583E+01  0.34868793176E+02  0.68320004720E+01  0.36772170182E+02  0.00000000000E+00 0. -1.
<scales pt_clust_4="550.00000" pt_clust_5="550.00000" pt_clust_6="36.13193"></scales>
<mgrwt>
<rscale>  0 0.30000000E+03</rscale>
<asrwt>  1 0.36131929E+02</asrwt>
<pdfrwt beam="1">  1        1 0.81428046E+00 0.30000000E+03</pdfrwt>
<pdfrwt beam="2">0</pdfrwt>
<totfact> 0.80196729E-04</totfact>
</mgrwt>
<clustering>
<clus scale="   36.132">  1  6  2 -1</clus>
<clus scale="  457.087">  4  5 -1 -1</clus>
<clus scale="  300.000">  1  4  2 -1</clus>
</clustering>
</event>
<event>
 6    1  0.1029244E-011  0.3000000E+03  0.7818608E-02  0.1093470E+00
          1   -1    0    0  502    0  0.00000000000E+00  0.00000000000E+00  0.23313857668E+03  0.23313857668E+03  0.00000000000E+00 0.  1.
         13   -1    0    0    0    0 -0.00000000000E+00 -0.00000000000E+00 -0.27500000000E+03  0.27500000000E+03  0.00000000000E+00 0.  1.
    9000005    2    1    2  501    0 -0.34293473539E+02 -0.69370635085E+01 -0.46838698498E+02  0.47279825345E+03  0.46916964908E+03 0.  0.
         13    1    3    3    0    0 -0.23994544573E+03  0.58503442045E+02 -0.67405068962E+02  0.25600764243E+03  0.00000000000E+00 0.  1.
          1    1    3    3  501    0  0.20565197220E+03 -0.65440505554E+02  0.20566370465E+02  0.21679061103E+03  0.00000000000E+00 0.  1.
         21    1    1    2  502  501  0.34293473539E+02  0.69370635085E+01  0.49772751775E+01  0.35340323226E+02  0.00000000000E+00 0.  1.
<scales pt_clust_4="550.00000" pt_clust_5="550.00000" pt_clust_6="34.98807"></scales>
<mgrwt>
<rscale>  0 0.30000000E+03</rscale>
<asrwt>  1 0.34988072E+02</asrwt>
<pdfrwt beam="1">  1        1 0.84777664E+00 0.30000000E+03</pdfrwt>
<pdfrwt beam="2">0</pdfrwt>
<totfact> 0.42676477E-04</totfact>
</mgrwt>
<clustering>
<clus scale="   34.988">  1  6  2 -1</clus>
<clus scale="  469.170">  4  5 -1 -1</clus>
<clus scale="  300.000">  1  4  2 -1</clus>
</clustering>
</event>
<event>
 6    1  0.1029244E-011  0.3000000E+03  0.7818608E-02  0.1093470E+00
          1   -1    0    0  502    0  0.00000000000E+00  0.00000000000E+00  0.27242853212E+03  0.27242853212E+03  0.00000000000E+00 0.  1.
         13   -1    0    0    0    0 -0.00000000000E+00 -0.00000000000E+00 -0.27500000000E+03  0.27500000000E+03  0.00000000000E+00 0.  1.
    9000005    2    1    2  501    0  0.23945174379E+02 -0.30574860027E+02 -0.94384102662E+01  0.50799062726E+03  0.50641603485E+03 0.  0.
         13    1    3    3    0    0 -0.65377240463E+02 -0.19750791057E+03  0.15322459834E+03  0.25838215079E+03  0.00000000000E+00 0.  1.
          1    1    3    3  501    0  0.89322414842E+02  0.16693305055E+03 -0.16266300861E+03  0.24960847647E+03  0.00000000000E+00 0.  1.
         21    1    1    2  502  501 -0.23945174379E+02  0.30574860027E+02  0.68669423857E+01  0.39437904855E+02  0.00000000000E+00 0. -1.
<scales pt_clust_4="550.00000" pt_clust_5="550.00000" pt_clust_6="38.83547"></scales>
<mgrwt>
<rscale>  0 0.30000000E+03</rscale>
<asrwt>  1 0.38835466E+02</asrwt>
<pdfrwt beam="1">  1        1 0.99064921E+00 0.30000000E+03</pdfrwt>
<pdfrwt beam="2">0</pdfrwt>
<totfact> 0.66604884E-07</totfact>
</mgrwt>
<clustering>
<clus scale="   38.835">  1  6  2 -1</clus>
<clus scale="  506.416">  4  5 -1 -1</clus>
<clus scale="  300.000">  1  4  2 -1</clus>
</clustering>
</event>
<event>
 6    1  0.1029244E-011  0.3000000E+03  0.7818608E-02  0.1093470E+00
          1   -1    0    0  502    0  0.00000000000E+00  0.00000000000E+00  0.24433649086E+03  0.24433649086E+03  0.00000000000E+00 0.  1.
         13   -1    0    0    0    0 -0.00000000000E+00 -0.00000000000E+00 -0.27500000000E+03  0.27500000000E+03  0.00000000000E+00 0.  1.
    9000005    2    1    2  501    0 -0.42437035264E+02 -0.24556416390E+02 -0.37886642470E+02  0.46977750376E+03  0.46567326078E+03 0.  0.
         13    1    3    3    0    0 -0.23095934349E+03 -0.98607182494E+01 -0.12362912103E+03  0.26215188666E+03  0.00000000000E+00 0.  1.
          3    1    3    3  501    0  0.18852230823E+03 -0.14695698140E+02  0.85742478565E+02  0.20762561710E+03  0.00000000000E+00 0.  1.
         21    1    1    2  502  501  0.42437035264E+02  0.24556416390E+02  0.72231333320E+01  0.49558987107E+02  0.00000000000E+00 0. -1.
<scales pt_clust_4="550.00000" pt_clust_5="550.00000" pt_clust_6="49.02978"></scales>
<mgrwt>
<rscale>  0 0.30000000E+03</rscale>
<asrwt>  1 0.49029782E+02</asrwt>
<pdfrwt beam="1">  1        1 0.88849633E+00 0.30000000E+03</pdfrwt>
<pdfrwt beam="2">0</pdfrwt>
<totfact> 0.14288766E-04</totfact>
</mgrwt>
<clustering>
<clus scale="   49.030">  1  6  2 -1</clus>
<clus scale="  465.673">  4  5 -1 -1</clus>
<clus scale="  300.000">  1  4  2 -1</clus>
</clustering>
</event>
<event>
 6    1  0.1029244E-011  0.3000000E+03  0.7818608E-02  0.1093470E+00
          1   -1    0    0  502    0  0.00000000000E+00  0.00000000000E+00  0.22594404153E+03  0.22594404153E+03  0.00000000000E+00 0.  1.
         13   -1    0    0    0    0 -0.00000000000E+00 -0.00000000000E+00 -0.27500000000E+03  0.27500000000E+03  0.00000000000E+00 0.  1.
    9000005    2    1    2  501    0  0.11493523295E+02 -0.34881919360E+02 -0.57588876193E+02  0.46323913388E+03  0.45817591286E+03 0.  0.
         13    1    3    3    0    0  0.17939640026E+03  0.91969517454E+02  0.74341712654E+02  0.21486775190E+03  0.00000000000E+00 0.  1.
          3    1    3    3  501    0 -0.16790287696E+03 -0.12685143681E+03 -0.13193058885E+03  0.24837138198E+03  0.00000000000E+00 0.  1.
         21    1    1    2  502  501 -0.11493523295E+02  0.34881919360E+02  0.85329177249E+01  0.37704907650E+02  0.00000000000E+00 0. -1.
<scales pt_clust_4="550.00000" pt_clust_5="550.00000" pt_clust_6="36.72668"></scales>
<mgrwt>
<rscale>  0 0.30000000E+03</rscale>
<asrwt>  1 0.36726685E+02</asrwt>
<pdfrwt beam="1">  1        1 0.82161470E+00 0.30000000E+03</pdfrwt>
<pdfrwt beam="2">0</pdfrwt>
<totfact> 0.69388980E-04</totfact>
</mgrwt>
<clustering>
<clus scale="   36.727">  1  6  2 -1</clus>
<clus scale="  458.176">  4  5 -1 -1</clus>
<clus scale="  300.000">  1  4  2 -1</clus>
</clustering>
</event>
<event>
 6    1  0.1029244E-011  0.3000000E+03  0.7818608E-02  0.1093470E+00
          1   -1    0    0  502    0  0.00000000000E+00  0.00000000000E+00  0.22796819007E+03  0.22796819007E+03  0.00000000000E+00 0.  1.
         13   -1    0    0    0    0 -0.00000000000E+00 -0.00000000000E+00 -0.27500000000E+03  0.27500000000E+03  0.00000000000E+00 0.  1.
    9000005    2    1    2  501    0 -0.18786209481E+02  0.27565870726E+02 -0.58608393234E+02  0.46765790578E+03  0.46277010943E+03 0.  0.
         13    1    3    3    0    0  0.14565264944E+03 -0.75714599116E+02 -0.17606078992E+03  0.24071725438E+03  0.00000000000E+00 0.  1.
          3    1    3    3  501    0 -0.16443885892E+03  0.10328046984E+03  0.11745239669E+03  0.22694065140E+03  0.00000000000E+00 0.  1.
         21    1    1    2  502  501  0.18786209481E+02 -0.27565870726E+02  0.11576583302E+02  0.35310284288E+02  0.00000000000E+00 0. -1.
<scales pt_clust_4="550.00000" pt_clust_5="550.00000" pt_clust_6="33.35864"></scales>
<mgrwt>
<rscale>  0 0.30000000E+03</rscale>
<asrwt>  1 0.33358640E+02</asrwt>
<pdfrwt beam="1">  1        1 0.82897524E+00 0.30000000E+03</pdfrwt>
<pdfrwt beam="2">0</pdfrwt>
<totfact> 0.60828043E-04</totfact>
</mgrwt>
<clustering>
<clus scale="   33.359">  1  6  2 -1</clus>
<clus scale="  462.770">  4  5 -1 -1</clus>
<clus scale="  300.000">  1  4  2 -1</clus>
</clustering>
</event>
<event>
 6    1  0.1029244E-011  0.3000000E+03  0.7818608E-02  0.1093470E+00
          1   -1    0    0  502    0  0.00000000000E+00  0.00000000000E+00  0.23835307475E+03  0.23835307475E+03  0.00000000000E+00 0.  1.
         13   -1    0    0    0    0 -0.00000000000E+00 -0.00000000000E+00 -0.27500000000E+03  0.27500000000E+03  0.00000000000E+00 0.  1.
    9000005    2    1    2  501    0  0.56352327420E+00  0.34634709800E+02 -0.24781835513E+02  0.47673803636E+03  0.47483169151E+03 0.  0.
         13    1    3    3    0    0 -0.19604409572E+03  0.35130286988E+02  0.12004411989E+03  0.23254680228E+03  0.00000000000E+00 0.  1.
          3    1    3    3  501    0  0.19660761899E+03 -0.49557718785E+00 -0.14482595540E+03  0.24419123408E+03  0.00000000000E+00 0.  1.
         21    1    1    2  502  501 -0.56352327420E+00 -0.34634709800E+02 -0.11865089740E+02  0.36615038385E+02  0.00000000000E+00 0. -1.
<scales pt_clust_4="550.00000" pt_clust_5="550.00000" pt_clust_6="34.63931"></scales>
<mgrwt>
<rscale>  0 0.30000000E+03</rscale>
<asrwt>  1 0.34639311E+02</asrwt>
<pdfrwt beam="1">  1        1 0.86673845E+00 0.30000000E+03</pdfrwt>
<pdfrwt beam="2">0</pdfrwt>
<totfact> 0.27428083E-04</totfact>
</mgrwt>
<clustering>
<clus scale="   34.639">  1  6  2 -1</clus>
<clus scale="  474.832">  4  5 -1 -1</clus>
<clus scale="  300.000">  1  4  2 -1</clus>
</clustering>
</event>
<event>
 6    1  0.1029244E-011  0.3000000E+03  0.7818608E-02  0.1093470E+00
          1   -1    0    0  502    0  0.00000000000E+00  0.00000000000E+00  0.23688426670E+03  0.23688426670E+03  0.00000000000E+00 0.  1.
         13   -1    0    0    0    0 -0.00000000000E+00 -0.00000000000E+00 -0.27500000000E+03  0.27500000000E+03  0.00000000000E+00 0.  1.
    9000005    2    1    2  501    0  0.28061490396E+02  0.19535394243E+02 -0.70423891371E+02  0.46484283869E+03  0.45820329694E+03 0.  0.
         13    1    3    3    0    0  0.69928966667E+02 -0.47371238833E+02  0.18185135125E+03  0.20050937285E+03  0.00000000000E+00 0.  1.
          3    1    3    3  501    0 -0.41867476271E+02  0.66906633076E+02 -0.25227524263E+03  0.26433346584E+03  0.00000000000E+00 0.  1.
         21    1    1    2  502  501 -0.28061490396E+02 -0.19535394243E+02  0.32308158068E+02  0.47041428010E+02  0.00000000000E+00 0.  1.
<scales pt_clust_4="550.00000" pt_clust_5="550.00000" pt_clust_6="34.19180"></scales>
<mgrwt>
<rscale>  0 0.30000000E+03</rscale>
<asrwt>  1 0.34191795E+02</asrwt>
<pdfrwt beam="1">  1        1 0.86139733E+00 0.30000000E+03</pdfrwt>
<pdfrwt beam="2">0</pdfrwt>
<totfact> 0.31386271E-04</totfact>
</mgrwt>
<clustering>
<clus scale="   34.192">  1  6  2 -1</clus>
<clus scale="  458.203">  4  5 -1 -1</clus>
<clus scale="  300.000">  1  4  2 -1</clus>
</clustering>
</event>
<event>
 6    1  0.1029244E-011  0.3000000E+03  0.7818608E-02  0.1093470E+00
          1   -1    0    0  502    0  0.00000000000E+00  0.00000000000E+00  0.23241484852E+03  0.23241484852E+03  0.00000000000E+00 0.  1.
         13   -1    0    0    0    0 -0.00000000000E+00 -0.00000000000E+00 -0.27500000000E+03  0.27500000000E+03  0.00000000000E+00 0.  1.
    9000005    2    1    2  501    0 -0.31261585682E+02  0.55570774336E+01 -0.65648992497E+02  0.46817063097E+03  0.46245624835E+03 0.  0.
         13    1    3    3    0    0  0.18519693453E+03 -0.10511622563E+03  0.11084772343E+02  0.21323742079E+03  0.00000000000E+00 0.  1.
          3    1    3    3  501    0 -0.21645852021E+03  0.11067330306E+03 -0.76733764840E+02  0.25493321017E+03  0.00000000000E+00 0.  1.
         21    1    1    2  502  501  0.31261585682E+02 -0.55570774336E+01  0.23063841015E+02  0.39244217553E+02  0.00000000000E+00 0.  1.
<scales pt_clust_4="550.00000" pt_clust_5="550.00000" pt_clust_6="31.75166"></scales>
<mgrwt>
<rscale>  0 0.30000000E+03</rscale>
<asrwt>  1 0.31751659E+02</asrwt>
<pdfrwt beam="1">  1        1 0.84514490E+00 0.30000000E+03</pdfrwt>
<pdfrwt beam="2">0</pdfrwt>
<totfact> 0.45886554E-04</totfact>
</mgrwt>
<clustering>
<clus scale="   31.752">  1  6  2 -1</clus>
<clus scale="  462.456">  4  5 -1 -1</clus>
<clus scale="  300.000">  1  4  2 -1</clus>
</clustering>
</event>
<event>
 6    1  0.1029244E-011  0.3000000E+03  0.7818608E-02  0.1093470E+00
          1   -1    0    0  502    0  0.00000000000E+00  0.00000000000E+00  0.23625628074E+03  0.23625628074E+03  0.00000000000E+00 0.  1.
         13   -1    0    0    0    0 -0.00000000000E+00 -0.00000000000E+00 -0.27500000000E+03  0.27500000000E+03  0.00000000000E+00 0.  1.
    9000005    2    1    2  501    0  0.40951520243E+02 -0.76243823536E+01 -0.27054529753E+02  0.46799203028E+03  0.46534872366E+03 0.  0.
         13    1    3    3    0    0  0.92756028017E+02 -0.42437420022E+02 -0.23217065701E+03  0.25358988412E+03  0.00000000000E+00 0.  1.
          1    1    3    3  501    0 -0.51804507774E+02  0.34813037668E+02  0.20511612726E+03  0.21440214616E+03  0.00000000000E+00 0.  1.
         21    1    1    2  502  501 -0.40951520243E+02  0.76243823536E+01 -0.11689189505E+02  0.43264250459E+02  0.00000000000E+00 0.  1.
<scales pt_clust_4="550.00000" pt_clust_5="550.00000" pt_clust_6="41.65525"></scales>
<mgrwt>
<rscale>  0 0.30000000E+03</rscale>
<asrwt>  1 0.41655251E+02</asrwt>
<pdfrwt beam="1">  1        1 0.85911375E+00 0.30000000E+03</pdfrwt>
<pdfrwt beam="2">0</pdfrwt>
<totfact> 0.32012933E-04</totfact>
</mgrwt>
<clustering>
<clus scale="   41.655">  1  6  2 -1</clus>
<clus scale="  465.349">  4  5 -1 -1</clus>
<clus scale="  300.000">  1  4  2 -1</clus>
</clustering>
</event>
<event>
 6    1  0.1029244E-011  0.3000000E+03  0.7818608E-02  0.1093470E+00
          1   -1    0    0  502    0  0.00000000000E+00  0.00000000000E+00  0.24616393801E+03  0.24616393801E+03  0.00000000000E+00 0.  1.
         13   -1    0    0    0    0 -0.00000000000E+00 -0.00000000000E+00 -0.27500000000E+03  0.27500000000E+03  0.00000000000E+00 0.  1.
    9000005    2    1    2  501    0 -0.24415367816E+02  0.33806738486E+02 -0.53702176603E+02  0.47261160121E+03  0.46769519570E+03 0.  0.
         13    1    3    3    0    0  0.15608976458E+03  0.28010774626E+02  0.13728983822E+03  0.20975489930E+03  0.00000000000E+00 0.  1.
          3    1    3    3  501    0 -0.18050513240E+03  0.57959638599E+01 -0.19099201482E+03  0.26285670192E+03  0.00000000000E+00 0.  1.
         21    1    1    2  502  501  0.24415367816E+02 -0.33806738486E+02  0.24866114617E+02  0.48552336800E+02  0.00000000000E+00 0.  1.
<scales pt_clust_4="550.00000" pt_clust_5="550.00000" pt_clust_6="41.70139"></scales>
<mgrwt>
<rscale>  0 0.30000000E+03</rscale>
<asrwt>  1 0.41701388E+02</asrwt>
<pdfrwt beam="1">  1        1 0.89514159E+00 0.30000000E+03</pdfrwt>
<pdfrwt beam="2">0</pdfrwt>
<totfact> 0.12164647E-04</totfact>
</mgrwt>
<clustering>
<clus scale="   41.701">  1  6  2 -1</clus>
<clus scale="  467.695">  4  5 -1 -1</clus>
<clus scale="  300.000">  1  4  2 -1</clus>
</clustering>
</event>
<event>
 6    1  0.1029244E-011  0.3000000E+03  0.7818608E-02  0.1093470E+00
          1   -1    0    0  502    0  0.00000000000E+00  0.00000000000E+00  0.23386647234E+03  0.23386647234E+03  0.00000000000E+00 0.  1.
         13   -1    0    0    0    0 -0.00000000000E+00 -0.00000000000E+00 -0.27500000000E+03  0.27500000000E+03  0.00000000000E+00 0.  1.
    9000005    2    1    2  501    0 -0.71294442713E+01 -0.33142392339E+02 -0.65995242063E+02  0.46682658665E+03  0.46089309269E+03 0.  0.
         13    1    3    3    0    0  0.20382206052E+03  0.84307303915E+02 -0.36921820376E+02  0.22363893817E+03  0.00000000000E+00 0.  1.
          1    1    3    3  501    0 -0.21095150479E+03 -0.11744969625E+03 -0.29073421687E+02  0.24318764848E+03  0.00000000000E+00 0.  1.
         21    1    1    2  502  501  0.71294442713E+01  0.33142392339E+02  0.24861714406E+02  0.42039885690E+02  0.00000000000E+00 0.  1.
<scales pt_clust_4="550.00000" pt_clust_5="550.00000" pt_clust_6="33.90055"></scales>
<mgrwt>
<rscale>  0 0.30000000E+03</rscale>
<asrwt>  1 0.33900548E+02</asrwt>
<pdfrwt beam="1">  1        1 0.85042354E+00 0.30000000E+03</pdfrwt>
<pdfrwt beam="2">0</pdfrwt>
<totfact> 0.40569259E-04</totfact>
</mgrwt>
<clustering>
<clus scale="   33.901">  1  6  2 -1</clus>
<clus scale="  460.893">  4  5 -1 -1</clus>
<clus scale="  300.000">  1  4  2 -1</clus>
</clustering>
</event>
<event>
 6    1  0.1029244E-011  0.3000000E+03  0.7818608E-02  0.1093470E+00
          1   -1    0    0  502    0  0.00000000000E+00  0.00000000000E+00  0.23284850036E+03  0.23284850036E+03  0.00000000000E+00 0.  1.
         13   -1    0    0    0    0 -0.00000000000E+00 -0.00000000000E+00 -0.27500000000E+03  0.27500000000E+03  0.00000000000E+00 0.  1.
    9000005    2    1    2  501    0  0.13581024382E+01 -0.31748070126E+02 -0.47924807361E+02  0.47555120201E+03  0.47206183300E+03 0.  0.
         13    1    3    3    0    0 -0.15596153898E+03  0.15797191530E+03 -0.56051178577E+02  0.22895602697E+03  0.00000000000E+00 0.  1.
          3    1    3    3  501    0  0.15731964141E+03 -0.18971998543E+03  0.81263712163E+01  0.24659517504E+03  0.00000000000E+00 0.  1.
         21    1    1    2  502  501 -0.13581024382E+01  0.31748070126E+02  0.57733077241E+01  0.32297298355E+02  0.00000000000E+00 0. -1.
<scales pt_clust_4="550.00000" pt_clust_5="550.00000" pt_clust_6="31.77710"></scales>
<mgrwt>
<rscale>  0 0.30000000E+03</rscale>
<asrwt>  1 0.31777105E+02</asrwt>
<pdfrwt beam="1">  1        1 0.84672182E+00 0.30000000E+03</pdfrwt>
<pdfrwt beam="2">0</pdfrwt>
<totfact> 0.44425010E-04</totfact>
</mgrwt>
<clustering>
<clus scale="   31.777">  1  6  2 -1</clus>
<clus scale="  472.062">  4  5 -1 -1</clus>
<clus scale="  300.000">  1  4  2 -1</clus>
</clustering>
</event>
<event>
 6    1  0.1029244E-011  0.3000000E+03  0.7818608E-02  0.1093470E+00
          1   -1    0    0  502    0  0.00000000000E+00  0.00000000000E+00  0.22054676957E+03  0.22054676957E+03  0.00000000000E+00 0.  1.
         13   -1    0    0    0    0 -0.00000000000E+00 -0.00000000000E+00 -0.27500000000E+03  0.27500000000E+03  0.00000000000E+00 0.  1.
    9000005    2    1    2  501    0  0.16523684731E+02 -0.27940348682E+02 -0.62552006358E+02  0.46209104640E+03  0.45668554435E+03 0.  0.
         13    1    3    3    0    0  0.88198080359E+02 -0.21181159047E+03  0.50111108381E+02  0.23484925893E+03  0.00000000000E+00 0.  1.
          1    1    3    3  501    0 -0.71674395628E+02  0.18387124179E+03 -0.11266311474E+03  0.22724178746E+03  0.00000000000E+00 0.  1.
         21    1    1    2  502  501 -0.16523684731E+02  0.27940348682E+02  0.80987759295E+01  0.33455723175E+02  0.00000000000E+00 0.  1.
<scales pt_clust_4="550.00000" pt_clust_5="550.00000" pt_clust_6="32.46067"></scales>
<mgrwt>
<rscale>  0 0.30000000E+03</rscale>
<asrwt>  1 0.32460672E+02</asrwt>
<pdfrwt beam="1">  1        1 0.80198825E+00 0.30000000E+03</pdfrwt>
<pdfrwt beam="2">0</pdfrwt>
<totfact> 0.10174968E-03</totfact>
</mgrwt>
<clustering>
<clus scale="   32.461">  1  6  2 -1</clus>
<clus scale="  456.686">  4  5 -1 -1</clus>
<clus scale="  300.000">  1  4  2 -1</clus>
</clustering>
</event>
<event>
 6    1  0.1029244E-011  0.3000000E+03  0.7818608E-02  0.1093470E+00
          1   -1    0    0  502    0  0.00000000000E+00  0.00000000000E+00  0.24024693161E+03  0.24024693161E+03  0.00000000000E+00 0.  1.
         13   -1    0    0    0    0 -0.00000000000E+00 -0.00000000000E+00 -0.27500000000E+03  0.27500000000E+03  0.00000000000E+00 0.  1.
    9000005    2    1    2  501    0 -0.22199465664E+02  0.35004336233E+02 -0.55505374741E+02  0.46889201764E+03  0.46374643691E+03 0.  0.
         13    1    3    3    0    0 -0.11228596888E+03 -0.13505215019E+03  0.11651887021E+03  0.21076970654E+03  0.00000000000E+00 0.  1.
          1    1    3    3  501    0  0.90086503216E+02  0.17005648643E+03 -0.17202424495E+03  0.25812231110E+03  0.00000000000E+00 0.  1.
         21    1    1    2  502  501  0.22199465664E+02 -0.35004336233E+02  0.20752306356E+02  0.46354913978E+02  0.00000000000E+00 0.  1.
<scales pt_clust_4="550.00000" pt_clust_5="550.00000" pt_clust_6="41.45021"></scales>
<mgrwt>
<rscale>  0 0.30000000E+03</rscale>
<asrwt>  1 0.41450209E+02</asrwt>
<pdfrwt beam="1">  1        1 0.87362521E+00 0.30000000E+03</pdfrwt>
<pdfrwt beam="2">0</pdfrwt>
<totfact> 0.22536963E-04</totfact>
</mgrwt>
<clustering>
<clus scale="   41.450">  1  6  2 -1</clus>
<clus scale="  463.746">  4  5 -1 -1</clus>
<clus scale="  300.000">  1  4  2 -1</clus>
</clustering>
</event>
<event>
 6    1  0.1029244E-011  0.3000000E+03  0.7818608E-02  0.1093470E+00
          1   -1    0    0  502    0  0.00000000000E+00  0.00000000000E+00  0.23866931882E+03  0.23866931882E+03  0.00000000000E+00 0.  1.
         13   -1    0    0    0    0 -0.00000000000E+00 -0.00000000000E+00 -0.27500000000E+03  0.27500000000E+03  0.00000000000E+00 0.  1.
    9000005    2    1    2  501    0  0.54072344242E+01 -0.32005340048E+02 -0.41455071995E+02  0.48080840957E+03  0.47791696323E+03 0.  0.
         13    1    3    3    0    0  0.94922143126E+02 -0.22172185159E+03  0.58886545372E+02  0.24827085603E+03  0.00000000000E+00 0.  1.
          3    1    3    3  501    0 -0.89514908701E+02  0.18971651154E+03 -0.10034161737E+03  0.23253755354E+03  0.00000000000E+00 0.  1.
         21    1    1    2  502  501 -0.54072344242E+01  0.32005340048E+02  0.51243908172E+01  0.32860909254E+02  0.00000000000E+00 0. -1.
<scales pt_clust_4="550.00000" pt_clust_5="550.00000" pt_clust_6="32.45890"></scales>
<mgrwt>
<rscale>  0 0.30000000E+03</rscale>
<asrwt>  1 0.32458897E+02</asrwt>
<pdfrwt beam="1">  1        1 0.86788843E+00 0.30000000E+03</pdfrwt>
<pdfrwt beam="2">0</pdfrwt>
<totfact> 0.27006515E-04</totfact>
</mgrwt>
<clustering>
<clus scale="   32.459">  1  6  2 -1</clus>
<clus scale="  477.917">  4  5 -1 -1</clus>
<clus scale="  300.000">  1  4  2 -1</clus>
</clustering>
</event>
<event>
 6    1  0.1029244E-011  0.3000000E+03  0.7818608E-02  0.1093470E+00
          1   -1    0    0  502    0  0.00000000000E+00  0.00000000000E+00  0.23876808877E+03  0.23876808877E+03  0.00000000000E+00 0.  1.
         13   -1    0    0    0    0 -0.00000000000E+00 -0.00000000000E+00 -0.27500000000E+03  0.27500000000E+03  0.00000000000E+00 0.  1.
    9000005    2    1    2  501    0  0.34332381096E+02 -0.19445995217E+01 -0.62446987528E+02  0.47052778252E+03  0.46509598366E+03 0.  0.
         13    1    3    3    0    0 -0.10252851221E+03 -0.11674427881E+03  0.13387841641E+03  0.20509693520E+03  0.00000000000E+00 0.  1.
          3    1    3    3  501    0  0.13686089331E+03  0.11479967928E+03 -0.19632540393E+03  0.26543084732E+03  0.00000000000E+00 0.  1.
         21    1    1    2  502  501 -0.34332381096E+02  0.19445995217E+01  0.26215076299E+02  0.43240306248E+02  0.00000000000E+00 0.  1.
<scales pt_clust_4="550.00000" pt_clust_5="550.00000" pt_clust_6="34.38741"></scales>
<mgrwt>
<rscale>  0 0.30000000E+03</rscale>
<asrwt>  1 0.34387408E+02</asrwt>
<pdfrwt beam="1">  1        1 0.86824760E+00 0.30000000E+03</pdfrwt>
<pdfrwt beam="2">0</pdfrwt>
<totfact> 0.26485719E-04</totfact>
</mgrwt>
<clustering>
<clus scale="   34.387">  1  6  2 -1</clus>
<clus scale="  465.096">  4  5 -1 -1</clus>
<clus scale="  300.000">  1  4  2 -1</clus>
</clustering>
</event>
<event>
 6    1  0.1029244E-011  0.3000000E+03  0.7818608E-02  0.1093470E+00
          1   -1    0    0  502    0  0.00000000000E+00  0.00000000000E+00  0.22728458399E+03  0.22728458399E+03  0.00000000000E+00 0.  1.
         13   -1    0    0    0    0 -0.00000000000E+00 -0.00000000000E+00 -0.27500000000E+03  0.27500000000E+03  0.00000000000E+00 0.  1.
    9000005    2    1    2  501    0  0.36387794614E+02  0.12496203096E+02 -0.34038392124E+02  0.46145214993E+03  0.45858395943E+03 0.  0.
         13    1    3    3    0    0  0.44639082883E+01  0.22740019859E+03 -0.76724555731E+02  0.24003631860E+03  0.00000000000E+00 0.  1.
          3    1    3    3  501    0  0.31923886326E+02 -0.21490399550E+03  0.42686163608E+02  0.22141583133E+03  0.00000000000E+00 0.  1.
         21    1    1    2  502  501 -0.36387794614E+02 -0.12496203096E+02 -0.13677023889E+02  0.40832434058E+02  0.00000000000E+00 0.  1.
<scales pt_clust_4="550.00000" pt_clust_5="550.00000" pt_clust_6="38.47373"></scales>
<mgrwt>
<rscale>  0 0.30000000E+03</rscale>
<asrwt>  1 0.38473733E+02</asrwt>
<pdfrwt beam="1">  1        1 0.82648940E+00 0.30000000E+03</pdfrwt>
<pdfrwt beam="2">0</pdfrwt>
<totfact> 0.62253708E-04</totfact>
</mgrwt>
<clustering>
<clus scale="   38.474">  1  6  2 -1</clus>
<clus scale="  458.584">  4  5 -1 -1</clus>
<clus scale="  300.000">  1  4  2 -1</clus>
</clustering>
</event>
<event>
 6    1  0.1029244E-011  0.3000000E+03  0.7818608E-02  0.1093470E+00
          1   -1    0    0  502    0  0.00000000000E+00  0.00000000000E+00  0.25693639837E+03  0.25693639837E+03  0.00000000000E+00 0.  1.
         13   -1    0    0    0    0 -0.00000000000E+00 -0.00000000000E+00 -0.27500000000E+03  0.27500000000E+03  0.00000000000E+00 0.  1.
    9000005    2    1    2  501    0 -0.31995925239E+02 -0.23108965641E+01 -0.72494057719E+02  0.46875606896E+03  0.46200409555E+03 0.  0.
         13    1    3    3    0    0  0.13849630052E+03 -0.69049599626E+02 -0.19463867345E+03  0.24866299618E+03  0.00000000000E+00 0.  1.
          3    1    3    3  501    0 -0.17049222576E+03  0.66738703062E+02  0.12214461573E+03  0.22009307278E+03  0.00000000000E+00 0.  1.
         21    1    1    2  502  501  0.31995925239E+02  0.23108965641E+01  0.54430456088E+02  0.63180329414E+02  0.00000000000E+00 0. -1.
<scales pt_clust_4="550.00000" pt_clust_5="550.00000" pt_clust_6="32.07927"></scales>
<mgrwt>
<rscale>  0 0.30000000E+03</rscale>
<asrwt>  1 0.32079269E+02</asrwt>
<pdfrwt beam="1">  1        1 0.93431418E+00 0.30000000E+03</pdfrwt>
<pdfrwt beam="2">0</pdfrwt>
<totfact> 0.23342542E-05</totfact>
</mgrwt>
<clustering>
<clus scale="   32.079">  1  6  2 -1</clus>
<clus scale="  462.004">  4  5 -1 -1</clus>
<clus scale="  300.000">  1  4  2 -1</clus>
</clustering>
</event>
<event>
 6    1  0.1029244E-011  0.3000000E+03  0.7818608E-02  0.1093470E+00
          1   -1    0    0  502    0  0.00000000000E+00  0.00000000000E+00  0.24058072045E+03  0.24058072045E+03  0.00000000000E+00 0.  1.
         13   -1    0    0    0    0 -0.00000000000E+00 -0.00000000000E+00 -0.27500000000E+03  0.27500000000E+03  0.00000000000E+00 0.  1.
    9000005    2    1    2  501    0 -0.26033425008E+02 -0.29498718206E+02 -0.24059888734E+02  0.47489619548E+03  0.47265167369E+03 0.  0.
         13    1    3    3    0    0  0.14947349346E+03 -0.72892708907E+02  0.14998408786E+03  0.22394396368E+03  0.00000000000E+00 0.  1.
          1    1    3    3  501    0 -0.17550691846E+03  0.43393990700E+02 -0.17404397660E+03  0.25095223180E+03  0.00000000000E+00 0.  1.
         21    1    1    2  502  501  0.26033425008E+02  0.29498718206E+02 -0.10359390818E+02  0.40684524965E+02  0.00000000000E+00 0. -1.
<scales pt_clust_4="550.00000" pt_clust_5="550.00000" pt_clust_6="39.34355"></scales>
<mgrwt>
<rscale>  0 0.30000000E+03</rscale>
<asrwt>  1 0.39343553E+02</asrwt>
<pdfrwt beam="1">  1        1 0.87483898E+00 0.30000000E+03</pdfrwt>
<pdfrwt beam="2">0</pdfrwt>
<totfact> 0.22097425E-04</totfact>
</mgrwt>
<clustering>
<clus scale="   39.344">  1  6  2 -1</clus>
<clus scale="  472.652">  4  5 -1 -1</clus>
<clus scale="  300.000">  1  4  2 -1</clus>
</clustering>
</event>
<event>
 6    1  0.1029244E-011  0.3000000E+03  0.7818608E-02  0.1093470E+00
          1   -1    0    0  502    0  0.00000000000E+00  0.00000000000E+00  0.24886819076E+03  0.24886819076E+03  0.00000000000E+00 0.  1.
         13   -1    0    0    0    0 -0.00000000000E+00 -0.00000000000E+00 -0.27500000000E+03  0.27500000000E+03  0.00000000000E+00 0.  1.
    9000005    2    1    2  501    0  0.32208604340E+02  0.10819404036E+02 -0.68619085075E+02  0.46946577992E+03  0.46317932378E+03 0.  0.
         13    1    3    3    0    0  0.24244760257E+03  0.18549550926E+02 -0.87074502078E+02  0.25827677934E+03  0.00000000000E+00 0.  1.
          1    1    3    3  501    0 -0.21023899823E+03 -0.77301468906E+01  0.18455417003E+02  0.21118900058E+03  0.00000000000E+00 0.  1.
         21    1    1    2  502  501 -0.32208604340E+02 -0.10819404036E+02  0.42487275831E+02  0.54402410836E+02  0.00000000000E+00 0. -1.
<scales pt_clust_4="550.00000" pt_clust_5="550.00000" pt_clust_6="33.97725"></scales>
<mgrwt>
<rscale>  0 0.30000000E+03</rscale>
<asrwt>  1 0.33977253E+02</asrwt>
<pdfrwt beam="1">  1        1 0.90497524E+00 0.30000000E+03</pdfrwt>
<pdfrwt beam="2">0</pdfrwt>
<totfact> 0.93080800E-05</totfact>
</mgrwt>
<clustering>
<clus scale="   33.977">  1  6  2 -1</clus>
<clus scale="  463.179">  4  5 -1 -1</clus>
<clus scale="  300.000">  1  4  2 -1</clus>
</clustering>
</event>
<event>
 6    1  0.1029244E-011  0.3000000E+03  0.7818608E-02  0.1093470E+00
          1   -1    0    0  502    0  0.00000000000E+00  0.00000000000E+00  0.24353495388E+03  0.24353495388E+03  0.00000000000E+00 0.  1.
         13   -1    0    0    0    0 -0.00000000000E+00 -0.00000000000E+00 -0.27500000000E+03  0.27500000000E+03  0.00000000000E+00 0.  1.
    9000005    2    1    2  501    0 -0.14632311765E+02 -0.37416368000E+02 -0.50376658733E+02  0.47413069470E+03  0.46973185837E+03 0.  0.
         13    1    3    3    0    0  0.15213570560E+03  0.14538219833E+03 -0.79572770221E+02  0.22497351460E+03  0.00000000000E+00 0.  1.
          3    1    3    3  501    0 -0.16676801736E+03 -0.18279856633E+03  0.29196111488E+02  0.24915718010E+03  0.00000000000E+00 0.  1.
         21    1    1    2  502  501  0.14632311765E+02  0.37416368000E+02  0.18911612610E+02  0.44404259181E+02  0.00000000000E+00 0.  1.
<scales pt_clust_4="550.00000" pt_clust_5="550.00000" pt_clust_6="40.17573"></scales>
<mgrwt>
<rscale>  0 0.30000000E+03</rscale>
<asrwt>  1 0.40175728E+02</asrwt>
<pdfrwt beam="1">  1        1 0.88558165E+00 0.30000000E+03</pdfrwt>
<pdfrwt beam="2">0</pdfrwt>
<totfact> 0.16242490E-04</totfact>
</mgrwt>
<clustering>
<clus scale="   40.176">  1  6  2 -1</clus>
<clus scale="  469.732">  4  5 -1 -1</clus>
<clus scale="  300.000">  1  4  2 -1</clus>
</clustering>
</event>
<event>
 6    1  0.1029244E-011  0.3000000E+03  0.7818608E-02  0.1093470E+00
          1   -1    0    0  502    0  0.00000000000E+00  0.00000000000E+00  0.23918394524E+03  0.23918394524E+03  0.00000000000E+00 0.  1.
         13   -1    0    0    0    0 -0.00000000000E+00 -0.00000000000E+00 -0.27500000000E+03  0.27500000000E+03  0.00000000000E+00 0.  1.
    9000005    2    1    2  501    0 -0.32891108973E+02  0.12209145956E+02 -0.32200838790E+02  0.47891415532E+03  0.47654064449E+03 0.  0.
         13    1    3    3    0    0  0.21537240412E+03  0.50087854739E+02 -0.51496745196E+02  0.22703739872E+03  0.00000000000E+00 0.  1.
          1    1    3    3  501    0 -0.24826351310E+03 -0.37878708783E+02  0.19295906405E+02  0.25187675660E+03  0.00000000000E+00 0.  1.
         21    1    1    2  502  501  0.32891108973E+02 -0.12209145956E+02 -0.36152159710E+01  0.35269789920E+02  0.00000000000E+00 0. -1.
<scales pt_clust_4="550.00000" pt_clust_5="550.00000" pt_clust_6="35.08404"></scales>
<mgrwt>
<rscale>  0 0.30000000E+03</rscale>
<asrwt>  1 0.35084035E+02</asrwt>
<pdfrwt beam="1">  1        1 0.86975980E+00 0.30000000E+03</pdfrwt>
<pdfrwt beam="2">0</pdfrwt>
<totfact> 0.25457447E-04</totfact>
</mgrwt>
<clustering>
<clus scale="   35.084">  1  6  2 -1</clus>
<clus scale="  476.541">  4  5 -1 -1</clus>
<clus scale="  300.000">  1  4  2 -1</clus>
</clustering>
</event>
<event>
 6    1  0.1029244E-011  0.3000000E+03  0.7818608E-02  0.1093470E+00
          1   -1    0    0  502    0  0.00000000000E+00  0.00000000000E+00  0.22691478011E+03  0.22691478011E+03  0.00000000000E+00 0.  1.
         13   -1    0    0    0    0 -0.00000000000E+00 -0.00000000000E+00 -0.27500000000E+03  0.27500000000E+03  0.00000000000E+00 0.  1.
    9000005    2    1    2  501    0 -0.37523319570E+02 -0.52104445267E+01 -0.46040338293E+02  0.46397628008E+03  0.46012946817E+03 0.  0.
         13    1    3    3    0    0  0.36681666483E+02 -0.19340152293E+03  0.93799030790E+02  0.21805492864E+03  0.00000000000E+00 0.  1.
          1    1    3    3  501    0 -0.74204986053E+02  0.18819107841E+03 -0.13983936908E+03  0.24592135144E+03  0.00000000000E+00 0.  1.
         21    1    1    2  502  501  0.37523319570E+02  0.52104445267E+01 -0.20448815981E+01  0.37938500029E+02  0.00000000000E+00 0. -1.
<scales pt_clust_4="550.00000" pt_clust_5="550.00000" pt_clust_6="37.88335"></scales>
<mgrwt>
<rscale>  0 0.30000000E+03</rscale>
<asrwt>  1 0.37883350E+02</asrwt>
<pdfrwt beam="1">  1        1 0.82514465E+00 0.30000000E+03</pdfrwt>
<pdfrwt beam="2">0</pdfrwt>
<totfact> 0.64172942E-04</totfact>
</mgrwt>
<clustering>
<clus scale="   37.883">  1  6  2 -1</clus>
<clus scale="  460.129">  4  5 -1 -1</clus>
<clus scale="  300.000">  1  4  2 -1</clus>
</clustering>
</event>
<event>
 6    1  0.1029244E-011  0.3000000E+03  0.7818608E-02  0.1093470E+00
          1   -1    0    0  502    0  0.00000000000E+00  0.00000000000E+00  0.23409348983E+03  0.23409348983E+03  0.00000000000E+00 0.  1.
         13   -1    0    0    0    0 -0.00000000000E+00 -0.00000000000E+00 -0.27500000000E+03  0.27500000000E+03  0.00000000000E+00 0.  1.
    9000005    2    1    2  501    0  0.36477739934E+02  0.73205925624E+01 -0.67361138643E+02  0.46344194053E+03  0.45700841639E+03 0.  0.
         13    1    3    3    0    0 -0.14412434841E+03  0.28413166410E+02 -0.19291417937E+03  0.24247683690E+03  0.00000000000E+00 0.  1.
          1    1    3    3  501    0  0.18060208835E+03 -0.21092573848E+02  0.12555304072E+03  0.22096510363E+03  0.00000000000E+00 0.  1.
         21    1    1    2  502  501 -0.36477739934E+02 -0.73205925624E+01  0.26454628476E+02  0.45651549305E+02  0.00000000000E+00 0.  1.
<scales pt_clust_4="550.00000" pt_clust_5="550.00000" pt_clust_6="37.20506"></scales>
<mgrwt>
<rscale>  0 0.30000000E+03</rscale>
<asrwt>  1 0.37205061E+02</asrwt>
<pdfrwt beam="1">  1        1 0.85124905E+00 0.30000000E+03</pdfrwt>
<pdfrwt beam="2">0</pdfrwt>
<totfact> 0.39160206E-04</totfact>
</mgrwt>
<clustering>
<clus scale="   37.205">  1  6  2 -1</clus>
<clus scale="  457.008">  4  5 -1 -1</clus>
<clus scale="  300.000">  1  4  2 -1</clus>
</clustering>
</event>
<event>
 6    1  0.1029244E-011  0.3000000E+03  0.7818608E-02  0.1093470E+00
          1   -1    0    0  502    0  0.00000000000E+00  0.00000000000E+00  0.23346762017E+03  0.23346762017E+03  0.00000000000E+00 0.  1.
         13   -1    0    0    0    0 -0.00000000000E+00 -0.00000000000E+00 -0.27500000000E+03  0.27500000000E+03  0.00000000000E+00 0.  1.
    9000005    2    1    2  501    0 -0.30791497178E+02 -0.77071889491E+01 -0.43421981899E+02  0.47667001561E+03  0.47362571532E+03 0.  0.
         13    1    3    3    0    0  0.78188211898E+02  0.12384789132E+03  0.15606814712E+03  0.21403028573E+03  0.00000000000E+00 0.  1.
          1    1    3    3  501    0 -0.10897970908E+03 -0.13155508027E+03 -0.19949012902E+03  0.26263972988E+03  0.00000000000E+00 0.  1.
         21    1    1    2  502  501  0.30791497178E+02  0.77071889491E+01  0.18896020719E+01  0.31797604563E+02  0.00000000000E+00 0. -1.
<scales pt_clust_4="550.00000" pt_clust_5="550.00000" pt_clust_6="31.74141"></scales>
<mgrwt>
<rscale>  0 0.30000000E+03</rscale>
<asrwt>  1 0.31741409E+02</asrwt>
<pdfrwt beam="1">  1        1 0.84897316E+00 0.30000000E+03</pdfrwt>
<pdfrwt beam="2">0</pdfrwt>
<totfact> 0.42380610E-04</totfact>
</mgrwt>
<clustering>
<clus scale="   31.741">  1  6  2 -1</clus>
<clus scale="  473.626">  4  5 -1 -1</clus>
<clus scale="  300.000">  1  4  2 -1</clus>
</clustering>
</event>
<event>
 6    1  0.1029244E-011  0.3000000E+03  0.7818608E-02  0.1093470E+00
          1   -1    0    0  502    0  0.00000000000E+00  0.00000000000E+00  0.23682492964E+03  0.23682492964E+03  0.00000000000E+00 0.  1.
         13   -1    0    0    0    0 -0.00000000000E+00 -0.00000000000E+00 -0.27500000000E+03  0.27500000000E+03  0.00000000000E+00 0.  1.
    9000005    2    1    2  501    0  0.25440172368E+02 -0.21950725619E+02 -0.55880294136E+02  0.47384451792E+03  0.46933674815E+03 0.  0.
         13    1    3    3    0    0 -0.10825153667E+03 -0.74842546540E+02  0.16452885652E+03  0.21068826875E+03  0.00000000000E+00 0.  1.
          3    1    3    3  501    0  0.13369170903E+03  0.52891820922E+02 -0.22040915065E+03  0.26315624917E+03  0.00000000000E+00 0.  1.
         21    1    1    2  502  501 -0.25440172368E+02  0.21950725619E+02  0.17705223779E+02  0.37980411719E+02  0.00000000000E+00 0.  1.
<scales pt_clust_4="550.00000" pt_clust_5="550.00000" pt_clust_6="33.60114"></scales>
<mgrwt>
<rscale>  0 0.30000000E+03</rscale>
<asrwt>  1 0.33601142E+02</asrwt>
<pdfrwt beam="1">  1        1 0.86118156E+00 0.30000000E+03</pdfrwt>
<pdfrwt beam="2">0</pdfrwt>
<totfact> 0.31658237E-04</totfact>
</mgrwt>
<clustering>
<clus scale="   33.601">  1  6  2 -1</clus>
<clus scale="  469.337">  4  5 -1 -1</clus>
<clus scale="  300.000">  1  4  2 -1</clus>
</clustering>
</event>
<event>
 6    1  0.1029244E-011  0.3000000E+03  0.7818608E-02  0.1093470E+00
          1   -1    0    0  502    0  0.00000000000E+00  0.00000000000E+00  0.22826980840E+03  0.22826980840E+03  0.00000000000E+00 0.  1.
         13   -1    0    0    0    0 -0.00000000000E+00 -0.00000000000E+00 -0.27500000000E+03  0.27500000000E+03  0.00000000000E+00 0.  1.
    9000005    2    1    2  501    0  0.33187957366E+02 -0.17697867265E+02 -0.57192111161E+02  0.46422999819E+03  0.45915563660E+03 0.  0.
         13    1    3    3    0    0  0.19703590613E+03  0.92201346247E+02 -0.13058939972E+03  0.25372786184E+03  0.00000000000E+00 0.  1.
          1    1    3    3  501    0 -0.16384794876E+03 -0.10989921351E+03  0.73397288559E+02  0.21050213636E+03  0.00000000000E+00 0.  1.
         21    1    1    2  502  501 -0.33187957366E+02  0.17697867265E+02  0.10461919559E+02  0.39039810203E+02  0.00000000000E+00 0.  1.
<scales pt_clust_4="550.00000" pt_clust_5="550.00000" pt_clust_6="37.61190"></scales>
<mgrwt>
<rscale>  0 0.30000000E+03</rscale>
<asrwt>  1 0.37611900E+02</asrwt>
<pdfrwt beam="1">  1        1 0.83007203E+00 0.30000000E+03</pdfrwt>
<pdfrwt beam="2">0</pdfrwt>
<totfact> 0.58236194E-04</totfact>
</mgrwt>
<clustering>
<clus scale="   37.612">  1  6  2 -1</clus>
<clus scale="  459.156">  4  5 -1 -1</clus>
<clus scale="  300.000">  1  4  2 -1</clus>
</clustering>
</event>
<event>
 6    1  0.1029244E-011  0.3000000E+03  0.7818608E-02  0.1093470E+00
          1   -1    0    0  502    0  0.00000000000E+00  0.00000000000E+00  0.23826195034E+03  0.23826195034E+03  0.00000000000E+00 0.  1.
         13   -1    0    0    0    0 -0.00000000000E+00 -0.00000000000E+00 -0.27500000000E+03  0.27500000000E+03  0.00000000000E+00 0.  1.
    9000005    2    1    2  501    0 -0.31152933237E+01  0.48722244741E+02 -0.33636144656E+02  0.46434177046E+03  0.46054134166E+03 0.  0.
         13    1    3    3    0    0 -0.14703930592E+03 -0.14052770948E+02  0.15820066737E+03  0.21643818750E+03  0.00000000000E+00 0.  1.
          1    1    3    3  501    0  0.14392401259E+03  0.62775015689E+02 -0.19183681202E+03  0.24790358295E+03  0.00000000000E+00 0.  1.
         21    1    1    2  502  501  0.31152933237E+01 -0.48722244741E+02 -0.31019050022E+01  0.48920179883E+02  0.00000000000E+00 0.  1.
<scales pt_clust_4="550.00000" pt_clust_5="550.00000" pt_clust_6="48.82174"></scales>
<mgrwt>
<rscale>  0 0.30000000E+03</rscale>
<asrwt>  1 0.48821739E+02</asrwt>
<pdfrwt beam="1">  1        1 0.86640709E+00 0.30000000E+03</pdfrwt>
<pdfrwt beam="2">0</pdfrwt>
<totfact> 0.25979600E-04</totfact>
</mgrwt>
<clustering>
<clus scale="   48.822">  1  6  2 -1</clus>
<clus scale="  460.541">  4  5 -1 -1</clus>
<clus scale="  300.000">  1  4  2 -1</clus>
</clustering>
</event>
<event>
 6    1  0.1029244E-011  0.3000000E+03  0.7818608E-02  0.1093470E+00
          1   -1    0    0  502    0  0.00000000000E+00  0.00000000000E+00  0.22600750003E+03  0.22600750003E+03  0.00000000000E+00 0.  1.
         13   -1    0    0    0    0 -0.00000000000E+00 -0.00000000000E+00 -0.27500000000E+03  0.27500000000E+03  0.00000000000E+00 0.  1.
    9000005    2    1    2  501    0  0.22452924057E+02  0.24739040566E+02 -0.46995530318E+02  0.46753898028E+03  0.46396978811E+03 0.  0.
         13    1    3    3    0    0  0.16635611040E+03 -0.14874650815E+03  0.38525129409E+02  0.22645985241E+03  0.00000000000E+00 0.  1.
          1    1    3    3  501    0 -0.14390318635E+03  0.17348554872E+03 -0.85520659727E+02  0.24107912787E+03  0.00000000000E+00 0.  1.
         21    1    1    2  502  501 -0.22452924057E+02 -0.24739040566E+02 -0.19969696482E+01  0.33468519755E+02  0.00000000000E+00 0.  1.
<scales pt_clust_4="550.00000" pt_clust_5="550.00000" pt_clust_6="33.40889"></scales>
<mgrwt>
<rscale>  0 0.30000000E+03</rscale>
<asrwt>  1 0.33408890E+02</asrwt>
<pdfrwt beam="1">  1        1 0.82184545E+00 0.30000000E+03</pdfrwt>
<pdfrwt beam="2">0</pdfrwt>
<totfact> 0.70297746E-04</totfact>
</mgrwt>
<clustering>
<clus scale="   33.409">  1  6  2 -1</clus>
<clus scale="  463.970">  4  5 -1 -1</clus>
<clus scale="  300.000">  1  4  2 -1</clus>
</clustering>
</event>
<event>
 6    1  0.1029244E-011  0.3000000E+03  0.7818608E-02  0.1093470E+00
          1   -1    0    0  502    0  0.00000000000E+00  0.00000000000E+00  0.24489589086E+03  0.24489589086E+03  0.00000000000E+00 0.  1.
         13   -1    0    0    0    0 -0.00000000000E+00 -0.00000000000E+00 -0.27500000000E+03  0.27500000000E+03  0.00000000000E+00 0.  1.
    9000005    2    1    2  501    0 -0.44163109701E+02  0.62451252675E+01 -0.23118916884E+02  0.47474974198E+03  0.47208415705E+03 0.  0.
         13    1    3    3    0    0 -0.42148225611E+02  0.22661702197E+03 -0.85274566195E+02  0.24577123348E+03  0.00000000000E+00 0.  1.
          3    1    3    3  501    0 -0.20148840899E+01 -0.22037189670E+03  0.62155649311E+02  0.22897850850E+03  0.00000000000E+00 0.  1.
         21    1    1    2  502  501  0.44163109701E+02 -0.62451252675E+01 -0.69851922570E+01  0.45146148882E+02  0.00000000000E+00 0.  1.
<scales pt_clust_4="550.00000" pt_clust_5="550.00000" pt_clust_6="44.60251"></scales>
<mgrwt>
<rscale>  0 0.30000000E+03</rscale>
<asrwt>  1 0.44602509E+02</asrwt>
<pdfrwt beam="1">  1        1 0.89053051E+00 0.30000000E+03</pdfrwt>
<pdfrwt beam="2">0</pdfrwt>
<totfact> 0.13644857E-04</totfact>
</mgrwt>
<clustering>
<clus scale="   44.603">  1  6  2 -1</clus>
<clus scale="  472.084">  4  5 -1 -1</clus>
<clus scale="  300.000">  1  4  2 -1</clus>
</clustering>
</event>
<event>
 6    1  0.1029244E-011  0.3000000E+03  0.7818608E-02  0.1093470E+00
          1   -1    0    0  502    0  0.00000000000E+00  0.00000000000E+00  0.23713220414E+03  0.23713220414E+03  0.00000000000E+00 0.  1.
         13   -1    0    0    0    0 -0.00000000000E+00 -0.00000000000E+00 -0.27500000000E+03  0.27500000000E+03  0.00000000000E+00 0.  1.
    9000005    2    1    2  501    0 -0.28196067615E+02  0.20607576930E+02 -0.52313219159E+02  0.47433854449E+03  0.47014964791E+03 0.  0.
         13    1    3    3    0    0  0.32032755123E+02  0.46605402272E+02 -0.25505425067E+03  0.26124860134E+03  0.00000000000E+00 0.  1.
          1    1    3    3  501    0 -0.60228822737E+02 -0.25997825342E+02  0.20274103151E+03  0.21308994314E+03  0.00000000000E+00 0.  1.
         21    1    1    2  502  501  0.28196067615E+02 -0.20607576930E+02  0.14445423300E+02  0.37793659656E+02  0.00000000000E+00 0.  1.
<scales pt_clust_4="550.00000" pt_clust_5="550.00000" pt_clust_6="34.92407"></scales>
<mgrwt>
<rscale>  0 0.30000000E+03</rscale>
<asrwt>  1 0.34924067E+02</asrwt>
<pdfrwt beam="1">  1        1 0.86229892E+00 0.30000000E+03</pdfrwt>
<pdfrwt beam="2">0</pdfrwt>
<totfact> 0.30569055E-04</totfact>
</mgrwt>
<clustering>
<clus scale="   34.924">  1  6  2 -1</clus>
<clus scale="  470.150">  4  5 -1 -1</clus>
<clus scale="  300.000">  1  4  2 -1</clus>
</clustering>
</event>
<event>
 6    1  0.1029244E-011  0.3000000E+03  0.7818608E-02  0.1093470E+00
          1   -1    0    0  502    0  0.00000000000E+00  0.00000000000E+00  0.24220394457E+03  0.24220394457E+03  0.00000000000E+00 0.  1.
         13   -1    0    0    0    0 -0.00000000000E+00 -0.00000000000E+00 -0.27500000000E+03  0.27500000000E+03  0.00000000000E+00 0.  1.
    9000005    2    1    2  501    0  0.37754924933E+02 -0.46145953763E+01 -0.57444121965E+02  0.47188004325E+03  0.46682354184E+03 0.  0.
         13    1    3    3    0    0  0.24194383994E+03 -0.61266511407E+02 -0.71182428440E+02  0.25953293668E+03  0.00000000000E+00 0.  1.
          1    1    3    3  501    0 -0.20418891501E+03  0.56651916031E+02  0.13738306475E+02  0.21234710657E+03  0.00000000000E+00 0.  1.
         21    1    1    2  502  501 -0.37754924933E+02  0.46145953763E+01  0.24648066536E+02  0.45323901323E+02  0.00000000000E+00 0.  1.
<scales pt_clust_4="550.00000" pt_clust_5="550.00000" pt_clust_6="38.03589"></scales>
<mgrwt>
<rscale>  0 0.30000000E+03</rscale>
<asrwt>  1 0.38035889E+02</asrwt>
<pdfrwt beam="1">  1        1 0.88074162E+00 0.30000000E+03</pdfrwt>
<pdfrwt beam="2">0</pdfrwt>
<totfact> 0.19025958E-04</totfact>
</mgrwt>
<clustering>
<clus scale="   38.036">  1  6  2 -1</clus>
<clus scale="  466.824">  4  5 -1 -1</clus>
<clus scale="  300.000">  1  4  2 -1</clus>
</clustering>
</event>
<event>
 6    1  0.1029244E-011  0.3000000E+03  0.7818608E-02  0.1093470E+00
          1   -1    0    0  502    0  0.00000000000E+00  0.00000000000E+00  0.22988359667E+03  0.22988359667E+03  0.00000000000E+00 0.  1.
         13   -1    0    0    0    0 -0.00000000000E+00 -0.00000000000E+00 -0.27500000000E+03  0.27500000000E+03  0.00000000000E+00 0.  1.
    9000005    2    1    2  501    0  0.28013672324E+02 -0.22677412395E+02 -0.41348790713E+02  0.46864513954E+03  0.46542401469E+03 0.  0.
         13    1    3    3    0    0 -0.42769635121E+02 -0.25293301831E+02  0.20571365513E+03  0.21162963099E+03  0.00000000000E+00 0.  1.
          3    1    3    3  501    0  0.70783307445E+02  0.26158894361E+01 -0.24706244584E+03  0.25701550855E+03  0.00000000000E+00 0.  1.
         21    1    1    2  502  501 -0.28013672324E+02  0.22677412395E+02 -0.37676126192E+01  0.36238457126E+02  0.00000000000E+00 0.  1.
<scales pt_clust_4="550.00000" pt_clust_5="550.00000" pt_clust_6="36.04209"></scales>
<mgrwt>
<rscale>  0 0.30000000E+03</rscale>
<asrwt>  1 0.36042089E+02</asrwt>
<pdfrwt beam="1">  1        1 0.83594035E+00 0.30000000E+03</pdfrwt>
<pdfrwt beam="2">0</pdfrwt>
<totfact> 0.52962970E-04</totfact>
</mgrwt>
<clustering>
<clus scale="   36.042">  1  6  2 -1</clus>
<clus scale="  465.424">  4  5 -1 -1</clus>
<clus scale="  300.000">  1  4  2 -1</clus>
</clustering>
</event>
<event>
 6    1  0.1029244E-011  0.3000000E+03  0.7818608E-02  0.1093470E+00
          1   -1    0    0  502    0  0.00000000000E+00  0.00000000000E+00  0.23180766832E+03  0.23180766832E+03  0.00000000000E+00 0.  1.
         13   -1    0    0    0    0 -0.00000000000E+00 -0.00000000000E+00 -0.27500000000E+03  0.27500000000E+03  0.00000000000E+00 0.  1.
    9000005    2    1    2  501    0 -0.15436289889E+02 -0.32668017401E+02 -0.46266928823E+02  0.47054568335E+03  0.46686950319E+03 0.  0.
         13    1    3    3    0    0 -0.31893938984E+02 -0.77194341533E+02 -0.24884077135E+03  0.26248413132E+03  0.00000000000E+00 0.  1.
          3    1    3    3  501    0  0.16457649095E+02  0.44526324132E+02  0.20257384253E+03  0.20806155203E+03  0.00000000000E+00 0.  1.
         21    1    1    2  502  501  0.15436289889E+02  0.32668017401E+02  0.30745971439E+01  0.36261984971E+02  0.00000000000E+00 0.  1.
<scales pt_clust_4="550.00000" pt_clust_5="550.00000" pt_clust_6="36.13140"></scales>
<mgrwt>
<rscale>  0 0.30000000E+03</rscale>
<asrwt>  1 0.36131405E+02</asrwt>
<pdfrwt beam="1">  1        1 0.84293698E+00 0.30000000E+03</pdfrwt>
<pdfrwt beam="2">0</pdfrwt>
<totfact> 0.46783603E-04</totfact>
</mgrwt>
<clustering>
<clus scale="   36.131">  1  6  2 -1</clus>
<clus scale="  466.870">  4  5 -1 -1</clus>
<clus scale="  300.000">  1  4  2 -1</clus>
</clustering>
</event>
<event>
 6    1  0.1029244E-011  0.3000000E+03  0.7818608E-02  0.1093470E+00
          1   -1    0    0  502    0  0.00000000000E+00  0.00000000000E+00  0.24899381486E+03  0.24899381486E+03  0.00000000000E+00 0.  1.
         13   -1    0    0    0    0 -0.00000000000E+00 -0.00000000000E+00 -0.27500000000E+03  0.27500000000E+03  0.00000000000E+00 0.  1.
    9000005    2    1    2  501    0  0.25865704555E+02  0.31351827633E+02 -0.22952758211E+02  0.48323482587E+03  0.48097515118E+03 0.  0.
         13    1    3    3    0    0 -0.17677986571E+03  0.97367809870E+02 -0.13464611749E+03  0.24261324835E+03  0.00000000000E+00 0.  1.
          1    1    3    3  501    0  0.20264557027E+03 -0.66015982237E+02  0.11169335928E+03  0.24062157752E+03  0.00000000000E+00 0.  1.
         21    1    1    2  502  501 -0.25865704555E+02 -0.31351827633E+02 -0.30534269259E+01  0.40758988997E+02  0.00000000000E+00 0.  1.
<scales pt_clust_4="550.00000" pt_clust_5="550.00000" pt_clust_6="40.64448"></scales>
<mgrwt>
<rscale>  0 0.30000000E+03</rscale>
<asrwt>  1 0.40644476E+02</asrwt>
<pdfrwt beam="1">  1        1 0.90543205E+00 0.30000000E+03</pdfrwt>
<pdfrwt beam="2">0</pdfrwt>
<totfact> 0.88247706E-05</totfact>
</mgrwt>
<clustering>
<clus scale="   40.644">  1  6  2 -1</clus>
<clus scale="  480.975">  4  5 -1 -1</clus>
<clus scale="  300.000">  1  4  2 -1</clus>
</clustering>
</event>
<event>
 6    1  0.1029244E-011  0.3000000E+03  0.7818608E-02  0.1093470E+00
          1   -1    0    0  502    0  0.00000000000E+00  0.00000000000E+00  0.22747532089E+03  0.22747532089E+03  0.00000000000E+00 0.  1.
         13   -1    0    0    0    0 -0.00000000000E+00 -0.00000000000E+00 -0.27500000000E+03  0.27500000000E+03  0.00000000000E+00 0.  1.
    9000005    2    1    2  501    0 -0.12219039437E+02 -0.29052115758E+02 -0.40481845207E+02  0.47018086526E+03  0.46737344374E+03 0.  0.
         13    1    3    3    0    0  0.48835889871E+02 -0.29183447813E+02 -0.24770301239E+03  0.25415231676E+03  0.00000000000E+00 0.  1.
          1    1    3    3  501    0 -0.61054929309E+02  0.13133205590E+00  0.20722116718E+03  0.21602854851E+03  0.00000000000E+00 0.  1.
         21    1    1    2  502  501  0.12219039437E+02  0.29052115758E+02 -0.70428339053E+01  0.32294455626E+02  0.00000000000E+00 0. -1.
<scales pt_clust_4="550.00000" pt_clust_5="550.00000" pt_clust_6="31.51716"></scales>
<mgrwt>
<rscale>  0 0.30000000E+03</rscale>
<asrwt>  1 0.31517160E+02</asrwt>
<pdfrwt beam="1">  1        1 0.82718299E+00 0.30000000E+03</pdfrwt>
<pdfrwt beam="2">0</pdfrwt>
<totfact> 0.63719832E-04</totfact>
</mgrwt>
<clustering>
<clus scale="   31.517">  1  6  2 -1</clus>
<clus scale="  467.373">  4  5 -1 -1</clus>
<clus scale="  300.000">  1  4  2 -1</clus>
</clustering>
</event>
<event>
 6    1  0.1029244E-011  0.3000000E+03  0.7818608E-02  0.1093470E+00
          1   -1    0    0  502    0  0.00000000000E+00  0.00000000000E+00  0.23105808465E+03  0.23105808465E+03  0.00000000000E+00 0.  1.
         13   -1    0    0    0    0 -0.00000000000E+00 -0.00000000000E+00 -0.27500000000E+03  0.27500000000E+03  0.00000000000E+00 0.  1.
    9000005    2    1    2  501    0  0.32452008761E+02  0.21479511116E+02 -0.43896752052E+02  0.46714145183E+03  0.46344331790E+03 0.  0.
         13    1    3    3    0    0 -0.15462658483E+03 -0.88687722635E+02 -0.14296157488E+03  0.22850143277E+03  0.00000000000E+00 0.  1.
          1    1    3    3  501    0  0.18707859359E+03  0.11016723375E+03  0.99064822831E+02  0.23864001906E+03  0.00000000000E+00 0.  1.
         21    1    1    2  502  501 -0.32452008761E+02 -0.21479511116E+02 -0.45163301469E-01  0.38916632822E+02  0.00000000000E+00 0. -1.
<scales pt_clust_4="550.00000" pt_clust_5="550.00000" pt_clust_6="38.91661"></scales>
<mgrwt>
<rscale>  0 0.30000000E+03</rscale>
<asrwt>  1 0.38916607E+02</asrwt>
<pdfrwt beam="1">  1        1 0.84021122E+00 0.30000000E+03</pdfrwt>
<pdfrwt beam="2">0</pdfrwt>
<totfact> 0.48555043E-04</totfact>
</mgrwt>
<clustering>
<clus scale="   38.917">  1  6  2 -1</clus>
<clus scale="  463.443">  4  5 -1 -1</clus>
<clus scale="  300.000">  1  4  2 -1</clus>
</clustering>
</event>
<event>
 6    1  0.1029244E-011  0.3000000E+03  0.7818608E-02  0.1093470E+00
          1   -1    0    0  502    0  0.00000000000E+00  0.00000000000E+00  0.27284078880E+03  0.27284078880E+03  0.00000000000E+00 0.  1.
         13   -1    0    0    0    0 -0.00000000000E+00 -0.00000000000E+00 -0.27500000000E+03  0.27500000000E+03  0.00000000000E+00 0.  1.
    9000005    2    1    2  501    0  0.34326247529E+02  0.53949116330E+01 -0.17864560620E+02  0.50970872432E+03  0.50820905618E+03 0.  0.
         13    1    3    3    0    0  0.10986925818E+03  0.23192575500E+03 -0.68470225908E+02  0.26561058255E+03  0.00000000000E+00 0.  1.
          3    1    3    3  501    0 -0.75543010654E+02 -0.22653084337E+03  0.50605665288E+02  0.24409814177E+03  0.00000000000E+00 0.  1.
         21    1    1    2  502  501 -0.34326247529E+02 -0.53949116330E+01  0.15705349423E+02  0.38132064479E+02  0.00000000000E+00 0.  1.
<scales pt_clust_4="550.00000" pt_clust_5="550.00000" pt_clust_6="34.74761"></scales>
<mgrwt>
<rscale>  0 0.30000000E+03</rscale>
<asrwt>  1 0.34747609E+02</asrwt>
<pdfrwt beam="1">  1        1 0.99214832E+00 0.30000000E+03</pdfrwt>
<pdfrwt beam="2">0</pdfrwt>
<totfact> 0.54076443E-07</totfact>
</mgrwt>
<clustering>
<clus scale="   34.748">  1  6  2 -1</clus>
<clus scale="  508.209">  4  5 -1 -1</clus>
<clus scale="  300.000">  1  4  2 -1</clus>
</clustering>
</event>
<event>
 6    1  0.1029244E-011  0.3000000E+03  0.7818608E-02  0.1093470E+00
          1   -1    0    0  502    0  0.00000000000E+00  0.00000000000E+00  0.25621816393E+03  0.25621816393E+03  0.00000000000E+00 0.  1.
         13   -1    0    0    0    0 -0.00000000000E+00 -0.00000000000E+00 -0.27500000000E+03  0.27500000000E+03  0.00000000000E+00 0.  1.
    9000005    2    1    2  501    0  0.29825281161E+02  0.18405068215E+02 -0.61584253657E+02  0.47589781610E+03  0.47059304833E+03 0.  0.
         13    1    3    3    0    0  0.13466331555E+03 -0.19331432622E+03 -0.27364960491E+02  0.23717815738E+03  0.00000000000E+00 0.  1.
          3    1    3    3  501    0 -0.10483803438E+03  0.21171939444E+03 -0.34219293166E+02  0.23871965872E+03  0.00000000000E+00 0.  1.
         21    1    1    2  502  501 -0.29825281161E+02 -0.18405068215E+02  0.42802417583E+02  0.55320347823E+02  0.00000000000E+00 0. -1.
<scales pt_clust_4="550.00000" pt_clust_5="550.00000" pt_clust_6="35.04702"></scales>
<mgrwt>
<rscale>  0 0.30000000E+03</rscale>
<asrwt>  1 0.35047025E+02</asrwt>
<pdfrwt beam="1">  1        1 0.93170241E+00 0.30000000E+03</pdfrwt>
<pdfrwt beam="2">0</pdfrwt>
<totfact> 0.24800651E-05</totfact>
</mgrwt>
<clustering>
<clus scale="   35.047">  1  6  2 -1</clus>
<clus scale="  470.593">  4  5 -1 -1</clus>
<clus scale="  300.000">  1  4  2 -1</clus>
</clustering>
</event>
<event>
 6    1  0.1029244E-011  0.3000000E+03  0.7818608E-02  0.1093470E+00
          1   -1    0    0  502    0  0.00000000000E+00  0.00000000000E+00  0.22986982347E+03  0.22986982347E+03  0.00000000000E+00 0.  1.
         13   -1    0    0    0    0 -0.00000000000E+00 -0.00000000000E+00 -0.27500000000E+03  0.27500000000E+03  0.00000000000E+00 0.  1.
    9000005    2    1    2  501    0 -0.36047432923E+02  0.77796707751E+01 -0.28169463594E+02  0.46427910432E+03  0.46195413985E+03 0.  0.
         13    1    3    3    0    0  0.13925694135E+03  0.71670404478E+02  0.14225389801E+03  0.21157815126E+03  0.00000000000E+00 0.  1.
          3    1    3    3  501    0 -0.17530437427E+03 -0.63890733703E+02 -0.17042336161E+03  0.25270095305E+03  0.00000000000E+00 0.  1.
         21    1    1    2  502  501  0.36047432923E+02 -0.77796707751E+01 -0.16960712940E+02  0.40590719150E+02  0.00000000000E+00 0.  1.
<scales pt_clust_4="550.00000" pt_clust_5="550.00000" pt_clust_6="36.87739"></scales>
<mgrwt>
<rscale>  0 0.30000000E+03</rscale>
<asrwt>  1 0.36877392E+02</asrwt>
<pdfrwt beam="1">  1        1 0.83589027E+00 0.30000000E+03</pdfrwt>
<pdfrwt beam="2">0</pdfrwt>
<totfact> 0.52782250E-04</totfact>
</mgrwt>
<clustering>
<clus scale="   36.877">  1  6  2 -1</clus>
<clus scale="  461.954">  4  5 -1 -1</clus>
<clus scale="  300.000">  1  4  2 -1</clus>
</clustering>
</event>
<event>
 6    1  0.1029244E-011  0.3000000E+03  0.7818608E-02  0.1093470E+00
          1   -1    0    0  502    0  0.00000000000E+00  0.00000000000E+00  0.25290727837E+03  0.25290727837E+03  0.00000000000E+00 0.  1.
         13   -1    0    0    0    0 -0.00000000000E+00 -0.00000000000E+00 -0.27500000000E+03  0.27500000000E+03  0.00000000000E+00 0.  1.
    9000005    2    1    2  501    0  0.45078660149E+02 -0.14362067594E+01 -0.32372277241E+02  0.48164911634E+03  0.47843887661E+03 0.  0.
         13    1    3    3    0    0  0.26231122803E+03  0.14329325144E+02 -0.21284848994E+02  0.26356318921E+03  0.00000000000E+00 0.  1.
          3    1    3    3  501    0 -0.21723256789E+03 -0.15765531904E+02 -0.11087428246E+02  0.21808592713E+03  0.00000000000E+00 0.  1.
         21    1    1    2  502  501 -0.45078660149E+02  0.14362067594E+01  0.10279555610E+02  0.46258162028E+02  0.00000000000E+00 0. -1.
<scales pt_clust_4="550.00000" pt_clust_5="550.00000" pt_clust_6="45.10153"></scales>
<mgrwt>
<rscale>  0 0.30000000E+03</rscale>
<asrwt>  1 0.45101533E+02</asrwt>
<pdfrwt beam="1">  1        1 0.91966283E+00 0.30000000E+03</pdfrwt>
<pdfrwt beam="2">0</pdfrwt>
<totfact> 0.40587228E-05</totfact>
</mgrwt>
<clustering>
<clus scale="   45.102">  1  6  2 -1</clus>
<clus scale="  478.439">  4  5 -1 -1</clus>
<clus scale="  300.000">  1  4  2 -1</clus>
</clustering>
</event>
<event>
 6    1  0.1029244E-011  0.3000000E+03  0.7818608E-02  0.1093470E+00
          1   -1    0    0  502    0  0.00000000000E+00  0.00000000000E+00  0.22990842940E+03  0.22990842940E+03  0.00000000000E+00 0.  1.
         13   -1    0    0    0    0 -0.00000000000E+00 -0.00000000000E+00 -0.27500000000E+03  0.27500000000E+03  0.00000000000E+00 0.  1.
    9000005    2    1    2  501    0 -0.28726345901E+02 -0.14541224638E+02 -0.41250519887E+02  0.47248307153E+03  0.46957640201E+03 0.  0.
         13    1    3    3    0    0 -0.96301716886E+02  0.18533022013E+03  0.86248966303E+02  0.22596503127E+03  0.00000000000E+00 0.  1.
          1    1    3    3  501    0  0.67575370984E+02 -0.19987144476E+03 -0.12749948619E+03  0.24651804026E+03  0.00000000000E+00 0.  1.
         21    1    1    2  502  501  0.28726345901E+02  0.14541224638E+02 -0.38410507097E+01  0.32425357876E+02  0.00000000000E+00 0. -1.
<scales pt_clust_4="550.00000" pt_clust_5="550.00000" pt_clust_6="32.19707"></scales>
<mgrwt>
<rscale>  0 0.30000000E+03</rscale>
<asrwt>  1 0.32197068E+02</asrwt>
<pdfrwt beam="1">  1        1 0.83603065E+00 0.30000000E+03</pdfrwt>
<pdfrwt beam="2">0</pdfrwt>
<totfact> 0.54016495E-04</totfact>
</mgrwt>
<clustering>
<clus scale="   32.197">  1  6  2 -1</clus>
<clus scale="  469.576">  4  5 -1 -1</clus>
<clus scale="  300.000">  1  4  2 -1</clus>
</clustering>
</event>
<event>
 6    1  0.1029244E-011  0.3000000E+03  0.7818608E-02  0.1093470E+00
          1   -1    0    0  502    0  0.00000000000E+00  0.00000000000E+00  0.24254160223E+03  0.24254160223E+03  0.00000000000E+00 0.  1.
         13   -1    0    0    0    0 -0.00000000000E+00 -0.00000000000E+00 -0.27500000000E+03  0.27500000000E+03  0.00000000000E+00 0.  1.
    9000005    2    1    2  501    0  0.37765360141E+02 -0.21846366395E+02 -0.55709806717E+02  0.46810361917E+03  0.46272446397E+03 0.  0.
         13    1    3    3    0    0  0.12670832697E+03  0.80287451034E+02  0.15623148542E+03  0.21658566886E+03  0.00000000000E+00 0.  1.
          3    1    3    3  501    0 -0.88942966833E+02 -0.10213381743E+03 -0.21194129214E+03  0.25151795031E+03  0.00000000000E+00 0.  1.
         21    1    1    2  502  501 -0.37765360141E+02  0.21846366395E+02  0.23251408943E+02  0.49437983061E+02  0.00000000000E+00 0. -1.
<scales pt_clust_4="550.00000" pt_clust_5="550.00000" pt_clust_6="43.62896"></scales>
<mgrwt>
<rscale>  0 0.30000000E+03</rscale>
<asrwt>  1 0.43628960E+02</asrwt>
<pdfrwt beam="1">  1        1 0.88196946E+00 0.30000000E+03</pdfrwt>
<pdfrwt beam="2">0</pdfrwt>
<totfact> 0.17896835E-04</totfact>
</mgrwt>
<clustering>
<clus scale="   43.629">  1  6  2 -1</clus>
<clus scale="  462.724">  4  5 -1 -1</clus>
<clus scale="  300.000">  1  4  2 -1</clus>
</clustering>
</event>
<event>
 6    1  0.1029244E-011  0.3000000E+03  0.7818608E-02  0.1093470E+00
          1   -1    0    0  502    0  0.00000000000E+00  0.00000000000E+00  0.22795215961E+03  0.22795215961E+03  0.00000000000E+00 0.  1.
         13   -1    0    0    0    0 -0.00000000000E+00 -0.00000000000E+00 -0.27500000000E+03  0.27500000000E+03  0.00000000000E+00 0.  1.
    9000005    2    1    2  501    0  0.34136877676E+02 -0.19306441026E+01 -0.49297484742E+02  0.46868680241E+03  0.46483117683E+03 0.  0.
         13    1    3    3    0    0  0.75946876532E+02  0.14925734460E+02  0.20046524458E+03  0.21488838938E+03  0.00000000000E+00 0.  1.
          1    1    3    3  501    0 -0.41809998855E+02 -0.16856378563E+02 -0.24976272932E+03  0.25379841304E+03  0.00000000000E+00 0.  1.
         21    1    1    2  502  501 -0.34136877676E+02  0.19306441026E+01  0.22496443521E+01  0.34265357197E+02  0.00000000000E+00 0. -1.
<scales pt_clust_4="550.00000" pt_clust_5="550.00000" pt_clust_6="34.19143"></scales>
<mgrwt>
<rscale>  0 0.30000000E+03</rscale>
<asrwt>  1 0.34191429E+02</asrwt>
<pdfrwt beam="1">  1        1 0.82891694E+00 0.30000000E+03</pdfrwt>
<pdfrwt beam="2">0</pdfrwt>
<totfact> 0.60615459E-04</totfact>
</mgrwt>
<clustering>
<clus scale="   34.191">  1  6  2 -1</clus>
<clus scale="  464.831">  4  5 -1 -1</clus>
<clus scale="  300.000">  1  4  2 -1</clus>
</clustering>
</event>
<event>
 6    1  0.1029244E-011  0.3000000E+03  0.7818608E-02  0.1093470E+00
          1   -1    0    0  502    0  0.00000000000E+00  0.00000000000E+00  0.23546917795E+03  0.23546917795E+03  0.00000000000E+00 0.  1.
         13   -1    0    0    0    0 -0.00000000000E+00 -0.00000000000E+00 -0.27500000000E+03  0.27500000000E+03  0.00000000000E+00 0.  1.
    9000005    2    1    2  501    0 -0.14643026530E+02  0.43664814498E+02 -0.22751757119E+02  0.46145314720E+03  0.45858513970E+03 0.  0.
         13    1    3    3    0    0  0.22118327662E+03  0.72598717487E+01  0.40000771907E+01  0.22133853757E+03  0.00000000000E+00 0.  1.
          3    1    3    3  501    0 -0.23582630315E+03  0.36404942749E+02 -0.26751834310E+02  0.24011460962E+03  0.00000000000E+00 0.  1.
         21    1    1    2  502  501  0.14643026530E+02 -0.43664814498E+02 -0.16779064930E+02  0.49016030755E+02  0.00000000000E+00 0. -1.
<scales pt_clust_4="550.00000" pt_clust_5="550.00000" pt_clust_6="46.05471"></scales>
<mgrwt>
<rscale>  0 0.30000000E+03</rscale>
<asrwt>  1 0.46054711E+02</asrwt>
<pdfrwt beam="1">  1        1 0.85625156E+00 0.30000000E+03</pdfrwt>
<pdfrwt beam="2">0</pdfrwt>
<totfact> 0.33666572E-04</totfact>
</mgrwt>
<clustering>
<clus scale="   46.055">  1  6  2 -1</clus>
<clus scale="  458.585">  4  5 -1 -1</clus>
<clus scale="  300.000">  1  4  2 -1</clus>
</clustering>
</event>
<event>
 6    1  0.1029244E-011  0.3000000E+03  0.7818608E-02  0.1093470E+00
          1   -1    0    0  502    0  0.00000000000E+00  0.00000000000E+00  0.22499207038E+03  0.22499207038E+03  0.00000000000E+00 0.  1.
         13   -1    0    0    0    0 -0.00000000000E+00 -0.00000000000E+00 -0.27500000000E+03  0.27500000000E+03  0.00000000000E+00 0.  1.
    9000005    2    1    2  501    0 -0.33039202855E+02 -0.34219492265E+01 -0.40083480904E+02  0.46532517919E+03  0.46240408550E+03 0.  0.
         13    1    3    3    0    0 -0.10682205568E+03  0.21112577665E+03 -0.25382972393E+02  0.23796920060E+03  0.00000000000E+00 0.  1.
          3    1    3    3  501    0  0.73782852828E+02 -0.21454772588E+03 -0.14700508511E+02  0.22735597859E+03  0.00000000000E+00 0.  1.
         21    1    1    2  502  501  0.33039202855E+02  0.34219492265E+01 -0.99244487202E+01  0.34666891182E+02  0.00000000000E+00 0. -1.
<scales pt_clust_4="550.00000" pt_clust_5="550.00000" pt_clust_6="33.21596"></scales>
<mgrwt>
<rscale>  0 0.30000000E+03</rscale>
<asrwt>  1 0.33215956E+02</asrwt>
<pdfrwt beam="1">  1        1 0.81815298E+00 0.30000000E+03</pdfrwt>
<pdfrwt beam="2">0</pdfrwt>
<totfact> 0.75741401E-04</totfact>
</mgrwt>
<clustering>
<clus scale="   33.216">  1  6  2 -1</clus>
<clus scale="  462.404">  4  5 -1 -1</clus>
<clus scale="  300.000">  1  4  2 -1</clus>
</clustering>
</event>
<event>
 6    1  0.1029244E-011  0.3000000E+03  0.7818608E-02  0.1093470E+00
          1   -1    0    0  502    0  0.00000000000E+00  0.00000000000E+00  0.24249633210E+03  0.24249633210E+03  0.00000000000E+00 0.  1.
         13   -1    0    0    0    0 -0.00000000000E+00 -0.00000000000E+00 -0.27500000000E+03  0.27500000000E+03  0.00000000000E+00 0.  1.
    9000005    2    1    2  501    0  0.18682186850E+02  0.40180806845E+02 -0.50229743153E+02  0.46977070913E+03  0.46497093534E+03 0.  0.
         13    1    3    3    0    0  0.16614765773E+03  0.16949995981E+03 -0.11429521861E+03  0.26343628744E+03  0.00000000000E+00 0.  1.
          1    1    3    3  501    0 -0.14746547089E+03 -0.12931915296E+03  0.64065475460E+02  0.20633442168E+03  0.00000000000E+00 0.  1.
         21    1    1    2  502  501 -0.18682186850E+02 -0.40180806845E+02  0.17726075255E+02  0.47725622972E+02  0.00000000000E+00 0. -1.
<scales pt_clust_4="550.00000" pt_clust_5="550.00000" pt_clust_6="44.31164"></scales>
<mgrwt>
<rscale>  0 0.30000000E+03</rscale>
<asrwt>  1 0.44311639E+02</asrwt>
<pdfrwt beam="1">  1        1 0.88180484E+00 0.30000000E+03</pdfrwt>
<pdfrwt beam="2">0</pdfrwt>
<totfact> 0.17935140E-04</totfact>
</mgrwt>
<clustering>
<clus scale="   44.312">  1  6  2 -1</clus>
<clus scale="  464.971">  4  5 -1 -1</clus>
<clus scale="  300.000">  1  4  2 -1</clus>
</clustering>
</event>
<event>
 6    1  0.1029244E-011  0.3000000E+03  0.7818608E-02  0.1093470E+00
          1   -1    0    0  502    0  0.00000000000E+00  0.00000000000E+00  0.24484019051E+03  0.24484019051E+03  0.00000000000E+00 0.  1.
         13   -1    0    0    0    0 -0.00000000000E+00 -0.00000000000E+00 -0.27500000000E+03  0.27500000000E+03  0.00000000000E+00 0.  1.
    9000005    2    1    2  501    0 -0.38762228336E+02  0.77283474970E+01 -0.54385961533E+02  0.47348132789E+03  0.46868379249E+03 0.  0.
         13    1    3    3    0    0 -0.51592223121E+02 -0.26949589745E+02 -0.25904757336E+03  0.26550646534E+03  0.00000000000E+00 0.  1.
          3    1    3    3  501    0  0.12829994786E+02  0.34677937242E+02  0.20466161183E+03  0.20797486255E+03  0.00000000000E+00 0.  1.
         21    1    1    2  502  501  0.38762228336E+02 -0.77283474970E+01  0.24226152039E+02  0.46358862618E+02  0.00000000000E+00 0. -1.
<scales pt_clust_4="550.00000" pt_clust_5="550.00000" pt_clust_6="39.52515"></scales>
<mgrwt>
<rscale>  0 0.30000000E+03</rscale>
<asrwt>  1 0.39525153E+02</asrwt>
<pdfrwt beam="1">  1        1 0.89032797E+00 0.30000000E+03</pdfrwt>
<pdfrwt beam="2">0</pdfrwt>
<totfact> 0.14032183E-04</totfact>
</mgrwt>
<clustering>
<clus scale="   39.525">  1  6  2 -1</clus>
<clus scale="  468.684">  4  5 -1 -1</clus>
<clus scale="  300.000">  1  4  2 -1</clus>
</clustering>
</event>
<event>
 6    1  0.1029244E-011  0.3000000E+03  0.7818608E-02  0.1093470E+00
          1   -1    0    0  502    0  0.00000000000E+00  0.00000000000E+00  0.24004497110E+03  0.24004497110E+03  0.00000000000E+00 0.  1.
         13   -1    0    0    0    0 -0.00000000000E+00 -0.00000000000E+00 -0.27500000000E+03  0.27500000000E+03  0.00000000000E+00 0.  1.
    9000005    2    1    2  501    0  0.75432241947E+01 -0.35424435201E+02 -0.27391857078E+02  0.47804507369E+03  0.47588337626E+03 0.  0.
         13    1    3    3    0    0  0.70527200512E+02  0.17764181492E+03  0.10634102662E+03  0.21872154526E+03  0.00000000000E+00 0.  1.
          3    1    3    3  501    0 -0.62983976317E+02 -0.21306625012E+03 -0.13373288369E+03  0.25932352843E+03  0.00000000000E+00 0.  1.
         21    1    1    2  502  501 -0.75432241947E+01  0.35424435201E+02 -0.75631718206E+01  0.36999897413E+02  0.00000000000E+00 0.  1.
<scales pt_clust_4="550.00000" pt_clust_5="550.00000" pt_clust_6="36.21867"></scales>
<mgrwt>
<rscale>  0 0.30000000E+03</rscale>
<asrwt>  1 0.36218671E+02</asrwt>
<pdfrwt beam="1">  1        1 0.87289080E+00 0.30000000E+03</pdfrwt>
<pdfrwt beam="2">0</pdfrwt>
<totfact> 0.23508634E-04</totfact>
</mgrwt>
<clustering>
<clus scale="   36.219">  1  6  2 -1</clus>
<clus scale="  475.883">  4  5 -1 -1</clus>
<clus scale="  300.000">  1  4  2 -1</clus>
</clustering>
</event>
<event>
 6    1  0.1029244E-011  0.3000000E+03  0.7818608E-02  0.1093470E+00
          1   -1    0    0  502    0  0.00000000000E+00  0.00000000000E+00  0.23793586172E+03  0.23793586172E+03  0.00000000000E+00 0.  1.
         13   -1    0    0    0    0 -0.00000000000E+00 -0.00000000000E+00 -0.27500000000E+03  0.27500000000E+03  0.00000000000E+00 0.  1.
    9000005    2    1    2  501    0  0.16192706526E+02 -0.43208761770E+02 -0.18751117182E+02  0.46329145036E+03  0.46060629907E+03 0.  0.
         13    1    3    3    0    0 -0.20497314905E+03 -0.39834650457E+02 -0.94896366946E+02  0.22936022251E+03  0.00000000000E+00 0.  1.
          3    1    3    3  501    0  0.22116585558E+03 -0.33741113128E+01  0.76145249764E+02  0.23393122785E+03  0.00000000000E+00 0.  1.
         21    1    1    2  502  501 -0.16192706526E+02  0.43208761770E+02 -0.18313021093E+02  0.49644411366E+02  0.00000000000E+00 0.  1.
<scales pt_clust_4="550.00000" pt_clust_5="550.00000" pt_clust_6="46.14329"></scales>
<mgrwt>
<rscale>  0 0.30000000E+03</rscale>
<asrwt>  1 0.46143287E+02</asrwt>
<pdfrwt beam="1">  1        1 0.86522132E+00 0.30000000E+03</pdfrwt>
<pdfrwt beam="2">0</pdfrwt>
<totfact> 0.27017209E-04</totfact>
</mgrwt>
<clustering>
<clus scale="   46.143">  1  6  2 -1</clus>
<clus scale="  460.606">  4  5 -1 -1</clus>
<clus scale="  300.000">  1  4  2 -1</clus>
</clustering>
</event>
<event>
 6    1  0.1029244E-011  0.3000000E+03  0.7818608E-02  0.1093470E+00
          1   -1    0    0  502    0  0.00000000000E+00  0.00000000000E+00  0.22982476893E+03  0.22982476893E+03  0.00000000000E+00 0.  1.
         13   -1    0    0    0    0 -0.00000000000E+00 -0.00000000000E+00 -0.27500000000E+03  0.27500000000E+03  0.00000000000E+00 0.  1.
    9000005    2    1    2  501    0  0.15510345897E+01  0.37605152419E+02 -0.51992960161E+02  0.46657513329E+03  0.46213908502E+03 0.  0.
         13    1    3    3    0    0  0.18089845076E+03 -0.36387000237E+02  0.10913485688E+03  0.21437975711E+03  0.00000000000E+00 0.  1.
          3    1    3    3  501    0 -0.17934741617E+03  0.73992152657E+02 -0.16112781704E+03  0.25219537618E+03  0.00000000000E+00 0.  1.
         21    1    1    2  502  501 -0.15510345897E+01 -0.37605152419E+02  0.68177290953E+01  0.38249635643E+02  0.00000000000E+00 0.  1.
<scales pt_clust_4="550.00000" pt_clust_5="550.00000" pt_clust_6="37.63713"></scales>
<mgrwt>
<rscale>  0 0.30000000E+03</rscale>
<asrwt>  1 0.37637125E+02</asrwt>
<pdfrwt beam="1">  1        1 0.83572643E+00 0.30000000E+03</pdfrwt>
<pdfrwt beam="2">0</pdfrwt>
<totfact> 0.52727776E-04</totfact>
</mgrwt>
<clustering>
<clus scale="   37.637">  1  6  2 -1</clus>
<clus scale="  462.139">  4  5 -1 -1</clus>
<clus scale="  300.000">  1  4  2 -1</clus>
</clustering>
</event>
<event>
 6    1  0.1029244E-011  0.3000000E+03  0.7818608E-02  0.1093470E+00
          1   -1    0    0  502    0  0.00000000000E+00  0.00000000000E+00  0.22552783511E+03  0.22552783511E+03  0.00000000000E+00 0.  1.
         13   -1    0    0    0    0 -0.00000000000E+00 -0.00000000000E+00 -0.27500000000E+03  0.27500000000E+03  0.00000000000E+00 0.  1.
    9000005    2    1    2  501    0  0.20493035714E+02 -0.23763544548E+02 -0.65009423595E+02  0.46551245320E+03  0.45988145034E+03 0.  0.
         13    1    3    3    0    0  0.64592206763E+01  0.40201208688E+02  0.19406464547E+03  0.19829005354E+03  0.00000000000E+00 0.  1.
          3    1    3    3  501    0  0.14033815038E+02 -0.63964753237E+02 -0.25907406906E+03  0.26722239966E+03  0.00000000000E+00 0.  1.
         21    1    1    2  502  501 -0.20493035714E+02  0.23763544548E+02  0.15537258703E+02  0.35015381910E+02  0.00000000000E+00 0.  1.
<scales pt_clust_4="550.00000" pt_clust_5="550.00000" pt_clust_6="31.37946"></scales>
<mgrwt>
<rscale>  0 0.30000000E+03</rscale>
<asrwt>  1 0.31379461E+02</asrwt>
<pdfrwt beam="1">  1        1 0.82010122E+00 0.30000000E+03</pdfrwt>
<pdfrwt beam="2">0</pdfrwt>
<totfact> 0.73687880E-04</totfact>
</mgrwt>
<clustering>
<clus scale="   31.379">  1  6  2 -1</clus>
<clus scale="  459.881">  4  5 -1 -1</clus>
<clus scale="  300.000">  1  4  2 -1</clus>
</clustering>
</event>
<event>
 6    1  0.1029244E-011  0.3000000E+03  0.7818608E-02  0.1093470E+00
          1   -1    0    0  502    0  0.00000000000E+00  0.00000000000E+00  0.24076722720E+03  0.24076722720E+03  0.00000000000E+00 0.  1.
         13   -1    0    0    0    0 -0.00000000000E+00 -0.00000000000E+00 -0.27500000000E+03  0.27500000000E+03  0.00000000000E+00 0.  1.
    9000005    2    1    2  501    0  0.11225886737E+02 -0.30581224135E+02 -0.62703078714E+02  0.47250303737E+03  0.46718969642E+03 0.  0.
         13    1    3    3    0    0  0.20699754537E+03  0.51362109792E+02 -0.13010635457E+03  0.24982736762E+03  0.00000000000E+00 0.  1.
          1    1    3    3  501    0 -0.19577165864E+03 -0.81943333928E+02  0.67403275860E+02  0.22267566975E+03  0.00000000000E+00 0.  1.
         21    1    1    2  502  501 -0.11225886737E+02  0.30581224135E+02  0.28470305909E+02  0.43264189825E+02  0.00000000000E+00 0.  1.
<scales pt_clust_4="550.00000" pt_clust_5="550.00000" pt_clust_6="32.57655"></scales>
<mgrwt>
<rscale>  0 0.30000000E+03</rscale>
<asrwt>  1 0.32576553E+02</asrwt>
<pdfrwt beam="1">  1        1 0.87551719E+00 0.30000000E+03</pdfrwt>
<pdfrwt beam="2">0</pdfrwt>
<totfact> 0.22511730E-04</totfact>
</mgrwt>
<clustering>
<clus scale="   32.577">  1  6  2 -1</clus>
<clus scale="  467.190">  4  5 -1 -1</clus>
<clus scale="  300.000">  1  4  2 -1</clus>
</clustering>
</event>
<event>
 6    1  0.1029244E-011  0.3000000E+03  0.7818608E-02  0.1093470E+00
          1   -1    0    0  502    0  0.00000000000E+00  0.00000000000E+00  0.22581189992E+03  0.22581189992E+03  0.00000000000E+00 0.  1.
         13   -1    0    0    0    0 -0.00000000000E+00 -0.00000000000E+00 -0.27500000000E+03  0.27500000000E+03  0.00000000000E+00 0.  1.
    9000005    2    1    2  501    0 -0.24731166469E+02  0.21754817830E+02 -0.65584427839E+02  0.46401866335E+03  0.45817802224E+03 0.  0.
         13    1    3    3    0    0  0.12952265392E+03  0.44378926326E+02 -0.21053680007E+03  0.25114010265E+03  0.00000000000E+00 0.  1.
          3    1    3    3  501    0 -0.15425382038E+03 -0.22624108496E+02  0.14495237223E+03  0.21287856069E+03  0.00000000000E+00 0.  1.
         21    1    1    2  502  501  0.24731166469E+02 -0.21754817830E+02  0.16396327761E+02  0.36793236576E+02  0.00000000000E+00 0.  1.
<scales pt_clust_4="550.00000" pt_clust_5="550.00000" pt_clust_6="32.93786"></scales>
<mgrwt>
<rscale>  0 0.30000000E+03</rscale>
<asrwt>  1 0.32937861E+02</asrwt>
<pdfrwt beam="1">  1        1 0.82113418E+00 0.30000000E+03</pdfrwt>
<pdfrwt beam="2">0</pdfrwt>
<totfact> 0.71511757E-04</totfact>
</mgrwt>
<clustering>
<clus scale="   32.938">  1  6  2 -1</clus>
<clus scale="  458.178">  4  5 -1 -1</clus>
<clus scale="  300.000">  1  4  2 -1</clus>
</clustering>
</event>
<event>
 6    1  0.1029244E-011  0.3000000E+03  0.7818608E-02  0.1093470E+00
          1   -1    0    0  502    0  0.00000000000E+00  0.00000000000E+00  0.23174677049E+03  0.23174677049E+03  0.00000000000E+00 0.  1.
         13   -1    0    0    0    0 -0.00000000000E+00 -0.00000000000E+00 -0.27500000000E+03  0.27500000000E+03  0.00000000000E+00 0.  1.
    9000005    2    1    2  501    0 -0.33347322339E+02  0.15005849270E+02 -0.66686101080E+02  0.46331499768E+03  0.45703012108E+03 0.  0.
         13    1    3    3    0    0  0.10914368096E+03 -0.29539610898E+02  0.15755126166E+03  0.19392609870E+03  0.00000000000E+00 0.  1.
          1    1    3    3  501    0 -0.14249100330E+03  0.44545460168E+02 -0.22423736274E+03  0.26938889898E+03  0.00000000000E+00 0.  1.
         21    1    1    2  502  501  0.33347322339E+02 -0.15005849270E+02  0.23432871573E+02  0.43431772813E+02  0.00000000000E+00 0. -1.
<scales pt_clust_4="550.00000" pt_clust_5="550.00000" pt_clust_6="36.56801"></scales>
<mgrwt>
<rscale>  0 0.30000000E+03</rscale>
<asrwt>  1 0.36568011E+02</asrwt>
<pdfrwt beam="1">  1        1 0.84271553E+00 0.30000000E+03</pdfrwt>
<pdfrwt beam="2">0</pdfrwt>
<totfact> 0.46879657E-04</totfact>
</mgrwt>
<clustering>
<clus scale="   36.568">  1  6  2 -1</clus>
<clus scale="  457.030">  4  5 -1 -1</clus>
<clus scale="  300.000">  1  4  2 -1</clus>
</clustering>
</event>
<event>
 6    1  0.1029244E-011  0.3000000E+03  0.7818608E-02  0.1093470E+00
          1   -1    0    0  502    0  0.00000000000E+00  0.00000000000E+00  0.23530781757E+03  0.23530781757E+03  0.00000000000E+00 0.  1.
         13   -1    0    0    0    0 -0.00000000000E+00 -0.00000000000E+00 -0.27500000000E+03  0.27500000000E+03  0.00000000000E+00 0.  1.
    9000005    2    1    2  501    0  0.31461565525E+02  0.10836242930E+00 -0.57825375111E+02  0.47399453454E+03  0.46940089787E+03 0.  0.
         13    1    3    3    0    0  0.19259972169E+03  0.34191648583E+02 -0.18242177327E+03  0.26747228827E+03  0.00000000000E+00 0.  1.
          3    1    3    3  501    0 -0.16113815617E+03 -0.34083286153E+02  0.12459639816E+03  0.20652224627E+03  0.00000000000E+00 0.  1.
         21    1    1    2  502  501 -0.31461565525E+02 -0.10836242930E+00  0.18133192686E+02  0.36313283034E+02  0.00000000000E+00 0.  1.
<scales pt_clust_4="550.00000" pt_clust_5="550.00000" pt_clust_6="31.46175"></scales>
<mgrwt>
<rscale>  0 0.30000000E+03</rscale>
<asrwt>  1 0.31461752E+02</asrwt>
<pdfrwt beam="1">  1        1 0.85566479E+00 0.30000000E+03</pdfrwt>
<pdfrwt beam="2">0</pdfrwt>
<totfact> 0.36610961E-04</totfact>
</mgrwt>
<clustering>
<clus scale="   31.462">  1  6  2 -1</clus>
<clus scale="  469.401">  4  5 -1 -1</clus>
<clus scale="  300.000">  1  4  2 -1</clus>
</clustering>
</event>
<event>
 6    1  0.1029244E-011  0.3000000E+03  0.7818608E-02  0.1093470E+00
          1   -1    0    0  502    0  0.00000000000E+00  0.00000000000E+00  0.24876935053E+03  0.24876935053E+03  0.00000000000E+00 0.  1.
         13   -1    0    0    0    0 -0.00000000000E+00 -0.00000000000E+00 -0.27500000000E+03  0.27500000000E+03  0.00000000000E+00 0.  1.
    9000005    2    1    2  501    0 -0.23100941631E+02 -0.25884922082E+02 -0.35528239178E+02  0.48785100049E+03  0.48531707182E+03 0.  0.
         13    1    3    3    0    0  0.10956419154E+03 -0.22189822106E+03  0.60057058887E+01  0.24754636148E+03  0.00000000000E+00 0.  1.
          3    1    3    3  501    0 -0.13266513318E+03  0.19601329898E+03 -0.41533945067E+02  0.24030463901E+03  0.00000000000E+00 0.  1.
         21    1    1    2  502  501  0.23100941631E+02  0.25884922082E+02  0.92975897093E+01  0.35918350044E+02  0.00000000000E+00 0. -1.
<scales pt_clust_4="550.00000" pt_clust_5="550.00000" pt_clust_6="34.69413"></scales>
<mgrwt>
<rscale>  0 0.30000000E+03</rscale>
<asrwt>  1 0.34694131E+02</asrwt>
<pdfrwt beam="1">  1        1 0.90461582E+00 0.30000000E+03</pdfrwt>
<pdfrwt beam="2">0</pdfrwt>
<totfact> 0.94156525E-05</totfact>
</mgrwt>
<clustering>
<clus scale="   34.694">  1  6  2 -1</clus>
<clus scale="  485.317">  4  5 -1 -1</clus>
<clus scale="  300.000">  1  4  2 -1</clus>
</clustering>
</event>
<event>
 6    1  0.1029244E-011  0.3000000E+03  0.7818608E-02  0.1093470E+00
          1   -1    0    0  502    0  0.00000000000E+00  0.00000000000E+00  0.24165615001E+03  0.24165615001E+03  0.00000000000E+00 0.  1.
         13   -1    0    0    0    0 -0.00000000000E+00 -0.00000000000E+00 -0.27500000000E+03  0.27500000000E+03  0.00000000000E+00 0.  1.
    9000005    2    1    2  501    0  0.28197164536E+02 -0.43252047432E+02 -0.16040304732E+02  0.46220220273E+03  0.45902915500E+03 0.  0.
         13    1    3    3    0    0 -0.15236880414E+03 -0.17643445840E+03  0.23765372256E+02  0.23432917766E+03  0.00000000000E+00 0.  1.
          3    1    3    3  501    0  0.18056596867E+03  0.13318241097E+03 -0.39805676989E+02  0.22787302507E+03  0.00000000000E+00 0.  1.
         21    1    1    2  502  501 -0.28197164536E+02  0.43252047432E+02 -0.17303545262E+02  0.54453947273E+02  0.00000000000E+00 0. -1.
<scales pt_clust_4="550.00000" pt_clust_5="550.00000" pt_clust_6="51.63160"></scales>
<mgrwt>
<rscale>  0 0.30000000E+03</rscale>
<asrwt>  1 0.51631602E+02</asrwt>
<pdfrwt beam="1">  1        1 0.87874964E+00 0.30000000E+03</pdfrwt>
<pdfrwt beam="2">0</pdfrwt>
<totfact> 0.19050194E-04</totfact>
</mgrwt>
<clustering>
<clus scale="   51.632">  1  6  2 -1</clus>
<clus scale="  459.029">  4  5 -1 -1</clus>
<clus scale="  300.000">  1  4  2 -1</clus>
</clustering>
</event>
<event>
 6    1  0.1029244E-011  0.3000000E+03  0.7818608E-02  0.1093470E+00
          1   -1    0    0  502    0  0.00000000000E+00  0.00000000000E+00  0.23323157679E+03  0.23323157679E+03  0.00000000000E+00 0.  1.
         13   -1    0    0    0    0 -0.00000000000E+00 -0.00000000000E+00 -0.27500000000E+03  0.27500000000E+03  0.00000000000E+00 0.  1.
    9000005    2    1    2  501    0  0.30836039979E+02  0.10703224978E+02 -0.68110477064E+02  0.46628727816E+03  0.46012972986E+03 0.  0.
         13    1    3    3    0    0  0.16181853915E+03  0.61134454313E+02 -0.20636446730E+03  0.26927486790E+03  0.00000000000E+00 0.  1.
          1    1    3    3  501    0 -0.13098249917E+03 -0.50431229335E+02  0.13825399024E+03  0.19701241026E+03  0.00000000000E+00 0.  1.
         21    1    1    2  502  501 -0.30836039979E+02 -0.10703224978E+02  0.26342053856E+02  0.41944298633E+02  0.00000000000E+00 0.  1.
<scales pt_clust_4="550.00000" pt_clust_5="550.00000" pt_clust_6="32.64078"></scales>
<mgrwt>
<rscale>  0 0.30000000E+03</rscale>
<asrwt>  1 0.32640778E+02</asrwt>
<pdfrwt beam="1">  1        1 0.84811482E+00 0.30000000E+03</pdfrwt>
<pdfrwt beam="2">0</pdfrwt>
<totfact> 0.42931226E-04</totfact>
</mgrwt>
<clustering>
<clus scale="   32.641">  1  6  2 -1</clus>
<clus scale="  460.130">  4  5 -1 -1</clus>
<clus scale="  300.000">  1  4  2 -1</clus>
</clustering>
</event>
<event>
 6    1  0.1029244E-011  0.3000000E+03  0.7818608E-02  0.1093470E+00
          1   -1    0    0  502    0  0.00000000000E+00  0.00000000000E+00  0.24679063639E+03  0.24679063639E+03  0.00000000000E+00 0.  1.
         13   -1    0    0    0    0 -0.00000000000E+00 -0.00000000000E+00 -0.27500000000E+03  0.27500000000E+03  0.00000000000E+00 0.  1.
    9000005    2    1    2  501    0 -0.30513808579E+02  0.19391011128E+01 -0.45762767461E+02  0.48653479129E+03  0.48341185300E+03 0.  0.
         13    1    3    3    0    0 -0.12740764024E+03 -0.20722718215E+03  0.27122015068E+02  0.24476808516E+03  0.00000000000E+00 0.  1.
          3    1    3    3  501    0  0.96893831656E+02  0.20916628326E+03 -0.72884782529E+02  0.24176670613E+03  0.00000000000E+00 0.  1.
         21    1    1    2  502  501  0.30513808579E+02 -0.19391011128E+01  0.17553403847E+02  0.35255845101E+02  0.00000000000E+00 0. -1.
<scales pt_clust_4="550.00000" pt_clust_5="550.00000" pt_clust_6="30.57536"></scales>
<mgrwt>
<rscale>  0 0.30000000E+03</rscale>
<asrwt>  1 0.30575360E+02</asrwt>
<pdfrwt beam="1">  1        1 0.89742050E+00 0.30000000E+03</pdfrwt>
<pdfrwt beam="2">0</pdfrwt>
<totfact> 0.12154548E-04</totfact>
</mgrwt>
<clustering>
<clus scale="   30.575">  1  6  2 -1</clus>
<clus scale="  483.412">  4  5 -1 -1</clus>
<clus scale="  300.000">  1  4  2 -1</clus>
</clustering>
</event>
<event>
 6    1  0.1029244E-011  0.3000000E+03  0.7818608E-02  0.1093470E+00
          1   -1    0    0  502    0  0.00000000000E+00  0.00000000000E+00  0.24779664193E+03  0.24779664193E+03  0.00000000000E+00 0.  1.
         13   -1    0    0    0    0 -0.00000000000E+00 -0.00000000000E+00 -0.27500000000E+03  0.27500000000E+03  0.00000000000E+00 0.  1.
    9000005    2    1    2  501    0  0.19307944376E+01 -0.34408424686E+02 -0.46435879180E+02  0.48333073861E+03  0.47985898382E+03 0.  0.
         13    1    3    3    0    0 -0.54909238631E+02  0.10994622829E+03 -0.21909554434E+03  0.25120918604E+03  0.00000000000E+00 0.  1.
          3    1    3    3  501    0  0.56840033069E+02 -0.14435465297E+03  0.17265966516E+03  0.23212155257E+03  0.00000000000E+00 0.  1.
         21    1    1    2  502  501 -0.19307944376E+01  0.34408424686E+02  0.19232521112E+02  0.39465903320E+02  0.00000000000E+00 0.  1.
<scales pt_clust_4="550.00000" pt_clust_5="550.00000" pt_clust_6="34.46255"></scales>
<mgrwt>
<rscale>  0 0.30000000E+03</rscale>
<asrwt>  1 0.34462554E+02</asrwt>
<pdfrwt beam="1">  1        1 0.90107870E+00 0.30000000E+03</pdfrwt>
<pdfrwt beam="2">0</pdfrwt>
<totfact> 0.10724063E-04</totfact>
</mgrwt>
<clustering>
<clus scale="   34.463">  1  6  2 -1</clus>
<clus scale="  479.859">  4  5 -1 -1</clus>
<clus scale="  300.000">  1  4  2 -1</clus>
</clustering>
</event>
<event>
 6    1  0.1029244E-011  0.3000000E+03  0.7818608E-02  0.1093470E+00
          1   -1    0    0  502    0  0.00000000000E+00  0.00000000000E+00  0.26542270537E+03  0.26542270537E+03  0.00000000000E+00 0.  1.
         13   -1    0    0    0    0 -0.00000000000E+00 -0.00000000000E+00 -0.27500000000E+03  0.27500000000E+03  0.00000000000E+00 0.  1.
    9000005    2    1    2  501    0  0.30306411873E+02 -0.73403089076E+01 -0.57279806175E+02  0.48343245758E+03  0.47901315860E+03 0.  0.
         13    1    3    3    0    0 -0.16795976943E+03  0.13277860779E+03 -0.10102444612E+03  0.23674159235E+03  0.00000000000E+00 0.  1.
          3    1    3    3  501    0  0.19826618130E+03 -0.14011891670E+03  0.43744639950E+02  0.24669086523E+03  0.00000000000E+00 0.  1.
         21    1    1    2  502  501 -0.30306411873E+02  0.73403089076E+01  0.47702511543E+02  0.56990247789E+02  0.00000000000E+00 0. -1.
<scales pt_clust_4="550.00000" pt_clust_5="550.00000" pt_clust_6="31.18267"></scales>
<mgrwt>
<rscale>  0 0.30000000E+03</rscale>
<asrwt>  1 0.31182667E+02</asrwt>
<pdfrwt beam="1">  1        1 0.96517347E+00 0.30000000E+03</pdfrwt>
<pdfrwt beam="2">0</pdfrwt>
<totfact> 0.60409470E-06</totfact>
</mgrwt>
<clustering>
<clus scale="   31.183">  1  6  2 -1</clus>
<clus scale="  479.013">  4  5 -1 -1</clus>
<clus scale="  300.000">  1  4  2 -1</clus>
</clustering>
</event>
<event>
 6    1  0.1029244E-011  0.3000000E+03  0.7818608E-02  0.1093470E+00
          1   -1    0    0  502    0  0.00000000000E+00  0.00000000000E+00  0.23210731964E+03  0.23210731964E+03  0.00000000000E+00 0.  1.
         13   -1    0    0    0    0 -0.00000000000E+00 -0.00000000000E+00 -0.27500000000E+03  0.27500000000E+03  0.00000000000E+00 0.  1.
    9000005    2    1    2  501    0  0.34505584651E+02  0.27775212504E+01 -0.41748097533E+02  0.47247121036E+03  0.46934826192E+03 0.  0.
         13    1    3    3    0    0 -0.25844752335E+01 -0.11905884788E+02 -0.25511582257E+03  0.25540656321E+03  0.00000000000E+00 0.  1.
          3    1    3    3  501    0  0.37090059884E+02  0.14683406039E+02  0.21336772503E+03  0.21706464715E+03  0.00000000000E+00 0.  1.
         21    1    1    2  502  501 -0.34505584651E+02 -0.27775212504E+01 -0.11445828285E+01  0.34636109283E+02  0.00000000000E+00 0.  1.
<scales pt_clust_4="550.00000" pt_clust_5="550.00000" pt_clust_6="34.61719"></scales>
<mgrwt>
<rscale>  0 0.30000000E+03</rscale>
<asrwt>  1 0.34617192E+02</asrwt>
<pdfrwt beam="1">  1        1 0.84402662E+00 0.30000000E+03</pdfrwt>
<pdfrwt beam="2">0</pdfrwt>
<totfact> 0.46163426E-04</totfact>
</mgrwt>
<clustering>
<clus scale="   34.617">  1  6  2 -1</clus>
<clus scale="  469.348">  4  5 -1 -1</clus>
<clus scale="  300.000">  1  4  2 -1</clus>
</clustering>
</event>
<event>
 6    1  0.1029244E-011  0.3000000E+03  0.7818608E-02  0.1093470E+00
          1   -1    0    0  502    0  0.00000000000E+00  0.00000000000E+00  0.22625296238E+03  0.22625296238E+03  0.00000000000E+00 0.  1.
         13   -1    0    0    0    0 -0.00000000000E+00 -0.00000000000E+00 -0.27500000000E+03  0.27500000000E+03  0.00000000000E+00 0.  1.
    9000005    2    1    2  501    0 -0.31329937839E+02 -0.72419456369E-02 -0.51019010067E+02  0.46984075271E+03  0.46601054544E+03 0.  0.
         13    1    3    3    0    0  0.16946544259E+03 -0.12551734634E+03  0.42715174425E+02  0.21516906514E+03  0.00000000000E+00 0.  1.
          3    1    3    3  501    0 -0.20079538043E+03  0.12551010439E+03 -0.93734184492E+02  0.25467168757E+03  0.00000000000E+00 0.  1.
         21    1    1    2  502  501  0.31329937839E+02  0.72419456369E-02  0.22719724427E+01  0.31412209668E+02  0.00000000000E+00 0. -1.
<scales pt_clust_4="550.00000" pt_clust_5="550.00000" pt_clust_6="31.32994"></scales>
<mgrwt>
<rscale>  0 0.30000000E+03</rscale>
<asrwt>  1 0.31329939E+02</asrwt>
<pdfrwt beam="1">  1        1 0.82273805E+00 0.30000000E+03</pdfrwt>
<pdfrwt beam="2">0</pdfrwt>
<totfact> 0.69873824E-04</totfact>
</mgrwt>
<clustering>
<clus scale="   31.330">  1  6  2 -1</clus>
<clus scale="  466.011">  4  5 -1 -1</clus>
<clus scale="  300.000">  1  4  2 -1</clus>
</clustering>
</event>
<event>
 6    1  0.1029244E-011  0.3000000E+03  0.7818608E-02  0.1093470E+00
          1   -1    0    0  502    0  0.00000000000E+00  0.00000000000E+00  0.24401952160E+03  0.24401952160E+03  0.00000000000E+00 0.  1.
         13   -1    0    0    0    0 -0.00000000000E+00 -0.00000000000E+00 -0.27500000000E+03  0.27500000000E+03  0.00000000000E+00 0.  1.
    9000005    2    1    2  501    0 -0.15132238297E+02 -0.27582706959E+02 -0.52276311022E+02  0.48102869578E+03  0.47714358752E+03 0.  0.
         13    1    3    3    0    0 -0.11333906759E+02  0.22497967855E+03 -0.15811176827E+02  0.22581918987E+03  0.00000000000E+00 0.  1.
          3    1    3    3  501    0 -0.37983315375E+01 -0.25256238551E+03 -0.36465134196E+02  0.25520950591E+03  0.00000000000E+00 0.  1.
         21    1    1    2  502  501  0.15132238297E+02  0.27582706959E+02  0.21295832622E+02  0.37990825815E+02  0.00000000000E+00 0. -1.
<scales pt_clust_4="550.00000" pt_clust_5="550.00000" pt_clust_6="31.46093"></scales>
<mgrwt>
<rscale>  0 0.30000000E+03</rscale>
<asrwt>  1 0.31460934E+02</asrwt>
<pdfrwt beam="1">  1        1 0.88734371E+00 0.30000000E+03</pdfrwt>
<pdfrwt beam="2">0</pdfrwt>
<totfact> 0.16074521E-04</totfact>
</mgrwt>
<clustering>
<clus scale="   31.461">  1  6  2 -1</clus>
<clus scale="  477.144">  4  5 -1 -1</clus>
<clus scale="  300.000">  1  4  2 -1</clus>
</clustering>
</event>
<event>
 6    1  0.1029244E-011  0.3000000E+03  0.7818608E-02  0.1093470E+00
          1   -1    0    0  502    0  0.00000000000E+00  0.00000000000E+00  0.25472697079E+03  0.25472697079E+03  0.00000000000E+00 0.  1.
         13   -1    0    0    0    0 -0.00000000000E+00 -0.00000000000E+00 -0.27500000000E+03  0.27500000000E+03  0.00000000000E+00 0.  1.
    9000005    2    1    2  501    0 -0.32151380666E+02  0.20405725118E+02 -0.41389149704E+02  0.48618394103E+03  0.48291992908E+03 0.  0.
         13    1    3    3    0    0 -0.21812383586E+03  0.13918074205E+03 -0.57060698164E+02  0.26496265776E+03  0.00000000000E+00 0.  1.
          1    1    3    3  501    0  0.18597245520E+03 -0.11877501694E+03  0.15671548461E+02  0.22122128327E+03  0.00000000000E+00 0.  1.
         21    1    1    2  502  501  0.32151380666E+02 -0.20405725118E+02  0.21116120496E+02  0.43543029765E+02  0.00000000000E+00 0. -1.
<scales pt_clust_4="550.00000" pt_clust_5="550.00000" pt_clust_6="38.08024"></scales>
<mgrwt>
<rscale>  0 0.30000000E+03</rscale>
<asrwt>  1 0.38080243E+02</asrwt>
<pdfrwt beam="1">  1        1 0.92627989E+00 0.30000000E+03</pdfrwt>
<pdfrwt beam="2">0</pdfrwt>
<totfact> 0.30382385E-05</totfact>
</mgrwt>
<clustering>
<clus scale="   38.080">  1  6  2 -1</clus>
<clus scale="  482.920">  4  5 -1 -1</clus>
<clus scale="  300.000">  1  4  2 -1</clus>
</clustering>
</event>
<event>
 6    1  0.1029244E-011  0.3000000E+03  0.7818608E-02  0.1093470E+00
          1   -1    0    0  502    0  0.00000000000E+00  0.00000000000E+00  0.24760018767E+03  0.24760018767E+03  0.00000000000E+00 0.  1.
         13   -1    0    0    0    0 -0.00000000000E+00 -0.00000000000E+00 -0.27500000000E+03  0.27500000000E+03  0.00000000000E+00 0.  1.
    9000005    2    1    2  501    0  0.22419218412E+02  0.44806077914E+02 -0.42763526585E+02  0.47019551528E+03  0.46555869384E+03 0.  0.
         13    1    3    3    0    0  0.21217187625E+03  0.55270935214E+02 -0.13652378850E+03  0.25828380936E+03  0.00000000000E+00 0.  1.
          1    1    3    3  501    0 -0.18975265783E+03 -0.10464857300E+02  0.93760261914E+02  0.21191170592E+03  0.00000000000E+00 0.  1.
         21    1    1    2  502  501 -0.22419218412E+02 -0.44806077914E+02  0.15363714251E+02  0.52404672385E+02  0.00000000000E+00 0. -1.
<scales pt_clust_4="550.00000" pt_clust_5="550.00000" pt_clust_6="50.10196"></scales>
<mgrwt>
<rscale>  0 0.30000000E+03</rscale>
<asrwt>  1 0.50101956E+02</asrwt>
<pdfrwt beam="1">  1        1 0.90036432E+00 0.30000000E+03</pdfrwt>
<pdfrwt beam="2">0</pdfrwt>
<totfact> 0.10240139E-04</totfact>
</mgrwt>
<clustering>
<clus scale="   50.102">  1  6  2 -1</clus>
<clus scale="  465.559">  4  5 -1 -1</clus>
<clus scale="  300.000">  1  4  2 -1</clus>
</clustering>
</event>
<event>
 6    1  0.1029244E-011  0.3000000E+03  0.7818608E-02  0.1093470E+00
          1   -1    0    0  502    0  0.00000000000E+00  0.00000000000E+00  0.22943989216E+03  0.22943989216E+03  0.00000000000E+00 0.  1.
         13   -1    0    0    0    0 -0.00000000000E+00 -0.00000000000E+00 -0.27500000000E+03  0.27500000000E+03  0.00000000000E+00 0.  1.
    9000005    2    1    2  501    0 -0.34019280485E+01  0.34572261283E+02 -0.50260213598E+02  0.46938414571E+03  0.46539077431E+03 0.  0.
         13    1    3    3    0    0  0.61787628289E+02  0.21600436079E+03  0.78006797837E+02  0.23782484184E+03  0.00000000000E+00 0.  1.
          1    1    3    3  501    0 -0.65189556337E+02 -0.18143209951E+03 -0.12826701144E+03  0.23155930387E+03  0.00000000000E+00 0.  1.
         21    1    1    2  502  501  0.34019280485E+01 -0.34572261283E+02  0.47001057585E+01  0.35055746445E+02  0.00000000000E+00 0. -1.
<scales pt_clust_4="550.00000" pt_clust_5="550.00000" pt_clust_6="34.73923"></scales>
<mgrwt>
<rscale>  0 0.30000000E+03</rscale>
<asrwt>  1 0.34739234E+02</asrwt>
<pdfrwt beam="1">  1        1 0.83432688E+00 0.30000000E+03</pdfrwt>
<pdfrwt beam="2">0</pdfrwt>
<totfact> 0.54793591E-04</totfact>
</mgrwt>
<clustering>
<clus scale="   34.739">  1  6  2 -1</clus>
<clus scale="  465.391">  4  5 -1 -1</clus>
<clus scale="  300.000">  1  4  2 -1</clus>
</clustering>
</event>
<event>
 6    1  0.1029244E-011  0.3000000E+03  0.7818608E-02  0.1093470E+00
          1   -1    0    0  502    0  0.00000000000E+00  0.00000000000E+00  0.25146034307E+03  0.25146034307E+03  0.00000000000E+00 0.  1.
         13   -1    0    0    0    0 -0.00000000000E+00 -0.00000000000E+00 -0.27500000000E+03  0.27500000000E+03  0.00000000000E+00 0.  1.
    9000005    2    1    2  501    0 -0.23481949655E+01  0.35502271921E+02 -0.56762278161E+02  0.47778110835E+03  0.47306120740E+03 0.  0.
         13    1    3    3    0    0 -0.13170165528E+03  0.57089144158E+02 -0.22351499080E+03  0.26563781263E+03  0.00000000000E+00 0.  1.
          1    1    3    3  501    0  0.12935346032E+03 -0.21586872237E+02  0.16675271264E+03  0.21214329573E+03  0.00000000000E+00 0.  1.
         21    1    1    2  502  501  0.23481949655E+01 -0.35502271921E+02  0.33222621227E+02  0.48679234714E+02  0.00000000000E+00 0. -1.
<scales pt_clust_4="550.00000" pt_clust_5="550.00000" pt_clust_6="35.57984"></scales>
<mgrwt>
<rscale>  0 0.30000000E+03</rscale>
<asrwt>  1 0.35579844E+02</asrwt>
<pdfrwt beam="1">  1        1 0.91440125E+00 0.30000000E+03</pdfrwt>
<pdfrwt beam="2">0</pdfrwt>
<totfact> 0.55758105E-05</totfact>
</mgrwt>
<clustering>
<clus scale="   35.580">  1  6  2 -1</clus>
<clus scale="  473.061">  4  5 -1 -1</clus>
<clus scale="  300.000">  1  4  2 -1</clus>
</clustering>
</event>
<event>
 6    1  0.1029244E-011  0.3000000E+03  0.7818608E-02  0.1093470E+00
          1   -1    0    0  502    0  0.00000000000E+00  0.00000000000E+00  0.23160738601E+03  0.23160738601E+03  0.00000000000E+00 0.  1.
         13   -1    0    0    0    0 -0.00000000000E+00 -0.00000000000E+00 -0.27500000000E+03  0.27500000000E+03  0.00000000000E+00 0.  1.
    9000005    2    1    2  501    0  0.27904437970E+02  0.29529589338E+02 -0.47353615267E+02  0.46578651100E+03  0.46158862058E+03 0.  0.
         13    1    3    3    0    0 -0.12755173809E+02  0.30545905507E+02  0.20627667371E+03  0.20891580342E+03  0.00000000000E+00 0.  1.
          1    1    3    3  501    0  0.40659611779E+02 -0.10163161695E+01 -0.25363028898E+03  0.25687070758E+03  0.00000000000E+00 0.  1.
         21    1    1    2  502  501 -0.27904437970E+02 -0.29529589338E+02  0.39610012721E+01  0.40820875002E+02  0.00000000000E+00 0.  1.
<scales pt_clust_4="550.00000" pt_clust_5="550.00000" pt_clust_6="40.62825"></scales>
<mgrwt>
<rscale>  0 0.30000000E+03</rscale>
<asrwt>  1 0.40628245E+02</asrwt>
<pdfrwt beam="1">  1        1 0.84220868E+00 0.30000000E+03</pdfrwt>
<pdfrwt beam="2">0</pdfrwt>
<totfact> 0.46431235E-04</totfact>
</mgrwt>
<clustering>
<clus scale="   40.628">  1  6  2 -1</clus>
<clus scale="  461.589">  4  5 -1 -1</clus>
<clus scale="  300.000">  1  4  2 -1</clus>
</clustering>
</event>
<event>
 6    1  0.1029244E-011  0.3000000E+03  0.7818608E-02  0.1093470E+00
          1   -1    0    0  502    0  0.00000000000E+00  0.00000000000E+00  0.23231020481E+03  0.23231020481E+03  0.00000000000E+00 0.  1.
         13   -1    0    0    0    0 -0.00000000000E+00 -0.00000000000E+00 -0.27500000000E+03  0.27500000000E+03  0.00000000000E+00 0.  1.
    9000005    2    1    2  501    0  0.15773166565E+02 -0.26884756779E+02 -0.48607790324E+02  0.47558315646E+03  0.47206465500E+03 0.  0.
         13    1    3    3    0    0  0.17585318707E+03  0.15056735233E+03 -0.48813434129E+02  0.23659590517E+03  0.00000000000E+00 0.  1.
          1    1    3    3  501    0 -0.16008002050E+03 -0.17745210911E+03  0.20564380497E+00  0.23898725129E+03  0.00000000000E+00 0.  1.
         21    1    1    2  502  501 -0.15773166565E+02  0.26884756779E+02  0.59179951327E+01  0.31727048349E+02  0.00000000000E+00 0. -1.
<scales pt_clust_4="550.00000" pt_clust_5="550.00000" pt_clust_6="31.17023"></scales>
<mgrwt>
<rscale>  0 0.30000000E+03</rscale>
<asrwt>  1 0.31170225E+02</asrwt>
<pdfrwt beam="1">  1        1 0.84476438E+00 0.30000000E+03</pdfrwt>
<pdfrwt beam="2">0</pdfrwt>
<totfact> 0.46402316E-04</totfact>
</mgrwt>
<clustering>
<clus scale="   31.170">  1  6  2 -1</clus>
<clus scale="  472.065">  4  5 -1 -1</clus>
<clus scale="  300.000">  1  4  2 -1</clus>
</clustering>
</event>
<event>
 6    1  0.1029244E-011  0.3000000E+03  0.7818608E-02  0.1093470E+00
          1   -1    0    0  502    0  0.00000000000E+00  0.00000000000E+00  0.23195986770E+03  0.23195986770E+03  0.00000000000E+00 0.  1.
         13   -1    0    0    0    0 -0.00000000000E+00 -0.00000000000E+00 -0.27500000000E+03  0.27500000000E+03  0.00000000000E+00 0.  1.
    9000005    2    1    2  501    0  0.38991856549E+01 -0.42366718158E+02 -0.57567156242E+02  0.46200236687E+03  0.45642312284E+03 0.  0.
         13    1    3    3    0    0 -0.26918184326E+02 -0.22069148013E+03 -0.14043188328E+03  0.26296469704E+03  0.00000000000E+00 0.  1.
          1    1    3    3  501    0  0.30817369981E+02  0.17832476197E+03  0.82864727034E+02  0.19903766983E+03  0.00000000000E+00 0.  1.
         21    1    1    2  502  501 -0.38991856549E+01  0.42366718158E+02  0.14527023944E+02  0.44957500831E+02  0.00000000000E+00 0.  1.
<scales pt_clust_4="550.00000" pt_clust_5="550.00000" pt_clust_6="42.54577"></scales>
<mgrwt>
<rscale>  0 0.30000000E+03</rscale>
<asrwt>  1 0.42545769E+02</asrwt>
<pdfrwt beam="1">  1        1 0.84349043E+00 0.30000000E+03</pdfrwt>
<pdfrwt beam="2">0</pdfrwt>
<totfact> 0.44917061E-04</totfact>
</mgrwt>
<clustering>
<clus scale="   42.546">  1  6  2 -1</clus>
<clus scale="  456.423">  4  5 -1 -1</clus>
<clus scale="  300.000">  1  4  2 -1</clus>
</clustering>
</event>
<event>
 6    1  0.1029244E-011  0.3000000E+03  0.7818608E-02  0.1093470E+00
          1   -1    0    0  502    0  0.00000000000E+00  0.00000000000E+00  0.24255116347E+03  0.24255116347E+03  0.00000000000E+00 0.  1.
         13   -1    0    0    0    0 -0.00000000000E+00 -0.00000000000E+00 -0.27500000000E+03  0.27500000000E+03  0.00000000000E+00 0.  1.
    9000005    2    1    2  501    0  0.33941245456E+02  0.25394029118E+02 -0.30038542454E+02  0.47509325048E+03  0.47224402353E+03 0.  0.
         13    1    3    3    0    0  0.21193526079E+03 -0.67332145213E+02  0.91499419618E+02  0.24046271299E+03  0.00000000000E+00 0.  1.
          1    1    3    3  501    0 -0.17799401534E+03  0.92726174331E+02 -0.12153796207E+03  0.23463053750E+03  0.00000000000E+00 0.  1.
         21    1    1    2  502  501 -0.33941245456E+02 -0.25394029118E+02 -0.24102940743E+01  0.42457912990E+02  0.00000000000E+00 0. -1.
<scales pt_clust_4="550.00000" pt_clust_5="550.00000" pt_clust_6="42.38944"></scales>
<mgrwt>
<rscale>  0 0.30000000E+03</rscale>
<asrwt>  1 0.42389443E+02</asrwt>
<pdfrwt beam="1">  1        1 0.88200423E+00 0.30000000E+03</pdfrwt>
<pdfrwt beam="2">0</pdfrwt>
<totfact> 0.17971233E-04</totfact>
</mgrwt>
<clustering>
<clus scale="   42.389">  1  6  2 -1</clus>
<clus scale="  472.244">  4  5 -1 -1</clus>
<clus scale="  300.000">  1  4  2 -1</clus>
</clustering>
</event>
<event>
 6    1  0.1029244E-011  0.3000000E+03  0.7818608E-02  0.1093470E+00
          1   -1    0    0  502    0  0.00000000000E+00  0.00000000000E+00  0.24864626504E+03  0.24864626504E+03  0.00000000000E+00 0.  1.
         13   -1    0    0    0    0 -0.00000000000E+00 -0.00000000000E+00 -0.27500000000E+03  0.27500000000E+03  0.00000000000E+00 0.  1.
    9000005    2    1    2  501    0  0.31111820994E+02 -0.23723538334E+02 -0.45742544212E+02  0.47998074545E+03  0.47619154127E+03 0.  0.
         13    1    3    3    0    0  0.73719650097E+01 -0.15630660345E+03 -0.21358720574E+03  0.26477461096E+03  0.00000000000E+00 0.  1.
          3    1    3    3  501    0  0.23739855984E+02  0.13258306512E+03  0.16784466153E+03  0.21520613449E+03  0.00000000000E+00 0.  1.
         21    1    1    2  502  501 -0.31111820994E+02  0.23723538334E+02  0.19388809251E+02  0.43665519587E+02  0.00000000000E+00 0. -1.
<scales pt_clust_4="550.00000" pt_clust_5="550.00000" pt_clust_6="39.12482"></scales>
<mgrwt>
<rscale>  0 0.30000000E+03</rscale>
<asrwt>  1 0.39124822E+02</asrwt>
<pdfrwt beam="1">  1        1 0.90416824E+00 0.30000000E+03</pdfrwt>
<pdfrwt beam="2">0</pdfrwt>
<totfact> 0.93811784E-05</totfact>
</mgrwt>
<clustering>
<clus scale="   39.125">  1  6  2 -1</clus>
<clus scale="  476.192">  4  5 -1 -1</clus>
<clus scale="  300.000">  1  4  2 -1</clus>
</clustering>
</event>
<event>
 6    1  0.1029244E-011  0.3000000E+03  0.7818608E-02  0.1093470E+00
          1   -1    0    0  502    0  0.00000000000E+00  0.00000000000E+00  0.26446118778E+03  0.26446118778E+03  0.00000000000E+00 0.  1.
         13   -1    0    0    0    0 -0.00000000000E+00 -0.00000000000E+00 -0.27500000000E+03  0.27500000000E+03  0.00000000000E+00 0.  1.
    9000005    2    1    2  501    0 -0.47088487366E+02  0.21851069329E+02 -0.47334969057E+02  0.47583138320E+03  0.47061673479E+03 0.  0.
         13    1    3    3    0    0  0.41307998870E+02 -0.16494815215E+02  0.20288321486E+03  0.20770177797E+03  0.00000000000E+00 0.  1.
          1    1    3    3  501    0 -0.88396486236E+02  0.38345884544E+02 -0.25021818391E+03  0.26812960523E+03  0.00000000000E+00 0.  1.
         21    1    1    2  502  501  0.47088487366E+02 -0.21851069329E+02  0.36796156832E+02  0.63629804580E+02  0.00000000000E+00 0. -1.
<scales pt_clust_4="550.00000" pt_clust_5="550.00000" pt_clust_6="51.91141"></scales>
<mgrwt>
<rscale>  0 0.30000000E+03</rscale>
<asrwt>  1 0.51911414E+02</asrwt>
<pdfrwt beam="1">  1        1 0.96167705E+00 0.30000000E+03</pdfrwt>
<pdfrwt beam="2">0</pdfrwt>
<totfact> 0.65002764E-06</totfact>
</mgrwt>
<clustering>
<clus scale="   51.911">  1  6  2 -1</clus>
<clus scale="  470.617">  4  5 -1 -1</clus>
<clus scale="  300.000">  1  4  2 -1</clus>
</clustering>
</event>
<event>
 6    1  0.1029244E-011  0.3000000E+03  0.7818608E-02  0.1093470E+00
          1   -1    0    0  502    0  0.00000000000E+00  0.00000000000E+00  0.23544081949E+03  0.23544081949E+03  0.00000000000E+00 0.  1.
         13   -1    0    0    0    0 -0.00000000000E+00 -0.00000000000E+00 -0.27500000000E+03  0.27500000000E+03  0.00000000000E+00 0.  1.
    9000005    2    1    2  501    0  0.79812614273E+01 -0.31364419314E+02 -0.55874759787E+02  0.47419684813E+03  0.46977998538E+03 0.  0.
         13    1    3    3    0    0 -0.54386829560E+02  0.18477921379E+03 -0.13556187702E+03  0.23553833569E+03  0.00000000000E+00 0.  1.
          3    1    3    3  501    0  0.62368090987E+02 -0.21614363310E+03  0.79687117237E+02  0.23865851244E+03  0.00000000000E+00 0.  1.
         21    1    1    2  502  501 -0.79812614273E+01  0.31364419314E+02  0.16315579278E+02  0.36243971361E+02  0.00000000000E+00 0. -1.
<scales pt_clust_4="550.00000" pt_clust_5="550.00000" pt_clust_6="32.36398"></scales>
<mgrwt>
<rscale>  0 0.30000000E+03</rscale>
<asrwt>  1 0.32363982E+02</asrwt>
<pdfrwt beam="1">  1        1 0.85614843E+00 0.30000000E+03</pdfrwt>
<pdfrwt beam="2">0</pdfrwt>
<totfact> 0.36007672E-04</totfact>
</mgrwt>
<clustering>
<clus scale="   32.364">  1  6  2 -1</clus>
<clus scale="  469.780">  4  5 -1 -1</clus>
<clus scale="  300.000">  1  4  2 -1</clus>
</clustering>
</event>
<event>
 6    1  0.1029244E-011  0.3000000E+03  0.7818608E-02  0.1093470E+00
          1   -1    0    0  502    0  0.00000000000E+00  0.00000000000E+00  0.24608688683E+03  0.24608688683E+03  0.00000000000E+00 0.  1.
         13   -1    0    0    0    0 -0.00000000000E+00 -0.00000000000E+00 -0.27500000000E+03  0.27500000000E+03  0.00000000000E+00 0.  1.
    9000005    2    1    2  501    0 -0.33235351252E+02  0.25090322599E+02 -0.39421466746E+02  0.47813879775E+03  0.47468783955E+03 0.  0.
         13    1    3    3    0    0  0.70348629806E+02 -0.20379175385E+03 -0.66095668749E+02  0.22549644361E+03  0.00000000000E+00 0.  1.
          3    1    3    3  501    0 -0.10358398106E+03  0.22888207645E+03  0.26674202002E+02  0.25264235414E+03  0.00000000000E+00 0.  1.
         21    1    1    2  502  501  0.33235351252E+02 -0.25090322599E+02  0.10508353581E+02  0.42948089084E+02  0.00000000000E+00 0.  1.
<scales pt_clust_4="550.00000" pt_clust_5="550.00000" pt_clust_6="41.64268"></scales>
<mgrwt>
<rscale>  0 0.30000000E+03</rscale>
<asrwt>  1 0.41642681E+02</asrwt>
<pdfrwt beam="1">  1        1 0.89486141E+00 0.30000000E+03</pdfrwt>
<pdfrwt beam="2">0</pdfrwt>
<totfact> 0.12256138E-04</totfact>
</mgrwt>
<clustering>
<clus scale="   41.643">  1  6  2 -1</clus>
<clus scale="  474.688">  4  5 -1 -1</clus>
<clus scale="  300.000">  1  4  2 -1</clus>
</clustering>
</event>
<event>
 6    1  0.1029244E-011  0.3000000E+03  0.7818608E-02  0.1093470E+00
          1   -1    0    0  502    0  0.00000000000E+00  0.00000000000E+00  0.25010772452E+03  0.25010772452E+03  0.00000000000E+00 0.  1.
         13   -1    0    0    0    0 -0.00000000000E+00 -0.00000000000E+00 -0.27500000000E+03  0.27500000000E+03  0.00000000000E+00 0.  1.
    9000005    2    1    2  501    0  0.79207963183E+01 -0.52410783427E+02 -0.29390753019E+02  0.47191124406E+03  0.46800296652E+03 0.  0.
         13    1    3    3    0    0  0.21688565730E+03  0.69894717928E+02  0.11044290613E+01  0.22787250755E+03  0.00000000000E+00 0.  1.
          3    1    3    3  501    0 -0.20896486098E+03 -0.12230550135E+03 -0.30495182080E+02  0.24403873650E+03  0.00000000000E+00 0.  1.
         21    1    1    2  502  501 -0.79207963183E+01  0.52410783427E+02  0.44984775410E+01  0.53196480465E+02  0.00000000000E+00 0.  1.
<scales pt_clust_4="550.00000" pt_clust_5="550.00000" pt_clust_6="53.00594"></scales>
<mgrwt>
<rscale>  0 0.30000000E+03</rscale>
<asrwt>  1 0.53005936E+02</asrwt>
<pdfrwt beam="1">  1        1 0.90948263E+00 0.30000000E+03</pdfrwt>
<pdfrwt beam="2">0</pdfrwt>
<totfact> 0.68626406E-05</totfact>
</mgrwt>
<clustering>
<clus scale="   53.006">  1  6  2 -1</clus>
<clus scale="  468.003">  4  5 -1 -1</clus>
<clus scale="  300.000">  1  4  2 -1</clus>
</clustering>
</event>
<event>
 6    1  0.1029244E-011  0.3000000E+03  0.7818608E-02  0.1093470E+00
          1   -1    0    0  502    0  0.00000000000E+00  0.00000000000E+00  0.22877293291E+03  0.22877293291E+03  0.00000000000E+00 0.  1.
         13   -1    0    0    0    0 -0.00000000000E+00 -0.00000000000E+00 -0.27500000000E+03  0.27500000000E+03  0.00000000000E+00 0.  1.
    9000005    2    1    2  501    0 -0.26742347846E+02  0.26095724373E+02 -0.64155753376E+02  0.46232926282E+03  0.45632909897E+03 0.  0.
         13    1    3    3    0    0 -0.22887829819E+03  0.10276926899E+02  0.42833577703E+02  0.23307854038E+03  0.00000000000E+00 0.  1.
          3    1    3    3  501    0  0.20213595034E+03  0.15818797475E+02 -0.10698933108E+03  0.22925072244E+03  0.00000000000E+00 0.  1.
         21    1    1    2  502  501  0.26742347846E+02 -0.26095724373E+02  0.17928686286E+02  0.41443670094E+02  0.00000000000E+00 0. -1.
<scales pt_clust_4="550.00000" pt_clust_5="550.00000" pt_clust_6="37.36496"></scales>
<mgrwt>
<rscale>  0 0.30000000E+03</rscale>
<asrwt>  1 0.37364957E+02</asrwt>
<pdfrwt beam="1">  1        1 0.83190157E+00 0.30000000E+03</pdfrwt>
<pdfrwt beam="2">0</pdfrwt>
<totfact> 0.56378967E-04</totfact>
</mgrwt>
<clustering>
<clus scale="   37.365">  1  6  2 -1</clus>
<clus scale="  456.329">  4  5 -1 -1</clus>
<clus scale="  300.000">  1  4  2 -1</clus>
</clustering>
</event>
<event>
 6    1  0.1029244E-011  0.3000000E+03  0.7818608E-02  0.1093470E+00
          1   -1    0    0  502    0  0.00000000000E+00  0.00000000000E+00  0.23255899784E+03  0.23255899784E+03  0.00000000000E+00 0.  1.
         13   -1    0    0    0    0 -0.00000000000E+00 -0.00000000000E+00 -0.27500000000E+03  0.27500000000E+03  0.00000000000E+00 0.  1.
    9000005    2    1    2  501    0 -0.27962289878E+02 -0.14114650172E+02 -0.66139200591E+02  0.46828155376E+03  0.46252795238E+03 0.  0.
         13    1    3    3    0    0  0.17336573808E+03  0.69043120351E+02 -0.14531273815E+03  0.23651305139E+03  0.00000000000E+00 0.  1.
          3    1    3    3  501    0 -0.20132802796E+03 -0.83157770523E+02  0.79173537559E+02  0.23176850237E+03  0.00000000000E+00 0.  1.
         21    1    1    2  502  501  0.27962289878E+02  0.14114650172E+02  0.23698198433E+02  0.39277444083E+02  0.00000000000E+00 0.  1.
<scales pt_clust_4="550.00000" pt_clust_5="550.00000" pt_clust_6="31.32272"></scales>
<mgrwt>
<rscale>  0 0.30000000E+03</rscale>
<asrwt>  1 0.31322723E+02</asrwt>
<pdfrwt beam="1">  1        1 0.84566908E+00 0.30000000E+03</pdfrwt>
<pdfrwt beam="2">0</pdfrwt>
<totfact> 0.45519829E-04</totfact>
</mgrwt>
<clustering>
<clus scale="   31.323">  1  6  2 -1</clus>
<clus scale="  462.528">  4  5 -1 -1</clus>
<clus scale="  300.000">  1  4  2 -1</clus>
</clustering>
</event>
<event>
 6    1  0.1029244E-011  0.3000000E+03  0.7818608E-02  0.1093470E+00
          1   -1    0    0  502    0  0.00000000000E+00  0.00000000000E+00  0.24537450512E+03  0.24537450512E+03  0.00000000000E+00 0.  1.
         13   -1    0    0    0    0 -0.00000000000E+00 -0.00000000000E+00 -0.27500000000E+03  0.27500000000E+03  0.00000000000E+00 0.  1.
    9000005    2    1    2  501    0 -0.45833127397E+02 -0.12562720964E+02 -0.31968454120E+02  0.47279313289E+03  0.46931105562E+03 0.  0.
         13    1    3    3    0    0  0.94173144294E+02 -0.20934892905E+03 -0.27953284165E+02  0.23125081901E+03  0.00000000000E+00 0.  1.
          1    1    3    3  501    0 -0.14000627169E+03  0.19678620808E+03 -0.40151699546E+01  0.24154231388E+03  0.00000000000E+00 0.  1.
         21    1    1    2  502  501  0.45833127397E+02  0.12562720964E+02  0.23429592382E+01  0.47581372227E+02  0.00000000000E+00 0.  1.
<scales pt_clust_4="550.00000" pt_clust_5="550.00000" pt_clust_6="47.52365"></scales>
<mgrwt>
<rscale>  0 0.30000000E+03</rscale>
<asrwt>  1 0.47523652E+02</asrwt>
<pdfrwt beam="1">  1        1 0.89227093E+00 0.30000000E+03</pdfrwt>
<pdfrwt beam="2">0</pdfrwt>
<totfact> 0.12827884E-04</totfact>
</mgrwt>
<clustering>
<clus scale="   47.524">  1  6  2 -1</clus>
<clus scale="  469.311">  4  5 -1 -1</clus>
<clus scale="  300.000">  1  4  2 -1</clus>
</clustering>
</event>
<event>
 6    1  0.1029244E-011  0.3000000E+03  0.7818608E-02  0.1093470E+00
          1   -1    0    0  502    0  0.00000000000E+00  0.00000000000E+00  0.23266616914E+03  0.23266616914E+03  0.00000000000E+00 0.  1.
         13   -1    0    0    0    0 -0.00000000000E+00 -0.00000000000E+00 -0.27500000000E+03  0.27500000000E+03  0.00000000000E+00 0.  1.
    9000005    2    1    2  501    0  0.35537709721E+02  0.65118741966E+01 -0.65211052950E+02  0.46490286000E+03  0.45888653771E+03 0.  0.
         13    1    3    3    0    0  0.60660585469E+02  0.22787860784E+03 -0.13546580053E+02  0.23620304057E+03  0.00000000000E+00 0.  1.
          1    1    3    3  501    0 -0.25122875747E+02 -0.22136673364E+03 -0.51664472897E+02  0.22869981944E+03  0.00000000000E+00 0.  1.
         21    1    1    2  502  501 -0.35537709721E+02 -0.65118741966E+01  0.22877222087E+02  0.42763309135E+02  0.00000000000E+00 0.  1.
<scales pt_clust_4="550.00000" pt_clust_5="550.00000" pt_clust_6="36.12940"></scales>
<mgrwt>
<rscale>  0 0.30000000E+03</rscale>
<asrwt>  1 0.36129397E+02</asrwt>
<pdfrwt beam="1">  1        1 0.84605880E+00 0.30000000E+03</pdfrwt>
<pdfrwt beam="2">0</pdfrwt>
<totfact> 0.43960633E-04</totfact>
</mgrwt>
<clustering>
<clus scale="   36.129">  1  6  2 -1</clus>
<clus scale="  458.887">  4  5 -1 -1</clus>
<clus scale="  300.000">  1  4  2 -1</clus>
</clustering>
</event>
<event>
 6    1  0.1029244E-011  0.3000000E+03  0.7818608E-02  0.1093470E+00
          1   -1    0    0  502    0  0.00000000000E+00  0.00000000000E+00  0.24661216075E+03  0.24661216075E+03  0.00000000000E+00 0.  1.
         13   -1    0    0    0    0 -0.00000000000E+00 -0.00000000000E+00 -0.27500000000E+03  0.27500000000E+03  0.00000000000E+00 0.  1.
    9000005    2    1    2  501    0  0.27201106255E+02  0.14310636671E+02 -0.42281178285E+02  0.48788206480E+03  0.48507372286E+03 0.  0.
         13    1    3    3    0    0  0.13952064421E+03 -0.19954181434E+03 -0.54972636030E+01  0.24354294434E+03  0.00000000000E+00 0.  1.
          1    1    3    3  501    0 -0.11231953796E+03  0.21385245101E+03 -0.36783914682E+02  0.24433912046E+03  0.00000000000E+00 0.  1.
         21    1    1    2  502  501 -0.27201106255E+02 -0.14310636671E+02  0.13893339039E+02  0.33730095954E+02  0.00000000000E+00 0.  1.
<scales pt_clust_4="550.00000" pt_clust_5="550.00000" pt_clust_6="30.73588"></scales>
<mgrwt>
<rscale>  0 0.30000000E+03</rscale>
<asrwt>  1 0.30735883E+02</asrwt>
<pdfrwt beam="1">  1        1 0.89677149E+00 0.30000000E+03</pdfrwt>
<pdfrwt beam="2">0</pdfrwt>
<totfact> 0.12348008E-04</totfact>
</mgrwt>
<clustering>
<clus scale="   30.736">  1  6  2 -1</clus>
<clus scale="  485.074">  4  5 -1 -1</clus>
<clus scale="  300.000">  1  4  2 -1</clus>
</clustering>
</event>
<event>
 6    1  0.1029244E-011  0.3000000E+03  0.7818608E-02  0.1093470E+00
          1   -1    0    0  502    0  0.00000000000E+00  0.00000000000E+00  0.24988440230E+03  0.24988440230E+03  0.00000000000E+00 0.  1.
         13   -1    0    0    0    0 -0.00000000000E+00 -0.00000000000E+00 -0.27500000000E+03  0.27500000000E+03  0.00000000000E+00 0.  1.
    9000005    2    1    2  501    0 -0.24187513650E+02  0.24993425866E+02 -0.17952959715E+02  0.48937369214E+03  0.48780589853E+03 0.  0.
         13    1    3    3    0    0  0.16557132350E+03 -0.12154807100E+03 -0.10946698486E+03  0.23274625132E+03  0.00000000000E+00 0.  1.
          3    1    3    3  501    0 -0.18975883715E+03  0.14654149687E+03  0.91514025143E+02  0.25662744082E+03  0.00000000000E+00 0.  1.
         21    1    1    2  502  501  0.24187513650E+02 -0.24993425866E+02 -0.71626379882E+01  0.35510710160E+02  0.00000000000E+00 0. -1.
<scales pt_clust_4="550.00000" pt_clust_5="550.00000" pt_clust_6="34.78086"></scales>
<mgrwt>
<rscale>  0 0.30000000E+03</rscale>
<asrwt>  1 0.34780862E+02</asrwt>
<pdfrwt beam="1">  1        1 0.90867055E+00 0.30000000E+03</pdfrwt>
<pdfrwt beam="2">0</pdfrwt>
<totfact> 0.77381958E-05</totfact>
</mgrwt>
<clustering>
<clus scale="   34.781">  1  6  2 -1</clus>
<clus scale="  487.806">  4  5 -1 -1</clus>
<clus scale="  300.000">  1  4  2 -1</clus>
</clustering>
</event>
<event>
 6    1  0.1029244E-011  0.3000000E+03  0.7818608E-02  0.1093470E+00
          1   -1    0    0  502    0  0.00000000000E+00  0.00000000000E+00  0.23621471670E+03  0.23621471670E+03  0.00000000000E+00 0.  1.
         13   -1    0    0    0    0 -0.00000000000E+00 -0.00000000000E+00 -0.27500000000E+03  0.27500000000E+03  0.00000000000E+00 0.  1.
    9000005    2    1    2  501    0 -0.34462611417E+02  0.44885314282E+01 -0.34601922370E+02  0.47621015973E+03  0.47367816574E+03 0.  0.
         13    1    3    3    0    0  0.15985891738E+03 -0.14702515654E+03 -0.67913640613E+02  0.22755995408E+03  0.00000000000E+00 0.  1.
          1    1    3    3  501    0 -0.19432152880E+03  0.15151368797E+03  0.33311718242E+02  0.24865020565E+03  0.00000000000E+00 0.  1.
         21    1    1    2  502  501  0.34462611417E+02 -0.44885314282E+01 -0.41833609279E+01  0.35004556971E+02  0.00000000000E+00 0. -1.
<scales pt_clust_4="550.00000" pt_clust_5="550.00000" pt_clust_6="34.75370"></scales>
<mgrwt>
<rscale>  0 0.30000000E+03</rscale>
<asrwt>  1 0.34753701E+02</asrwt>
<pdfrwt beam="1">  1        1 0.85896261E+00 0.30000000E+03</pdfrwt>
<pdfrwt beam="2">0</pdfrwt>
<totfact> 0.33220936E-04</totfact>
</mgrwt>
<clustering>
<clus scale="   34.754">  1  6  2 -1</clus>
<clus scale="  473.678">  4  5 -1 -1</clus>
<clus scale="  300.000">  1  4  2 -1</clus>
</clustering>
</event>
<event>
 6    1  0.1029244E-011  0.3000000E+03  0.7818608E-02  0.1093470E+00
          1   -1    0    0  502    0  0.00000000000E+00  0.00000000000E+00  0.23488408649E+03  0.23488408649E+03  0.00000000000E+00 0.  1.
         13   -1    0    0    0    0 -0.00000000000E+00 -0.00000000000E+00 -0.27500000000E+03  0.27500000000E+03  0.00000000000E+00 0.  1.
    9000005    2    1    2  501    0 -0.14904891716E+02  0.35874007170E+02 -0.63853818028E+02  0.46435839815E+03  0.45830373299E+03 0.  0.
         13    1    3    3    0    0 -0.18283184511E+02  0.56070139268E+02 -0.26027486586E+03  0.26687289325E+03  0.00000000000E+00 0.  1.
          3    1    3    3  501    0  0.33782927948E+01 -0.20196132099E+02  0.19642104783E+03  0.19748550490E+03  0.00000000000E+00 0.  1.
         21    1    1    2  502  501  0.14904891716E+02 -0.35874007170E+02  0.23737904515E+02  0.45525688334E+02  0.00000000000E+00 0. -1.
<scales pt_clust_4="550.00000" pt_clust_5="550.00000" pt_clust_6="38.84714"></scales>
<mgrwt>
<rscale>  0 0.30000000E+03</rscale>
<asrwt>  1 0.38847139E+02</asrwt>
<pdfrwt beam="1">  1        1 0.85412395E+00 0.30000000E+03</pdfrwt>
<pdfrwt beam="2">0</pdfrwt>
<totfact> 0.36451878E-04</totfact>
</mgrwt>
<clustering>
<clus scale="   38.847">  1  6  2 -1</clus>
<clus scale="  458.304">  4  5 -1 -1</clus>
<clus scale="  300.000">  1  4  2 -1</clus>
</clustering>
</event>
<event>
 6    1  0.1029244E-011  0.3000000E+03  0.7818608E-02  0.1093470E+00
          1   -1    0    0  502    0  0.00000000000E+00  0.00000000000E+00  0.24946083054E+03  0.24946083054E+03  0.00000000000E+00 0.  1.
         13   -1    0    0    0    0 -0.00000000000E+00 -0.00000000000E+00 -0.27500000000E+03  0.27500000000E+03  0.00000000000E+00 0.  1.
    9000005    2    1    2  501    0  0.25505731265E+02  0.41256469590E+02 -0.14316878352E+01  0.47029618081E+03  0.46778607220E+03 0.  0.
         13    1    3    3    0    0  0.17715267143E+03 -0.46843650479E+02 -0.15282821373E+03  0.23860817148E+03  0.00000000000E+00 0.  1.
          3    1    3    3  501    0 -0.15164694016E+03  0.88100120069E+02  0.15139652590E+03  0.23168800934E+03  0.00000000000E+00 0.  1.
         21    1    1    2  502  501 -0.25505731265E+02 -0.41256469590E+02 -0.24107481620E+02  0.54164649731E+02  0.00000000000E+00 0. -1.
<scales pt_clust_4="550.00000" pt_clust_5="550.00000" pt_clust_6="48.50403"></scales>
<mgrwt>
<rscale>  0 0.30000000E+03</rscale>
<asrwt>  1 0.48504030E+02</asrwt>
<pdfrwt beam="1">  1        1 0.90713029E+00 0.30000000E+03</pdfrwt>
<pdfrwt beam="2">0</pdfrwt>
<totfact> 0.78886056E-05</totfact>
</mgrwt>
<clustering>
<clus scale="   48.504">  1  6  2 -1</clus>
<clus scale="  467.786">  4  5 -1 -1</clus>
<clus scale="  300.000">  1  4  2 -1</clus>
</clustering>
</event>
<event>
 6    1  0.1029244E-011  0.3000000E+03  0.7818608E-02  0.1093470E+00
          1   -1    0    0  502    0  0.00000000000E+00  0.00000000000E+00  0.23459168993E+03  0.23459168993E+03  0.00000000000E+00 0.  1.
         13   -1    0    0    0    0 -0.00000000000E+00 -0.00000000000E+00 -0.27500000000E+03  0.27500000000E+03  0.00000000000E+00 0.  1.
    9000005    2    1    2  501    0  0.47384572996E+01  0.32295994709E+02 -0.43354847949E+02  0.47681721301E+03  0.47371882750E+03 0.  0.
         13    1    3    3    0    0  0.15048350266E+03 -0.16801969458E+03 -0.39954391152E+02  0.22906823374E+03  0.00000000000E+00 0.  1.
          3    1    3    3  501    0 -0.14574504536E+03  0.20031568929E+03 -0.34004567967E+01  0.24774897927E+03  0.00000000000E+00 0.  1.
         21    1    1    2  502  501 -0.47384572996E+01 -0.32295994709E+02  0.29465378777E+01  0.32774476918E+02  0.00000000000E+00 0. -1.
<scales pt_clust_4="550.00000" pt_clust_5="550.00000" pt_clust_6="32.64176"></scales>
<mgrwt>
<rscale>  0 0.30000000E+03</rscale>
<asrwt>  1 0.32641756E+02</asrwt>
<pdfrwt beam="1">  1        1 0.85306069E+00 0.30000000E+03</pdfrwt>
<pdfrwt beam="2">0</pdfrwt>
<totfact> 0.38558329E-04</totfact>
</mgrwt>
<clustering>
<clus scale="   32.642">  1  6  2 -1</clus>
<clus scale="  473.719">  4  5 -1 -1</clus>
<clus scale="  300.000">  1  4  2 -1</clus>
</clustering>
</event>
<event>
 6    1  0.1029244E-011  0.3000000E+03  0.7818608E-02  0.1093470E+00
          1   -1    0    0  502    0  0.00000000000E+00  0.00000000000E+00  0.24563128800E+03  0.24563128800E+03  0.00000000000E+00 0.  1.
         13   -1    0    0    0    0 -0.00000000000E+00 -0.00000000000E+00 -0.27500000000E+03  0.27500000000E+03  0.00000000000E+00 0.  1.
    9000005    2    1    2  501    0 -0.30472044288E+02  0.76442097594E+00 -0.32912734409E+02  0.48994432143E+03  0.48788631892E+03 0.  0.
         13    1    3    3    0    0  0.93552365615E+02  0.19592576723E+03  0.81555074276E+02  0.23192710389E+03  0.00000000000E+00 0.  1.
          3    1    3    3  501    0 -0.12402440990E+03 -0.19516134626E+03 -0.11446780868E+03  0.25801721754E+03  0.00000000000E+00 0.  1.
         21    1    1    2  502  501  0.30472044288E+02 -0.76442097594E+00  0.35440224110E+01  0.30686966571E+02  0.00000000000E+00 0. -1.
<scales pt_clust_4="550.00000" pt_clust_5="550.00000" pt_clust_6="30.48163"></scales>
<mgrwt>
<rscale>  0 0.30000000E+03</rscale>
<asrwt>  1 0.30481631E+02</asrwt>
<pdfrwt beam="1">  1        1 0.89320468E+00 0.30000000E+03</pdfrwt>
<pdfrwt beam="2">0</pdfrwt>
<totfact> 0.13569972E-04</totfact>
</mgrwt>
<clustering>
<clus scale="   30.482">  1  6  2 -1</clus>
<clus scale="  487.886">  4  5 -1 -1</clus>
<clus scale="  300.000">  1  4  2 -1</clus>
</clustering>
</event>
<event>
 6    1  0.1029244E-011  0.3000000E+03  0.7818608E-02  0.1093470E+00
          1   -1    0    0  502    0  0.00000000000E+00  0.00000000000E+00  0.22865131850E+03  0.22865131850E+03  0.00000000000E+00 0.  1.
         13   -1    0    0    0    0 -0.00000000000E+00 -0.00000000000E+00 -0.27500000000E+03  0.27500000000E+03  0.00000000000E+00 0.  1.
    9000005    2    1    2  501    0  0.31079225581E+02  0.60747023329E+00 -0.47984642816E+02  0.47252313750E+03  0.46905149210E+03 0.  0.
         13    1    3    3    0    0 -0.13574338080E+03  0.83249601764E+01 -0.20321191889E+03  0.24452127591E+03  0.00000000000E+00 0.  1.
          3    1    3    3  501    0  0.16682260639E+03 -0.77174899431E+01  0.15522727607E+03  0.22800186159E+03  0.00000000000E+00 0.  1.
         21    1    1    2  502  501 -0.31079225581E+02 -0.60747023329E+00  0.16359613139E+01  0.31128180997E+02  0.00000000000E+00 0.  1.
<scales pt_clust_4="550.00000" pt_clust_5="550.00000" pt_clust_6="31.08516"></scales>
<mgrwt>
<rscale>  0 0.30000000E+03</rscale>
<asrwt>  1 0.31085162E+02</asrwt>
<pdfrwt beam="1">  1        1 0.83145934E+00 0.30000000E+03</pdfrwt>
<pdfrwt beam="2">0</pdfrwt>
<totfact> 0.58829164E-04</totfact>
</mgrwt>
<clustering>
<clus scale="   31.085">  1  6  2 -1</clus>
<clus scale="  469.051">  4  5 -1 -1</clus>
<clus scale="  300.000">  1  4  2 -1</clus>
</clustering>
</event>
<event>
 6    1  0.1029244E-011  0.3000000E+03  0.7818608E-02  0.1093470E+00
          1   -1    0    0  502    0  0.00000000000E+00  0.00000000000E+00  0.23460728399E+03  0.23460728399E+03  0.00000000000E+00 0.  1.
         13   -1    0    0    0    0 -0.00000000000E+00 -0.00000000000E+00 -0.27500000000E+03  0.27500000000E+03  0.00000000000E+00 0.  1.
    9000005    2    1    2  501    0  0.32560369471E+02  0.13318055315E+02 -0.48301055154E+02  0.47355052200E+03  0.46976542731E+03 0.  0.
         13    1    3    3    0    0  0.14620568337E+03 -0.18679270047E+02 -0.22022083621E+03  0.26499478048E+03  0.00000000000E+00 0.  1.
          1    1    3    3  501    0 -0.11364531390E+03  0.31997325361E+02  0.17191978106E+03  0.20855574152E+03  0.00000000000E+00 0.  1.
         21    1    1    2  502  501 -0.32560369471E+02 -0.13318055315E+02  0.79083391454E+01  0.36056761994E+02  0.00000000000E+00 0. -1.
<scales pt_clust_4="550.00000" pt_clust_5="550.00000" pt_clust_6="35.17880"></scales>
<mgrwt>
<rscale>  0 0.30000000E+03</rscale>
<asrwt>  1 0.35178804E+02</asrwt>
<pdfrwt beam="1">  1        1 0.85311740E+00 0.30000000E+03</pdfrwt>
<pdfrwt beam="2">0</pdfrwt>
<totfact> 0.37971231E-04</totfact>
</mgrwt>
<clustering>
<clus scale="   35.179">  1  6  2 -1</clus>
<clus scale="  469.765">  4  5 -1 -1</clus>
<clus scale="  300.000">  1  4  2 -1</clus>
</clustering>
</event>
<event>
 6    1  0.1029244E-011  0.3000000E+03  0.7818608E-02  0.1093470E+00
          1   -1    0    0  502    0  0.00000000000E+00  0.00000000000E+00  0.22929270233E+03  0.22929270233E+03  0.00000000000E+00 0.  1.
         13   -1    0    0    0    0 -0.00000000000E+00 -0.00000000000E+00 -0.27500000000E+03  0.27500000000E+03  0.00000000000E+00 0.  1.
    9000005    2    1    2  501    0  0.31076810942E+02 -0.19828806564E+02 -0.47895821438E+02  0.46736386016E+03  0.46343933618E+03 0.  0.
         13    1    3    3    0    0 -0.23018135699E+02 -0.13453987389E+03  0.16831281709E+03  0.21670259951E+03  0.00000000000E+00 0.  1.
          3    1    3    3  501    0  0.54094946642E+02  0.11471106733E+03 -0.21620863852E+03  0.25066126065E+03  0.00000000000E+00 0.  1.
         21    1    1    2  502  501 -0.31076810942E+02  0.19828806564E+02  0.21885237728E+01  0.36928842175E+02  0.00000000000E+00 0. -1.
<scales pt_clust_4="550.00000" pt_clust_5="550.00000" pt_clust_6="36.86394"></scales>
<mgrwt>
<rscale>  0 0.30000000E+03</rscale>
<asrwt>  1 0.36863936E+02</asrwt>
<pdfrwt beam="1">  1        1 0.83379164E+00 0.30000000E+03</pdfrwt>
<pdfrwt beam="2">0</pdfrwt>
<totfact> 0.54686702E-04</totfact>
</mgrwt>
<clustering>
<clus scale="   36.864">  1  6  2 -1</clus>
<clus scale="  463.439">  4  5 -1 -1</clus>
<clus scale="  300.000">  1  4  2 -1</clus>
</clustering>
</event>
<event>
 6    1  0.1029244E-011  0.3000000E+03  0.7818608E-02  0.1093470E+00
          1   -1    0    0  502    0  0.00000000000E+00  0.00000000000E+00  0.23621922445E+03  0.23621922445E+03  0.00000000000E+00 0.  1.
         13   -1    0    0    0    0 -0.00000000000E+00 -0.00000000000E+00 -0.27500000000E+03  0.27500000000E+03  0.00000000000E+00 0.  1.
    9000005    2    1    2  501    0 -0.29292467431E+02 -0.24892765778E+02 -0.54541738094E+02  0.46967278806E+03  0.46490862351E+03 0.  0.
         13    1    3    3    0    0 -0.12763216258E+02  0.10181987627E+03 -0.23044109175E+03  0.25225638478E+03  0.00000000000E+00 0.  1.
          1    1    3    3  501    0 -0.16529251172E+02 -0.12671264205E+03  0.17589935366E+03  0.21741640328E+03  0.00000000000E+00 0.  1.
         21    1    1    2  502  501  0.29292467431E+02  0.24892765778E+02  0.15760962542E+02  0.41546436387E+02  0.00000000000E+00 0.  1.
<scales pt_clust_4="550.00000" pt_clust_5="550.00000" pt_clust_6="38.44084"></scales>
<mgrwt>
<rscale>  0 0.30000000E+03</rscale>
<asrwt>  1 0.38440843E+02</asrwt>
<pdfrwt beam="1">  1        1 0.85897900E+00 0.30000000E+03</pdfrwt>
<pdfrwt beam="2">0</pdfrwt>
<totfact> 0.32592064E-04</totfact>
</mgrwt>
<clustering>
<clus scale="   38.441">  1  6  2 -1</clus>
<clus scale="  464.909">  4  5 -1 -1</clus>
<clus scale="  300.000">  1  4  2 -1</clus>
</clustering>
</event>
<event>
 6    1  0.1029244E-011  0.3000000E+03  0.7818608E-02  0.1093470E+00
          1   -1    0    0  502    0  0.00000000000E+00  0.00000000000E+00  0.23656889399E+03  0.23656889399E+03  0.00000000000E+00 0.  1.
         13   -1    0    0    0    0 -0.00000000000E+00 -0.00000000000E+00 -0.27500000000E+03  0.27500000000E+03  0.00000000000E+00 0.  1.
    9000005    2    1    2  501    0  0.25007952333E+02  0.30621391330E+02 -0.55947146955E+02  0.46832679671E+03  0.46328915159E+03 0.  0.
         13    1    3    3    0    0  0.19400770613E+03  0.72455773780E+02 -0.16334800115E+03  0.26376390707E+03  0.00000000000E+00 0.  1.
          3    1    3    3  501    0 -0.16899975380E+03 -0.41834382450E+02  0.10740085419E+03  0.20456288964E+03  0.00000000000E+00 0.  1.
         21    1    1    2  502  501 -0.25007952333E+02 -0.30621391330E+02  0.17516040950E+02  0.43242097284E+02  0.00000000000E+00 0. -1.
<scales pt_clust_4="550.00000" pt_clust_5="550.00000" pt_clust_6="39.53565"></scales>
<mgrwt>
<rscale>  0 0.30000000E+03</rscale>
<asrwt>  1 0.39535646E+02</asrwt>
<pdfrwt beam="1">  1        1 0.86025052E+00 0.30000000E+03</pdfrwt>
<pdfrwt beam="2">0</pdfrwt>
<totfact> 0.31431236E-04</totfact>
</mgrwt>
<clustering>
<clus scale="   39.536">  1  6  2 -1</clus>
<clus scale="  463.289">  4  5 -1 -1</clus>
<clus scale="  300.000">  1  4  2 -1</clus>
</clustering>
</event>
<event>
 6    1  0.1029244E-011  0.3000000E+03  0.7818608E-02  0.1093470E+00
          1   -1    0    0  502    0  0.00000000000E+00  0.00000000000E+00  0.22430877857E+03  0.22430877857E+03  0.00000000000E+00 0.  1.
         13   -1    0    0    0    0 -0.00000000000E+00 -0.00000000000E+00 -0.27500000000E+03  0.27500000000E+03  0.00000000000E+00 0.  1.
    9000005    2    1    2  501    0  0.32243092334E+02 -0.51596412704E+00 -0.33274139979E+02  0.46265856782E+03  0.46033237857E+03 0.  0.
         13    1    3    3    0    0  0.23703200201E+03  0.39531332203E+02 -0.71070802675E+02  0.25059520186E+03  0.00000000000E+00 0.  1.
          1    1    3    3  501    0 -0.20478890968E+03 -0.40047296330E+02  0.37796662697E+02  0.21206336596E+03  0.00000000000E+00 0.  1.
         21    1    1    2  502  501 -0.32243092334E+02  0.51596412704E+00 -0.17417081450E+02  0.36650210756E+02  0.00000000000E+00 0. -1.
<scales pt_clust_4="550.00000" pt_clust_5="550.00000" pt_clust_6="32.24724"></scales>
<mgrwt>
<rscale>  0 0.30000000E+03</rscale>
<asrwt>  1 0.32247237E+02</asrwt>
<pdfrwt beam="1">  1        1 0.81566829E+00 0.30000000E+03</pdfrwt>
<pdfrwt beam="2">0</pdfrwt>
<totfact> 0.79840457E-04</totfact>
</mgrwt>
<clustering>
<clus scale="   32.247">  1  6  2 -1</clus>
<clus scale="  460.332">  4  5 -1 -1</clus>
<clus scale="  300.000">  1  4  2 -1</clus>
</clustering>
</event>
<event>
 6    1  0.1029244E-011  0.3000000E+03  0.7818608E-02  0.1093470E+00
          1   -1    0    0  502    0  0.00000000000E+00  0.00000000000E+00  0.24609865071E+03  0.24609865071E+03  0.00000000000E+00 0.  1.
         13   -1    0    0    0    0 -0.00000000000E+00 -0.00000000000E+00 -0.27500000000E+03  0.27500000000E+03  0.00000000000E+00 0.  1.
    9000005    2    1    2  501    0  0.32010755281E+02  0.25376992314E+01 -0.33924057639E+02  0.48859702044E+03  0.48635900148E+03 0.  0.
         13    1    3    3    0    0  0.72310265701E+02  0.36327883379E+01 -0.25438127020E+03  0.26448403034E+03  0.00000000000E+00 0.  1.
          3    1    3    3  501    0 -0.40299510419E+02 -0.10950891065E+01  0.22045721256E+03  0.22411299010E+03  0.00000000000E+00 0.  1.
         21    1    1    2  502  501 -0.32010755281E+02 -0.25376992314E+01  0.50227083465E+01  0.32501630270E+02  0.00000000000E+00 0. -1.
<scales pt_clust_4="550.00000" pt_clust_5="550.00000" pt_clust_6="32.11119"></scales>
<mgrwt>
<rscale>  0 0.30000000E+03</rscale>
<asrwt>  1 0.32111188E+02</asrwt>
<pdfrwt beam="1">  1        1 0.89490418E+00 0.30000000E+03</pdfrwt>
<pdfrwt beam="2">0</pdfrwt>
<totfact> 0.12847462E-04</totfact>
</mgrwt>
<clustering>
<clus scale="   32.111">  1  6  2 -1</clus>
<clus scale="  486.359">  4  5 -1 -1</clus>
<clus scale="  300.000">  1  4  2 -1</clus>
</clustering>
</event>
<event>
 6    1  0.1029244E-011  0.3000000E+03  0.7818608E-02  0.1093470E+00
          1   -1    0    0  502    0  0.00000000000E+00  0.00000000000E+00  0.23852930635E+03  0.23852930635E+03  0.00000000000E+00 0.  1.
         13   -1    0    0    0    0 -0.00000000000E+00 -0.00000000000E+00 -0.27500000000E+03  0.27500000000E+03  0.00000000000E+00 0.  1.
    9000005    2    1    2  501    0 -0.25495493094E+02 -0.25717506314E+02 -0.42457733930E+02  0.47682433461E+03  0.47354764978E+03 0.  0.
         13    1    3    3    0    0  0.24700011283E+02 -0.10104193120E+03 -0.23888264105E+03  0.26054649991E+03  0.00000000000E+00 0.  1.
          1    1    3    3  501    0 -0.50195504378E+02  0.75324424889E+02  0.19642490712E+03  0.21627783470E+03  0.00000000000E+00 0.  1.
         21    1    1    2  502  501  0.25495493094E+02  0.25717506314E+02  0.59870402836E+01  0.36704971741E+02  0.00000000000E+00 0. -1.
<scales pt_clust_4="550.00000" pt_clust_5="550.00000" pt_clust_6="36.21340"></scales>
<mgrwt>
<rscale>  0 0.30000000E+03</rscale>
<asrwt>  1 0.36213399E+02</asrwt>
<pdfrwt beam="1">  1        1 0.86737930E+00 0.30000000E+03</pdfrwt>
<pdfrwt beam="2">0</pdfrwt>
<totfact> 0.26782815E-04</totfact>
</mgrwt>
<clustering>
<clus scale="   36.213">  1  6  2 -1</clus>
<clus scale="  473.548">  4  5 -1 -1</clus>
<clus scale="  300.000">  1  4  2 -1</clus>
</clustering>
</event>
<event>
 6    1  0.1029244E-011  0.3000000E+03  0.7818608E-02  0.1093470E+00
          1   -1    0    0  502    0  0.00000000000E+00  0.00000000000E+00  0.23013317708E+03  0.23013317708E+03  0.00000000000E+00 0.  1.
         13   -1    0    0    0    0 -0.00000000000E+00 -0.00000000000E+00 -0.27500000000E+03  0.27500000000E+03  0.00000000000E+00 0.  1.
    9000005    2    1    2  501    0 -0.54963075183E+01  0.30691258546E+02 -0.37031442910E+02  0.47298421244E+03  0.47050034506E+03 0.  0.
         13    1    3    3    0    0  0.62613980414E+02  0.12019196641E+02 -0.24509997136E+03  0.25325672270E+03  0.00000000000E+00 0.  1.
          1    1    3    3  501    0 -0.68110287932E+02  0.18672061905E+02  0.20806852845E+03  0.21972748974E+03  0.00000000000E+00 0.  1.
         21    1    1    2  502  501  0.54963075183E+01 -0.30691258546E+02 -0.78353800119E+01  0.32148964640E+02  0.00000000000E+00 0. -1.
<scales pt_clust_4="550.00000" pt_clust_5="550.00000" pt_clust_6="31.17954"></scales>
<mgrwt>
<rscale>  0 0.30000000E+03</rscale>
<asrwt>  1 0.31179540E+02</asrwt>
<pdfrwt beam="1">  1        1 0.83684792E+00 0.30000000E+03</pdfrwt>
<pdfrwt beam="2">0</pdfrwt>
<totfact> 0.53611083E-04</totfact>
</mgrwt>
<clustering>
<clus scale="   31.180">  1  6  2 -1</clus>
<clus scale="  470.500">  4  5 -1 -1</clus>
<clus scale="  300.000">  1  4  2 -1</clus>
</clustering>
</event>
<event>
 6    1  0.1029244E-011  0.3000000E+03  0.7818608E-02  0.1093470E+00
          1   -1    0    0  502    0  0.00000000000E+00  0.00000000000E+00  0.23012391268E+03  0.23012391268E+03  0.00000000000E+00 0.  1.
         13   -1    0    0    0    0 -0.00000000000E+00 -0.00000000000E+00 -0.27500000000E+03  0.27500000000E+03  0.00000000000E+00 0.  1.
    9000005    2    1    2  501    0  0.18884758917E+02  0.23925760524E+02 -0.63853477380E+02  0.46921823807E+03  0.46385279155E+03 0.  0.
         13    1    3    3    0    0 -0.11775952594E+03 -0.52155830509E+02  0.15417813186E+03  0.20089408391E+03  0.00000000000E+00 0.  1.
          3    1    3    3  501    0  0.13664428485E+03  0.76081591033E+02 -0.21803160924E+03  0.26832415416E+03  0.00000000000E+00 0.  1.
         21    1    1    2  502  501 -0.18884758917E+02 -0.23925760524E+02  0.18977390063E+02  0.35905674616E+02  0.00000000000E+00 0. -1.
<scales pt_clust_4="550.00000" pt_clust_5="550.00000" pt_clust_6="30.48075"></scales>
<mgrwt>
<rscale>  0 0.30000000E+03</rscale>
<asrwt>  1 0.30480750E+02</asrwt>
<pdfrwt beam="1">  1        1 0.83681423E+00 0.30000000E+03</pdfrwt>
<pdfrwt beam="2">0</pdfrwt>
<totfact> 0.53874804E-04</totfact>
</mgrwt>
<clustering>
<clus scale="   30.481">  1  6  2 -1</clus>
<clus scale="  463.853">  4  5 -1 -1</clus>
<clus scale="  300.000">  1  4  2 -1</clus>
</clustering>
</event>
<event>
 6    1  0.1029244E-011  0.3000000E+03  0.7818608E-02  0.1093470E+00
          1   -1    0    0  502    0  0.00000000000E+00  0.00000000000E+00  0.24200376062E+03  0.24200376062E+03  0.00000000000E+00 0.  1.
         13   -1    0    0    0    0 -0.00000000000E+00 -0.00000000000E+00 -0.27500000000E+03  0.27500000000E+03  0.00000000000E+00 0.  1.
    9000005    2    1    2  501    0  0.44549824788E+02 -0.12321060599E+02 -0.60597996009E+01  0.46350546895E+03  0.46115518338E+03 0.  0.
         13    1    3    3    0    0 -0.75207099222E+02 -0.75329512744E+02  0.19440664422E+03  0.22164066996E+03  0.00000000000E+00 0.  1.
          3    1    3    3  501    0  0.11975692401E+03  0.63008452145E+02 -0.20046644383E+03  0.24186479899E+03  0.00000000000E+00 0.  1.
         21    1    1    2  502  501 -0.44549824788E+02  0.12321060599E+02 -0.26936439781E+02  0.53498291664E+02  0.00000000000E+00 0. -1.
<scales pt_clust_4="550.00000" pt_clust_5="550.00000" pt_clust_6="46.22226"></scales>
<mgrwt>
<rscale>  0 0.30000000E+03</rscale>
<asrwt>  1 0.46222263E+02</asrwt>
<pdfrwt beam="1">  1        1 0.88001367E+00 0.30000000E+03</pdfrwt>
<pdfrwt beam="2">0</pdfrwt>
<totfact> 0.18754422E-04</totfact>
</mgrwt>
<clustering>
<clus scale="   46.222">  1  6  2 -1</clus>
<clus scale="  461.155">  4  5 -1 -1</clus>
<clus scale="  300.000">  1  4  2 -1</clus>
</clustering>
</event>
<event>
 6    1  0.1029244E-011  0.3000000E+03  0.7818608E-02  0.1093470E+00
          1   -1    0    0  502    0  0.00000000000E+00  0.00000000000E+00  0.23844573018E+03  0.23844573018E+03  0.00000000000E+00 0.  1.
         13   -1    0    0    0    0 -0.00000000000E+00 -0.00000000000E+00 -0.27500000000E+03  0.27500000000E+03  0.00000000000E+00 0.  1.
    9000005    2    1    2  501    0  0.19642257610E+02  0.23362507693E+02 -0.46707951578E+02  0.48127863048E+03  0.47803332768E+03 0.  0.
         13    1    3    3    0    0  0.95002189322E+02 -0.21105166112E+03 -0.40538988911E+02  0.23497154989E+03  0.00000000000E+00 0.  1.
          1    1    3    3  501    0 -0.75359931712E+02  0.23441416881E+03 -0.61689626664E+01  0.24630708059E+03  0.00000000000E+00 0.  1.
         21    1    1    2  502  501 -0.19642257610E+02 -0.23362507693E+02  0.10153681758E+02  0.32167099698E+02  0.00000000000E+00 0. -1.
<scales pt_clust_4="550.00000" pt_clust_5="550.00000" pt_clust_6="30.52253"></scales>
<mgrwt>
<rscale>  0 0.30000000E+03</rscale>
<asrwt>  1 0.30522533E+02</asrwt>
<pdfrwt beam="1">  1        1 0.86707538E+00 0.30000000E+03</pdfrwt>
<pdfrwt beam="2">0</pdfrwt>
<totfact> 0.27865460E-04</totfact>
</mgrwt>
<clustering>
<clus scale="   30.523">  1  6  2 -1</clus>
<clus scale="  478.033">  4  5 -1 -1</clus>
<clus scale="  300.000">  1  4  2 -1</clus>
</clustering>
</event>
<event>
 6    1  0.1029244E-011  0.3000000E+03  0.7818608E-02  0.1093470E+00
          1   -1    0    0  502    0  0.00000000000E+00  0.00000000000E+00  0.23085656052E+03  0.23085656052E+03  0.00000000000E+00 0.  1.
         13   -1    0    0    0    0 -0.00000000000E+00 -0.00000000000E+00 -0.27500000000E+03  0.27500000000E+03  0.00000000000E+00 0.  1.
    9000005    2    1    2  501    0  0.32397727802E+02 -0.43975920715E+01 -0.63848482063E+02  0.46768274376E+03  0.46214885975E+03 0.  0.
         13    1    3    3    0    0  0.52898457524E+02  0.22589480293E+03 -0.27244462336E+02  0.23360002040E+03  0.00000000000E+00 0.  1.
          1    1    3    3  501    0 -0.20500729722E+02 -0.23029239501E+03 -0.36604019728E+02  0.23408272336E+03  0.00000000000E+00 0.  1.
         21    1    1    2  502  501 -0.32397727802E+02  0.43975920715E+01  0.19705042581E+02  0.38173816758E+02  0.00000000000E+00 0.  1.
<scales pt_clust_4="550.00000" pt_clust_5="550.00000" pt_clust_6="32.69483"></scales>
<mgrwt>
<rscale>  0 0.30000000E+03</rscale>
<asrwt>  1 0.32694825E+02</asrwt>
<pdfrwt beam="1">  1        1 0.83947840E+00 0.30000000E+03</pdfrwt>
<pdfrwt beam="2">0</pdfrwt>
<totfact> 0.50808234E-04</totfact>
</mgrwt>
<clustering>
<clus scale="   32.695">  1  6  2 -1</clus>
<clus scale="  462.149">  4  5 -1 -1</clus>
<clus scale="  300.000">  1  4  2 -1</clus>
</clustering>
</event>
<event>
 6    1  0.1029244E-011  0.3000000E+03  0.7818608E-02  0.1093470E+00
          1   -1    0    0  502    0  0.00000000000E+00  0.00000000000E+00  0.23076954757E+03  0.23076954757E+03  0.00000000000E+00 0.  1.
         13   -1    0    0    0    0 -0.00000000000E+00 -0.00000000000E+00 -0.27500000000E+03  0.27500000000E+03  0.00000000000E+00 0.  1.
    9000005    2    1    2  501    0 -0.30311862130E+02  0.42858467602E+01 -0.37833635008E+02  0.47449500935E+03  0.47199253436E+03 0.  0.
         13    1    3    3    0    0  0.16608405630E+03  0.14771629759E+03 -0.60188023062E+02  0.23027508865E+03  0.00000000000E+00 0.  1.
          1    1    3    3  501    0 -0.19639591843E+03 -0.14343045083E+03  0.22354388055E+02  0.24421992070E+03  0.00000000000E+00 0.  1.
         21    1    1    2  502  501  0.30311862130E+02 -0.42858467602E+01 -0.63968174198E+01  0.31274538227E+02  0.00000000000E+00 0. -1.
<scales pt_clust_4="550.00000" pt_clust_5="550.00000" pt_clust_6="30.61337"></scales>
<mgrwt>
<rscale>  0 0.30000000E+03</rscale>
<asrwt>  1 0.30613370E+02</asrwt>
<pdfrwt beam="1">  1        1 0.83916199E+00 0.30000000E+03</pdfrwt>
<pdfrwt beam="2">0</pdfrwt>
<totfact> 0.51732406E-04</totfact>
</mgrwt>
<clustering>
<clus scale="   30.613">  1  6  2 -1</clus>
<clus scale="  471.993">  4  5 -1 -1</clus>
<clus scale="  300.000">  1  4  2 -1</clus>
</clustering>
</event>
<event>
 6    1  0.1029244E-011  0.3000000E+03  0.7818608E-02  0.1093470E+00
          1   -1    0    0  502    0  0.00000000000E+00  0.00000000000E+00  0.25398266535E+03  0.25398266535E+03  0.00000000000E+00 0.  1.
         13   -1    0    0    0    0 -0.00000000000E+00 -0.00000000000E+00 -0.27500000000E+03  0.27500000000E+03  0.00000000000E+00 0.  1.
    9000005    2    1    2  501    0  0.13937240818E+02  0.28895224467E+02 -0.46319623350E+02  0.48812453896E+03  0.48486170951E+03 0.  0.
         13    1    3    3    0    0 -0.13895304864E+03  0.14372627478E+03  0.12130857940E+03  0.23383961003E+03  0.00000000000E+00 0.  1.
          1    1    3    3  501    0  0.15289028945E+03 -0.11483105031E+03 -0.16762820275E+03  0.25428492893E+03  0.00000000000E+00 0.  1.
         21    1    1    2  502  501 -0.13937240818E+02 -0.28895224467E+02  0.25302288700E+02  0.40858126389E+02  0.00000000000E+00 0. -1.
<scales pt_clust_4="550.00000" pt_clust_5="550.00000" pt_clust_6="32.08085"></scales>
<mgrwt>
<rscale>  0 0.30000000E+03</rscale>
<asrwt>  1 0.32080846E+02</asrwt>
<pdfrwt beam="1">  1        1 0.92357333E+00 0.30000000E+03</pdfrwt>
<pdfrwt beam="2">0</pdfrwt>
<totfact> 0.35684178E-05</totfact>
</mgrwt>
<clustering>
<clus scale="   32.081">  1  6  2 -1</clus>
<clus scale="  484.862">  4  5 -1 -1</clus>
<clus scale="  300.000">  1  4  2 -1</clus>
</clustering>
</event>
<event>
 6    1  0.1029244E-011  0.3000000E+03  0.7818608E-02  0.1093470E+00
          1   -1    0    0  502    0  0.00000000000E+00  0.00000000000E+00  0.23490848812E+03  0.23490848812E+03  0.00000000000E+00 0.  1.
         13   -1    0    0    0    0 -0.00000000000E+00 -0.00000000000E+00 -0.27500000000E+03  0.27500000000E+03  0.00000000000E+00 0.  1.
    9000005    2    1    2  501    0 -0.36969399907E+02  0.15783729606E+02 -0.45845617671E+02  0.46930094716E+03  0.46532321637E+03 0.  0.
         13    1    3    3    0    0  0.65048861929E+02  0.22418491597E+03 -0.36276765381E+01  0.23345961326E+03  0.00000000000E+00 0.  1.
          3    1    3    3  501    0 -0.10201826184E+03 -0.20840118636E+03 -0.42217941133E+02  0.23584133390E+03  0.00000000000E+00 0.  1.
         21    1    1    2  502  501  0.36969399907E+02 -0.15783729606E+02  0.57541057955E+01  0.40607540965E+02  0.00000000000E+00 0.  1.
<scales pt_clust_4="550.00000" pt_clust_5="550.00000" pt_clust_6="40.19779"></scales>
<mgrwt>
<rscale>  0 0.30000000E+03</rscale>
<asrwt>  1 0.40197794E+02</asrwt>
<pdfrwt beam="1">  1        1 0.85421268E+00 0.30000000E+03</pdfrwt>
<pdfrwt beam="2">0</pdfrwt>
<totfact> 0.36152746E-04</totfact>
</mgrwt>
<clustering>
<clus scale="   40.198">  1  6  2 -1</clus>
<clus scale="  465.323">  4  5 -1 -1</clus>
<clus scale="  300.000">  1  4  2 -1</clus>
</clustering>
</event>
<event>
 6    1  0.1029244E-011  0.3000000E+03  0.7818608E-02  0.1093470E+00
          1   -1    0    0  502    0  0.00000000000E+00  0.00000000000E+00  0.22241835172E+03  0.22241835172E+03  0.00000000000E+00 0.  1.
         13   -1    0    0    0    0 -0.00000000000E+00 -0.00000000000E+00 -0.27500000000E+03  0.27500000000E+03  0.00000000000E+00 0.  1.
    9000005    2    1    2  501    0 -0.12620137316E+02  0.33992440626E+02 -0.49524467086E+02  0.46103016349E+03  0.45692601690E+03 0.  0.
         13    1    3    3    0    0  0.77730893715E+01  0.14739004737E+03 -0.21415346750E+03  0.26008835926E+03  0.00000000000E+00 0.  1.
          3    1    3    3  501    0 -0.20393226688E+02 -0.11339760674E+03  0.16462900042E+03  0.20094180423E+03  0.00000000000E+00 0.  1.
         21    1    1    2  502  501  0.12620137316E+02 -0.33992440626E+02 -0.30571811949E+01  0.36388188227E+02  0.00000000000E+00 0.  1.
<scales pt_clust_4="550.00000" pt_clust_5="550.00000" pt_clust_6="36.25954"></scales>
<mgrwt>
<rscale>  0 0.30000000E+03</rscale>
<asrwt>  1 0.36259535E+02</asrwt>
<pdfrwt beam="1">  1        1 0.80879401E+00 0.30000000E+03</pdfrwt>
<pdfrwt beam="2">0</pdfrwt>
<totfact> 0.88531569E-04</totfact>
</mgrwt>
<clustering>
<clus scale="   36.260">  1  6  2 -1</clus>
<clus scale="  456.926">  4  5 -1 -1</clus>
<clus scale="  300.000">  1  4  2 -1</clus>
</clustering>
</event>
<event>
 6    1  0.1029244E-011  0.3000000E+03  0.7818608E-02  0.1093470E+00
          1   -1    0    0  502    0  0.00000000000E+00  0.00000000000E+00  0.23054210395E+03  0.23054210395E+03  0.00000000000E+00 0.  1.
         13   -1    0    0    0    0 -0.00000000000E+00 -0.00000000000E+00 -0.27500000000E+03  0.27500000000E+03  0.00000000000E+00 0.  1.
    9000005    2    1    2  501    0  0.26791827050E+02 -0.29098377271E+02 -0.38987451831E+02  0.46561162291E+03  0.46228740457E+03 0.  0.
         13    1    3    3    0    0 -0.38665247694E+02  0.19100532309E+03 -0.11185244330E+03  0.22469758320E+03  0.00000000000E+00 0.  1.
          1    1    3    3  501    0  0.65457074743E+02 -0.22010370036E+03  0.72864991464E+02  0.24091403970E+03  0.00000000000E+00 0.  1.
         21    1    1    2  502  501 -0.26791827050E+02  0.29098377271E+02 -0.54704442188E+01  0.39930481044E+02  0.00000000000E+00 0.  1.
<scales pt_clust_4="550.00000" pt_clust_5="550.00000" pt_clust_6="39.55400"></scales>
<mgrwt>
<rscale>  0 0.30000000E+03</rscale>
<asrwt>  1 0.39554003E+02</asrwt>
<pdfrwt beam="1">  1        1 0.83833492E+00 0.30000000E+03</pdfrwt>
<pdfrwt beam="2">0</pdfrwt>
<totfact> 0.50011700E-04</totfact>
</mgrwt>
<clustering>
<clus scale="   39.554">  1  6  2 -1</clus>
<clus scale="  462.287">  4  5 -1 -1</clus>
<clus scale="  300.000">  1  4  2 -1</clus>
</clustering>
</event>
<event>
 6    1  0.1029244E-011  0.3000000E+03  0.7818608E-02  0.1093470E+00
          1   -1    0    0  502    0  0.00000000000E+00  0.00000000000E+00  0.24239103546E+03  0.24239103546E+03  0.00000000000E+00 0.  1.
         13   -1    0    0    0    0 -0.00000000000E+00 -0.00000000000E+00 -0.27500000000E+03  0.27500000000E+03  0.00000000000E+00 0.  1.
    9000005    2    1    2  501    0 -0.15701214902E+02  0.41441371760E+02 -0.29192069121E+02  0.47294341891E+03  0.46995679072E+03 0.  0.
         13    1    3    3    0    0  0.14708222463E+03 -0.10876924139E+02 -0.18843560084E+03  0.23928949819E+03  0.00000000000E+00 0.  1.
          3    1    3    3  501    0 -0.16278343953E+03  0.52318295899E+02  0.15924353172E+03  0.23365392072E+03  0.00000000000E+00 0.  1.
         21    1    1    2  502  501  0.15701214902E+02 -0.41441371760E+02 -0.34168954182E+01  0.44447616551E+02  0.00000000000E+00 0.  1.
<scales pt_clust_4="550.00000" pt_clust_5="550.00000" pt_clust_6="44.31611"></scales>
<mgrwt>
<rscale>  0 0.30000000E+03</rscale>
<asrwt>  1 0.44316108E+02</asrwt>
<pdfrwt beam="1">  1        1 0.88142195E+00 0.30000000E+03</pdfrwt>
<pdfrwt beam="2">0</pdfrwt>
<totfact> 0.18140009E-04</totfact>
</mgrwt>
<clustering>
<clus scale="   44.316">  1  6  2 -1</clus>
<clus scale="  469.957">  4  5 -1 -1</clus>
<clus scale="  300.000">  1  4  2 -1</clus>
</clustering>
</event>
<event>
 6    1  0.1029244E-011  0.3000000E+03  0.7818608E-02  0.1093470E+00
          1   -1    0    0  502    0  0.00000000000E+00  0.00000000000E+00  0.24041938403E+03  0.24041938403E+03  0.00000000000E+00 0.  1.
         13   -1    0    0    0    0 -0.00000000000E+00 -0.00000000000E+00 -0.27500000000E+03  0.27500000000E+03  0.00000000000E+00 0.  1.
    9000005    2    1    2  501    0 -0.25910639746E+02  0.21036085410E+02 -0.51009343852E+02  0.47822017381E+03  0.47431919984E+03 0.  0.
         13    1    3    3    0    0 -0.52288765458E+02 -0.65777184234E+02 -0.24772497319E+03  0.26158825528E+03  0.00000000000E+00 0.  1.
          1    1    3    3  501    0  0.26378125712E+02  0.86813269644E+02  0.19671562933E+03  0.21663191853E+03  0.00000000000E+00 0.  1.
         21    1    1    2  502  501  0.25910639746E+02 -0.21036085410E+02  0.16428727886E+02  0.37199210225E+02  0.00000000000E+00 0.  1.
<scales pt_clust_4="550.00000" pt_clust_5="550.00000" pt_clust_6="33.37481"></scales>
<mgrwt>
<rscale>  0 0.30000000E+03</rscale>
<asrwt>  1 0.33374813E+02</asrwt>
<pdfrwt beam="1">  1        1 0.87425231E+00 0.30000000E+03</pdfrwt>
<pdfrwt beam="2">0</pdfrwt>
<totfact> 0.23108909E-04</totfact>
</mgrwt>
<clustering>
<clus scale="   33.375">  1  6  2 -1</clus>
<clus scale="  474.319">  4  5 -1 -1</clus>
<clus scale="  300.000">  1  4  2 -1</clus>
</clustering>
</event>
<event>
 6    1  0.1029244E-011  0.3000000E+03  0.7818608E-02  0.1093470E+00
          1   -1    0    0  502    0  0.00000000000E+00  0.00000000000E+00  0.24127356530E+03  0.24127356530E+03  0.00000000000E+00 0.  1.
         13   -1    0    0    0    0 -0.00000000000E+00 -0.00000000000E+00 -0.27500000000E+03  0.27500000000E+03  0.00000000000E+00 0.  1.
    9000005    2    1    2  501    0  0.41166463083E+01  0.38046698885E+02 -0.35054729306E+02  0.47798175887E+03  0.47515600564E+03 0.  0.
         13    1    3    3    0    0 -0.22437830836E+03  0.60499021845E+02 -0.76533936324E+02  0.24466957374E+03  0.00000000000E+00 0.  1.
          1    1    3    3  501    0  0.22849495467E+03 -0.22452322960E+02  0.41479207018E+02  0.23331218513E+03  0.00000000000E+00 0.  1.
         21    1    1    2  502  501 -0.41166463083E+01 -0.38046698885E+02  0.13282946045E+01  0.38291806427E+02  0.00000000000E+00 0. -1.
<scales pt_clust_4="550.00000" pt_clust_5="550.00000" pt_clust_6="38.26876"></scales>
<mgrwt>
<rscale>  0 0.30000000E+03</rscale>
<asrwt>  1 0.38268761E+02</asrwt>
<pdfrwt beam="1">  1        1 0.87735842E+00 0.30000000E+03</pdfrwt>
<pdfrwt beam="2">0</pdfrwt>
<totfact> 0.20854410E-04</totfact>
</mgrwt>
<clustering>
<clus scale="   38.269">  1  6  2 -1</clus>
<clus scale="  475.156">  4  5 -1 -1</clus>
<clus scale="  300.000">  1  4  2 -1</clus>
</clustering>
</event>
<event>
 6    1  0.1029244E-011  0.3000000E+03  0.7818608E-02  0.1093470E+00
          1   -1    0    0  502    0  0.00000000000E+00  0.00000000000E+00  0.22365931771E+03  0.22365931771E+03  0.00000000000E+00 0.  1.
         13   -1    0    0    0    0 -0.00000000000E+00 -0.00000000000E+00 -0.27500000000E+03  0.27500000000E+03  0.00000000000E+00 0.  1.
    9000005    2    1    2  501    0  0.82110095385E+00  0.30231513708E+02 -0.63845161571E+02  0.46593347731E+03  0.46054661218E+03 0.  0.
         13    1    3    3    0    0 -0.23941433118E+02  0.10828556094E+03 -0.24401136191E+03  0.26803078120E+03  0.00000000000E+00 0.  1.
          1    1    3    3  501    0  0.24762534072E+02 -0.78054047229E+02  0.18016620034E+03  0.19790269611E+03  0.00000000000E+00 0.  1.
         21    1    1    2  502  501 -0.82110095385E+00 -0.30231513708E+02  0.12504479281E+02  0.32725840401E+02  0.00000000000E+00 0. -1.
<scales pt_clust_4="550.00000" pt_clust_5="550.00000" pt_clust_6="30.24266"></scales>
<mgrwt>
<rscale>  0 0.30000000E+03</rscale>
<asrwt>  1 0.30242662E+02</asrwt>
<pdfrwt beam="1">  1        1 0.81330661E+00 0.30000000E+03</pdfrwt>
<pdfrwt beam="2">0</pdfrwt>
<totfact> 0.84442358E-04</totfact>
</mgrwt>
<clustering>
<clus scale="   30.243">  1  6  2 -1</clus>
<clus scale="  460.547">  4  5 -1 -1</clus>
<clus scale="  300.000">  1  4  2 -1</clus>
</clustering>
</event>
<event>
 6    1  0.1029244E-011  0.3000000E+03  0.7818608E-02  0.1093470E+00
          1   -1    0    0  502    0  0.00000000000E+00  0.00000000000E+00  0.22692425320E+03  0.22692425320E+03  0.00000000000E+00 0.  1.
         13   -1    0    0    0    0 -0.00000000000E+00 -0.00000000000E+00 -0.27500000000E+03  0.27500000000E+03  0.00000000000E+00 0.  1.
    9000005    2    1    2  501    0  0.11004347359E+01 -0.31380726210E+02 -0.50504281497E+02  0.47043046469E+03  0.46665638185E+03 0.  0.
         13    1    3    3    0    0 -0.18422302778E+03 -0.67466008265E+02  0.10796732682E+03  0.22393465542E+03  0.00000000000E+00 0.  1.
          1    1    3    3  501    0  0.18532346252E+03  0.36085282055E+02 -0.15847160832E+03  0.24649580927E+03  0.00000000000E+00 0.  1.
         21    1    1    2  502  501 -0.11004347359E+01  0.31380726210E+02  0.24285346964E+01  0.31493788512E+02  0.00000000000E+00 0.  1.
<scales pt_clust_4="550.00000" pt_clust_5="550.00000" pt_clust_6="31.40001"></scales>
<mgrwt>
<rscale>  0 0.30000000E+03</rscale>
<asrwt>  1 0.31400015E+02</asrwt>
<pdfrwt beam="1">  1        1 0.82517910E+00 0.30000000E+03</pdfrwt>
<pdfrwt beam="2">0</pdfrwt>
<totfact> 0.66425574E-04</totfact>
</mgrwt>
<clustering>
<clus scale="   31.400">  1  6  2 -1</clus>
<clus scale="  466.656">  4  5 -1 -1</clus>
<clus scale="  300.000">  1  4  2 -1</clus>
</clustering>
</event>
<event>
 6    1  0.1029244E-011  0.3000000E+03  0.7818608E-02  0.1093470E+00
          1   -1    0    0  502    0  0.00000000000E+00  0.00000000000E+00  0.23783627939E+03  0.23783627939E+03  0.00000000000E+00 0.  1.
         13   -1    0    0    0    0 -0.00000000000E+00 -0.00000000000E+00 -0.27500000000E+03  0.27500000000E+03  0.00000000000E+00 0.  1.
    9000005    2    1    2  501    0  0.25879614777E+02 -0.40627312405E+02 -0.24935946581E+02  0.46313867953E+03  0.45995141273E+03 0.  0.
         13    1    3    3    0    0 -0.22778091291E+02  0.15073842232E+03 -0.16224816149E+03  0.22263283521E+03  0.00000000000E+00 0.  1.
          1    1    3    3  501    0  0.48657706068E+02 -0.19136573473E+03  0.13731221491E+03  0.24050584432E+03  0.00000000000E+00 0.  1.
         21    1    1    2  502  501 -0.25879614777E+02  0.40627312405E+02 -0.12227774028E+02  0.49697599861E+02  0.00000000000E+00 0.  1.
<scales pt_clust_4="550.00000" pt_clust_5="550.00000" pt_clust_6="48.16986"></scales>
<mgrwt>
<rscale>  0 0.30000000E+03</rscale>
<asrwt>  1 0.48169859E+02</asrwt>
<pdfrwt beam="1">  1        1 0.86485920E+00 0.30000000E+03</pdfrwt>
<pdfrwt beam="2">0</pdfrwt>
<totfact> 0.27053832E-04</totfact>
</mgrwt>
<clustering>
<clus scale="   48.170">  1  6  2 -1</clus>
<clus scale="  459.951">  4  5 -1 -1</clus>
<clus scale="  300.000">  1  4  2 -1</clus>
</clustering>
</event>
<event>
 6    1  0.1029244E-011  0.3000000E+03  0.7818608E-02  0.1093470E+00
          1   -1    0    0  502    0  0.00000000000E+00  0.00000000000E+00  0.25372432301E+03  0.25372432301E+03  0.00000000000E+00 0.  1.
         13   -1    0    0    0    0 -0.00000000000E+00 -0.00000000000E+00 -0.27500000000E+03  0.27500000000E+03  0.00000000000E+00 0.  1.
    9000005    2    1    2  501    0 -0.28059676532E+02 -0.23936542459E+02 -0.58151675734E+02  0.47656933480E+03  0.47156803323E+03 0.  0.
         13    1    3    3    0    0  0.51431658393E+02  0.71940842079E+00  0.19938787977E+03  0.20591566146E+03  0.00000000000E+00 0.  1.
          3    1    3    3  501    0 -0.79491334925E+02 -0.24655950880E+02 -0.25753955551E+03  0.27065367334E+03  0.00000000000E+00 0.  1.
         21    1    1    2  502  501  0.28059676532E+02  0.23936542459E+02  0.36875998749E+02  0.52154988215E+02  0.00000000000E+00 0. -1.
<scales pt_clust_4="550.00000" pt_clust_5="550.00000" pt_clust_6="36.88229"></scales>
<mgrwt>
<rscale>  0 0.30000000E+03</rscale>
<asrwt>  1 0.36882293E+02</asrwt>
<pdfrwt beam="1">  1        1 0.92263390E+00 0.30000000E+03</pdfrwt>
<pdfrwt beam="2">0</pdfrwt>
<totfact> 0.36370191E-05</totfact>
</mgrwt>
<clustering>
<clus scale="   36.882">  1  6  2 -1</clus>
<clus scale="  471.568">  4  5 -1 -1</clus>
<clus scale="  300.000">  1  4  2 -1</clus>
</clustering>
</event>
<event>
 6    1  0.1029244E-011  0.3000000E+03  0.7818608E-02  0.1093470E+00
          1   -1    0    0  502    0  0.00000000000E+00  0.00000000000E+00  0.23154716197E+03  0.23154716197E+03  0.00000000000E+00 0.  1.
         13   -1    0    0    0    0 -0.00000000000E+00 -0.00000000000E+00 -0.27500000000E+03  0.27500000000E+03  0.00000000000E+00 0.  1.
    9000005    2    1    2  501    0 -0.30593912845E+02  0.99402425552E-01 -0.58409791619E+02  0.47249267850E+03  0.46786924465E+03 0.  0.
         13    1    3    3    0    0 -0.15729104673E+03 -0.48421616933E+02  0.15075132768E+03  0.22318398053E+03  0.00000000000E+00 0.  1.
          3    1    3    3  501    0  0.12669713388E+03  0.48521019359E+02 -0.20916111930E+03  0.24930869796E+03  0.00000000000E+00 0.  1.
         21    1    1    2  502  501  0.30593912845E+02 -0.99402425552E-01  0.14956953588E+02  0.34054483474E+02  0.00000000000E+00 0.  1.
<scales pt_clust_4="550.00000" pt_clust_5="550.00000" pt_clust_6="30.59407"></scales>
<mgrwt>
<rscale>  0 0.30000000E+03</rscale>
<asrwt>  1 0.30594074E+02</asrwt>
<pdfrwt beam="1">  1        1 0.84198968E+00 0.30000000E+03</pdfrwt>
<pdfrwt beam="2">0</pdfrwt>
<totfact> 0.49163007E-04</totfact>
</mgrwt>
<clustering>
<clus scale="   30.594">  1  6  2 -1</clus>
<clus scale="  467.869">  4  5 -1 -1</clus>
<clus scale="  300.000">  1  4  2 -1</clus>
</clustering>
</event>
<event>
 6    1  0.1029244E-011  0.3000000E+03  0.7818608E-02  0.1093470E+00
          1   -1    0    0  502    0  0.00000000000E+00  0.00000000000E+00  0.24508963201E+03  0.24508963201E+03  0.00000000000E+00 0.  1.
         13   -1    0    0    0    0 -0.00000000000E+00 -0.00000000000E+00 -0.27500000000E+03  0.27500000000E+03  0.00000000000E+00 0.  1.
    9000005    2    1    2  501    0  0.24830644964E+02  0.36974499074E+02 -0.64600984999E+02  0.46363510678E+03  0.45694698868E+03 0.  0.
         13    1    3    3    0    0 -0.12278008627E+03 -0.15444505027E+03 -0.96812442003E+02  0.21977459376E+03  0.00000000000E+00 0.  1.
          3    1    3    3  501    0  0.14761073123E+03  0.19141954934E+03  0.32211457004E+02  0.24386051301E+03  0.00000000000E+00 0.  1.
         21    1    1    2  502  501 -0.24830644964E+02 -0.36974499074E+02  0.34690617011E+02  0.56454525237E+02  0.00000000000E+00 0.  1.
<scales pt_clust_4="550.00000" pt_clust_5="550.00000" pt_clust_6="44.53846"></scales>
<mgrwt>
<rscale>  0 0.30000000E+03</rscale>
<asrwt>  1 0.44538461E+02</asrwt>
<pdfrwt beam="1">  1        1 0.89123503E+00 0.30000000E+03</pdfrwt>
<pdfrwt beam="2">0</pdfrwt>
<totfact> 0.13365960E-04</totfact>
</mgrwt>
<clustering>
<clus scale="   44.538">  1  6  2 -1</clus>
<clus scale="  456.947">  4  5 -1 -1</clus>
<clus scale="  300.000">  1  4  2 -1</clus>
</clustering>
</event>
<event>
 6    1  0.1029244E-011  0.3000000E+03  0.7818608E-02  0.1093470E+00
          1   -1    0    0  502    0  0.00000000000E+00  0.00000000000E+00  0.22760433906E+03  0.22760433906E+03  0.00000000000E+00 0.  1.
         13   -1    0    0    0    0 -0.00000000000E+00 -0.00000000000E+00 -0.27500000000E+03  0.27500000000E+03  0.00000000000E+00 0.  1.
    9000005    2    1    2  501    0 -0.27345361134E+02 -0.14677267104E+02 -0.40931334989E+02  0.47090294390E+03  0.46809295813E+03 0.  0.
         13    1    3    3    0    0 -0.21539916833E+03 -0.93019460613E+02 -0.10541777235E+03  0.25722038896E+03  0.00000000000E+00 0.  1.
          1    1    3    3  501    0  0.18805380719E+03  0.78342193509E+02  0.64486437366E+02  0.21368255494E+03  0.00000000000E+00 0.  1.
         21    1    1    2  502  501  0.27345361134E+02  0.14677267104E+02 -0.64643259479E+01  0.31701395161E+02  0.00000000000E+00 0.  1.
<scales pt_clust_4="550.00000" pt_clust_5="550.00000" pt_clust_6="31.03533"></scales>
<mgrwt>
<rscale>  0 0.30000000E+03</rscale>
<asrwt>  1 0.31035333E+02</asrwt>
<pdfrwt beam="1">  1        1 0.82765214E+00 0.30000000E+03</pdfrwt>
<pdfrwt beam="2">0</pdfrwt>
<totfact> 0.63306982E-04</totfact>
</mgrwt>
<clustering>
<clus scale="   31.035">  1  6  2 -1</clus>
<clus scale="  468.093">  4  5 -1 -1</clus>
<clus scale="  300.000">  1  4  2 -1</clus>
</clustering>
</event>
<event>
 6    1  0.1029244E-011  0.3000000E+03  0.7818608E-02  0.1093470E+00
          1   -1    0    0  502    0  0.00000000000E+00  0.00000000000E+00  0.24145514636E+03  0.24145514636E+03  0.00000000000E+00 0.  1.
         13   -1    0    0    0    0 -0.00000000000E+00 -0.00000000000E+00 -0.27500000000E+03  0.27500000000E+03  0.00000000000E+00 0.  1.
    9000005    2    1    2  501    0  0.25731144670E+02  0.19885349797E+02 -0.28845753621E+02  0.48359787192E+03  0.48164022391E+03 0.  0.
         13    1    3    3    0    0 -0.17237347014E+03 -0.39188862030E+02 -0.16028925716E+03  0.23862318847E+03  0.00000000000E+00 0.  1.
          1    1    3    3  501    0  0.19810461481E+03  0.59074211826E+02  0.13144350354E+03  0.24497468345E+03  0.00000000000E+00 0.  1.
         21    1    1    2  502  501 -0.25731144670E+02 -0.19885349797E+02 -0.46991000162E+01  0.32857274438E+02  0.00000000000E+00 0. -1.
<scales pt_clust_4="550.00000" pt_clust_5="550.00000" pt_clust_6="32.51953"></scales>
<mgrwt>
<rscale>  0 0.30000000E+03</rscale>
<asrwt>  1 0.32519533E+02</asrwt>
<pdfrwt beam="1">  1        1 0.87801871E+00 0.30000000E+03</pdfrwt>
<pdfrwt beam="2">0</pdfrwt>
<totfact> 0.21130263E-04</totfact>
</mgrwt>
<clustering>
<clus scale="   32.520">  1  6  2 -1</clus>
<clus scale="  481.640">  4  5 -1 -1</clus>
<clus scale="  300.000">  1  4  2 -1</clus>
</clustering>
</event>
<event>
 6    1  0.1029244E-011  0.3000000E+03  0.7818608E-02  0.1093470E+00
          1   -1    0    0  502    0  0.00000000000E+00  0.00000000000E+00  0.23031251164E+03  0.23031251164E+03  0.00000000000E+00 0.  1.
         13   -1    0    0    0    0 -0.00000000000E+00 -0.00000000000E+00 -0.27500000000E+03  0.27500000000E+03  0.00000000000E+00 0.  1.
    9000005    2    1    2  501    0 -0.85068607226E+01 -0.36880829694E+02 -0.39983684585E+02  0.46717213870E+03  0.46391653330E+03 0.  0.
         13    1    3    3    0    0  0.17990993413E+03 -0.67759115070E+01  0.12150332150E+03  0.21720164481E+03  0.00000000000E+00 0.  1.
          1    1    3    3  501    0 -0.18841679485E+03 -0.30104918187E+02 -0.16148700608E+03  0.24997049389E+03  0.00000000000E+00 0.  1.
         21    1    1    2  502  501  0.85068607226E+01  0.36880829694E+02 -0.47038037713E+01  0.38140372942E+02  0.00000000000E+00 0. -1.
<scales pt_clust_4="550.00000" pt_clust_5="550.00000" pt_clust_6="37.84922"></scales>
<mgrwt>
<rscale>  0 0.30000000E+03</rscale>
<asrwt>  1 0.37849223E+02</asrwt>
<pdfrwt beam="1">  1        1 0.83750004E+00 0.30000000E+03</pdfrwt>
<pdfrwt beam="2">0</pdfrwt>
<totfact> 0.51133552E-04</totfact>
</mgrwt>
<clustering>
<clus scale="   37.849">  1  6  2 -1</clus>
<clus scale="  463.917">  4  5 -1 -1</clus>
<clus scale="  300.000">  1  4  2 -1</clus>
</clustering>
</event>
<event>
 6    1  0.1029244E-011  0.3000000E+03  0.7818608E-02  0.1093470E+00
          1   -1    0    0  502    0  0.00000000000E+00  0.00000000000E+00  0.24439189178E+03  0.24439189178E+03  0.00000000000E+00 0.  1.
         13   -1    0    0    0    0 -0.00000000000E+00 -0.00000000000E+00 -0.27500000000E+03  0.27500000000E+03  0.00000000000E+00 0.  1.
    9000005    2    1    2  501    0  0.27971048537E+02 -0.26016086053E+02 -0.68176796810E+02  0.46581369983E+03  0.45921140125E+03 0.  0.
         13    1    3    3    0    0  0.30616881594E+01 -0.11902547900E+03 -0.24053113345E+03  0.26838715458E+03  0.00000000000E+00 0.  1.
          1    1    3    3  501    0  0.24909360377E+02  0.93009392951E+02  0.17235433664E+03  0.19742654525E+03  0.00000000000E+00 0.  1.
         21    1    1    2  502  501 -0.27971048537E+02  0.26016086053E+02  0.37568688585E+02  0.53578191942E+02  0.00000000000E+00 0. -1.
<scales pt_clust_4="550.00000" pt_clust_5="550.00000" pt_clust_6="38.19969"></scales>
<mgrwt>
<rscale>  0 0.30000000E+03</rscale>
<asrwt>  1 0.38199690E+02</asrwt>
<pdfrwt beam="1">  1        1 0.88869779E+00 0.30000000E+03</pdfrwt>
<pdfrwt beam="2">0</pdfrwt>
<totfact> 0.14850706E-04</totfact>
</mgrwt>
<clustering>
<clus scale="   38.200">  1  6  2 -1</clus>
<clus scale="  459.211">  4  5 -1 -1</clus>
<clus scale="  300.000">  1  4  2 -1</clus>
</clustering>
</event>
<event>
 6    1  0.1029244E-011  0.3000000E+03  0.7818608E-02  0.1093470E+00
          1   -1    0    0  502    0  0.00000000000E+00  0.00000000000E+00  0.23302992504E+03  0.23302992504E+03  0.00000000000E+00 0.  1.
         13   -1    0    0    0    0 -0.00000000000E+00 -0.00000000000E+00 -0.27500000000E+03  0.27500000000E+03  0.00000000000E+00 0.  1.
    9000005    2    1    2  501    0 -0.31639784832E+02  0.66704144842E+01 -0.65563466126E+02  0.46800220314E+03  0.46225742140E+03 0.  0.
         13    1    3    3    0    0  0.10663135565E+03  0.18593375594E+02  0.16591900764E+03  0.19810370194E+03  0.00000000000E+00 0.  1.
          1    1    3    3  501    0 -0.13827114048E+03 -0.11922961110E+02 -0.23148247377E+03  0.26989850121E+03  0.00000000000E+00 0.  1.
         21    1    1    2  502  501  0.31639784832E+02 -0.66704144842E+01  0.23593391163E+02  0.40027721895E+02  0.00000000000E+00 0.  1.
<scales pt_clust_4="550.00000" pt_clust_5="550.00000" pt_clust_6="32.33528"></scales>
<mgrwt>
<rscale>  0 0.30000000E+03</rscale>
<asrwt>  1 0.32335281E+02</asrwt>
<pdfrwt beam="1">  1        1 0.84738155E+00 0.30000000E+03</pdfrwt>
<pdfrwt beam="2">0</pdfrwt>
<totfact> 0.43675112E-04</totfact>
</mgrwt>
<clustering>
<clus scale="   32.335">  1  6  2 -1</clus>
<clus scale="  462.257">  4  5 -1 -1</clus>
<clus scale="  300.000">  1  4  2 -1</clus>
</clustering>
</event>
<event>
 6    1  0.1029244E-011  0.3000000E+03  0.7818608E-02  0.1093470E+00
          1   -1    0    0  502    0  0.00000000000E+00  0.00000000000E+00  0.23696878470E+03  0.23696878470E+03  0.00000000000E+00 0.  1.
         13   -1    0    0    0    0 -0.00000000000E+00 -0.00000000000E+00 -0.27500000000E+03  0.27500000000E+03  0.00000000000E+00 0.  1.
    9000005    2    1    2  501    0  0.18033345681E+00  0.39669283903E+02 -0.26272809406E+02  0.47059313105E+03  0.46818153516E+03 0.  0.
         13    1    3    3    0    0  0.21426670957E+03 -0.66466270393E+02 -0.51922012314E+02  0.23026915402E+03  0.00000000000E+00 0.  1.
          1    1    3    3  501    0 -0.21408637612E+03  0.10613555430E+03  0.25649202907E+02  0.24032397703E+03  0.00000000000E+00 0.  1.
         21    1    1    2  502  501 -0.18033345681E+00 -0.39669283903E+02 -0.11758405898E+02  0.41375653648E+02  0.00000000000E+00 0.  1.
<scales pt_clust_4="550.00000" pt_clust_5="550.00000" pt_clust_6="39.66971"></scales>
<mgrwt>
<rscale>  0 0.30000000E+03</rscale>
<asrwt>  1 0.39669714E+02</asrwt>
<pdfrwt beam="1">  1        1 0.86170467E+00 0.30000000E+03</pdfrwt>
<pdfrwt beam="2">0</pdfrwt>
<totfact> 0.30301706E-04</totfact>
</mgrwt>
<clustering>
<clus scale="   39.670">  1  6  2 -1</clus>
<clus scale="  468.182">  4  5 -1 -1</clus>
<clus scale="  300.000">  1  4  2 -1</clus>
</clustering>
</event>
<event>
 6    1  0.1029244E-011  0.3000000E+03  0.7818608E-02  0.1093470E+00
          1   -1    0    0  502    0  0.00000000000E+00  0.00000000000E+00  0.22891304176E+03  0.22891304176E+03  0.00000000000E+00 0.  1.
         13   -1    0    0    0    0 -0.00000000000E+00 -0.00000000000E+00 -0.27500000000E+03  0.27500000000E+03  0.00000000000E+00 0.  1.
    9000005    2    1    2  501    0 -0.21110325820E+02 -0.23803870052E+02 -0.54964939220E+02  0.47088141098E+03  0.46657891999E+03 0.  0.
         13    1    3    3    0    0 -0.13163019514E+03  0.15350342672E+03 -0.13932305614E+03  0.24556205785E+03  0.00000000000E+00 0.  1.
          1    1    3    3  501    0  0.11051986931E+03 -0.17730729677E+03  0.84358116921E+02  0.22531935312E+03  0.00000000000E+00 0.  1.
         21    1    1    2  502  501  0.21110325820E+02  0.23803870052E+02  0.88779809771E+01  0.33031630779E+02  0.00000000000E+00 0. -1.
<scales pt_clust_4="550.00000" pt_clust_5="550.00000" pt_clust_6="31.81619"></scales>
<mgrwt>
<rscale>  0 0.30000000E+03</rscale>
<asrwt>  1 0.31816192E+02</asrwt>
<pdfrwt beam="1">  1        1 0.83241106E+00 0.30000000E+03</pdfrwt>
<pdfrwt beam="2">0</pdfrwt>
<totfact> 0.57582167E-04</totfact>
</mgrwt>
<clustering>
<clus scale="   31.816">  1  6  2 -1</clus>
<clus scale="  466.579">  4  5 -1 -1</clus>
<clus scale="  300.000">  1  4  2 -1</clus>
</clustering>
</event>
<event>
 6    1  0.1029244E-011  0.3000000E+03  0.7818608E-02  0.1093470E+00
          1   -1    0    0  502    0  0.00000000000E+00  0.00000000000E+00  0.22309651208E+03  0.22309651208E+03  0.00000000000E+00 0.  1.
         13   -1    0    0    0    0 -0.00000000000E+00 -0.00000000000E+00 -0.27500000000E+03  0.27500000000E+03  0.00000000000E+00 0.  1.
    9000005    2    1    2  501    0  0.27022745692E+02  0.22222538116E+02 -0.49446103581E+02  0.46302360625E+03  0.45904452159E+03 0.  0.
         13    1    3    3    0    0 -0.40497364252E+02  0.23049936364E+03 -0.66834702868E+02  0.24338625815E+03  0.00000000000E+00 0.  1.
          3    1    3    3  501    0  0.67520109944E+02 -0.20827682552E+03  0.17388599287E+02  0.21963734810E+03  0.00000000000E+00 0.  1.
         21    1    1    2  502  501 -0.27022745692E+02 -0.22222538116E+02 -0.24573843415E+01  0.35072905823E+02  0.00000000000E+00 0.  1.
<scales pt_clust_4="550.00000" pt_clust_5="550.00000" pt_clust_6="34.98671"></scales>
<mgrwt>
<rscale>  0 0.30000000E+03</rscale>
<asrwt>  1 0.34986712E+02</asrwt>
<pdfrwt beam="1">  1        1 0.81126004E+00 0.30000000E+03</pdfrwt>
<pdfrwt beam="2">0</pdfrwt>
<totfact> 0.85262353E-04</totfact>
</mgrwt>
<clustering>
<clus scale="   34.987">  1  6  2 -1</clus>
<clus scale="  459.045">  4  5 -1 -1</clus>
<clus scale="  300.000">  1  4  2 -1</clus>
</clustering>
</event>
<event>
 6    1  0.1029244E-011  0.3000000E+03  0.7818608E-02  0.1093470E+00
          1   -1    0    0  502    0  0.00000000000E+00  0.00000000000E+00  0.24268434822E+03  0.24268434822E+03  0.00000000000E+00 0.  1.
         13   -1    0    0    0    0 -0.00000000000E+00 -0.00000000000E+00 -0.27500000000E+03  0.27500000000E+03  0.00000000000E+00 0.  1.
    9000005    2    1    2  501    0  0.38843982884E+02  0.17974937898E+02 -0.38929114406E+02  0.47437509648E+03  0.47083362540E+03 0.  0.
         13    1    3    3    0    0  0.28544277010E+02 -0.21468635620E+03 -0.92340717914E+02  0.23543962171E+03  0.00000000000E+00 0.  1.
          3    1    3    3  501    0  0.10299705873E+02  0.23266129410E+03  0.53411603508E+02  0.23893547476E+03  0.00000000000E+00 0.  1.
         21    1    1    2  502  501 -0.38843982884E+02 -0.17974937898E+02  0.66134626275E+01  0.43309251744E+02  0.00000000000E+00 0.  1.
<scales pt_clust_4="550.00000" pt_clust_5="550.00000" pt_clust_6="42.80132"></scales>
<mgrwt>
<rscale>  0 0.30000000E+03</rscale>
<asrwt>  1 0.42801325E+02</asrwt>
<pdfrwt beam="1">  1        1 0.88248854E+00 0.30000000E+03</pdfrwt>
<pdfrwt beam="2">0</pdfrwt>
<totfact> 0.17679756E-04</totfact>
</mgrwt>
<clustering>
<clus scale="   42.801">  1  6  2 -1</clus>
<clus scale="  470.834">  4  5 -1 -1</clus>
<clus scale="  300.000">  1  4  2 -1</clus>
</clustering>
</event>
<event>
 6    1  0.1029244E-011  0.3000000E+03  0.7818608E-02  0.1093470E+00
          1   -1    0    0  502    0  0.00000000000E+00  0.00000000000E+00  0.24023296840E+03  0.24023296840E+03  0.00000000000E+00 0.  1.
         13   -1    0    0    0    0 -0.00000000000E+00 -0.00000000000E+00 -0.27500000000E+03  0.27500000000E+03  0.00000000000E+00 0.  1.
    9000005    2    1    2  501    0 -0.40332980480E+02  0.90516382674E+01 -0.43653478143E+02  0.47295235344E+03  0.46911578635E+03 0.  0.
         13    1    3    3    0    0  0.66168577886E+02  0.12333879376E+03 -0.20509434222E+03  0.24830309695E+03  0.00000000000E+00 0.  1.
          3    1    3    3  501    0 -0.10650155837E+03 -0.11428715549E+03  0.16144086408E+03  0.22464925648E+03  0.00000000000E+00 0.  1.
         21    1    1    2  502  501  0.40332980480E+02 -0.90516382674E+01  0.88864465479E+01  0.42280614967E+02  0.00000000000E+00 0. -1.
<scales pt_clust_4="550.00000" pt_clust_5="550.00000" pt_clust_6="41.33620"></scales>
<mgrwt>
<rscale>  0 0.30000000E+03</rscale>
<asrwt>  1 0.41336200E+02</asrwt>
<pdfrwt beam="1">  1        1 0.87357443E+00 0.30000000E+03</pdfrwt>
<pdfrwt beam="2">0</pdfrwt>
<totfact> 0.22575532E-04</totfact>
</mgrwt>
<clustering>
<clus scale="   41.336">  1  6  2 -1</clus>
<clus scale="  469.116">  4  5 -1 -1</clus>
<clus scale="  300.000">  1  4  2 -1</clus>
</clustering>
</event>
<event>
 6    1  0.1029244E-011  0.3000000E+03  0.7818608E-02  0.1093470E+00
          1   -1    0    0  502    0  0.00000000000E+00  0.00000000000E+00  0.21992152213E+03  0.21992152213E+03  0.00000000000E+00 0.  1.
         13   -1    0    0    0    0 -0.00000000000E+00 -0.00000000000E+00 -0.27500000000E+03  0.27500000000E+03  0.00000000000E+00 0.  1.
    9000005    2    1    2  501    0  0.25791315905E+02  0.17576889216E+02 -0.55019051558E+02  0.46371026548E+03  0.45937563634E+03 0.  0.
         13    1    3    3    0    0  0.65836501662E+02  0.22797746171E+03 -0.74333250477E+02  0.24866362847E+03  0.00000000000E+00 0.  1.
          1    1    3    3  501    0 -0.40045185757E+02 -0.21040057249E+03  0.19314198920E+02  0.21504663701E+03  0.00000000000E+00 0.  1.
         21    1    1    2  502  501 -0.25791315905E+02 -0.17576889216E+02 -0.59426308036E-01  0.31211256657E+02  0.00000000000E+00 0.  1.
<scales pt_clust_4="550.00000" pt_clust_5="550.00000" pt_clust_6="31.21120"></scales>
<mgrwt>
<rscale>  0 0.30000000E+03</rscale>
<asrwt>  1 0.31211200E+02</asrwt>
<pdfrwt beam="1">  1        1 0.79971463E+00 0.30000000E+03</pdfrwt>
<pdfrwt beam="2">0</pdfrwt>
<totfact> 0.10647786E-03</totfact>
</mgrwt>
<clustering>
<clus scale="   31.211">  1  6  2 -1</clus>
<clus scale="  459.376">  4  5 -1 -1</clus>
<clus scale="  300.000">  1  4  2 -1</clus>
</clustering>
</event>
<event>
 6    1  0.1029244E-011  0.3000000E+03  0.7818608E-02  0.1093470E+00
          1   -1    0    0  502    0  0.00000000000E+00  0.00000000000E+00  0.25046454337E+03  0.25046454337E+03  0.00000000000E+00 0.  1.
         13   -1    0    0    0    0 -0.00000000000E+00 -0.00000000000E+00 -0.27500000000E+03  0.27500000000E+03  0.00000000000E+00 0.  1.
    9000005    2    1    2  501    0  0.38043382655E+02 -0.31448603278E+02 -0.49354539425E+02  0.47021691461E+03  0.46500727157E+03 0.  0.
         13    1    3    3    0    0 -0.17643051624E+03  0.11214153374E+03 -0.11691183422E+02  0.20938035824E+03  0.00000000000E+00 0.  1.
          3    1    3    3  501    0  0.21447389889E+03 -0.14359013702E+03 -0.37663356003E+02  0.26083655637E+03  0.00000000000E+00 0.  1.
         21    1    1    2  502  501 -0.38043382655E+02  0.31448603278E+02  0.24819082790E+02  0.55247628751E+02  0.00000000000E+00 0.  1.
<scales pt_clust_4="550.00000" pt_clust_5="550.00000" pt_clust_6="49.35903"></scales>
<mgrwt>
<rscale>  0 0.30000000E+03</rscale>
<asrwt>  1 0.49359028E+02</asrwt>
<pdfrwt beam="1">  1        1 0.91078016E+00 0.30000000E+03</pdfrwt>
<pdfrwt beam="2">0</pdfrwt>
<totfact> 0.64605423E-05</totfact>
</mgrwt>
<clustering>
<clus scale="   49.359">  1  6  2 -1</clus>
<clus scale="  465.007">  4  5 -1 -1</clus>
<clus scale="  300.000">  1  4  2 -1</clus>
</clustering>
</event>
<event>
 6    1  0.1029244E-011  0.3000000E+03  0.7818608E-02  0.1093470E+00
          1   -1    0    0  502    0  0.00000000000E+00  0.00000000000E+00  0.23690750228E+03  0.23690750228E+03  0.00000000000E+00 0.  1.
         13   -1    0    0    0    0 -0.00000000000E+00 -0.00000000000E+00 -0.27500000000E+03  0.27500000000E+03  0.00000000000E+00 0.  1.
    9000005    2    1    2  501    0  0.58176476536E+01  0.38017127927E+02 -0.64706339061E+02  0.46513738799E+03  0.45900624435E+03 0.  0.
         13    1    3    3    0    0 -0.56310885551E+02  0.15680926211E+03  0.14189915467E+03  0.21885024699E+03  0.00000000000E+00 0.  1.
          3    1    3    3  501    0  0.62128533205E+02 -0.11879213418E+03 -0.20660549373E+03  0.24628714099E+03  0.00000000000E+00 0.  1.
         21    1    1    2  502  501 -0.58176476536E+01 -0.38017127927E+02  0.26613841342E+02  0.46770114293E+02  0.00000000000E+00 0. -1.
<scales pt_clust_4="550.00000" pt_clust_5="550.00000" pt_clust_6="38.45968"></scales>
<mgrwt>
<rscale>  0 0.30000000E+03</rscale>
<asrwt>  1 0.38459681E+02</asrwt>
<pdfrwt beam="1">  1        1 0.86148183E+00 0.30000000E+03</pdfrwt>
<pdfrwt beam="2">0</pdfrwt>
<totfact> 0.30643302E-04</totfact>
</mgrwt>
<clustering>
<clus scale="   38.460">  1  6  2 -1</clus>
<clus scale="  459.006">  4  5 -1 -1</clus>
<clus scale="  300.000">  1  4  2 -1</clus>
</clustering>
</event>
<event>
 6    1  0.1029244E-011  0.3000000E+03  0.7818608E-02  0.1093470E+00
          1   -1    0    0  502    0  0.00000000000E+00  0.00000000000E+00  0.24125552974E+03  0.24125552974E+03  0.00000000000E+00 0.  1.
         13   -1    0    0    0    0 -0.00000000000E+00 -0.00000000000E+00 -0.27500000000E+03  0.27500000000E+03  0.00000000000E+00 0.  1.
    9000005    2    1    2  501    0  0.23105425411E+02  0.40885774579E+02 -0.29566709196E+02  0.46910724310E+03  0.46581316854E+03 0.  0.
         13    1    3    3    0    0  0.22866461191E+03  0.66009609333E+02 -0.88295262595E+02  0.25385197786E+03  0.00000000000E+00 0.  1.
          1    1    3    3  501    0 -0.20555918650E+03 -0.25123834754E+02  0.58728553399E+02  0.21525526524E+03  0.00000000000E+00 0.  1.
         21    1    1    2  502  501 -0.23105425411E+02 -0.40885774579E+02 -0.41777610592E+01  0.47148286648E+02  0.00000000000E+00 0. -1.
<scales pt_clust_4="550.00000" pt_clust_5="550.00000" pt_clust_6="46.96285"></scales>
<mgrwt>
<rscale>  0 0.30000000E+03</rscale>
<asrwt>  1 0.46962852E+02</asrwt>
<pdfrwt beam="1">  1        1 0.87729284E+00 0.30000000E+03</pdfrwt>
<pdfrwt beam="2">0</pdfrwt>
<totfact> 0.20131581E-04</totfact>
</mgrwt>
<clustering>
<clus scale="   46.963">  1  6  2 -1</clus>
<clus scale="  465.813">  4  5 -1 -1</clus>
<clus scale="  300.000">  1  4  2 -1</clus>
</clustering>
</event>
<event>
 6    1  0.1029244E-011  0.3000000E+03  0.7818608E-02  0.1093470E+00
          1   -1    0    0  502    0  0.00000000000E+00  0.00000000000E+00  0.22541654540E+03  0.22541654540E+03  0.00000000000E+00 0.  1.
         13   -1    0    0    0    0 -0.00000000000E+00 -0.00000000000E+00 -0.27500000000E+03  0.27500000000E+03  0.00000000000E+00 0.  1.
    9000005    2    1    2  501    0 -0.36520786722E+01  0.30649434599E+02 -0.67048587211E+02  0.46495168424E+03  0.45905536715E+03 0.  0.
         13    1    3    3    0    0  0.39207388600E+02  0.17096685784E+03 -0.20065716187E+03  0.26651488216E+03  0.00000000000E+00 0.  1.
          3    1    3    3  501    0 -0.42859467273E+02 -0.14031742324E+03  0.13360857466E+03  0.19843680209E+03  0.00000000000E+00 0.  1.
         21    1    1    2  502  501  0.36520786722E+01 -0.30649434599E+02  0.17465132615E+02  0.35464861161E+02  0.00000000000E+00 0. -1.
<scales pt_clust_4="550.00000" pt_clust_5="550.00000" pt_clust_6="30.86625"></scales>
<mgrwt>
<rscale>  0 0.30000000E+03</rscale>
<asrwt>  1 0.30866252E+02</asrwt>
<pdfrwt beam="1">  1        1 0.81969653E+00 0.30000000E+03</pdfrwt>
<pdfrwt beam="2">0</pdfrwt>
<totfact> 0.74518586E-04</totfact>
</mgrwt>
<clustering>
<clus scale="   30.866">  1  6  2 -1</clus>
<clus scale="  459.055">  4  5 -1 -1</clus>
<clus scale="  300.000">  1  4  2 -1</clus>
</clustering>
</event>
<event>
 6    1  0.1029244E-011  0.3000000E+03  0.7818608E-02  0.1093470E+00
          1   -1    0    0  502    0  0.00000000000E+00  0.00000000000E+00  0.22395955786E+03  0.22395955786E+03  0.00000000000E+00 0.  1.
         13   -1    0    0    0    0 -0.00000000000E+00 -0.00000000000E+00 -0.27500000000E+03  0.27500000000E+03  0.00000000000E+00 0.  1.
    9000005    2    1    2  501    0  0.10485033575E+02 -0.29782769177E+02 -0.54155784049E+02  0.46723173688E+03  0.46300723292E+03 0.  0.
         13    1    3    3    0    0  0.87102179302E+02  0.92617515884E+02 -0.21580783902E+03  0.25047518294E+03  0.00000000000E+00 0.  1.
          1    1    3    3  501    0 -0.76617145727E+02 -0.12240028506E+03  0.16165205497E+03  0.21675655394E+03  0.00000000000E+00 0.  1.
         21    1    1    2  502  501 -0.10485033575E+02  0.29782769177E+02  0.31153419116E+01  0.31727820980E+02  0.00000000000E+00 0.  1.
<scales pt_clust_4="550.00000" pt_clust_5="550.00000" pt_clust_6="31.57450"></scales>
<mgrwt>
<rscale>  0 0.30000000E+03</rscale>
<asrwt>  1 0.31574503E+02</asrwt>
<pdfrwt beam="1">  1        1 0.81439839E+00 0.30000000E+03</pdfrwt>
<pdfrwt beam="2">0</pdfrwt>
<totfact> 0.82079202E-04</totfact>
</mgrwt>
<clustering>
<clus scale="   31.575">  1  6  2 -1</clus>
<clus scale="  463.007">  4  5 -1 -1</clus>
<clus scale="  300.000">  1  4  2 -1</clus>
</clustering>
</event>
<event>
 6    1  0.1029244E-011  0.3000000E+03  0.7818608E-02  0.1093470E+00
          1   -1    0    0  502    0  0.00000000000E+00  0.00000000000E+00  0.22311097807E+03  0.22311097807E+03  0.00000000000E+00 0.  1.
         13   -1    0    0    0    0 -0.00000000000E+00 -0.00000000000E+00 -0.27500000000E+03  0.27500000000E+03  0.00000000000E+00 0.  1.
    9000005    2    1    2  501    0 -0.18899287531E+02 -0.30249804264E+02 -0.40903688637E+02  0.46078925149E+03  0.45758211156E+03 0.  0.
         13    1    3    3    0    0  0.40246558606E+02  0.87367724016E+02 -0.21907076253E+03  0.23925907229E+03  0.00000000000E+00 0.  1.
          1    1    3    3  501    0 -0.59145846137E+02 -0.11761752828E+03  0.17816707389E+03  0.22153017919E+03  0.00000000000E+00 0.  1.
         21    1    1    2  502  501  0.18899287531E+02  0.30249804264E+02 -0.10985333297E+02  0.37321726579E+02  0.00000000000E+00 0.  1.
<scales pt_clust_4="550.00000" pt_clust_5="550.00000" pt_clust_6="35.66840"></scales>
<mgrwt>
<rscale>  0 0.30000000E+03</rscale>
<asrwt>  1 0.35668403E+02</asrwt>
<pdfrwt beam="1">  1        1 0.81131265E+00 0.30000000E+03</pdfrwt>
<pdfrwt beam="2">0</pdfrwt>
<totfact> 0.84874844E-04</totfact>
</mgrwt>
<clustering>
<clus scale="   35.668">  1  6  2 -1</clus>
<clus scale="  457.582">  4  5 -1 -1</clus>
<clus scale="  300.000">  1  4  2 -1</clus>
</clustering>
</event>
<event>
 6    1  0.1029244E-011  0.3000000E+03  0.7818608E-02  0.1093470E+00
          1   -1    0    0  502    0  0.00000000000E+00  0.00000000000E+00  0.24209997386E+03  0.24209997386E+03  0.00000000000E+00 0.  1.
         13   -1    0    0    0    0 -0.00000000000E+00 -0.00000000000E+00 -0.27500000000E+03  0.27500000000E+03  0.00000000000E+00 0.  1.
    9000005    2    1    2  501    0  0.75188668207E+01  0.48425018079E+02 -0.38882743793E+02  0.46773086768E+03  0.46352861949E+03 0.  0.
         13    1    3    3    0    0 -0.19016014887E+03 -0.58462284440E+02 -0.11581668947E+03  0.23020040504E+03  0.00000000000E+00 0.  1.
          3    1    3    3  501    0  0.19767901569E+03  0.10688730252E+03  0.76933945675E+02  0.23753046264E+03  0.00000000000E+00 0.  1.
         21    1    1    2  502  501 -0.75188668207E+01 -0.48425018079E+02  0.59827176509E+01  0.49369106177E+02  0.00000000000E+00 0.  1.
<scales pt_clust_4="550.00000" pt_clust_5="550.00000" pt_clust_6="49.00526"></scales>
<mgrwt>
<rscale>  0 0.30000000E+03</rscale>
<asrwt>  1 0.49005262E+02</asrwt>
<pdfrwt beam="1">  1        1 0.88036354E+00 0.30000000E+03</pdfrwt>
<pdfrwt beam="2">0</pdfrwt>
<totfact> 0.18377071E-04</totfact>
</mgrwt>
<clustering>
<clus scale="   49.005">  1  6  2 -1</clus>
<clus scale="  463.529">  4  5 -1 -1</clus>
<clus scale="  300.000">  1  4  2 -1</clus>
</clustering>
</event>
<event>
 6    1  0.1029244E-011  0.3000000E+03  0.7818608E-02  0.1093470E+00
          1   -1    0    0  502    0  0.00000000000E+00  0.00000000000E+00  0.22843680425E+03  0.22843680425E+03  0.00000000000E+00 0.  1.
         13   -1    0    0    0    0 -0.00000000000E+00 -0.00000000000E+00 -0.27500000000E+03  0.27500000000E+03  0.00000000000E+00 0.  1.
    9000005    2    1    2  501    0 -0.32435692091E+01 -0.32371158269E+02 -0.54451977824E+02  0.46996076041E+03  0.46566048340E+03 0.  0.
         13    1    3    3    0    0 -0.19543948109E+02  0.19918938931E+03  0.62970862714E+02  0.20981827440E+03  0.00000000000E+00 0.  1.
          3    1    3    3  501    0  0.16300378900E+02 -0.23156054758E+03 -0.11742284054E+03  0.26014248601E+03  0.00000000000E+00 0.  1.
         21    1    1    2  502  501  0.32435692091E+01  0.32371158269E+02  0.78887820748E+01  0.33476043845E+02  0.00000000000E+00 0.  1.
<scales pt_clust_4="550.00000" pt_clust_5="550.00000" pt_clust_6="32.53325"></scales>
<mgrwt>
<rscale>  0 0.30000000E+03</rscale>
<asrwt>  1 0.32533254E+02</asrwt>
<pdfrwt beam="1">  1        1 0.83067929E+00 0.30000000E+03</pdfrwt>
<pdfrwt beam="2">0</pdfrwt>
<totfact> 0.59160730E-04</totfact>
</mgrwt>
<clustering>
<clus scale="   32.533">  1  6  2 -1</clus>
<clus scale="  465.660">  4  5 -1 -1</clus>
<clus scale="  300.000">  1  4  2 -1</clus>
</clustering>
</event>
<event>
 6    1  0.1029244E-011  0.3000000E+03  0.7818608E-02  0.1093470E+00
          1   -1    0    0  502    0  0.00000000000E+00  0.00000000000E+00  0.23418304307E+03  0.23418304307E+03  0.00000000000E+00 0.  1.
         13   -1    0    0    0    0 -0.00000000000E+00 -0.00000000000E+00 -0.27500000000E+03  0.27500000000E+03  0.00000000000E+00 0.  1.
    9000005    2    1    2  501    0 -0.91142772770E+00  0.33297902617E+02 -0.61554103702E+02  0.46994517520E+03  0.46470418439E+03 0.  0.
         13    1    3    3    0    0 -0.21943548131E+03  0.83452704572E+02 -0.71808084140E+02  0.24550495984E+03  0.00000000000E+00 0.  1.
          3    1    3    3  501    0  0.21852405358E+03 -0.50154801955E+02  0.10253980438E+02  0.22444021535E+03  0.00000000000E+00 0.  1.
         21    1    1    2  502  501  0.91142772770E+00 -0.33297902617E+02  0.20737146775E+02  0.39237867878E+02  0.00000000000E+00 0.  1.
<scales pt_clust_4="550.00000" pt_clust_5="550.00000" pt_clust_6="33.31037"></scales>
<mgrwt>
<rscale>  0 0.30000000E+03</rscale>
<asrwt>  1 0.33310374E+02</asrwt>
<pdfrwt beam="1">  1        1 0.85157470E+00 0.30000000E+03</pdfrwt>
<pdfrwt beam="2">0</pdfrwt>
<totfact> 0.39693299E-04</totfact>
</mgrwt>
<clustering>
<clus scale="   33.310">  1  6  2 -1</clus>
<clus scale="  464.704">  4  5 -1 -1</clus>
<clus scale="  300.000">  1  4  2 -1</clus>
</clustering>
</event>
<event>
 6    1  0.1029244E-011  0.3000000E+03  0.7818608E-02  0.1093470E+00
          1   -1    0    0  502    0  0.00000000000E+00  0.00000000000E+00  0.22139440191E+03  0.22139440191E+03  0.00000000000E+00 0.  1.
         13   -1    0    0    0    0 -0.00000000000E+00 -0.00000000000E+00 -0.27500000000E+03  0.27500000000E+03  0.00000000000E+00 0.  1.
    9000005    2    1    2  501    0 -0.33445228484E+02 -0.12619510316E+02 -0.47977069349E+02  0.46020717094E+03  0.45630144166E+03 0.  0.
         13    1    3    3    0    0  0.19571317658E+03 -0.90354906531E+02 -0.16690219845E+02  0.21620874187E+03  0.00000000000E+00 0.  1.
          3    1    3    3  501    0 -0.22915840507E+03  0.77735396215E+02 -0.31286849504E+02  0.24399842907E+03  0.00000000000E+00 0.  1.
         21    1    1    2  502  501  0.33445228484E+02  0.12619510316E+02 -0.56285287426E+01  0.36187230964E+02  0.00000000000E+00 0.  1.
<scales pt_clust_4="550.00000" pt_clust_5="550.00000" pt_clust_6="35.74684"></scales>
<mgrwt>
<rscale>  0 0.30000000E+03</rscale>
<asrwt>  1 0.35746841E+02</asrwt>
<pdfrwt beam="1">  1        1 0.80507055E+00 0.30000000E+03</pdfrwt>
<pdfrwt beam="2">0</pdfrwt>
<totfact> 0.94803239E-04</totfact>
</mgrwt>
<clustering>
<clus scale="   35.747">  1  6  2 -1</clus>
<clus scale="  456.301">  4  5 -1 -1</clus>
<clus scale="  300.000">  1  4  2 -1</clus>
</clustering>
</event>
<event>
 6    1  0.1029244E-011  0.3000000E+03  0.7818608E-02  0.1093470E+00
          1   -1    0    0  502    0  0.00000000000E+00  0.00000000000E+00  0.25031505920E+03  0.25031505920E+03  0.00000000000E+00 0.  1.
         13   -1    0    0    0    0 -0.00000000000E+00 -0.00000000000E+00 -0.27500000000E+03  0.27500000000E+03  0.00000000000E+00 0.  1.
    9000005    2    1    2  501    0  0.15226453758E+02 -0.34719278053E+02  0.10250729581E+02  0.47376145382E+03  0.47213087646E+03 0.  0.
         13    1    3    3    0    0  0.90811407629E+02 -0.21151029540E+03  0.11226966365E+03  0.25610114055E+03  0.00000000000E+00 0.  1.
          3    1    3    3  501    0 -0.75584953871E+02  0.17679101735E+03 -0.10201893407E+03  0.21766031327E+03  0.00000000000E+00 0.  1.
         21    1    1    2  502  501 -0.15226453758E+02  0.34719278053E+02 -0.34935670380E+02  0.51553605378E+02  0.00000000000E+00 0. -1.
<scales pt_clust_4="550.00000" pt_clust_5="550.00000" pt_clust_6="37.91140"></scales>
<mgrwt>
<rscale>  0 0.30000000E+03</rscale>
<asrwt>  1 0.37911405E+02</asrwt>
<pdfrwt beam="1">  1        1 0.91023658E+00 0.30000000E+03</pdfrwt>
<pdfrwt beam="2">0</pdfrwt>
<totfact> 0.69865774E-05</totfact>
</mgrwt>
<clustering>
<clus scale="   37.911">  1  6  2 -1</clus>
<clus scale="  472.131">  4  5 -1 -1</clus>
<clus scale="  300.000">  1  4  2 -1</clus>
</clustering>
</event>
<event>
 6    1  0.1029244E-011  0.3000000E+03  0.7818608E-02  0.1093470E+00
          1   -1    0    0  502    0  0.00000000000E+00  0.00000000000E+00  0.24262896796E+03  0.24262896796E+03  0.00000000000E+00 0.  1.
         13   -1    0    0    0    0 -0.00000000000E+00 -0.00000000000E+00 -0.27500000000E+03  0.27500000000E+03  0.00000000000E+00 0.  1.
    9000005    2    1    2  501    0  0.13851830566E+02  0.26621872061E+02 -0.54154942240E+02  0.48054614140E+03  0.47654091006E+03 0.  0.
         13    1    3    3    0    0 -0.11909668470E+03 -0.13790329525E+03  0.10995916876E+03  0.21282001302E+03  0.00000000000E+00 0.  1.
          3    1    3    3  501    0  0.13294851526E+03  0.16452516731E+03 -0.16411411100E+03  0.26772612838E+03  0.00000000000E+00 0.  1.
         21    1    1    2  502  501 -0.13851830566E+02 -0.26621872061E+02  0.21783910198E+02  0.37082826559E+02  0.00000000000E+00 0.  1.
<scales pt_clust_4="550.00000" pt_clust_5="550.00000" pt_clust_6="30.00995"></scales>
<mgrwt>
<rscale>  0 0.30000000E+03</rscale>
<asrwt>  1 0.30009953E+02</asrwt>
<pdfrwt beam="1">  1        1 0.88228716E+00 0.30000000E+03</pdfrwt>
<pdfrwt beam="2">0</pdfrwt>
<totfact> 0.19003996E-04</totfact>
</mgrwt>
<clustering>
<clus scale="   30.010">  1  6  2 -1</clus>
<clus scale="  476.541">  4  5 -1 -1</clus>
<clus scale="  300.000">  1  4  2 -1</clus>
</clustering>
</event>
<event>
 6    1  0.1029244E-011  0.3000000E+03  0.7818608E-02  0.1093470E+00
          1   -1    0    0  502    0  0.00000000000E+00  0.00000000000E+00  0.23124075164E+03  0.23124075164E+03  0.00000000000E+00 0.  1.
         13   -1    0    0    0    0 -0.00000000000E+00 -0.00000000000E+00 -0.27500000000E+03  0.27500000000E+03  0.00000000000E+00 0.  1.
    9000005    2    1    2  501    0  0.31613608599E+02  0.30458343761E+01 -0.39939966415E+02  0.47425193687E+03  0.47149867588E+03 0.  0.
         13    1    3    3    0    0 -0.80657105325E+02  0.17843373859E+03  0.10340351491E+03  0.22144176345E+03  0.00000000000E+00 0.  1.
          3    1    3    3  501    0  0.11227071392E+03 -0.17538790421E+03 -0.14334348132E+03  0.25281017342E+03  0.00000000000E+00 0.  1.
         21    1    1    2  502  501 -0.31613608599E+02 -0.30458343761E+01 -0.38192819433E+01  0.31988814768E+02  0.00000000000E+00 0. -1.
<scales pt_clust_4="550.00000" pt_clust_5="550.00000" pt_clust_6="31.76001"></scales>
<mgrwt>
<rscale>  0 0.30000000E+03</rscale>
<asrwt>  1 0.31760012E+02</asrwt>
<pdfrwt beam="1">  1        1 0.84087546E+00 0.30000000E+03</pdfrwt>
<pdfrwt beam="2">0</pdfrwt>
<totfact> 0.49835731E-04</totfact>
</mgrwt>
<clustering>
<clus scale="   31.760">  1  6  2 -1</clus>
<clus scale="  471.499">  4  5 -1 -1</clus>
<clus scale="  300.000">  1  4  2 -1</clus>
</clustering>
</event>
<event>
 6    1  0.1029244E-011  0.3000000E+03  0.7818608E-02  0.1093470E+00
          1   -1    0    0  502    0  0.00000000000E+00  0.00000000000E+00  0.21988166909E+03  0.21988166909E+03  0.00000000000E+00 0.  1.
         13   -1    0    0    0    0 -0.00000000000E+00 -0.00000000000E+00 -0.27500000000E+03  0.27500000000E+03  0.00000000000E+00 0.  1.
    9000005    2    1    2  501    0  0.29201011774E+02 -0.11464194035E+02 -0.64266337451E+02  0.46220426318E+03  0.45663825063E+03 0.  0.
         13    1    3    3    0    0  0.99218829285E+02 -0.21732296855E+03 -0.51503848713E+02  0.24438963803E+03  0.00000000000E+00 0.  1.
          3    1    3    3  501    0 -0.70017817511E+02  0.20585877451E+03 -0.12762488739E+02  0.21781462515E+03  0.00000000000E+00 0.  1.
         21    1    1    2  502  501 -0.29201011774E+02  0.11464194035E+02  0.91480065450E+01  0.32677405914E+02  0.00000000000E+00 0.  1.
<scales pt_clust_4="550.00000" pt_clust_5="550.00000" pt_clust_6="31.37080"></scales>
<mgrwt>
<rscale>  0 0.30000000E+03</rscale>
<asrwt>  1 0.31370796E+02</asrwt>
<pdfrwt beam="1">  1        1 0.79956971E+00 0.30000000E+03</pdfrwt>
<pdfrwt beam="2">0</pdfrwt>
<totfact> 0.10663116E-03</totfact>
</mgrwt>
<clustering>
<clus scale="   31.371">  1  6  2 -1</clus>
<clus scale="  456.638">  4  5 -1 -1</clus>
<clus scale="  300.000">  1  4  2 -1</clus>
</clustering>
</event>
<event>
 6    1  0.1029244E-011  0.3000000E+03  0.7818608E-02  0.1093470E+00
          1   -1    0    0  502    0  0.00000000000E+00  0.00000000000E+00  0.24008667510E+03  0.24008667510E+03  0.00000000000E+00 0.  1.
         13   -1    0    0    0    0 -0.00000000000E+00 -0.00000000000E+00 -0.27500000000E+03  0.27500000000E+03  0.00000000000E+00 0.  1.
    9000005    2    1    2  501    0  0.44844209047E+01  0.38033789123E+02 -0.22389105587E+02  0.47479355888E+03  0.47271658777E+03 0.  0.
         13    1    3    3    0    0  0.75129589005E+02  0.16935825115E+03  0.15605861258E+03  0.24224153842E+03  0.00000000000E+00 0.  1.
          3    1    3    3  501    0 -0.70645168100E+02 -0.13132446202E+03 -0.17844771816E+03  0.23255202046E+03  0.00000000000E+00 0.  1.
         21    1    1    2  502  501 -0.44844209047E+01 -0.38033789123E+02 -0.12524219310E+02  0.40293116226E+02  0.00000000000E+00 0. -1.
<scales pt_clust_4="550.00000" pt_clust_5="550.00000" pt_clust_6="38.29727"></scales>
<mgrwt>
<rscale>  0 0.30000000E+03</rscale>
<asrwt>  1 0.38297266E+02</asrwt>
<pdfrwt beam="1">  1        1 0.87304245E+00 0.30000000E+03</pdfrwt>
<pdfrwt beam="2">0</pdfrwt>
<totfact> 0.23183818E-04</totfact>
</mgrwt>
<clustering>
<clus scale="   38.297">  1  6  2 -1</clus>
<clus scale="  472.717">  4  5 -1 -1</clus>
<clus scale="  300.000">  1  4  2 -1</clus>
</clustering>
</event>
<event>
 6    1  0.1029244E-011  0.3000000E+03  0.7818608E-02  0.1093470E+00
          1   -1    0    0  502    0  0.00000000000E+00  0.00000000000E+00  0.22480544975E+03  0.22480544975E+03  0.00000000000E+00 0.  1.
         13   -1    0    0    0    0 -0.00000000000E+00 -0.00000000000E+00 -0.27500000000E+03  0.27500000000E+03  0.00000000000E+00 0.  1.
    9000005    2    1    2  501    0  0.14044718762E+01 -0.30770245016E+02 -0.56823387543E+02  0.46829795853E+03  0.46381601963E+03 0.  0.
         13    1    3    3    0    0  0.85845069136E+02  0.18996603811E+03  0.41105453410E+02  0.21247618650E+03  0.00000000000E+00 0.  1.
          3    1    3    3  501    0 -0.84440597260E+02 -0.22073628312E+03 -0.97928840953E+02  0.25582177203E+03  0.00000000000E+00 0.  1.
         21    1    1    2  502  501 -0.14044718762E+01  0.30770245016E+02  0.66288372963E+01  0.31507491228E+02  0.00000000000E+00 0.  1.
<scales pt_clust_4="550.00000" pt_clust_5="550.00000" pt_clust_6="30.80228"></scales>
<mgrwt>
<rscale>  0 0.30000000E+03</rscale>
<asrwt>  1 0.30802281E+02</asrwt>
<pdfrwt beam="1">  1        1 0.81747436E+00 0.30000000E+03</pdfrwt>
<pdfrwt beam="2">0</pdfrwt>
<totfact> 0.77842010E-04</totfact>
</mgrwt>
<clustering>
<clus scale="   30.802">  1  6  2 -1</clus>
<clus scale="  463.816">  4  5 -1 -1</clus>
<clus scale="  300.000">  1  4  2 -1</clus>
</clustering>
</event>
<event>
 6    1  0.1029244E-011  0.3000000E+03  0.7818608E-02  0.1093470E+00
          1   -1    0    0  502    0  0.00000000000E+00  0.00000000000E+00  0.22219942713E+03  0.22219942713E+03  0.00000000000E+00 0.  1.
         13   -1    0    0    0    0 -0.00000000000E+00 -0.00000000000E+00 -0.27500000000E+03  0.27500000000E+03  0.00000000000E+00 0.  1.
    9000005    2    1    2  501    0  0.30009429735E+02 -0.13012527268E+02 -0.49552151225E+02  0.46432931940E+03  0.46051754519E+03 0.  0.
         13    1    3    3    0    0  0.19773056667E+03 -0.99163556244E+02  0.80367345389E+02  0.23535016059E+03  0.00000000000E+00 0.  1.
          3    1    3    3  501    0 -0.16772113694E+03  0.86151028976E+02 -0.12991949661E+03  0.22897915881E+03  0.00000000000E+00 0.  1.
         21    1    1    2  502  501 -0.30009429735E+02  0.13012527268E+02 -0.32484216454E+01  0.32870107729E+02  0.00000000000E+00 0.  1.
<scales pt_clust_4="550.00000" pt_clust_5="550.00000" pt_clust_6="32.70920"></scales>
<mgrwt>
<rscale>  0 0.30000000E+03</rscale>
<asrwt>  1 0.32709200E+02</asrwt>
<pdfrwt beam="1">  1        1 0.80799792E+00 0.30000000E+03</pdfrwt>
<pdfrwt beam="2">0</pdfrwt>
<totfact> 0.91547399E-04</totfact>
</mgrwt>
<clustering>
<clus scale="   32.709">  1  6  2 -1</clus>
<clus scale="  460.518">  4  5 -1 -1</clus>
<clus scale="  300.000">  1  4  2 -1</clus>
</clustering>
</event>
<event>
 6    1  0.1029244E-011  0.3000000E+03  0.7818608E-02  0.1093470E+00
          1   -1    0    0  502    0  0.00000000000E+00  0.00000000000E+00  0.24590520744E+03  0.24590520744E+03  0.00000000000E+00 0.  1.
         13   -1    0    0    0    0 -0.00000000000E+00 -0.00000000000E+00 -0.27500000000E+03  0.27500000000E+03  0.00000000000E+00 0.  1.
    9000005    2    1    2  501    0 -0.30509918433E+01 -0.34546249408E+02 -0.47405283983E+02  0.48168753291E+03  0.47809294756E+03 0.  0.
         13    1    3    3    0    0  0.10432092082E+03 -0.20986905407E+03 -0.12045083004E+03  0.26350764094E+03  0.00000000000E+00 0.  1.
          3    1    3    3  501    0 -0.10737191266E+03  0.17532280466E+03  0.73045546056E+02  0.21817989197E+03  0.00000000000E+00 0.  1.
         21    1    1    2  502  501  0.30509918433E+01  0.34546249408E+02  0.18310491421E+02  0.39217674529E+02  0.00000000000E+00 0.  1.
<scales pt_clust_4="550.00000" pt_clust_5="550.00000" pt_clust_6="34.68071"></scales>
<mgrwt>
<rscale>  0 0.30000000E+03</rscale>
<asrwt>  1 0.34680714E+02</asrwt>
<pdfrwt beam="1">  1        1 0.89420075E+00 0.30000000E+03</pdfrwt>
<pdfrwt beam="2">0</pdfrwt>
<totfact> 0.12896161E-04</totfact>
</mgrwt>
<clustering>
<clus scale="   34.681">  1  6  2 -1</clus>
<clus scale="  478.093">  4  5 -1 -1</clus>
<clus scale="  300.000">  1  4  2 -1</clus>
</clustering>
</event>
<event>
 6    1  0.1029244E-011  0.3000000E+03  0.7818608E-02  0.1093470E+00
          1   -1    0    0  502    0  0.00000000000E+00  0.00000000000E+00  0.22576210100E+03  0.22576210100E+03  0.00000000000E+00 0.  1.
         13   -1    0    0    0    0 -0.00000000000E+00 -0.00000000000E+00 -0.27500000000E+03  0.27500000000E+03  0.00000000000E+00 0.  1.
    9000005    2    1    2  501    0 -0.29995225740E+02 -0.13025533044E+02 -0.63327144220E+02  0.46515472945E+03  0.45966206832E+03 0.  0.
         13    1    3    3    0    0 -0.17268316477E+03 -0.36795076894E+02 -0.19955629801E+03  0.26645087568E+03  0.00000000000E+00 0.  1.
          1    1    3    3  501    0  0.14268793903E+03  0.23769543850E+02  0.13622915379E+03  0.19870385376E+03  0.00000000000E+00 0.  1.
         21    1    1    2  502  501  0.29995225740E+02  0.13025533044E+02  0.14089245222E+02  0.35607371557E+02  0.00000000000E+00 0.  1.
<scales pt_clust_4="550.00000" pt_clust_5="550.00000" pt_clust_6="32.70135"></scales>
<mgrwt>
<rscale>  0 0.30000000E+03</rscale>
<asrwt>  1 0.32701347E+02</asrwt>
<pdfrwt beam="1">  1        1 0.82095309E+00 0.30000000E+03</pdfrwt>
<pdfrwt beam="2">0</pdfrwt>
<totfact> 0.71871893E-04</totfact>
</mgrwt>
<clustering>
<clus scale="   32.701">  1  6  2 -1</clus>
<clus scale="  459.662">  4  5 -1 -1</clus>
<clus scale="  300.000">  1  4  2 -1</clus>
</clustering>
</event>
<event>
 6    1  0.1029244E-011  0.3000000E+03  0.7818608E-02  0.1093470E+00
          1   -1    0    0  502    0  0.00000000000E+00  0.00000000000E+00  0.24256123070E+03  0.24256123070E+03  0.00000000000E+00 0.  1.
         13   -1    0    0    0    0 -0.00000000000E+00 -0.00000000000E+00 -0.27500000000E+03  0.27500000000E+03  0.00000000000E+00 0.  1.
    9000005    2    1    2  501    0  0.51334532722E+02 -0.84158939172E+01 -0.24471673653E+02  0.46493484822E+03  0.46136697840E+03 0.  0.
         13    1    3    3    0    0  0.24686808380E+02 -0.16978932923E+03  0.14847427805E+03  0.22689747921E+03  0.00000000000E+00 0.  1.
          3    1    3    3  501    0  0.26647724342E+02  0.16137343531E+03 -0.17294595170E+03  0.23803736901E+03  0.00000000000E+00 0.  1.
         21    1    1    2  502  501 -0.51334532722E+02  0.84158939172E+01 -0.79670956423E+01  0.52626382483E+02  0.00000000000E+00 0.  1.
<scales pt_clust_4="550.00000" pt_clust_5="550.00000" pt_clust_6="52.01984"></scales>
<mgrwt>
<rscale>  0 0.30000000E+03</rscale>
<asrwt>  1 0.52019845E+02</asrwt>
<pdfrwt beam="1">  1        1 0.88204084E+00 0.30000000E+03</pdfrwt>
<pdfrwt beam="2">0</pdfrwt>
<totfact> 0.17311542E-04</totfact>
</mgrwt>
<clustering>
<clus scale="   52.020">  1  6  2 -1</clus>
<clus scale="  461.367">  4  5 -1 -1</clus>
<clus scale="  300.000">  1  4  2 -1</clus>
</clustering>
</event>
<event>
 6    1  0.1029244E-011  0.3000000E+03  0.7818608E-02  0.1093470E+00
          1   -1    0    0  502    0  0.00000000000E+00  0.00000000000E+00  0.23523266480E+03  0.23523266480E+03  0.00000000000E+00 0.  1.
         13   -1    0    0    0    0 -0.00000000000E+00 -0.00000000000E+00 -0.27500000000E+03  0.27500000000E+03  0.00000000000E+00 0.  1.
    9000005    2    1    2  501    0 -0.32320908884E+02  0.11429928168E+02 -0.55729970608E+02  0.47241613220E+03  0.46786310810E+03 0.  0.
         13    1    3    3    0    0  0.28000650501E+02  0.15506593334E+03 -0.20371525722E+03  0.25754492062E+03  0.00000000000E+00 0.  1.
          3    1    3    3  501    0 -0.60321559385E+02 -0.14363600517E+03  0.14798528662E+03  0.21487121157E+03  0.00000000000E+00 0.  1.
         21    1    1    2  502  501  0.32320908884E+02 -0.11429928168E+02  0.15962635406E+02  0.37816532603E+02  0.00000000000E+00 0.  1.
<scales pt_clust_4="550.00000" pt_clust_5="550.00000" pt_clust_6="34.28242"></scales>
<mgrwt>
<rscale>  0 0.30000000E+03</rscale>
<asrwt>  1 0.34282421E+02</asrwt>
<pdfrwt beam="1">  1        1 0.85539151E+00 0.30000000E+03</pdfrwt>
<pdfrwt beam="2">0</pdfrwt>
<totfact> 0.36248657E-04</totfact>
</mgrwt>
<clustering>
<clus scale="   34.282">  1  6  2 -1</clus>
<clus scale="  467.863">  4  5 -1 -1</clus>
<clus scale="  300.000">  1  4  2 -1</clus>
</clustering>
</event>
<event>
 6    1  0.1029244E-011  0.3000000E+03  0.7818608E-02  0.1093470E+00
          1   -1    0    0  502    0  0.00000000000E+00  0.00000000000E+00  0.26465016305E+03  0.26465016305E+03  0.00000000000E+00 0.  1.
         13   -1    0    0    0    0 -0.00000000000E+00 -0.00000000000E+00 -0.27500000000E+03  0.27500000000E+03  0.00000000000E+00 0.  1.
    9000005    2    1    2  501    0  0.23739708208E+02 -0.20876687515E+02 -0.28460890957E+02  0.50321638607E+03  0.50141529601E+03 0.  0.
         13    1    3    3    0    0  0.80055966938E+02  0.53821414572E+02  0.21865352142E+03  0.23898758323E+03  0.00000000000E+00 0.  1.
          1    1    3    3  501    0 -0.56316258730E+02 -0.74698102087E+02 -0.24711441237E+03  0.26422880285E+03  0.00000000000E+00 0.  1.
         21    1    1    2  502  501 -0.23739708208E+02  0.20876687515E+02  0.18111054003E+02  0.36433776972E+02  0.00000000000E+00 0. -1.
<scales pt_clust_4="550.00000" pt_clust_5="550.00000" pt_clust_6="31.61344"></scales>
<mgrwt>
<rscale>  0 0.30000000E+03</rscale>
<asrwt>  1 0.31613444E+02</asrwt>
<pdfrwt beam="1">  1        1 0.96236423E+00 0.30000000E+03</pdfrwt>
<pdfrwt beam="2">0</pdfrwt>
<totfact> 0.68775336E-06</totfact>
</mgrwt>
<clustering>
<clus scale="   31.613">  1  6  2 -1</clus>
<clus scale="  501.415">  4  5 -1 -1</clus>
<clus scale="  300.000">  1  4  2 -1</clus>
</clustering>
</event>
<event>
 6    1  0.1029244E-011  0.3000000E+03  0.7818608E-02  0.1093470E+00
          1   -1    0    0  502    0  0.00000000000E+00  0.00000000000E+00  0.21957238772E+03  0.21957238772E+03  0.00000000000E+00 0.  1.
         13   -1    0    0    0    0 -0.00000000000E+00 -0.00000000000E+00 -0.27500000000E+03  0.27500000000E+03  0.00000000000E+00 0.  1.
    9000005    2    1    2  501    0 -0.31241151620E+02 -0.40359464074E+01 -0.58941040656E+02  0.46287629021E+03  0.45802632605E+03 0.  0.
         13    1    3    3    0    0  0.15968596119E+03 -0.37521652345E+02  0.11668753853E+03  0.20130440195E+03  0.00000000000E+00 0.  1.
          1    1    3    3  501    0 -0.19092711281E+03  0.33485705938E+02 -0.17562857918E+03  0.26157188827E+03  0.00000000000E+00 0.  1.
         21    1    1    2  502  501  0.31241151620E+02  0.40359464074E+01  0.35134283728E+01  0.31696097502E+02  0.00000000000E+00 0. -1.
<scales pt_clust_4="550.00000" pt_clust_5="550.00000" pt_clust_6="31.50077"></scales>
<mgrwt>
<rscale>  0 0.30000000E+03</rscale>
<asrwt>  1 0.31500769E+02</asrwt>
<pdfrwt beam="1">  1        1 0.79844505E+00 0.30000000E+03</pdfrwt>
<pdfrwt beam="2">0</pdfrwt>
<totfact> 0.10856352E-03</totfact>
</mgrwt>
<clustering>
<clus scale="   31.501">  1  6  2 -1</clus>
<clus scale="  458.026">  4  5 -1 -1</clus>
<clus scale="  300.000">  1  4  2 -1</clus>
</clustering>
</event>
<event>
 6    1  0.1029244E-011  0.3000000E+03  0.7818608E-02  0.1093470E+00
          1   -1    0    0  502    0  0.00000000000E+00  0.00000000000E+00  0.24958203482E+03  0.24958203482E+03  0.00000000000E+00 0.  1.
         13   -1    0    0    0    0 -0.00000000000E+00 -0.00000000000E+00 -0.27500000000E+03  0.27500000000E+03  0.00000000000E+00 0.  1.
    9000005    2    1    2  501    0  0.29840274825E+02 -0.26109229733E+02 -0.33391851222E+02  0.48413803975E+03  0.48135485032E+03 0.  0.
         13    1    3    3    0    0 -0.72268004771E+02 -0.23232815790E+03  0.30770491378E+02  0.24524653026E+03  0.00000000000E+00 0.  1.
          3    1    3    3  501    0  0.10210827960E+03  0.20621892817E+03 -0.64162342600E+02  0.23889150949E+03  0.00000000000E+00 0.  1.
         21    1    1    2  502  501 -0.29840274825E+02  0.26109229733E+02  0.79738860450E+01  0.40443995073E+02  0.00000000000E+00 0. -1.
<scales pt_clust_4="550.00000" pt_clust_5="550.00000" pt_clust_6="39.65014"></scales>
<mgrwt>
<rscale>  0 0.30000000E+03</rscale>
<asrwt>  1 0.39650143E+02</asrwt>
<pdfrwt beam="1">  1        1 0.90757104E+00 0.30000000E+03</pdfrwt>
<pdfrwt beam="2">0</pdfrwt>
<totfact> 0.79996339E-05</totfact>
</mgrwt>
<clustering>
<clus scale="   39.650">  1  6  2 -1</clus>
<clus scale="  481.355">  4  5 -1 -1</clus>
<clus scale="  300.000">  1  4  2 -1</clus>
</clustering>
</event>
<event>
 6    1  0.1029244E-011  0.3000000E+03  0.7818608E-02  0.1093470E+00
          1   -1    0    0  502    0  0.00000000000E+00  0.00000000000E+00  0.23572672145E+03  0.23572672145E+03  0.00000000000E+00 0.  1.
         13   -1    0    0    0    0 -0.00000000000E+00 -0.00000000000E+00 -0.27500000000E+03  0.27500000000E+03  0.00000000000E+00 0.  1.
    9000005    2    1    2  501    0 -0.73497924386E+01  0.40209313579E+02 -0.29746119926E+02  0.46875559925E+03  0.46602164309E+03 0.  0.
         13    1    3    3    0    0 -0.13327056018E+03  0.13200701043E+03  0.14317577635E+03  0.23597922779E+03  0.00000000000E+00 0.  1.
          1    1    3    3  501    0  0.12592076775E+03 -0.91797696853E+02 -0.17292189628E+03  0.23277637146E+03  0.00000000000E+00 0.  1.
         21    1    1    2  502  501  0.73497924386E+01 -0.40209313579E+02 -0.95271586201E+01  0.41971122201E+02  0.00000000000E+00 0.  1.
<scales pt_clust_4="550.00000" pt_clust_5="550.00000" pt_clust_6="40.87554"></scales>
<mgrwt>
<rscale>  0 0.30000000E+03</rscale>
<asrwt>  1 0.40875543E+02</asrwt>
<pdfrwt beam="1">  1        1 0.85718808E+00 0.30000000E+03</pdfrwt>
<pdfrwt beam="2">0</pdfrwt>
<totfact> 0.33646100E-04</totfact>
</mgrwt>
<clustering>
<clus scale="   40.876">  1  6  2 -1</clus>
<clus scale="  466.022">  4  5 -1 -1</clus>
<clus scale="  300.000">  1  4  2 -1</clus>
</clustering>
</event>
<event>
 6    1  0.1029244E-011  0.3000000E+03  0.7818608E-02  0.1093470E+00
          1   -1    0    0  502    0  0.00000000000E+00  0.00000000000E+00  0.22266684466E+03  0.22266684466E+03  0.00000000000E+00 0.  1.
         13   -1    0    0    0    0 -0.00000000000E+00 -0.00000000000E+00 -0.27500000000E+03  0.27500000000E+03  0.00000000000E+00 0.  1.
    9000005    2    1    2  501    0 -0.27564052094E+02 -0.21694439910E+02 -0.53474519974E+02  0.46257085622E+03  0.45812863592E+03 0.  0.
         13    1    3    3    0    0 -0.22531853734E+03  0.57059065528E+02  0.29122218890E+02  0.23424833801E+03  0.00000000000E+00 0.  1.
          1    1    3    3  501    0  0.19775448524E+03 -0.78753505438E+02 -0.82596738864E+02  0.22832251821E+03  0.00000000000E+00 0.  1.
         21    1    1    2  502  501  0.27564052094E+02  0.21694439910E+02  0.11413646298E+01  0.35095988433E+02  0.00000000000E+00 0.  1.
<scales pt_clust_4="550.00000" pt_clust_5="550.00000" pt_clust_6="35.07742"></scales>
<mgrwt>
<rscale>  0 0.30000000E+03</rscale>
<asrwt>  1 0.35077424E+02</asrwt>
<pdfrwt beam="1">  1        1 0.80969762E+00 0.30000000E+03</pdfrwt>
<pdfrwt beam="2">0</pdfrwt>
<totfact> 0.87652832E-04</totfact>
</mgrwt>
<clustering>
<clus scale="   35.077">  1  6  2 -1</clus>
<clus scale="  458.129">  4  5 -1 -1</clus>
<clus scale="  300.000">  1  4  2 -1</clus>
</clustering>
</event>
<event>
 6    1  0.1029244E-011  0.3000000E+03  0.7818608E-02  0.1093470E+00
          1   -1    0    0  502    0  0.00000000000E+00  0.00000000000E+00  0.23143155309E+03  0.23143155309E+03  0.00000000000E+00 0.  1.
         13   -1    0    0    0    0 -0.00000000000E+00 -0.00000000000E+00 -0.27500000000E+03  0.27500000000E+03  0.00000000000E+00 0.  1.
    9000005    2    1    2  501    0  0.53413802254E+01 -0.30262671529E+02 -0.67739078921E+02  0.46733450611E+03  0.46137685048E+03 0.  0.
         13    1    3    3    0    0 -0.12200766442E+03 -0.83180987337E+02  0.14942816322E+03  0.21008027703E+03  0.00000000000E+00 0.  1.
          1    1    3    3  501    0  0.12734904465E+03  0.52918315808E+02 -0.21716724214E+03  0.25725422908E+03  0.00000000000E+00 0.  1.
         21    1    1    2  502  501 -0.53413802254E+01  0.30262671529E+02  0.24170632010E+02  0.39097046980E+02  0.00000000000E+00 0.  1.
<scales pt_clust_4="550.00000" pt_clust_5="550.00000" pt_clust_6="30.73043"></scales>
<mgrwt>
<rscale>  0 0.30000000E+03</rscale>
<asrwt>  1 0.30730435E+02</asrwt>
<pdfrwt beam="1">  1        1 0.84156928E+00 0.30000000E+03</pdfrwt>
<pdfrwt beam="2">0</pdfrwt>
<totfact> 0.49512636E-04</totfact>
</mgrwt>
<clustering>
<clus scale="   30.730">  1  6  2 -1</clus>
<clus scale="  461.377">  4  5 -1 -1</clus>
<clus scale="  300.000">  1  4  2 -1</clus>
</clustering>
</event>
<event>
 6    1  0.1029244E-011  0.3000000E+03  0.7818608E-02  0.1093470E+00
          1   -1    0    0  502    0  0.00000000000E+00  0.00000000000E+00  0.24644798488E+03  0.24644798488E+03  0.00000000000E+00 0.  1.
         13   -1    0    0    0    0 -0.00000000000E+00 -0.00000000000E+00 -0.27500000000E+03  0.27500000000E+03  0.00000000000E+00 0.  1.
    9000005    2    1    2  501    0  0.12123609479E+02 -0.40246291065E+02 -0.13949314819E+02  0.47695096580E+03  0.47489040266E+03 0.  0.
         13    1    3    3    0    0 -0.44409907313E+02 -0.90263006940E+01  0.22495363928E+03  0.22947299143E+03  0.00000000000E+00 0.  1.
          3    1    3    3  501    0  0.56533516792E+02 -0.31219990371E+02 -0.23890295410E+03  0.24747797437E+03  0.00000000000E+00 0.  1.
         21    1    1    2  502  501 -0.12123609479E+02  0.40246291065E+02 -0.14602700300E+02  0.44497019084E+02  0.00000000000E+00 0. -1.
<scales pt_clust_4="550.00000" pt_clust_5="550.00000" pt_clust_6="42.03270"></scales>
<mgrwt>
<rscale>  0 0.30000000E+03</rscale>
<asrwt>  1 0.42032697E+02</asrwt>
<pdfrwt beam="1">  1        1 0.89617449E+00 0.30000000E+03</pdfrwt>
<pdfrwt beam="2">0</pdfrwt>
<totfact> 0.11829147E-04</totfact>
</mgrwt>
<clustering>
<clus scale="   42.033">  1  6  2 -1</clus>
<clus scale="  474.890">  4  5 -1 -1</clus>
<clus scale="  300.000">  1  4  2 -1</clus>
</clustering>
</event>
<event>
 6    1  0.1029244E-011  0.3000000E+03  0.7818608E-02  0.1093470E+00
          1   -1    0    0  502    0  0.00000000000E+00  0.00000000000E+00  0.25496890191E+03  0.25496890191E+03  0.00000000000E+00 0.  1.
         13   -1    0    0    0    0 -0.00000000000E+00 -0.00000000000E+00 -0.27500000000E+03  0.27500000000E+03  0.00000000000E+00 0.  1.
    9000005    2    1    2  501    0  0.40788686420E+02  0.12822695682E+02 -0.21958621645E+02  0.48716874057E+03  0.48479177206E+03 0.  0.
         13    1    3    3    0    0  0.22245269592E+03  0.73909464684E+02 -0.12908536248E+03  0.26760202110E+03  0.00000000000E+00 0.  1.
          1    1    3    3  501    0 -0.18166400950E+03 -0.61086769002E+02  0.10712674084E+03  0.21956671946E+03  0.00000000000E+00 0.  1.
         21    1    1    2  502  501 -0.40788686420E+02 -0.12822695682E+02  0.19275235599E+01  0.42800161349E+02  0.00000000000E+00 0.  1.
<scales pt_clust_4="550.00000" pt_clust_5="550.00000" pt_clust_6="42.75674"></scales>
<mgrwt>
<rscale>  0 0.30000000E+03</rscale>
<asrwt>  1 0.42756736E+02</asrwt>
<pdfrwt beam="1">  1        1 0.92715964E+00 0.30000000E+03</pdfrwt>
<pdfrwt beam="2">0</pdfrwt>
<totfact> 0.28530752E-05</totfact>
</mgrwt>
<clustering>
<clus scale="   42.757">  1  6  2 -1</clus>
<clus scale="  484.792">  4  5 -1 -1</clus>
<clus scale="  300.000">  1  4  2 -1</clus>
</clustering>
</event>
<event>
 6    1  0.1029244E-011  0.3000000E+03  0.7818608E-02  0.1093470E+00
          1   -1    0    0  502    0  0.00000000000E+00  0.00000000000E+00  0.25246395073E+03  0.25246395073E+03  0.00000000000E+00 0.  1.
         13   -1    0    0    0    0 -0.00000000000E+00 -0.00000000000E+00 -0.27500000000E+03  0.27500000000E+03  0.00000000000E+00 0.  1.
    9000005    2    1    2  501    0 -0.30707923876E+02 -0.49475530204E+01 -0.19781020552E+02  0.49623823932E+03  0.49486730193E+03 0.  0.
         13    1    3    3    0    0  0.17685402118E+03 -0.15827356467E+03 -0.20117681887E+02  0.23818603487E+03  0.00000000000E+00 0.  1.
          3    1    3    3  501    0 -0.20756194506E+03  0.15332601165E+03  0.33666133479E+00  0.25805220446E+03  0.00000000000E+00 0.  1.
         21    1    1    2  502  501  0.30707923876E+02  0.49475530204E+01 -0.27550287179E+01  0.31225711407E+02  0.00000000000E+00 0.  1.
<scales pt_clust_4="550.00000" pt_clust_5="550.00000" pt_clust_6="31.10395"></scales>
<mgrwt>
<rscale>  0 0.30000000E+03</rscale>
<asrwt>  1 0.31103952E+02</asrwt>
<pdfrwt beam="1">  1        1 0.91805073E+00 0.30000000E+03</pdfrwt>
<pdfrwt beam="2">0</pdfrwt>
<totfact> 0.47180966E-05</totfact>
</mgrwt>
<clustering>
<clus scale="   31.104">  1  6  2 -1</clus>
<clus scale="  494.867">  4  5 -1 -1</clus>
<clus scale="  300.000">  1  4  2 -1</clus>
</clustering>
</event>
<event>
 6    1  0.1029244E-011  0.3000000E+03  0.7818608E-02  0.1093470E+00
          1   -1    0    0  502    0  0.00000000000E+00  0.00000000000E+00  0.22833658545E+03  0.22833658545E+03  0.00000000000E+00 0.  1.
         13   -1    0    0    0    0 -0.00000000000E+00 -0.00000000000E+00 -0.27500000000E+03  0.27500000000E+03  0.00000000000E+00 0.  1.
    9000005    2    1    2  501    0  0.27129176502E+02  0.13419320660E+02 -0.66164317562E+02  0.46733164686E+03  0.46163305866E+03 0.  0.
         13    1    3    3    0    0 -0.17622072497E+03 -0.10947565322E+03  0.32632742690E+02  0.21000847233E+03  0.00000000000E+00 0.  1.
          3    1    3    3  501    0  0.20334990147E+03  0.12289497388E+03 -0.98797060252E+02  0.25732317452E+03  0.00000000000E+00 0.  1.
         21    1    1    2  502  501 -0.27129176502E+02 -0.13419320660E+02  0.19500903010E+02  0.36004938590E+02  0.00000000000E+00 0.  1.
<scales pt_clust_4="550.00000" pt_clust_5="550.00000" pt_clust_6="30.26665"></scales>
<mgrwt>
<rscale>  0 0.30000000E+03</rscale>
<asrwt>  1 0.30266655E+02</asrwt>
<pdfrwt beam="1">  1        1 0.83031486E+00 0.30000000E+03</pdfrwt>
<pdfrwt beam="2">0</pdfrwt>
<totfact> 0.60391718E-04</totfact>
</mgrwt>
<clustering>
<clus scale="   30.267">  1  6  2 -1</clus>
<clus scale="  461.633">  4  5 -1 -1</clus>
<clus scale="  300.000">  1  4  2 -1</clus>
</clustering>
</event>
<event>
 6    1  0.1029244E-011  0.3000000E+03  0.7818608E-02  0.1093470E+00
          1   -1    0    0  502    0  0.00000000000E+00  0.00000000000E+00  0.24733986055E+03  0.24733986055E+03  0.00000000000E+00 0.  1.
         13   -1    0    0    0    0 -0.00000000000E+00 -0.00000000000E+00 -0.27500000000E+03  0.27500000000E+03  0.00000000000E+00 0.  1.
    9000005    2    1    2  501    0 -0.44695500103E+02  0.92317775969E+01 -0.45024848356E+02  0.47350906532E+03  0.46914889377E+03 0.  0.
         13    1    3    3    0    0  0.16731530781E+03  0.10987044946E+03 -0.11211327045E+03  0.22942387256E+03  0.00000000000E+00 0.  1.
          1    1    3    3  501    0 -0.21201080791E+03 -0.10063867187E+03  0.67088422092E+02  0.24408519276E+03  0.00000000000E+00 0.  1.
         21    1    1    2  502  501  0.44695500103E+02 -0.92317775969E+01  0.17364708907E+02  0.48830795227E+02  0.00000000000E+00 0. -1.
<scales pt_clust_4="550.00000" pt_clust_5="550.00000" pt_clust_6="45.63895"></scales>
<mgrwt>
<rscale>  0 0.30000000E+03</rscale>
<asrwt>  1 0.45638947E+02</asrwt>
<pdfrwt beam="1">  1        1 0.89941767E+00 0.30000000E+03</pdfrwt>
<pdfrwt beam="2">0</pdfrwt>
<totfact> 0.10697532E-04</totfact>
</mgrwt>
<clustering>
<clus scale="   45.639">  1  6  2 -1</clus>
<clus scale="  469.149">  4  5 -1 -1</clus>
<clus scale="  300.000">  1  4  2 -1</clus>
</clustering>
</event>
<event>
 6    1  0.1029244E-011  0.3000000E+03  0.7818608E-02  0.1093470E+00
          1   -1    0    0  502    0  0.00000000000E+00  0.00000000000E+00  0.23583740230E+03  0.23583740230E+03  0.00000000000E+00 0.  1.
         13   -1    0    0    0    0 -0.00000000000E+00 -0.00000000000E+00 -0.27500000000E+03  0.27500000000E+03  0.00000000000E+00 0.  1.
    9000005    2    1    2  501    0 -0.31279708604E+02 -0.33522164694E+02 -0.36123016005E+02  0.46488748660E+03  0.46120857236E+03 0.  0.
         13    1    3    3    0    0 -0.41967773728E+02 -0.24061030430E+03  0.32652643208E+02  0.24641592415E+03  0.00000000000E+00 0.  1.
          3    1    3    3  501    0  0.10688065124E+02  0.20708813960E+03 -0.68775659213E+02  0.21847156245E+03  0.00000000000E+00 0.  1.
         21    1    1    2  502  501  0.31279708604E+02  0.33522164694E+02 -0.30395816922E+01  0.45949915702E+02  0.00000000000E+00 0. -1.
<scales pt_clust_4="550.00000" pt_clust_5="550.00000" pt_clust_6="45.84927"></scales>
<mgrwt>
<rscale>  0 0.30000000E+03</rscale>
<asrwt>  1 0.45849271E+02</asrwt>
<pdfrwt beam="1">  1        1 0.85759055E+00 0.30000000E+03</pdfrwt>
<pdfrwt beam="2">0</pdfrwt>
<totfact> 0.32643836E-04</totfact>
</mgrwt>
<clustering>
<clus scale="   45.849">  1  6  2 -1</clus>
<clus scale="  461.209">  4  5 -1 -1</clus>
<clus scale="  300.000">  1  4  2 -1</clus>
</clustering>
</event>
<event>
 6    1  0.1029244E-011  0.3000000E+03  0.7818608E-02  0.1093470E+00
          1   -1    0    0  502    0  0.00000000000E+00  0.00000000000E+00  0.23473500843E+03  0.23473500843E+03  0.00000000000E+00 0.  1.
         13   -1    0    0    0    0 -0.00000000000E+00 -0.00000000000E+00 -0.27500000000E+03  0.27500000000E+03  0.00000000000E+00 0.  1.
    9000005    2    1    2  501    0 -0.33248111820E+02  0.11700270432E+02 -0.41921533948E+02  0.47444935412E+03  0.47127745686E+03 0.  0.
         13    1    3    3    0    0 -0.16724142700E+03 -0.15387295304E+03  0.64651456179E+02  0.23627609141E+03  0.00000000000E+00 0.  1.
          3    1    3    3  501    0  0.13399331518E+03  0.16557322348E+03 -0.10657299013E+03  0.23817326271E+03  0.00000000000E+00 0.  1.
         21    1    1    2  502  501  0.33248111820E+02 -0.11700270432E+02  0.16565423815E+01  0.35285654315E+02  0.00000000000E+00 0.  1.
<scales pt_clust_4="550.00000" pt_clust_5="550.00000" pt_clust_6="35.24675"></scales>
<mgrwt>
<rscale>  0 0.30000000E+03</rscale>
<asrwt>  1 0.35246748E+02</asrwt>
<pdfrwt beam="1">  1        1 0.85358185E+00 0.30000000E+03</pdfrwt>
<pdfrwt beam="2">0</pdfrwt>
<totfact> 0.37566787E-04</totfact>
</mgrwt>
<clustering>
<clus scale="   35.247">  1  6  2 -1</clus>
<clus scale="  471.277">  4  5 -1 -1</clus>
<clus scale="  300.000">  1  4  2 -1</clus>
</clustering>
</event>
<event>
 6    1  0.1029244E-011  0.3000000E+03  0.7818608E-02  0.1093470E+00
          1   -1    0    0  502    0  0.00000000000E+00  0.00000000000E+00  0.23959722235E+03  0.23959722235E+03  0.00000000000E+00 0.  1.
         13   -1    0    0    0    0 -0.00000000000E+00 -0.00000000000E+00 -0.27500000000E+03  0.27500000000E+03  0.00000000000E+00 0.  1.
    9000005    2    1    2  501    0 -0.20133788351E+01  0.40204752802E+02 -0.67856415230E+02  0.46288924971E+03  0.45611565262E+03 0.  0.
         13    1    3    3    0    0  0.22347761647E+03  0.52149593441E+02 -0.95713969051E+01  0.22968116335E+03  0.00000000000E+00 0.  1.
          1    1    3    3  501    0 -0.22549099531E+03 -0.11944840639E+02 -0.58285018325E+02  0.23320808636E+03  0.00000000000E+00 0.  1.
         21    1    1    2  502  501  0.20133788351E+01 -0.40204752802E+02  0.32453637582E+02  0.51707972640E+02  0.00000000000E+00 0.  1.
<scales pt_clust_4="550.00000" pt_clust_5="550.00000" pt_clust_6="40.25513"></scales>
<mgrwt>
<rscale>  0 0.30000000E+03</rscale>
<asrwt>  1 0.40255134E+02</asrwt>
<pdfrwt beam="1">  1        1 0.87126263E+00 0.30000000E+03</pdfrwt>
<pdfrwt beam="2">0</pdfrwt>
<totfact> 0.23957484E-04</totfact>
</mgrwt>
<clustering>
<clus scale="   40.255">  1  6  2 -1</clus>
<clus scale="  456.116">  4  5 -1 -1</clus>
<clus scale="  300.000">  1  4  2 -1</clus>
</clustering>
</event>
<event>
 6    1  0.1029244E-011  0.3000000E+03  0.7818608E-02  0.1093470E+00
          1   -1    0    0  502    0  0.00000000000E+00  0.00000000000E+00  0.23064632589E+03  0.23064632589E+03  0.00000000000E+00 0.  1.
         13   -1    0    0    0    0 -0.00000000000E+00 -0.00000000000E+00 -0.27500000000E+03  0.27500000000E+03  0.00000000000E+00 0.  1.
    9000005    2    1    2  501    0  0.26048035562E+02 -0.16961160854E+02 -0.60503038065E+02  0.47061800749E+03  0.46567640076E+03 0.  0.
         13    1    3    3    0    0  0.21976976962E+03 -0.10629236992E+03 -0.78751641958E+02  0.25651245711E+03  0.00000000000E+00 0.  1.
          3    1    3    3  501    0 -0.19372173406E+03  0.89331209062E+02  0.18248603893E+02  0.21410555038E+03  0.00000000000E+00 0.  1.
         21    1    1    2  502  501 -0.26048035562E+02  0.16961160854E+02  0.16149363958E+02  0.35028318407E+02  0.00000000000E+00 0. -1.
<scales pt_clust_4="550.00000" pt_clust_5="550.00000" pt_clust_6="31.08345"></scales>
<mgrwt>
<rscale>  0 0.30000000E+03</rscale>
<asrwt>  1 0.31083454E+02</asrwt>
<pdfrwt beam="1">  1        1 0.83871391E+00 0.30000000E+03</pdfrwt>
<pdfrwt beam="2">0</pdfrwt>
<totfact> 0.51980276E-04</totfact>
</mgrwt>
<clustering>
<clus scale="   31.083">  1  6  2 -1</clus>
<clus scale="  465.676">  4  5 -1 -1</clus>
<clus scale="  300.000">  1  4  2 -1</clus>
</clustering>
</event>
<event>
 6    1  0.1029244E-011  0.3000000E+03  0.7818608E-02  0.1093470E+00
          1   -1    0    0  502    0  0.00000000000E+00  0.00000000000E+00  0.25772736945E+03  0.25772736945E+03  0.00000000000E+00 0.  1.
         13   -1    0    0    0    0 -0.00000000000E+00 -0.00000000000E+00 -0.27500000000E+03  0.27500000000E+03  0.00000000000E+00 0.  1.
    9000005    2    1    2  501    0  0.30906770103E+02  0.19692680783E+02  0.91609659142E+01  0.48754147412E+03  0.48607585373E+03 0.  0.
         13    1    3    3    0    0 -0.11039961371E+03  0.14540874993E+03  0.16222407114E+03  0.24423027765E+03  0.00000000000E+00 0.  1.
          3    1    3    3  501    0  0.14130638382E+03 -0.12571606914E+03 -0.15306310523E+03  0.24331119647E+03  0.00000000000E+00 0.  1.
         21    1    1    2  502  501 -0.30906770103E+02 -0.19692680783E+02 -0.26433596464E+02  0.45185895328E+02  0.00000000000E+00 0.  1.
<scales pt_clust_4="550.00000" pt_clust_5="550.00000" pt_clust_6="36.64739"></scales>
<mgrwt>
<rscale>  0 0.30000000E+03</rscale>
<asrwt>  1 0.36647394E+02</asrwt>
<pdfrwt beam="1">  1        1 0.93719043E+00 0.30000000E+03</pdfrwt>
<pdfrwt beam="2">0</pdfrwt>
<totfact> 0.20962925E-05</totfact>
</mgrwt>
<clustering>
<clus scale="   36.647">  1  6  2 -1</clus>
<clus scale="  486.076">  4  5 -1 -1</clus>
<clus scale="  300.000">  1  4  2 -1</clus>
</clustering>
</event>
<event>
 6    1  0.1029244E-011  0.3000000E+03  0.7818608E-02  0.1093470E+00
          1   -1    0    0  502    0  0.00000000000E+00  0.00000000000E+00  0.23385188504E+03  0.23385188504E+03  0.00000000000E+00 0.  1.
         13   -1    0    0    0    0 -0.00000000000E+00 -0.00000000000E+00 -0.27500000000E+03  0.27500000000E+03  0.00000000000E+00 0.  1.
    9000005    2    1    2  501    0  0.30954151791E+02 -0.34843856136E+02 -0.29269802352E+02  0.46075460722E+03  0.45745582620E+03 0.  0.
         13    1    3    3    0    0 -0.16127431389E+03 -0.32870853371E+02  0.13108835812E+03  0.21041400846E+03  0.00000000000E+00 0.  1.
          3    1    3    3  501    0  0.19222846568E+03 -0.19730027650E+01 -0.16035816047E+03  0.25034059876E+03  0.00000000000E+00 0.  1.
         21    1    1    2  502  501 -0.30954151791E+02  0.34843856136E+02 -0.11878312607E+02  0.48097277822E+02  0.00000000000E+00 0.  1.
<scales pt_clust_4="550.00000" pt_clust_5="550.00000" pt_clust_6="46.60747"></scales>
<mgrwt>
<rscale>  0 0.30000000E+03</rscale>
<asrwt>  1 0.46607467E+02</asrwt>
<pdfrwt beam="1">  1        1 0.85037049E+00 0.30000000E+03</pdfrwt>
<pdfrwt beam="2">0</pdfrwt>
<totfact> 0.38320552E-04</totfact>
</mgrwt>
<clustering>
<clus scale="   46.607">  1  6  2 -1</clus>
<clus scale="  457.456">  4  5 -1 -1</clus>
<clus scale="  300.000">  1  4  2 -1</clus>
</clustering>
</event>
<event>
 6    1  0.1029244E-011  0.3000000E+03  0.7818608E-02  0.1093470E+00
          1   -1    0    0  502    0  0.00000000000E+00  0.00000000000E+00  0.22592109800E+03  0.22592109800E+03  0.00000000000E+00 0.  1.
         13   -1    0    0    0    0 -0.00000000000E+00 -0.00000000000E+00 -0.27500000000E+03  0.27500000000E+03  0.00000000000E+00 0.  1.
    9000005    2    1    2  501    0 -0.13794915831E+02 -0.27480704988E+02 -0.58455724022E+02  0.46877434636E+03  0.46409786391E+03 0.  0.
         13    1    3    3    0    0 -0.10298118318E+03 -0.15122168618E+03 -0.19260062630E+03  0.26564661434E+03  0.00000000000E+00 0.  1.
          1    1    3    3  501    0  0.89186267350E+02  0.12374098119E+03  0.13414490228E+03  0.20312773202E+03  0.00000000000E+00 0.  1.
         21    1    1    2  502  501  0.13794915831E+02  0.27480704988E+02  0.93768220186E+01  0.32146751634E+02  0.00000000000E+00 0.  1.
<scales pt_clust_4="550.00000" pt_clust_5="550.00000" pt_clust_6="30.74880"></scales>
<mgrwt>
<rscale>  0 0.30000000E+03</rscale>
<asrwt>  1 0.30748802E+02</asrwt>
<pdfrwt beam="1">  1        1 0.82153127E+00 0.30000000E+03</pdfrwt>
<pdfrwt beam="2">0</pdfrwt>
<totfact> 0.71873511E-04</totfact>
</mgrwt>
<clustering>
<clus scale="   30.749">  1  6  2 -1</clus>
<clus scale="  464.098">  4  5 -1 -1</clus>
<clus scale="  300.000">  1  4  2 -1</clus>
</clustering>
</event>
<event>
 6    1  0.1029244E-011  0.3000000E+03  0.7818608E-02  0.1093470E+00
          1   -1    0    0  502    0  0.00000000000E+00  0.00000000000E+00  0.24273431968E+03  0.24273431968E+03  0.00000000000E+00 0.  1.
         13   -1    0    0    0    0 -0.00000000000E+00 -0.00000000000E+00 -0.27500000000E+03  0.27500000000E+03  0.00000000000E+00 0.  1.
    9000005    2    1    2  501    0 -0.75045477540E+01 -0.32036688425E+02 -0.74528401116E+02  0.46417309106E+03  0.45696773217E+03 0.  0.
         13    1    3    3    0    0  0.16772222196E+03 -0.11374888746E+03  0.78774522672E+02  0.21742809975E+03  0.00000000000E+00 0.  1.
          3    1    3    3  501    0 -0.17522676972E+03  0.81712199033E+02 -0.15330292379E+03  0.24674499131E+03  0.00000000000E+00 0.  1.
         21    1    1    2  502  501  0.75045477540E+01  0.32036688425E+02  0.42262720794E+02  0.53561228618E+02  0.00000000000E+00 0. -1.
<scales pt_clust_4="550.00000" pt_clust_5="550.00000" pt_clust_6="32.90392"></scales>
<mgrwt>
<rscale>  0 0.30000000E+03</rscale>
<asrwt>  1 0.32903915E+02</asrwt>
<pdfrwt beam="1">  1        1 0.88267025E+00 0.30000000E+03</pdfrwt>
<pdfrwt beam="2">0</pdfrwt>
<totfact> 0.18457295E-04</totfact>
</mgrwt>
<clustering>
<clus scale="   32.904">  1  6  2 -1</clus>
<clus scale="  456.968">  4  5 -1 -1</clus>
<clus scale="  300.000">  1  4  2 -1</clus>
</clustering>
</event>
<event>
 6    1  0.1029244E-011  0.3000000E+03  0.7818608E-02  0.1093470E+00
          1   -1    0    0  502    0  0.00000000000E+00  0.00000000000E+00  0.22763175841E+03  0.22763175841E+03  0.00000000000E+00 0.  1.
         13   -1    0    0    0    0 -0.00000000000E+00 -0.00000000000E+00 -0.27500000000E+03  0.27500000000E+03  0.00000000000E+00 0.  1.
    9000005    2    1    2  501    0  0.30630085712E+02 -0.35807800486E+01 -0.60792078298E+02  0.46899809182E+03  0.46401778975E+03 0.  0.
         13    1    3    3    0    0  0.23539986126E+03  0.55442494787E+02 -0.80733597539E+02  0.25496054338E+03  0.00000000000E+00 0.  1.
          3    1    3    3  501    0 -0.20476977555E+03 -0.59023274835E+02  0.19941519241E+02  0.21403754843E+03  0.00000000000E+00 0.  1.
         21    1    1    2  502  501 -0.30630085712E+02  0.35807800486E+01  0.13423836706E+02  0.33633666592E+02  0.00000000000E+00 0.  1.
<scales pt_clust_4="550.00000" pt_clust_5="550.00000" pt_clust_6="30.83868"></scales>
<mgrwt>
<rscale>  0 0.30000000E+03</rscale>
<asrwt>  1 0.30838679E+02</asrwt>
<pdfrwt beam="1">  1        1 0.82775185E+00 0.30000000E+03</pdfrwt>
<pdfrwt beam="2">0</pdfrwt>
<totfact> 0.63257542E-04</totfact>
</mgrwt>
<clustering>
<clus scale="   30.839">  1  6  2 -1</clus>
<clus scale="  464.018">  4  5 -1 -1</clus>
<clus scale="  300.000">  1  4  2 -1</clus>
</clustering>
</event>
<event>
 6    1  0.1029244E-011  0.3000000E+03  0.7818608E-02  0.1093470E+00
          1   -1    0    0  502    0  0.00000000000E+00  0.00000000000E+00  0.24001403126E+03  0.24001403126E+03  0.00000000000E+00 0.  1.
         13   -1    0    0    0    0 -0.00000000000E+00 -0.00000000000E+00 -0.27500000000E+03  0.27500000000E+03  0.00000000000E+00 0.  1.
    9000005    2    1    2  501    0 -0.18014541404E+01  0.30846681353E+02 -0.65934939220E+02  0.47128072860E+03  0.46562146209E+03 0.  0.
         13    1    3    3    0    0  0.13952072674E+03  0.24754460106E+02  0.15432460344E+03  0.20951109687E+03  0.00000000000E+00 0.  1.
          3    1    3    3  501    0 -0.14132218088E+03  0.60922212475E+01 -0.22025954266E+03  0.26176963174E+03  0.00000000000E+00 0.  1.
         21    1    1    2  502  501  0.18014541404E+01 -0.30846681353E+02  0.30948970479E+02  0.43733302657E+02  0.00000000000E+00 0. -1.
<scales pt_clust_4="550.00000" pt_clust_5="550.00000" pt_clust_6="30.89924"></scales>
<mgrwt>
<rscale>  0 0.30000000E+03</rscale>
<asrwt>  1 0.30899239E+02</asrwt>
<pdfrwt beam="1">  1        1 0.87277830E+00 0.30000000E+03</pdfrwt>
<pdfrwt beam="2">0</pdfrwt>
<totfact> 0.24288240E-04</totfact>
</mgrwt>
<clustering>
<clus scale="   30.899">  1  6  2 -1</clus>
<clus scale="  465.621">  4  5 -1 -1</clus>
<clus scale="  300.000">  1  4  2 -1</clus>
</clustering>
</event>
<event>
 6    1  0.1029244E-011  0.3000000E+03  0.7818608E-02  0.1093470E+00
          1   -1    0    0  502    0  0.00000000000E+00  0.00000000000E+00  0.25537497762E+03  0.25537497762E+03  0.00000000000E+00 0.  1.
         13   -1    0    0    0    0 -0.00000000000E+00 -0.00000000000E+00 -0.27500000000E+03  0.27500000000E+03  0.00000000000E+00 0.  1.
    9000005    2    1    2  501    0  0.35189512013E+02  0.10200645077E+02 -0.46630831420E+02  0.48485939087E+03  0.48121911803E+03 0.  0.
         13    1    3    3    0    0 -0.18756765466E+03  0.12739662832E+02  0.10504342118E+03  0.21535562314E+03  0.00000000000E+00 0.  1.
          3    1    3    3  501    0  0.22275716667E+03 -0.25390177557E+01 -0.15167425260E+03  0.26950376773E+03  0.00000000000E+00 0.  1.
         21    1    1    2  502  501 -0.35189512013E+02 -0.10200645077E+02  0.27005809038E+02  0.45515586753E+02  0.00000000000E+00 0.  1.
<scales pt_clust_4="550.00000" pt_clust_5="550.00000" pt_clust_6="36.63816"></scales>
<mgrwt>
<rscale>  0 0.30000000E+03</rscale>
<asrwt>  1 0.36638162E+02</asrwt>
<pdfrwt beam="1">  1        1 0.92863628E+00 0.30000000E+03</pdfrwt>
<pdfrwt beam="2">0</pdfrwt>
<totfact> 0.27493006E-05</totfact>
</mgrwt>
<clustering>
<clus scale="   36.638">  1  6  2 -1</clus>
<clus scale="  481.219">  4  5 -1 -1</clus>
<clus scale="  300.000">  1  4  2 -1</clus>
</clustering>
</event>
<event>
 6    1  0.1029244E-011  0.3000000E+03  0.7818608E-02  0.1093470E+00
          1   -1    0    0  502    0  0.00000000000E+00  0.00000000000E+00  0.24782368783E+03  0.24782368783E+03  0.00000000000E+00 0.  1.
         13   -1    0    0    0    0 -0.00000000000E+00 -0.00000000000E+00 -0.27500000000E+03  0.27500000000E+03  0.00000000000E+00 0.  1.
    9000005    2    1    2  501    0 -0.54391338813E+02  0.40587947325E+01 -0.41877106542E+02  0.46633470742E+03  0.46123689763E+03 0.  0.
         13    1    3    3    0    0  0.10605223378E+03 -0.44417407669E+02  0.16435679208E+03  0.20058199694E+03  0.00000000000E+00 0.  1.
          1    1    3    3  501    0 -0.16044357259E+03  0.48476202402E+02 -0.20623389862E+03  0.26575271048E+03  0.00000000000E+00 0.  1.
         21    1    1    2  502  501  0.54391338813E+02 -0.40587947325E+01  0.14700794373E+02  0.56488980410E+02  0.00000000000E+00 0. -1.
<scales pt_clust_4="550.00000" pt_clust_5="550.00000" pt_clust_6="54.54257"></scales>
<mgrwt>
<rscale>  0 0.30000000E+03</rscale>
<asrwt>  1 0.54542566E+02</asrwt>
<pdfrwt beam="1">  1        1 0.90117705E+00 0.30000000E+03</pdfrwt>
<pdfrwt beam="2">0</pdfrwt>
<totfact> 0.98434494E-05</totfact>
</mgrwt>
<clustering>
<clus scale="   54.543">  1  6  2 -1</clus>
<clus scale="  461.237">  4  5 -1 -1</clus>
<clus scale="  300.000">  1  4  2 -1</clus>
</clustering>
</event>
<event>
 6    1  0.1029244E-011  0.3000000E+03  0.7818608E-02  0.1093470E+00
          1   -1    0    0  502    0  0.00000000000E+00  0.00000000000E+00  0.22687956207E+03  0.22687956207E+03  0.00000000000E+00 0.  1.
         13   -1    0    0    0    0 -0.00000000000E+00 -0.00000000000E+00 -0.27500000000E+03  0.27500000000E+03  0.00000000000E+00 0.  1.
    9000005    2    1    2  501    0  0.32487122121E+02  0.20447980018E+02 -0.57965812809E+02  0.46225047683E+03  0.45699227005E+03 0.  0.
         13    1    3    3    0    0 -0.13851157881E+02 -0.43564732458E+01 -0.25648280595E+03  0.25689348606E+03  0.00000000000E+00 0.  1.
          3    1    3    3  501    0  0.46338280002E+02  0.24804453264E+02  0.19851699314E+03  0.20535699077E+03  0.00000000000E+00 0.  1.
         21    1    1    2  502  501 -0.32487122121E+02 -0.20447980018E+02  0.98453748816E+01  0.39629085241E+02  0.00000000000E+00 0.  1.
<scales pt_clust_4="550.00000" pt_clust_5="550.00000" pt_clust_6="38.38663"></scales>
<mgrwt>
<rscale>  0 0.30000000E+03</rscale>
<asrwt>  1 0.38386625E+02</asrwt>
<pdfrwt beam="1">  1        1 0.82501659E+00 0.30000000E+03</pdfrwt>
<pdfrwt beam="2">0</pdfrwt>
<totfact> 0.64185897E-04</totfact>
</mgrwt>
<clustering>
<clus scale="   38.387">  1  6  2 -1</clus>
<clus scale="  456.992">  4  5 -1 -1</clus>
<clus scale="  300.000">  1  4  2 -1</clus>
</clustering>
</event>
<event>
 6    1  0.1029244E-011  0.3000000E+03  0.7818608E-02  0.1093470E+00
          1   -1    0    0  502    0  0.00000000000E+00  0.00000000000E+00  0.25157540799E+03  0.25157540799E+03  0.00000000000E+00 0.  1.
         13   -1    0    0    0    0 -0.00000000000E+00 -0.00000000000E+00 -0.27500000000E+03  0.27500000000E+03  0.00000000000E+00 0.  1.
    9000005    2    1    2  501    0  0.28760796725E+02  0.29693299325E+02 -0.36598938943E+02  0.48318832615E+03  0.48002354187E+03 0.  0.
         13    1    3    3    0    0  0.24299520096E+03 -0.17220381260E+02  0.47705731014E+02  0.24823183920E+03  0.00000000000E+00 0.  1.
          1    1    3    3  501    0 -0.21423440424E+03  0.46913680585E+02 -0.84304669958E+02  0.23495648695E+03  0.00000000000E+00 0.  1.
         21    1    1    2  502  501 -0.28760796725E+02 -0.29693299325E+02  0.13174346931E+02  0.43387081835E+02  0.00000000000E+00 0.  1.
<scales pt_clust_4="550.00000" pt_clust_5="550.00000" pt_clust_6="41.33855"></scales>
<mgrwt>
<rscale>  0 0.30000000E+03</rscale>
<asrwt>  1 0.41338547E+02</asrwt>
<pdfrwt beam="1">  1        1 0.91481967E+00 0.30000000E+03</pdfrwt>
<pdfrwt beam="2">0</pdfrwt>
<totfact> 0.53021258E-05</totfact>
</mgrwt>
<clustering>
<clus scale="   41.339">  1  6  2 -1</clus>
<clus scale="  480.024">  4  5 -1 -1</clus>
<clus scale="  300.000">  1  4  2 -1</clus>
</clustering>
</event>
<event>
 6    1  0.1029244E-011  0.3000000E+03  0.7818608E-02  0.1093470E+00
          1   -1    0    0  502    0  0.00000000000E+00  0.00000000000E+00  0.22386028141E+03  0.22386028141E+03  0.00000000000E+00 0.  1.
         13   -1    0    0    0    0 -0.00000000000E+00 -0.00000000000E+00 -0.27500000000E+03  0.27500000000E+03  0.00000000000E+00 0.  1.
    9000005    2    1    2  501    0 -0.24100993008E+02  0.21603009124E+02 -0.37600458444E+02  0.46377667509E+03  0.46111545410E+03 0.  0.
         13    1    3    3    0    0 -0.61022875049E+02 -0.32450038882E+02  0.20299344159E+03  0.21443678236E+03  0.00000000000E+00 0.  1.
          1    1    3    3  501    0  0.36921882041E+02  0.54053048006E+02 -0.24059390003E+03  0.24933989272E+03  0.00000000000E+00 0.  1.
         21    1    1    2  502  501  0.24100993008E+02 -0.21603009124E+02 -0.13539260148E+02  0.35083606322E+02  0.00000000000E+00 0. -1.
<scales pt_clust_4="550.00000" pt_clust_5="550.00000" pt_clust_6="32.36586"></scales>
<mgrwt>
<rscale>  0 0.30000000E+03</rscale>
<asrwt>  1 0.32365860E+02</asrwt>
<pdfrwt beam="1">  1        1 0.81403739E+00 0.30000000E+03</pdfrwt>
<pdfrwt beam="2">0</pdfrwt>
<totfact> 0.82240735E-04</totfact>
</mgrwt>
<clustering>
<clus scale="   32.366">  1  6  2 -1</clus>
<clus scale="  461.115">  4  5 -1 -1</clus>
<clus scale="  300.000">  1  4  2 -1</clus>
</clustering>
</event>
<event>
 6    1  0.1029244E-011  0.3000000E+03  0.7818608E-02  0.1093470E+00
          1   -1    0    0  502    0  0.00000000000E+00  0.00000000000E+00  0.25584945837E+03  0.25584945837E+03  0.00000000000E+00 0.  1.
         13   -1    0    0    0    0 -0.00000000000E+00 -0.00000000000E+00 -0.27500000000E+03  0.27500000000E+03  0.00000000000E+00 0.  1.
    9000005    2    1    2  501    0 -0.27686222364E+02 -0.20638776640E+02 -0.68434824669E+02  0.47067116856E+03  0.46438727122E+03 0.  0.
         13    1    3    3    0    0 -0.82518390029E+02  0.21032204195E+03 -0.97326075946E+01  0.22614015493E+03  0.00000000000E+00 0.  1.
          3    1    3    3  501    0  0.54832167665E+02 -0.23096081859E+03 -0.58702217075E+02  0.24453101362E+03  0.00000000000E+00 0.  1.
         21    1    1    2  502  501  0.27686222364E+02  0.20638776640E+02  0.49284283038E+02  0.60178289811E+02  0.00000000000E+00 0. -1.
<scales pt_clust_4="550.00000" pt_clust_5="550.00000" pt_clust_6="34.53239"></scales>
<mgrwt>
<rscale>  0 0.30000000E+03</rscale>
<asrwt>  1 0.34532391E+02</asrwt>
<pdfrwt beam="1">  1        1 0.93036167E+00 0.30000000E+03</pdfrwt>
<pdfrwt beam="2">0</pdfrwt>
<totfact> 0.26016763E-05</totfact>
</mgrwt>
<clustering>
<clus scale="   34.532">  1  6  2 -1</clus>
<clus scale="  464.387">  4  5 -1 -1</clus>
<clus scale="  300.000">  1  4  2 -1</clus>
</clustering>
</event>
<event>
 6    1  0.1029244E-011  0.3000000E+03  0.7818608E-02  0.1093470E+00
          1   -1    0    0  502    0  0.00000000000E+00  0.00000000000E+00  0.22348584040E+03  0.22348584040E+03  0.00000000000E+00 0.  1.
         13   -1    0    0    0    0 -0.00000000000E+00 -0.00000000000E+00 -0.27500000000E+03  0.27500000000E+03  0.00000000000E+00 0.  1.
    9000005    2    1    2  501    0 -0.21578207312E+02 -0.23067336733E+02 -0.60517291711E+02  0.46564109284E+03  0.46060999087E+03 0.  0.
         13    1    3    3    0    0 -0.96721136622E+02  0.18171779583E+03  0.62594952597E+02  0.21516148280E+03  0.00000000000E+00 0.  1.
          3    1    3    3  501    0  0.75142929310E+02 -0.20478513256E+03 -0.12311224431E+03  0.25047961004E+03  0.00000000000E+00 0.  1.
         21    1    1    2  502  501  0.21578207312E+02  0.23067336733E+02  0.90031321156E+01  0.32844747565E+02  0.00000000000E+00 0. -1.
<scales pt_clust_4="550.00000" pt_clust_5="550.00000" pt_clust_6="31.58672"></scales>
<mgrwt>
<rscale>  0 0.30000000E+03</rscale>
<asrwt>  1 0.31586723E+02</asrwt>
<pdfrwt beam="1">  1        1 0.81267578E+00 0.30000000E+03</pdfrwt>
<pdfrwt beam="2">0</pdfrwt>
<totfact> 0.84715152E-04</totfact>
</mgrwt>
<clustering>
<clus scale="   31.587">  1  6  2 -1</clus>
<clus scale="  460.610">  4  5 -1 -1</clus>
<clus scale="  300.000">  1  4  2 -1</clus>
</clustering>
</event>
<event>
 6    1  0.1029244E-011  0.3000000E+03  0.7818608E-02  0.1093470E+00
          1   -1    0    0  502    0  0.00000000000E+00  0.00000000000E+00  0.24093315889E+03  0.24093315889E+03  0.00000000000E+00 0.  1.
         13   -1    0    0    0    0 -0.00000000000E+00 -0.00000000000E+00 -0.27500000000E+03  0.27500000000E+03  0.00000000000E+00 0.  1.
    9000005    2    1    2  501    0  0.24782501299E+02  0.36004418079E+02 -0.39952958525E+02  0.47182945304E+03  0.46809860432E+03 0.  0.
         13    1    3    3    0    0 -0.12113797301E+03  0.16551771319E+03  0.10342007301E+03  0.22970901895E+03  0.00000000000E+00 0.  1.
          1    1    3    3  501    0  0.14592047431E+03 -0.12951329511E+03 -0.14337303154E+03  0.24212043409E+03  0.00000000000E+00 0.  1.
         21    1    1    2  502  501 -0.24782501299E+02 -0.36004418079E+02  0.58861174198E+01  0.44103705855E+02  0.00000000000E+00 0.  1.
<scales pt_clust_4="550.00000" pt_clust_5="550.00000" pt_clust_6="43.70916"></scales>
<mgrwt>
<rscale>  0 0.30000000E+03</rscale>
<asrwt>  1 0.43709158E+02</asrwt>
<pdfrwt beam="1">  1        1 0.87612058E+00 0.30000000E+03</pdfrwt>
<pdfrwt beam="2">0</pdfrwt>
<totfact> 0.21006838E-04</totfact>
</mgrwt>
<clustering>
<clus scale="   43.709">  1  6  2 -1</clus>
<clus scale="  468.099">  4  5 -1 -1</clus>
<clus scale="  300.000">  1  4  2 -1</clus>
</clustering>
</event>
<event>
 6    1  0.1029244E-011  0.3000000E+03  0.7818608E-02  0.1093470E+00
          1   -1    0    0  502    0  0.00000000000E+00  0.00000000000E+00  0.23278332446E+03  0.23278332446E+03  0.00000000000E+00 0.  1.
         13   -1    0    0    0    0 -0.00000000000E+00 -0.00000000000E+00 -0.27500000000E+03  0.27500000000E+03  0.00000000000E+00 0.  1.
    9000005    2    1    2  501    0  0.29885663409E+02  0.24131256033E+02 -0.48506458778E+02  0.46885991546E+03  0.46475937149E+03 0.  0.
         13    1    3    3    0    0  0.38888736696E+02 -0.20330983024E+03 -0.10816445564E+03  0.23355250026E+03  0.00000000000E+00 0.  1.
          3    1    3    3  501    0 -0.90030732870E+01  0.22744108628E+03  0.59657996861E+02  0.23530741519E+03  0.00000000000E+00 0.  1.
         21    1    1    2  502  501 -0.29885663409E+02 -0.24131256033E+02  0.62897832359E+01  0.38923409001E+02  0.00000000000E+00 0.  1.
<scales pt_clust_4="550.00000" pt_clust_5="550.00000" pt_clust_6="38.41185"></scales>
<mgrwt>
<rscale>  0 0.30000000E+03</rscale>
<asrwt>  1 0.38411852E+02</asrwt>
<pdfrwt beam="1">  1        1 0.84648482E+00 0.30000000E+03</pdfrwt>
<pdfrwt beam="2">0</pdfrwt>
<totfact> 0.43086688E-04</totfact>
</mgrwt>
<clustering>
<clus scale="   38.412">  1  6  2 -1</clus>
<clus scale="  464.759">  4  5 -1 -1</clus>
<clus scale="  300.000">  1  4  2 -1</clus>
</clustering>
</event>
<event>
 6    1  0.1029244E-011  0.3000000E+03  0.7818608E-02  0.1093470E+00
          1   -1    0    0  502    0  0.00000000000E+00  0.00000000000E+00  0.24564510501E+03  0.24564510501E+03  0.00000000000E+00 0.  1.
         13   -1    0    0    0    0 -0.00000000000E+00 -0.00000000000E+00 -0.27500000000E+03  0.27500000000E+03  0.00000000000E+00 0.  1.
    9000005    2    1    2  501    0  0.51175870101E+02 -0.92901717625E+01 -0.26202141361E+02  0.46853736252E+03  0.46490367916E+03 0.  0.
         13    1    3    3    0    0 -0.62523504861E+01  0.22415742775E+03  0.14481516921E+02  0.22471172340E+03  0.00000000000E+00 0.  1.
          3    1    3    3  501    0  0.57428220587E+02 -0.23344759951E+03 -0.40683658282E+02  0.24382563912E+03  0.00000000000E+00 0.  1.
         21    1    1    2  502  501 -0.51175870101E+02  0.92901717625E+01 -0.31527536302E+01  0.52107742490E+02  0.00000000000E+00 0. -1.
<scales pt_clust_4="550.00000" pt_clust_5="550.00000" pt_clust_6="52.01230"></scales>
<mgrwt>
<rscale>  0 0.30000000E+03</rscale>
<asrwt>  1 0.52012303E+02</asrwt>
<pdfrwt beam="1">  1        1 0.89325493E+00 0.30000000E+03</pdfrwt>
<pdfrwt beam="2">0</pdfrwt>
<totfact> 0.12290668E-04</totfact>
</mgrwt>
<clustering>
<clus scale="   52.012">  1  6  2 -1</clus>
<clus scale="  464.904">  4  5 -1 -1</clus>
<clus scale="  300.000">  1  4  2 -1</clus>
</clustering>
</event>
<event>
 6    1  0.1029244E-011  0.3000000E+03  0.7818608E-02  0.1093470E+00
          1   -1    0    0  502    0  0.00000000000E+00  0.00000000000E+00  0.26437820006E+03  0.26437820006E+03  0.00000000000E+00 0.  1.
         13   -1    0    0    0    0 -0.00000000000E+00 -0.00000000000E+00 -0.27500000000E+03  0.27500000000E+03  0.00000000000E+00 0.  1.
    9000005    2    1    2  501    0  0.57853976701E+02  0.13060839076E+02 -0.17961117164E+02  0.47961588991E+03  0.47559555505E+03 0.  0.
         13    1    3    3    0    0 -0.17246858018E+03  0.18012857597E+02  0.12019472485E+03  0.21098968237E+03  0.00000000000E+00 0.  1.
          3    1    3    3  501    0  0.23032255688E+03 -0.49520185213E+01 -0.13815584201E+03  0.26862620754E+03  0.00000000000E+00 0.  1.
         21    1    1    2  502  501 -0.57853976701E+02 -0.13060839076E+02  0.73393172280E+01  0.59762310153E+02  0.00000000000E+00 0. -1.
<scales pt_clust_4="550.00000" pt_clust_5="550.00000" pt_clust_6="59.30993"></scales>
<mgrwt>
<rscale>  0 0.30000000E+03</rscale>
<asrwt>  1 0.59309933E+02</asrwt>
<pdfrwt beam="1">  1        1 0.96137527E+00 0.30000000E+03</pdfrwt>
<pdfrwt beam="2">0</pdfrwt>
<totfact> 0.64483980E-06</totfact>
</mgrwt>
<clustering>
<clus scale="   59.310">  1  6  2 -1</clus>
<clus scale="  475.596">  4  5 -1 -1</clus>
<clus scale="  300.000">  1  4  2 -1</clus>
</clustering>
</event>
<event>
 6    1  0.1029244E-011  0.3000000E+03  0.7818608E-02  0.1093470E+00
          1   -1    0    0  502    0  0.00000000000E+00  0.00000000000E+00  0.23874991938E+03  0.23874991938E+03  0.00000000000E+00 0.  1.
         13   -1    0    0    0    0 -0.00000000000E+00 -0.00000000000E+00 -0.27500000000E+03  0.27500000000E+03  0.00000000000E+00 0.  1.
    9000005    2    1    2  501    0  0.35926546555E+02  0.73673111541E+01 -0.34580988374E+02  0.47703779754E+03  0.47436718004E+03 0.  0.
         13    1    3    3    0    0  0.24781527314E+03 -0.26632313676E+02 -0.71479728735E+02  0.25928949333E+03  0.00000000000E+00 0.  1.
          3    1    3    3  501    0 -0.21188872659E+03  0.33999624830E+02  0.36898740362E+02  0.21774830420E+03  0.00000000000E+00 0.  1.
         21    1    1    2  502  501 -0.35926546555E+02 -0.73673111541E+01 -0.16690922493E+01  0.36712121840E+02  0.00000000000E+00 0. -1.
<scales pt_clust_4="550.00000" pt_clust_5="550.00000" pt_clust_6="36.67416"></scales>
<mgrwt>
<rscale>  0 0.30000000E+03</rscale>
<asrwt>  1 0.36674160E+02</asrwt>
<pdfrwt beam="1">  1        1 0.86818153E+00 0.30000000E+03</pdfrwt>
<pdfrwt beam="2">0</pdfrwt>
<totfact> 0.26210795E-04</totfact>
</mgrwt>
<clustering>
<clus scale="   36.674">  1  6  2 -1</clus>
<clus scale="  474.367">  4  5 -1 -1</clus>
<clus scale="  300.000">  1  4  2 -1</clus>
</clustering>
</event>
<event>
 6    1  0.1029244E-011  0.3000000E+03  0.7818608E-02  0.1093470E+00
          1   -1    0    0  502    0  0.00000000000E+00  0.00000000000E+00  0.23623121864E+03  0.23623121864E+03  0.00000000000E+00 0.  1.
         13   -1    0    0    0    0 -0.00000000000E+00 -0.00000000000E+00 -0.27500000000E+03  0.27500000000E+03  0.00000000000E+00 0.  1.
    9000005    2    1    2  501    0 -0.32201301197E+02  0.10117851775E+01 -0.69869506608E+02  0.46645172982E+03  0.46006251835E+03 0.  0.
         13    1    3    3    0    0 -0.14390576146E+03 -0.97465840714E+02 -0.20262308797E+03  0.26695425463E+03  0.00000000000E+00 0.  1.
          1    1    3    3  501    0  0.11170446026E+03  0.98477625892E+02  0.13275358136E+03  0.19949747519E+03  0.00000000000E+00 0.  1.
         21    1    1    2  502  501  0.32201301197E+02 -0.10117851775E+01  0.31100725247E+02  0.44779488819E+02  0.00000000000E+00 0. -1.
<scales pt_clust_4="550.00000" pt_clust_5="550.00000" pt_clust_6="32.21719"></scales>
<mgrwt>
<rscale>  0 0.30000000E+03</rscale>
<asrwt>  1 0.32217193E+02</asrwt>
<pdfrwt beam="1">  1        1 0.85902261E+00 0.30000000E+03</pdfrwt>
<pdfrwt beam="2">0</pdfrwt>
<totfact> 0.33649988E-04</totfact>
</mgrwt>
<clustering>
<clus scale="   32.217">  1  6  2 -1</clus>
<clus scale="  460.063">  4  5 -1 -1</clus>
<clus scale="  300.000">  1  4  2 -1</clus>
</clustering>
</event>
<event>
 6    1  0.1029244E-011  0.3000000E+03  0.7818608E-02  0.1093470E+00
          1   -1    0    0  502    0  0.00000000000E+00  0.00000000000E+00  0.23501581508E+03  0.23501581508E+03  0.00000000000E+00 0.  1.
         13   -1    0    0    0    0 -0.00000000000E+00 -0.00000000000E+00 -0.27500000000E+03  0.27500000000E+03  0.00000000000E+00 0.  1.
    9000005    2    1    2  501    0 -0.33400083912E+01  0.30642967019E+02 -0.51882413279E+02  0.47697470551E+03  0.47314156212E+03 0.  0.
         13    1    3    3    0    0  0.64375634347E+02  0.22354152254E+03  0.64928511978E+02  0.24151758997E+03  0.00000000000E+00 0.  1.
          1    1    3    3  501    0 -0.67715642738E+02 -0.19289855553E+03 -0.11681092526E+03  0.23545711553E+03  0.00000000000E+00 0.  1.
         21    1    1    2  502  501  0.33400083912E+01 -0.30642967019E+02  0.11898228359E+02  0.33041109574E+02  0.00000000000E+00 0. -1.
<scales pt_clust_4="550.00000" pt_clust_5="550.00000" pt_clust_6="30.82446"></scales>
<mgrwt>
<rscale>  0 0.30000000E+03</rscale>
<asrwt>  1 0.30824456E+02</asrwt>
<pdfrwt beam="1">  1        1 0.85460296E+00 0.30000000E+03</pdfrwt>
<pdfrwt beam="2">0</pdfrwt>
<totfact> 0.37658796E-04</totfact>
</mgrwt>
<clustering>
<clus scale="   30.824">  1  6  2 -1</clus>
<clus scale="  473.142">  4  5 -1 -1</clus>
<clus scale="  300.000">  1  4  2 -1</clus>
</clustering>
</event>
<event>
 6    1  0.1029244E-011  0.3000000E+03  0.7818608E-02  0.1093470E+00
          1   -1    0    0  502    0  0.00000000000E+00  0.00000000000E+00  0.22572164514E+03  0.22572164514E+03  0.00000000000E+00 0.  1.
         13   -1    0    0    0    0 -0.00000000000E+00 -0.00000000000E+00 -0.27500000000E+03  0.27500000000E+03  0.00000000000E+00 0.  1.
    9000005    2    1    2  501    0 -0.33781523180E+00  0.37311388855E+02 -0.48367588543E+02  0.46339761330E+03  0.45935353546E+03 0.  0.
         13    1    3    3    0    0 -0.13849193090E+03 -0.16367809728E+03 -0.47016092363E+02  0.21950181638E+03  0.00000000000E+00 0.  1.
          3    1    3    3  501    0  0.13815411567E+03  0.20098948614E+03 -0.13514961801E+01  0.24389579692E+03  0.00000000000E+00 0.  1.
         21    1    1    2  502  501  0.33781523180E+00 -0.37311388855E+02 -0.91076631427E+00  0.37324031839E+02  0.00000000000E+00 0.  1.
<scales pt_clust_4="550.00000" pt_clust_5="550.00000" pt_clust_6="37.31292"></scales>
<mgrwt>
<rscale>  0 0.30000000E+03</rscale>
<asrwt>  1 0.37312918E+02</asrwt>
<pdfrwt beam="1">  1        1 0.82080598E+00 0.30000000E+03</pdfrwt>
<pdfrwt beam="2">0</pdfrwt>
<totfact> 0.70327786E-04</totfact>
</mgrwt>
<clustering>
<clus scale="   37.313">  1  6  2 -1</clus>
<clus scale="  459.354">  4  5 -1 -1</clus>
<clus scale="  300.000">  1  4  2 -1</clus>
</clustering>
</event>
<event>
 6    1  0.1029244E-011  0.3000000E+03  0.7818608E-02  0.1093470E+00
          1   -1    0    0  502    0  0.00000000000E+00  0.00000000000E+00  0.22305179160E+03  0.22305179160E+03  0.00000000000E+00 0.  1.
         13   -1    0    0    0    0 -0.00000000000E+00 -0.00000000000E+00 -0.27500000000E+03  0.27500000000E+03  0.00000000000E+00 0.  1.
    9000005    2    1    2  501    0  0.33211079980E+02 -0.12011302223E+02 -0.57427115408E+02  0.46231293828E+03  0.45737089119E+03 0.  0.
         13    1    3    3    0    0  0.17175881089E+03  0.40736161315E+02  0.13297373826E+03  0.22100348193E+03  0.00000000000E+00 0.  1.
          3    1    3    3  501    0 -0.13854773091E+03 -0.52747463538E+02 -0.19040085367E+03  0.24130945636E+03  0.00000000000E+00 0.  1.
         21    1    1    2  502  501 -0.33211079980E+02  0.12011302223E+02  0.54789070120E+01  0.35738853320E+02  0.00000000000E+00 0.  1.
<scales pt_clust_4="550.00000" pt_clust_5="550.00000" pt_clust_6="35.31639"></scales>
<mgrwt>
<rscale>  0 0.30000000E+03</rscale>
<asrwt>  1 0.35316387E+02</asrwt>
<pdfrwt beam="1">  1        1 0.81109742E+00 0.30000000E+03</pdfrwt>
<pdfrwt beam="2">0</pdfrwt>
<totfact> 0.85363740E-04</totfact>
</mgrwt>
<clustering>
<clus scale="   35.316">  1  6  2 -1</clus>
<clus scale="  457.371">  4  5 -1 -1</clus>
<clus scale="  300.000">  1  4  2 -1</clus>
</clustering>
</event>
<event>
 6    1  0.1029244E-011  0.3000000E+03  0.7818608E-02  0.1093470E+00
          1   -1    0    0  502    0  0.00000000000E+00  0.00000000000E+00  0.24163693031E+03  0.24163693031E+03  0.00000000000E+00 0.  1.
         13   -1    0    0    0    0 -0.00000000000E+00 -0.00000000000E+00 -0.27500000000E+03  0.27500000000E+03  0.00000000000E+00 0.  1.
    9000005    2    1    2  501    0 -0.26736779654E+02  0.20911428066E+02 -0.44714891753E+02  0.48084577115E+03  0.47755742155E+03 0.  0.
         13    1    3    3    0    0  0.82188149727E+02 -0.45658411523E+02  0.19094179635E+03  0.21283409523E+03  0.00000000000E+00 0.  1.
          3    1    3    3  501    0 -0.10892492938E+03  0.66569839588E+02 -0.23565668810E+03  0.26801167592E+03  0.00000000000E+00 0.  1.
         21    1    1    2  502  501  0.26736779654E+02 -0.20911428066E+02  0.11351822067E+02  0.35791159164E+02  0.00000000000E+00 0. -1.
<scales pt_clust_4="550.00000" pt_clust_5="550.00000" pt_clust_6="33.94324"></scales>
<mgrwt>
<rscale>  0 0.30000000E+03</rscale>
<asrwt>  1 0.33943235E+02</asrwt>
<pdfrwt beam="1">  1        1 0.87867975E+00 0.30000000E+03</pdfrwt>
<pdfrwt beam="2">0</pdfrwt>
<totfact> 0.20592352E-04</totfact>
</mgrwt>
<clustering>
<clus scale="   33.943">  1  6  2 -1</clus>
<clus scale="  477.557">  4  5 -1 -1</clus>
<clus scale="  300.000">  1  4  2 -1</clus>
</clustering>
</event>
<event>
 6    1  0.1029244E-011  0.3000000E+03  0.7818608E-02  0.1093470E+00
          1   -1    0    0  502    0  0.00000000000E+00  0.00000000000E+00  0.24207138594E+03  0.24207138594E+03  0.00000000000E+00 0.  1.
         13   -1    0    0    0    0 -0.00000000000E+00 -0.00000000000E+00 -0.27500000000E+03  0.27500000000E+03  0.00000000000E+00 0.  1.
    9000005    2    1    2  501    0  0.31938272070E+02  0.21322570769E+02 -0.46349653263E+02  0.47639178982E+03  0.47257395379E+03 0.  0.
         13    1    3    3    0    0 -0.17563213463E+03 -0.98614548992E+02  0.65564464433E+02  0.21182581284E+03  0.00000000000E+00 0.  1.
          3    1    3    3  501    0  0.20757040670E+03  0.11993711976E+03 -0.11191411770E+03  0.26456597698E+03  0.00000000000E+00 0.  1.
         21    1    1    2  502  501 -0.31938272070E+02 -0.21322570769E+02  0.13421039199E+02  0.40679596116E+02  0.00000000000E+00 0.  1.
<scales pt_clust_4="550.00000" pt_clust_5="550.00000" pt_clust_6="38.40189"></scales>
<mgrwt>
<rscale>  0 0.30000000E+03</rscale>
<asrwt>  1 0.38401891E+02</asrwt>
<pdfrwt beam="1">  1        1 0.88025959E+00 0.30000000E+03</pdfrwt>
<pdfrwt beam="2">0</pdfrwt>
<totfact> 0.19258094E-04</totfact>
</mgrwt>
<clustering>
<clus scale="   38.402">  1  6  2 -1</clus>
<clus scale="  472.574">  4  5 -1 -1</clus>
<clus scale="  300.000">  1  4  2 -1</clus>
</clustering>
</event>
<event>
 6    1  0.1029244E-011  0.3000000E+03  0.7818608E-02  0.1093470E+00
          1   -1    0    0  502    0  0.00000000000E+00  0.00000000000E+00  0.23869687777E+03  0.23869687777E+03  0.00000000000E+00 0.  1.
         13   -1    0    0    0    0 -0.00000000000E+00 -0.00000000000E+00 -0.27500000000E+03  0.27500000000E+03  0.00000000000E+00 0.  1.
    9000005    2    1    2  501    0 -0.34213687780E+02 -0.14457296300E+02 -0.56961112058E+02  0.47119579083E+03  0.46626313939E+03 0.  0.
         13    1    3    3    0    0  0.20313061713E+03 -0.12752112377E+02 -0.10502098553E+03  0.22902853837E+03  0.00000000000E+00 0.  1.
          3    1    3    3  501    0 -0.23734430491E+03 -0.17051839234E+01  0.48059873474E+02  0.24216725246E+03  0.00000000000E+00 0.  1.
         21    1    1    2  502  501  0.34213687780E+02  0.14457296300E+02  0.20657989830E+02  0.42501086947E+02  0.00000000000E+00 0. -1.
<scales pt_clust_4="550.00000" pt_clust_5="550.00000" pt_clust_6="37.14283"></scales>
<mgrwt>
<rscale>  0 0.30000000E+03</rscale>
<asrwt>  1 0.37142830E+02</asrwt>
<pdfrwt beam="1">  1        1 0.86798865E+00 0.30000000E+03</pdfrwt>
<pdfrwt beam="2">0</pdfrwt>
<totfact> 0.26270016E-04</totfact>
</mgrwt>
<clustering>
<clus scale="   37.143">  1  6  2 -1</clus>
<clus scale="  466.263">  4  5 -1 -1</clus>
<clus scale="  300.000">  1  4  2 -1</clus>
</clustering>
</event>
<event>
 6    1  0.1029244E-011  0.3000000E+03  0.7818608E-02  0.1093470E+00
          1   -1    0    0  502    0  0.00000000000E+00  0.00000000000E+00  0.22443251036E+03  0.22443251036E+03  0.00000000000E+00 0.  1.
         13   -1    0    0    0    0 -0.00000000000E+00 -0.00000000000E+00 -0.27500000000E+03  0.27500000000E+03  0.00000000000E+00 0.  1.
    9000005    2    1    2  501    0  0.71374192937E+00 -0.37369079400E+02 -0.45486755030E+02  0.46171286844E+03  0.45794406916E+03 0.  0.
         13    1    3    3    0    0  0.31677255440E+02  0.14505777753E+03  0.13685765584E+03  0.20192876293E+03  0.00000000000E+00 0.  1.
          1    1    3    3  501    0 -0.30963513511E+02 -0.18242685693E+03 -0.18234441087E+03  0.25978410551E+03  0.00000000000E+00 0.  1.
         21    1    1    2  502  501 -0.71374192937E+00  0.37369079400E+02 -0.50807346063E+01  0.37719641924E+02  0.00000000000E+00 0.  1.
<scales pt_clust_4="550.00000" pt_clust_5="550.00000" pt_clust_6="37.37591"></scales>
<mgrwt>
<rscale>  0 0.30000000E+03</rscale>
<asrwt>  1 0.37375914E+02</asrwt>
<pdfrwt beam="1">  1        1 0.81611822E+00 0.30000000E+03</pdfrwt>
<pdfrwt beam="2">0</pdfrwt>
<totfact> 0.77010432E-04</totfact>
</mgrwt>
<clustering>
<clus scale="   37.376">  1  6  2 -1</clus>
<clus scale="  457.944">  4  5 -1 -1</clus>
<clus scale="  300.000">  1  4  2 -1</clus>
</clustering>
</event>
<event>
 6    1  0.1029244E-011  0.3000000E+03  0.7818608E-02  0.1093470E+00
          1   -1    0    0  502    0  0.00000000000E+00  0.00000000000E+00  0.23567936219E+03  0.23567936219E+03  0.00000000000E+00 0.  1.
         13   -1    0    0    0    0 -0.00000000000E+00 -0.00000000000E+00 -0.27500000000E+03  0.27500000000E+03  0.00000000000E+00 0.  1.
    9000005    2    1    2  501    0  0.18852038385E+01  0.46118979707E+02 -0.33075011056E+02  0.46410123281E+03  0.46061424604E+03 0.  0.
         13    1    3    3    0    0 -0.14351221684E+02  0.24909197370E+03  0.29106462545E+02  0.25119704435E+03  0.00000000000E+00 0.  1.
          1    1    3    3  501    0  0.16236425522E+02 -0.20297299400E+03 -0.62181473600E+02  0.21290418846E+03  0.00000000000E+00 0.  1.
         21    1    1    2  502  501 -0.18852038385E+01 -0.46118979707E+02 -0.62456267569E+01  0.46578129377E+02  0.00000000000E+00 0.  1.
<scales pt_clust_4="550.00000" pt_clust_5="550.00000" pt_clust_6="46.15752"></scales>
<mgrwt>
<rscale>  0 0.30000000E+03</rscale>
<asrwt>  1 0.46157517E+02</asrwt>
<pdfrwt beam="1">  1        1 0.85701586E+00 0.30000000E+03</pdfrwt>
<pdfrwt beam="2">0</pdfrwt>
<totfact> 0.33053526E-04</totfact>
</mgrwt>
<clustering>
<clus scale="   46.158">  1  6  2 -1</clus>
<clus scale="  460.614">  4  5 -1 -1</clus>
<clus scale="  300.000">  1  4  2 -1</clus>
</clustering>
</event>
<event>
 6    1  0.1029244E-011  0.3000000E+03  0.7818608E-02  0.1093470E+00
          1   -1    0    0  502    0  0.00000000000E+00  0.00000000000E+00  0.26339617593E+03  0.26339617593E+03  0.00000000000E+00 0.  1.
         13   -1    0    0    0    0 -0.00000000000E+00 -0.00000000000E+00 -0.27500000000E+03  0.27500000000E+03  0.00000000000E+00 0.  1.
    9000005    2    1    2  501    0  0.18049026053E+01 -0.30716089681E+02 -0.27908469586E+02  0.50357409523E+03  0.50185779946E+03 0.  0.
         13    1    3    3    0    0 -0.12286441214E+03 -0.13436616607E+03  0.16906274700E+03  0.24845953952E+03  0.00000000000E+00 0.  1.
          1    1    3    3  501    0  0.12466931474E+03  0.10365007639E+03 -0.19697121659E+03  0.25511455572E+03  0.00000000000E+00 0.  1.
         21    1    1    2  502  501 -0.18049026053E+01  0.30716089681E+02  0.16304645520E+02  0.34822080700E+02  0.00000000000E+00 0.  1.
<scales pt_clust_4="550.00000" pt_clust_5="550.00000" pt_clust_6="30.76907"></scales>
<mgrwt>
<rscale>  0 0.30000000E+03</rscale>
<asrwt>  1 0.30769073E+02</asrwt>
<pdfrwt beam="1">  1        1 0.95780428E+00 0.30000000E+03</pdfrwt>
<pdfrwt beam="2">0</pdfrwt>
<totfact> 0.86660057E-06</totfact>
</mgrwt>
<clustering>
<clus scale="   30.769">  1  6  2 -1</clus>
<clus scale="  501.858">  4  5 -1 -1</clus>
<clus scale="  300.000">  1  4  2 -1</clus>
</clustering>
</event>
<event>
 6    1  0.1029244E-011  0.3000000E+03  0.7818608E-02  0.1093470E+00
          1   -1    0    0  502    0  0.00000000000E+00  0.00000000000E+00  0.24944427681E+03  0.24944427681E+03  0.00000000000E+00 0.  1.
         13   -1    0    0    0    0 -0.00000000000E+00 -0.00000000000E+00 -0.27500000000E+03  0.27500000000E+03  0.00000000000E+00 0.  1.
    9000005    2    1    2  501    0  0.25491250542E+02  0.46486009757E+02 -0.37689463011E+02  0.47005695660E+03  0.46553441749E+03 0.  0.
         13    1    3    3    0    0 -0.44616000261E+02  0.16707020975E+03  0.15497104939E+03  0.23220479886E+03  0.00000000000E+00 0.  1.
          1    1    3    3  501    0  0.70107250803E+02 -0.12058419999E+03 -0.19266051240E+03  0.23785215774E+03  0.00000000000E+00 0.  1.
         21    1    1    2  502  501 -0.25491250542E+02 -0.46486009757E+02  0.12133739819E+02  0.54387320207E+02  0.00000000000E+00 0.  1.
<scales pt_clust_4="550.00000" pt_clust_5="550.00000" pt_clust_6="53.01653"></scales>
<mgrwt>
<rscale>  0 0.30000000E+03</rscale>
<asrwt>  1 0.53016535E+02</asrwt>
<pdfrwt beam="1">  1        1 0.90707010E+00 0.30000000E+03</pdfrwt>
<pdfrwt beam="2">0</pdfrwt>
<totfact> 0.77901148E-05</totfact>
</mgrwt>
<clustering>
<clus scale="   53.017">  1  6  2 -1</clus>
<clus scale="  465.534">  4  5 -1 -1</clus>
<clus scale="  300.000">  1  4  2 -1</clus>
</clustering>
</event>
<event>
 6    1  0.1029244E-011  0.3000000E+03  0.7818608E-02  0.1093470E+00
          1   -1    0    0  502    0  0.00000000000E+00  0.00000000000E+00  0.23790423245E+03  0.23790423245E+03  0.00000000000E+00 0.  1.
         13   -1    0    0    0    0 -0.00000000000E+00 -0.00000000000E+00 -0.27500000000E+03  0.27500000000E+03  0.00000000000E+00 0.  1.
    9000005    2    1    2  501    0  0.39797546632E+02 -0.25430125860E+01 -0.24361468330E+02  0.47104167151E+03  0.46871789333E+03 0.  0.
         13    1    3    3    0    0  0.71462851111E+02  0.20487444341E+03  0.86675740099E+02  0.23365179343E+03  0.00000000000E+00 0.  1.
          1    1    3    3  501    0 -0.31665304478E+02 -0.20741745600E+03 -0.11103720843E+03  0.23738987808E+03  0.00000000000E+00 0.  1.
         21    1    1    2  502  501 -0.39797546632E+02  0.25430125860E+01 -0.12734299225E+02  0.41862560931E+02  0.00000000000E+00 0. -1.
<scales pt_clust_4="550.00000" pt_clust_5="550.00000" pt_clust_6="39.87873"></scales>
<mgrwt>
<rscale>  0 0.30000000E+03</rscale>
<asrwt>  1 0.39878731E+02</asrwt>
<pdfrwt beam="1">  1        1 0.86510630E+00 0.30000000E+03</pdfrwt>
<pdfrwt beam="2">0</pdfrwt>
<totfact> 0.27816048E-04</totfact>
</mgrwt>
<clustering>
<clus scale="   39.879">  1  6  2 -1</clus>
<clus scale="  468.718">  4  5 -1 -1</clus>
<clus scale="  300.000">  1  4  2 -1</clus>
</clustering>
</event>
<event>
 6    1  0.1029244E-011  0.3000000E+03  0.7818608E-02  0.1093470E+00
          1   -1    0    0  502    0  0.00000000000E+00  0.00000000000E+00  0.23397090261E+03  0.23397090261E+03  0.00000000000E+00 0.  1.
         13   -1    0    0    0    0 -0.00000000000E+00 -0.00000000000E+00 -0.27500000000E+03  0.27500000000E+03  0.00000000000E+00 0.  1.
    9000005    2    1    2  501    0  0.27105718885E+02  0.30284198528E+02 -0.62819966742E+02  0.46285480278E+03  0.45676730132E+03 0.  0.
         13    1    3    3    0    0  0.65713961657E+02  0.14734131855E+03  0.14781320319E+03  0.21880706558E+03  0.00000000000E+00 0.  1.
          1    1    3    3  501    0 -0.38608242772E+02 -0.11705712002E+03 -0.21063316993E+03  0.24404773720E+03  0.00000000000E+00 0.  1.
         21    1    1    2  502  501 -0.27105718885E+02 -0.30284198528E+02  0.21790869355E+02  0.46116099835E+02  0.00000000000E+00 0. -1.
<scales pt_clust_4="550.00000" pt_clust_5="550.00000" pt_clust_6="40.64299"></scales>
<mgrwt>
<rscale>  0 0.30000000E+03</rscale>
<asrwt>  1 0.40642990E+02</asrwt>
<pdfrwt beam="1">  1        1 0.85080328E+00 0.30000000E+03</pdfrwt>
<pdfrwt beam="2">0</pdfrwt>
<totfact> 0.38907533E-04</totfact>
</mgrwt>
<clustering>
<clus scale="   40.643">  1  6  2 -1</clus>
<clus scale="  456.767">  4  5 -1 -1</clus>
<clus scale="  300.000">  1  4  2 -1</clus>
</clustering>
</event>
<event>
 6    1  0.1029244E-011  0.3000000E+03  0.7818608E-02  0.1093470E+00
          1   -1    0    0  502    0  0.00000000000E+00  0.00000000000E+00  0.23934597555E+03  0.23934597555E+03  0.00000000000E+00 0.  1.
         13   -1    0    0    0    0 -0.00000000000E+00 -0.00000000000E+00 -0.27500000000E+03  0.27500000000E+03  0.00000000000E+00 0.  1.
    9000005    2    1    2  501    0 -0.25899172794E+02  0.32152448271E+02 -0.46926285013E+02  0.47154865157E+03  0.46738796250E+03 0.  0.
         13    1    3    3    0    0 -0.16167160402E+03 -0.14679965568E+03 -0.10085035670E+03  0.24053823168E+03  0.00000000000E+00 0.  1.
          1    1    3    3  501    0  0.13577243123E+03  0.17895210395E+03  0.53924071692E+02  0.23101041989E+03  0.00000000000E+00 0.  1.
         21    1    1    2  502  501  0.25899172794E+02 -0.32152448271E+02  0.11272260559E+02  0.42797323974E+02  0.00000000000E+00 0. -1.
<scales pt_clust_4="550.00000" pt_clust_5="550.00000" pt_clust_6="41.28616"></scales>
<mgrwt>
<rscale>  0 0.30000000E+03</rscale>
<asrwt>  1 0.41286161E+02</asrwt>
<pdfrwt beam="1">  1        1 0.87034900E+00 0.30000000E+03</pdfrwt>
<pdfrwt beam="2">0</pdfrwt>
<totfact> 0.24365186E-04</totfact>
</mgrwt>
<clustering>
<clus scale="   41.286">  1  6  2 -1</clus>
<clus scale="  467.388">  4  5 -1 -1</clus>
<clus scale="  300.000">  1  4  2 -1</clus>
</clustering>
</event>
<event>
 6    1  0.1029244E-011  0.3000000E+03  0.7818608E-02  0.1093470E+00
          1   -1    0    0  502    0  0.00000000000E+00  0.00000000000E+00  0.22579886406E+03  0.22579886406E+03  0.00000000000E+00 0.  1.
         13   -1    0    0    0    0 -0.00000000000E+00 -0.00000000000E+00 -0.27500000000E+03  0.27500000000E+03  0.00000000000E+00 0.  1.
    9000005    2    1    2  501    0 -0.18854868750E+02  0.28553193297E+02 -0.44959378401E+02  0.46632012525E+03  0.46288478327E+03 0.  0.
         13    1    3    3    0    0  0.12657791919E+03  0.20133337785E+03 -0.12347472547E+02  0.23813768862E+03  0.00000000000E+00 0.  1.
          3    1    3    3  501    0 -0.14543278794E+03 -0.17278018455E+03 -0.32611905854E+02  0.22818243663E+03  0.00000000000E+00 0.  1.
         21    1    1    2  502  501  0.18854868750E+02 -0.28553193297E+02 -0.42417575408E+01  0.34478738812E+02  0.00000000000E+00 0. -1.
<scales pt_clust_4="550.00000" pt_clust_5="550.00000" pt_clust_6="34.21684"></scales>
<mgrwt>
<rscale>  0 0.30000000E+03</rscale>
<asrwt>  1 0.34216839E+02</asrwt>
<pdfrwt beam="1">  1        1 0.82108678E+00 0.30000000E+03</pdfrwt>
<pdfrwt beam="2">0</pdfrwt>
<totfact> 0.71068297E-04</totfact>
</mgrwt>
<clustering>
<clus scale="   34.217">  1  6  2 -1</clus>
<clus scale="  462.885">  4  5 -1 -1</clus>
<clus scale="  300.000">  1  4  2 -1</clus>
</clustering>
</event>
<event>
 6    1  0.1029244E-011  0.3000000E+03  0.7818608E-02  0.1093470E+00
          1   -1    0    0  502    0  0.00000000000E+00  0.00000000000E+00  0.23366020959E+03  0.23366020959E+03  0.00000000000E+00 0.  1.
         13   -1    0    0    0    0 -0.00000000000E+00 -0.00000000000E+00 -0.27500000000E+03  0.27500000000E+03  0.00000000000E+00 0.  1.
    9000005    2    1    2  501    0  0.20792569415E+02 -0.24151650841E+02 -0.48863527472E+02  0.47591513667E+03  0.47232609479E+03 0.  0.
         13    1    3    3    0    0  0.15400033165E+03 -0.87508502844E+02  0.14737508341E+03  0.23041973750E+03  0.00000000000E+00 0.  1.
          1    1    3    3  501    0 -0.13320776223E+03  0.63356852003E+02 -0.19623861088E+03  0.24549539918E+03  0.00000000000E+00 0.  1.
         21    1    1    2  502  501 -0.20792569415E+02  0.24151650841E+02  0.75237370665E+01  0.32745072923E+02  0.00000000000E+00 0. -1.
<scales pt_clust_4="550.00000" pt_clust_5="550.00000" pt_clust_6="31.86900"></scales>
<mgrwt>
<rscale>  0 0.30000000E+03</rscale>
<asrwt>  1 0.31869000E+02</asrwt>
<pdfrwt beam="1">  1        1 0.84967349E+00 0.30000000E+03</pdfrwt>
<pdfrwt beam="2">0</pdfrwt>
<totfact> 0.41717338E-04</totfact>
</mgrwt>
<clustering>
<clus scale="   31.869">  1  6  2 -1</clus>
<clus scale="  472.326">  4  5 -1 -1</clus>
<clus scale="  300.000">  1  4  2 -1</clus>
</clustering>
</event>
<event>
 6    1  0.1029244E-011  0.3000000E+03  0.7818608E-02  0.1093470E+00
          1   -1    0    0  502    0  0.00000000000E+00  0.00000000000E+00  0.22822146587E+03  0.22822146587E+03  0.00000000000E+00 0.  1.
         13   -1    0    0    0    0 -0.00000000000E+00 -0.00000000000E+00 -0.27500000000E+03  0.27500000000E+03  0.00000000000E+00 0.  1.
    9000005    2    1    2  501    0  0.35055075595E+02  0.17710749853E+02 -0.29739887078E+02  0.46040973291E+03  0.45776646043E+03 0.  0.
         13    1    3    3    0    0  0.16468987436E+03 -0.12458292058E+03 -0.12935292660E+03  0.24367157905E+03  0.00000000000E+00 0.  1.
          1    1    3    3  501    0 -0.12963479877E+03  0.14229367043E+03  0.99613039525E+02  0.21673815386E+03  0.00000000000E+00 0.  1.
         21    1    1    2  502  501 -0.35055075595E+02 -0.17710749853E+02 -0.17038647052E+02  0.42811732956E+02  0.00000000000E+00 0. -1.
<scales pt_clust_4="550.00000" pt_clust_5="550.00000" pt_clust_6="39.27506"></scales>
<mgrwt>
<rscale>  0 0.30000000E+03</rscale>
<asrwt>  1 0.39275062E+02</asrwt>
<pdfrwt beam="1">  1        1 0.82989624E+00 0.30000000E+03</pdfrwt>
<pdfrwt beam="2">0</pdfrwt>
<totfact> 0.57968230E-04</totfact>
</mgrwt>
<clustering>
<clus scale="   39.275">  1  6  2 -1</clus>
<clus scale="  457.766">  4  5 -1 -1</clus>
<clus scale="  300.000">  1  4  2 -1</clus>
</clustering>
</event>
<event>
 6    1  0.1029244E-011  0.3000000E+03  0.7818608E-02  0.1093470E+00
          1   -1    0    0  502    0  0.00000000000E+00  0.00000000000E+00  0.24422773767E+03  0.24422773767E+03  0.00000000000E+00 0.  1.
         13   -1    0    0    0    0 -0.00000000000E+00 -0.00000000000E+00 -0.27500000000E+03  0.27500000000E+03  0.00000000000E+00 0.  1.
    9000005    2    1    2  501    0 -0.31685192560E-01 -0.46898989627E+02 -0.10920054193E+02  0.46830007918E+03  0.46581777590E+03 0.  0.
         13    1    3    3    0    0  0.78021749533E+02  0.19689723815E+03 -0.14511017853E+02  0.21228868418E+03  0.00000000000E+00 0.  1.
          1    1    3    3  501    0 -0.78053434726E+02 -0.24379622778E+03  0.35909636593E+01  0.25601139500E+03  0.00000000000E+00 0.  1.
         21    1    1    2  502  501  0.31685192560E-01  0.46898989627E+02 -0.19852208133E+02  0.50927658495E+02  0.00000000000E+00 0. -1.
<scales pt_clust_4="550.00000" pt_clust_5="550.00000" pt_clust_6="46.89902"></scales>
<mgrwt>
<rscale>  0 0.30000000E+03</rscale>
<asrwt>  1 0.46899024E+02</asrwt>
<pdfrwt beam="1">  1        1 0.88810086E+00 0.30000000E+03</pdfrwt>
<pdfrwt beam="2">0</pdfrwt>
<totfact> 0.14582155E-04</totfact>
</mgrwt>
<clustering>
<clus scale="   46.899">  1  6  2 -1</clus>
<clus scale="  465.818">  4  5 -1 -1</clus>
<clus scale="  300.000">  1  4  2 -1</clus>
</clustering>
</event>
<event>
 6    1  0.1029244E-011  0.3000000E+03  0.7818608E-02  0.1093470E+00
          1   -1    0    0  502    0  0.00000000000E+00  0.00000000000E+00  0.22945282723E+03  0.22945282723E+03  0.00000000000E+00 0.  1.
         13   -1    0    0    0    0 -0.00000000000E+00 -0.00000000000E+00 -0.27500000000E+03  0.27500000000E+03  0.00000000000E+00 0.  1.
    9000005    2    1    2  501    0 -0.24677293329E+02  0.26521328932E+02 -0.48646489598E+02  0.46809412182E+03  0.46414790341E+03 0.  0.
         13    1    3    3    0    0  0.11038558556E+03  0.33859939458E+02 -0.22079520441E+03  0.24916258807E+03  0.00000000000E+00 0.  1.
          3    1    3    3  501    0 -0.13506287889E+03 -0.73386105263E+01  0.17214871482E+03  0.21893153376E+03  0.00000000000E+00 0.  1.
         21    1    1    2  502  501  0.24677293329E+02 -0.26521328932E+02  0.30993168321E+01  0.36358705411E+02  0.00000000000E+00 0. -1.
<scales pt_clust_4="550.00000" pt_clust_5="550.00000" pt_clust_6="36.22637"></scales>
<mgrwt>
<rscale>  0 0.30000000E+03</rscale>
<asrwt>  1 0.36226367E+02</asrwt>
<pdfrwt beam="1">  1        1 0.83437392E+00 0.30000000E+03</pdfrwt>
<pdfrwt beam="2">0</pdfrwt>
<totfact> 0.54323399E-04</totfact>
</mgrwt>
<clustering>
<clus scale="   36.226">  1  6  2 -1</clus>
<clus scale="  464.148">  4  5 -1 -1</clus>
<clus scale="  300.000">  1  4  2 -1</clus>
</clustering>
</event>
<event>
 6    1  0.1029244E-011  0.3000000E+03  0.7818608E-02  0.1093470E+00
          1   -1    0    0  502    0  0.00000000000E+00  0.00000000000E+00  0.24024589408E+03  0.24024589408E+03  0.00000000000E+00 0.  1.
         13   -1    0    0    0    0 -0.00000000000E+00 -0.00000000000E+00 -0.27500000000E+03  0.27500000000E+03  0.00000000000E+00 0.  1.
    9000005    2    1    2  501    0 -0.45642970292E+01  0.30245162074E+02 -0.44944118695E+02  0.48300556225E+03  0.47993624235E+03 0.  0.
         13    1    3    3    0    0 -0.85746254613E+01 -0.83183066698E+02 -0.24175687977E+03  0.25581113288E+03  0.00000000000E+00 0.  1.
          3    1    3    3  501    0  0.40103284321E+01  0.11342822877E+03  0.19681276108E+03  0.22719442937E+03  0.00000000000E+00 0.  1.
         21    1    1    2  502  501  0.45642970292E+01 -0.30245162074E+02  0.10190012777E+02  0.32240331832E+02  0.00000000000E+00 0. -1.
<scales pt_clust_4="550.00000" pt_clust_5="550.00000" pt_clust_6="30.58762"></scales>
<mgrwt>
<rscale>  0 0.30000000E+03</rscale>
<asrwt>  1 0.30587622E+02</asrwt>
<pdfrwt beam="1">  1        1 0.87362143E+00 0.30000000E+03</pdfrwt>
<pdfrwt beam="2">0</pdfrwt>
<totfact> 0.23853187E-04</totfact>
</mgrwt>
<clustering>
<clus scale="   30.588">  1  6  2 -1</clus>
<clus scale="  479.936">  4  5 -1 -1</clus>
<clus scale="  300.000">  1  4  2 -1</clus>
</clustering>
</event>
<event>
 6    1  0.1029244E-011  0.3000000E+03  0.7818608E-02  0.1093470E+00
          1   -1    0    0  502    0  0.00000000000E+00  0.00000000000E+00  0.24950503555E+03  0.24950503555E+03  0.00000000000E+00 0.  1.
         13   -1    0    0    0    0 -0.00000000000E+00 -0.00000000000E+00 -0.27500000000E+03  0.27500000000E+03  0.00000000000E+00 0.  1.
    9000005    2    1    2  501    0 -0.14191272531E+02  0.57215492922E+02 -0.15498692141E+02  0.46471431465E+03  0.46069966349E+03 0.  0.
         13    1    3    3    0    0 -0.14782304399E+03 -0.35352897375E+02  0.16328288110E+03  0.22307572469E+03  0.00000000000E+00 0.  1.
          3    1    3    3  501    0  0.13363177146E+03  0.92568390298E+02 -0.17878157324E+03  0.24163858996E+03  0.00000000000E+00 0.  1.
         21    1    1    2  502  501  0.14191272531E+02 -0.57215492922E+02 -0.99962723040E+01  0.59790720906E+02  0.00000000000E+00 0. -1.
<scales pt_clust_4="550.00000" pt_clust_5="550.00000" pt_clust_6="58.94920"></scales>
<mgrwt>
<rscale>  0 0.30000000E+03</rscale>
<asrwt>  1 0.58949201E+02</asrwt>
<pdfrwt beam="1">  1        1 0.90729104E+00 0.30000000E+03</pdfrwt>
<pdfrwt beam="2">0</pdfrwt>
<totfact> 0.75653529E-05</totfact>
</mgrwt>
<clustering>
<clus scale="   58.949">  1  6  2 -1</clus>
<clus scale="  460.700">  4  5 -1 -1</clus>
<clus scale="  300.000">  1  4  2 -1</clus>
</clustering>
</event>
<event>
 6    1  0.1029244E-011  0.3000000E+03  0.7818608E-02  0.1093470E+00
          1   -1    0    0  502    0  0.00000000000E+00  0.00000000000E+00  0.23471023459E+03  0.23471023459E+03  0.00000000000E+00 0.  1.
         13   -1    0    0    0    0 -0.00000000000E+00 -0.00000000000E+00 -0.27500000000E+03  0.27500000000E+03  0.00000000000E+00 0.  1.
    9000005    2    1    2  501    0  0.33282305026E+02 -0.68245263749E+01 -0.65881176366E+02  0.46717546878E+03  0.46125730698E+03 0.  0.
         13    1    3    3    0    0 -0.12195968983E+03  0.18128396251E+03 -0.36472168355E+02  0.22151356634E+03  0.00000000000E+00 0.  1.
          1    1    3    3  501    0  0.15524199486E+03 -0.18810848888E+03 -0.29409008011E+02  0.24566190244E+03  0.00000000000E+00 0.  1.
         21    1    1    2  502  501 -0.33282305026E+02  0.68245263749E+01  0.25591410961E+02  0.42534765816E+02  0.00000000000E+00 0.  1.
<scales pt_clust_4="550.00000" pt_clust_5="550.00000" pt_clust_6="33.97478"></scales>
<mgrwt>
<rscale>  0 0.30000000E+03</rscale>
<asrwt>  1 0.33974785E+02</asrwt>
<pdfrwt beam="1">  1        1 0.85349176E+00 0.30000000E+03</pdfrwt>
<pdfrwt beam="2">0</pdfrwt>
<totfact> 0.37902542E-04</totfact>
</mgrwt>
<clustering>
<clus scale="   33.975">  1  6  2 -1</clus>
<clus scale="  461.257">  4  5 -1 -1</clus>
<clus scale="  300.000">  1  4  2 -1</clus>
</clustering>
</event>
<event>
 6    1  0.1029244E-011  0.3000000E+03  0.7818608E-02  0.1093470E+00
          1   -1    0    0  502    0  0.00000000000E+00  0.00000000000E+00  0.22182655531E+03  0.22182655531E+03  0.00000000000E+00 0.  1.
         13   -1    0    0    0    0 -0.00000000000E+00 -0.00000000000E+00 -0.27500000000E+03  0.27500000000E+03  0.00000000000E+00 0.  1.
    9000005    2    1    2  501    0  0.31078832168E+01 -0.34715421247E+02 -0.46168567768E+02  0.46127535686E+03  0.45763369498E+03 0.  0.
         13    1    3    3    0    0  0.74112212447E+02  0.15664474972E+02  0.19269016401E+03  0.20704466937E+03  0.00000000000E+00 0.  1.
          1    1    3    3  501    0 -0.71004329230E+02 -0.50379896219E+02 -0.23885873178E+03  0.25423068748E+03  0.00000000000E+00 0.  1.
         21    1    1    2  502  501 -0.31078832168E+01  0.34715421247E+02 -0.70048769257E+01  0.35551198449E+02  0.00000000000E+00 0. -1.
<scales pt_clust_4="550.00000" pt_clust_5="550.00000" pt_clust_6="34.85428"></scales>
<mgrwt>
<rscale>  0 0.30000000E+03</rscale>
<asrwt>  1 0.34854277E+02</asrwt>
<pdfrwt beam="1">  1        1 0.80664202E+00 0.30000000E+03</pdfrwt>
<pdfrwt beam="2">0</pdfrwt>
<totfact> 0.92656657E-04</totfact>
</mgrwt>
<clustering>
<clus scale="   34.854">  1  6  2 -1</clus>
<clus scale="  457.634">  4  5 -1 -1</clus>
<clus scale="  300.000">  1  4  2 -1</clus>
</clustering>
</event>
<event>
 6    1  0.1029244E-011  0.3000000E+03  0.7818608E-02  0.1093470E+00
          1   -1    0    0  502    0  0.00000000000E+00  0.00000000000E+00  0.24369263525E+03  0.24369263525E+03  0.00000000000E+00 0.  1.
         13   -1    0    0    0    0 -0.00000000000E+00 -0.00000000000E+00 -0.27500000000E+03  0.27500000000E+03  0.00000000000E+00 0.  1.
    9000005    2    1    2  501    0  0.36625983249E+02  0.13225846884E+02 -0.23914628463E+02  0.47905631069E+03  0.47687173714E+03 0.  0.
         13    1    3    3    0    0 -0.16836640929E+03  0.13507279804E+03 -0.86453116143E+02  0.23252107397E+03  0.00000000000E+00 0.  1.
          1    1    3    3  501    0  0.20499239254E+03 -0.12184695116E+03  0.62538487680E+02  0.24653523672E+03  0.00000000000E+00 0.  1.
         21    1    1    2  502  501 -0.36625983249E+02 -0.13225846884E+02 -0.73927362887E+01  0.39636324560E+02  0.00000000000E+00 0.  1.
<scales pt_clust_4="550.00000" pt_clust_5="550.00000" pt_clust_6="38.94082"></scales>
<mgrwt>
<rscale>  0 0.30000000E+03</rscale>
<asrwt>  1 0.38940817E+02</asrwt>
<pdfrwt beam="1">  1        1 0.88615504E+00 0.30000000E+03</pdfrwt>
<pdfrwt beam="2">0</pdfrwt>
<totfact> 0.16040832E-04</totfact>
</mgrwt>
<clustering>
<clus scale="   38.941">  1  6  2 -1</clus>
<clus scale="  476.872">  4  5 -1 -1</clus>
<clus scale="  300.000">  1  4  2 -1</clus>
</clustering>
</event>
<event>
 6    1  0.1029244E-011  0.3000000E+03  0.7818608E-02  0.1093470E+00
          1   -1    0    0  502    0  0.00000000000E+00  0.00000000000E+00  0.22216897583E+03  0.22216897583E+03  0.00000000000E+00 0.  1.
         13   -1    0    0    0    0 -0.00000000000E+00 -0.00000000000E+00 -0.27500000000E+03  0.27500000000E+03  0.00000000000E+00 0.  1.
    9000005    2    1    2  501    0 -0.30313142767E+02  0.12735579716E+02 -0.39280049812E+02  0.46160620708E+03  0.45875514873E+03 0.  0.
         13    1    3    3    0    0 -0.21900324091E+03  0.98021825836E+02  0.33185717359E+02  0.24222301646E+03  0.00000000000E+00 0.  1.
          3    1    3    3  501    0  0.18869009814E+03 -0.85286246120E+02 -0.72465767171E+02  0.21938319062E+03  0.00000000000E+00 0.  1.
         21    1    1    2  502  501  0.30313142767E+02 -0.12735579716E+02 -0.13550974358E+02  0.35562768750E+02  0.00000000000E+00 0.  1.
<scales pt_clust_4="550.00000" pt_clust_5="550.00000" pt_clust_6="32.87982"></scales>
<mgrwt>
<rscale>  0 0.30000000E+03</rscale>
<asrwt>  1 0.32879822E+02</asrwt>
<pdfrwt beam="1">  1        1 0.80788718E+00 0.30000000E+03</pdfrwt>
<pdfrwt beam="2">0</pdfrwt>
<totfact> 0.91637268E-04</totfact>
</mgrwt>
<clustering>
<clus scale="   32.880">  1  6  2 -1</clus>
<clus scale="  458.755">  4  5 -1 -1</clus>
<clus scale="  300.000">  1  4  2 -1</clus>
</clustering>
</event>
<event>
 6    1  0.1029244E-011  0.3000000E+03  0.7818608E-02  0.1093470E+00
          1   -1    0    0  502    0  0.00000000000E+00  0.00000000000E+00  0.24541221760E+03  0.24541221760E+03  0.00000000000E+00 0.  1.
         13   -1    0    0    0    0 -0.00000000000E+00 -0.00000000000E+00 -0.27500000000E+03  0.27500000000E+03  0.00000000000E+00 0.  1.
    9000005    2    1    2  501    0 -0.26280460419E+02  0.21735884706E+02 -0.59431489173E+02  0.47509380944E+03  0.47012648786E+03 0.  0.
         13    1    3    3    0    0 -0.93980467071E+02  0.10908727077E+03 -0.23029594047E+03  0.27160372058E+03  0.00000000000E+00 0.  1.
          1    1    3    3  501    0  0.67700006651E+02 -0.87351386061E+02  0.17086445130E+03  0.20349008886E+03  0.00000000000E+00 0.  1.
         21    1    1    2  502  501  0.26280460419E+02 -0.21735884706E+02  0.29843706770E+02  0.45318408154E+02  0.00000000000E+00 0. -1.
<scales pt_clust_4="550.00000" pt_clust_5="550.00000" pt_clust_6="34.10442"></scales>
<mgrwt>
<rscale>  0 0.30000000E+03</rscale>
<asrwt>  1 0.34104417E+02</asrwt>
<pdfrwt beam="1">  1        1 0.89240806E+00 0.30000000E+03</pdfrwt>
<pdfrwt beam="2">0</pdfrwt>
<totfact> 0.13576009E-04</totfact>
</mgrwt>
<clustering>
<clus scale="   34.104">  1  6  2 -1</clus>
<clus scale="  470.126">  4  5 -1 -1</clus>
<clus scale="  300.000">  1  4  2 -1</clus>
</clustering>
</event>
<event>
 6    1  0.1029244E-011  0.3000000E+03  0.7818608E-02  0.1093470E+00
          1   -1    0    0  502    0  0.00000000000E+00  0.00000000000E+00  0.25778207153E+03  0.25778207153E+03  0.00000000000E+00 0.  1.
         13   -1    0    0    0    0 -0.00000000000E+00 -0.00000000000E+00 -0.27500000000E+03  0.27500000000E+03  0.00000000000E+00 0.  1.
    9000005    2    1    2  501    0  0.24429846721E+02  0.23190729798E+02 -0.61416538525E+02  0.47721099551E+03  0.47204206981E+03 0.  0.
         13    1    3    3    0    0 -0.12215521513E+03 -0.13749740600E+03  0.97187529705E+02  0.20802127096E+03  0.00000000000E+00 0.  1.
          1    1    3    3  501    0  0.14658506185E+03  0.16068813580E+03 -0.15860406823E+03  0.26918972455E+03  0.00000000000E+00 0.  1.
         21    1    1    2  502  501 -0.24429846721E+02 -0.23190729798E+02  0.44198610052E+02  0.55571076019E+02  0.00000000000E+00 0. -1.
<scales pt_clust_4="550.00000" pt_clust_5="550.00000" pt_clust_6="33.68423"></scales>
<mgrwt>
<rscale>  0 0.30000000E+03</rscale>
<asrwt>  1 0.33684230E+02</asrwt>
<pdfrwt beam="1">  1        1 0.93738935E+00 0.30000000E+03</pdfrwt>
<pdfrwt beam="2">0</pdfrwt>
<totfact> 0.21165524E-05</totfact>
</mgrwt>
<clustering>
<clus scale="   33.684">  1  6  2 -1</clus>
<clus scale="  472.042">  4  5 -1 -1</clus>
<clus scale="  300.000">  1  4  2 -1</clus>
</clustering>
</event>
<event>
 6    1  0.1029244E-011  0.3000000E+03  0.7818608E-02  0.1093470E+00
          1   -1    0    0  502    0  0.00000000000E+00  0.00000000000E+00  0.24250808152E+03  0.24250808152E+03  0.00000000000E+00 0.  1.
         13   -1    0    0    0    0 -0.00000000000E+00 -0.00000000000E+00 -0.27500000000E+03  0.27500000000E+03  0.00000000000E+00 0.  1.
    9000005    2    1    2  501    0  0.22219285234E+02 -0.24165122073E+02 -0.34084943720E+02  0.48464187561E+03  0.48232594213E+03 0.  0.
         13    1    3    3    0    0  0.37448058158E+02 -0.21092167980E+03  0.11686710726E+03  0.24402506599E+03  0.00000000000E+00 0.  1.
          3    1    3    3  501    0 -0.15228772924E+02  0.18675655773E+03 -0.15095205098E+03  0.24061680963E+03  0.00000000000E+00 0.  1.
         21    1    1    2  502  501 -0.22219285234E+02  0.24165122073E+02  0.15930252375E+01  0.32866205904E+02  0.00000000000E+00 0. -1.
<scales pt_clust_4="550.00000" pt_clust_5="550.00000" pt_clust_6="32.82758"></scales>
<mgrwt>
<rscale>  0 0.30000000E+03</rscale>
<asrwt>  1 0.32827576E+02</asrwt>
<pdfrwt beam="1">  1        1 0.88184757E+00 0.30000000E+03</pdfrwt>
<pdfrwt beam="2">0</pdfrwt>
<totfact> 0.18929436E-04</totfact>
</mgrwt>
<clustering>
<clus scale="   32.828">  1  6  2 -1</clus>
<clus scale="  482.326">  4  5 -1 -1</clus>
<clus scale="  300.000">  1  4  2 -1</clus>
</clustering>
</event>
<event>
 6    1  0.1029244E-011  0.3000000E+03  0.7818608E-02  0.1093470E+00
          1   -1    0    0  502    0  0.00000000000E+00  0.00000000000E+00  0.24665862627E+03  0.24665862627E+03  0.00000000000E+00 0.  1.
         13   -1    0    0    0    0 -0.00000000000E+00 -0.00000000000E+00 -0.27500000000E+03  0.27500000000E+03  0.00000000000E+00 0.  1.
    9000005    2    1    2  501    0 -0.38659374705E+02 -0.62489397334E+01 -0.38608780779E+02  0.48117386187E+03  0.47802097328E+03 0.  0.
         13    1    3    3    0    0 -0.21672950651E+03  0.10060780692E+03  0.67046385144E+02  0.24817096439E+03  0.00000000000E+00 0.  1.
          3    1    3    3  501    0  0.17807013181E+03 -0.10685674665E+03 -0.10565516592E+03  0.23300289748E+03  0.00000000000E+00 0.  1.
         21    1    1    2  502  501  0.38659374705E+02  0.62489397334E+01  0.10267407044E+02  0.40484764391E+02  0.00000000000E+00 0.  1.
<scales pt_clust_4="550.00000" pt_clust_5="550.00000" pt_clust_6="39.16116"></scales>
<mgrwt>
<rscale>  0 0.30000000E+03</rscale>
<asrwt>  1 0.39161161E+02</asrwt>
<pdfrwt beam="1">  1        1 0.89694046E+00 0.30000000E+03</pdfrwt>
<pdfrwt beam="2">0</pdfrwt>
<totfact> 0.11748719E-04</totfact>
</mgrwt>
<clustering>
<clus scale="   39.161">  1  6  2 -1</clus>
<clus scale="  478.021">  4  5 -1 -1</clus>
<clus scale="  300.000">  1  4  2 -1</clus>
</clustering>
</event>
<event>
 6    1  0.1029244E-011  0.3000000E+03  0.7818608E-02  0.1093470E+00
          1   -1    0    0  502    0  0.00000000000E+00  0.00000000000E+00  0.23203080324E+03  0.23203080324E+03  0.00000000000E+00 0.  1.
         13   -1    0    0    0    0 -0.00000000000E+00 -0.00000000000E+00 -0.27500000000E+03  0.27500000000E+03  0.00000000000E+00 0.  1.
    9000005    2    1    2  501    0  0.18478515044E+02 -0.26346244557E+02 -0.68827408150E+02  0.46574851628E+03  0.45950939945E+03 0.  0.
         13    1    3    3    0    0 -0.67325580010E+02 -0.22825014878E+03 -0.80637001651E+01  0.23810898220E+03  0.00000000000E+00 0.  1.
          1    1    3    3  501    0  0.85804095054E+02  0.20190390423E+03 -0.60763707985E+02  0.22763953408E+03  0.00000000000E+00 0.  1.
         21    1    1    2  502  501 -0.18478515044E+02  0.26346244557E+02  0.25858211395E+02  0.41282286964E+02  0.00000000000E+00 0.  1.
<scales pt_clust_4="550.00000" pt_clust_5="550.00000" pt_clust_6="32.18043"></scales>
<mgrwt>
<rscale>  0 0.30000000E+03</rscale>
<asrwt>  1 0.32180431E+02</asrwt>
<pdfrwt beam="1">  1        1 0.84374838E+00 0.30000000E+03</pdfrwt>
<pdfrwt beam="2">0</pdfrwt>
<totfact> 0.47061191E-04</totfact>
</mgrwt>
<clustering>
<clus scale="   32.180">  1  6  2 -1</clus>
<clus scale="  459.509">  4  5 -1 -1</clus>
<clus scale="  300.000">  1  4  2 -1</clus>
</clustering>
</event>
<event>
 6    1  0.1029244E-011  0.3000000E+03  0.7818608E-02  0.1093470E+00
          1   -1    0    0  502    0  0.00000000000E+00  0.00000000000E+00  0.22405703246E+03  0.22405703246E+03  0.00000000000E+00 0.  1.
         13   -1    0    0    0    0 -0.00000000000E+00 -0.00000000000E+00 -0.27500000000E+03  0.27500000000E+03  0.00000000000E+00 0.  1.
    9000005    2    1    2  501    0 -0.33157002982E+02  0.56529092562E+01 -0.43284743031E+02  0.46456079162E+03  0.46131531289E+03 0.  0.
         13    1    3    3    0    0 -0.83802376951E+02  0.22158304627E+03  0.75454558806E+01  0.23702071362E+03  0.00000000000E+00 0.  1.
          3    1    3    3  501    0  0.50645373970E+02 -0.21593013702E+03 -0.50830198911E+02  0.22754007800E+03  0.00000000000E+00 0.  1.
         21    1    1    2  502  501  0.33157002982E+02 -0.56529092562E+01 -0.76582245047E+01  0.34496240844E+02  0.00000000000E+00 0.  1.
<scales pt_clust_4="550.00000" pt_clust_5="550.00000" pt_clust_6="33.63545"></scales>
<mgrwt>
<rscale>  0 0.30000000E+03</rscale>
<asrwt>  1 0.33635448E+02</asrwt>
<pdfrwt beam="1">  1        1 0.81475285E+00 0.30000000E+03</pdfrwt>
<pdfrwt beam="2">0</pdfrwt>
<totfact> 0.80570075E-04</totfact>
</mgrwt>
<clustering>
<clus scale="   33.635">  1  6  2 -1</clus>
<clus scale="  461.315">  4  5 -1 -1</clus>
<clus scale="  300.000">  1  4  2 -1</clus>
</clustering>
</event>
<event>
 6    1  0.1029244E-011  0.3000000E+03  0.7818608E-02  0.1093470E+00
          1   -1    0    0  502    0  0.00000000000E+00  0.00000000000E+00  0.23714156724E+03  0.23714156724E+03  0.00000000000E+00 0.  1.
         13   -1    0    0    0    0 -0.00000000000E+00 -0.00000000000E+00 -0.27500000000E+03  0.27500000000E+03  0.00000000000E+00 0.  1.
    9000005    2    1    2  501    0  0.38589271527E+02  0.32774447799E+01 -0.54862754417E+02  0.46984475322E+03  0.46502074876E+03 0.  0.
         13    1    3    3    0    0  0.13605291008E+03 -0.15640418282E+03 -0.15388983443E+03  0.25817580035E+03  0.00000000000E+00 0.  1.
          3    1    3    3  501    0 -0.97463638557E+02  0.15968162760E+03  0.99027080011E+02  0.21166895287E+03  0.00000000000E+00 0.  1.
         21    1    1    2  502  501 -0.38589271527E+02 -0.32774447799E+01  0.17004321653E+02  0.42296814019E+02  0.00000000000E+00 0. -1.
<scales pt_clust_4="550.00000" pt_clust_5="550.00000" pt_clust_6="38.72820"></scales>
<mgrwt>
<rscale>  0 0.30000000E+03</rscale>
<asrwt>  1 0.38728201E+02</asrwt>
<pdfrwt beam="1">  1        1 0.86233297E+00 0.30000000E+03</pdfrwt>
<pdfrwt beam="2">0</pdfrwt>
<totfact> 0.29963353E-04</totfact>
</mgrwt>
<clustering>
<clus scale="   38.728">  1  6  2 -1</clus>
<clus scale="  465.021">  4  5 -1 -1</clus>
<clus scale="  300.000">  1  4  2 -1</clus>
</clustering>
</event>
<event>
 6    1  0.1029244E-011  0.3000000E+03  0.7818608E-02  0.1093470E+00
          1   -1    0    0  502    0  0.00000000000E+00  0.00000000000E+00  0.23519166527E+03  0.23519166527E+03  0.00000000000E+00 0.  1.
         13   -1    0    0    0    0 -0.00000000000E+00 -0.00000000000E+00 -0.27500000000E+03  0.27500000000E+03  0.00000000000E+00 0.  1.
    9000005    2    1    2  501    0 -0.93263718378E+00 -0.37635150029E+02 -0.58940243014E+02  0.46796247815E+03  0.46270687739E+03 0.  0.
         13    1    3    3    0    0  0.13133933824E+03  0.16294468545E+03  0.30683700271E+02  0.21152418715E+03  0.00000000000E+00 0.  1.
          1    1    3    3  501    0 -0.13227197542E+03 -0.20057983548E+03 -0.89623943286E+02  0.25643829101E+03  0.00000000000E+00 0.  1.
         21    1    1    2  502  501  0.93263718378E+00  0.37635150029E+02  0.19131908281E+02  0.42229187114E+02  0.00000000000E+00 0.  1.
<scales pt_clust_4="550.00000" pt_clust_5="550.00000" pt_clust_6="37.64670"></scales>
<mgrwt>
<rscale>  0 0.30000000E+03</rscale>
<asrwt>  1 0.37646704E+02</asrwt>
<pdfrwt beam="1">  1        1 0.85524242E+00 0.30000000E+03</pdfrwt>
<pdfrwt beam="2">0</pdfrwt>
<totfact> 0.35744610E-04</totfact>
</mgrwt>
<clustering>
<clus scale="   37.647">  1  6  2 -1</clus>
<clus scale="  462.707">  4  5 -1 -1</clus>
<clus scale="  300.000">  1  4  2 -1</clus>
</clustering>
</event>
<event>
 6    1  0.1029244E-011  0.3000000E+03  0.7818608E-02  0.1093470E+00
          1   -1    0    0  502    0  0.00000000000E+00  0.00000000000E+00  0.22631811374E+03  0.22631811374E+03  0.00000000000E+00 0.  1.
         13   -1    0    0    0    0 -0.00000000000E+00 -0.00000000000E+00 -0.27500000000E+03  0.27500000000E+03  0.00000000000E+00 0.  1.
    9000005    2    1    2  501    0  0.25690877133E+02 -0.18784155873E+02 -0.68014230513E+02  0.46408096543E+03  0.45796543674E+03 0.  0.
         13    1    3    3    0    0 -0.16906413150E+03  0.11200498982E+03  0.38524383987E+02  0.20642656435E+03  0.00000000000E+00 0.  1.
          3    1    3    3  501    0  0.19475500864E+03 -0.13078914569E+03 -0.10653861450E+03  0.25765440109E+03  0.00000000000E+00 0.  1.
         21    1    1    2  502  501 -0.25690877133E+02  0.18784155873E+02  0.19332344254E+02  0.37237148307E+02  0.00000000000E+00 0.  1.
<scales pt_clust_4="550.00000" pt_clust_5="550.00000" pt_clust_6="31.82555"></scales>
<mgrwt>
<rscale>  0 0.30000000E+03</rscale>
<asrwt>  1 0.31825551E+02</asrwt>
<pdfrwt beam="1">  1        1 0.82297496E+00 0.30000000E+03</pdfrwt>
<pdfrwt beam="2">0</pdfrwt>
<totfact> 0.69327311E-04</totfact>
</mgrwt>
<clustering>
<clus scale="   31.826">  1  6  2 -1</clus>
<clus scale="  457.965">  4  5 -1 -1</clus>
<clus scale="  300.000">  1  4  2 -1</clus>
</clustering>
</event>
<event>
 6    1  0.1029244E-011  0.3000000E+03  0.7818608E-02  0.1093470E+00
          1   -1    0    0  502    0  0.00000000000E+00  0.00000000000E+00  0.24209926509E+03  0.24209926509E+03  0.00000000000E+00 0.  1.
         13   -1    0    0    0    0 -0.00000000000E+00 -0.00000000000E+00 -0.27500000000E+03  0.27500000000E+03  0.00000000000E+00 0.  1.
    9000005    2    1    2  501    0 -0.28310891328E+02 -0.20403156779E+02 -0.35878597815E+02  0.48207551541E+03  0.47947026331E+03 0.  0.
         13    1    3    3    0    0  0.11643505182E+03  0.17219151231E+03 -0.10299149302E+03  0.23197906337E+03  0.00000000000E+00 0.  1.
          1    1    3    3  501    0 -0.14474594315E+03 -0.19259466909E+03  0.67112895203E+02  0.25009645204E+03  0.00000000000E+00 0.  1.
         21    1    1    2  502  501  0.28310891328E+02  0.20403156779E+02  0.29778629057E+01  0.35023749682E+02  0.00000000000E+00 0.  1.
<scales pt_clust_4="550.00000" pt_clust_5="550.00000" pt_clust_6="34.89692"></scales>
<mgrwt>
<rscale>  0 0.30000000E+03</rscale>
<asrwt>  1 0.34896925E+02</asrwt>
<pdfrwt beam="1">  1        1 0.88036096E+00 0.30000000E+03</pdfrwt>
<pdfrwt beam="2">0</pdfrwt>
<totfact> 0.19546254E-04</totfact>
</mgrwt>
<clustering>
<clus scale="   34.897">  1  6  2 -1</clus>
<clus scale="  479.470">  4  5 -1 -1</clus>
<clus scale="  300.000">  1  4  2 -1</clus>
</clustering>
</event>
<event>
 6    1  0.1029244E-011  0.3000000E+03  0.7818608E-02  0.1093470E+00
          1   -1    0    0  502    0  0.00000000000E+00  0.00000000000E+00  0.23154386791E+03  0.23154386791E+03  0.00000000000E+00 0.  1.
         13   -1    0    0    0    0 -0.00000000000E+00 -0.00000000000E+00 -0.27500000000E+03  0.27500000000E+03  0.00000000000E+00 0.  1.
    9000005    2    1    2  501    0  0.32654024674E+02 -0.15040376066E+01 -0.24928026592E+02  0.46896943311E+03  0.46716418445E+03 0.  0.
         13    1    3    3    0    0  0.22392707353E+03 -0.10780100405E+03  0.16993120263E+01  0.24853023638E+03  0.00000000000E+00 0.  1.
          1    1    3    3  501    0 -0.19127304886E+03  0.10629696645E+03 -0.26627338618E+02  0.22043919673E+03  0.00000000000E+00 0.  1.
         21    1    1    2  502  501 -0.32654024674E+02  0.15040376066E+01 -0.18528105501E+02  0.37574434793E+02  0.00000000000E+00 0. -1.
<scales pt_clust_4="550.00000" pt_clust_5="550.00000" pt_clust_6="32.68866"></scales>
<mgrwt>
<rscale>  0 0.30000000E+03</rscale>
<asrwt>  1 0.32688660E+02</asrwt>
<pdfrwt beam="1">  1        1 0.84197770E+00 0.30000000E+03</pdfrwt>
<pdfrwt beam="2">0</pdfrwt>
<totfact> 0.48557261E-04</totfact>
</mgrwt>
<clustering>
<clus scale="   32.689">  1  6  2 -1</clus>
<clus scale="  467.164">  4  5 -1 -1</clus>
<clus scale="  300.000">  1  4  2 -1</clus>
</clustering>
</event>
<event>
 6    1  0.1029244E-011  0.3000000E+03  0.7818608E-02  0.1093470E+00
          1   -1    0    0  502    0  0.00000000000E+00  0.00000000000E+00  0.23894141479E+03  0.23894141479E+03  0.00000000000E+00 0.  1.
         13   -1    0    0    0    0 -0.00000000000E+00 -0.00000000000E+00 -0.27500000000E+03  0.27500000000E+03  0.00000000000E+00 0.  1.
    9000005    2    1    2  501    0  0.29711133277E+02  0.22379199807E+02 -0.61370010587E+02  0.46894976802E+03  0.46342639837E+03 0.  0.
         13    1    3    3    0    0 -0.90025716228E+02 -0.17738402780E+03 -0.11525365915E+03  0.22989808361E+03  0.00000000000E+00 0.  1.
          1    1    3    3  501    0  0.11973684951E+03  0.19976322761E+03  0.53883648566E+02  0.23905168441E+03  0.00000000000E+00 0.  1.
         21    1    1    2  502  501 -0.29711133277E+02 -0.22379199807E+02  0.25311425380E+02  0.44991646774E+02  0.00000000000E+00 0. -1.
<scales pt_clust_4="550.00000" pt_clust_5="550.00000" pt_clust_6="37.19651"></scales>
<mgrwt>
<rscale>  0 0.30000000E+03</rscale>
<asrwt>  1 0.37196506E+02</asrwt>
<pdfrwt beam="1">  1        1 0.86887787E+00 0.30000000E+03</pdfrwt>
<pdfrwt beam="2">0</pdfrwt>
<totfact> 0.25712652E-04</totfact>
</mgrwt>
<clustering>
<clus scale="   37.197">  1  6  2 -1</clus>
<clus scale="  463.426">  4  5 -1 -1</clus>
<clus scale="  300.000">  1  4  2 -1</clus>
</clustering>
</event>
<event>
 6    1  0.1029244E-011  0.3000000E+03  0.7818608E-02  0.1093470E+00
          1   -1    0    0  502    0  0.00000000000E+00  0.00000000000E+00  0.24333220219E+03  0.24333220219E+03  0.00000000000E+00 0.  1.
         13   -1    0    0    0    0 -0.00000000000E+00 -0.00000000000E+00 -0.27500000000E+03  0.27500000000E+03  0.00000000000E+00 0.  1.
    9000005    2    1    2  501    0  0.14445281938E+02  0.47741876970E+02 -0.54123245296E+02  0.46363119572E+03  0.45775168703E+03 0.  0.
         13    1    3    3    0    0 -0.39236937956E+02  0.20371715472E+03  0.10666620476E+03  0.23327643616E+03  0.00000000000E+00 0.  1.
          3    1    3    3  501    0  0.53682219894E+02 -0.15597527775E+03 -0.16078945006E+03  0.23035475956E+03  0.00000000000E+00 0.  1.
         21    1    1    2  502  501 -0.14445281938E+02 -0.47741876970E+02  0.22455447489E+02  0.54701006470E+02  0.00000000000E+00 0.  1.
<scales pt_clust_4="550.00000" pt_clust_5="550.00000" pt_clust_6="49.87938"></scales>
<mgrwt>
<rscale>  0 0.30000000E+03</rscale>
<asrwt>  1 0.49879384E+02</asrwt>
<pdfrwt beam="1">  1        1 0.88484437E+00 0.30000000E+03</pdfrwt>
<pdfrwt beam="2">0</pdfrwt>
<totfact> 0.15994433E-04</totfact>
</mgrwt>
<clustering>
<clus scale="   49.879">  1  6  2 -1</clus>
<clus scale="  457.752">  4  5 -1 -1</clus>
<clus scale="  300.000">  1  4  2 -1</clus>
</clustering>
</event>
<event>
 6    1  0.1029244E-011  0.3000000E+03  0.7818608E-02  0.1093470E+00
          1   -1    0    0  502    0  0.00000000000E+00  0.00000000000E+00  0.25700569509E+03  0.25700569509E+03  0.00000000000E+00 0.  1.
         13   -1    0    0    0    0 -0.00000000000E+00 -0.00000000000E+00 -0.27500000000E+03  0.27500000000E+03  0.00000000000E+00 0.  1.
    9000005    2    1    2  501    0  0.30804873769E+02  0.18415403574E+01  0.25852011854E+01  0.49491327551E+03  0.49394345374E+03 0.  0.
         13    1    3    3    0    0  0.24121925082E+02 -0.42444713782E+02  0.24427647597E+03  0.24910724138E+03  0.00000000000E+00 0.  1.
          3    1    3    3  501    0  0.66829486871E+01  0.44286254139E+02 -0.24169127478E+03  0.24580603413E+03  0.00000000000E+00 0.  1.
         21    1    1    2  502  501 -0.30804873769E+02 -0.18415403574E+01 -0.20579506096E+02  0.37092419575E+02  0.00000000000E+00 0.  1.
<scales pt_clust_4="550.00000" pt_clust_5="550.00000" pt_clust_6="30.85988"></scales>
<mgrwt>
<rscale>  0 0.30000000E+03</rscale>
<asrwt>  1 0.30859884E+02</asrwt>
<pdfrwt beam="1">  1        1 0.93456616E+00 0.30000000E+03</pdfrwt>
<pdfrwt beam="2">0</pdfrwt>
<totfact> 0.23350184E-05</totfact>
</mgrwt>
<clustering>
<clus scale="   30.860">  1  6  2 -1</clus>
<clus scale="  493.943">  4  5 -1 -1</clus>
<clus scale="  300.000">  1  4  2 -1</clus>
</clustering>
</event>
<event>
 6    1  0.1029244E-011  0.3000000E+03  0.7818608E-02  0.1093470E+00
          1   -1    0    0  502    0  0.00000000000E+00  0.00000000000E+00  0.25555780303E+03  0.25555780303E+03  0.00000000000E+00 0.  1.
         13   -1    0    0    0    0 -0.00000000000E+00 -0.00000000000E+00 -0.27500000000E+03  0.27500000000E+03  0.00000000000E+00 0.  1.
    9000005    2    1    2  501    0  0.56768788684E+01  0.45827428164E+02  0.59337920891E+01  0.47786699788E+03  0.47559360556E+03 0.  0.
         13    1    3    3    0    0  0.84967167511E+02  0.18101928528E+03  0.16149975004E+03  0.25704001724E+03  0.00000000000E+00 0.  1.
          3    1    3    3  501    0 -0.79290288643E+02 -0.13519185712E+03 -0.15556595796E+03  0.22082698064E+03  0.00000000000E+00 0.  1.
         21    1    1    2  502  501 -0.56768788684E+01 -0.45827428164E+02 -0.25375989063E+02  0.52690805144E+02  0.00000000000E+00 0.  1.
<scales pt_clust_4="550.00000" pt_clust_5="550.00000" pt_clust_6="46.17772"></scales>
<mgrwt>
<rscale>  0 0.30000000E+03</rscale>
<asrwt>  1 0.46177725E+02</asrwt>
<pdfrwt beam="1">  1        1 0.92930110E+00 0.30000000E+03</pdfrwt>
<pdfrwt beam="2">0</pdfrwt>
<totfact> 0.25666337E-05</totfact>
</mgrwt>
<clustering>
<clus scale="   46.178">  1  6  2 -1</clus>
<clus scale="  475.594">  4  5 -1 -1</clus>
<clus scale="  300.000">  1  4  2 -1</clus>
</clustering>
</event>
<event>
 6    1  0.1029244E-011  0.3000000E+03  0.7818608E-02  0.1093470E+00
          1   -1    0    0  502    0  0.00000000000E+00  0.00000000000E+00  0.26957050013E+03  0.26957050013E+03  0.00000000000E+00 0.  1.
         13   -1    0    0    0    0 -0.00000000000E+00 -0.00000000000E+00 -0.27500000000E+03  0.27500000000E+03  0.00000000000E+00 0.  1.
    9000005    2    1    2  501    0 -0.15382546844E+02 -0.26234194037E+02 -0.25578068524E+02  0.50809008754E+03  0.50653375384E+03 0.  0.
         13    1    3    3    0    0  0.19903687704E+03  0.41204965725E+02 -0.14866265205E+03  0.25182158711E+03  0.00000000000E+00 0.  1.
          1    1    3    3  501    0 -0.21441942388E+03 -0.67439159762E+02  0.12308458353E+03  0.25626850042E+03  0.00000000000E+00 0.  1.
         21    1    1    2  502  501  0.15382546844E+02  0.26234194037E+02  0.20148568654E+02  0.36480412593E+02  0.00000000000E+00 0.  1.
<scales pt_clust_4="550.00000" pt_clust_5="550.00000" pt_clust_6="30.41144"></scales>
<mgrwt>
<rscale>  0 0.30000000E+03</rscale>
<asrwt>  1 0.30411440E+02</asrwt>
<pdfrwt beam="1">  1        1 0.98025636E+00 0.30000000E+03</pdfrwt>
<pdfrwt beam="2">0</pdfrwt>
<totfact> 0.28707858E-06</totfact>
</mgrwt>
<clustering>
<clus scale="   30.411">  1  6  2 -1</clus>
<clus scale="  506.534">  4  5 -1 -1</clus>
<clus scale="  300.000">  1  4  2 -1</clus>
</clustering>
</event>
<event>
 6    1  0.1029244E-011  0.3000000E+03  0.7818608E-02  0.1093470E+00
          1   -1    0    0  502    0  0.00000000000E+00  0.00000000000E+00  0.23743671533E+03  0.23743671533E+03  0.00000000000E+00 0.  1.
         13   -1    0    0    0    0 -0.00000000000E+00 -0.00000000000E+00 -0.27500000000E+03  0.27500000000E+03  0.00000000000E+00 0.  1.
    9000005    2    1    2  501    0 -0.36602008591E+02  0.48515391098E+00 -0.46939502609E+02  0.47464973517E+03  0.47090244402E+03 0.  0.
         13    1    3    3    0    0  0.65384482191E+02  0.14369713589E+03 -0.19068053226E+03  0.24755416126E+03  0.00000000000E+00 0.  1.
          1    1    3    3  501    0 -0.10198649078E+03 -0.14321198198E+03  0.14374102965E+03  0.22709557391E+03  0.00000000000E+00 0.  1.
         21    1    1    2  502  501  0.36602008591E+02 -0.48515391098E+00  0.93762179414E+01  0.37786980167E+02  0.00000000000E+00 0.  1.
<scales pt_clust_4="550.00000" pt_clust_5="550.00000" pt_clust_6="36.60522"></scales>
<mgrwt>
<rscale>  0 0.30000000E+03</rscale>
<asrwt>  1 0.36605224E+02</asrwt>
<pdfrwt beam="1">  1        1 0.86340624E+00 0.30000000E+03</pdfrwt>
<pdfrwt beam="2">0</pdfrwt>
<totfact> 0.29477853E-04</totfact>
</mgrwt>
<clustering>
<clus scale="   36.605">  1  6  2 -1</clus>
<clus scale="  470.902">  4  5 -1 -1</clus>
<clus scale="  300.000">  1  4  2 -1</clus>
</clustering>
</event>
<event>
 6    1  0.1029244E-011  0.3000000E+03  0.7818608E-02  0.1093470E+00
          1   -1    0    0  502    0  0.00000000000E+00  0.00000000000E+00  0.22813312660E+03  0.22813312660E+03  0.00000000000E+00 0.  1.
         13   -1    0    0    0    0 -0.00000000000E+00 -0.00000000000E+00 -0.27500000000E+03  0.27500000000E+03  0.00000000000E+00 0.  1.
    9000005    2    1    2  501    0  0.38017561505E+02  0.14229689548E+02 -0.44711811248E+02  0.46248262426E+03  0.45852285944E+03 0.  0.
         13    1    3    3    0    0  0.15286266621E+03 -0.50511674122E+02  0.15480360178E+03  0.22334408223E+03  0.00000000000E+00 0.  1.
          1    1    3    3  501    0 -0.11484510470E+03  0.64741363670E+02 -0.19951541303E+03  0.23913854203E+03  0.00000000000E+00 0.  1.
         21    1    1    2  502  501 -0.38017561505E+02 -0.14229689548E+02 -0.21550621548E+01  0.40650502338E+02  0.00000000000E+00 0. -1.
<scales pt_clust_4="550.00000" pt_clust_5="550.00000" pt_clust_6="40.59334"></scales>
<mgrwt>
<rscale>  0 0.30000000E+03</rscale>
<asrwt>  1 0.40593337E+02</asrwt>
<pdfrwt beam="1">  1        1 0.82957501E+00 0.30000000E+03</pdfrwt>
<pdfrwt beam="2">0</pdfrwt>
<totfact> 0.57976050E-04</totfact>
</mgrwt>
<clustering>
<clus scale="   40.593">  1  6  2 -1</clus>
<clus scale="  458.523">  4  5 -1 -1</clus>
<clus scale="  300.000">  1  4  2 -1</clus>
</clustering>
</event>
<event>
 6    1  0.1029244E-011  0.3000000E+03  0.7818608E-02  0.1093470E+00
          1   -1    0    0  502    0  0.00000000000E+00  0.00000000000E+00  0.23148245526E+03  0.23148245526E+03  0.00000000000E+00 0.  1.
         13   -1    0    0    0    0 -0.00000000000E+00 -0.00000000000E+00 -0.27500000000E+03  0.27500000000E+03  0.00000000000E+00 0.  1.
    9000005    2    1    2  501    0 -0.31021071722E+02  0.11185595859E+02 -0.41685932069E+02  0.47345550793E+03  0.47046251350E+03 0.  0.
         13    1    3    3    0    0  0.75981138372E+02  0.11809844835E+03 -0.20651684600E+03  0.24973903294E+03  0.00000000000E+00 0.  1.
          1    1    3    3  501    0 -0.10700221009E+03 -0.10691285249E+03  0.16483091393E+03  0.22371647499E+03  0.00000000000E+00 0.  1.
         21    1    1    2  502  501  0.31021071722E+02 -0.11185595859E+02 -0.18316126664E+01  0.33026947339E+02  0.00000000000E+00 0.  1.
<scales pt_clust_4="550.00000" pt_clust_5="550.00000" pt_clust_6="32.97612"></scales>
<mgrwt>
<rscale>  0 0.30000000E+03</rscale>
<asrwt>  1 0.32976119E+02</asrwt>
<pdfrwt beam="1">  1        1 0.84175438E+00 0.30000000E+03</pdfrwt>
<pdfrwt beam="2">0</pdfrwt>
<totfact> 0.48682523E-04</totfact>
</mgrwt>
<clustering>
<clus scale="   32.976">  1  6  2 -1</clus>
<clus scale="  470.463">  4  5 -1 -1</clus>
<clus scale="  300.000">  1  4  2 -1</clus>
</clustering>
</event>
<event>
 6    1  0.1029244E-011  0.3000000E+03  0.7818608E-02  0.1093470E+00
          1   -1    0    0  502    0  0.00000000000E+00  0.00000000000E+00  0.24964513327E+03  0.24964513327E+03  0.00000000000E+00 0.  1.
         13   -1    0    0    0    0 -0.00000000000E+00 -0.00000000000E+00 -0.27500000000E+03  0.27500000000E+03  0.00000000000E+00 0.  1.
    9000005    2    1    2  501    0  0.11400757497E+02  0.37335915211E+02 -0.50023568645E+02  0.47846621286E+03  0.47424003584E+03 0.  0.
         13    1    3    3    0    0  0.12285312793E+03  0.68778896881E+02 -0.22691137516E+03  0.26704344193E+03  0.00000000000E+00 0.  1.
          3    1    3    3  501    0 -0.11145237044E+03 -0.31442981671E+02  0.17688780652E+03  0.21142277093E+03  0.00000000000E+00 0.  1.
         21    1    1    2  502  501 -0.11400757497E+02 -0.37335915211E+02  0.24668701919E+02  0.46178920413E+02  0.00000000000E+00 0.  1.
<scales pt_clust_4="550.00000" pt_clust_5="550.00000" pt_clust_6="39.03777"></scales>
<mgrwt>
<rscale>  0 0.30000000E+03</rscale>
<asrwt>  1 0.39037774E+02</asrwt>
<pdfrwt beam="1">  1        1 0.90780048E+00 0.30000000E+03</pdfrwt>
<pdfrwt beam="2">0</pdfrwt>
<totfact> 0.79287055E-05</totfact>
</mgrwt>
<clustering>
<clus scale="   39.038">  1  6  2 -1</clus>
<clus scale="  474.240">  4  5 -1 -1</clus>
<clus scale="  300.000">  1  4  2 -1</clus>
</clustering>
</event>
<event>
 6    1  0.1029244E-011  0.3000000E+03  0.7818608E-02  0.1093470E+00
          1   -1    0    0  502    0  0.00000000000E+00  0.00000000000E+00  0.23314250361E+03  0.23314250361E+03  0.00000000000E+00 0.  1.
         13   -1    0    0    0    0 -0.00000000000E+00 -0.00000000000E+00 -0.27500000000E+03  0.27500000000E+03  0.00000000000E+00 0.  1.
    9000005    2    1    2  501    0  0.27718227383E+02  0.21385133584E+02 -0.64829772923E+02  0.46626948656E+03  0.46041145791E+03 0.  0.
         13    1    3    3    0    0  0.18129231210E+02 -0.17735492476E+03 -0.16552133706E+03  0.24327094233E+03  0.00000000000E+00 0.  1.
          1    1    3    3  501    0  0.95889961733E+01  0.19874005835E+03  0.10069156414E+03  0.22299854423E+03  0.00000000000E+00 0.  1.
         21    1    1    2  502  501 -0.27718227383E+02 -0.21385133584E+02  0.22972276535E+02  0.41873017050E+02  0.00000000000E+00 0.  1.
<scales pt_clust_4="550.00000" pt_clust_5="550.00000" pt_clust_6="35.00891"></scales>
<mgrwt>
<rscale>  0 0.30000000E+03</rscale>
<asrwt>  1 0.35008914E+02</asrwt>
<pdfrwt beam="1">  1        1 0.84779092E+00 0.30000000E+03</pdfrwt>
<pdfrwt beam="2">0</pdfrwt>
<totfact> 0.42658926E-04</totfact>
</mgrwt>
<clustering>
<clus scale="   35.009">  1  6  2 -1</clus>
<clus scale="  460.411">  4  5 -1 -1</clus>
<clus scale="  300.000">  1  4  2 -1</clus>
</clustering>
</event>
<event>
 6    1  0.1029244E-011  0.3000000E+03  0.7818608E-02  0.1093470E+00
          1   -1    0    0  502    0  0.00000000000E+00  0.00000000000E+00  0.23494540611E+03  0.23494540611E+03  0.00000000000E+00 0.  1.
         13   -1    0    0    0    0 -0.00000000000E+00 -0.00000000000E+00 -0.27500000000E+03  0.27500000000E+03  0.00000000000E+00 0.  1.
    9000005    2    1    2  501    0 -0.31188907491E+02 -0.33862187679E+01 -0.45680358445E+02  0.47807279005E+03  0.47485016901E+03 0.  0.
         13    1    3    3    0    0 -0.15252820194E+03 -0.56561626488E+02 -0.21086652924E+03  0.26632454475E+03  0.00000000000E+00 0.  1.
          1    1    3    3  501    0  0.12133929445E+03  0.53175407721E+02  0.16518617080E+03  0.21174824530E+03  0.00000000000E+00 0.  1.
         21    1    1    2  502  501  0.31188907491E+02  0.33862187679E+01  0.56257645575E+01  0.31872616066E+02  0.00000000000E+00 0.  1.
<scales pt_clust_4="550.00000" pt_clust_5="550.00000" pt_clust_6="31.37219"></scales>
<mgrwt>
<rscale>  0 0.30000000E+03</rscale>
<asrwt>  1 0.31372192E+02</asrwt>
<pdfrwt beam="1">  1        1 0.85434693E+00 0.30000000E+03</pdfrwt>
<pdfrwt beam="2">0</pdfrwt>
<totfact> 0.37749779E-04</totfact>
</mgrwt>
<clustering>
<clus scale="   31.372">  1  6  2 -1</clus>
<clus scale="  474.850">  4  5 -1 -1</clus>
<clus scale="  300.000">  1  4  2 -1</clus>
</clustering>
</event>
<event>
 6    1  0.1029244E-011  0.3000000E+03  0.7818608E-02  0.1093470E+00
          1   -1    0    0  502    0  0.00000000000E+00  0.00000000000E+00  0.24470824211E+03  0.24470824211E+03  0.00000000000E+00 0.  1.
         13   -1    0    0    0    0 -0.00000000000E+00 -0.00000000000E+00 -0.27500000000E+03  0.27500000000E+03  0.00000000000E+00 0.  1.
    9000005    2    1    2  501    0 -0.23141240520E+02  0.21262799220E+02 -0.35108876730E+02  0.48791471640E+03  0.48563413555E+03 0.  0.
         13    1    3    3    0    0  0.14306600541E+03  0.19073834482E+03 -0.68806681371E+02  0.24815994336E+03  0.00000000000E+00 0.  1.
          1    1    3    3  501    0 -0.16620724593E+03 -0.16947554560E+03  0.33697804641E+02  0.23975477303E+03  0.00000000000E+00 0.  1.
         21    1    1    2  502  501  0.23141240520E+02 -0.21262799220E+02  0.48171188405E+01  0.31793525715E+02  0.00000000000E+00 0. -1.
<scales pt_clust_4="550.00000" pt_clust_5="550.00000" pt_clust_6="31.42648"></scales>
<mgrwt>
<rscale>  0 0.30000000E+03</rscale>
<asrwt>  1 0.31426480E+02</asrwt>
<pdfrwt beam="1">  1        1 0.88984815E+00 0.30000000E+03</pdfrwt>
<pdfrwt beam="2">0</pdfrwt>
<totfact> 0.14862639E-04</totfact>
</mgrwt>
<clustering>
<clus scale="   31.426">  1  6  2 -1</clus>
<clus scale="  485.634">  4  5 -1 -1</clus>
<clus scale="  300.000">  1  4  2 -1</clus>
</clustering>
</event>
<event>
 6    1  0.1029244E-011  0.3000000E+03  0.7818608E-02  0.1093470E+00
          1   -1    0    0  502    0  0.00000000000E+00  0.00000000000E+00  0.23263020355E+03  0.23263020355E+03  0.00000000000E+00 0.  1.
         13   -1    0    0    0    0 -0.00000000000E+00 -0.00000000000E+00 -0.27500000000E+03  0.27500000000E+03  0.00000000000E+00 0.  1.
    9000005    2    1    2  501    0 -0.18565407927E+02 -0.33514623545E+02 -0.61881477830E+02  0.46463473782E+03  0.45889891908E+03 0.  0.
         13    1    3    3    0    0  0.97636390301E+02  0.52071631324E+02  0.16324971155E+03  0.19721761539E+03  0.00000000000E+00 0.  1.
          1    1    3    3  501    0 -0.11620179823E+03 -0.85586254870E+02 -0.22513118938E+03  0.26741712243E+03  0.00000000000E+00 0.  1.
         21    1    1    2  502  501  0.18565407927E+02  0.33514623545E+02  0.19511681379E+02  0.42995465727E+02  0.00000000000E+00 0.  1.
<scales pt_clust_4="550.00000" pt_clust_5="550.00000" pt_clust_6="38.31324"></scales>
<mgrwt>
<rscale>  0 0.30000000E+03</rscale>
<asrwt>  1 0.38313240E+02</asrwt>
<pdfrwt beam="1">  1        1 0.84592801E+00 0.30000000E+03</pdfrwt>
<pdfrwt beam="2">0</pdfrwt>
<totfact> 0.43602420E-04</totfact>
</mgrwt>
<clustering>
<clus scale="   38.313">  1  6  2 -1</clus>
<clus scale="  458.899">  4  5 -1 -1</clus>
<clus scale="  300.000">  1  4  2 -1</clus>
</clustering>
</event>
<event>
 6    1  0.1029244E-011  0.3000000E+03  0.7818608E-02  0.1093470E+00
          1   -1    0    0  502    0  0.00000000000E+00  0.00000000000E+00  0.23089976630E+03  0.23089976630E+03  0.00000000000E+00 0.  1.
         13   -1    0    0    0    0 -0.00000000000E+00 -0.00000000000E+00 -0.27500000000E+03  0.27500000000E+03  0.00000000000E+00 0.  1.
    9000005    2    1    2  501    0  0.25546926810E+02  0.16179796615E+02 -0.65980093438E+02  0.46857471372E+03  0.46291949443E+03 0.  0.
         13    1    3    3    0    0  0.86621645997E+02  0.10752510243E+03  0.16358448935E+03  0.21406737809E+03  0.00000000000E+00 0.  1.
          1    1    3    3  501    0 -0.61074719187E+02 -0.91345305814E+02 -0.22956458279E+03  0.25450733563E+03  0.00000000000E+00 0.  1.
         21    1    1    2  502  501 -0.25546926810E+02 -0.16179796615E+02  0.21879859741E+02  0.37325052581E+02  0.00000000000E+00 0. -1.
<scales pt_clust_4="550.00000" pt_clust_5="550.00000" pt_clust_6="30.23956"></scales>
<mgrwt>
<rscale>  0 0.30000000E+03</rscale>
<asrwt>  1 0.30239565E+02</asrwt>
<pdfrwt beam="1">  1        1 0.83963551E+00 0.30000000E+03</pdfrwt>
<pdfrwt beam="2">0</pdfrwt>
<totfact> 0.51429859E-04</totfact>
</mgrwt>
<clustering>
<clus scale="   30.240">  1  6  2 -1</clus>
<clus scale="  462.919">  4  5 -1 -1</clus>
<clus scale="  300.000">  1  4  2 -1</clus>
</clustering>
</event>
<event>
 6    1  0.1029244E-011  0.3000000E+03  0.7818608E-02  0.1093470E+00
          1   -1    0    0  502    0  0.00000000000E+00  0.00000000000E+00  0.24141987611E+03  0.24141987611E+03  0.00000000000E+00 0.  1.
         13   -1    0    0    0    0 -0.00000000000E+00 -0.00000000000E+00 -0.27500000000E+03  0.27500000000E+03  0.00000000000E+00 0.  1.
    9000005    2    1    2  501    0  0.33047190365E+02  0.93742198415E+01 -0.61959123340E+02  0.47186249290E+03  0.46651397241E+03 0.  0.
         13    1    3    3    0    0  0.19929028799E+03 -0.10705522131E+03  0.61330692434E+02  0.23439047150E+03  0.00000000000E+00 0.  1.
          3    1    3    3  501    0 -0.16624309762E+03  0.11642944115E+03 -0.12328981577E+03  0.23747202140E+03  0.00000000000E+00 0.  1.
         21    1    1    2  502  501 -0.33047190365E+02 -0.93742198415E+01  0.28378999447E+02  0.44557383207E+02  0.00000000000E+00 0. -1.
<scales pt_clust_4="550.00000" pt_clust_5="550.00000" pt_clust_6="34.35102"></scales>
<mgrwt>
<rscale>  0 0.30000000E+03</rscale>
<asrwt>  1 0.34351023E+02</asrwt>
<pdfrwt beam="1">  1        1 0.87789046E+00 0.30000000E+03</pdfrwt>
<pdfrwt beam="2">0</pdfrwt>
<totfact> 0.20983914E-04</totfact>
</mgrwt>
<clustering>
<clus scale="   34.351">  1  6  2 -1</clus>
<clus scale="  466.514">  4  5 -1 -1</clus>
<clus scale="  300.000">  1  4  2 -1</clus>
</clustering>
</event>
<event>
 6    1  0.1029244E-011  0.3000000E+03  0.7818608E-02  0.1093470E+00
          1   -1    0    0  502    0  0.00000000000E+00  0.00000000000E+00  0.23730162122E+03  0.23730162122E+03  0.00000000000E+00 0.  1.
         13   -1    0    0    0    0 -0.00000000000E+00 -0.00000000000E+00 -0.27500000000E+03  0.27500000000E+03  0.00000000000E+00 0.  1.
    9000005    2    1    2  501    0  0.13363198542E+02 -0.27905622501E+02 -0.56717127496E+02  0.47598342130E+03  0.47157829250E+03 0.  0.
         13    1    3    3    0    0  0.62078385561E+02 -0.34303430449E+02  0.20124821908E+03  0.21338063871E+03  0.00000000000E+00 0.  1.
          3    1    3    3  501    0 -0.48715187020E+02  0.63978079477E+01 -0.25796534657E+03  0.26260278259E+03  0.00000000000E+00 0.  1.
         21    1    1    2  502  501 -0.13363198542E+02  0.27905622501E+02  0.19018748712E+02  0.36318199914E+02  0.00000000000E+00 0.  1.
<scales pt_clust_4="550.00000" pt_clust_5="550.00000" pt_clust_6="30.94025"></scales>
<mgrwt>
<rscale>  0 0.30000000E+03</rscale>
<asrwt>  1 0.30940246E+02</asrwt>
<pdfrwt beam="1">  1        1 0.86291499E+00 0.30000000E+03</pdfrwt>
<pdfrwt beam="2">0</pdfrwt>
<totfact> 0.30801462E-04</totfact>
</mgrwt>
<clustering>
<clus scale="   30.940">  1  6  2 -1</clus>
<clus scale="  471.578">  4  5 -1 -1</clus>
<clus scale="  300.000">  1  4  2 -1</clus>
</clustering>
</event>
<event>
 6    1  0.1029244E-011  0.3000000E+03  0.7818608E-02  0.1093470E+00
          1   -1    0    0  502    0  0.00000000000E+00  0.00000000000E+00  0.22551634940E+03  0.22551634940E+03  0.00000000000E+00 0.  1.
         13   -1    0    0    0    0 -0.00000000000E+00 -0.00000000000E+00 -0.27500000000E+03  0.27500000000E+03  0.00000000000E+00 0.  1.
    9000005    2    1    2  501    0  0.27860902624E+02 -0.24932886912E+02 -0.39335343709E+02  0.46177532621E+03  0.45857529795E+03 0.  0.
         13    1    3    3    0    0 -0.10188316125E+03 -0.86092491959E+02 -0.20378667415E+03  0.24355924183E+03  0.00000000000E+00 0.  1.
          1    1    3    3  501    0  0.12974406387E+03  0.61159605047E+02  0.16445133044E+03  0.21821608438E+03  0.00000000000E+00 0.  1.
         21    1    1    2  502  501 -0.27860902624E+02  0.24932886912E+02 -0.10148306895E+02  0.38741023188E+02  0.00000000000E+00 0. -1.
<scales pt_clust_4="550.00000" pt_clust_5="550.00000" pt_clust_6="37.38824"></scales>
<mgrwt>
<rscale>  0 0.30000000E+03</rscale>
<asrwt>  1 0.37388235E+02</asrwt>
<pdfrwt beam="1">  1        1 0.82005945E+00 0.30000000E+03</pdfrwt>
<pdfrwt beam="2">0</pdfrwt>
<totfact> 0.71362110E-04</totfact>
</mgrwt>
<clustering>
<clus scale="   37.388">  1  6  2 -1</clus>
<clus scale="  458.575">  4  5 -1 -1</clus>
<clus scale="  300.000">  1  4  2 -1</clus>
</clustering>
</event>
<event>
 6    1  0.1029244E-011  0.3000000E+03  0.7818608E-02  0.1093470E+00
          1   -1    0    0  502    0  0.00000000000E+00  0.00000000000E+00  0.22320629109E+03  0.22320629109E+03  0.00000000000E+00 0.  1.
         13   -1    0    0    0    0 -0.00000000000E+00 -0.00000000000E+00 -0.27500000000E+03  0.27500000000E+03  0.00000000000E+00 0.  1.
    9000005    2    1    2  501    0 -0.25989276611E+02  0.17002461025E+02 -0.69326069495E+02  0.46254244599E+03  0.45626185930E+03 0.  0.
         13    1    3    3    0    0  0.85957629227E+02 -0.19649549504E+03 -0.12327294043E+02  0.21482820059E+03  0.00000000000E+00 0.  1.
          3    1    3    3  501    0 -0.11194690584E+03  0.21349795606E+03 -0.56998775451E+02  0.24771424540E+03  0.00000000000E+00 0.  1.
         21    1    1    2  502  501  0.25989276611E+02 -0.17002461025E+02  0.17532360584E+02  0.35663845100E+02  0.00000000000E+00 0.  1.
<scales pt_clust_4="550.00000" pt_clust_5="550.00000" pt_clust_6="31.05682"></scales>
<mgrwt>
<rscale>  0 0.30000000E+03</rscale>
<asrwt>  1 0.31056822E+02</asrwt>
<pdfrwt beam="1">  1        1 0.81165924E+00 0.30000000E+03</pdfrwt>
<pdfrwt beam="2">0</pdfrwt>
<totfact> 0.86577066E-04</totfact>
</mgrwt>
<clustering>
<clus scale="   31.057">  1  6  2 -1</clus>
<clus scale="  456.262">  4  5 -1 -1</clus>
<clus scale="  300.000">  1  4  2 -1</clus>
</clustering>
</event>
<event>
 6    1  0.1029244E-011  0.3000000E+03  0.7818608E-02  0.1093470E+00
          1   -1    0    0  502    0  0.00000000000E+00  0.00000000000E+00  0.22861826021E+03  0.22861826021E+03  0.00000000000E+00 0.  1.
         13   -1    0    0    0    0 -0.00000000000E+00 -0.00000000000E+00 -0.27500000000E+03  0.27500000000E+03  0.00000000000E+00 0.  1.
    9000005    2    1    2  501    0  0.10023604626E+02 -0.30355343236E+02 -0.49313026176E+02  0.47151667220E+03  0.46784001336E+03 0.  0.
         13    1    3    3    0    0  0.17561363311E+03  0.14482507766E+03 -0.31591366363E+02  0.22980962922E+03  0.00000000000E+00 0.  1.
          3    1    3    3  501    0 -0.16559002848E+03 -0.17518042090E+03 -0.17721659813E+02  0.24170704298E+03  0.00000000000E+00 0.  1.
         21    1    1    2  502  501 -0.10023604626E+02  0.30355343236E+02  0.29312863838E+01  0.32101588006E+02  0.00000000000E+00 0.  1.
<scales pt_clust_4="550.00000" pt_clust_5="550.00000" pt_clust_6="31.96748"></scales>
<mgrwt>
<rscale>  0 0.30000000E+03</rscale>
<asrwt>  1 0.31967476E+02</asrwt>
<pdfrwt beam="1">  1        1 0.83133913E+00 0.30000000E+03</pdfrwt>
<pdfrwt beam="2">0</pdfrwt>
<totfact> 0.58643563E-04</totfact>
</mgrwt>
<clustering>
<clus scale="   31.967">  1  6  2 -1</clus>
<clus scale="  467.840">  4  5 -1 -1</clus>
<clus scale="  300.000">  1  4  2 -1</clus>
</clustering>
</event>
<event>
 6    1  0.1029244E-011  0.3000000E+03  0.7818608E-02  0.1093470E+00
          1   -1    0    0  502    0  0.00000000000E+00  0.00000000000E+00  0.23706280918E+03  0.23706280918E+03  0.00000000000E+00 0.  1.
         13   -1    0    0    0    0 -0.00000000000E+00 -0.00000000000E+00 -0.27500000000E+03  0.27500000000E+03  0.00000000000E+00 0.  1.
    9000005    2    1    2  501    0  0.27382207905E+02 -0.14559104670E+02 -0.43369903430E+02  0.48057841297E+03  0.47761167244E+03 0.  0.
         13    1    3    3    0    0  0.20987902724E+03  0.12883781707E+03 -0.14499723180E+02  0.24669542184E+03  0.00000000000E+00 0.  1.
          1    1    3    3  501    0 -0.18249681934E+03 -0.14339692174E+03 -0.28870180250E+02  0.23388299113E+03  0.00000000000E+00 0.  1.
         21    1    1    2  502  501 -0.27382207905E+02  0.14559104670E+02  0.54327126125E+01  0.31484396213E+02  0.00000000000E+00 0.  1.
<scales pt_clust_4="550.00000" pt_clust_5="550.00000" pt_clust_6="31.01214"></scales>
<mgrwt>
<rscale>  0 0.30000000E+03</rscale>
<asrwt>  1 0.31012140E+02</asrwt>
<pdfrwt beam="1">  1        1 0.86204658E+00 0.30000000E+03</pdfrwt>
<pdfrwt beam="2">0</pdfrwt>
<totfact> 0.31460839E-04</totfact>
</mgrwt>
<clustering>
<clus scale="   31.012">  1  6  2 -1</clus>
<clus scale="  477.612">  4  5 -1 -1</clus>
<clus scale="  300.000">  1  4  2 -1</clus>
</clustering>
</event>
<event>
 6    1  0.1029244E-011  0.3000000E+03  0.7818608E-02  0.1093470E+00
          1   -1    0    0  502    0  0.00000000000E+00  0.00000000000E+00  0.23090858729E+03  0.23090858729E+03  0.00000000000E+00 0.  1.
         13   -1    0    0    0    0 -0.00000000000E+00 -0.00000000000E+00 -0.27500000000E+03  0.27500000000E+03  0.00000000000E+00 0.  1.
    9000005    2    1    2  501    0  0.14745982305E+02  0.26189164614E+02 -0.69806138392E+02  0.46635402429E+03  0.46011940046E+03 0.  0.
         13    1    3    3    0    0  0.20389103718E+03  0.12864774149E+03 -0.29904594912E+01  0.24110317145E+03  0.00000000000E+00 0.  1.
          3    1    3    3  501    0 -0.18914505487E+03 -0.10245857688E+03 -0.66815678901E+02  0.22525085284E+03  0.00000000000E+00 0.  1.
         21    1    1    2  502  501 -0.14745982305E+02 -0.26189164614E+02  0.25714725687E+02  0.39554563004E+02  0.00000000000E+00 0.  1.
<scales pt_clust_4="550.00000" pt_clust_5="550.00000" pt_clust_6="30.05522"></scales>
<mgrwt>
<rscale>  0 0.30000000E+03</rscale>
<asrwt>  1 0.30055221E+02</asrwt>
<pdfrwt beam="1">  1        1 0.83966759E+00 0.30000000E+03</pdfrwt>
<pdfrwt beam="2">0</pdfrwt>
<totfact> 0.51461563E-04</totfact>
</mgrwt>
<clustering>
<clus scale="   30.055">  1  6  2 -1</clus>
<clus scale="  460.119">  4  5 -1 -1</clus>
<clus scale="  300.000">  1  4  2 -1</clus>
</clustering>
</event>
<event>
 6    1  0.1029244E-011  0.3000000E+03  0.7818608E-02  0.1093470E+00
          1   -1    0    0  502    0  0.00000000000E+00  0.00000000000E+00  0.23490333651E+03  0.23490333651E+03  0.00000000000E+00 0.  1.
         13   -1    0    0    0    0 -0.00000000000E+00 -0.00000000000E+00 -0.27500000000E+03  0.27500000000E+03  0.00000000000E+00 0.  1.
    9000005    2    1    2  501    0 -0.72467052955E+01  0.29939608351E+02 -0.44649237839E+02  0.47876460148E+03  0.47568171534E+03 0.  0.
         13    1    3    3    0    0  0.73096318115E+02 -0.20753451867E+03 -0.58533100785E+02  0.22768349095E+03  0.00000000000E+00 0.  1.
          3    1    3    3  501    0 -0.80343023411E+02  0.23747412702E+03  0.13883862946E+02  0.25108111053E+03  0.00000000000E+00 0.  1.
         21    1    1    2  502  501  0.72467052955E+01 -0.29939608351E+02  0.45525743444E+01  0.31138735026E+02  0.00000000000E+00 0. -1.
<scales pt_clust_4="550.00000" pt_clust_5="550.00000" pt_clust_6="30.80414"></scales>
<mgrwt>
<rscale>  0 0.30000000E+03</rscale>
<asrwt>  1 0.30804137E+02</asrwt>
<pdfrwt beam="1">  1        1 0.85419395E+00 0.30000000E+03</pdfrwt>
<pdfrwt beam="2">0</pdfrwt>
<totfact> 0.38012512E-04</totfact>
</mgrwt>
<clustering>
<clus scale="   30.804">  1  6  2 -1</clus>
<clus scale="  475.682">  4  5 -1 -1</clus>
<clus scale="  300.000">  1  4  2 -1</clus>
</clustering>
</event>
<event>
 6    1  0.1029244E-011  0.3000000E+03  0.7818608E-02  0.1093470E+00
          1   -1    0    0  502    0  0.00000000000E+00  0.00000000000E+00  0.23150915241E+03  0.23150915241E+03  0.00000000000E+00 0.  1.
         13   -1    0    0    0    0 -0.00000000000E+00 -0.00000000000E+00 -0.27500000000E+03  0.27500000000E+03  0.00000000000E+00 0.  1.
    9000005    2    1    2  501    0  0.31766402062E+02 -0.13384085976E+02 -0.60529547177E+02  0.46805716493E+03  0.46284494759E+03 0.  0.
         13    1    3    3    0    0 -0.45598350259E+02  0.13815032189E+03  0.14217156068E+03  0.20341453648E+03  0.00000000000E+00 0.  1.
          3    1    3    3  501    0  0.77364752321E+02 -0.15153440787E+03 -0.20270110786E+03  0.26464262845E+03  0.00000000000E+00 0.  1.
         21    1    1    2  502  501 -0.31766402062E+02  0.13384085976E+02  0.17038699587E+02  0.38451987478E+02  0.00000000000E+00 0. -1.
<scales pt_clust_4="550.00000" pt_clust_5="550.00000" pt_clust_6="34.47083"></scales>
<mgrwt>
<rscale>  0 0.30000000E+03</rscale>
<asrwt>  1 0.34470829E+02</asrwt>
<pdfrwt beam="1">  1        1 0.84185146E+00 0.30000000E+03</pdfrwt>
<pdfrwt beam="2">0</pdfrwt>
<totfact> 0.48189289E-04</totfact>
</mgrwt>
<clustering>
<clus scale="   34.471">  1  6  2 -1</clus>
<clus scale="  462.845">  4  5 -1 -1</clus>
<clus scale="  300.000">  1  4  2 -1</clus>
</clustering>
</event>
<event>
 6    1  0.1029244E-011  0.3000000E+03  0.7818608E-02  0.1093470E+00
          1   -1    0    0  502    0  0.00000000000E+00  0.00000000000E+00  0.23197891638E+03  0.23197891638E+03  0.00000000000E+00 0.  1.
         13   -1    0    0    0    0 -0.00000000000E+00 -0.00000000000E+00 -0.27500000000E+03  0.27500000000E+03  0.00000000000E+00 0.  1.
    9000005    2    1    2  501    0  0.40176815087E+02 -0.10315108329E+02 -0.28239124222E+02  0.46294388198E+03  0.46021626633E+03 0.  0.
         13    1    3    3    0    0  0.56410484589E+02 -0.22723395064E+03  0.34244260012E+02  0.23662223150E+03  0.00000000000E+00 0.  1.
          3    1    3    3  501    0 -0.16233669503E+02  0.21691884231E+03 -0.62483384233E+02  0.22632165049E+03  0.00000000000E+00 0.  1.
         21    1    1    2  502  501 -0.40176815087E+02  0.10315108329E+02 -0.14781959401E+02  0.44035034394E+02  0.00000000000E+00 0.  1.
<scales pt_clust_4="550.00000" pt_clust_5="550.00000" pt_clust_6="41.47987"></scales>
<mgrwt>
<rscale>  0 0.30000000E+03</rscale>
<asrwt>  1 0.41479870E+02</asrwt>
<pdfrwt beam="1">  1        1 0.84355970E+00 0.30000000E+03</pdfrwt>
<pdfrwt beam="2">0</pdfrwt>
<totfact> 0.45062398E-04</totfact>
</mgrwt>
<clustering>
<clus scale="   41.480">  1  6  2 -1</clus>
<clus scale="  460.216">  4  5 -1 -1</clus>
<clus scale="  300.000">  1  4  2 -1</clus>
</clustering>
</event>
<event>
 6    1  0.1029244E-011  0.3000000E+03  0.7818608E-02  0.1093470E+00
          1   -1    0    0  502    0  0.00000000000E+00  0.00000000000E+00  0.22262257316E+03  0.22262257316E+03  0.00000000000E+00 0.  1.
         13   -1    0    0    0    0 -0.00000000000E+00 -0.00000000000E+00 -0.27500000000E+03  0.27500000000E+03  0.00000000000E+00 0.  1.
    9000005    2    1    2  501    0 -0.30491312914E+02 -0.22969494607E+01 -0.45812954945E+02  0.46634816778E+03  0.46308399952E+03 0.  0.
         13    1    3    3    0    0  0.46460819960E+02  0.21346188947E+02 -0.24564525600E+03  0.25091006231E+03  0.00000000000E+00 0.  1.
          1    1    3    3  501    0 -0.76952132874E+02 -0.23643138407E+02  0.19983230105E+03  0.21543810548E+03  0.00000000000E+00 0.  1.
         21    1    1    2  502  501  0.30491312914E+02  0.22969494607E+01 -0.65644719000E+01  0.31274405372E+02  0.00000000000E+00 0.  1.
<scales pt_clust_4="550.00000" pt_clust_5="550.00000" pt_clust_6="30.57772"></scales>
<mgrwt>
<rscale>  0 0.30000000E+03</rscale>
<asrwt>  1 0.30577722E+02</asrwt>
<pdfrwt beam="1">  1        1 0.80953663E+00 0.30000000E+03</pdfrwt>
<pdfrwt beam="2">0</pdfrwt>
<totfact> 0.90221424E-04</totfact>
</mgrwt>
<clustering>
<clus scale="   30.578">  1  6  2 -1</clus>
<clus scale="  463.084">  4  5 -1 -1</clus>
<clus scale="  300.000">  1  4  2 -1</clus>
</clustering>
</event>
<event>
 6    1  0.1029244E-011  0.3000000E+03  0.7818608E-02  0.1093470E+00
          1   -1    0    0  502    0  0.00000000000E+00  0.00000000000E+00  0.24318830022E+03  0.24318830022E+03  0.00000000000E+00 0.  1.
         13   -1    0    0    0    0 -0.00000000000E+00 -0.00000000000E+00 -0.27500000000E+03  0.27500000000E+03  0.00000000000E+00 0.  1.
    9000005    2    1    2  501    0 -0.31334012193E+02  0.15563584717E+02 -0.59527838131E+02  0.47355389853E+03  0.46849299441E+03 0.  0.
         13    1    3    3    0    0  0.23724977810E+02 -0.53813764378E+02  0.19519993580E+03  0.20386713993E+03  0.00000000000E+00 0.  1.
          1    1    3    3  501    0 -0.55058990004E+02  0.69377349095E+02 -0.25472777393E+03  0.26968675859E+03  0.00000000000E+00 0.  1.
         21    1    1    2  502  501  0.31334012193E+02 -0.15563584717E+02  0.27716138349E+02  0.44634401692E+02  0.00000000000E+00 0. -1.
<scales pt_clust_4="550.00000" pt_clust_5="550.00000" pt_clust_6="34.98636"></scales>
<mgrwt>
<rscale>  0 0.30000000E+03</rscale>
<asrwt>  1 0.34986361E+02</asrwt>
<pdfrwt beam="1">  1        1 0.88432109E+00 0.30000000E+03</pdfrwt>
<pdfrwt beam="2">0</pdfrwt>
<totfact> 0.17338071E-04</totfact>
</mgrwt>
<clustering>
<clus scale="   34.986">  1  6  2 -1</clus>
<clus scale="  468.493">  4  5 -1 -1</clus>
<clus scale="  300.000">  1  4  2 -1</clus>
</clustering>
</event>
<event>
 6    1  0.1029244E-011  0.3000000E+03  0.7818608E-02  0.1093470E+00
          1   -1    0    0  502    0  0.00000000000E+00  0.00000000000E+00  0.26446056608E+03  0.26446056608E+03  0.00000000000E+00 0.  1.
         13   -1    0    0    0    0 -0.00000000000E+00 -0.00000000000E+00 -0.27500000000E+03  0.27500000000E+03  0.00000000000E+00 0.  1.
    9000005    2    1    2  501    0  0.19605422500E+02 -0.51821307159E+02 -0.22864703709E+02  0.48270025651E+03  0.47896442717E+03 0.  0.
         13    1    3    3    0    0  0.22046393750E+03  0.77340824791E+02 -0.59523654176E+02  0.24109959835E+03  0.00000000000E+00 0.  1.
          1    1    3    3  501    0 -0.20085851500E+03 -0.12916213195E+03  0.36658950467E+02  0.24160065817E+03  0.00000000000E+00 0.  1.
         21    1    1    2  502  501 -0.19605422500E+02  0.51821307159E+02  0.12325269790E+02  0.56760309570E+02  0.00000000000E+00 0.  1.
<scales pt_clust_4="550.00000" pt_clust_5="550.00000" pt_clust_6="55.40596"></scales>
<mgrwt>
<rscale>  0 0.30000000E+03</rscale>
<asrwt>  1 0.55405961E+02</asrwt>
<pdfrwt beam="1">  1        1 0.96167479E+00 0.30000000E+03</pdfrwt>
<pdfrwt beam="2">0</pdfrwt>
<totfact> 0.64280403E-06</totfact>
</mgrwt>
<clustering>
<clus scale="   55.406">  1  6  2 -1</clus>
<clus scale="  478.964">  4  5 -1 -1</clus>
<clus scale="  300.000">  1  4  2 -1</clus>
</clustering>
</event>
<event>
 6    1  0.1029244E-011  0.3000000E+03  0.7818608E-02  0.1093470E+00
          1   -1    0    0  502    0  0.00000000000E+00  0.00000000000E+00  0.22986385651E+03  0.22986385651E+03  0.00000000000E+00 0.  1.
         13   -1    0    0    0    0 -0.00000000000E+00 -0.00000000000E+00 -0.27500000000E+03  0.27500000000E+03  0.00000000000E+00 0.  1.
    9000005    2    1    2  501    0  0.18214787448E+02  0.30426664398E+02 -0.63379726066E+02  0.46498417881E+03  0.45927740689E+03 0.  0.
         13    1    3    3    0    0 -0.15791099062E+02  0.20806104066E+03 -0.15719018988E+03  0.26124224629E+03  0.00000000000E+00 0.  1.
          3    1    3    3  501    0  0.34005886510E+02 -0.17763437626E+03  0.93810463817E+02  0.20374193252E+03  0.00000000000E+00 0.  1.
         21    1    1    2  502  501 -0.18214787448E+02 -0.30426664398E+02  0.18243582577E+02  0.39879677699E+02  0.00000000000E+00 0. -1.
<scales pt_clust_4="550.00000" pt_clust_5="550.00000" pt_clust_6="35.46210"></scales>
<mgrwt>
<rscale>  0 0.30000000E+03</rscale>
<asrwt>  1 0.35462098E+02</asrwt>
<pdfrwt beam="1">  1        1 0.83586857E+00 0.30000000E+03</pdfrwt>
<pdfrwt beam="2">0</pdfrwt>
<totfact> 0.53187080E-04</totfact>
</mgrwt>
<clustering>
<clus scale="   35.462">  1  6  2 -1</clus>
<clus scale="  459.277">  4  5 -1 -1</clus>
<clus scale="  300.000">  1  4  2 -1</clus>
</clustering>
</event>
<event>
 6    1  0.1029244E-011  0.3000000E+03  0.7818608E-02  0.1093470E+00
          1   -1    0    0  502    0  0.00000000000E+00  0.00000000000E+00  0.22099549024E+03  0.22099549024E+03  0.00000000000E+00 0.  1.
         13   -1    0    0    0    0 -0.00000000000E+00 -0.00000000000E+00 -0.27500000000E+03  0.27500000000E+03  0.00000000000E+00 0.  1.
    9000005    2    1    2  501    0 -0.22009247370E+02 -0.25052819475E+02 -0.39079514117E+02  0.45946049020E+03  0.45657932815E+03 0.  0.
         13    1    3    3    0    0  0.11575595183E+03 -0.69541168100E+02 -0.20106912889E+03  0.24220695497E+03  0.00000000000E+00 0.  1.
          3    1    3    3  501    0 -0.13776519920E+03  0.44488348624E+02  0.16198961477E+03  0.21725353522E+03  0.00000000000E+00 0.  1.
         21    1    1    2  502  501  0.22009247370E+02  0.25052819475E+02 -0.14924995641E+02  0.36535000046E+02  0.00000000000E+00 0.  1.
<scales pt_clust_4="550.00000" pt_clust_5="550.00000" pt_clust_6="33.34744"></scales>
<mgrwt>
<rscale>  0 0.30000000E+03</rscale>
<asrwt>  1 0.33347441E+02</asrwt>
<pdfrwt beam="1">  1        1 0.80361996E+00 0.30000000E+03</pdfrwt>
<pdfrwt beam="2">0</pdfrwt>
<totfact> 0.98478354E-04</totfact>
</mgrwt>
<clustering>
<clus scale="   33.347">  1  6  2 -1</clus>
<clus scale="  456.579">  4  5 -1 -1</clus>
<clus scale="  300.000">  1  4  2 -1</clus>
</clustering>
</event>
<event>
 6    1  0.1029244E-011  0.3000000E+03  0.7818608E-02  0.1093470E+00
          1   -1    0    0  502    0  0.00000000000E+00  0.00000000000E+00  0.23812470015E+03  0.23812470015E+03  0.00000000000E+00 0.  1.
         13   -1    0    0    0    0 -0.00000000000E+00 -0.00000000000E+00 -0.27500000000E+03  0.27500000000E+03  0.00000000000E+00 0.  1.
    9000005    2    1    2  501    0  0.79297201432E+01  0.39664160212E+02 -0.54541474349E+02  0.46898605735E+03  0.46404420425E+03 0.  0.
         13    1    3    3    0    0 -0.20254697625E+03  0.40209591852E+02  0.77449807495E+02  0.22054605312E+03  0.00000000000E+00 0.  1.
          3    1    3    3  501    0  0.21047669639E+03 -0.54543163961E+00 -0.13199128184E+03  0.24844000423E+03  0.00000000000E+00 0.  1.
         21    1    1    2  502  501 -0.79297201432E+01 -0.39664160212E+02  0.17666174495E+02  0.44138642799E+02  0.00000000000E+00 0.  1.
<scales pt_clust_4="550.00000" pt_clust_5="550.00000" pt_clust_6="40.44906"></scales>
<mgrwt>
<rscale>  0 0.30000000E+03</rscale>
<asrwt>  1 0.40449055E+02</asrwt>
<pdfrwt beam="1">  1        1 0.86590800E+00 0.30000000E+03</pdfrwt>
<pdfrwt beam="2">0</pdfrwt>
<totfact> 0.27200580E-04</totfact>
</mgrwt>
<clustering>
<clus scale="   40.449">  1  6  2 -1</clus>
<clus scale="  464.044">  4  5 -1 -1</clus>
<clus scale="  300.000">  1  4  2 -1</clus>
</clustering>
</event>
<event>
 6    1  0.1029244E-011  0.3000000E+03  0.7818608E-02  0.1093470E+00
          1   -1    0    0  502    0  0.00000000000E+00  0.00000000000E+00  0.24776716899E+03  0.24776716899E+03  0.00000000000E+00 0.  1.
         13   -1    0    0    0    0 -0.00000000000E+00 -0.00000000000E+00 -0.27500000000E+03  0.27500000000E+03  0.00000000000E+00 0.  1.
    9000005    2    1    2  501    0 -0.86908771413E+01 -0.29835529589E+02 -0.49741059712E+02  0.48439647013E+03  0.48083269136E+03 0.  0.
         13    1    3    3    0    0 -0.22349973805E+03 -0.25481605581E+02  0.73569054675E+02  0.23667245496E+03  0.00000000000E+00 0.  1.
          1    1    3    3  501    0  0.21480886091E+03 -0.43539240080E+01 -0.12331011439E+03  0.24772401517E+03  0.00000000000E+00 0.  1.
         21    1    1    2  502  501  0.86908771413E+01  0.29835529589E+02  0.22508228698E+02  0.38370698853E+02  0.00000000000E+00 0.  1.
<scales pt_clust_4="550.00000" pt_clust_5="550.00000" pt_clust_6="31.07556"></scales>
<mgrwt>
<rscale>  0 0.30000000E+03</rscale>
<asrwt>  1 0.31075556E+02</asrwt>
<pdfrwt beam="1">  1        1 0.90097152E+00 0.30000000E+03</pdfrwt>
<pdfrwt beam="2">0</pdfrwt>
<totfact> 0.10972631E-04</totfact>
</mgrwt>
<clustering>
<clus scale="   31.076">  1  6  2 -1</clus>
<clus scale="  480.833">  4  5 -1 -1</clus>
<clus scale="  300.000">  1  4  2 -1</clus>
</clustering>
</event>
<event>
 6    1  0.1029244E-011  0.3000000E+03  0.7818608E-02  0.1093470E+00
          1   -1    0    0  502    0  0.00000000000E+00  0.00000000000E+00  0.24407183348E+03  0.24407183348E+03  0.00000000000E+00 0.  1.
         13   -1    0    0    0    0 -0.00000000000E+00 -0.00000000000E+00 -0.27500000000E+03  0.27500000000E+03  0.00000000000E+00 0.  1.
    9000005    2    1    2  501    0 -0.15577075961E+02 -0.36756649792E+02 -0.13145557317E+02  0.47536922727E+03  0.47350755006E+03 0.  0.
         13    1    3    3    0    0  0.21186919783E+03 -0.75305550769E+02  0.61131825749E+02  0.23301627214E+03  0.00000000000E+00 0.  1.
          3    1    3    3  501    0 -0.22744627379E+03  0.38548900977E+02 -0.74277383066E+02  0.24235295513E+03  0.00000000000E+00 0.  1.
         21    1    1    2  502  501  0.15577075961E+02  0.36756649792E+02 -0.17782609201E+02  0.43702606208E+02  0.00000000000E+00 0.  1.
<scales pt_clust_4="550.00000" pt_clust_5="550.00000" pt_clust_6="39.92115"></scales>
<mgrwt>
<rscale>  0 0.30000000E+03</rscale>
<asrwt>  1 0.39921150E+02</asrwt>
<pdfrwt beam="1">  1        1 0.88753394E+00 0.30000000E+03</pdfrwt>
<pdfrwt beam="2">0</pdfrwt>
<totfact> 0.15283083E-04</totfact>
</mgrwt>
<clustering>
<clus scale="   39.921">  1  6  2 -1</clus>
<clus scale="  473.508">  4  5 -1 -1</clus>
<clus scale="  300.000">  1  4  2 -1</clus>
</clustering>
</event>
<event>
 6    1  0.1029244E-011  0.3000000E+03  0.7818608E-02  0.1093470E+00
          1   -1    0    0  502    0  0.00000000000E+00  0.00000000000E+00  0.23413545635E+03  0.23413545635E+03  0.00000000000E+00 0.  1.
         13   -1    0    0    0    0 -0.00000000000E+00 -0.00000000000E+00 -0.27500000000E+03  0.27500000000E+03  0.00000000000E+00 0.  1.
    9000005    2    1    2  501    0  0.54733445804E+01  0.29971014495E+02 -0.44558538228E+02  0.47844564034E+03  0.47539094251E+03 0.  0.
         13    1    3    3    0    0 -0.20507876926E+03  0.52140650212E+02  0.87433074452E+02  0.22895521727E+03  0.00000000000E+00 0.  1.
          1    1    3    3  501    0  0.21055211384E+03 -0.22169635718E+02 -0.13199161268E+03  0.24949042308E+03  0.00000000000E+00 0.  1.
         21    1    1    2  502  501 -0.54733445804E+01 -0.29971014495E+02  0.36939945802E+01  0.30689816009E+02  0.00000000000E+00 0.  1.
<scales pt_clust_4="550.00000" pt_clust_5="550.00000" pt_clust_6="30.46669"></scales>
<mgrwt>
<rscale>  0 0.30000000E+03</rscale>
<asrwt>  1 0.30466690E+02</asrwt>
<pdfrwt beam="1">  1        1 0.85140166E+00 0.30000000E+03</pdfrwt>
<pdfrwt beam="2">0</pdfrwt>
<totfact> 0.40526993E-04</totfact>
</mgrwt>
<clustering>
<clus scale="   30.467">  1  6  2 -1</clus>
<clus scale="  475.391">  4  5 -1 -1</clus>
<clus scale="  300.000">  1  4  2 -1</clus>
</clustering>
</event>
<event>
 6    1  0.1029244E-011  0.3000000E+03  0.7818608E-02  0.1093470E+00
          1   -1    0    0  502    0  0.00000000000E+00  0.00000000000E+00  0.23811047533E+03  0.23811047533E+03  0.00000000000E+00 0.  1.
         13   -1    0    0    0    0 -0.00000000000E+00 -0.00000000000E+00 -0.27500000000E+03  0.27500000000E+03  0.00000000000E+00 0.  1.
    9000005    2    1    2  501    0  0.43161171523E+02 -0.23677101906E+02 -0.43621044783E+02  0.46342340212E+03  0.45873190667E+03 0.  0.
         13    1    3    3    0    0 -0.18001476021E+03 -0.53818449060E+02  0.82620876333E+02  0.20525094046E+03  0.00000000000E+00 0.  1.
          1    1    3    3  501    0  0.22317593173E+03  0.30141347155E+02 -0.12624192112E+03  0.25817246166E+03  0.00000000000E+00 0.  1.
         21    1    1    2  502  501 -0.43161171523E+02  0.23677101906E+02  0.67315201173E+01  0.49687073218E+02  0.00000000000E+00 0. -1.
<scales pt_clust_4="550.00000" pt_clust_5="550.00000" pt_clust_6="49.22897"></scales>
<mgrwt>
<rscale>  0 0.30000000E+03</rscale>
<asrwt>  1 0.49228974E+02</asrwt>
<pdfrwt beam="1">  1        1 0.86585627E+00 0.30000000E+03</pdfrwt>
<pdfrwt beam="2">0</pdfrwt>
<totfact> 0.26294551E-04</totfact>
</mgrwt>
<clustering>
<clus scale="   49.229">  1  6  2 -1</clus>
<clus scale="  458.732">  4  5 -1 -1</clus>
<clus scale="  300.000">  1  4  2 -1</clus>
</clustering>
</event>
<event>
 6    1  0.1029244E-011  0.3000000E+03  0.7818608E-02  0.1093470E+00
          1   -1    0    0  502    0  0.00000000000E+00  0.00000000000E+00  0.22860059501E+03  0.22860059501E+03  0.00000000000E+00 0.  1.
         13   -1    0    0    0    0 -0.00000000000E+00 -0.00000000000E+00 -0.27500000000E+03  0.27500000000E+03  0.00000000000E+00 0.  1.
    9000005    2    1    2  501    0 -0.13231790441E+02  0.27693931541E+02 -0.31932501086E+02  0.46966940831E+03  0.46757634067E+03 0.  0.
         13    1    3    3    0    0  0.20663659035E+02 -0.56247876003E+01 -0.24775321334E+03  0.24867705917E+03  0.00000000000E+00 0.  1.
          1    1    3    3  501    0 -0.33895449476E+02  0.33318719141E+02  0.21582071225E+03  0.22099234914E+03  0.00000000000E+00 0.  1.
         21    1    1    2  502  501  0.13231790441E+02 -0.27693931541E+02 -0.14466903904E+02  0.33931186702E+02  0.00000000000E+00 0. -1.
<scales pt_clust_4="550.00000" pt_clust_5="550.00000" pt_clust_6="30.69259"></scales>
<mgrwt>
<rscale>  0 0.30000000E+03</rscale>
<asrwt>  1 0.30692590E+02</asrwt>
<pdfrwt beam="1">  1        1 0.83127489E+00 0.30000000E+03</pdfrwt>
<pdfrwt beam="2">0</pdfrwt>
<totfact> 0.59170300E-04</totfact>
</mgrwt>
<clustering>
<clus scale="   30.693">  1  6  2 -1</clus>
<clus scale="  467.576">  4  5 -1 -1</clus>
<clus scale="  300.000">  1  4  2 -1</clus>
</clustering>
</event>
<event>
 6    1  0.1029244E-011  0.3000000E+03  0.7818608E-02  0.1093470E+00
          1   -1    0    0  502    0  0.00000000000E+00  0.00000000000E+00  0.21971773336E+03  0.21971773336E+03  0.00000000000E+00 0.  1.
         13   -1    0    0    0    0 -0.00000000000E+00 -0.00000000000E+00 -0.27500000000E+03  0.27500000000E+03  0.00000000000E+00 0.  1.
    9000005    2    1    2  501    0 -0.28614365880E+02  0.13817822142E+02 -0.56138705245E+02  0.46293019444E+03  0.45841367405E+03 0.  0.
         13    1    3    3    0    0  0.43606160050E+02 -0.15726987570E+03 -0.17746821073E+03  0.24110221239E+03  0.00000000000E+00 0.  1.
          1    1    3    3  501    0 -0.72220525930E+02  0.17108769785E+03  0.12132950549E+03  0.22182798205E+03  0.00000000000E+00 0.  1.
         21    1    1    2  502  501  0.28614365880E+02 -0.13817822142E+02  0.85643860471E+00  0.31787538919E+02  0.00000000000E+00 0.  1.
<scales pt_clust_4="550.00000" pt_clust_5="550.00000" pt_clust_6="31.77600"></scales>
<mgrwt>
<rscale>  0 0.30000000E+03</rscale>
<asrwt>  1 0.31775999E+02</asrwt>
<pdfrwt beam="1">  1        1 0.79897358E+00 0.30000000E+03</pdfrwt>
<pdfrwt beam="2">0</pdfrwt>
<totfact> 0.10743214E-03</totfact>
</mgrwt>
<clustering>
<clus scale="   31.776">  1  6  2 -1</clus>
<clus scale="  458.414">  4  5 -1 -1</clus>
<clus scale="  300.000">  1  4  2 -1</clus>
</clustering>
</event>
<event>
 6    1  0.1029244E-011  0.3000000E+03  0.7818608E-02  0.1093470E+00
          1   -1    0    0  502    0  0.00000000000E+00  0.00000000000E+00  0.23447952515E+03  0.23447952515E+03  0.00000000000E+00 0.  1.
         13   -1    0    0    0    0 -0.00000000000E+00 -0.00000000000E+00 -0.27500000000E+03  0.27500000000E+03  0.00000000000E+00 0.  1.
    9000005    2    1    2  501    0  0.30639277331E+02  0.10856093041E+02 -0.15608772983E+02  0.46852573458E+03  0.46713607236E+03 0.  0.
         13    1    3    3    0    0 -0.21188509679E+03 -0.45951736094E+02  0.16195894710E+02  0.21741472650E+03  0.00000000000E+00 0.  1.
          1    1    3    3  501    0  0.24252437412E+03  0.56807829135E+02 -0.31804667694E+02  0.25111100809E+03  0.00000000000E+00 0.  1.
         21    1    1    2  502  501 -0.30639277331E+02 -0.10856093041E+02 -0.24911701869E+02  0.40953790563E+02  0.00000000000E+00 0.  1.
<scales pt_clust_4="550.00000" pt_clust_5="550.00000" pt_clust_6="32.50571"></scales>
<mgrwt>
<rscale>  0 0.30000000E+03</rscale>
<asrwt>  1 0.32505709E+02</asrwt>
<pdfrwt beam="1">  1        1 0.85265282E+00 0.30000000E+03</pdfrwt>
<pdfrwt beam="2">0</pdfrwt>
<totfact> 0.38939871E-04</totfact>
</mgrwt>
<clustering>
<clus scale="   32.506">  1  6  2 -1</clus>
<clus scale="  467.136">  4  5 -1 -1</clus>
<clus scale="  300.000">  1  4  2 -1</clus>
</clustering>
</event>
<event>
 6    1  0.1029244E-011  0.3000000E+03  0.7818608E-02  0.1093470E+00
          1   -1    0    0  502    0  0.00000000000E+00  0.00000000000E+00  0.22410499761E+03  0.22410499761E+03  0.00000000000E+00 0.  1.
         13   -1    0    0    0    0 -0.00000000000E+00 -0.00000000000E+00 -0.27500000000E+03  0.27500000000E+03  0.00000000000E+00 0.  1.
    9000005    2    1    2  501    0 -0.18675861043E+02  0.28400986205E+02 -0.49620618105E+02  0.46508988540E+03  0.46118433620E+03 0.  0.
         13    1    3    3    0    0 -0.53469496323E+02 -0.20857829177E+03 -0.65442439266E+02  0.22504800308E+03  0.00000000000E+00 0.  1.
          3    1    3    3  501    0  0.34793635280E+02  0.23697927797E+03  0.15821821161E+02  0.24004188232E+03  0.00000000000E+00 0.  1.
         21    1    1    2  502  501  0.18675861043E+02 -0.28400986205E+02 -0.12743842844E+01  0.34015112207E+02  0.00000000000E+00 0. -1.
<scales pt_clust_4="550.00000" pt_clust_5="550.00000" pt_clust_6="33.99123"></scales>
<mgrwt>
<rscale>  0 0.30000000E+03</rscale>
<asrwt>  1 0.33991231E+02</asrwt>
<pdfrwt beam="1">  1        1 0.81492726E+00 0.30000000E+03</pdfrwt>
<pdfrwt beam="2">0</pdfrwt>
<totfact> 0.80150433E-04</totfact>
</mgrwt>
<clustering>
<clus scale="   33.991">  1  6  2 -1</clus>
<clus scale="  461.184">  4  5 -1 -1</clus>
<clus scale="  300.000">  1  4  2 -1</clus>
</clustering>
</event>
<event>
 6    1  0.1029244E-011  0.3000000E+03  0.7818608E-02  0.1093470E+00
          1   -1    0    0  502    0  0.00000000000E+00  0.00000000000E+00  0.23121608393E+03  0.23121608393E+03  0.00000000000E+00 0.  1.
         13   -1    0    0    0    0 -0.00000000000E+00 -0.00000000000E+00 -0.27500000000E+03  0.27500000000E+03  0.00000000000E+00 0.  1.
    9000005    2    1    2  501    0  0.58945152702E+01 -0.33098664951E+02 -0.51202173995E+02  0.47178793436E+03  0.46779474715E+03 0.  0.
         13    1    3    3    0    0  0.19072375598E+03  0.80077347091E+02  0.76137337387E+02  0.22041966055E+03  0.00000000000E+00 0.  1.
          1    1    3    3  501    0 -0.18482924071E+03 -0.11317601204E+03 -0.12733951138E+03  0.25136827382E+03  0.00000000000E+00 0.  1.
         21    1    1    2  502  501 -0.58945152702E+01  0.33098664951E+02  0.74182579235E+01  0.34428149564E+02  0.00000000000E+00 0. -1.
<scales pt_clust_4="550.00000" pt_clust_5="550.00000" pt_clust_6="33.61944"></scales>
<mgrwt>
<rscale>  0 0.30000000E+03</rscale>
<asrwt>  1 0.33619443E+02</asrwt>
<pdfrwt beam="1">  1        1 0.84078576E+00 0.30000000E+03</pdfrwt>
<pdfrwt beam="2">0</pdfrwt>
<totfact> 0.49381917E-04</totfact>
</mgrwt>
<clustering>
<clus scale="   33.619">  1  6  2 -1</clus>
<clus scale="  467.795">  4  5 -1 -1</clus>
<clus scale="  300.000">  1  4  2 -1</clus>
</clustering>
</event>
<event>
 6    1  0.1029244E-011  0.3000000E+03  0.7818608E-02  0.1093470E+00
          1   -1    0    0  502    0  0.00000000000E+00  0.00000000000E+00  0.22020826455E+03  0.22020826455E+03  0.00000000000E+00 0.  1.
         13   -1    0    0    0    0 -0.00000000000E+00 -0.00000000000E+00 -0.27500000000E+03  0.27500000000E+03  0.00000000000E+00 0.  1.
    9000005    2    1    2  501    0 -0.18070526268E+02 -0.26090301418E+02 -0.63264058196E+02  0.46235970293E+03  0.45691017289E+03 0.  0.
         13    1    3    3    0    0 -0.18768990463E+03 -0.36757799111E+02  0.10919348458E+03  0.22023136282E+03  0.00000000000E+00 0.  1.
          1    1    3    3  501    0  0.16961937836E+03  0.10667497693E+02 -0.17245754277E+03  0.24212834011E+03  0.00000000000E+00 0.  1.
         21    1    1    2  502  501  0.18070526268E+02  0.26090301418E+02  0.84723227437E+01  0.32848561617E+02  0.00000000000E+00 0.  1.
<scales pt_clust_4="550.00000" pt_clust_5="550.00000" pt_clust_6="31.73717"></scales>
<mgrwt>
<rscale>  0 0.30000000E+03</rscale>
<asrwt>  1 0.31737167E+02</asrwt>
<pdfrwt beam="1">  1        1 0.80075733E+00 0.30000000E+03</pdfrwt>
<pdfrwt beam="2">0</pdfrwt>
<totfact> 0.10431128E-03</totfact>
</mgrwt>
<clustering>
<clus scale="   31.737">  1  6  2 -1</clus>
<clus scale="  456.910">  4  5 -1 -1</clus>
<clus scale="  300.000">  1  4  2 -1</clus>
</clustering>
</event>
<event>
 6    1  0.1029244E-011  0.3000000E+03  0.7818608E-02  0.1093470E+00
          1   -1    0    0  502    0  0.00000000000E+00  0.00000000000E+00  0.23242140779E+03  0.23242140779E+03  0.00000000000E+00 0.  1.
         13   -1    0    0    0    0 -0.00000000000E+00 -0.00000000000E+00 -0.27500000000E+03  0.27500000000E+03  0.00000000000E+00 0.  1.
    9000005    2    1    2  501    0 -0.24955600135E+02 -0.21105406933E+02 -0.40029785371E+02  0.47463853732E+03  0.47181684711E+03 0.  0.
         13    1    3    3    0    0 -0.11787172423E+03 -0.13592585560E+03  0.14979898244E+03  0.23411389693E+03  0.00000000000E+00 0.  1.
          3    1    3    3  501    0  0.92916124092E+02  0.11482044867E+03 -0.18982876782E+03  0.24052464040E+03  0.00000000000E+00 0.  1.
         21    1    1    2  502  501  0.24955600135E+02  0.21105406933E+02 -0.25488068355E+01  0.32782870469E+02  0.00000000000E+00 0.  1.
<scales pt_clust_4="550.00000" pt_clust_5="550.00000" pt_clust_6="32.68364"></scales>
<mgrwt>
<rscale>  0 0.30000000E+03</rscale>
<asrwt>  1 0.32683638E+02</asrwt>
<pdfrwt beam="1">  1        1 0.84516876E+00 0.30000000E+03</pdfrwt>
<pdfrwt beam="2">0</pdfrwt>
<totfact> 0.45613138E-04</totfact>
</mgrwt>
<clustering>
<clus scale="   32.684">  1  6  2 -1</clus>
<clus scale="  471.817">  4  5 -1 -1</clus>
<clus scale="  300.000">  1  4  2 -1</clus>
</clustering>
</event>
<event>
 6    1  0.1029244E-011  0.3000000E+03  0.7818608E-02  0.1093470E+00
          1   -1    0    0  502    0  0.00000000000E+00  0.00000000000E+00  0.22116290982E+03  0.22116290982E+03  0.00000000000E+00 0.  1.
         13   -1    0    0    0    0 -0.00000000000E+00 -0.00000000000E+00 -0.27500000000E+03  0.27500000000E+03  0.00000000000E+00 0.  1.
    9000005    2    1    2  501    0  0.19076842686E+02  0.29195946328E+02 -0.57929403615E+02  0.46104772453E+03  0.45606234144E+03 0.  0.
         13    1    3    3    0    0  0.95145433221E+02 -0.35089415453E+02  0.17805457764E+03  0.20490815786E+03  0.00000000000E+00 0.  1.
          1    1    3    3  501    0 -0.76068590535E+02  0.64285361781E+02 -0.23598398125E+03  0.25613956667E+03  0.00000000000E+00 0.  1.
         21    1    1    2  502  501 -0.19076842686E+02 -0.29195946328E+02  0.40923134318E+01  0.35115185292E+02  0.00000000000E+00 0. -1.
<scales pt_clust_4="550.00000" pt_clust_5="550.00000" pt_clust_6="34.87591"></scales>
<mgrwt>
<rscale>  0 0.30000000E+03</rscale>
<asrwt>  1 0.34875912E+02</asrwt>
<pdfrwt beam="1">  1        1 0.80422876E+00 0.30000000E+03</pdfrwt>
<pdfrwt beam="2">0</pdfrwt>
<totfact> 0.96639647E-04</totfact>
</mgrwt>
<clustering>
<clus scale="   34.876">  1  6  2 -1</clus>
<clus scale="  456.062">  4  5 -1 -1</clus>
<clus scale="  300.000">  1  4  2 -1</clus>
</clustering>
</event>
<event>
 6    1  0.1029244E-011  0.3000000E+03  0.7818608E-02  0.1093470E+00
          1   -1    0    0  502    0  0.00000000000E+00  0.00000000000E+00  0.23977290385E+03  0.23977290385E+03  0.00000000000E+00 0.  1.
         13   -1    0    0    0    0 -0.00000000000E+00 -0.00000000000E+00 -0.27500000000E+03  0.27500000000E+03  0.00000000000E+00 0.  1.
    9000005    2    1    2  501    0  0.18449716923E+01 -0.42221655470E+02 -0.53320836364E+02  0.46880056928E+03  0.46383702963E+03 0.  0.
         13    1    3    3    0    0  0.22656645746E+03 -0.71774360618E+02 -0.45691941176E+02  0.24201585068E+03  0.00000000000E+00 0.  1.
          1    1    3    3  501    0 -0.22472148577E+03  0.29552705148E+02 -0.76288951878E+01  0.22678471860E+03  0.00000000000E+00 0.  1.
         21    1    1    2  502  501 -0.18449716923E+01  0.42221655470E+02  0.18093740215E+02  0.45972334574E+02  0.00000000000E+00 0. -1.
<scales pt_clust_4="550.00000" pt_clust_5="550.00000" pt_clust_6="42.26195"></scales>
<mgrwt>
<rscale>  0 0.30000000E+03</rscale>
<asrwt>  1 0.42261946E+02</asrwt>
<pdfrwt beam="1">  1        1 0.87190147E+00 0.30000000E+03</pdfrwt>
<pdfrwt beam="2">0</pdfrwt>
<totfact> 0.23392953E-04</totfact>
</mgrwt>
<clustering>
<clus scale="   42.262">  1  6  2 -1</clus>
<clus scale="  463.837">  4  5 -1 -1</clus>
<clus scale="  300.000">  1  4  2 -1</clus>
</clustering>
</event>
<event>
 6    1  0.1029244E-011  0.3000000E+03  0.7818608E-02  0.1093470E+00
          1   -1    0    0  502    0  0.00000000000E+00  0.00000000000E+00  0.24037943093E+03  0.24037943093E+03  0.00000000000E+00 0.  1.
         13   -1    0    0    0    0 -0.00000000000E+00 -0.00000000000E+00 -0.27500000000E+03  0.27500000000E+03  0.00000000000E+00 0.  1.
    9000005    2    1    2  501    0  0.68485634434E+01 -0.33311034172E+02 -0.48063813995E+02  0.47881102034E+03  0.47517716188E+03 0.  0.
         13    1    3    3    0    0 -0.16416807866E+03 -0.18309406333E+03 -0.52387290918E+02  0.25143393233E+03  0.00000000000E+00 0.  1.
          1    1    3    3  501    0  0.17101664210E+03  0.14978302916E+03  0.43234769226E+01  0.22737708801E+03  0.00000000000E+00 0.  1.
         21    1    1    2  502  501 -0.68485634434E+01  0.33311034172E+02  0.13443244928E+02  0.36568410590E+02  0.00000000000E+00 0.  1.
<scales pt_clust_4="550.00000" pt_clust_5="550.00000" pt_clust_6="34.00776"></scales>
<mgrwt>
<rscale>  0 0.30000000E+03</rscale>
<asrwt>  1 0.34007761E+02</asrwt>
<pdfrwt beam="1">  1        1 0.87410702E+00 0.30000000E+03</pdfrwt>
<pdfrwt beam="2">0</pdfrwt>
<totfact> 0.23107810E-04</totfact>
</mgrwt>
<clustering>
<clus scale="   34.008">  1  6  2 -1</clus>
<clus scale="  475.177">  4  5 -1 -1</clus>
<clus scale="  300.000">  1  4  2 -1</clus>
</clustering>
</event>
<event>
 6    1  0.1029244E-011  0.3000000E+03  0.7818608E-02  0.1093470E+00
          1   -1    0    0  502    0  0.00000000000E+00  0.00000000000E+00  0.23218423643E+03  0.23218423643E+03  0.00000000000E+00 0.  1.
         13   -1    0    0    0    0 -0.00000000000E+00 -0.00000000000E+00 -0.27500000000E+03  0.27500000000E+03  0.00000000000E+00 0.  1.
    9000005    2    1    2  501    0  0.18551589661E+02 -0.26557572175E+02 -0.40704415413E+02  0.47472004216E+03  0.47186099953E+03 0.  0.
         13    1    3    3    0    0 -0.15808827571E+03  0.16561858007E+02 -0.18404688433E+03  0.24318604748E+03  0.00000000000E+00 0.  1.
          1    1    3    3  501    0  0.17663986537E+03 -0.43119430182E+02  0.14334246891E+03  0.23153399468E+03  0.00000000000E+00 0.  1.
         21    1    1    2  502  501 -0.18551589661E+02  0.26557572175E+02 -0.21113481556E+01  0.32464194274E+02  0.00000000000E+00 0.  1.
<scales pt_clust_4="550.00000" pt_clust_5="550.00000" pt_clust_6="32.39546"></scales>
<mgrwt>
<rscale>  0 0.30000000E+03</rscale>
<asrwt>  1 0.32395464E+02</asrwt>
<pdfrwt beam="1">  1        1 0.84430631E+00 0.30000000E+03</pdfrwt>
<pdfrwt beam="2">0</pdfrwt>
<totfact> 0.46485873E-04</totfact>
</mgrwt>
<clustering>
<clus scale="   32.395">  1  6  2 -1</clus>
<clus scale="  471.861">  4  5 -1 -1</clus>
<clus scale="  300.000">  1  4  2 -1</clus>
</clustering>
</event>
<event>
 6    1  0.1029244E-011  0.3000000E+03  0.7818608E-02  0.1093470E+00
          1   -1    0    0  502    0  0.00000000000E+00  0.00000000000E+00  0.23339317329E+03  0.23339317329E+03  0.00000000000E+00 0.  1.
         13   -1    0    0    0    0 -0.00000000000E+00 -0.00000000000E+00 -0.27500000000E+03  0.27500000000E+03  0.00000000000E+00 0.  1.
    9000005    2    1    2  501    0  0.19987108851E+02 -0.26663253475E+02 -0.69858462465E+02  0.46470600665E+03  0.45821507421E+03 0.  0.
         13    1    3    3    0    0  0.18659166265E+03 -0.93457886405E+02 -0.16083232749E+03  0.26347269814E+03  0.00000000000E+00 0.  1.
          1    1    3    3  501    0 -0.16660455380E+03  0.66794632930E+02  0.90973865021E+02  0.20123330851E+03  0.00000000000E+00 0.  1.
         21    1    1    2  502  501 -0.19987108851E+02  0.26663253475E+02  0.28251635758E+02  0.43687166641E+02  0.00000000000E+00 0. -1.
<scales pt_clust_4="550.00000" pt_clust_5="550.00000" pt_clust_6="33.32287"></scales>
<mgrwt>
<rscale>  0 0.30000000E+03</rscale>
<asrwt>  1 0.33322869E+02</asrwt>
<pdfrwt beam="1">  1        1 0.84870245E+00 0.30000000E+03</pdfrwt>
<pdfrwt beam="2">0</pdfrwt>
<totfact> 0.42234595E-04</totfact>
</mgrwt>
<clustering>
<clus scale="   33.323">  1  6  2 -1</clus>
<clus scale="  458.215">  4  5 -1 -1</clus>
<clus scale="  300.000">  1  4  2 -1</clus>
</clustering>
</event>
<event>
 6    1  0.1029244E-011  0.3000000E+03  0.7818608E-02  0.1093470E+00
          1   -1    0    0  502    0  0.00000000000E+00  0.00000000000E+00  0.21921268597E+03  0.21921268597E+03  0.00000000000E+00 0.  1.
         13   -1    0    0    0    0 -0.00000000000E+00 -0.00000000000E+00 -0.27500000000E+03  0.27500000000E+03  0.00000000000E+00 0.  1.
    9000005    2    1    2  501    0  0.28992064235E+02 -0.79222133284E+01 -0.50312582900E+02  0.46366315352E+03  0.45994441259E+03 0.  0.
         13    1    3    3    0    0  0.99056590416E+02  0.17484392275E+03 -0.14344634738E+03  0.24689969624E+03  0.00000000000E+00 0.  1.
          1    1    3    3  501    0 -0.70064526181E+02 -0.18276613608E+03  0.93133764478E+02  0.21676345728E+03  0.00000000000E+00 0.  1.
         21    1    1    2  502  501 -0.28992064235E+02  0.79222133284E+01 -0.54747311246E+01  0.30549532460E+02  0.00000000000E+00 0.  1.
<scales pt_clust_4="550.00000" pt_clust_5="550.00000" pt_clust_6="30.05499"></scales>
<mgrwt>
<rscale>  0 0.30000000E+03</rscale>
<asrwt>  1 0.30054986E+02</asrwt>
<pdfrwt beam="1">  1        1 0.79713704E+00 0.30000000E+03</pdfrwt>
<pdfrwt beam="2">0</pdfrwt>
<totfact> 0.11197370E-03</totfact>
</mgrwt>
<clustering>
<clus scale="   30.055">  1  6  2 -1</clus>
<clus scale="  459.944">  4  5 -1 -1</clus>
<clus scale="  300.000">  1  4  2 -1</clus>
</clustering>
</event>
<event>
 6    1  0.1029244E-011  0.3000000E+03  0.7818608E-02  0.1093470E+00
          1   -1    0    0  502    0  0.00000000000E+00  0.00000000000E+00  0.24860388459E+03  0.24860388459E+03  0.00000000000E+00 0.  1.
         13   -1    0    0    0    0 -0.00000000000E+00 -0.00000000000E+00 -0.27500000000E+03  0.27500000000E+03  0.00000000000E+00 0.  1.
    9000005    2    1    2  501    0  0.36866531775E+02 -0.20313073082E+02 -0.18151186343E+02  0.48071168299E+03  0.47852115365E+03 0.  0.
         13    1    3    3    0    0  0.24459721318E+03 -0.89442468440E+02 -0.25300810185E+02  0.26166368272E+03  0.00000000000E+00 0.  1.
          1    1    3    3  501    0 -0.20773068141E+03  0.69129395359E+02  0.71496238420E+01  0.21904800027E+03  0.00000000000E+00 0.  1.
         21    1    1    2  502  501 -0.36866531775E+02  0.20313073082E+02 -0.82449290674E+01  0.42892201604E+02  0.00000000000E+00 0. -1.
<scales pt_clust_4="550.00000" pt_clust_5="550.00000" pt_clust_6="42.09233"></scales>
<mgrwt>
<rscale>  0 0.30000000E+03</rscale>
<asrwt>  1 0.42092326E+02</asrwt>
<pdfrwt beam="1">  1        1 0.90401413E+00 0.30000000E+03</pdfrwt>
<pdfrwt beam="2">0</pdfrwt>
<totfact> 0.93152689E-05</totfact>
</mgrwt>
<clustering>
<clus scale="   42.092">  1  6  2 -1</clus>
<clus scale="  478.521">  4  5 -1 -1</clus>
<clus scale="  300.000">  1  4  2 -1</clus>
</clustering>
</event>
<event>
 6    1  0.1029244E-011  0.3000000E+03  0.7818608E-02  0.1093470E+00
          1   -1    0    0  502    0  0.00000000000E+00  0.00000000000E+00  0.22575017723E+03  0.22575017723E+03  0.00000000000E+00 0.  1.
         13   -1    0    0    0    0 -0.00000000000E+00 -0.00000000000E+00 -0.27500000000E+03  0.27500000000E+03  0.00000000000E+00 0.  1.
    9000005    2    1    2  501    0  0.25407734731E+02  0.21190575876E+02 -0.51263055384E+02  0.46760433895E+03  0.46360686305E+03 0.  0.
         13    1    3    3    0    0  0.12156035017E+03 -0.68960437059E+02 -0.21560325814E+03  0.25693817453E+03  0.00000000000E+00 0.  1.
          3    1    3    3  501    0 -0.96152615435E+02  0.90151012935E+02  0.16434020275E+03  0.21066616442E+03  0.00000000000E+00 0.  1.
         21    1    1    2  502  501 -0.25407734731E+02 -0.21190575876E+02  0.20132326188E+01  0.33145838287E+02  0.00000000000E+00 0. -1.
<scales pt_clust_4="550.00000" pt_clust_5="550.00000" pt_clust_6="33.08464"></scales>
<mgrwt>
<rscale>  0 0.30000000E+03</rscale>
<asrwt>  1 0.33084641E+02</asrwt>
<pdfrwt beam="1">  1        1 0.82090974E+00 0.30000000E+03</pdfrwt>
<pdfrwt beam="2">0</pdfrwt>
<totfact> 0.71776409E-04</totfact>
</mgrwt>
<clustering>
<clus scale="   33.085">  1  6  2 -1</clus>
<clus scale="  463.607">  4  5 -1 -1</clus>
<clus scale="  300.000">  1  4  2 -1</clus>
</clustering>
</event>
<event>
 6    1  0.1029244E-011  0.3000000E+03  0.7818608E-02  0.1093470E+00
          1   -1    0    0  502    0  0.00000000000E+00  0.00000000000E+00  0.23138619276E+03  0.23138619276E+03  0.00000000000E+00 0.  1.
         13   -1    0    0    0    0 -0.00000000000E+00 -0.00000000000E+00 -0.27500000000E+03  0.27500000000E+03  0.00000000000E+00 0.  1.
    9000005    2    1    2  501    0  0.41748078395E+01  0.36335721840E+02 -0.49361105931E+02  0.46936261724E+03  0.46532465438E+03 0.  0.
         13    1    3    3    0    0  0.87971737260E+02  0.15247185663E+01 -0.24141667193E+03  0.25695011346E+03  0.00000000000E+00 0.  1.
          1    1    3    3  501    0 -0.83796929420E+02  0.34811003274E+02  0.19205556600E+03  0.21241250377E+03  0.00000000000E+00 0.  1.
         21    1    1    2  502  501 -0.41748078395E+01 -0.36335721840E+02  0.57472986891E+01  0.37023575521E+02  0.00000000000E+00 0.  1.
<scales pt_clust_4="550.00000" pt_clust_5="550.00000" pt_clust_6="36.57477"></scales>
<mgrwt>
<rscale>  0 0.30000000E+03</rscale>
<asrwt>  1 0.36574769E+02</asrwt>
<pdfrwt beam="1">  1        1 0.84140434E+00 0.30000000E+03</pdfrwt>
<pdfrwt beam="2">0</pdfrwt>
<totfact> 0.48061167E-04</totfact>
</mgrwt>
<clustering>
<clus scale="   36.575">  1  6  2 -1</clus>
<clus scale="  465.325">  4  5 -1 -1</clus>
<clus scale="  300.000">  1  4  2 -1</clus>
</clustering>
</event>
<event>
 6    1  0.1029244E-011  0.3000000E+03  0.7818608E-02  0.1093470E+00
          1   -1    0    0  502    0  0.00000000000E+00  0.00000000000E+00  0.23085359074E+03  0.23085359074E+03  0.00000000000E+00 0.  1.
         13   -1    0    0    0    0 -0.00000000000E+00 -0.00000000000E+00 -0.27500000000E+03  0.27500000000E+03  0.00000000000E+00 0.  1.
    9000005    2    1    2  501    0  0.38535019457E+02  0.98012386274E+00 -0.54585832332E+02  0.46591751780E+03  0.46110043585E+03 0.  0.
         13    1    3    3    0    0  0.31019428168E+01  0.90518575604E+02 -0.24025655820E+03  0.25676146194E+03  0.00000000000E+00 0.  1.
          3    1    3    3  501    0  0.35433076640E+02 -0.89538451741E+02  0.18567072587E+03  0.20915605587E+03  0.00000000000E+00 0.  1.
         21    1    1    2  502  501 -0.38535019457E+02 -0.98012386274E+00  0.10439423069E+02  0.39936072934E+02  0.00000000000E+00 0. -1.
<scales pt_clust_4="550.00000" pt_clust_5="550.00000" pt_clust_6="38.54748"></scales>
<mgrwt>
<rscale>  0 0.30000000E+03</rscale>
<asrwt>  1 0.38547482E+02</asrwt>
<pdfrwt beam="1">  1        1 0.83946760E+00 0.30000000E+03</pdfrwt>
<pdfrwt beam="2">0</pdfrwt>
<totfact> 0.49280283E-04</totfact>
</mgrwt>
<clustering>
<clus scale="   38.547">  1  6  2 -1</clus>
<clus scale="  461.100">  4  5 -1 -1</clus>
<clus scale="  300.000">  1  4  2 -1</clus>
</clustering>
</event>
<event>
 6    1  0.1029244E-011  0.3000000E+03  0.7818608E-02  0.1093470E+00
          1   -1    0    0  502    0  0.00000000000E+00  0.00000000000E+00  0.23504323437E+03  0.23504323437E+03  0.00000000000E+00 0.  1.
         13   -1    0    0    0    0 -0.00000000000E+00 -0.00000000000E+00 -0.27500000000E+03  0.27500000000E+03  0.00000000000E+00 0.  1.
    9000005    2    1    2  501    0 -0.40485178585E+01 -0.31853260654E+02 -0.19149608541E+02  0.47178152378E+03  0.47029786090E+03 0.  0.
         13    1    3    3    0    0  0.80442525204E-01  0.73710177002E+02  0.20832029122E+03  0.22097633448E+03  0.00000000000E+00 0.  1.
          1    1    3    3  501    0 -0.41289603837E+01 -0.10556343766E+03 -0.22746989976E+03  0.25080518930E+03  0.00000000000E+00 0.  1.
         21    1    1    2  502  501  0.40485178585E+01  0.31853260654E+02 -0.20807157089E+02  0.38261710589E+02  0.00000000000E+00 0. -1.
<scales pt_clust_4="550.00000" pt_clust_5="550.00000" pt_clust_6="32.10953"></scales>
<mgrwt>
<rscale>  0 0.30000000E+03</rscale>
<asrwt>  1 0.32109527E+02</asrwt>
<pdfrwt beam="1">  1        1 0.85470267E+00 0.30000000E+03</pdfrwt>
<pdfrwt beam="2">0</pdfrwt>
<totfact> 0.37282020E-04</totfact>
</mgrwt>
<clustering>
<clus scale="   32.110">  1  6  2 -1</clus>
<clus scale="  470.298">  4  5 -1 -1</clus>
<clus scale="  300.000">  1  4  2 -1</clus>
</clustering>
</event>
<event>
 6    1  0.1029244E-011  0.3000000E+03  0.7818608E-02  0.1093470E+00
          1   -1    0    0  502    0  0.00000000000E+00  0.00000000000E+00  0.24339083991E+03  0.24339083991E+03  0.00000000000E+00 0.  1.
         13   -1    0    0    0    0 -0.00000000000E+00 -0.00000000000E+00 -0.27500000000E+03  0.27500000000E+03  0.00000000000E+00 0.  1.
    9000005    2    1    2  501    0 -0.29539439752E+02 -0.13250089919E+02 -0.37936823885E+02  0.48540322537E+03  0.48283428338E+03 0.  0.
         13    1    3    3    0    0  0.14291775290E+03  0.17003913875E+03 -0.67136559249E+02  0.23204764681E+03  0.00000000000E+00 0.  1.
          3    1    3    3  501    0 -0.17245719266E+03 -0.18328922867E+03  0.29199735364E+02  0.25335557856E+03  0.00000000000E+00 0.  1.
         21    1    1    2  502  501  0.29539439752E+02  0.13250089919E+02  0.63276637904E+01  0.32987614536E+02  0.00000000000E+00 0. -1.
<scales pt_clust_4="550.00000" pt_clust_5="550.00000" pt_clust_6="32.37504"></scales>
<mgrwt>
<rscale>  0 0.30000000E+03</rscale>
<asrwt>  1 0.32375043E+02</asrwt>
<pdfrwt beam="1">  1        1 0.88505760E+00 0.30000000E+03</pdfrwt>
<pdfrwt beam="2">0</pdfrwt>
<totfact> 0.17190602E-04</totfact>
</mgrwt>
<clustering>
<clus scale="   32.375">  1  6  2 -1</clus>
<clus scale="  482.834">  4  5 -1 -1</clus>
<clus scale="  300.000">  1  4  2 -1</clus>
</clustering>
</event>
<event>
 6    1  0.1029244E-011  0.3000000E+03  0.7818608E-02  0.1093470E+00
          1   -1    0    0  502    0  0.00000000000E+00  0.00000000000E+00  0.24856044104E+03  0.24856044104E+03  0.00000000000E+00 0.  1.
         13   -1    0    0    0    0 -0.00000000000E+00 -0.00000000000E+00 -0.27500000000E+03  0.27500000000E+03  0.00000000000E+00 0.  1.
    9000005    2    1    2  501    0 -0.37741671712E+02 -0.50222582356E+01 -0.28073929086E+02  0.48545101928E+03  0.48314065215E+03 0.  0.
         13    1    3    3    0    0 -0.84545722568E+02 -0.22513948510E+03  0.52986388954E+02  0.24625865339E+03  0.00000000000E+00 0.  1.
          1    1    3    3  501    0  0.46804050856E+02  0.22011722686E+03 -0.81060318039E+02  0.23919236589E+03  0.00000000000E+00 0.  1.
         21    1    1    2  502  501  0.37741671712E+02  0.50222582356E+01  0.16343701236E+01  0.38109421763E+02  0.00000000000E+00 0. -1.
<scales pt_clust_4="550.00000" pt_clust_5="550.00000" pt_clust_6="38.07436"></scales>
<mgrwt>
<rscale>  0 0.30000000E+03</rscale>
<asrwt>  1 0.38074360E+02</asrwt>
<pdfrwt beam="1">  1        1 0.90385615E+00 0.30000000E+03</pdfrwt>
<pdfrwt beam="2">0</pdfrwt>
<totfact> 0.95475271E-05</totfact>
</mgrwt>
<clustering>
<clus scale="   38.074">  1  6  2 -1</clus>
<clus scale="  483.141">  4  5 -1 -1</clus>
<clus scale="  300.000">  1  4  2 -1</clus>
</clustering>
</event>
<event>
 6    1  0.1029244E-011  0.3000000E+03  0.7818608E-02  0.1093470E+00
          1   -1    0    0  502    0  0.00000000000E+00  0.00000000000E+00  0.23934959227E+03  0.23934959227E+03  0.00000000000E+00 0.  1.
         13   -1    0    0    0    0 -0.00000000000E+00 -0.00000000000E+00 -0.27500000000E+03  0.27500000000E+03  0.00000000000E+00 0.  1.
    9000005    2    1    2  501    0  0.37690566035E+01 -0.32486074315E+02 -0.45486349087E+02  0.48019850803E+03  0.47691933107E+03 0.  0.
         13    1    3    3    0    0  0.21280571608E+03 -0.12648509678E+03 -0.60492466460E+01  0.24763147193E+03  0.00000000000E+00 0.  1.
          1    1    3    3  501    0 -0.20903665948E+03  0.93999022468E+02 -0.39437102441E+02  0.23256703610E+03  0.00000000000E+00 0.  1.
         21    1    1    2  502  501 -0.37690566035E+01  0.32486074315E+02  0.98359413537E+01  0.34151084235E+02  0.00000000000E+00 0.  1.
<scales pt_clust_4="550.00000" pt_clust_5="550.00000" pt_clust_6="32.70399"></scales>
<mgrwt>
<rscale>  0 0.30000000E+03</rscale>
<asrwt>  1 0.32703988E+02</asrwt>
<pdfrwt beam="1">  1        1 0.87036215E+00 0.30000000E+03</pdfrwt>
<pdfrwt beam="2">0</pdfrwt>
<totfact> 0.25432891E-04</totfact>
</mgrwt>
<clustering>
<clus scale="   32.704">  1  6  2 -1</clus>
<clus scale="  476.919">  4  5 -1 -1</clus>
<clus scale="  300.000">  1  4  2 -1</clus>
</clustering>
</event>
<event>
 6    1  0.1029244E-011  0.3000000E+03  0.7818608E-02  0.1093470E+00
          1   -1    0    0  502    0  0.00000000000E+00  0.00000000000E+00  0.23485678134E+03  0.23485678134E+03  0.00000000000E+00 0.  1.
         13   -1    0    0    0    0 -0.00000000000E+00 -0.00000000000E+00 -0.27500000000E+03  0.27500000000E+03  0.00000000000E+00 0.  1.
    9000005    2    1    2  501    0 -0.34740345095E+02 -0.26640058361E+02 -0.32354196552E+02  0.46539046654E+03  0.46219574644E+03 0.  0.
         13    1    3    3    0    0 -0.19176059730E+03  0.12467320674E+03 -0.79762247026E+02  0.24223449632E+03  0.00000000000E+00 0.  1.
          1    1    3    3  501    0  0.15702025220E+03 -0.15131326510E+03  0.47408050474E+02  0.22315597023E+03  0.00000000000E+00 0.  1.
         21    1    1    2  502  501  0.34740345095E+02  0.26640058361E+02 -0.77890221029E+01  0.44466314802E+02  0.00000000000E+00 0.  1.
<scales pt_clust_4="550.00000" pt_clust_5="550.00000" pt_clust_6="43.77883"></scales>
<mgrwt>
<rscale>  0 0.30000000E+03</rscale>
<asrwt>  1 0.43778833E+02</asrwt>
<pdfrwt beam="1">  1        1 0.85402466E+00 0.30000000E+03</pdfrwt>
<pdfrwt beam="2">0</pdfrwt>
<totfact> 0.35749299E-04</totfact>
</mgrwt>
<clustering>
<clus scale="   43.779">  1  6  2 -1</clus>
<clus scale="  462.196">  4  5 -1 -1</clus>
<clus scale="  300.000">  1  4  2 -1</clus>
</clustering>
</event>
<event>
 6    1  0.1029244E-011  0.3000000E+03  0.7818608E-02  0.1093470E+00
          1   -1    0    0  502    0  0.00000000000E+00  0.00000000000E+00  0.24071630889E+03  0.24071630889E+03  0.00000000000E+00 0.  1.
         13   -1    0    0    0    0 -0.00000000000E+00 -0.00000000000E+00 -0.27500000000E+03  0.27500000000E+03  0.00000000000E+00 0.  1.
    9000005    2    1    2  501    0 -0.12656532187E+02 -0.35900080056E+02 -0.64931937299E+02  0.46684588277E+03  0.46073844882E+03 0.  0.
         13    1    3    3    0    0 -0.17709983174E+03 -0.35890170479E+02 -0.18852140193E+03  0.26113746136E+03  0.00000000000E+00 0.  1.
          1    1    3    3  501    0  0.16444329956E+03 -0.99095767287E-02  0.12358946463E+03  0.20570842140E+03  0.00000000000E+00 0.  1.
         21    1    1    2  502  501  0.12656532187E+02  0.35900080056E+02  0.30648246186E+02  0.48870426122E+02  0.00000000000E+00 0. -1.
<scales pt_clust_4="550.00000" pt_clust_5="550.00000" pt_clust_6="38.06578"></scales>
<mgrwt>
<rscale>  0 0.30000000E+03</rscale>
<asrwt>  1 0.38065779E+02</asrwt>
<pdfrwt beam="1">  1        1 0.87533203E+00 0.30000000E+03</pdfrwt>
<pdfrwt beam="2">0</pdfrwt>
<totfact> 0.21965874E-04</totfact>
</mgrwt>
<clustering>
<clus scale="   38.066">  1  6  2 -1</clus>
<clus scale="  460.738">  4  5 -1 -1</clus>
<clus scale="  300.000">  1  4  2 -1</clus>
</clustering>
</event>
<event>
 6    1  0.1029244E-011  0.3000000E+03  0.7818608E-02  0.1093470E+00
          1   -1    0    0  502    0  0.00000000000E+00  0.00000000000E+00  0.22097178644E+03  0.22097178644E+03  0.00000000000E+00 0.  1.
         13   -1    0    0    0    0 -0.00000000000E+00 -0.00000000000E+00 -0.27500000000E+03  0.27500000000E+03  0.00000000000E+00 0.  1.
    9000005    2    1    2  501    0 -0.30405009812E+02 -0.61237617887E+01 -0.59470699703E+02  0.46448233208E+03  0.45961408553E+03 0.  0.
         13    1    3    3    0    0 -0.15417594775E+03  0.17981452231E+03 -0.40654836232E+02  0.24032540649E+03  0.00000000000E+00 0.  1.
          3    1    3    3  501    0  0.12377093794E+03 -0.18593828410E+03 -0.18815863471E+02  0.22415692559E+03  0.00000000000E+00 0.  1.
         21    1    1    2  502  501  0.30405009812E+02  0.61237617887E+01  0.54424861389E+01  0.31489454353E+02  0.00000000000E+00 0.  1.
<scales pt_clust_4="550.00000" pt_clust_5="550.00000" pt_clust_6="31.01556"></scales>
<mgrwt>
<rscale>  0 0.30000000E+03</rscale>
<asrwt>  1 0.31015562E+02</asrwt>
<pdfrwt beam="1">  1        1 0.80353377E+00 0.30000000E+03</pdfrwt>
<pdfrwt beam="2">0</pdfrwt>
<totfact> 0.99991087E-04</totfact>
</mgrwt>
<clustering>
<clus scale="   31.016">  1  6  2 -1</clus>
<clus scale="  459.614">  4  5 -1 -1</clus>
<clus scale="  300.000">  1  4  2 -1</clus>
</clustering>
</event>
