<event>
 6    1  0.5613766E-003  0.6653750E+03  0.7818608E-02  0.9778349E-01
          1   -1    0    0  502    0  0.00000000000E+00  0.00000000000E+00  0.11071515833E+03  0.11071515833E+03  0.00000000000E+00 0.  1.
         13   -1    0    0    0    0 -0.00000000000E+00 -0.00000000000E+00 -0.10000000000E+04  0.10000000000E+04  0.00000000000E+00 0.  1.
    9000005    2    1    2  501    0  0.10476222278E-01  0.23282833327E-02 -0.88931807968E+03  0.11106802307E+04  0.66537502807E+03 0.  0.
         13    1    3    3    0    0  0.71712663459E+02 -0.12357348257E+03  0.56862339398E+02  0.15377398134E+03  0.00000000000E+00 0.  1.
          1    1    3    3  501    0 -0.71702187236E+02  0.12357581086E+03 -0.94618041907E+03  0.95690624939E+03  0.00000000000E+00 0.  1.
         21    1    1    2  502  501 -0.10476222278E-01 -0.23282833327E-02  0.33238010775E-01  0.34927603650E-01  0.00000000000E+00 0. -1.
<mgrwt>
<rscale>  1 0.66537503E+03</rscale>
<asrwt>0</asrwt>
<pdfrwt beam="1">  1        1 0.40260142E+00 0.66537503E+03</pdfrwt>
<pdfrwt beam="2">0</pdfrwt>
<totfact> 0.12988148E+00</totfact>
</mgrwt>
</event>
<event>
 6    1  0.5613766E-003  0.6501583E+03  0.7818608E-02  0.9806482E-01
          1   -1    0    0  502    0  0.00000000000E+00  0.00000000000E+00  0.11503734599E+03  0.11503734599E+03  0.00000000000E+00 0.  1.
         13   -1    0    0    0    0 -0.00000000000E+00 -0.00000000000E+00 -0.10000000000E+04  0.10000000000E+04  0.00000000000E+00 0.  1.
    9000005    2    1    2  501    0 -0.15234813076E+00 -0.19427414787E+00 -0.89432174420E+03  0.11056750000E+04  0.65015825967E+03 0.  0.
         13    1    3    3    0    0  0.27879096762E+03  0.27989068188E+02 -0.16699430580E+03  0.32618229524E+03  0.00000000000E+00 0.  1.
          3    1    3    3  501    0 -0.27894331575E+03 -0.28183342336E+02 -0.72732743840E+03  0.77949270480E+03  0.00000000000E+00 0.  1.
         21    1    1    2  502  501  0.15234813076E+00  0.19427414787E+00  0.93590901932E+01  0.93623459475E+01  0.00000000000E+00 0. -1.
<mgrwt>
<rscale>  1 0.65015831E+03</rscale>
<asrwt>0</asrwt>
<pdfrwt beam="1">  1        1 0.41831850E+00 0.65015831E+03</pdfrwt>
<pdfrwt beam="2">0</pdfrwt>
<totfact> 0.11074453E+00</totfact>
</mgrwt>
</event>
<event>
 6    1  0.5613766E-003  0.6549224E+03  0.7818608E-02  0.9797586E-01
          1   -1    0    0  502    0  0.00000000000E+00  0.00000000000E+00  0.10723090059E+03  0.10723090059E+03  0.00000000000E+00 0.  1.
         13   -1    0    0    0    0 -0.00000000000E+00 -0.00000000000E+00 -0.10000000000E+04  0.10000000000E+04  0.00000000000E+00 0.  1.
    9000005    2    1    2  501    0  0.47734821464E-05 -0.55567480963E-05 -0.89276915517E+03  0.11072308444E+04  0.65492242157E+03 0.  0.
         13    1    3    3    0    0 -0.31359267852E+03  0.24804164117E+02 -0.29259095751E+03  0.42961038511E+03  0.00000000000E+00 0.  1.
          3    1    3    3  501    0  0.31359268329E+03 -0.24804169674E+02 -0.60017819766E+03  0.67762045925E+03  0.00000000000E+00 0.  1.
         21    1    1    2  502  501 -0.47734821655E-05  0.55567480938E-05  0.55759935279E-04  0.56239078617E-04  0.00000000000E+00 0.  1.
<mgrwt>
<rscale>  1 0.65492242E+03</rscale>
<asrwt>0</asrwt>
<pdfrwt beam="1">  1        1 0.38993137E+00 0.65492242E+03</pdfrwt>
<pdfrwt beam="2">0</pdfrwt>
<totfact> 0.14817546E+00</totfact>
</mgrwt>
</event>
<event>
 6    1  0.5613766E-003  0.6590662E+03  0.7818608E-02  0.9789914E-01
          1   -1    0    0  502    0  0.00000000000E+00  0.00000000000E+00  0.10859208476E+03  0.10859208476E+03  0.00000000000E+00 0.  1.
         13   -1    0    0    0    0 -0.00000000000E+00 -0.00000000000E+00 -0.10000000000E+04  0.10000000000E+04  0.00000000000E+00 0.  1.
    9000005    2    1    2  501    0 -0.57761056738E-05 -0.68701646967E-05 -0.89140793101E+03  0.11085920666E+04  0.65906621115E+03 0.  0.
         13    1    3    3    0    0  0.39955633901E+02 -0.19135686107E+03  0.52904599045E+00  0.19548447726E+03  0.00000000000E+00 0.  1.
          1    1    3    3  501    0 -0.39955639677E+02  0.19135685420E+03 -0.89193697700E+03  0.91310758935E+03  0.00000000000E+00 0.  1.
         21    1    1    2  502  501  0.57761056750E-05  0.68701647205E-05  0.15773690310E-04  0.18148605072E-04  0.00000000000E+00 0. -1.
<mgrwt>
<rscale>  1 0.65906621E+03</rscale>
<asrwt>0</asrwt>
<pdfrwt beam="1">  1        1 0.39488114E+00 0.65906621E+03</pdfrwt>
<pdfrwt beam="2">0</pdfrwt>
<totfact> 0.14075448E+00</totfact>
</mgrwt>
</event>
<event>
 6    1  0.5613766E-003  0.6296549E+03  0.7818608E-02  0.9845723E-01
          1   -1    0    0  502    0  0.00000000000E+00  0.00000000000E+00  0.10305826004E+03  0.10305826004E+03  0.00000000000E+00 0.  1.
         13   -1    0    0    0    0 -0.00000000000E+00 -0.00000000000E+00 -0.10000000000E+04  0.10000000000E+04  0.00000000000E+00 0.  1.
    9000005    2    1    2  501    0  0.90073691640E+01 -0.21218423879E+01 -0.89373473055E+03  0.10932643934E+04  0.62958687277E+03 0.  0.
         13    1    3    3    0    0 -0.26027228472E+03  0.72464872956E+02 -0.70786700107E+03  0.75767308993E+03  0.00000000000E+00 0.  1.
          3    1    3    3  501    0  0.26927965388E+03 -0.74586715344E+02 -0.18586772949E+03  0.33559130347E+03  0.00000000000E+00 0.  1.
         21    1    1    2  502  501 -0.90073691640E+01  0.21218423879E+01 -0.32070094102E+01  0.97938666385E+01  0.00000000000E+00 0.  1.
<mgrwt>
<rscale>  1 0.62965488E+03</rscale>
<asrwt>0</asrwt>
<pdfrwt beam="1">  1        1 0.37475810E+00 0.62965488E+03</pdfrwt>
<pdfrwt beam="2">0</pdfrwt>
<totfact> 0.17371111E+00</totfact>
</mgrwt>
</event>
<event>
 6    1  0.5613766E-003  0.6536453E+03  0.7818608E-02  0.9799963E-01
          1   -1    0    0  502    0  0.00000000000E+00  0.00000000000E+00  0.10765448305E+03  0.10765448305E+03  0.00000000000E+00 0.  1.
         13   -1    0    0    0    0 -0.00000000000E+00 -0.00000000000E+00 -0.10000000000E+04  0.10000000000E+04  0.00000000000E+00 0.  1.
    9000005    2    1    2  501    0  0.40540484553E-01 -0.89988369272E-01 -0.89318375593E+03  0.11068104534E+04  0.65364527703E+03 0.  0.
         13    1    3    3    0    0  0.21398446007E+03 -0.24645490145E+03 -0.41662626052E+03  0.52925117719E+03  0.00000000000E+00 0.  1.
          3    1    3    3  501    0 -0.21394391958E+03  0.24636491308E+03 -0.47655749541E+03  0.57755927623E+03  0.00000000000E+00 0.  1.
         21    1    1    2  502  501 -0.40540484553E-01  0.89988369272E-01  0.83823897889E+00  0.84402963409E+00  0.00000000000E+00 0. -1.
<mgrwt>
<rscale>  1 0.65364528E+03</rscale>
<asrwt>0</asrwt>
<pdfrwt beam="1">  1        1 0.39147167E+00 0.65364528E+03</pdfrwt>
<pdfrwt beam="2">0</pdfrwt>
<totfact> 0.14589692E+00</totfact>
</mgrwt>
</event>
<event>
 6    1  0.5613766E-003  0.6207803E+03  0.7818608E-02  0.9863207E-01
          1   -1    0    0  502    0  0.00000000000E+00  0.00000000000E+00  0.97063955190E+02  0.97063955190E+02  0.00000000000E+00 0.  1.
         13   -1    0    0    0    0 -0.00000000000E+00 -0.00000000000E+00 -0.10000000000E+04  0.10000000000E+04  0.00000000000E+00 0.  1.
    9000005    2    1    2  501    0  0.16479898381E-01 -0.13875237325E-01 -0.90365777397E+03  0.10963419046E+04  0.62078031446E+03 0.  0.
         13    1    3    3    0    0  0.16745702087E+03  0.25000216314E+03 -0.58630866348E+03  0.65901501067E+03  0.00000000000E+00 0.  1.
          1    1    3    3  501    0 -0.16744054097E+03 -0.25001603838E+03 -0.31734911049E+03  0.43732689391E+03  0.00000000000E+00 0.  1.
         21    1    1    2  502  501 -0.16479898381E-01  0.13875237325E-01  0.72172915789E+00  0.72205061222E+00  0.00000000000E+00 0.  1.
<mgrwt>
<rscale>  1 0.62078031E+03</rscale>
<asrwt>0</asrwt>
<pdfrwt beam="1">  1        1 0.35296058E+00 0.62078031E+03</pdfrwt>
<pdfrwt beam="2">0</pdfrwt>
<totfact> 0.21676807E+00</totfact>
</mgrwt>
</event>
<event>
 6    1  0.5613766E-003  0.6501936E+03  0.7818608E-02  0.9806416E-01
          1   -1    0    0  502    0  0.00000000000E+00  0.00000000000E+00  0.10575398148E+03  0.10575398148E+03  0.00000000000E+00 0.  1.
         13   -1    0    0    0    0 -0.00000000000E+00 -0.00000000000E+00 -0.10000000000E+04  0.10000000000E+04  0.00000000000E+00 0.  1.
    9000005    2    1    2  501    0  0.15973906296E+00  0.15796327690E-01 -0.89417831731E+03  0.11055797703E+04  0.65019361694E+03 0.  0.
         13    1    3    3    0    0 -0.68929421368E+02 -0.23342228035E+03 -0.81347434988E+03  0.84910408314E+03  0.00000000000E+00 0.  1.
          1    1    3    3  501    0  0.69089160431E+02  0.23343807668E+03 -0.80703967437E+02  0.25647568713E+03  0.00000000000E+00 0.  1.
         21    1    1    2  502  501 -0.15973906296E+00 -0.15796327690E-01 -0.67701206976E-01  0.17421120983E+00  0.00000000000E+00 0. -1.
<mgrwt>
<rscale>  1 0.65019364E+03</rscale>
<asrwt>0</asrwt>
<pdfrwt beam="1">  1        1 0.38456074E+00 0.65019364E+03</pdfrwt>
<pdfrwt beam="2">0</pdfrwt>
<totfact> 0.15665325E+00</totfact>
</mgrwt>
</event>
<event>
 6    1  0.5613766E-003  0.6371968E+03  0.7818608E-02  0.9831105E-01
          1   -1    0    0  502    0  0.00000000000E+00  0.00000000000E+00  0.10150494282E+03  0.10150494282E+03  0.00000000000E+00 0.  1.
         13   -1    0    0    0    0 -0.00000000000E+00 -0.00000000000E+00 -0.10000000000E+04  0.10000000000E+04  0.00000000000E+00 0.  1.
    9000005    2    1    2  501    0 -0.11463247006E-04  0.27912220418E-04 -0.89849503576E+03  0.11015049058E+04  0.63719677356E+03 0.  0.
         13    1    3    3    0    0 -0.29554779319E+03 -0.57838648839E+02 -0.26950603013E+03  0.40413773350E+03  0.00000000000E+00 0.  1.
          3    1    3    3  501    0  0.29554778173E+03  0.57838676751E+02 -0.62898900563E+03  0.69736717231E+03  0.00000000000E+00 0.  1.
         21    1    1    2  502  501  0.11463247014E-04 -0.27912220421E-04 -0.21423060896E-04  0.37006021389E-04  0.00000000000E+00 0.  1.
<mgrwt>
<rscale>  1 0.63719677E+03</rscale>
<asrwt>0</asrwt>
<pdfrwt beam="1">  1        1 0.36910966E+00 0.63719677E+03</pdfrwt>
<pdfrwt beam="2">0</pdfrwt>
<totfact> 0.18367407E+00</totfact>
</mgrwt>
</event>
<event>
 6    1  0.5613766E-003  0.6171715E+03  0.7818608E-02  0.9870407E-01
          1   -1    0    0  502    0  0.00000000000E+00  0.00000000000E+00  0.95226161059E+02  0.95226161059E+02  0.00000000000E+00 0.  1.
         13   -1    0    0    0    0 -0.00000000000E+00 -0.00000000000E+00 -0.10000000000E+04  0.10000000000E+04  0.00000000000E+00 0.  1.
    9000005    2    1    2  501    0  0.86520866333E-04  0.15496701565E-04 -0.90477483689E+03  0.10952251592E+04  0.61717148668E+03 0.  0.
         13    1    3    3    0    0  0.63763711048E+02 -0.28514648340E+03 -0.62851771672E+03  0.69311532090E+03  0.00000000000E+00 0.  1.
          1    1    3    3  501    0 -0.63763624527E+02  0.28514649889E+03 -0.27625712017E+03  0.40210983834E+03  0.00000000000E+00 0.  1.
         21    1    1    2  502  501 -0.86520866329E-04 -0.15496701551E-04  0.99795237903E-03  0.10018158308E-02  0.00000000000E+00 0.  1.
<mgrwt>
<rscale>  1 0.61717149E+03</rscale>
<asrwt>0</asrwt>
<pdfrwt beam="1">  1        1 0.34627768E+00 0.61717149E+03</pdfrwt>
<pdfrwt beam="2">0</pdfrwt>
<totfact> 0.23194810E+00</totfact>
</mgrwt>
</event>
<event>
 6    1  0.5613766E-003  0.6529617E+03  0.7818608E-02  0.9801238E-01
          1   -1    0    0  502    0  0.00000000000E+00  0.00000000000E+00  0.11156219224E+03  0.11156219224E+03  0.00000000000E+00 0.  1.
         13   -1    0    0    0    0 -0.00000000000E+00 -0.00000000000E+00 -0.10000000000E+04  0.10000000000E+04  0.00000000000E+00 0.  1.
    9000005    2    1    2  501    0  0.15943355862E-01  0.76054939575E-01 -0.89340990618E+03  0.11065894866E+04  0.65296173347E+03 0.  0.
         13    1    3    3    0    0 -0.31198846940E+03  0.12772457011E+02 -0.28515634073E+03  0.42286413818E+03  0.00000000000E+00 0.  1.
          3    1    3    3  501    0  0.31200441276E+03 -0.12696402071E+02 -0.60825356545E+03  0.68372534843E+03  0.00000000000E+00 0.  1.
         21    1    1    2  502  501 -0.15943355862E-01 -0.76054939575E-01  0.49720984224E+01  0.49727056284E+01  0.00000000000E+00 0. -1.
<mgrwt>
<rscale>  1 0.65296174E+03</rscale>
<asrwt>0</asrwt>
<pdfrwt beam="1">  1        1 0.40568155E+00 0.65296174E+03</pdfrwt>
<pdfrwt beam="2">0</pdfrwt>
<totfact> 0.12612580E+00</totfact>
</mgrwt>
</event>
<event>
 6    1  0.5613766E-003  0.6439037E+03  0.7818608E-02  0.9818286E-01
          1   -1    0    0  502    0  0.00000000000E+00  0.00000000000E+00  0.11200448157E+03  0.11200448157E+03  0.00000000000E+00 0.  1.
         13   -1    0    0    0    0 -0.00000000000E+00 -0.00000000000E+00 -0.10000000000E+04  0.10000000000E+04  0.00000000000E+00 0.  1.
    9000005    2    1    2  501    0  0.12429405127E+01 -0.91860027056E+00 -0.89626800496E+03  0.11035888556E+04  0.64390188437E+03 0.  0.
         13    1    3    3    0    0 -0.85827378377E+02 -0.12102006686E+03  0.41579932405E+02  0.15408142731E+03  0.00000000000E+00 0.  1.
          3    1    3    3  501    0  0.87070318890E+02  0.12010146659E+03 -0.93784793737E+03  0.94950742826E+03  0.00000000000E+00 0.  1.
         21    1    1    2  502  501 -0.12429405127E+01  0.91860027056E+00  0.82724865344E+01  0.84156260039E+01  0.00000000000E+00 0. -1.
<mgrwt>
<rscale>  1 0.64390374E+03</rscale>
<asrwt>0</asrwt>
<pdfrwt beam="1">  1        1 0.40728988E+00 0.64390374E+03</pdfrwt>
<pdfrwt beam="2">0</pdfrwt>
<totfact> 0.12427085E+00</totfact>
</mgrwt>
</event>
<event>
 6    1  0.5613766E-003  0.6374619E+03  0.7818608E-02  0.9830595E-01
          1   -1    0    0  502    0  0.00000000000E+00  0.00000000000E+00  0.10159789867E+03  0.10159789867E+03  0.00000000000E+00 0.  1.
         13   -1    0    0    0    0 -0.00000000000E+00 -0.00000000000E+00 -0.10000000000E+04  0.10000000000E+04  0.00000000000E+00 0.  1.
    9000005    2    1    2  501    0 -0.18733197422E-02  0.22408820137E-01 -0.89838913698E+03  0.11015719422E+04  0.63746192191E+03 0.  0.
         13    1    3    3    0    0  0.10805751872E+03 -0.76359894321E+02  0.51887987934E+02  0.14212538163E+03  0.00000000000E+00 0.  1.
          1    1    3    3  501    0 -0.10805939204E+03  0.76382303141E+02 -0.95027712491E+03  0.95944656056E+03  0.00000000000E+00 0.  1.
         21    1    1    2  502  501  0.18733197422E-02 -0.22408820137E-01 -0.12964348730E-01  0.25956480593E-01  0.00000000000E+00 0.  1.
<mgrwt>
<rscale>  1 0.63746192E+03</rscale>
<asrwt>0</asrwt>
<pdfrwt beam="1">  1        1 0.36944768E+00 0.63746192E+03</pdfrwt>
<pdfrwt beam="2">0</pdfrwt>
<totfact> 0.18303866E+00</totfact>
</mgrwt>
</event>
<event>
 6    1  0.5613766E-003  0.6340804E+03  0.7818608E-02  0.9837118E-01
          1   -1    0    0  502    0  0.00000000000E+00  0.00000000000E+00  0.10076266560E+03  0.10076266560E+03  0.00000000000E+00 0.  1.
         13   -1    0    0    0    0 -0.00000000000E+00 -0.00000000000E+00 -0.10000000000E+04  0.10000000000E+04  0.00000000000E+00 0.  1.
    9000005    2    1    2  501    0 -0.15154134671E-02  0.90175544420E-02 -0.89948540749E+03  0.11005144240E+04  0.63408043586E+03 0.  0.
         13    1    3    3    0    0  0.10148088253E+03  0.70637795472E+02  0.56943225404E+02  0.13612714126E+03  0.00000000000E+00 0.  1.
          1    1    3    3  501    0 -0.10148239794E+03 -0.70628777918E+02 -0.95642863290E+03  0.96438728278E+03  0.00000000000E+00 0.  1.
         21    1    1    2  502  501  0.15154134671E-02 -0.90175544420E-02  0.24807309239E+00  0.24824155965E+00  0.00000000000E+00 0. -1.
<mgrwt>
<rscale>  1 0.63408044E+03</rscale>
<asrwt>0</asrwt>
<pdfrwt beam="1">  1        1 0.36641047E+00 0.63408044E+03</pdfrwt>
<pdfrwt beam="2">0</pdfrwt>
<totfact> 0.18885854E+00</totfact>
</mgrwt>
</event>
<event>
 6    1  0.6885472E-003  0.6250876E+03  0.7818608E-02  0.9854682E-01
          1   -1    0    0  502    0  0.00000000000E+00  0.00000000000E+00  0.97683652713E+02  0.97683652713E+02  0.00000000000E+00 0.  1.
         13   -1    0    0    0    0 -0.00000000000E+00 -0.00000000000E+00 -0.10000000000E+04  0.10000000000E+04  0.00000000000E+00 0.  1.
    9000005    2    1    2  501    0  0.11607106387E-04 -0.13459143673E-04 -0.90231635221E+03  0.10976836343E+04  0.62508764305E+03 0.  0.
         13    1    3    3    0    0 -0.26472487391E+03  0.14940374377E+03 -0.57879392731E+03  0.65376077262E+03  0.00000000000E+00 0.  1.
          1    1    3    3  501    0  0.26472488552E+03 -0.14940375723E+03 -0.32352242489E+03  0.44392286165E+03  0.00000000000E+00 0.  1.
         21    1    1    2  502  501 -0.11607106401E-04  0.13459143656E-04  0.49193820254E-05  0.18441089622E-04  0.00000000000E+00 0.  1.
<mgrwt>
<rscale>  1 0.62508764E+03</rscale>
<asrwt>0</asrwt>
<pdfrwt beam="1">  1        1 0.35521403E+00 0.62508764E+03</pdfrwt>
<pdfrwt beam="2">0</pdfrwt>
<totfact> 0.21175126E+00</totfact>
</mgrwt>
</event>
<event>
 6    1  0.5613766E-003  0.6471386E+03  0.7818608E-02  0.9812163E-01
          1   -1    0    0  502    0  0.00000000000E+00  0.00000000000E+00  0.10471382389E+03  0.10471382389E+03  0.00000000000E+00 0.  1.
         13   -1    0    0    0    0 -0.00000000000E+00 -0.00000000000E+00 -0.10000000000E+04  0.10000000000E+04  0.00000000000E+00 0.  1.
    9000005    2    1    2  501    0  0.29242932074E-03 -0.81871091709E-04 -0.89530291089E+03  0.11046970864E+04  0.64713858667E+03 0.  0.
         13    1    3    3    0    0  0.88546675897E+02  0.28543131083E+03 -0.23591174398E+03  0.38074387449E+03  0.00000000000E+00 0.  1.
          3    1    3    3  501    0 -0.88546383468E+02 -0.28543139270E+03 -0.65939116691E+03  0.72395321186E+03  0.00000000000E+00 0.  1.
         21    1    1    2  502  501 -0.29242932074E-03  0.81871091708E-04  0.16734783845E-01  0.16737538891E-01  0.00000000000E+00 0.  1.
<mgrwt>
<rscale>  1 0.64713859E+03</rscale>
<asrwt>0</asrwt>
<pdfrwt beam="1">  1        1 0.38077834E+00 0.64713859E+03</pdfrwt>
<pdfrwt beam="2">0</pdfrwt>
<totfact> 0.16289013E+00</totfact>
</mgrwt>
</event>
<event>
 6    1  0.5613766E-003  0.6453340E+03  0.7818608E-02  0.9815574E-01
          1   -1    0    0  502    0  0.00000000000E+00  0.00000000000E+00  0.10411851536E+03  0.10411851536E+03  0.00000000000E+00 0.  1.
         13   -1    0    0    0    0 -0.00000000000E+00 -0.00000000000E+00 -0.10000000000E+04  0.10000000000E+04  0.00000000000E+00 0.  1.
    9000005    2    1    2  501    0  0.15464384523E-03 -0.15103249464E-03 -0.89588600188E+03  0.11041139929E+04  0.64533400735E+03 0.  0.
         13    1    3    3    0    0 -0.47366901203E+02  0.15236158019E+03 -0.92778254237E+03  0.94140220967E+03  0.00000000000E+00 0.  1.
          3    1    3    3  501    0  0.47367055847E+02 -0.15236173122E+03  0.31896540487E+02  0.16271178327E+03  0.00000000000E+00 0.  1.
         21    1    1    2  502  501 -0.15464384523E-03  0.15103249464E-03  0.45172484472E-02  0.45224173919E-02  0.00000000000E+00 0.  1.
<mgrwt>
<rscale>  1 0.64533401E+03</rscale>
<asrwt>0</asrwt>
<pdfrwt beam="1">  1        1 0.37861358E+00 0.64533401E+03</pdfrwt>
<pdfrwt beam="2">0</pdfrwt>
<totfact> 0.16656695E+00</totfact>
</mgrwt>
</event>
<event>
 6    1  0.5613766E-003  0.6510748E+03  0.7818608E-02  0.9804764E-01
          1   -1    0    0  502    0  0.00000000000E+00  0.00000000000E+00  0.10597476438E+03  0.10597476438E+03  0.00000000000E+00 0.  1.
         13   -1    0    0    0    0 -0.00000000000E+00 -0.00000000000E+00 -0.10000000000E+04  0.10000000000E+04  0.00000000000E+00 0.  1.
    9000005    2    1    2  501    0 -0.15452658346E-04 -0.17781134687E-04 -0.89402539348E+03  0.11059746048E+04  0.65107482074E+03 0.  0.
         13    1    3    3    0    0 -0.24046050878E+03 -0.13627258455E+03 -0.73918321746E+03  0.78916620718E+03  0.00000000000E+00 0.  1.
          1    1    3    3  501    0  0.24046049333E+03  0.13627256677E+03 -0.15484217603E+03  0.31680839759E+03  0.00000000000E+00 0.  1.
         21    1    1    2  502  501  0.15452658347E-04  0.17781134699E-04  0.15786221328E-03  0.15961024962E-03  0.00000000000E+00 0. -1.
<mgrwt>
<rscale>  1 0.65107482E+03</rscale>
<asrwt>0</asrwt>
<pdfrwt beam="1">  1        1 0.38536359E+00 0.65107482E+03</pdfrwt>
<pdfrwt beam="2">0</pdfrwt>
<totfact> 0.15535228E+00</totfact>
</mgrwt>
</event>
<event>
 6    1  0.5613766E-003  0.6554765E+03  0.7818608E-02  0.9796557E-01
          1   -1    0    0  502    0  0.00000000000E+00  0.00000000000E+00  0.10741349846E+03  0.10741349846E+03  0.00000000000E+00 0.  1.
         13   -1    0    0    0    0 -0.00000000000E+00 -0.00000000000E+00 -0.10000000000E+04  0.10000000000E+04  0.00000000000E+00 0.  1.
    9000005    2    1    2  501    0 -0.45589446256E-03  0.42588918049E-03 -0.89258755377E+03  0.11074122752E+04  0.65547647256E+03 0.  0.
         13    1    3    3    0    0 -0.31387178818E+03  0.21856703550E+02 -0.60131487938E+03  0.67865514002E+03  0.00000000000E+00 0.  1.
          3    1    3    3  501    0  0.31387133229E+03 -0.21856277661E+02 -0.29127267439E+03  0.42875713516E+03  0.00000000000E+00 0.  1.
         21    1    1    2  502  501  0.45589446257E-03 -0.42588918049E-03  0.10522365705E-02  0.12232837591E-02  0.00000000000E+00 0.  1.
<mgrwt>
<rscale>  1 0.65547647E+03</rscale>
<asrwt>0</asrwt>
<pdfrwt beam="1">  1        1 0.39059536E+00 0.65547647E+03</pdfrwt>
<pdfrwt beam="2">0</pdfrwt>
<totfact> 0.14715891E+00</totfact>
</mgrwt>
</event>
<event>
 6    1  0.5613766E-003  0.6435836E+03  0.7818608E-02  0.9818894E-01
          3   -1    0    0  502    0  0.00000000000E+00  0.00000000000E+00  0.10367865531E+03  0.10367865531E+03  0.00000000000E+00 0.  1.
         13   -1    0    0    0    0 -0.00000000000E+00 -0.00000000000E+00 -0.10000000000E+04  0.10000000000E+04  0.00000000000E+00 0.  1.
    9000005    2    1    2  501    0  0.17161163202E-02  0.33808688075E-02 -0.89645001921E+03  0.11035499249E+04  0.64358356092E+03 0.  0.
         13    1    3    3    0    0 -0.85654599166E+02  0.30841160592E+03 -0.50500426366E+03  0.59789943581E+03  0.00000000000E+00 0.  1.
          3    1    3    3  501    0  0.85656315282E+02 -0.30840822505E+03 -0.39144575555E+03  0.50565048914E+03  0.00000000000E+00 0.  1.
         21    1    1    2  502  501 -0.17161163202E-02 -0.33808688075E-02  0.12867452219E+00  0.12873036934E+00  0.00000000000E+00 0.  1.
<mgrwt>
<rscale>  1 0.64358356E+03</rscale>
<asrwt>0</asrwt>
<pdfrwt beam="1">  1        3 0.37701409E+00 0.64358356E+03</pdfrwt>
<pdfrwt beam="2">0</pdfrwt>
<totfact> 0.78355130E-02</totfact>
</mgrwt>
</event>
<event>
 6    1  0.5613766E-003  0.4933419E+03  0.7818608E-02  0.1015532E+00
          1   -1    0    0  502    0  0.00000000000E+00  0.00000000000E+00  0.61355750965E+02  0.61355750965E+02  0.00000000000E+00 0.  1.
         13   -1    0    0    0    0 -0.00000000000E+00 -0.00000000000E+00 -0.10000000000E+04  0.10000000000E+04  0.00000000000E+00 0.  1.
    9000005    2    1    2  501    0  0.18125588821E-01 -0.46544619226E-02 -0.93915325812E+03  0.10608463980E+04  0.49334190733E+03 0.  0.
         13    1    3    3    0    0  0.10172348405E+03 -0.73545338645E+02 -0.92620516264E+03  0.93467244923E+03  0.00000000000E+00 0.  1.
          3    1    3    3  501    0 -0.10170535846E+03  0.73540684183E+02 -0.12948095486E+02  0.12617394876E+03  0.00000000000E+00 0.  1.
         21    1    1    2  502  501 -0.18125588821E-01  0.46544619226E-02  0.50900908892E+00  0.50935297544E+00  0.00000000000E+00 0. -1.
<mgrwt>
<rscale>  1 0.49334191E+03</rscale>
<asrwt>0</asrwt>
<pdfrwt beam="1">  1        1 0.22311229E+00 0.49334191E+03</pdfrwt>
<pdfrwt beam="2">0</pdfrwt>
<totfact> 0.81099006E+00</totfact>
</mgrwt>
</event>
<event>
 6    1  0.5613766E-003  0.6476418E+03  0.7818608E-02  0.9811214E-01
          1   -1    0    0  502    0  0.00000000000E+00  0.00000000000E+00  0.10486399929E+03  0.10486399929E+03  0.00000000000E+00 0.  1.
         13   -1    0    0    0    0 -0.00000000000E+00 -0.00000000000E+00 -0.10000000000E+04  0.10000000000E+04  0.00000000000E+00 0.  1.
    9000005    2    1    2  501    0 -0.18174491188E-03 -0.13754749136E-03 -0.89514000792E+03  0.11048599856E+04  0.64764184085E+03 0.  0.
         13    1    3    3    0    0 -0.11756055714E+03 -0.28354490023E+03 -0.62355729622E+03  0.69501215580E+03  0.00000000000E+00 0.  1.
          3    1    3    3  501    0  0.11756037540E+03  0.28354476268E+03 -0.27158271170E+03  0.40984782981E+03  0.00000000000E+00 0.  1.
         21    1    1    2  502  501  0.18174491188E-03  0.13754749140E-03  0.40072104864E-02  0.40136873829E-02  0.00000000000E+00 0.  1.
<mgrwt>
<rscale>  1 0.64764184E+03</rscale>
<asrwt>0</asrwt>
<pdfrwt beam="1">  1        1 0.38132444E+00 0.64764184E+03</pdfrwt>
<pdfrwt beam="2">0</pdfrwt>
<totfact> 0.16197344E+00</totfact>
</mgrwt>
</event>
<event>
 6    1  0.5613766E-003  0.6713271E+03  0.7818608E-02  0.9767563E-01
          1   -1    0    0  502    0  0.00000000000E+00  0.00000000000E+00  0.11267254740E+03  0.11267254740E+03  0.00000000000E+00 0.  1.
         13   -1    0    0    0    0 -0.00000000000E+00 -0.00000000000E+00 -0.10000000000E+04  0.10000000000E+04  0.00000000000E+00 0.  1.
    9000005    2    1    2  501    0  0.40610147778E-04 -0.11921985690E-03 -0.88732997097E+03  0.11126700259E+04  0.67132712526E+03 0.  0.
         13    1    3    3    0    0  0.22922313935E+03 -0.82080778057E+02 -0.60698949856E+02  0.25092800612E+03  0.00000000000E+00 0.  1.
          1    1    3    3  501    0 -0.22922309874E+03  0.82080658838E+02 -0.82663102112E+03  0.86174201976E+03  0.00000000000E+00 0.  1.
         21    1    1    2  502  501 -0.40610147779E-04  0.11921985691E-03  0.25183769293E-02  0.25215243239E-02  0.00000000000E+00 0. -1.
<mgrwt>
<rscale>  1 0.67132713E+03</rscale>
<asrwt>0</asrwt>
<pdfrwt beam="1">  1        1 0.40971922E+00 0.67132713E+03</pdfrwt>
<pdfrwt beam="2">0</pdfrwt>
<totfact> 0.12056059E+00</totfact>
</mgrwt>
</event>
<event>
 6    1  0.5613766E-003  0.6521290E+03  0.7818608E-02  0.9802793E-01
          1   -1    0    0  502    0  0.00000000000E+00  0.00000000000E+00  0.10633502918E+03  0.10633502918E+03  0.00000000000E+00 0.  1.
         13   -1    0    0    0    0 -0.00000000000E+00 -0.00000000000E+00 -0.10000000000E+04  0.10000000000E+04  0.00000000000E+00 0.  1.
    9000005    2    1    2  501    0 -0.23588708666E-03 -0.10537170090E-03 -0.89368195142E+03  0.11063180466E+04  0.65212896728E+03 0.  0.
         13    1    3    3    0    0  0.18559424150E+03  0.25863531399E+03 -0.56656565196E+03  0.64987236139E+03  0.00000000000E+00 0.  1.
          1    1    3    3  501    0 -0.18559447739E+03 -0.25863541936E+03 -0.32711629946E+03  0.45644568522E+03  0.00000000000E+00 0.  1.
         21    1    1    2  502  501  0.23588708667E-03  0.10537170091E-03  0.16980599880E-01  0.16982565124E-01  0.00000000000E+00 0.  1.
<mgrwt>
<rscale>  1 0.65212897E+03</rscale>
<asrwt>0</asrwt>
<pdfrwt beam="1">  1        1 0.38667365E+00 0.65212897E+03</pdfrwt>
<pdfrwt beam="2">0</pdfrwt>
<totfact> 0.15326228E+00</totfact>
</mgrwt>
</event>
<event>
 6    1  0.5613766E-003  0.6479200E+03  0.7818608E-02  0.9810690E-01
          1   -1    0    0  502    0  0.00000000000E+00  0.00000000000E+00  0.10495012083E+03  0.10495012083E+03  0.00000000000E+00 0.  1.
         13   -1    0    0    0    0 -0.00000000000E+00 -0.00000000000E+00 -0.10000000000E+04  0.10000000000E+04  0.00000000000E+00 0.  1.
    9000005    2    1    2  501    0  0.89514501589E-05 -0.83815774587E-06 -0.89504990959E+03  0.11049500891E+04  0.64792002499E+03 0.  0.
         13    1    3    3    0    0  0.11058262252E+02  0.18262896212E+03 -0.90345343322E+03  0.92179375620E+03  0.00000000000E+00 0.  1.
          1    1    3    3  501    0 -0.11058253300E+02 -0.18262896296E+03  0.84035236312E+01  0.18315633292E+03  0.00000000000E+00 0.  1.
         21    1    1    2  502  501 -0.89514501598E-05  0.83815774025E-06  0.30414547367E-04  0.31715542875E-04  0.00000000000E+00 0. -1.
<mgrwt>
<rscale>  1 0.64792002E+03</rscale>
<asrwt>0</asrwt>
<pdfrwt beam="1">  1        1 0.38163761E+00 0.64792002E+03</pdfrwt>
<pdfrwt beam="2">0</pdfrwt>
<totfact> 0.16145028E+00</totfact>
</mgrwt>
</event>
<event>
 6    1  0.5613766E-003  0.6340785E+03  0.7818608E-02  0.9837122E-01
          1   -1    0    0  502    0  0.00000000000E+00  0.00000000000E+00  0.10051388281E+03  0.10051388281E+03  0.00000000000E+00 0.  1.
         13   -1    0    0    0    0 -0.00000000000E+00 -0.00000000000E+00 -0.10000000000E+04  0.10000000000E+04  0.00000000000E+00 0.  1.
    9000005    2    1    2  501    0 -0.47854155127E-06 -0.14559139458E-05 -0.89948611879E+03  0.11005138806E+04  0.63407848370E+03 0.  0.
         13    1    3    3    0    0 -0.22228426174E+03 -0.22487598679E+03 -0.40962156243E+03  0.51746432424E+03  0.00000000000E+00 0.  1.
          3    1    3    3  501    0  0.22228426126E+03  0.22487598534E+03 -0.48986455636E+03  0.58304955635E+03  0.00000000000E+00 0.  1.
         21    1    1    2  502  501  0.47854152812E-06  0.14559139192E-05  0.16016255590E-05  0.22167299713E-05  0.00000000000E+00 0.  1.
<mgrwt>
<rscale>  1 0.63407848E+03</rscale>
<asrwt>0</asrwt>
<pdfrwt beam="1">  1        1 0.36550580E+00 0.63407848E+03</pdfrwt>
<pdfrwt beam="2">0</pdfrwt>
<totfact> 0.19059124E+00</totfact>
</mgrwt>
</event>
<event>
 6    1  0.5613766E-003  0.6287122E+03  0.7818608E-02  0.9847565E-01
          1   -1    0    0  502    0  0.00000000000E+00  0.00000000000E+00  0.98829958848E+02  0.98829958848E+02  0.00000000000E+00 0.  1.
         13   -1    0    0    0    0 -0.00000000000E+00 -0.00000000000E+00 -0.10000000000E+04  0.10000000000E+04  0.00000000000E+00 0.  1.
    9000005    2    1    2  501    0 -0.17724249748E-01  0.26738359434E-01 -0.90113173774E+03  0.10987799965E+04  0.62871223213E+03 0.  0.
         13    1    3    3    0    0  0.28424931633E+03  0.94559197473E+02 -0.61707666419E+03  0.68594659059E+03  0.00000000000E+00 0.  1.
          3    1    3    3  501    0 -0.28426704058E+03 -0.94532459114E+02 -0.28405507355E+03  0.41283340587E+03  0.00000000000E+00 0.  1.
         21    1    1    2  502  501  0.17724249748E-01 -0.26738359434E-01 -0.38303412097E-01  0.49962388580E-01  0.00000000000E+00 0.  1.
<mgrwt>
<rscale>  1 0.62871223E+03</rscale>
<asrwt>0</asrwt>
<pdfrwt beam="1">  1        1 0.35938243E+00 0.62871223E+03</pdfrwt>
<pdfrwt beam="2">0</pdfrwt>
<totfact> 0.20292297E+00</totfact>
</mgrwt>
</event>
<event>
 6    1  0.5613766E-003  0.5979921E+03  0.7818608E-02  0.9909581E-01
          1   -1    0    0  502    0  0.00000000000E+00  0.00000000000E+00  0.10134861262E+03  0.10134861262E+03  0.00000000000E+00 0.  1.
         13   -1    0    0    0    0 -0.00000000000E+00 -0.00000000000E+00 -0.10000000000E+04  0.10000000000E+04  0.00000000000E+00 0.  1.
    9000005    2    1    2  501    0 -0.42490472916E+00  0.34811048476E-01 -0.91059722332E+03  0.10893951716E+04  0.59799193561E+03 0.  0.
         13    1    3    3    0    0  0.19309798986E+03  0.17239598526E+03 -0.18296534220E+03  0.31699136561E+03  0.00000000000E+00 0.  1.
          3    1    3    3  501    0 -0.19352289459E+03 -0.17236117421E+03 -0.72763188112E+03  0.77240380600E+03  0.00000000000E+00 0.  1.
         21    1    1    2  502  501  0.42490472916E+00 -0.34811048476E-01  0.11945835937E+02  0.11953441014E+02  0.00000000000E+00 0.  1.
<mgrwt>
<rscale>  1 0.59799209E+03</rscale>
<asrwt>0</asrwt>
<pdfrwt beam="1">  1        1 0.36854119E+00 0.59799209E+03</pdfrwt>
<pdfrwt beam="2">0</pdfrwt>
<totfact> 0.18609098E+00</totfact>
</mgrwt>
</event>
<event>
 6    1  0.5613766E-003  0.6527894E+03  0.7818608E-02  0.9801559E-01
          1   -1    0    0  502    0  0.00000000000E+00  0.00000000000E+00  0.10656780262E+03  0.10656780262E+03  0.00000000000E+00 0.  1.
         13   -1    0    0    0    0 -0.00000000000E+00 -0.00000000000E+00 -0.10000000000E+04  0.10000000000E+04  0.00000000000E+00 0.  1.
    9000005    2    1    2  501    0  0.11195151391E-01  0.24347884002E-02 -0.89346543400E+03  0.11065326468E+04  0.65278941209E+03 0.  0.
         13    1    3    3    0    0  0.34668869906E+02  0.29643254888E+03 -0.22275023478E+03  0.37241355195E+03  0.00000000000E+00 0.  1.
          1    1    3    3  501    0 -0.34657674755E+02 -0.29643011409E+03 -0.67071519921E+03  0.73411909485E+03  0.00000000000E+00 0.  1.
         21    1    1    2  502  501 -0.11195151391E-01 -0.24347884002E-02  0.33236621323E-01  0.35155833174E-01  0.00000000000E+00 0.  1.
<mgrwt>
<rscale>  1 0.65278941E+03</rscale>
<asrwt>0</asrwt>
<pdfrwt beam="1">  1        1 0.38752010E+00 0.65278941E+03</pdfrwt>
<pdfrwt beam="2">0</pdfrwt>
<totfact> 0.15192671E+00</totfact>
</mgrwt>
</event>
<event>
 6    1  0.5613766E-003  0.6551295E+03  0.7818608E-02  0.9797201E-01
          3   -1    0    0  502    0  0.00000000000E+00  0.00000000000E+00  0.10729883900E+03  0.10729883900E+03  0.00000000000E+00 0.  1.
         13   -1    0    0    0    0 -0.00000000000E+00 -0.00000000000E+00 -0.10000000000E+04  0.10000000000E+04  0.00000000000E+00 0.  1.
    9000005    2    1    2  501    0  0.26162518935E-04 -0.95957941795E-04 -0.89270131895E+03  0.11072986523E+04  0.65512949912E+03 0.  0.
         13    1    3    3    0    0  0.91049655585E+02 -0.21667233107E+03 -0.83200395728E+03  0.86456204159E+03  0.00000000000E+00 0.  1.
          1    1    3    3  501    0 -0.91049629423E+02  0.21667223511E+03 -0.60697361677E+02  0.24273661075E+03  0.00000000000E+00 0.  1.
         21    1    1    2  502  501 -0.26162518942E-04  0.95957941794E-04  0.15795389161E-03  0.18665967927E-03  0.00000000000E+00 0.  1.
<mgrwt>
<rscale>  1 0.65512950E+03</rscale>
<asrwt>0</asrwt>
<pdfrwt beam="1">  1        3 0.39017842E+00 0.65512950E+03</pdfrwt>
<pdfrwt beam="2">0</pdfrwt>
<totfact> 0.66649283E-02</totfact>
</mgrwt>
</event>
<event>
 6    1  0.5613766E-003  0.6417390E+03  0.7818608E-02  0.9822405E-01
          1   -1    0    0  502    0  0.00000000000E+00  0.00000000000E+00  0.10295733156E+03  0.10295733156E+03  0.00000000000E+00 0.  1.
         13   -1    0    0    0    0 -0.00000000000E+00 -0.00000000000E+00 -0.10000000000E+04  0.10000000000E+04  0.00000000000E+00 0.  1.
    9000005    2    1    2  501    0  0.53472745606E-04 -0.12223454553E-03 -0.89704270800E+03  0.11029571924E+04  0.64173900325E+03 0.  0.
         13    1    3    3    0    0 -0.31905066893E+03 -0.32172433123E+02 -0.46802908004E+03  0.56734435272E+03  0.00000000000E+00 0.  1.
          3    1    3    3  501    0  0.31905072240E+03  0.32172310889E+02 -0.42901362796E+03  0.53561283968E+03  0.00000000000E+00 0.  1.
         21    1    1    2  502  501 -0.53472745572E-04  0.12223454553E-03  0.39566578872E-04  0.13916225351E-03  0.00000000000E+00 0. -1.
<mgrwt>
<rscale>  1 0.64173900E+03</rscale>
<asrwt>0</asrwt>
<pdfrwt beam="1">  1        1 0.37439109E+00 0.64173900E+03</pdfrwt>
<pdfrwt beam="2">0</pdfrwt>
<totfact> 0.17397005E+00</totfact>
</mgrwt>
</event>
<event>
 6    1  0.5613766E-003  0.6477393E+03  0.7818608E-02  0.9811030E-01
          1   -1    0    0  502    0  0.00000000000E+00  0.00000000000E+00  0.10622103412E+03  0.10622103412E+03  0.00000000000E+00 0.  1.
         13   -1    0    0    0    0 -0.00000000000E+00 -0.00000000000E+00 -0.10000000000E+04  0.10000000000E+04  0.00000000000E+00 0.  1.
    9000005    2    1    2  501    0  0.12355695308E+01  0.87551892631E+00 -0.89461454527E+03  0.11044914797E+04  0.64773756339E+03 0.  0.
         13    1    3    3    0    0  0.25739474348E+03  0.18889089599E+03 -0.54838215375E+03  0.63455087354E+03  0.00000000000E+00 0.  1.
          3    1    3    3  501    0 -0.25615917395E+03 -0.18801537706E+03 -0.34623239152E+03  0.46994060619E+03  0.00000000000E+00 0.  1.
         21    1    1    2  502  501 -0.12355695308E+01 -0.87551892631E+00  0.83557939589E+00  0.17295543885E+01  0.00000000000E+00 0. -1.
<mgrwt>
<rscale>  1 0.64773933E+03</rscale>
<asrwt>0</asrwt>
<pdfrwt beam="1">  1        1 0.38625912E+00 0.64773933E+03</pdfrwt>
<pdfrwt beam="2">0</pdfrwt>
<totfact> 0.15403641E+00</totfact>
</mgrwt>
</event>
<event>
 6    1  0.5613766E-003  0.6317962E+03  0.7818608E-02  0.9841550E-01
          3   -1    0    0  502    0  0.00000000000E+00  0.00000000000E+00  0.99791628171E+02  0.99791628171E+02  0.00000000000E+00 0.  1.
         13   -1    0    0    0    0 -0.00000000000E+00 -0.00000000000E+00 -0.10000000000E+04  0.10000000000E+04  0.00000000000E+00 0.  1.
    9000005    2    1    2  501    0 -0.94721267487E-05 -0.94170038629E-05 -0.90020837967E+03  0.10997916127E+04  0.63179622071E+03 0.  0.
         13    1    3    3    0    0 -0.23806285061E+03 -0.24638219255E+02 -0.80901148790E+03  0.84367087791E+03  0.00000000000E+00 0.  1.
          1    1    3    3  501    0  0.23806284113E+03  0.24638209838E+02 -0.91196891772E+02  0.25612073477E+03  0.00000000000E+00 0.  1.
         21    1    1    2  502  501  0.94721267517E-05  0.94170038641E-05  0.78387364473E-05  0.15486992480E-04  0.00000000000E+00 0. -1.
<mgrwt>
<rscale>  1 0.63179622E+03</rscale>
<asrwt>0</asrwt>
<pdfrwt beam="1">  1        3 0.36287941E+00 0.63179622E+03</pdfrwt>
<pdfrwt beam="2">0</pdfrwt>
<totfact> 0.93279251E-02</totfact>
</mgrwt>
</event>
<event>
 6    1  0.5613766E-003  0.6505752E+03  0.7818608E-02  0.9805700E-01
          1   -1    0    0  502    0  0.00000000000E+00  0.00000000000E+00  0.10582541522E+03  0.10582541522E+03  0.00000000000E+00 0.  1.
         13   -1    0    0    0    0 -0.00000000000E+00 -0.00000000000E+00 -0.10000000000E+04  0.10000000000E+04  0.00000000000E+00 0.  1.
    9000005    2    1    2  501    0 -0.10104789627E-02 -0.55557496154E-04 -0.89418794168E+03  0.11058120200E+04  0.65057524439E+03 0.  0.
         13    1    3    3    0    0  0.43571145123E+01 -0.82924369486E+02  0.87492996165E+02  0.12062528706E+03  0.00000000000E+00 0.  1.
          1    1    3    3  501    0 -0.43581249912E+01  0.82924313929E+02 -0.98168093785E+03  0.98518673297E+03  0.00000000000E+00 0.  1.
         21    1    1    2  502  501  0.10104789627E-02  0.55557496157E-04  0.13356896995E-01  0.13395180167E-01  0.00000000000E+00 0. -1.
<mgrwt>
<rscale>  1 0.65057524E+03</rscale>
<asrwt>0</asrwt>
<pdfrwt beam="1">  1        1 0.38482050E+00 0.65057524E+03</pdfrwt>
<pdfrwt beam="2">0</pdfrwt>
<totfact> 0.15622842E+00</totfact>
</mgrwt>
</event>
<event>
 6    1  0.5613766E-003  0.6585104E+03  0.7818608E-02  0.9790940E-01
          1   -1    0    0  502    0  0.00000000000E+00  0.00000000000E+00  0.11040267140E+03  0.11040267140E+03  0.00000000000E+00 0.  1.
         13   -1    0    0    0    0 -0.00000000000E+00 -0.00000000000E+00 -0.10000000000E+04  0.10000000000E+04  0.00000000000E+00 0.  1.
    9000005    2    1    2  501    0  0.10896758153E+01 -0.82188233332E+00 -0.89132872408E+03  0.11081979913E+04  0.65850894506E+03 0.  0.
         13    1    3    3    0    0 -0.14743591124E+03 -0.27087535056E+03 -0.64030131390E+03  0.71070146760E+03  0.00000000000E+00 0.  1.
          1    1    3    3  501    0  0.14852558705E+03  0.27005346823E+03 -0.25102741017E+03  0.39749652372E+03  0.00000000000E+00 0.  1.
         21    1    1    2  502  501 -0.10896758153E+01  0.82188233332E+00  0.17313954780E+01  0.22046800796E+01  0.00000000000E+00 0.  1.
<mgrwt>
<rscale>  1 0.65851036E+03</rscale>
<asrwt>0</asrwt>
<pdfrwt beam="1">  1        1 0.40146511E+00 0.65851036E+03</pdfrwt>
<pdfrwt beam="2">0</pdfrwt>
<totfact> 0.13157716E+00</totfact>
</mgrwt>
</event>
<event>
 6    1  0.5613766E-003  0.6478952E+03  0.7818608E-02  0.9810737E-01
          1   -1    0    0  502    0  0.00000000000E+00  0.00000000000E+00  0.10494205911E+03  0.10494205911E+03  0.00000000000E+00 0.  1.
         13   -1    0    0    0    0 -0.00000000000E+00 -0.00000000000E+00 -0.10000000000E+04  0.10000000000E+04  0.00000000000E+00 0.  1.
    9000005    2    1    2  501    0 -0.47957783806E-05 -0.37698148105E-05 -0.89505795978E+03  0.11049420393E+04  0.64789517576E+03 0.  0.
         13    1    3    3    0    0  0.21514563893E+03  0.24158444702E+03 -0.41841913398E+03  0.52889059613E+03  0.00000000000E+00 0.  1.
          3    1    3    3  501    0 -0.21514564372E+03 -0.24158445079E+03 -0.47663882580E+03  0.57605144314E+03  0.00000000000E+00 0.  1.
         21    1    1    2  502  501  0.47957783949E-05  0.37698147986E-05  0.18886157887E-04  0.19846862567E-04  0.00000000000E+00 0.  1.
<mgrwt>
<rscale>  1 0.64789518E+03</rscale>
<asrwt>0</asrwt>
<pdfrwt beam="1">  1        1 0.38160829E+00 0.64789518E+03</pdfrwt>
<pdfrwt beam="2">0</pdfrwt>
<totfact> 0.16149914E+00</totfact>
</mgrwt>
</event>
<event>
 6    1  0.5613766E-003  0.6529299E+03  0.7818608E-02  0.9801297E-01
          1   -1    0    0  502    0  0.00000000000E+00  0.00000000000E+00  0.10657990857E+03  0.10657990857E+03  0.00000000000E+00 0.  1.
         13   -1    0    0    0    0 -0.00000000000E+00 -0.00000000000E+00 -0.10000000000E+04  0.10000000000E+04  0.00000000000E+00 0.  1.
    9000005    2    1    2  501    0  0.37135432081E-05  0.12369004157E-04 -0.89342062242E+03  0.11065793774E+04  0.65292994261E+03 0.  0.
         13    1    3    3    0    0  0.20772921042E+03 -0.31781906869E+02 -0.23291220281E+02  0.21143319373E+03  0.00000000000E+00 0.  1.
          1    1    3    3  501    0 -0.20772920671E+03  0.31781919238E+02 -0.87012940214E+03  0.89514618369E+03  0.00000000000E+00 0.  1.
         21    1    1    2  502  501 -0.37135432171E-05 -0.12369004157E-04  0.53099731018E-03  0.53115433358E-03  0.00000000000E+00 0.  1.
<mgrwt>
<rscale>  1 0.65292994E+03</rscale>
<asrwt>0</asrwt>
<pdfrwt beam="1">  1        1 0.38756412E+00 0.65292994E+03</pdfrwt>
<pdfrwt beam="2">0</pdfrwt>
<totfact> 0.15185457E+00</totfact>
</mgrwt>
</event>
<event>
 6    1  0.5613766E-003  0.6495900E+03  0.7818608E-02  0.9807549E-01
          1   -1    0    0  502    0  0.00000000000E+00  0.00000000000E+00  0.10551445279E+03  0.10551445279E+03  0.00000000000E+00 0.  1.
         13   -1    0    0    0    0 -0.00000000000E+00 -0.00000000000E+00 -0.10000000000E+04  0.10000000000E+04  0.00000000000E+00 0.  1.
    9000005    2    1    2  501    0  0.61843632736E-04  0.11286521183E-02 -0.89450820274E+03  0.11054917691E+04  0.64958996817E+03 0.  0.
         13    1    3    3    0    0  0.12088216642E+03  0.17873559925E+03 -0.34115950725E+02  0.21845551193E+03  0.00000000000E+00 0.  1.
          1    1    3    3  501    0 -0.12088210457E+03 -0.17873447060E+03 -0.86039225201E+03  0.88703625716E+03  0.00000000000E+00 0.  1.
         21    1    1    2  502  501 -0.61843632739E-04 -0.11286521183E-02  0.22655524861E-01  0.22683705319E-01  0.00000000000E+00 0.  1.
<mgrwt>
<rscale>  1 0.64958997E+03</rscale>
<asrwt>0</asrwt>
<pdfrwt beam="1">  1        1 0.38368973E+00 0.64958997E+03</pdfrwt>
<pdfrwt beam="2">0</pdfrwt>
<totfact> 0.15806612E+00</totfact>
</mgrwt>
</event>
<event>
 6    1  0.5613766E-003  0.6622686E+03  0.7818608E-02  0.9784026E-01
          1   -1    0    0  502    0  0.00000000000E+00  0.00000000000E+00  0.10966995754E+03  0.10966995754E+03  0.00000000000E+00 0.  1.
         13   -1    0    0    0    0 -0.00000000000E+00 -0.00000000000E+00 -0.10000000000E+04  0.10000000000E+04  0.00000000000E+00 0.  1.
    9000005    2    1    2  501    0 -0.19287911442E-04  0.31888458048E-02 -0.89034992597E+03  0.11096498199E+04  0.66226862541E+03 0.  0.
         13    1    3    3    0    0  0.23038702461E+03  0.16775049374E+03 -0.72770039069E+03  0.78151536637E+03  0.00000000000E+00 0.  1.
          1    1    3    3  501    0 -0.23038704390E+03 -0.16774730489E+03 -0.16264953528E+03  0.32813445357E+03  0.00000000000E+00 0.  1.
         21    1    1    2  502  501  0.19287911434E-04 -0.31888458048E-02  0.19883507795E-01  0.20137601442E-01  0.00000000000E+00 0.  1.
<mgrwt>
<rscale>  1 0.66226863E+03</rscale>
<asrwt>0</asrwt>
<pdfrwt beam="1">  1        1 0.39880069E+00 0.66226863E+03</pdfrwt>
<pdfrwt beam="2">0</pdfrwt>
<totfact> 0.13513112E+00</totfact>
</mgrwt>
</event>
<event>
 6    1  0.5613766E-003  0.6479049E+03  0.7818608E-02  0.9810719E-01
          1   -1    0    0  502    0  0.00000000000E+00  0.00000000000E+00  0.10499278835E+03  0.10499278835E+03  0.00000000000E+00 0.  1.
         13   -1    0    0    0    0 -0.00000000000E+00 -0.00000000000E+00 -0.10000000000E+04  0.10000000000E+04  0.00000000000E+00 0.  1.
    9000005    2    1    2  501    0  0.61663976324E-03  0.99767616911E-03 -0.89505481405E+03  0.11049451715E+04  0.64790486329E+03 0.  0.
         13    1    3    3    0    0  0.94374162298E+02  0.22983050486E+03 -0.92995233046E+02  0.26528599066E+03  0.00000000000E+00 0.  1.
          3    1    3    3  501    0 -0.94373545659E+02 -0.22982950718E+03 -0.80205958100E+03  0.83965918084E+03  0.00000000000E+00 0.  1.
         21    1    1    2  502  501 -0.61663976324E-03 -0.99767616911E-03  0.47602400669E-01  0.47616847353E-01  0.00000000000E+00 0. -1.
<mgrwt>
<rscale>  1 0.64790486E+03</rscale>
<asrwt>0</asrwt>
<pdfrwt beam="1">  1        1 0.38179276E+00 0.64790486E+03</pdfrwt>
<pdfrwt beam="2">0</pdfrwt>
<totfact> 0.16119622E+00</totfact>
</mgrwt>
</event>
<event>
 6    1  0.5613766E-003  0.6492468E+03  0.7818608E-02  0.9808193E-01
          1   -1    0    0  502    0  0.00000000000E+00  0.00000000000E+00  0.11431065910E+03  0.11431065910E+03  0.00000000000E+00 0.  1.
         13   -1    0    0    0    0 -0.00000000000E+00 -0.00000000000E+00 -0.10000000000E+04  0.10000000000E+04  0.00000000000E+00 0.  1.
    9000005    2    1    2  501    0  0.14144193709E+00 -0.10834927103E+00 -0.89461865387E+03  0.11053795687E+04  0.64924681234E+03 0.  0.
         13    1    3    3    0    0  0.27455621970E+03 -0.13768456416E+03 -0.62676612472E+03  0.69797846104E+03  0.00000000000E+00 0.  1.
          3    1    3    3  501    0 -0.27441477777E+03  0.13757621489E+03 -0.26785252915E+03  0.40740110767E+03  0.00000000000E+00 0.  1.
         21    1    1    2  502  501 -0.14144193709E+00  0.10834927103E+00  0.89293129727E+01  0.89310903898E+01  0.00000000000E+00 0. -1.
<mgrwt>
<rscale>  1 0.64924684E+03</rscale>
<asrwt>0</asrwt>
<pdfrwt beam="1">  1        1 0.41567600E+00 0.64924684E+03</pdfrwt>
<pdfrwt beam="2">0</pdfrwt>
<totfact> 0.11384014E+00</totfact>
</mgrwt>
</event>
<event>
 6    1  0.5613766E-003  0.6085299E+03  0.7818608E-02  0.9887865E-01
          1   -1    0    0  502    0  0.00000000000E+00  0.00000000000E+00  0.92840824292E+02  0.92840824292E+02  0.00000000000E+00 0.  1.
         13   -1    0    0    0    0 -0.00000000000E+00 -0.00000000000E+00 -0.10000000000E+04  0.10000000000E+04  0.00000000000E+00 0.  1.
    9000005    2    1    2  501    0 -0.22718948208E-01  0.12476591693E-01 -0.90742213195E+03  0.10925765937E+04  0.60852993919E+03 0.  0.
         13    1    3    3    0    0 -0.17514549430E+03  0.21813865691E+03 -0.66860641364E+03  0.72477234644E+03  0.00000000000E+00 0.  1.
          1    1    3    3  501    0  0.17512277536E+03 -0.21812618032E+03 -0.23881571831E+03  0.36780424726E+03  0.00000000000E+00 0.  1.
         21    1    1    2  502  501  0.22718948208E-01 -0.12476591693E-01  0.26295624369E+00  0.26423058499E+00  0.00000000000E+00 0. -1.
<mgrwt>
<rscale>  1 0.60852994E+03</rscale>
<asrwt>0</asrwt>
<pdfrwt beam="1">  1        1 0.33760371E+00 0.60852994E+03</pdfrwt>
<pdfrwt beam="2">0</pdfrwt>
<totfact> 0.25336913E+00</totfact>
</mgrwt>
</event>
<event>
 6    1  0.5613766E-003  0.6532263E+03  0.7818608E-02  0.9800744E-01
          1   -1    0    0  502    0  0.00000000000E+00  0.00000000000E+00  0.10668662894E+03  0.10668662894E+03  0.00000000000E+00 0.  1.
         13   -1    0    0    0    0 -0.00000000000E+00 -0.00000000000E+00 -0.10000000000E+04  0.10000000000E+04  0.00000000000E+00 0.  1.
    9000005    2    1    2  501    0 -0.81091020985E-03 -0.84500468915E-05 -0.89332384090E+03  0.11066761277E+04  0.65322627548E+03 0.  0.
         13    1    3    3    0    0 -0.25670665896E+03  0.12469194441E+03 -0.17756144211E+03  0.33611672895E+03  0.00000000000E+00 0.  1.
          3    1    3    3  501    0  0.25670584805E+03 -0.12469195286E+03 -0.71576239879E+03  0.77055939879E+03  0.00000000000E+00 0.  1.
         21    1    1    2  502  501  0.81091020984E-03  0.84500469001E-05  0.10469847190E-01  0.10501206929E-01  0.00000000000E+00 0. -1.
<mgrwt>
<rscale>  1 0.65322628E+03</rscale>
<asrwt>0</asrwt>
<pdfrwt beam="1">  1        1 0.38795220E+00 0.65322628E+03</pdfrwt>
<pdfrwt beam="2">0</pdfrwt>
<totfact> 0.15124640E+00</totfact>
</mgrwt>
</event>
<event>
 6    1  0.5613766E-003  0.6500476E+03  0.7818608E-02  0.9806690E-01
          1   -1    0    0  502    0  0.00000000000E+00  0.00000000000E+00  0.11023403834E+03  0.11023403834E+03  0.00000000000E+00 0.  1.
         13   -1    0    0    0    0 -0.00000000000E+00 -0.00000000000E+00 -0.10000000000E+04  0.10000000000E+04  0.00000000000E+00 0.  1.
    9000005    2    1    2  501    0  0.46689058692E+01  0.12903834292E+01 -0.89290329289E+03  0.11044628497E+04  0.65002956246E+03 0.  0.
         13    1    3    3    0    0 -0.55355735305E+01  0.11584286020E+03  0.69504719265E+02  0.13520768038E+03  0.00000000000E+00 0.  1.
          1    1    3    3  501    0  0.10204479400E+02 -0.11455247677E+03 -0.96240801216E+03  0.96925516929E+03  0.00000000000E+00 0.  1.
         21    1    1    2  502  501 -0.46689058692E+01 -0.12903834292E+01  0.31373312317E+01  0.57711886702E+01  0.00000000000E+00 0. -1.
<mgrwt>
<rscale>  1 0.65004761E+03</rscale>
<asrwt>0</asrwt>
<pdfrwt beam="1">  1        1 0.40085189E+00 0.65004761E+03</pdfrwt>
<pdfrwt beam="2">0</pdfrwt>
<totfact> 0.13262119E+00</totfact>
</mgrwt>
</event>
<event>
 6    1  0.5613766E-003  0.6530158E+03  0.7818608E-02  0.9801137E-01
          1   -1    0    0  502    0  0.00000000000E+00  0.00000000000E+00  0.10662972010E+03  0.10662972010E+03  0.00000000000E+00 0.  1.
         13   -1    0    0    0    0 -0.00000000000E+00 -0.00000000000E+00 -0.10000000000E+04  0.10000000000E+04  0.00000000000E+00 0.  1.
    9000005    2    1    2  501    0 -0.11358070794E-01  0.32846778046E-01 -0.89337651646E+03  0.11065944099E+04  0.65301576292E+03 0.  0.
         13    1    3    3    0    0  0.99078348429E+02 -0.21859419366E+03 -0.71560477178E+02  0.25044129556E+03  0.00000000000E+00 0.  1.
          3    1    3    3  501    0 -0.99089706499E+02  0.21862704044E+03 -0.82181603928E+03  0.85615311432E+03  0.00000000000E+00 0.  1.
         21    1    1    2  502  501  0.11358070794E-01 -0.32846778046E-01  0.62365509773E-02  0.35310213371E-01  0.00000000000E+00 0. -1.
<mgrwt>
<rscale>  1 0.65301576E+03</rscale>
<asrwt>0</asrwt>
<pdfrwt beam="1">  1        1 0.38774525E+00 0.65301576E+03</pdfrwt>
<pdfrwt beam="2">0</pdfrwt>
<totfact> 0.15157189E+00</totfact>
</mgrwt>
</event>
<event>
 6    1  0.5613766E-003  0.6428590E+03  0.7818608E-02  0.9820272E-01
          1   -1    0    0  502    0  0.00000000000E+00  0.00000000000E+00  0.10332251744E+03  0.10332251744E+03  0.00000000000E+00 0.  1.
         13   -1    0    0    0    0 -0.00000000000E+00 -0.00000000000E+00 -0.10000000000E+04  0.10000000000E+04  0.00000000000E+00 0.  1.
    9000005    2    1    2  501    0  0.35995273151E-03  0.73401624734E-03 -0.89668305014E+03  0.11033168902E+04  0.64285897964E+03 0.  0.
         13    1    3    3    0    0 -0.28007248057E+03  0.85276470242E+02 -0.67605704920E+03  0.73672641091E+03  0.00000000000E+00 0.  1.
          1    1    3    3  501    0  0.28007284052E+03 -0.85275736226E+02 -0.22062600094E+03  0.36659047925E+03  0.00000000000E+00 0.  1.
         21    1    1    2  502  501 -0.35995273152E-03 -0.73401624733E-03  0.55675776075E-02  0.56272787594E-02  0.00000000000E+00 0. -1.
<mgrwt>
<rscale>  1 0.64285898E+03</rscale>
<asrwt>0</asrwt>
<pdfrwt beam="1">  1        1 0.37571904E+00 0.64285898E+03</pdfrwt>
<pdfrwt beam="2">0</pdfrwt>
<totfact> 0.17160895E+00</totfact>
</mgrwt>
</event>
<event>
 6    1  0.5613766E-003  0.6434475E+03  0.7818608E-02  0.9819153E-01
          1   -1    0    0  502    0  0.00000000000E+00  0.00000000000E+00  0.11351755845E+03  0.11351755845E+03  0.00000000000E+00 0.  1.
         13   -1    0    0    0    0 -0.00000000000E+00 -0.00000000000E+00 -0.10000000000E+04  0.10000000000E+04  0.00000000000E+00 0.  1.
    9000005    2    1    2  501    0 -0.57009285701E+00 -0.35067428364E+00 -0.89648147406E+03  0.11034961499E+04  0.64344717849E+03 0.  0.
         13    1    3    3    0    0 -0.18119758171E+03 -0.68060039076E+02 -0.88966236653E+03  0.91047452406E+03  0.00000000000E+00 0.  1.
          3    1    3    3  501    0  0.18062748886E+03  0.67709364793E+02 -0.68191075297E+01  0.19302162583E+03  0.00000000000E+00 0.  1.
         21    1    1    2  502  501  0.57009285701E+00  0.35067428364E+00  0.99990325106E+01  0.10021408557E+02  0.00000000000E+00 0. -1.
<mgrwt>
<rscale>  1 0.64344753E+03</rscale>
<asrwt>0</asrwt>
<pdfrwt beam="1">  1        1 0.41279199E+00 0.64344753E+03</pdfrwt>
<pdfrwt beam="2">0</pdfrwt>
<totfact> 0.11742197E+00</totfact>
</mgrwt>
</event>
<event>
 6    1  0.5613766E-003  0.5861923E+03  0.7818608E-02  0.9934474E-01
          1   -1    0    0  502    0  0.00000000000E+00  0.00000000000E+00  0.86279839078E+02  0.86279839078E+02  0.00000000000E+00 0.  1.
         13   -1    0    0    0    0 -0.00000000000E+00 -0.00000000000E+00 -0.10000000000E+04  0.10000000000E+04  0.00000000000E+00 0.  1.
    9000005    2    1    2  501    0  0.73159554229E-02  0.90397856948E-01 -0.91408866321E+03  0.10859003404E+04  0.58619233779E+03 0.  0.
         13    1    3    3    0    0  0.54490272586E+02  0.27970010517E+03 -0.32971335106E+03  0.43578920650E+03  0.00000000000E+00 0.  1.
          3    1    3    3  501    0 -0.54482956631E+02 -0.27960970731E+03 -0.58437531216E+03  0.65011113392E+03  0.00000000000E+00 0.  1.
         21    1    1    2  502  501 -0.73159554229E-02 -0.90397856948E-01  0.36850228832E+00  0.37949865908E+00  0.00000000000E+00 0.  1.
<mgrwt>
<rscale>  1 0.58619234E+03</rscale>
<asrwt>0</asrwt>
<pdfrwt beam="1">  1        1 0.31374553E+00 0.58619234E+03</pdfrwt>
<pdfrwt beam="2">0</pdfrwt>
<totfact> 0.32265954E+00</totfact>
</mgrwt>
</event>
<event>
 6    1  0.5613766E-003  0.6528229E+03  0.7818608E-02  0.9801497E-01
          1   -1    0    0  502    0  0.00000000000E+00  0.00000000000E+00  0.10654472336E+03  0.10654472336E+03  0.00000000000E+00 0.  1.
         13   -1    0    0    0    0 -0.00000000000E+00 -0.00000000000E+00 -0.10000000000E+04  0.10000000000E+04  0.00000000000E+00 0.  1.
    9000005    2    1    2  501    0 -0.46233777308E-03  0.69638184488E-03 -0.89345451621E+03  0.11065435933E+04  0.65282290967E+03 0.  0.
         13    1    3    3    0    0 -0.13275905653E+02 -0.17753038816E+03 -0.91046432062E+03  0.92770607819E+03  0.00000000000E+00 0.  1.
          1    1    3    3  501    0  0.13275443315E+02  0.17753108454E+03  0.17009804407E+02  0.17883751514E+03  0.00000000000E+00 0.  1.
         21    1    1    2  502  501  0.46233777308E-03 -0.69638184488E-03 -0.76043350009E-03  0.11300278750E-02  0.00000000000E+00 0.  1.
<mgrwt>
<rscale>  1 0.65282291E+03</rscale>
<asrwt>0</asrwt>
<pdfrwt beam="1">  1        1 0.38743617E+00 0.65282291E+03</pdfrwt>
<pdfrwt beam="2">0</pdfrwt>
<totfact> 0.15205585E+00</totfact>
</mgrwt>
</event>
<event>
 6    1  0.5613766E-003  0.6491091E+03  0.7818608E-02  0.9808452E-01
          1   -1    0    0  502    0  0.00000000000E+00  0.00000000000E+00  0.10534726459E+03  0.10534726459E+03  0.00000000000E+00 0.  1.
         13   -1    0    0    0    0 -0.00000000000E+00 -0.00000000000E+00 -0.10000000000E+04  0.10000000000E+04  0.00000000000E+00 0.  1.
    9000005    2    1    2  501    0 -0.72694750790E-03  0.27705656279E-03 -0.89466433719E+03  0.11053356368E+04  0.64910907686E+03 0.  0.
         13    1    3    3    0    0 -0.18699183941E+03  0.23034899342E+03 -0.22329778062E+03  0.37133341568E+03  0.00000000000E+00 0.  1.
          1    1    3    3  501    0  0.18699111246E+03 -0.23034871636E+03 -0.67136655657E+03  0.73400222108E+03  0.00000000000E+00 0.  1.
         21    1    1    2  502  501  0.72694750792E-03 -0.27705656278E-03  0.11601779885E-01  0.11627833397E-01  0.00000000000E+00 0. -1.
<mgrwt>
<rscale>  1 0.64910908E+03</rscale>
<asrwt>0</asrwt>
<pdfrwt beam="1">  1        1 0.38308177E+00 0.64910908E+03</pdfrwt>
<pdfrwt beam="2">0</pdfrwt>
<totfact> 0.15906120E+00</totfact>
</mgrwt>
</event>
<event>
 6    1  0.5613766E-003  0.6527148E+03  0.7818608E-02  0.9801698E-01
          1   -1    0    0  502    0  0.00000000000E+00  0.00000000000E+00  0.10650934559E+03  0.10650934559E+03  0.00000000000E+00 0.  1.
         13   -1    0    0    0    0 -0.00000000000E+00 -0.00000000000E+00 -0.10000000000E+04  0.10000000000E+04  0.00000000000E+00 0.  1.
    9000005    2    1    2  501    0 -0.13449534549E-04  0.16776491805E-05 -0.89349083382E+03  0.11065091657E+04  0.65271484093E+03 0.  0.
         13    1    3    3    0    0 -0.26214117212E+03  0.13511656061E+03 -0.20980738211E+03  0.36193040306E+03  0.00000000000E+00 0.  1.
          1    1    3    3  501    0  0.26214115867E+03 -0.13511655894E+03 -0.68368345172E+03  0.74457876260E+03  0.00000000000E+00 0.  1.
         21    1    1    2  502  501  0.13449534560E-04 -0.16776491827E-05  0.17941900374E-03  0.17993021811E-03  0.00000000000E+00 0. -1.
<mgrwt>
<rscale>  1 0.65271484E+03</rscale>
<asrwt>0</asrwt>
<pdfrwt beam="1">  1        1 0.38730753E+00 0.65271484E+03</pdfrwt>
<pdfrwt beam="2">0</pdfrwt>
<totfact> 0.15225850E+00</totfact>
</mgrwt>
</event>
<event>
 6    1  0.5613766E-003  0.6480448E+03  0.7818608E-02  0.9810455E-01
          1   -1    0    0  502    0  0.00000000000E+00  0.00000000000E+00  0.10499053318E+03  0.10499053318E+03  0.00000000000E+00 0.  1.
         13   -1    0    0    0    0 -0.00000000000E+00 -0.00000000000E+00 -0.10000000000E+04  0.10000000000E+04  0.00000000000E+00 0.  1.
    9000005    2    1    2  501    0 -0.15264742501E-05  0.11066885008E-06 -0.89500947287E+03  0.11049905269E+04  0.64804483495E+03 0.  0.
         13    1    3    3    0    0  0.25567012596E+03 -0.19499141619E+03 -0.37926477135E+03  0.49722292032E+03  0.00000000000E+00 0.  1.
          1    1    3    3  501    0 -0.25567012749E+03  0.19499141630E+03 -0.51574470152E+03  0.60776760663E+03  0.00000000000E+00 0.  1.
         21    1    1    2  502  501  0.15264742432E-05 -0.11066886154E-06  0.60521310216E-05  0.62426485657E-05  0.00000000000E+00 0. -1.
<mgrwt>
<rscale>  1 0.64804483E+03</rscale>
<asrwt>0</asrwt>
<pdfrwt beam="1">  1        1 0.38178456E+00 0.64804483E+03</pdfrwt>
<pdfrwt beam="2">0</pdfrwt>
<totfact> 0.16120551E+00</totfact>
</mgrwt>
</event>
<event>
 6    1  0.5613766E-003  0.6343510E+03  0.7818608E-02  0.9836595E-01
          1   -1    0    0  502    0  0.00000000000E+00  0.00000000000E+00  0.11286881414E+03  0.11286881414E+03  0.00000000000E+00 0.  1.
         13   -1    0    0    0    0 -0.00000000000E+00 -0.00000000000E+00 -0.10000000000E+04  0.10000000000E+04  0.00000000000E+00 0.  1.
    9000005    2    1    2  501    0 -0.39173452734E+01 -0.10183608984E+02 -0.89667360992E+03  0.10983736652E+04  0.63425711993E+03 0.  0.
         13    1    3    3    0    0  0.25011818339E+02  0.84412316006E+01 -0.99440886305E+03  0.99475918310E+03  0.00000000000E+00 0.  1.
          1    1    3    3  501    0 -0.28929163613E+02 -0.18624840584E+02  0.97735253135E+02  0.10361448209E+03  0.00000000000E+00 0.  1.
         21    1    1    2  502  501  0.39173452734E+01  0.10183608984E+02  0.95424240597E+01  0.14495148942E+02  0.00000000000E+00 0. -1.
<mgrwt>
<rscale>  1 0.63435096E+03</rscale>
<asrwt>0</asrwt>
<pdfrwt beam="1">  1        1 0.41043292E+00 0.63435096E+03</pdfrwt>
<pdfrwt beam="2">0</pdfrwt>
<totfact> 0.12053422E+00</totfact>
</mgrwt>
</event>
<event>
 6    1  0.5613766E-003  0.6486067E+03  0.7818608E-02  0.9809397E-01
          1   -1    0    0  502    0  0.00000000000E+00  0.00000000000E+00  0.10517315964E+03  0.10517315964E+03  0.00000000000E+00 0.  1.
         13   -1    0    0    0    0 -0.00000000000E+00 -0.00000000000E+00 -0.10000000000E+04  0.10000000000E+04  0.00000000000E+00 0.  1.
    9000005    2    1    2  501    0 -0.27463968570E-03 -0.43010279947E-03 -0.89482720320E+03  0.11051725335E+04  0.64860666446E+03 0.  0.
         13    1    3    3    0    0  0.24239151585E+03 -0.18176406507E+03 -0.64451532839E+03  0.71217401725E+03  0.00000000000E+00 0.  1.
          3    1    3    3  501    0 -0.24239179049E+03  0.18176363497E+03 -0.25031187481E+03  0.39299851624E+03  0.00000000000E+00 0.  1.
         21    1    1    2  502  501  0.27463968569E-03  0.43010279949E-03  0.36283666418E-03  0.62615159503E-03  0.00000000000E+00 0.  1.
<mgrwt>
<rscale>  1 0.64860666E+03</rscale>
<asrwt>0</asrwt>
<pdfrwt beam="1">  1        1 0.38244866E+00 0.64860666E+03</pdfrwt>
<pdfrwt beam="2">0</pdfrwt>
<totfact> 0.16010383E+00</totfact>
</mgrwt>
</event>
<event>
 6    1  0.5613766E-003  0.6462526E+03  0.7818608E-02  0.9813836E-01
          1   -1    0    0  502    0  0.00000000000E+00  0.00000000000E+00  0.10441180691E+03  0.10441180691E+03  0.00000000000E+00 0.  1.
         13   -1    0    0    0    0 -0.00000000000E+00 -0.00000000000E+00 -0.10000000000E+04  0.10000000000E+04  0.00000000000E+00 0.  1.
    9000005    2    1    2  501    0 -0.61843257331E-04  0.39598872149E-04 -0.89558940508E+03  0.11044105927E+04  0.64625256266E+03 0.  0.
         13    1    3    3    0    0 -0.28449917718E+02 -0.23897829260E+03 -0.81627194652E+03  0.85101111204E+03  0.00000000000E+00 0.  1.
          3    1    3    3  501    0  0.28449855874E+02  0.23897833220E+03 -0.79317458568E+02  0.25339948065E+03  0.00000000000E+00 0.  1.
         21    1    1    2  502  501  0.61843257331E-04 -0.39598872159E-04  0.12119911433E-02  0.12142138159E-02  0.00000000000E+00 0.  1.
<mgrwt>
<rscale>  1 0.64625256E+03</rscale>
<asrwt>0</asrwt>
<pdfrwt beam="1">  1        1 0.37968010E+00 0.64625256E+03</pdfrwt>
<pdfrwt beam="2">0</pdfrwt>
<totfact> 0.16474482E+00</totfact>
</mgrwt>
</event>
<event>
 6    1  0.5613766E-003  0.6480895E+03  0.7818608E-02  0.9810371E-01
          1   -1    0    0  502    0  0.00000000000E+00  0.00000000000E+00  0.10500502108E+03  0.10500502108E+03  0.00000000000E+00 0.  1.
         13   -1    0    0    0    0 -0.00000000000E+00 -0.00000000000E+00 -0.10000000000E+04  0.10000000000E+04  0.00000000000E+00 0.  1.
    9000005    2    1    2  501    0 -0.84915556897E-05 -0.79933732877E-05 -0.89499499718E+03  0.11050049994E+04  0.64808950290E+03 0.  0.
         13    1    3    3    0    0  0.11302984961E+03 -0.30035306778E+03 -0.37091784059E+03  0.49047707051E+03  0.00000000000E+00 0.  1.
          1    1    3    3  501    0 -0.11302985811E+03  0.30035305979E+03 -0.52407715659E+03  0.61452792890E+03  0.00000000000E+00 0.  1.
         21    1    1    2  502  501  0.84915556963E-05  0.79933732639E-05  0.18254661471E-04  0.21661791240E-04  0.00000000000E+00 0.  1.
<mgrwt>
<rscale>  1 0.64808950E+03</rscale>
<asrwt>0</asrwt>
<pdfrwt beam="1">  1        1 0.38183725E+00 0.64808950E+03</pdfrwt>
<pdfrwt beam="2">0</pdfrwt>
<totfact> 0.16111784E+00</totfact>
</mgrwt>
</event>
<event>
 6    1  0.5613766E-003  0.6934257E+03  0.7818608E-02  0.9728542E-01
          1   -1    0    0  502    0  0.00000000000E+00  0.00000000000E+00  0.12607159913E+03  0.12607159913E+03  0.00000000000E+00 0.  1.
         13   -1    0    0    0    0 -0.00000000000E+00 -0.00000000000E+00 -0.10000000000E+04  0.10000000000E+04  0.00000000000E+00 0.  1.
    9000005    2    1    2  501    0 -0.34628158482E-01  0.14245056216E+00 -0.87978915719E+03  0.11202090096E+04  0.69342572970E+03 0.  0.
         13    1    3    3    0    0  0.16855883719E+03 -0.30283965971E+03 -0.42999269108E+03  0.55228403514E+03  0.00000000000E+00 0.  1.
          1    1    3    3  501    0 -0.16859346534E+03  0.30298211027E+03 -0.44979646611E+03  0.56792497447E+03  0.00000000000E+00 0.  1.
         21    1    1    2  502  501  0.34628158482E-01 -0.14245056216E+00  0.58607563180E+01  0.58625895209E+01  0.00000000000E+00 0. -1.
<mgrwt>
<rscale>  1 0.69342575E+03</rscale>
<asrwt>0</asrwt>
<pdfrwt beam="1">  1        1 0.45844315E+00 0.69342575E+03</pdfrwt>
<pdfrwt beam="2">0</pdfrwt>
<totfact> 0.71976752E-01</totfact>
</mgrwt>
</event>
<event>
 6    1  0.5613766E-003  0.6056808E+03  0.7818608E-02  0.9893690E-01
          1   -1    0    0  502    0  0.00000000000E+00  0.00000000000E+00  0.91712648596E+02  0.91712648596E+02  0.00000000000E+00 0.  1.
         13   -1    0    0    0    0 -0.00000000000E+00 -0.00000000000E+00 -0.10000000000E+04  0.10000000000E+04  0.00000000000E+00 0.  1.
    9000005    2    1    2  501    0 -0.13873964395E-04  0.73990943292E-05 -0.90828770678E+03  0.10917122929E+04  0.60568075099E+03 0.  0.
         13    1    3    3    0    0  0.17602052902E+02 -0.26938983257E+03 -0.20679620851E+03  0.34006673759E+03  0.00000000000E+00 0.  1.
          1    1    3    3  501    0 -0.17602066776E+02  0.26938983997E+03 -0.70149149826E+03  0.75164555528E+03  0.00000000000E+00 0.  1.
         21    1    1    2  502  501  0.13873964398E-04 -0.73990943299E-05  0.35537565915E-03  0.35572333716E-03  0.00000000000E+00 0.  1.
<mgrwt>
<rscale>  1 0.60568075E+03</rscale>
<asrwt>0</asrwt>
<pdfrwt beam="1">  1        1 0.33350124E+00 0.60568075E+03</pdfrwt>
<pdfrwt beam="2">0</pdfrwt>
<totfact> 0.26410030E+00</totfact>
</mgrwt>
</event>
<event>
 6    1  0.5613766E-003  0.6025877E+03  0.7818608E-02  0.9900052E-01
          1   -1    0    0  502    0  0.00000000000E+00  0.00000000000E+00  0.90949720993E+02  0.90949720993E+02  0.00000000000E+00 0.  1.
         13   -1    0    0    0    0 -0.00000000000E+00 -0.00000000000E+00 -0.10000000000E+04  0.10000000000E+04  0.00000000000E+00 0.  1.
    9000005    2    1    2  501    0  0.22224939963E-01  0.20181628418E-02 -0.90922121445E+03  0.10907773350E+04  0.60258773398E+03 0.  0.
         13    1    3    3    0    0 -0.36472054437E+01 -0.27100974898E+03 -0.69282009709E+03  0.74394843442E+03  0.00000000000E+00 0.  1.
          1    1    3    3  501    0  0.36694303836E+01  0.27101176714E+03 -0.21640111736E+03  0.34682890053E+03  0.00000000000E+00 0.  1.
         21    1    1    2  502  501 -0.22224939963E-01 -0.20181628418E-02  0.17093544389E+00  0.17238604037E+00  0.00000000000E+00 0. -1.
<mgrwt>
<rscale>  1 0.60258773E+03</rscale>
<asrwt>0</asrwt>
<pdfrwt beam="1">  1        1 0.33072696E+00 0.60258773E+03</pdfrwt>
<pdfrwt beam="2">0</pdfrwt>
<totfact> 0.27166233E+00</totfact>
</mgrwt>
</event>
<event>
 6    1  0.5613766E-003  0.6544682E+03  0.7818608E-02  0.9798431E-01
          1   -1    0    0  502    0  0.00000000000E+00  0.00000000000E+00  0.10708320242E+03  0.10708320242E+03  0.00000000000E+00 0.  1.
         13   -1    0    0    0    0 -0.00000000000E+00 -0.00000000000E+00 -0.10000000000E+04  0.10000000000E+04  0.00000000000E+00 0.  1.
    9000005    2    1    2  501    0 -0.16943186290E-03  0.36090293774E-03 -0.89291778954E+03  0.11070821333E+04  0.65446823536E+03 0.  0.
         13    1    3    3    0    0 -0.31583569652E+03  0.57740944503E+01 -0.30196348623E+03  0.43699825443E+03  0.00000000000E+00 0.  1.
          1    1    3    3  501    0  0.31583552709E+03 -0.57737335473E+01 -0.59095430331E+03  0.67008387891E+03  0.00000000000E+00 0.  1.
         21    1    1    2  502  501  0.16943186289E-03 -0.36090293774E-03  0.99196013538E-03  0.10690851214E-02  0.00000000000E+00 0. -1.
<mgrwt>
<rscale>  1 0.65446824E+03</rscale>
<asrwt>0</asrwt>
<pdfrwt beam="1">  1        1 0.38939428E+00 0.65446824E+03</pdfrwt>
<pdfrwt beam="2">0</pdfrwt>
<totfact> 0.14900275E+00</totfact>
</mgrwt>
</event>
<event>
 6    1  0.5613766E-003  0.6493168E+03  0.7818608E-02  0.9808062E-01
          1   -1    0    0  502    0  0.00000000000E+00  0.00000000000E+00  0.10540307773E+03  0.10540307773E+03  0.00000000000E+00 0.  1.
         13   -1    0    0    0    0 -0.00000000000E+00 -0.00000000000E+00 -0.10000000000E+04  0.10000000000E+04  0.00000000000E+00 0.  1.
    9000005    2    1    2  501    0  0.14829859836E-04  0.11792186399E-04 -0.89459691708E+03  0.11054030581E+04  0.64931677691E+03 0.  0.
         13    1    3    3    0    0 -0.81752182290E+02  0.27573748623E+03 -0.19086963934E+03  0.34517502784E+03  0.00000000000E+00 0.  1.
          3    1    3    3  501    0  0.81752197120E+02 -0.27573747444E+03 -0.70372727774E+03  0.76022803025E+03  0.00000000000E+00 0.  1.
         21    1    1    2  502  501 -0.14829859836E-04 -0.11792186419E-04 -0.51922310367E-05  0.19645347195E-04  0.00000000000E+00 0.  1.
<mgrwt>
<rscale>  1 0.64931678E+03</rscale>
<asrwt>0</asrwt>
<pdfrwt beam="1">  1        1 0.38328473E+00 0.64931678E+03</pdfrwt>
<pdfrwt beam="2">0</pdfrwt>
<totfact> 0.15872697E+00</totfact>
</mgrwt>
</event>
<event>
 6    1  0.5613766E-003  0.6806911E+03  0.7818608E-02  0.9750835E-01
          1   -1    0    0  502    0  0.00000000000E+00  0.00000000000E+00  0.11584003532E+03  0.11584003532E+03  0.00000000000E+00 0.  1.
         13   -1    0    0    0    0 -0.00000000000E+00 -0.00000000000E+00 -0.10000000000E+04  0.10000000000E+04  0.00000000000E+00 0.  1.
    9000005    2    1    2  501    0 -0.25057968628E-04  0.10351123404E-03 -0.88416489701E+03  0.11158351018E+04  0.68069112627E+03 0.  0.
         13    1    3    3    0    0 -0.16897879334E+03  0.29176801308E+03 -0.36602453454E+03  0.49765084742E+03  0.00000000000E+00 0.  1.
          3    1    3    3  501    0  0.16897876828E+03 -0.29176790957E+03 -0.51814036247E+03  0.61818425442E+03  0.00000000000E+00 0.  1.
         21    1    1    2  502  501  0.25057968626E-04 -0.10351123404E-03  0.49323295822E-02  0.49334792575E-02  0.00000000000E+00 0.  1.
<mgrwt>
<rscale>  1 0.68069113E+03</rscale>
<asrwt>0</asrwt>
<pdfrwt beam="1">  1        1 0.42123738E+00 0.68069113E+03</pdfrwt>
<pdfrwt beam="2">0</pdfrwt>
<totfact> 0.10680349E+00</totfact>
</mgrwt>
</event>
<event>
 6    1  0.5613766E-003  0.6474674E+03  0.7818608E-02  0.9811543E-01
          3   -1    0    0  502    0  0.00000000000E+00  0.00000000000E+00  0.10497462304E+03  0.10497462304E+03  0.00000000000E+00 0.  1.
         13   -1    0    0    0    0 -0.00000000000E+00 -0.00000000000E+00 -0.10000000000E+04  0.10000000000E+04  0.00000000000E+00 0.  1.
    9000005    2    1    2  501    0 -0.40282638421E-02 -0.54062175035E-01 -0.89519173242E+03  0.11047996571E+04  0.64746740579E+03 0.  0.
         13    1    3    3    0    0 -0.24633484884E+03  0.20695277260E+03 -0.50869361544E+03  0.60189658766E+03  0.00000000000E+00 0.  1.
          3    1    3    3  501    0  0.24633082058E+03 -0.20700683478E+03 -0.38649811698E+03  0.50290306943E+03  0.00000000000E+00 0.  1.
         21    1    1    2  502  501  0.40282638421E-02  0.54062175035E-01  0.16635545771E+00  0.17496595094E+00  0.00000000000E+00 0.  1.
<mgrwt>
<rscale>  1 0.64746741E+03</rscale>
<asrwt>0</asrwt>
<pdfrwt beam="1">  1        3 0.38172671E+00 0.64746741E+03</pdfrwt>
<pdfrwt beam="2">0</pdfrwt>
<totfact> 0.73942013E-02</totfact>
</mgrwt>
</event>
<event>
 6    1  0.5613766E-003  0.6671574E+03  0.7818608E-02  0.9775107E-01
          1   -1    0    0  502    0  0.00000000000E+00  0.00000000000E+00  0.11244541554E+03  0.11244541554E+03  0.00000000000E+00 0.  1.
         13   -1    0    0    0    0 -0.00000000000E+00 -0.00000000000E+00 -0.10000000000E+04  0.10000000000E+04  0.00000000000E+00 0.  1.
    9000005    2    1    2  501    0 -0.12519326512E+01  0.79782147952E-01 -0.88833900331E+03  0.11109658840E+04  0.66715623132E+03 0.  0.
         13    1    3    3    0    0 -0.17555903313E+03  0.14025151976E+03 -0.85595451443E+03  0.88495739653E+03  0.00000000000E+00 0.  1.
          1    1    3    3  501    0  0.17430710047E+03 -0.14017173761E+03 -0.32384488876E+02  0.22600848750E+03  0.00000000000E+00 0.  1.
         21    1    1    2  502  501  0.12519326512E+01 -0.79782147952E-01  0.78441884411E+00  0.14795315060E+01  0.00000000000E+00 0.  1.
<mgrwt>
<rscale>  1 0.66715741E+03</rscale>
<asrwt>0</asrwt>
<pdfrwt beam="1">  1        1 0.40889328E+00 0.66715741E+03</pdfrwt>
<pdfrwt beam="2">0</pdfrwt>
<totfact> 0.12168882E+00</totfact>
</mgrwt>
</event>
<event>
 6    1  0.5613766E-003  0.6477802E+03  0.7818608E-02  0.9810953E-01
          1   -1    0    0  502    0  0.00000000000E+00  0.00000000000E+00  0.10499926139E+03  0.10499926139E+03  0.00000000000E+00 0.  1.
         13   -1    0    0    0    0 -0.00000000000E+00 -0.00000000000E+00 -0.10000000000E+04  0.10000000000E+04  0.00000000000E+00 0.  1.
    9000005    2    1    2  501    0  0.80505367117E-03 -0.12147897538E-02 -0.89509518244E+03  0.11049048063E+04  0.64778024468E+03 0.  0.
         13    1    3    3    0    0  0.23198851514E+03 -0.11459667927E+03 -0.11525135958E+03  0.28325597247E+03  0.00000000000E+00 0.  1.
          3    1    3    3  501    0 -0.23198771009E+03  0.11459546448E+03 -0.77984382286E+03  0.82164883384E+03  0.00000000000E+00 0.  1.
         21    1    1    2  502  501 -0.80505367119E-03  0.12147897538E-02  0.94443830124E-01  0.94455073311E-01  0.00000000000E+00 0. -1.
<mgrwt>
<rscale>  1 0.64778024E+03</rscale>
<asrwt>0</asrwt>
<pdfrwt beam="1">  1        1 0.38181630E+00 0.64778024E+03</pdfrwt>
<pdfrwt beam="2">0</pdfrwt>
<totfact> 0.16116134E+00</totfact>
</mgrwt>
</event>
<event>
 6    1  0.5613766E-003  0.6446946E+03  0.7818608E-02  0.9816786E-01
          1   -1    0    0  502    0  0.00000000000E+00  0.00000000000E+00  0.10391286656E+03  0.10391286656E+03  0.00000000000E+00 0.  1.
         13   -1    0    0    0    0 -0.00000000000E+00 -0.00000000000E+00 -0.10000000000E+04  0.10000000000E+04  0.00000000000E+00 0.  1.
    9000005    2    1    2  501    0 -0.17267743015E-02  0.14865513122E-01 -0.89607376954E+03  0.11038928027E+04  0.64469459370E+03 0.  0.
         13    1    3    3    0    0 -0.29190891756E+03  0.64705623292E+02 -0.24177259480E+03  0.38451478702E+03  0.00000000000E+00 0.  1.
          1    1    3    3  501    0  0.29190719078E+03 -0.64690757778E+02 -0.65430117473E+03  0.71937801567E+03  0.00000000000E+00 0.  1.
         21    1    1    2  502  501  0.17267743015E-02 -0.14865513122E-01 -0.13363899789E-01  0.20063874188E-01  0.00000000000E+00 0.  1.
<mgrwt>
<rscale>  1 0.64469459E+03</rscale>
<asrwt>0</asrwt>
<pdfrwt beam="1">  1        1 0.37786577E+00 0.64469459E+03</pdfrwt>
<pdfrwt beam="2">0</pdfrwt>
<totfact> 0.16785587E+00</totfact>
</mgrwt>
</event>
<event>
 6    1  0.5613766E-003  0.6407894E+03  0.7818608E-02  0.9824217E-01
          1   -1    0    0  502    0  0.00000000000E+00  0.00000000000E+00  0.10603648408E+03  0.10603648408E+03  0.00000000000E+00 0.  1.
         13   -1    0    0    0    0 -0.00000000000E+00 -0.00000000000E+00 -0.10000000000E+04  0.10000000000E+04  0.00000000000E+00 0.  1.
    9000005    2    1    2  501    0  0.10658337631E+00  0.11977700771E+00 -0.89734514266E+03  0.11026510586E+04  0.64078937741E+03 0.  0.
         13    1    3    3    0    0 -0.19426944811E+03 -0.25200429172E+03 -0.51190540389E+03  0.60273868637E+03  0.00000000000E+00 0.  1.
          1    1    3    3  501    0  0.19437603149E+03  0.25212406873E+03 -0.38543973876E+03  0.49991237219E+03  0.00000000000E+00 0.  1.
         21    1    1    2  502  501 -0.10658337631E+00 -0.11977700771E+00  0.33816267354E+01  0.33854255161E+01  0.00000000000E+00 0.  1.
<mgrwt>
<rscale>  1 0.64078940E+03</rscale>
<asrwt>0</asrwt>
<pdfrwt beam="1">  1        1 0.38558803E+00 0.64078940E+03</pdfrwt>
<pdfrwt beam="2">0</pdfrwt>
<totfact> 0.15529428E+00</totfact>
</mgrwt>
</event>
<event>
 6    1  0.5613766E-003  0.6633529E+03  0.7818608E-02  0.9782041E-01
          1   -1    0    0  502    0  0.00000000000E+00  0.00000000000E+00  0.11002920658E+03  0.11002920658E+03  0.00000000000E+00 0.  1.
         13   -1    0    0    0    0 -0.00000000000E+00 -0.00000000000E+00 -0.10000000000E+04  0.10000000000E+04  0.00000000000E+00 0.  1.
    9000005    2    1    2  501    0  0.15267134315E-01  0.89218617843E-02 -0.88998628891E+03  0.11100056950E+04  0.66335288358E+03 0.  0.
         13    1    3    3    0    0 -0.74384900176E+02  0.12493917436E+03 -0.94381924760E+03  0.95495428310E+03  0.00000000000E+00 0.  1.
          3    1    3    3  501    0  0.74400167311E+02 -0.12493025250E+03  0.53832958698E+02  0.15505141189E+03  0.00000000000E+00 0.  1.
         21    1    1    2  502  501 -0.15267134315E-01 -0.89218617843E-02  0.15495488339E-01  0.23511596431E-01  0.00000000000E+00 0. -1.
<mgrwt>
<rscale>  1 0.66335288E+03</rscale>
<asrwt>0</asrwt>
<pdfrwt beam="1">  1        1 0.40010705E+00 0.66335288E+03</pdfrwt>
<pdfrwt beam="2">0</pdfrwt>
<totfact> 0.13330414E+00</totfact>
</mgrwt>
</event>
<event>
 6    1  0.5613766E-003  0.6463071E+03  0.7818608E-02  0.9813733E-01
          1   -1    0    0  502    0  0.00000000000E+00  0.00000000000E+00  0.10442825885E+03  0.10442825885E+03  0.00000000000E+00 0.  1.
         13   -1    0    0    0    0 -0.00000000000E+00 -0.00000000000E+00 -0.10000000000E+04  0.10000000000E+04  0.00000000000E+00 0.  1.
    9000005    2    1    2  501    0  0.35729097050E-05  0.23320889511E-04 -0.89557177682E+03  0.11044282161E+04  0.64630710738E+03 0.  0.
         13    1    3    3    0    0 -0.36785084145E+02 -0.30402589142E+03 -0.27149198173E+03  0.40925881935E+03  0.00000000000E+00 0.  1.
          3    1    3    3  501    0  0.36785087718E+02  0.30402591475E+03 -0.62407979509E+03  0.69516939674E+03  0.00000000000E+00 0.  1.
         21    1    1    2  502  501 -0.35729097024E-05 -0.23320889500E-04  0.35668464343E-04  0.42765277029E-04  0.00000000000E+00 0. -1.
<mgrwt>
<rscale>  1 0.64630711E+03</rscale>
<asrwt>0</asrwt>
<pdfrwt beam="1">  1        1 0.37973992E+00 0.64630711E+03</pdfrwt>
<pdfrwt beam="2">0</pdfrwt>
<totfact> 0.16464308E+00</totfact>
</mgrwt>
</event>
<event>
 6    1  0.5613766E-003  0.6513579E+03  0.7818608E-02  0.9804234E-01
          1   -1    0    0  502    0  0.00000000000E+00  0.00000000000E+00  0.10611364836E+03  0.10611364836E+03  0.00000000000E+00 0.  1.
         13   -1    0    0    0    0 -0.00000000000E+00 -0.00000000000E+00 -0.10000000000E+04  0.10000000000E+04  0.00000000000E+00 0.  1.
    9000005    2    1    2  501    0 -0.23361983407E-01  0.48543914331E-01 -0.89391544991E+03  0.11060524193E+04  0.65135790442E+03 0.  0.
         13    1    3    3    0    0 -0.18306703160E+03  0.23507787086E+03 -0.67038451324E+03  0.73361470747E+03  0.00000000000E+00 0.  1.
          3    1    3    3  501    0  0.18304366962E+03 -0.23502932694E+03 -0.22353093667E+03  0.37243771178E+03  0.00000000000E+00 0.  1.
         21    1    1    2  502  501  0.23361983407E-01 -0.48543914331E-01  0.29098270847E-01  0.61229104628E-01  0.00000000000E+00 0.  1.
<mgrwt>
<rscale>  1 0.65135791E+03</rscale>
<asrwt>0</asrwt>
<pdfrwt beam="1">  1        1 0.38586863E+00 0.65135791E+03</pdfrwt>
<pdfrwt beam="2">0</pdfrwt>
<totfact> 0.15454691E+00</totfact>
</mgrwt>
</event>
<event>
 6    1  0.5613766E-003  0.6704158E+03  0.7818608E-02  0.9769207E-01
          1   -1    0    0  502    0  0.00000000000E+00  0.00000000000E+00  0.11236440849E+03  0.11236440849E+03  0.00000000000E+00 0.  1.
         13   -1    0    0    0    0 -0.00000000000E+00 -0.00000000000E+00 -0.10000000000E+04  0.10000000000E+04  0.00000000000E+00 0.  1.
    9000005    2    1    2  501    0 -0.55655786753E-05  0.98155820183E-06 -0.88763565869E+03  0.11123643411E+04  0.67041581478E+03 0.  0.
         13    1    3    3    0    0 -0.87951551375E+02 -0.25371316334E+03 -0.77673146661E+03  0.82183794988E+03  0.00000000000E+00 0.  1.
          1    1    3    3  501    0  0.87951545809E+02  0.25371316432E+03 -0.11090419208E+03  0.29052639119E+03  0.00000000000E+00 0.  1.
         21    1    1    2  502  501  0.55655786740E-05 -0.98155819757E-06  0.67185500112E-04  0.67422774697E-04  0.00000000000E+00 0. -1.
<mgrwt>
<rscale>  1 0.67041581E+03</rscale>
<asrwt>0</asrwt>
<pdfrwt beam="1">  1        1 0.40859871E+00 0.67041581E+03</pdfrwt>
<pdfrwt beam="2">0</pdfrwt>
<totfact> 0.12198428E+00</totfact>
</mgrwt>
</event>
<event>
 6    1  0.5613766E-003  0.6486821E+03  0.7818608E-02  0.9809255E-01
          1   -1    0    0  502    0  0.00000000000E+00  0.00000000000E+00  0.10520918090E+03  0.10520918090E+03  0.00000000000E+00 0.  1.
         13   -1    0    0    0    0 -0.00000000000E+00 -0.00000000000E+00 -0.10000000000E+04  0.10000000000E+04  0.00000000000E+00 0.  1.
    9000005    2    1    2  501    0  0.23015978336E-03 -0.30090181372E-03 -0.89480288511E+03  0.11051971089E+04  0.64868208424E+03 0.  0.
         13    1    3    3    0    0  0.33698616206E+02  0.24515659335E+02 -0.99541981557E+03  0.99629173615E+03  0.00000000000E+00 0.  1.
          3    1    3    3  501    0 -0.33698386046E+02 -0.24515960237E+02  0.10061693046E+03  0.10890537279E+03  0.00000000000E+00 0.  1.
         21    1    1    2  502  501 -0.23015978336E-03  0.30090181371E-03  0.12066016290E-01  0.12071961917E-01  0.00000000000E+00 0. -1.
<mgrwt>
<rscale>  1 0.64868208E+03</rscale>
<asrwt>0</asrwt>
<pdfrwt beam="1">  1        1 0.38257965E+00 0.64868208E+03</pdfrwt>
<pdfrwt beam="2">0</pdfrwt>
<totfact> 0.15988842E+00</totfact>
</mgrwt>
</event>
<event>
 6    1  0.5613766E-003  0.6507916E+03  0.7818608E-02  0.9805295E-01
          3   -1    0    0  502    0  0.00000000000E+00  0.00000000000E+00  0.10596734490E+03  0.10596734490E+03  0.00000000000E+00 0.  1.
         13   -1    0    0    0    0 -0.00000000000E+00 -0.00000000000E+00 -0.10000000000E+04  0.10000000000E+04  0.00000000000E+00 0.  1.
    9000005    2    1    2  501    0  0.84795805517E-01  0.24053181474E+00 -0.89376771476E+03  0.11055995960E+04  0.65079157465E+03 0.  0.
         13    1    3    3    0    0 -0.84681749429E+02  0.10675424918E+02  0.86557342188E+02  0.12156124740E+03  0.00000000000E+00 0.  1.
          1    1    3    3  501    0  0.84766545234E+02 -0.10434893103E+02 -0.98032505695E+03  0.98403834857E+03  0.00000000000E+00 0.  1.
         21    1    1    2  502  501 -0.84795805517E-01 -0.24053181474E+00 -0.26494034411E+00  0.36774892042E+00  0.00000000000E+00 0.  1.
<mgrwt>
<rscale>  1 0.65079162E+03</rscale>
<asrwt>0</asrwt>
<pdfrwt beam="1">  1        3 0.38533661E+00 0.65079162E+03</pdfrwt>
<pdfrwt beam="2">0</pdfrwt>
<totfact> 0.70730836E-02</totfact>
</mgrwt>
</event>
<event>
 6    1  0.5613766E-003  0.6535177E+03  0.7818608E-02  0.9800201E-01
          1   -1    0    0  502    0  0.00000000000E+00  0.00000000000E+00  0.10677135489E+03  0.10677135489E+03  0.00000000000E+00 0.  1.
         13   -1    0    0    0    0 -0.00000000000E+00 -0.00000000000E+00 -0.10000000000E+04  0.10000000000E+04  0.00000000000E+00 0.  1.
    9000005    2    1    2  501    0 -0.12209341946E-05 -0.81073679041E-05 -0.89322865809E+03  0.11067713395E+04  0.65351768330E+03 0.  0.
         13    1    3    3    0    0 -0.16977637450E+03 -0.95381074622E+02 -0.22370749902E+01  0.19474745502E+03  0.00000000000E+00 0.  1.
          3    1    3    3  501    0  0.16977637327E+03  0.95381066514E+02 -0.89099158310E+03  0.91202388452E+03  0.00000000000E+00 0.  1.
         21    1    1    2  502  501  0.12209341770E-05  0.81073679063E-05  0.12977384642E-04  0.15350329207E-04  0.00000000000E+00 0. -1.
<mgrwt>
<rscale>  1 0.65351768E+03</rscale>
<asrwt>0</asrwt>
<pdfrwt beam="1">  1        1 0.38826029E+00 0.65351768E+03</pdfrwt>
<pdfrwt beam="2">0</pdfrwt>
<totfact> 0.15076365E+00</totfact>
</mgrwt>
</event>
<event>
 6    1  0.6800795E-003  0.5978328E+03  0.7818608E-02  0.9909912E-01
          1   -1    0    0  502    0  0.00000000000E+00  0.00000000000E+00  0.89351038172E+02  0.89351038172E+02  0.00000000000E+00 0.  1.
         13   -1    0    0    0    0 -0.00000000000E+00 -0.00000000000E+00 -0.10000000000E+04  0.10000000000E+04  0.00000000000E+00 0.  1.
    9000005    2    1    2  501    0  0.18456914916E-04  0.19964823935E-04 -0.91064895318E+03  0.10893510096E+04  0.59783284141E+03 0.  0.
         13    1    3    3    0    0 -0.13291132321E+03 -0.79550718188E+02 -0.92116264148E+03  0.93409547085E+03  0.00000000000E+00 0.  1.
          3    1    3    3  501    0  0.13291134166E+03  0.79550738153E+02  0.10513688300E+02  0.15525553879E+03  0.00000000000E+00 0.  1.
         21    1    1    2  502  501 -0.18456914918E-04 -0.19964823933E-04 -0.86449628078E-05  0.28530462403E-04  0.00000000000E+00 0. -1.
<mgrwt>
<rscale>  1 0.59783284E+03</rscale>
<asrwt>0</asrwt>
<pdfrwt beam="1">  1        1 0.32491355E+00 0.59783284E+03</pdfrwt>
<pdfrwt beam="2">0</pdfrwt>
<totfact> 0.28811242E+00</totfact>
</mgrwt>
</event>
<event>
 6    1  0.5613766E-003  0.6718749E+03  0.7818608E-02  0.9766577E-01
          1   -1    0    0  502    0  0.00000000000E+00  0.00000000000E+00  0.11369910555E+03  0.11369910555E+03  0.00000000000E+00 0.  1.
         13   -1    0    0    0    0 -0.00000000000E+00 -0.00000000000E+00 -0.10000000000E+04  0.10000000000E+04  0.00000000000E+00 0.  1.
    9000005    2    1    2  501    0  0.83493350915E-02 -0.70255748666E-01 -0.88714437744E+03  0.11128526605E+04  0.67187490849E+03 0.  0.
         13    1    3    3    0    0  0.27335784899E+03  0.17928599253E+03 -0.31551274994E+03  0.45433058019E+03  0.00000000000E+00 0.  1.
          1    1    3    3  501    0 -0.27334949966E+03 -0.17935624828E+03 -0.57163162750E+03  0.65852208036E+03  0.00000000000E+00 0.  1.
         21    1    1    2  502  501 -0.83493350915E-02  0.70255748666E-01  0.84348299478E+00  0.84644500358E+00  0.00000000000E+00 0.  1.
<mgrwt>
<rscale>  1 0.67187491E+03</rscale>
<asrwt>0</asrwt>
<pdfrwt beam="1">  1        1 0.41345216E+00 0.67187491E+03</pdfrwt>
<pdfrwt beam="2">0</pdfrwt>
<totfact> 0.11598416E+00</totfact>
</mgrwt>
</event>
<event>
 6    1  0.5613766E-003  0.6067378E+03  0.7818608E-02  0.9891525E-01
          1   -1    0    0  502    0  0.00000000000E+00  0.00000000000E+00  0.11198215672E+03  0.11198215672E+03  0.00000000000E+00 0.  1.
         13   -1    0    0    0    0 -0.00000000000E+00 -0.00000000000E+00 -0.10000000000E+04  0.10000000000E+04  0.00000000000E+00 0.  1.
    9000005    2    1    2  501    0 -0.89379002234E+00 -0.32077187800E+01 -0.90781546261E+03  0.10919064487E+04  0.60672867930E+03 0.  0.
         13    1    3    3    0    0 -0.10754666891E+02 -0.15297382556E+03  0.17636833963E+02  0.15436227544E+03  0.00000000000E+00 0.  1.
          3    1    3    3  501    0  0.98608768683E+01  0.14976610678E+03 -0.92545229657E+03  0.93754417329E+03  0.00000000000E+00 0.  1.
         21    1    1    2  502  501  0.89379002234E+00  0.32077187800E+01  0.19797619335E+02  0.20075708000E+02  0.00000000000E+00 0.  1.
<mgrwt>
<rscale>  1 0.60673782E+03</rscale>
<asrwt>0</asrwt>
<pdfrwt beam="1">  1        1 0.40720870E+00 0.60673782E+03</pdfrwt>
<pdfrwt beam="2">0</pdfrwt>
<totfact> 0.12530123E+00</totfact>
</mgrwt>
</event>
<event>
 6    1  0.5613766E-003  0.6540168E+03  0.7818608E-02  0.9799271E-01
          1   -1    0    0  502    0  0.00000000000E+00  0.00000000000E+00  0.10755169848E+03  0.10755169848E+03  0.00000000000E+00 0.  1.
         13   -1    0    0    0    0 -0.00000000000E+00 -0.00000000000E+00 -0.10000000000E+04  0.10000000000E+04  0.00000000000E+00 0.  1.
    9000005    2    1    2  501    0  0.12191546510E-01  0.10317350791E-02 -0.89306544467E+03  0.11069344341E+04  0.65401678318E+03 0.  0.
         13    1    3    3    0    0 -0.15527404492E+03 -0.93422484128E+02  0.14180332538E+02  0.18176597976E+03  0.00000000000E+00 0.  1.
          3    1    3    3  501    0  0.15528623647E+03  0.93423515863E+02 -0.90724577721E+03  0.92516845429E+03  0.00000000000E+00 0.  1.
         21    1    1    2  502  501 -0.12191546510E-01 -0.10317350791E-02  0.61714315051E+00  0.61726442187E+00  0.00000000000E+00 0. -1.
<mgrwt>
<rscale>  1 0.65401678E+03</rscale>
<asrwt>0</asrwt>
<pdfrwt beam="1">  1        1 0.39109791E+00 0.65401678E+03</pdfrwt>
<pdfrwt beam="2">0</pdfrwt>
<totfact> 0.14644504E+00</totfact>
</mgrwt>
</event>
<event>
 6    1  0.5613766E-003  0.6506247E+03  0.7818608E-02  0.9805608E-01
          1   -1    0    0  502    0  0.00000000000E+00  0.00000000000E+00  0.11196290533E+03  0.11196290533E+03  0.00000000000E+00 0.  1.
         13   -1    0    0    0    0 -0.00000000000E+00 -0.00000000000E+00 -0.10000000000E+04  0.10000000000E+04  0.00000000000E+00 0.  1.
    9000005    2    1    2  501    0 -0.20802099911E+01  0.56106837923E+01 -0.89251514755E+03  0.11044889503E+04  0.65059722232E+03 0.  0.
         13    1    3    3    0    0 -0.19187996192E+03  0.87084783216E+02 -0.87180107291E+03  0.89690511760E+03  0.00000000000E+00 0.  1.
          3    1    3    3  501    0  0.18979975193E+03 -0.81474099424E+02 -0.20714074637E+02  0.20758383270E+03  0.00000000000E+00 0.  1.
         21    1    1    2  502  501  0.20802099911E+01 -0.56106837923E+01  0.44780528759E+01  0.74739550296E+01  0.00000000000E+00 0.  1.
<mgrwt>
<rscale>  1 0.65062474E+03</rscale>
<asrwt>0</asrwt>
<pdfrwt beam="1">  1        1 0.40713870E+00 0.65062474E+03</pdfrwt>
<pdfrwt beam="2">0</pdfrwt>
<totfact> 0.12430267E+00</totfact>
</mgrwt>
</event>
<event>
 6    1  0.5613766E-003  0.6794213E+03  0.7818608E-02  0.9753086E-01
          1   -1    0    0  502    0  0.00000000000E+00  0.00000000000E+00  0.11621173753E+03  0.11621173753E+03  0.00000000000E+00 0.  1.
         13   -1    0    0    0    0 -0.00000000000E+00 -0.00000000000E+00 -0.10000000000E+04  0.10000000000E+04  0.00000000000E+00 0.  1.
    9000005    2    1    2  501    0 -0.87419618857E+00 -0.40080563172E+00 -0.88426344853E+03  0.11151390466E+04  0.67942057806E+03 0.  0.
         13    1    3    3    0    0  0.96362806243E+02 -0.14279319880E+03  0.38406850133E+02  0.17649581918E+03  0.00000000000E+00 0.  1.
          3    1    3    3  501    0 -0.97237002432E+02  0.14239239317E+03 -0.92267029866E+03  0.93864322738E+03  0.00000000000E+00 0.  1.
         21    1    1    2  502  501  0.87419618857E+00  0.40080563172E+00  0.47518606208E+00  0.10726909733E+01  0.00000000000E+00 0. -1.
<mgrwt>
<rscale>  1 0.67942126E+03</rscale>
<asrwt>0</asrwt>
<pdfrwt beam="1">  1        1 0.42258903E+00 0.67942126E+03</pdfrwt>
<pdfrwt beam="2">0</pdfrwt>
<totfact> 0.10533701E+00</totfact>
</mgrwt>
</event>
<event>
 6    1  0.5761729E-003  0.6088113E+03  0.7818608E-02  0.9887292E-01
          1   -1    0    0  502    0  0.00000000000E+00  0.00000000000E+00  0.92662810374E+02  0.92662810374E+02  0.00000000000E+00 0.  1.
         13   -1    0    0    0    0 -0.00000000000E+00 -0.00000000000E+00 -0.10000000000E+04  0.10000000000E+04  0.00000000000E+00 0.  1.
    9000005    2    1    2  501    0  0.29668872230E-05 -0.57999774583E-05 -0.90733719390E+03  0.10926628026E+04  0.60881131453E+03 0.  0.
         13    1    3    3    0    0  0.17580474417E+03  0.24849397575E+03 -0.45815158675E+03  0.55005403416E+03  0.00000000000E+00 0.  1.
          1    1    3    3  501    0 -0.17580474120E+03 -0.24849398155E+03 -0.44918560715E+03  0.54260876842E+03  0.00000000000E+00 0.  1.
         21    1    1    2  502  501 -0.29668872398E-05  0.57999774689E-05  0.42783050177E-05  0.77939753886E-05  0.00000000000E+00 0. -1.
<mgrwt>
<rscale>  1 0.60881131E+03</rscale>
<asrwt>0</asrwt>
<pdfrwt beam="1">  1        1 0.33695638E+00 0.60881131E+03</pdfrwt>
<pdfrwt beam="2">0</pdfrwt>
<totfact> 0.25500082E+00</totfact>
</mgrwt>
</event>
<event>
 6    1  0.5613766E-003  0.6583838E+03  0.7818608E-02  0.9791173E-01
          1   -1    0    0  502    0  0.00000000000E+00  0.00000000000E+00  0.10838425207E+03  0.10838425207E+03  0.00000000000E+00 0.  1.
         13   -1    0    0    0    0 -0.00000000000E+00 -0.00000000000E+00 -0.10000000000E+04  0.10000000000E+04  0.00000000000E+00 0.  1.
    9000005    2    1    2  501    0  0.49104879530E-02  0.81136728379E-02 -0.89163119681E+03  0.11083661244E+04  0.65838383522E+03 0.  0.
         13    1    3    3    0    0 -0.79285216044E+02  0.30897750205E+03 -0.58275297802E+03  0.66434499746E+03  0.00000000000E+00 0.  1.
          1    1    3    3  501    0  0.79290126532E+02 -0.30896938838E+03 -0.30887821879E+03  0.44402112694E+03  0.00000000000E+00 0.  1.
         21    1    1    2  502  501 -0.49104879530E-02 -0.81136728379E-02  0.15448886917E-01  0.18127677342E-01  0.00000000000E+00 0.  1.
<mgrwt>
<rscale>  1 0.65838384E+03</rscale>
<asrwt>0</asrwt>
<pdfrwt beam="1">  1        1 0.39412538E+00 0.65838384E+03</pdfrwt>
<pdfrwt beam="2">0</pdfrwt>
<totfact> 0.14186563E+00</totfact>
</mgrwt>
</event>
<event>
 6    1  0.5613766E-003  0.7341926E+03  0.7818608E-02  0.9660481E-01
          1   -1    0    0  502    0  0.00000000000E+00  0.00000000000E+00  0.18658487996E+03  0.18658487996E+03  0.00000000000E+00 0.  1.
         13   -1    0    0    0    0 -0.00000000000E+00 -0.00000000000E+00 -0.10000000000E+04  0.10000000000E+04  0.00000000000E+00 0.  1.
    9000005    2    1    2  501    0  0.94540524045E+01  0.24638334168E+02 -0.86139251654E+03  0.11318285361E+04  0.73371816180E+03 0.  0.
         13    1    3    3    0    0  0.20212087445E+03 -0.28905985812E+02 -0.90450633331E+03  0.92726485478E+03  0.00000000000E+00 0.  1.
          3    1    3    3  501    0 -0.19266682205E+03  0.53544319980E+02  0.43113816767E+02  0.20456368132E+03  0.00000000000E+00 0.  1.
         21    1    1    2  502  501 -0.94540524045E+01 -0.24638334168E+02  0.47977396504E+02  0.54756343858E+02  0.00000000000E+00 0.  1.
<mgrwt>
<rscale>  1 0.73419260E+03</rscale>
<asrwt>0</asrwt>
<pdfrwt beam="1">  1        1 0.67849190E+00 0.73419260E+03</pdfrwt>
<pdfrwt beam="2">0</pdfrwt>
<totfact> 0.48555525E-02</totfact>
</mgrwt>
</event>
<event>
 6    1  0.5613766E-003  0.4626526E+03  0.7818608E-02  0.1024015E+00
          1   -1    0    0  502    0  0.00000000000E+00  0.00000000000E+00  0.54999013329E+02  0.54999013329E+02  0.00000000000E+00 0.  1.
         13   -1    0    0    0    0 -0.00000000000E+00 -0.00000000000E+00 -0.10000000000E+04  0.10000000000E+04  0.00000000000E+00 0.  1.
    9000005    2    1    2  501    0 -0.56379907733E+00 -0.96218254180E-01 -0.94643009543E+03  0.10534597021E+04  0.46265223569E+03 0.  0.
         13    1    3    3    0    0 -0.35648723655E+02 -0.14832341055E+03 -0.86956028425E+03  0.88283959673E+03  0.00000000000E+00 0.  1.
          3    1    3    3  501    0  0.35084924577E+02  0.14822719230E+03 -0.76869811181E+02  0.17062010532E+03  0.00000000000E+00 0.  1.
         21    1    1    2  502  501  0.56379907733E+00  0.96218254180E-01  0.14291087599E+01  0.15393112745E+01  0.00000000000E+00 0. -1.
<mgrwt>
<rscale>  1 0.46265259E+03</rscale>
<asrwt>0</asrwt>
<pdfrwt beam="1">  1        1 0.19999683E+00 0.46265259E+03</pdfrwt>
<pdfrwt beam="2">0</pdfrwt>
<totfact> 0.10341317E+01</totfact>
</mgrwt>
</event>
<event>
 6    1  0.5613766E-003  0.6519004E+03  0.7818608E-02  0.9803220E-01
          1   -1    0    0  502    0  0.00000000000E+00  0.00000000000E+00  0.10757801060E+03  0.10757801060E+03  0.00000000000E+00 0.  1.
         13   -1    0    0    0    0 -0.00000000000E+00 -0.00000000000E+00 -0.10000000000E+04  0.10000000000E+04  0.00000000000E+00 0.  1.
    9000005    2    1    2  501    0  0.35182908548E+00 -0.22257568669E+00 -0.89372045217E+03  0.11062144384E+04  0.65190027130E+03 0.  0.
         13    1    3    3    0    0 -0.98793896997E+01  0.11595604470E+03  0.69771838960E+02  0.13568904214E+03  0.00000000000E+00 0.  1.
          3    1    3    3  501    0  0.10231218785E+02 -0.11617862039E+03 -0.96349229113E+03  0.97052539624E+03  0.00000000000E+00 0.  1.
         21    1    1    2  502  501 -0.35182908548E+00  0.22257568669E+00  0.12984627725E+01  0.13635722252E+01  0.00000000000E+00 0.  1.
<mgrwt>
<rscale>  1 0.65190040E+03</rscale>
<asrwt>0</asrwt>
<pdfrwt beam="1">  1        1 0.39119359E+00 0.65190040E+03</pdfrwt>
<pdfrwt beam="2">0</pdfrwt>
<totfact> 0.14635965E+00</totfact>
</mgrwt>
</event>
<event>
 6    1  0.5613766E-003  0.6457661E+03  0.7818608E-02  0.9814756E-01
          1   -1    0    0  502    0  0.00000000000E+00  0.00000000000E+00  0.10425351216E+03  0.10425351216E+03  0.00000000000E+00 0.  1.
         13   -1    0    0    0    0 -0.00000000000E+00 -0.00000000000E+00 -0.10000000000E+04  0.10000000000E+04  0.00000000000E+00 0.  1.
    9000005    2    1    2  501    0  0.95595731779E-04 -0.12288291447E-03 -0.89574632866E+03  0.11042532895E+04  0.64576608928E+03 0.  0.
         13    1    3    3    0    0 -0.22497994035E+03  0.23157143366E+03 -0.44192285692E+03  0.54729983913E+03  0.00000000000E+00 0.  1.
          1    1    3    3  501    0  0.22498003594E+03 -0.23157155654E+03 -0.45382347174E+03  0.55695345037E+03  0.00000000000E+00 0.  1.
         21    1    1    2  502  501 -0.95595731778E-04  0.12288291448E-03 -0.15917954970E-03  0.22265867072E-03  0.00000000000E+00 0. -1.
<mgrwt>
<rscale>  1 0.64576609E+03</rscale>
<asrwt>0</asrwt>
<pdfrwt beam="1">  1        1 0.37910448E+00 0.64576609E+03</pdfrwt>
<pdfrwt beam="2">0</pdfrwt>
<totfact> 0.16572560E+00</totfact>
</mgrwt>
</event>
<event>
 6    1  0.5613766E-003  0.6572471E+03  0.7818608E-02  0.9793275E-01
          1   -1    0    0  502    0  0.00000000000E+00  0.00000000000E+00  0.10802476115E+03  0.10802476115E+03  0.00000000000E+00 0.  1.
         13   -1    0    0    0    0 -0.00000000000E+00 -0.00000000000E+00 -0.10000000000E+04  0.10000000000E+04  0.00000000000E+00 0.  1.
    9000005    2    1    2  501    0  0.30908138971E-01 -0.13345183871E-01 -0.89199620018E+03  0.11079851028E+04  0.65724711164E+03 0.  0.
         13    1    3    3    0    0 -0.20678041873E+03 -0.24337807183E+03 -0.31541828547E+03  0.44886492648E+03  0.00000000000E+00 0.  1.
          3    1    3    3  501    0  0.20681132687E+03  0.24336472664E+03 -0.57657791471E+03  0.65912017632E+03  0.00000000000E+00 0.  1.
         21    1    1    2  502  501 -0.30908138971E-01  0.13345183871E-01  0.20961337684E-01  0.39658349243E-01  0.00000000000E+00 0. -1.
<mgrwt>
<rscale>  1 0.65724711E+03</rscale>
<asrwt>0</asrwt>
<pdfrwt beam="1">  1        1 0.39281814E+00 0.65724711E+03</pdfrwt>
<pdfrwt beam="2">0</pdfrwt>
<totfact> 0.14380606E+00</totfact>
</mgrwt>
</event>
<event>
 6    1  0.5613766E-003  0.6367618E+03  0.7818608E-02  0.9831942E-01
          1   -1    0    0  502    0  0.00000000000E+00  0.00000000000E+00  0.10136673757E+03  0.10136673757E+03  0.00000000000E+00 0.  1.
         13   -1    0    0    0    0 -0.00000000000E+00 -0.00000000000E+00 -0.10000000000E+04  0.10000000000E+04  0.00000000000E+00 0.  1.
    9000005    2    1    2  501    0 -0.14043513175E-03 -0.80755656043E-04 -0.89863357435E+03  0.11013663861E+04  0.63676182005E+03 0.  0.
         13    1    3    3    0    0 -0.20976881324E+03 -0.12653940548E+03 -0.97595133721E+02  0.26370435391E+03  0.00000000000E+00 0.  1.
          1    1    3    3  501    0  0.20976867280E+03  0.12653932473E+03 -0.80103844063E+03  0.83766203218E+03  0.00000000000E+00 0.  1.
         21    1    1    2  502  501  0.14043513176E-03  0.80755656035E-04  0.31192173781E-03  0.35148068615E-03  0.00000000000E+00 0.  1.
<mgrwt>
<rscale>  1 0.63676182E+03</rscale>
<asrwt>0</asrwt>
<pdfrwt beam="1">  1        1 0.36860710E+00 0.63676182E+03</pdfrwt>
<pdfrwt beam="2">0</pdfrwt>
<totfact> 0.18462406E+00</totfact>
</mgrwt>
</event>
<event>
 6    1  0.5613766E-003  0.6232418E+03  0.7818608E-02  0.9858326E-01
          1   -1    0    0  502    0  0.00000000000E+00  0.00000000000E+00  0.97566344528E+02  0.97566344528E+02  0.00000000000E+00 0.  1.
         13   -1    0    0    0    0 -0.00000000000E+00 -0.00000000000E+00 -0.10000000000E+04  0.10000000000E+04  0.00000000000E+00 0.  1.
    9000005    2    1    2  501    0 -0.18161133519E+00  0.44071080847E-01 -0.90287145090E+03  0.10970903301E+04  0.62324176733E+03 0.  0.
         13    1    3    3    0    0 -0.27874184240E+03  0.90331001985E+01 -0.69660867816E+03  0.75036142098E+03  0.00000000000E+00 0.  1.
          1    1    3    3  501    0  0.27856023107E+03 -0.89890291176E+01 -0.20626277273E+03  0.34672890908E+03  0.00000000000E+00 0.  1.
         21    1    1    2  502  501  0.18161133519E+00 -0.44071080847E-01  0.43779542559E+00  0.47601446606E+00  0.00000000000E+00 0.  1.
<mgrwt>
<rscale>  1 0.62324180E+03</rscale>
<asrwt>0</asrwt>
<pdfrwt beam="1">  1        1 0.35478746E+00 0.62324180E+03</pdfrwt>
<pdfrwt beam="2">0</pdfrwt>
<totfact> 0.21273169E+00</totfact>
</mgrwt>
</event>
<event>
 6    1  0.5613766E-003  0.6456151E+03  0.7818608E-02  0.9815042E-01
          1   -1    0    0  502    0  0.00000000000E+00  0.00000000000E+00  0.10420473905E+03  0.10420473905E+03  0.00000000000E+00 0.  1.
         13   -1    0    0    0    0 -0.00000000000E+00 -0.00000000000E+00 -0.10000000000E+04  0.10000000000E+04  0.00000000000E+00 0.  1.
    9000005    2    1    2  501    0 -0.32378416535E-05  0.22049347876E-05 -0.89579529011E+03  0.11042047096E+04  0.64561508579E+03 0.  0.
         13    1    3    3    0    0 -0.66728379036E+02  0.30512224174E+03 -0.30840002980E+03  0.43893375053E+03  0.00000000000E+00 0.  1.
          3    1    3    3  501    0  0.66728375798E+02 -0.30512223954E+03 -0.58739526031E+03  0.66527095911E+03  0.00000000000E+00 0.  1.
         21    1    1    2  502  501  0.32378416539E-05 -0.22049347744E-05  0.29159142611E-04  0.29421097086E-04  0.00000000000E+00 0. -1.
<mgrwt>
<rscale>  1 0.64561509E+03</rscale>
<asrwt>0</asrwt>
<pdfrwt beam="1">  1        1 0.37892712E+00 0.64561509E+03</pdfrwt>
<pdfrwt beam="2">0</pdfrwt>
<totfact> 0.16602895E+00</totfact>
</mgrwt>
</event>
<event>
 6    1  0.5613766E-003  0.6074069E+03  0.7818608E-02  0.9890157E-01
          1   -1    0    0  502    0  0.00000000000E+00  0.00000000000E+00  0.92245331291E+02  0.92245331291E+02  0.00000000000E+00 0.  1.
         13   -1    0    0    0    0 -0.00000000000E+00 -0.00000000000E+00 -0.10000000000E+04  0.10000000000E+04  0.00000000000E+00 0.  1.
    9000005    2    1    2  501    0 -0.40808950300E-03  0.32891270774E-03 -0.90776421896E+03  0.10922357667E+04  0.60740685932E+03 0.  0.
         13    1    3    3    0    0 -0.16945053250E+03  0.14520619988E+03 -0.82431733333E+03  0.85398910384E+03  0.00000000000E+00 0.  1.
          3    1    3    3  501    0  0.16945012441E+03 -0.14520587097E+03 -0.83446885635E+02  0.23824666283E+03  0.00000000000E+00 0.  1.
         21    1    1    2  502  501  0.40808950298E-03 -0.32891270775E-03  0.95502552805E-02  0.95646273599E-02  0.00000000000E+00 0.  1.
<mgrwt>
<rscale>  1 0.60740686E+03</rscale>
<asrwt>0</asrwt>
<pdfrwt beam="1">  1        1 0.33543828E+00 0.60740686E+03</pdfrwt>
<pdfrwt beam="2">0</pdfrwt>
<totfact> 0.25896206E+00</totfact>
</mgrwt>
</event>
<event>
 6    1  0.5613766E-003  0.6461349E+03  0.7818608E-02  0.9814059E-01
          1   -1    0    0  502    0  0.00000000000E+00  0.00000000000E+00  0.10769585009E+03  0.10769585009E+03  0.00000000000E+00 0.  1.
         13   -1    0    0    0    0 -0.00000000000E+00 -0.00000000000E+00 -0.10000000000E+04  0.10000000000E+04  0.00000000000E+00 0.  1.
    9000005    2    1    2  501    0 -0.49723150871E-01 -0.43357710202E-03 -0.89562721798E+03  0.11043724100E+04  0.64613489607E+03 0.  0.
         13    1    3    3    0    0 -0.27528140340E+03 -0.53174692154E+02 -0.72226850353E+03  0.77477686473E+03  0.00000000000E+00 0.  1.
          3    1    3    3  501    0  0.27523168025E+03  0.53174258576E+02 -0.17335871445E+03  0.32959554527E+03  0.00000000000E+00 0.  1.
         21    1    1    2  502  501  0.49723150871E-01  0.43357710202E-03  0.33230680665E+01  0.33234400783E+01  0.00000000000E+00 0.  1.
<mgrwt>
<rscale>  1 0.64613490E+03</rscale>
<asrwt>0</asrwt>
<pdfrwt beam="1">  1        1 0.39162210E+00 0.64613490E+03</pdfrwt>
<pdfrwt beam="2">0</pdfrwt>
<totfact> 0.14587781E+00</totfact>
</mgrwt>
</event>
<event>
 6    1  0.5613766E-003  0.6803003E+03  0.7818608E-02  0.9751527E-01
          1   -1    0    0  502    0  0.00000000000E+00  0.00000000000E+00  0.11570216427E+03  0.11570216427E+03  0.00000000000E+00 0.  1.
         13   -1    0    0    0    0 -0.00000000000E+00 -0.00000000000E+00 -0.10000000000E+04  0.10000000000E+04  0.00000000000E+00 0.  1.
    9000005    2    1    2  501    0  0.23953576829E-05 -0.32783665915E-05 -0.88429788149E+03  0.11157021183E+04  0.68030028196E+03 0.  0.
         13    1    3    3    0    0  0.13057529990E+03 -0.30746908982E+03 -0.33694526567E+03  0.47446734576E+03  0.00000000000E+00 0.  1.
          3    1    3    3  501    0 -0.13057529750E+03  0.30746908654E+03 -0.54735261583E+03  0.64123477257E+03  0.00000000000E+00 0.  1.
         21    1    1    2  502  501 -0.23953576924E-05  0.32783665791E-05  0.45766460391E-04  0.45946211189E-04  0.00000000000E+00 0. -1.
<mgrwt>
<rscale>  1 0.68030028E+03</rscale>
<asrwt>0</asrwt>
<pdfrwt beam="1">  1        1 0.42073603E+00 0.68030028E+03</pdfrwt>
<pdfrwt beam="2">0</pdfrwt>
<totfact> 0.10736992E+00</totfact>
</mgrwt>
</event>
<event>
 6    1  0.5613766E-003  0.6276557E+03  0.7818608E-02  0.9849634E-01
          1   -1    0    0  502    0  0.00000000000E+00  0.00000000000E+00  0.98488935361E+02  0.98488935361E+02  0.00000000000E+00 0.  1.
         13   -1    0    0    0    0 -0.00000000000E+00 -0.00000000000E+00 -0.10000000000E+04  0.10000000000E+04  0.00000000000E+00 0.  1.
    9000005    2    1    2  501    0 -0.70000839344E-04 -0.26254921821E-04 -0.90151208642E+03  0.10984879108E+04  0.62765567655E+03 0.  0.
         13    1    3    3    0    0 -0.29476940523E+03  0.10583655867E+03 -0.41586053933E+03  0.52060576983E+03  0.00000000000E+00 0.  1.
          3    1    3    3  501    0  0.29476933523E+03 -0.10583658493E+03 -0.48565154710E+03  0.57788214101E+03  0.00000000000E+00 0.  1.
         21    1    1    2  502  501  0.70000839324E-04  0.26254921817E-04  0.10217852893E-02  0.10245167719E-02  0.00000000000E+00 0.  1.
<mgrwt>
<rscale>  1 0.62765568E+03</rscale>
<asrwt>0</asrwt>
<pdfrwt beam="1">  1        1 0.35814234E+00 0.62765568E+03</pdfrwt>
<pdfrwt beam="2">0</pdfrwt>
<totfact> 0.20551085E+00</totfact>
</mgrwt>
</event>
<event>
 6    1  0.5613766E-003  0.6329706E+03  0.7818608E-02  0.9839269E-01
          1   -1    0    0  502    0  0.00000000000E+00  0.00000000000E+00  0.10016852213E+03  0.10016852213E+03  0.00000000000E+00 0.  1.
         13   -1    0    0    0    0 -0.00000000000E+00 -0.00000000000E+00 -0.10000000000E+04  0.10000000000E+04  0.00000000000E+00 0.  1.
    9000005    2    1    2  501    0 -0.15180648520E-02 -0.39089886872E-03 -0.89983694334E+03  0.11001628363E+04  0.63297056943E+03 0.  0.
         13    1    3    3    0    0 -0.99670288917E+02 -0.27002110468E+03 -0.67864617106E+03  0.73716089761E+03  0.00000000000E+00 0.  1.
          1    1    3    3  501    0  0.99668770853E+02  0.27002071378E+03 -0.22119077228E+03  0.36300193869E+03  0.00000000000E+00 0.  1.
         21    1    1    2  502  501  0.15180648520E-02  0.39089886873E-03  0.54654678335E-02  0.56858298831E-02  0.00000000000E+00 0. -1.
<mgrwt>
<rscale>  1 0.63297057E+03</rscale>
<asrwt>0</asrwt>
<pdfrwt beam="1">  1        1 0.36424994E+00 0.63297057E+03</pdfrwt>
<pdfrwt beam="2">0</pdfrwt>
<totfact> 0.19306054E+00</totfact>
</mgrwt>
</event>
<event>
 6    1  0.5613766E-003  0.6756348E+03  0.7818608E-02  0.9759832E-01
          1   -1    0    0  502    0  0.00000000000E+00  0.00000000000E+00  0.11412430877E+03  0.11412430877E+03  0.00000000000E+00 0.  1.
         13   -1    0    0    0    0 -0.00000000000E+00 -0.00000000000E+00 -0.10000000000E+04  0.10000000000E+04  0.00000000000E+00 0.  1.
    9000005    2    1    2  501    0  0.25550238360E-03 -0.38855666406E-03 -0.88587939992E+03  0.11141205710E+04  0.67563476496E+03 0.  0.
         13    1    3    3    0    0 -0.17058311944E+03  0.26467090867E+03 -0.64470530301E+03  0.71749161546E+03  0.00000000000E+00 0.  1.
          3    1    3    3  501    0  0.17058337494E+03 -0.26467129723E+03 -0.24117409691E+03  0.39662895558E+03  0.00000000000E+00 0.  1.
         21    1    1    2  502  501 -0.25550238361E-03  0.38855666406E-03  0.37086902888E-02  0.37377321209E-02  0.00000000000E+00 0.  1.
<mgrwt>
<rscale>  1 0.67563476E+03</rscale>
<asrwt>0</asrwt>
<pdfrwt beam="1">  1        1 0.41499836E+00 0.67563476E+03</pdfrwt>
<pdfrwt beam="2">0</pdfrwt>
<totfact> 0.11406041E+00</totfact>
</mgrwt>
</event>
<event>
 6    1  0.5613766E-003  0.6371714E+03  0.7818608E-02  0.9831153E-01
          1   -1    0    0  502    0  0.00000000000E+00  0.00000000000E+00  0.10149720221E+03  0.10149720221E+03  0.00000000000E+00 0.  1.
         13   -1    0    0    0    0 -0.00000000000E+00 -0.00000000000E+00 -0.10000000000E+04  0.10000000000E+04  0.00000000000E+00 0.  1.
    9000005    2    1    2  501    0  0.70780317344E-04  0.81652977553E-03 -0.89850251373E+03  0.11014963348E+04  0.63717141209E+03 0.  0.
         13    1    3    3    0    0 -0.25045363533E+03  0.19670661257E+03 -0.46436980555E+03  0.56308066135E+03  0.00000000000E+00 0.  1.
          1    1    3    3  501    0  0.25045370611E+03 -0.19670579604E+03 -0.43413270818E+03  0.53841567345E+03  0.00000000000E+00 0.  1.
         21    1    1    2  502  501 -0.70780317335E-04 -0.81652977553E-03 -0.28405281193E-03  0.86741957992E-03  0.00000000000E+00 0. -1.
<mgrwt>
<rscale>  1 0.63717141E+03</rscale>
<asrwt>0</asrwt>
<pdfrwt beam="1">  1        1 0.36908151E+00 0.63717141E+03</pdfrwt>
<pdfrwt beam="2">0</pdfrwt>
<totfact> 0.18372719E+00</totfact>
</mgrwt>
</event>
<event>
 6    1  0.5613766E-003  0.6459813E+03  0.7818608E-02  0.9814349E-01
          1   -1    0    0  502    0  0.00000000000E+00  0.00000000000E+00  0.10644821710E+03  0.10644821710E+03  0.00000000000E+00 0.  1.
         13   -1    0    0    0    0 -0.00000000000E+00 -0.00000000000E+00 -0.10000000000E+04  0.10000000000E+04  0.00000000000E+00 0.  1.
    9000005    2    1    2  501    0 -0.45652497313E+00 -0.65853375013E-01 -0.89564938172E+03  0.11043005038E+04  0.64598109484E+03 0.  0.
         13    1    3    3    0    0  0.11839882138E+03 -0.27289237628E+03 -0.66261495188E+03  0.72632437959E+03  0.00000000000E+00 0.  1.
          1    1    3    3  501    0 -0.11885534635E+03  0.27282652290E+03 -0.23303442984E+03  0.37797612418E+03  0.00000000000E+00 0.  1.
         21    1    1    2  502  501  0.45652497313E+00  0.65853375013E-01  0.20975988215E+01  0.21477133268E+01  0.00000000000E+00 0. -1.
<mgrwt>
<rscale>  1 0.64598126E+03</rscale>
<asrwt>0</asrwt>
<pdfrwt beam="1">  1        1 0.38708524E+00 0.64598126E+03</pdfrwt>
<pdfrwt beam="2">0</pdfrwt>
<totfact> 0.15279492E+00</totfact>
</mgrwt>
</event>
<event>
 6    1  0.5613766E-003  0.6461933E+03  0.7818608E-02  0.9813948E-01
          1   -1    0    0  502    0  0.00000000000E+00  0.00000000000E+00  0.10439399503E+03  0.10439399503E+03  0.00000000000E+00 0.  1.
         13   -1    0    0    0    0 -0.00000000000E+00 -0.00000000000E+00 -0.10000000000E+04  0.10000000000E+04  0.00000000000E+00 0.  1.
    9000005    2    1    2  501    0  0.70091261762E-04 -0.63258444158E-04 -0.89560853791E+03  0.11043914603E+04  0.64619334913E+03 0.  0.
         13    1    3    3    0    0 -0.29433985313E+03  0.12857985089E+03 -0.50756569866E+03  0.60065935909E+03  0.00000000000E+00 0.  1.
          3    1    3    3  501    0  0.29433992323E+03 -0.12857991415E+03 -0.38804283925E+03  0.50373210124E+03  0.00000000000E+00 0.  1.
         21    1    1    2  502  501 -0.70091261757E-04  0.63258444161E-04  0.25329443275E-02  0.25347034110E-02  0.00000000000E+00 0. -1.
<mgrwt>
<rscale>  1 0.64619335E+03</rscale>
<asrwt>0</asrwt>
<pdfrwt beam="1">  1        1 0.37961533E+00 0.64619335E+03</pdfrwt>
<pdfrwt beam="2">0</pdfrwt>
<totfact> 0.16485504E+00</totfact>
</mgrwt>
</event>
<event>
 6    1  0.5613766E-003  0.6490947E+03  0.7818608E-02  0.9808479E-01
          1   -1    0    0  502    0  0.00000000000E+00  0.00000000000E+00  0.10534935291E+03  0.10534935291E+03  0.00000000000E+00 0.  1.
         13   -1    0    0    0    0 -0.00000000000E+00 -0.00000000000E+00 -0.10000000000E+04  0.10000000000E+04  0.00000000000E+00 0.  1.
    9000005    2    1    2  501    0  0.22440955224E-03  0.26475827684E-02 -0.89466892329E+03  0.11053308846E+04  0.64909466341E+03 0.  0.
         13    1    3    3    0    0  0.17947635748E+02  0.14127463985E+02  0.10396063044E+03  0.10644019706E+03  0.00000000000E+00 0.  1.
          3    1    3    3  501    0 -0.17947411339E+02 -0.14124816402E+02 -0.99862955373E+03  0.99889068751E+03  0.00000000000E+00 0.  1.
         21    1    1    2  502  501 -0.22440955224E-03 -0.26475827684E-02  0.18276201413E-01  0.18468340268E-01  0.00000000000E+00 0.  1.
<mgrwt>
<rscale>  1 0.64909466E+03</rscale>
<asrwt>0</asrwt>
<pdfrwt beam="1">  1        1 0.38308936E+00 0.64909466E+03</pdfrwt>
<pdfrwt beam="2">0</pdfrwt>
<totfact> 0.15904933E+00</totfact>
</mgrwt>
</event>
<event>
 6    1  0.5613766E-003  0.7113660E+03  0.7818608E-02  0.9697990E-01
          1   -1    0    0  502    0  0.00000000000E+00  0.00000000000E+00  0.13680208769E+03  0.13680208769E+03  0.00000000000E+00 0.  1.
         13   -1    0    0    0    0 -0.00000000000E+00 -0.00000000000E+00 -0.10000000000E+04  0.10000000000E+04  0.00000000000E+00 0.  1.
    9000005    2    1    2  501    0 -0.26407670970E+00  0.28769771987E-01 -0.87348767778E+03  0.11265088939E+04  0.71136593560E+03 0.  0.
         13    1    3    3    0    0 -0.67174207581E+02 -0.34273620979E+03 -0.33008257073E+03  0.48055695518E+03  0.00000000000E+00 0.  1.
          1    1    3    3  501    0  0.66910130871E+02  0.34276497956E+03 -0.54340510704E+03  0.64595193876E+03  0.00000000000E+00 0.  1.
         21    1    1    2  502  501  0.26407670970E+00 -0.28769771987E-01  0.10289765468E+02  0.10293193751E+02  0.00000000000E+00 0. -1.
<mgrwt>
<rscale>  1 0.71136599E+03</rscale>
<asrwt>0</asrwt>
<pdfrwt beam="1">  1        1 0.49746319E+00 0.71136599E+03</pdfrwt>
<pdfrwt beam="2">0</pdfrwt>
<totfact> 0.46922155E-01</totfact>
</mgrwt>
</event>
<event>
 6    1  0.5613766E-003  0.6522747E+03  0.7818608E-02  0.9802520E-01
          1   -1    0    0  502    0  0.00000000000E+00  0.00000000000E+00  0.10636602014E+03  0.10636602014E+03  0.00000000000E+00 0.  1.
         13   -1    0    0    0    0 -0.00000000000E+00 -0.00000000000E+00 -0.10000000000E+04  0.10000000000E+04  0.00000000000E+00 0.  1.
    9000005    2    1    2  501    0  0.91025961524E-06 -0.10807864427E-04 -0.89363443813E+03  0.11063655617E+04  0.65227467158E+03 0.  0.
         13    1    3    3    0    0 -0.18990606614E+03 -0.10827115730E+03 -0.85734036664E+03  0.88477085266E+03  0.00000000000E+00 0.  1.
          3    1    3    3  501    0  0.18990606705E+03  0.10827114649E+03 -0.36294071494E+02  0.22159470908E+03  0.00000000000E+00 0.  1.
         21    1    1    2  502  501 -0.91025961947E-06  0.10807864426E-04  0.45827339708E-03  0.45840172881E-03  0.00000000000E+00 0. -1.
<mgrwt>
<rscale>  1 0.65227467E+03</rscale>
<asrwt>0</asrwt>
<pdfrwt beam="1">  1        1 0.38678634E+00 0.65227467E+03</pdfrwt>
<pdfrwt beam="2">0</pdfrwt>
<totfact> 0.15308219E+00</totfact>
</mgrwt>
</event>
<event>
 6    1  0.5613766E-003  0.6254853E+03  0.7818608E-02  0.9853899E-01
          1   -1    0    0  502    0  0.00000000000E+00  0.00000000000E+00  0.97819058931E+02  0.97819058931E+02  0.00000000000E+00 0.  1.
         13   -1    0    0    0    0 -0.00000000000E+00 -0.00000000000E+00 -0.10000000000E+04  0.10000000000E+04  0.00000000000E+00 0.  1.
    9000005    2    1    2  501    0  0.13253343445E-02  0.14324177225E-02 -0.90219194075E+03  0.10978078875E+04  0.62548529946E+03 0.  0.
         13    1    3    3    0    0  0.73337043631E+02 -0.23003808647E+03 -0.79997307690E+03  0.83561520269E+03  0.00000000000E+00 0.  1.
          1    1    3    3  501    0 -0.73335718297E+02  0.23003951889E+03 -0.10221886385E+03  0.26219268479E+03  0.00000000000E+00 0.  1.
         21    1    1    2  502  501 -0.13253343445E-02 -0.14324177225E-02  0.10999686042E-01  0.11171455799E-01  0.00000000000E+00 0.  1.
<mgrwt>
<rscale>  1 0.62548530E+03</rscale>
<asrwt>0</asrwt>
<pdfrwt beam="1">  1        1 0.35570642E+00 0.62548530E+03</pdfrwt>
<pdfrwt beam="2">0</pdfrwt>
<totfact> 0.21069063E+00</totfact>
</mgrwt>
</event>
<event>
 6    1  0.5613766E-003  0.6474255E+03  0.7818608E-02  0.9811622E-01
          1   -1    0    0  502    0  0.00000000000E+00  0.00000000000E+00  0.10478996662E+03  0.10478996662E+03  0.00000000000E+00 0.  1.
         13   -1    0    0    0    0 -0.00000000000E+00 -0.00000000000E+00 -0.10000000000E+04  0.10000000000E+04  0.00000000000E+00 0.  1.
    9000005    2    1    2  501    0  0.27117288539E-05  0.97897281819E-05 -0.89521006706E+03  0.11047899314E+04  0.64742546168E+03 0.  0.
         13    1    3    3    0    0 -0.15319245489E+03  0.10086387508E+03 -0.90277411773E+03  0.92121797484E+03  0.00000000000E+00 0.  1.
          3    1    3    3  501    0  0.15319245760E+03 -0.10086386529E+03  0.75640506616E+01  0.18357195660E+03  0.00000000000E+00 0.  1.
         21    1    1    2  502  501 -0.27117288619E-05 -0.97897281802E-05  0.33684981626E-04  0.35183380144E-04  0.00000000000E+00 0.  1.
<mgrwt>
<rscale>  1 0.64742546E+03</rscale>
<asrwt>0</asrwt>
<pdfrwt beam="1">  1        1 0.38105523E+00 0.64742546E+03</pdfrwt>
<pdfrwt beam="2">0</pdfrwt>
<totfact> 0.16242378E+00</totfact>
</mgrwt>
</event>
