<event>
 6    1  0.1766489E-002  0.6485869E+03  0.7818608E-02  0.9809434E-01
          1   -1    0    0  502    0  0.00000000000E+00  0.00000000000E+00  0.10516626986E+03  0.10516626986E+03  0.00000000000E+00 0.  1.
         13   -1    0    0    0    0 -0.00000000000E+00 -0.00000000000E+00 -0.10000000000E+04  0.10000000000E+04  0.00000000000E+00 0.  1.
    9000005    2    1    2  501    0 -0.13628924322E-04 -0.49388790785E-04 -0.89483363199E+03  0.11051661591E+04  0.64858693355E+03 0.  0.
         13    1    3    3    0    0 -0.70768310999E+02  0.29708343409E+03 -0.26154046400E+03  0.40208224900E+03  0.00000000000E+00 0.  1.
          3    1    3    3  501    0  0.70768297371E+02 -0.29708348348E+03 -0.63329316800E+03  0.70308391014E+03  0.00000000000E+00 0.  1.
         21    1    1    2  502  501  0.13628924329E-04  0.49388790779E-04 -0.98148737958E-04  0.11071664281E-03  0.00000000000E+00 0.  1.
<mgrwt>
<rscale>  1 0.64858693E+03</rscale>
<asrwt>0</asrwt>
<pdfrwt beam="1">  1        1 0.38242361E+00 0.64858693E+03</pdfrwt>
<pdfrwt beam="2">0</pdfrwt>
<totfact> 0.16014522E+00</totfact>
</mgrwt>
</event>
<event>
 6    1  0.1766489E-002  0.6609878E+03  0.7818608E-02  0.9786377E-01
          1   -1    0    0  502    0  0.00000000000E+00  0.00000000000E+00  0.11008790992E+03  0.11008790992E+03  0.00000000000E+00 0.  1.
         13   -1    0    0    0    0 -0.00000000000E+00 -0.00000000000E+00 -0.10000000000E+04  0.10000000000E+04  0.00000000000E+00 0.  1.
    9000005    2    1    2  501    0 -0.20040543949E+01  0.41532074708E+00 -0.88910807608E+03  0.11078890093E+04  0.66098464226E+03 0.  0.
         13    1    3    3    0    0  0.17173563044E+03 -0.19203415912E+03 -0.78894308522E+03  0.82994062242E+03  0.00000000000E+00 0.  1.
          3    1    3    3  501    0 -0.17373968483E+03  0.19244947987E+03 -0.10016499086E+03  0.27794838690E+03  0.00000000000E+00 0.  1.
         21    1    1    2  502  501  0.20040543949E+01 -0.41532074708E+00 -0.80401399721E+00  0.21989005999E+01  0.00000000000E+00 0.  1.
<mgrwt>
<rscale>  1 0.66098781E+03</rscale>
<asrwt>0</asrwt>
<pdfrwt beam="1">  1        1 0.40032052E+00 0.66098781E+03</pdfrwt>
<pdfrwt beam="2">0</pdfrwt>
<totfact> 0.13307119E+00</totfact>
</mgrwt>
</event>
<event>
 6    1  0.1766489E-002  0.6282954E+03  0.7818608E-02  0.9848381E-01
          1   -1    0    0  502    0  0.00000000000E+00  0.00000000000E+00  0.10384471114E+03  0.10384471114E+03  0.00000000000E+00 0.  1.
         13   -1    0    0    0    0 -0.00000000000E+00 -0.00000000000E+00 -0.10000000000E+04  0.10000000000E+04  0.00000000000E+00 0.  1.
    9000005    2    1    2  501    0 -0.16020828283E+00 -0.14602481972E+00 -0.90130870640E+03  0.10986867365E+04  0.62829540327E+03 0.  0.
         13    1    3    3    0    0 -0.29718548570E+03 -0.91433853017E+02 -0.53036080221E+03  0.61478609525E+03  0.00000000000E+00 0.  1.
          1    1    3    3  501    0  0.29702527741E+03  0.91287828197E+02 -0.37094790419E+03  0.48390064127E+03  0.00000000000E+00 0.  1.
         21    1    1    2  502  501  0.16020828283E+00  0.14602481972E+00  0.51534175385E+01  0.51579746285E+01  0.00000000000E+00 0.  1.
<mgrwt>
<rscale>  1 0.62829544E+03</rscale>
<asrwt>0</asrwt>
<pdfrwt beam="1">  1        1 0.37761793E+00 0.62829544E+03</pdfrwt>
<pdfrwt beam="2">0</pdfrwt>
<totfact> 0.16879099E+00</totfact>
</mgrwt>
</event>
<event>
 6    1  0.1766489E-002  0.6430444E+03  0.7818608E-02  0.9819919E-01
          1   -1    0    0  502    0  0.00000000000E+00  0.00000000000E+00  0.10340837317E+03  0.10340837317E+03  0.00000000000E+00 0.  1.
         13   -1    0    0    0    0 -0.00000000000E+00 -0.00000000000E+00 -0.10000000000E+04  0.10000000000E+04  0.00000000000E+00 0.  1.
    9000005    2    1    2  501    0 -0.42800847351E-02 -0.11402701201E-02 -0.89662331570E+03  0.11033763762E+04  0.64304436657E+03 0.  0.
         13    1    3    3    0    0  0.20651427959E+03 -0.32692964831E+02 -0.29207950630E+02  0.21111627603E+03  0.00000000000E+00 0.  1.
          3    1    3    3  501    0 -0.20651855967E+03  0.32691824561E+02 -0.86741536506E+03  0.89226010021E+03  0.00000000000E+00 0.  1.
         21    1    1    2  502  501  0.42800847351E-02  0.11402701201E-02  0.31688861516E-01  0.31996926188E-01  0.00000000000E+00 0. -1.
<mgrwt>
<rscale>  1 0.64304437E+03</rscale>
<asrwt>0</asrwt>
<pdfrwt beam="1">  1        1 0.37603124E+00 0.64304437E+03</pdfrwt>
<pdfrwt beam="2">0</pdfrwt>
<totfact> 0.17106076E+00</totfact>
</mgrwt>
</event>
<event>
 6    1  0.1766489E-002  0.5051792E+03  0.7818608E-02  0.1012436E+00
          1   -1    0    0  502    0  0.00000000000E+00  0.00000000000E+00  0.63823909604E+02  0.63823909604E+02  0.00000000000E+00 0.  1.
         13   -1    0    0    0    0 -0.00000000000E+00 -0.00000000000E+00 -0.10000000000E+04  0.10000000000E+04  0.00000000000E+00 0.  1.
    9000005    2    1    2  501    0 -0.47127473965E-01  0.26927748212E-01 -0.93615946403E+03  0.10637671422E+04  0.50517916404E+03 0.  0.
         13    1    3    3    0    0  0.22593525895E+03  0.47641102862E+02 -0.68356806035E+03  0.72151348501E+03  0.00000000000E+00 0.  1.
          1    1    3    3  501    0 -0.22598238642E+03 -0.47614175114E+02 -0.25259140368E+03  0.34225365719E+03  0.00000000000E+00 0.  1.
         21    1    1    2  502  501  0.47127473965E-01 -0.26927748212E-01 -0.16626366758E-01  0.56767407002E-01  0.00000000000E+00 0.  1.
<mgrwt>
<rscale>  1 0.50517917E+03</rscale>
<asrwt>0</asrwt>
<pdfrwt beam="1">  1        1 0.23208743E+00 0.50517917E+03</pdfrwt>
<pdfrwt beam="2">0</pdfrwt>
<totfact> 0.73894105E+00</totfact>
</mgrwt>
</event>
<event>
 6    1  0.1766489E-002  0.6394782E+03  0.7818608E-02  0.9826725E-01
          3   -1    0    0  502    0  0.00000000000E+00  0.00000000000E+00  0.10223320132E+03  0.10223320132E+03  0.00000000000E+00 0.  1.
         13   -1    0    0    0    0 -0.00000000000E+00 -0.00000000000E+00 -0.10000000000E+04  0.10000000000E+04  0.00000000000E+00 0.  1.
    9000005    2    1    2  501    0 -0.83613096109E-05  0.17525964608E-05 -0.89776691437E+03  0.11022330853E+04  0.63947817931E+03 0.  0.
         13    1    3    3    0    0 -0.11432228996E+03  0.29719210957E+03 -0.39891706008E+03  0.51041900121E+03  0.00000000000E+00 0.  1.
          1    1    3    3  501    0  0.11432228160E+03 -0.29719210781E+03 -0.49884985429E+03  0.59181408410E+03  0.00000000000E+00 0.  1.
         21    1    1    2  502  501  0.83613096201E-05 -0.17525964716E-05  0.11569510309E-03  0.11601008565E-03  0.00000000000E+00 0.  1.
<mgrwt>
<rscale>  1 0.63947818E+03</rscale>
<asrwt>0</asrwt>
<pdfrwt beam="1">  1        3 0.37175788E+00 0.63947818E+03</pdfrwt>
<pdfrwt beam="2">0</pdfrwt>
<totfact> 0.83592802E-02</totfact>
</mgrwt>
</event>
<event>
 6    1  0.1766489E-002  0.6543061E+03  0.7818608E-02  0.9798732E-01
          3   -1    0    0  502    0  0.00000000000E+00  0.00000000000E+00  0.10705936410E+03  0.10705936410E+03  0.00000000000E+00 0.  1.
         13   -1    0    0    0    0 -0.00000000000E+00 -0.00000000000E+00 -0.10000000000E+04  0.10000000000E+04  0.00000000000E+00 0.  1.
    9000005    2    1    2  501    0  0.18058945872E-01  0.29154772654E-01 -0.89295972057E+03  0.11070201168E+04  0.65430610211E+03 0.  0.
         13    1    3    3    0    0  0.53673301851E+01  0.75896888201E+02 -0.98482325744E+03  0.98775806464E+03  0.00000000000E+00 0.  1.
          1    1    3    3  501    0 -0.53492712393E+01 -0.75867733428E+02  0.91863536869E+02  0.11926205216E+03  0.00000000000E+00 0.  1.
         21    1    1    2  502  501 -0.18058945872E-01 -0.29154772654E-01  0.19084664145E-01  0.39247301819E-01  0.00000000000E+00 0.  1.
<mgrwt>
<rscale>  1 0.65430610E+03</rscale>
<asrwt>0</asrwt>
<pdfrwt beam="1">  1        3 0.38930760E+00 0.65430610E+03</pdfrwt>
<pdfrwt beam="2">0</pdfrwt>
<totfact> 0.67365522E-02</totfact>
</mgrwt>
</event>
<event>
 6    1  0.1766489E-002  0.6502448E+03  0.7818608E-02  0.9806320E-01
          1   -1    0    0  502    0  0.00000000000E+00  0.00000000000E+00  0.10582263238E+03  0.10582263238E+03  0.00000000000E+00 0.  1.
         13   -1    0    0    0    0 -0.00000000000E+00 -0.00000000000E+00 -0.10000000000E+04  0.10000000000E+04  0.00000000000E+00 0.  1.
    9000005    2    1    2  501    0 -0.27979464403E-02  0.17718792002E-02 -0.89429539244E+03  0.11057045611E+04  0.65024482121E+03 0.  0.
         13    1    3    3    0    0 -0.20507819598E+03  0.82943430316E+02 -0.41998718888E+02  0.22516787401E+03  0.00000000000E+00 0.  1.
          1    1    3    3  501    0  0.20507539803E+03 -0.82941658437E+02 -0.85229667355E+03  0.88053668710E+03  0.00000000000E+00 0.  1.
         21    1    1    2  502  501  0.27979464403E-02 -0.17718792002E-02  0.11802481293E+00  0.11807126884E+00  0.00000000000E+00 0.  1.
<mgrwt>
<rscale>  1 0.65024482E+03</rscale>
<asrwt>0</asrwt>
<pdfrwt beam="1">  1        1 0.38481038E+00 0.65024482E+03</pdfrwt>
<pdfrwt beam="2">0</pdfrwt>
<totfact> 0.15625405E+00</totfact>
</mgrwt>
</event>
<event>
 6    1  0.1766489E-002  0.6343760E+03  0.7818608E-02  0.9836546E-01
          3   -1    0    0  502    0  0.00000000000E+00  0.00000000000E+00  0.10169359774E+03  0.10169359774E+03  0.00000000000E+00 0.  1.
         13   -1    0    0    0    0 -0.00000000000E+00 -0.00000000000E+00 -0.10000000000E+04  0.10000000000E+04  0.00000000000E+00 0.  1.
    9000005    2    1    2  501    0  0.56632668524E+00 -0.27169135205E+00 -0.89929089743E+03  0.11005257909E+04  0.63437568024E+03 0.  0.
         13    1    3    3    0    0  0.20599717263E+03  0.21969738069E+03 -0.62293473162E+03  0.69191723065E+03  0.00000000000E+00 0.  1.
          1    1    3    3  501    0 -0.20543084594E+03 -0.21996907204E+03 -0.27635616581E+03  0.40860856024E+03  0.00000000000E+00 0.  1.
         21    1    1    2  502  501 -0.56632668524E+00  0.27169135205E+00  0.98449517055E+00  0.11678068530E+01  0.00000000000E+00 0. -1.
<mgrwt>
<rscale>  1 0.63437599E+03</rscale>
<asrwt>0</asrwt>
<pdfrwt beam="1">  1        3 0.36979568E+00 0.63437599E+03</pdfrwt>
<pdfrwt beam="2">0</pdfrwt>
<totfact> 0.85688672E-02</totfact>
</mgrwt>
</event>
<event>
 6    1  0.1766489E-002  0.6513702E+03  0.7818608E-02  0.9804212E-01
          1   -1    0    0  502    0  0.00000000000E+00  0.00000000000E+00  0.10608019137E+03  0.10608019137E+03  0.00000000000E+00 0.  1.
         13   -1    0    0    0    0 -0.00000000000E+00 -0.00000000000E+00 -0.10000000000E+04  0.10000000000E+04  0.00000000000E+00 0.  1.
    9000005    2    1    2  501    0  0.74861640030E-04  0.87713692069E-02 -0.89392690180E+03  0.11060689106E+04  0.65137019364E+03 0.  0.
         13    1    3    3    0    0 -0.27818807751E+03 -0.77437731559E+00 -0.15938543083E+03  0.32061335233E+03  0.00000000000E+00 0.  1.
          3    1    3    3  501    0  0.27818815238E+03  0.78314868479E+00 -0.73454147097E+03  0.78545555827E+03  0.00000000000E+00 0.  1.
         21    1    1    2  502  501 -0.74861640001E-04 -0.87713692069E-02  0.70931707996E-02  0.11280762121E-01  0.00000000000E+00 0.  1.
<mgrwt>
<rscale>  1 0.65137019E+03</rscale>
<asrwt>0</asrwt>
<pdfrwt beam="1">  1        1 0.38574696E+00 0.65137019E+03</pdfrwt>
<pdfrwt beam="2">0</pdfrwt>
<totfact> 0.15473826E+00</totfact>
</mgrwt>
</event>
<event>
 6    1  0.1766489E-002  0.5616909E+03  0.7818608E-02  0.9988236E-01
          1   -1    0    0  502    0  0.00000000000E+00  0.00000000000E+00  0.78876448613E+02  0.78876448613E+02  0.00000000000E+00 0.  1.
         13   -1    0    0    0    0 -0.00000000000E+00 -0.00000000000E+00 -0.10000000000E+04  0.10000000000E+04  0.00000000000E+00 0.  1.
    9000005    2    1    2  501    0  0.40807284938E-03 -0.23596851642E-03 -0.92112580113E+03  0.10788741500E+04  0.56169092041E+03 0.  0.
         13    1    3    3    0    0  0.26401299841E+03 -0.86861589734E+02 -0.53802740326E+03  0.60557516937E+03  0.00000000000E+00 0.  1.
          1    1    3    3  501    0 -0.26401259033E+03  0.86861353765E+02 -0.38309839787E+03  0.47329898065E+03  0.00000000000E+00 0.  1.
         21    1    1    2  502  501 -0.40807284935E-03  0.23596851643E-03  0.22497423234E-02  0.22985963353E-02  0.00000000000E+00 0. -1.
<mgrwt>
<rscale>  1 0.56169092E+03</rscale>
<asrwt>0</asrwt>
<pdfrwt beam="1">  1        1 0.28682405E+00 0.56169092E+03</pdfrwt>
<pdfrwt beam="2">0</pdfrwt>
<totfact> 0.42342562E+00</totfact>
</mgrwt>
</event>
<event>
 6    1  0.1766489E-002  0.6067889E+03  0.7818608E-02  0.9891420E-01
          1   -1    0    0  502    0  0.00000000000E+00  0.00000000000E+00  0.93530030146E+02  0.93530030146E+02  0.00000000000E+00 0.  1.
         13   -1    0    0    0    0 -0.00000000000E+00 -0.00000000000E+00 -0.10000000000E+04  0.10000000000E+04  0.00000000000E+00 0.  1.
    9000005    2    1    2  501    0 -0.74123080600E+00 -0.51894767333E+00 -0.90779963369E+03  0.10919216969E+04  0.60678826504E+03 0.  0.
         13    1    3    3    0    0  0.21448013277E+03 -0.20962637622E+03 -0.53530415058E+03  0.61359227389E+03  0.00000000000E+00 0.  1.
          3    1    3    3  501    0 -0.21522136358E+03  0.20910742854E+03 -0.37249548311E+03  0.47832942304E+03  0.00000000000E+00 0.  1.
         21    1    1    2  502  501  0.74123080600E+00  0.51894767333E+00  0.13296638330E+01  0.16083332068E+01  0.00000000000E+00 0.  1.
<mgrwt>
<rscale>  1 0.60678894E+03</rscale>
<asrwt>0</asrwt>
<pdfrwt beam="1">  1        1 0.34010992E+00 0.60678894E+03</pdfrwt>
<pdfrwt beam="2">0</pdfrwt>
<totfact> 0.24717647E+00</totfact>
</mgrwt>
</event>
<event>
 6    1  0.1766489E-002  0.6442656E+03  0.7818608E-02  0.9817599E-01
          1   -1    0    0  502    0  0.00000000000E+00  0.00000000000E+00  0.10422012087E+03  0.10422012087E+03  0.00000000000E+00 0.  1.
         13   -1    0    0    0    0 -0.00000000000E+00 -0.00000000000E+00 -0.10000000000E+04  0.10000000000E+04  0.00000000000E+00 0.  1.
    9000005    2    1    2  501    0 -0.14246247752E-02  0.59421650390E-02 -0.89623043668E+03  0.11037695219E+04  0.64426559878E+03 0.  0.
         13    1    3    3    0    0  0.23375940097E+03 -0.20923295644E+03 -0.57337718919E+03  0.65359260146E+03  0.00000000000E+00 0.  1.
          3    1    3    3  501    0 -0.23376082559E+03  0.20923889860E+03 -0.32285324749E+03  0.45017692042E+03  0.00000000000E+00 0.  1.
         21    1    1    2  502  501  0.14246247752E-02 -0.59421650390E-02  0.45055754719E+00  0.45059898159E+00  0.00000000000E+00 0. -1.
<mgrwt>
<rscale>  1 0.64426560E+03</rscale>
<asrwt>0</asrwt>
<pdfrwt beam="1">  1        1 0.37898306E+00 0.64426560E+03</pdfrwt>
<pdfrwt beam="2">0</pdfrwt>
<totfact> 0.16597583E+00</totfact>
</mgrwt>
</event>
<event>
 6    1  0.1766489E-002  0.6332143E+03  0.7818608E-02  0.9838796E-01
          1   -1    0    0  502    0  0.00000000000E+00  0.00000000000E+00  0.10026851064E+03  0.10026851064E+03  0.00000000000E+00 0.  1.
         13   -1    0    0    0    0 -0.00000000000E+00 -0.00000000000E+00 -0.10000000000E+04  0.10000000000E+04  0.00000000000E+00 0.  1.
    9000005    2    1    2  501    0 -0.18786860435E-02  0.54299845465E-03 -0.89975988124E+03  0.11002400515E+04  0.63321428207E+03 0.  0.
         13    1    3    3    0    0 -0.25581650646E+03  0.14670210281E+03 -0.24967037756E+03  0.38639214456E+03  0.00000000000E+00 0.  1.
          3    1    3    3  501    0  0.25581462777E+03 -0.14670155982E+03 -0.65008950368E+03  0.71384790693E+03  0.00000000000E+00 0.  1.
         21    1    1    2  502  501  0.18786860435E-02 -0.54299845465E-03  0.28391882044E-01  0.28459150981E-01  0.00000000000E+00 0. -1.
<mgrwt>
<rscale>  1 0.63321428E+03</rscale>
<asrwt>0</asrwt>
<pdfrwt beam="1">  1        1 0.36461353E+00 0.63321428E+03</pdfrwt>
<pdfrwt beam="2">0</pdfrwt>
<totfact> 0.19234518E+00</totfact>
</mgrwt>
</event>
<event>
 6    1  0.1766489E-002  0.6530446E+03  0.7818608E-02  0.9801083E-01
          1   -1    0    0  502    0  0.00000000000E+00  0.00000000000E+00  0.10663184738E+03  0.10663184738E+03  0.00000000000E+00 0.  1.
         13   -1    0    0    0    0 -0.00000000000E+00 -0.00000000000E+00 -0.10000000000E+04  0.10000000000E+04  0.00000000000E+00 0.  1.
    9000005    2    1    2  501    0 -0.77924226942E-02 -0.13857618662E-02 -0.89338202518E+03  0.11066158758E+04  0.65304460314E+03 0.  0.
         13    1    3    3    0    0  0.56401618361E+02 -0.25620216144E+03 -0.77613149233E+03  0.81926844408E+03  0.00000000000E+00 0.  1.
          3    1    3    3  501    0 -0.56409410783E+02  0.25620077568E+03 -0.11725053285E+03  0.28734743176E+03  0.00000000000E+00 0.  1.
         21    1    1    2  502  501  0.77924226942E-02  0.13857618662E-02  0.13872555592E-01  0.15971536746E-01  0.00000000000E+00 0. -1.
<mgrwt>
<rscale>  1 0.65304460E+03</rscale>
<asrwt>0</asrwt>
<pdfrwt beam="1">  1        1 0.38775299E+00 0.65304460E+03</pdfrwt>
<pdfrwt beam="2">0</pdfrwt>
<totfact> 0.15155913E+00</totfact>
</mgrwt>
</event>
<event>
 6    1  0.1766489E-002  0.6673979E+03  0.7818608E-02  0.9774670E-01
          1   -1    0    0  502    0  0.00000000000E+00  0.00000000000E+00  0.11135510583E+03  0.11135510583E+03  0.00000000000E+00 0.  1.
         13   -1    0    0    0    0 -0.00000000000E+00 -0.00000000000E+00 -0.10000000000E+04  0.10000000000E+04  0.00000000000E+00 0.  1.
    9000005    2    1    2  501    0  0.41117810667E-05  0.10448995909E-05 -0.88864502307E+03  0.11113549769E+04  0.66739786303E+03 0.  0.
         13    1    3    3    0    0 -0.12560303194E+03 -0.28192495094E+03 -0.65559494592E+03  0.72461198769E+03  0.00000000000E+00 0.  1.
          3    1    3    3  501    0  0.12560303605E+03  0.28192495198E+03 -0.23305007715E+03  0.38674298917E+03  0.00000000000E+00 0.  1.
         21    1    1    2  502  501 -0.41117810696E-05 -0.10448996323E-05  0.12889295304E-03  0.12896275393E-03  0.00000000000E+00 0. -1.
<mgrwt>
<rscale>  1 0.66739786E+03</rscale>
<asrwt>0</asrwt>
<pdfrwt beam="1">  1        1 0.40492851E+00 0.66739786E+03</pdfrwt>
<pdfrwt beam="2">0</pdfrwt>
<totfact> 0.12676003E+00</totfact>
</mgrwt>
</event>
<event>
 6    1  0.1766490E-002  0.5918424E+03  0.7818608E-02  0.9922476E-01
          1   -1    0    0  502    0  0.00000000000E+00  0.00000000000E+00  0.87569362040E+02  0.87569362040E+02  0.00000000000E+00 0.  1.
         13   -1    0    0    0    0 -0.00000000000E+00 -0.00000000000E+00 -0.10000000000E+04  0.10000000000E+04  0.00000000000E+00 0.  1.
    9000005    2    1    2  501    0  0.25555403340E-05  0.64803303985E-05 -0.91243063935E+03  0.10875693549E+04  0.59184240315E+03 0.  0.
         13    1    3    3    0    0  0.12551234979E+03 -0.25070698419E+03 -0.63017703997E+03  0.68973215350E+03  0.00000000000E+00 0.  1.
          1    1    3    3  501    0 -0.12551234724E+03  0.25070699067E+03 -0.28225359938E+03  0.39783720143E+03  0.00000000000E+00 0.  1.
         21    1    1    2  502  501 -0.25555403256E-05 -0.64803303987E-05  0.13908142102E-05  0.71035084712E-05  0.00000000000E+00 0.  1.
<mgrwt>
<rscale>  1 0.59184240E+03</rscale>
<asrwt>0</asrwt>
<pdfrwt beam="1">  1        1 0.31843472E+00 0.59184240E+03</pdfrwt>
<pdfrwt beam="2">0</pdfrwt>
<totfact> 0.30764151E+00</totfact>
</mgrwt>
</event>
<event>
 6    1  0.1766489E-002  0.6507160E+03  0.7818608E-02  0.9805437E-01
          1   -1    0    0  502    0  0.00000000000E+00  0.00000000000E+00  0.10585873675E+03  0.10585873675E+03  0.00000000000E+00 0.  1.
         13   -1    0    0    0    0 -0.00000000000E+00 -0.00000000000E+00 -0.10000000000E+04  0.10000000000E+04  0.00000000000E+00 0.  1.
    9000005    2    1    2  501    0 -0.48666188874E-04 -0.85093037363E-04 -0.89414218198E+03  0.11058578128E+04  0.65071595995E+03 0.  0.
         13    1    3    3    0    0  0.12259841443E+03 -0.52435127400E+02  0.57289977823E+02  0.14512737635E+03  0.00000000000E+00 0.  1.
          1    1    3    3  501    0 -0.12259846310E+03  0.52435042307E+02 -0.95143215981E+03  0.96073043645E+03  0.00000000000E+00 0.  1.
         21    1    1    2  502  501  0.48666188867E-04  0.85093037362E-04  0.91873698475E-03  0.92395176827E-03  0.00000000000E+00 0.  1.
<mgrwt>
<rscale>  1 0.65071596E+03</rscale>
<asrwt>0</asrwt>
<pdfrwt beam="1">  1        1 0.38494167E+00 0.65071596E+03</pdfrwt>
<pdfrwt beam="2">0</pdfrwt>
<totfact> 0.15603169E+00</totfact>
</mgrwt>
</event>
<event>
 6    1  0.1766489E-002  0.5380451E+03  0.7818608E-02  0.1004300E+00
          3   -1    0    0  502    0  0.00000000000E+00  0.00000000000E+00  0.72373411170E+02  0.72373411170E+02  0.00000000000E+00 0.  1.
         13   -1    0    0    0    0 -0.00000000000E+00 -0.00000000000E+00 -0.10000000000E+04  0.10000000000E+04  0.00000000000E+00 0.  1.
    9000005    2    1    2  501    0  0.78866239051E-06 -0.12655315189E-04 -0.92762685949E+03  0.10723731402E+04  0.53804512953E+03 0.  0.
         13    1    3    3    0    0  0.16415636261E+03  0.90391089438E+02 -0.84851249321E+03  0.86895990216E+03  0.00000000000E+00 0.  1.
          1    1    3    3  501    0 -0.16415636182E+03 -0.90391102093E+02 -0.79114366280E+02  0.20341323805E+03  0.00000000000E+00 0.  1.
         21    1    1    2  502  501 -0.78866240039E-06  0.12655315183E-04  0.27065800077E-03  0.27095485301E-03  0.00000000000E+00 0.  1.
<mgrwt>
<rscale>  1 0.53804513E+03</rscale>
<asrwt>0</asrwt>
<pdfrwt beam="1">  1        3 0.26317660E+00 0.53804513E+03</pdfrwt>
<pdfrwt beam="2">0</pdfrwt>
<totfact> 0.32661328E-01</totfact>
</mgrwt>
</event>
<event>
 6    1  0.1766489E-002  0.5668365E+03  0.7818608E-02  0.9976704E-01
          1   -1    0    0  502    0  0.00000000000E+00  0.00000000000E+00  0.80341246610E+02  0.80341246610E+02  0.00000000000E+00 0.  1.
         13   -1    0    0    0    0 -0.00000000000E+00 -0.00000000000E+00 -0.10000000000E+04  0.10000000000E+04  0.00000000000E+00 0.  1.
    9000005    2    1    2  501    0 -0.12751248057E-02 -0.13989442425E-02 -0.91967404517E+03  0.10803258381E+04  0.56683645539E+03 0.  0.
         13    1    3    3    0    0  0.16192745295E+03 -0.59677993187E+02 -0.31356271246E+02  0.17540005313E+03  0.00000000000E+00 0.  1.
          3    1    3    3  501    0 -0.16192872808E+03  0.59676594243E+02 -0.88831777392E+03  0.90492578499E+03  0.00000000000E+00 0.  1.
         21    1    1    2  502  501  0.12751248057E-02  0.13989442425E-02  0.15291779140E-01  0.15408487841E-01  0.00000000000E+00 0.  1.
<mgrwt>
<rscale>  1 0.56683646E+03</rscale>
<asrwt>0</asrwt>
<pdfrwt beam="1">  1        1 0.29215060E+00 0.56683646E+03</pdfrwt>
<pdfrwt beam="2">0</pdfrwt>
<totfact> 0.40124590E+00</totfact>
</mgrwt>
</event>
<event>
 6    1  0.1766489E-002  0.5895887E+03  0.7818608E-02  0.9927245E-01
          1   -1    0    0  502    0  0.00000000000E+00  0.00000000000E+00  0.86903723153E+02  0.86903723153E+02  0.00000000000E+00 0.  1.
         13   -1    0    0    0    0 -0.00000000000E+00 -0.00000000000E+00 -0.10000000000E+04  0.10000000000E+04  0.00000000000E+00 0.  1.
    9000005    2    1    2  501    0 -0.26877062718E-05 -0.14719807950E-06 -0.91309628104E+03  0.10869037182E+04  0.58958873303E+03 0.  0.
         13    1    3    3    0    0 -0.60697947245E+01 -0.12125187988E+03  0.38679388780E+02  0.12741646636E+03  0.00000000000E+00 0.  1.
          3    1    3    3  501    0  0.60697920368E+01  0.12125187974E+03 -0.95177566982E+03  0.95948725181E+03  0.00000000000E+00 0.  1.
         21    1    1    2  502  501  0.26877062716E-05  0.14719808213E-06  0.41960190068E-05  0.49851788115E-05  0.00000000000E+00 0.  1.
<mgrwt>
<rscale>  1 0.58958873E+03</rscale>
<asrwt>0</asrwt>
<pdfrwt beam="1">  1        1 0.31601421E+00 0.58958873E+03</pdfrwt>
<pdfrwt beam="2">0</pdfrwt>
<totfact> 0.31526834E+00</totfact>
</mgrwt>
</event>
<event>
 6    1  0.1766489E-002  0.6358310E+03  0.7818608E-02  0.9833736E-01
          1   -1    0    0  502    0  0.00000000000E+00  0.00000000000E+00  0.10464335507E+03  0.10464335507E+03  0.00000000000E+00 0.  1.
         13   -1    0    0    0    0 -0.00000000000E+00 -0.00000000000E+00 -0.10000000000E+04  0.10000000000E+04  0.00000000000E+00 0.  1.
    9000005    2    1    2  501    0 -0.36591545567E-01 -0.76424470772E-01 -0.89892917092E+03  0.11010698244E+04  0.63583102839E+03 0.  0.
         13    1    3    3    0    0 -0.19111810460E+03 -0.23350829805E+03 -0.62306068787E+03  0.69228381169E+03  0.00000000000E+00 0.  1.
          3    1    3    3  501    0  0.19108151306E+03  0.23343187358E+03 -0.27586848304E+03  0.40878601269E+03  0.00000000000E+00 0.  1.
         21    1    1    2  502  501  0.36591545567E-01  0.76424470772E-01  0.35725259832E+01  0.35735306829E+01  0.00000000000E+00 0. -1.
<mgrwt>
<rscale>  1 0.63583103E+03</rscale>
<asrwt>0</asrwt>
<pdfrwt beam="1">  1        1 0.38052209E+00 0.63583103E+03</pdfrwt>
<pdfrwt beam="2">0</pdfrwt>
<totfact> 0.16365728E+00</totfact>
</mgrwt>
</event>
<event>
 6    1  0.1766489E-002  0.6575928E+03  0.7818608E-02  0.9792635E-01
          1   -1    0    0  502    0  0.00000000000E+00  0.00000000000E+00  0.10813454724E+03  0.10813454724E+03  0.00000000000E+00 0.  1.
         13   -1    0    0    0    0 -0.00000000000E+00 -0.00000000000E+00 -0.10000000000E+04  0.10000000000E+04  0.00000000000E+00 0.  1.
    9000005    2    1    2  501    0  0.54975575969E-03 -0.98503159228E-03 -0.89189290342E+03  0.11081070734E+04  0.65759283372E+03 0.  0.
         13    1    3    3    0    0 -0.14031318135E+03 -0.28585234072E+03 -0.58395961886E+03  0.66513771959E+03  0.00000000000E+00 0.  1.
          1    1    3    3  501    0  0.14031373111E+03  0.28585135569E+03 -0.30793328456E+03  0.44296935382E+03  0.00000000000E+00 0.  1.
         21    1    1    2  502  501 -0.54975575971E-03  0.98503159230E-03  0.27450661282E-01  0.27473829793E-01  0.00000000000E+00 0. -1.
<mgrwt>
<rscale>  1 0.65759283E+03</rscale>
<asrwt>0</asrwt>
<pdfrwt beam="1">  1        1 0.39321736E+00 0.65759283E+03</pdfrwt>
<pdfrwt beam="2">0</pdfrwt>
<totfact> 0.14321086E+00</totfact>
</mgrwt>
</event>
<event>
 6    1  0.1766489E-002  0.6384133E+03  0.7818608E-02  0.9828767E-01
          1   -1    0    0  502    0  0.00000000000E+00  0.00000000000E+00  0.10189400553E+03  0.10189400553E+03  0.00000000000E+00 0.  1.
         13   -1    0    0    0    0 -0.00000000000E+00 -0.00000000000E+00 -0.10000000000E+04  0.10000000000E+04  0.00000000000E+00 0.  1.
    9000005    2    1    2  501    0 -0.25832244290E-04 -0.14019242207E-03 -0.89810711143E+03  0.11018928795E+04  0.63841329428E+03 0.  0.
         13    1    3    3    0    0 -0.19476890360E+03  0.20595860046E+03 -0.19574480093E+03  0.34448497501E+03  0.00000000000E+00 0.  1.
          3    1    3    3  501    0  0.19476887777E+03 -0.20595874065E+03 -0.70236231050E+03  0.75740790450E+03  0.00000000000E+00 0.  1.
         21    1    1    2  502  501  0.25832244292E-04  0.14019242208E-03  0.11169583895E-02  0.11260183231E-02  0.00000000000E+00 0.  1.
<mgrwt>
<rscale>  1 0.63841329E+03</rscale>
<asrwt>0</asrwt>
<pdfrwt beam="1">  1        1 0.37052444E+00 0.63841329E+03</pdfrwt>
<pdfrwt beam="2">0</pdfrwt>
<totfact> 0.18102504E+00</totfact>
</mgrwt>
</event>
<event>
 6    1  0.1766489E-002  0.6178372E+03  0.7818608E-02  0.9869075E-01
          1   -1    0    0  502    0  0.00000000000E+00  0.00000000000E+00  0.95431101954E+02  0.95431101954E+02  0.00000000000E+00 0.  1.
         13   -1    0    0    0    0 -0.00000000000E+00 -0.00000000000E+00 -0.10000000000E+04  0.10000000000E+04  0.00000000000E+00 0.  1.
    9000005    2    1    2  501    0 -0.60013261492E-03  0.11865828131E-03 -0.90456900045E+03  0.10954304817E+04  0.61783724688E+03 0.  0.
         13    1    3    3    0    0 -0.27782570501E+03 -0.12986862127E+03 -0.51809872300E+03  0.60206251164E+03  0.00000000000E+00 0.  1.
          3    1    3    3  501    0  0.27782510488E+03  0.12986873992E+03 -0.38647027746E+03  0.49336797005E+03  0.00000000000E+00 0.  1.
         21    1    1    2  502  501  0.60013261492E-03 -0.11865828130E-03  0.10240726108E-03  0.62026300094E-03  0.00000000000E+00 0. -1.
<mgrwt>
<rscale>  1 0.61783725E+03</rscale>
<asrwt>0</asrwt>
<pdfrwt beam="1">  1        1 0.34702292E+00 0.61783725E+03</pdfrwt>
<pdfrwt beam="2">0</pdfrwt>
<totfact> 0.23019489E+00</totfact>
</mgrwt>
</event>
<event>
 6    1  0.1766489E-002  0.6467966E+03  0.7818608E-02  0.9812809E-01
          1   -1    0    0  502    0  0.00000000000E+00  0.00000000000E+00  0.12905515820E+03  0.12905515820E+03  0.00000000000E+00 0.  1.
         13   -1    0    0    0    0 -0.00000000000E+00 -0.00000000000E+00 -0.10000000000E+04  0.10000000000E+04  0.00000000000E+00 0.  1.
    9000005    2    1    2  501    0 -0.63063734881E+01 -0.31114565796E+02 -0.88346959165E+03  0.10949266377E+04  0.64601697816E+03 0.  0.
         13    1    3    3    0    0  0.22057842206E+03 -0.23766617621E+03 -0.57327419089E+03  0.65862231175E+03  0.00000000000E+00 0.  1.
          1    1    3    3  501    0 -0.22688479555E+03  0.20655161041E+03 -0.31019540076E+03  0.43630432598E+03  0.00000000000E+00 0.  1.
         21    1    1    2  502  501  0.63063734881E+01  0.31114565796E+02  0.12524749850E+02  0.34128520478E+02  0.00000000000E+00 0.  1.
<mgrwt>
<rscale>  1 0.64679659E+03</rscale>
<asrwt>0</asrwt>
<pdfrwt beam="1">  1        1 0.46929247E+00 0.64679659E+03</pdfrwt>
<pdfrwt beam="2">0</pdfrwt>
<totfact> 0.64694284E-01</totfact>
</mgrwt>
</event>
<event>
 6    1  0.1766489E-002  0.6577076E+03  0.7818608E-02  0.9792423E-01
          1   -1    0    0  502    0  0.00000000000E+00  0.00000000000E+00  0.10818700680E+03  0.10818700680E+03  0.00000000000E+00 0.  1.
         13   -1    0    0    0    0 -0.00000000000E+00 -0.00000000000E+00 -0.10000000000E+04  0.10000000000E+04  0.00000000000E+00 0.  1.
    9000005    2    1    2  501    0  0.43793721713E-03 -0.85134342720E-03 -0.89185515722E+03  0.11081448319E+04  0.65770764557E+03 0.  0.
         13    1    3    3    0    0  0.17683565587E+03  0.16555201509E+03 -0.82065793357E+03  0.85566217798E+03  0.00000000000E+00 0.  1.
          3    1    3    3  501    0 -0.17683521793E+03 -0.16555286643E+03 -0.71197223645E+02  0.25248265393E+03  0.00000000000E+00 0.  1.
         21    1    1    2  502  501 -0.43793721714E-03  0.85134342718E-03  0.42164019212E-01  0.42174886968E-01  0.00000000000E+00 0. -1.
<mgrwt>
<rscale>  1 0.65770765E+03</rscale>
<asrwt>0</asrwt>
<pdfrwt beam="1">  1        1 0.39340813E+00 0.65770765E+03</pdfrwt>
<pdfrwt beam="2">0</pdfrwt>
<totfact> 0.14292861E+00</totfact>
</mgrwt>
</event>
<event>
 6    1  0.1766489E-002  0.6502505E+03  0.7818608E-02  0.9806309E-01
          1   -1    0    0  502    0  0.00000000000E+00  0.00000000000E+00  0.10570643789E+03  0.10570643789E+03  0.00000000000E+00 0.  1.
         13   -1    0    0    0    0 -0.00000000000E+00 -0.00000000000E+00 -0.10000000000E+04  0.10000000000E+04  0.00000000000E+00 0.  1.
    9000005    2    1    2  501    0 -0.41963835429E-06 -0.48423445378E-05 -0.89429356003E+03  0.11057064326E+04  0.65025052371E+03 0.  0.
         13    1    3    3    0    0 -0.28054667349E+03  0.12701668255E+03 -0.26988741032E+03  0.40948612663E+03  0.00000000000E+00 0.  1.
          1    1    3    3  501    0  0.28054667307E+03 -0.12701668740E+03 -0.62440614971E+03  0.69622030597E+03  0.00000000000E+00 0.  1.
         21    1    1    2  502  501  0.41963832207E-06  0.48423445386E-05 -0.20854922270E-05  0.52890145378E-05  0.00000000000E+00 0.  1.
<mgrwt>
<rscale>  1 0.65025052E+03</rscale>
<asrwt>0</asrwt>
<pdfrwt beam="1">  1        1 0.38438786E+00 0.65025052E+03</pdfrwt>
<pdfrwt beam="2">0</pdfrwt>
<totfact> 0.15692762E+00</totfact>
</mgrwt>
</event>
<event>
 6    1  0.1766489E-002  0.6606014E+03  0.7818608E-02  0.9787087E-01
          1   -1    0    0  502    0  0.00000000000E+00  0.00000000000E+00  0.10910045659E+03  0.10910045659E+03  0.00000000000E+00 0.  1.
         13   -1    0    0    0    0 -0.00000000000E+00 -0.00000000000E+00 -0.10000000000E+04  0.10000000000E+04  0.00000000000E+00 0.  1.
    9000005    2    1    2  501    0 -0.59807561286E-05  0.12418549554E-03 -0.89090145351E+03  0.11090985425E+04  0.66060137527E+03 0.  0.
         13    1    3    3    0    0 -0.21731068878E+03 -0.21962338400E+03 -0.24936752766E+03  0.39704222711E+03  0.00000000000E+00 0.  1.
          1    1    3    3  501    0  0.21731068280E+03  0.21962350819E+03 -0.64153392584E+03  0.71205631534E+03  0.00000000000E+00 0.  1.
         21    1    1    2  502  501  0.59807561416E-05 -0.12418549552E-03  0.19100976811E-02  0.19141397437E-02  0.00000000000E+00 0.  1.
<mgrwt>
<rscale>  1 0.66060138E+03</rscale>
<asrwt>0</asrwt>
<pdfrwt beam="1">  1        1 0.39672977E+00 0.66060138E+03</pdfrwt>
<pdfrwt beam="2">0</pdfrwt>
<totfact> 0.13807460E+00</totfact>
</mgrwt>
</event>
<event>
 6    1  0.1766489E-002  0.6424660E+03  0.7818608E-02  0.9821020E-01
          1   -1    0    0  502    0  0.00000000000E+00  0.00000000000E+00  0.10319064713E+03  0.10319064713E+03  0.00000000000E+00 0.  1.
         13   -1    0    0    0    0 -0.00000000000E+00 -0.00000000000E+00 -0.10000000000E+04  0.10000000000E+04  0.00000000000E+00 0.  1.
    9000005    2    1    2  501    0  0.18715928718E-06  0.22404022957E-05 -0.89680935554E+03  0.11031906436E+04  0.64246601157E+03 0.  0.
         13    1    3    3    0    0  0.14394576077E+03 -0.28628279007E+03 -0.48727478580E+03  0.58319373694E+03  0.00000000000E+00 0.  1.
          1    1    3    3  501    0 -0.14394576058E+03  0.28628279231E+03 -0.40953456974E+03  0.51999690670E+03  0.00000000000E+00 0.  1.
         21    1    1    2  502  501 -0.18715931108E-06 -0.22404022437E-05  0.26746690122E-05  0.34940356533E-05  0.00000000000E+00 0.  1.
<mgrwt>
<rscale>  1 0.64246601E+03</rscale>
<asrwt>0</asrwt>
<pdfrwt beam="1">  1        1 0.37523951E+00 0.64246601E+03</pdfrwt>
<pdfrwt beam="2">0</pdfrwt>
<totfact> 0.17245764E+00</totfact>
</mgrwt>
</event>
<event>
 6    1  0.1766489E-002  0.6571206E+03  0.7818608E-02  0.9793509E-01
          1   -1    0    0  502    0  0.00000000000E+00  0.00000000000E+00  0.10795233719E+03  0.10795233719E+03  0.00000000000E+00 0.  1.
         13   -1    0    0    0    0 -0.00000000000E+00 -0.00000000000E+00 -0.10000000000E+04  0.10000000000E+04  0.00000000000E+00 0.  1.
    9000005    2    1    2  501    0  0.29538374406E-04 -0.20425481054E-04 -0.89204813649E+03  0.11079518621E+04  0.65712057570E+03 0.  0.
         13    1    3    3    0    0 -0.28501966837E+03 -0.48651869660E+02 -0.70911940513E+03  0.76580255061E+03  0.00000000000E+00 0.  1.
          3    1    3    3  501    0  0.28501969791E+03  0.48651849234E+02 -0.18292873136E+03  0.34214931154E+03  0.00000000000E+00 0.  1.
         21    1    1    2  502  501 -0.29538374386E-04  0.20425481051E-04  0.47368495030E-03  0.47504436422E-03  0.00000000000E+00 0. -1.
<mgrwt>
<rscale>  1 0.65712058E+03</rscale>
<asrwt>0</asrwt>
<pdfrwt beam="1">  1        1 0.39255478E+00 0.65712058E+03</pdfrwt>
<pdfrwt beam="2">0</pdfrwt>
<totfact> 0.14419727E+00</totfact>
</mgrwt>
</event>
<event>
 6    1  0.1766489E-002  0.6503266E+03  0.7818608E-02  0.9806167E-01
          1   -1    0    0  502    0  0.00000000000E+00  0.00000000000E+00  0.10573140299E+03  0.10573140299E+03  0.00000000000E+00 0.  1.
         13   -1    0    0    0    0 -0.00000000000E+00 -0.00000000000E+00 -0.10000000000E+04  0.10000000000E+04  0.00000000000E+00 0.  1.
    9000005    2    1    2  501    0  0.44015010872E-05  0.11306563920E-04 -0.89426883415E+03  0.11057311655E+04  0.65032658159E+03 0.  0.
         13    1    3    3    0    0  0.10801094795E+03  0.30467214521E+03 -0.50699961442E+03  0.60128203862E+03  0.00000000000E+00 0.  1.
          1    1    3    3  501    0 -0.10801094355E+03 -0.30467213391E+03 -0.38726921973E+03  0.50444912692E+03  0.00000000000E+00 0.  1.
         21    1    1    2  502  501 -0.44015010883E-05 -0.11306563870E-04  0.23713763363E-03  0.23744782349E-03  0.00000000000E+00 0.  1.
<mgrwt>
<rscale>  1 0.65032658E+03</rscale>
<asrwt>0</asrwt>
<pdfrwt beam="1">  1        1 0.38447864E+00 0.65032658E+03</pdfrwt>
<pdfrwt beam="2">0</pdfrwt>
<totfact> 0.15678043E+00</totfact>
</mgrwt>
</event>
<event>
 6    1  0.1766489E-002  0.6697686E+03  0.7818608E-02  0.9770376E-01
          1   -1    0    0  502    0  0.00000000000E+00  0.00000000000E+00  0.11545712360E+03  0.11545712360E+03  0.00000000000E+00 0.  1.
         13   -1    0    0    0    0 -0.00000000000E+00 -0.00000000000E+00 -0.10000000000E+04  0.10000000000E+04  0.00000000000E+00 0.  1.
    9000005    2    1    2  501    0 -0.46387336146E+00 -0.16015527093E+00 -0.88783225195E+03  0.11121313425E+04  0.66976844852E+03 0.  0.
         13    1    3    3    0    0 -0.15195271784E+03  0.18018240794E+03 -0.48842168825E+02  0.24070913162E+03  0.00000000000E+00 0.  1.
          1    1    3    3  501    0  0.15148884447E+03 -0.18034256321E+03 -0.83899008312E+03  0.87142221092E+03  0.00000000000E+00 0.  1.
         21    1    1    2  502  501  0.46387336146E+00  0.16015527093E+00  0.32893755504E+01  0.33257810688E+01  0.00000000000E+00 0.  1.
<mgrwt>
<rscale>  1 0.66976863E+03</rscale>
<asrwt>0</asrwt>
<pdfrwt beam="1">  1        1 0.41984497E+00 0.66976863E+03</pdfrwt>
<pdfrwt beam="2">0</pdfrwt>
<totfact> 0.10858776E+00</totfact>
</mgrwt>
</event>
